Title
43134
    1CHL1    C3    1   3.581   5.288   8.668 -0.0915 -0.0308  1.0886
    1CHL1    H3    2   3.665   5.357   8.645 -0.6653  0.4488  0.3775
    1CHL1    O3    3   3.573   5.264   8.807 -0.4722  0.2890  0.8360
    1CHL1   H3'    4   3.627   5.186   8.824 -1.3850 -0.6333 -0.3399
    1CHL1    C4    5   3.444   5.340   8.612  0.4539  0.5274 -0.4170
    1CHL1   H4A    6   3.373   5.261   8.647  2.6330 -0.3380  2.4248
    1CHL1   H4B    7   3.407   5.427   8.671  0.9735  0.8502 -0.5614
    1CHL1    C5    8   3.432   5.357   8.465 -0.6309 -0.5385  0.0775
    1CHL1    C6    9   3.410   5.473   8.395  0.1113  0.5457 -0.3030
    1CHL1    H6   10   3.385   5.562   8.454  1.2198  1.3128 -0.9351
    1CHL1    C7   11   3.393   5.478   8.243  0.0658  0.3408 -0.1651
    1CHL1   H7A   12   3.296   5.528   8.224 -0.8951 -1.6775 -0.9570
    1CHL1   H7B   13   3.468   5.545   8.196 -1.3570  2.6280  0.7084
    1CHL1    C8   14   3.402   5.338   8.173 -0.2552 -0.3470  0.0617
    1CHL1    H8   15   3.310   5.277   8.176 -0.1592 -0.4965 -0.0595
    1CHL1   C14   16   3.456   5.359   8.026  0.4095  0.1591  0.0907
    1CHL1   H14   17   3.561   5.392   8.041  0.9549 -1.8709  1.1065
    1CHL1   C15   18   3.396   5.472   7.938  0.9603 -0.1003  0.1316
    1CHL1  H15A   19   3.286   5.477   7.952  0.6237 -0.2869 -2.0007
    1CHL1  H15B   20   3.441   5.569   7.967 -1.1812  0.9477  0.1373
    1CHL1   C16   21   3.439   5.425   7.801  0.1392 -0.7552  0.1580
    1CHL1  H16A   22   3.347   5.394   7.747 -0.8647 -0.2604  1.5341
    1CHL1  H16B   23   3.493   5.499   7.738 -1.0204 -1.1639 -1.4011
    1CHL1   C17   24   3.515   5.294   7.812 -0.6801 -0.0272  1.3826
    1CHL1   H17   25   3.620   5.323   7.832  0.1318 -1.4548 -0.5415
    1CHL1   C13   26   3.470   5.230   7.945 -0.2953  0.2591 -0.1125
    1CHL1   C18   27   3.339   5.170   7.911  0.1898  0.3223  0.0377
    1CHL1  H18A   28   3.366   5.073   7.864  1.1673  1.0741 -0.9853
    1CHL1  H18B   29   3.282   5.141   8.002  1.3404 -2.0673  0.0685
    1CHL1  H18C   30   3.272   5.228   7.844 -2.1862 -1.2357  0.9220
    1CHL1   C12   31   3.571   5.133   8.012  0.3761 -0.2932 -0.6856
    1CHL1  H12A   32   3.561   5.034   7.962  0.2230  0.4404 -2.1404
    1CHL1  H12B   33   3.674   5.171   8.000  0.1718  0.4051 -0.3042
    1CHL1   C11   34   3.547   5.111   8.163  0.0767 -0.0545 -0.2529
    1CHL1  H11A   35   3.458   5.046   8.175 -0.5424  0.8039 -0.1237
    1CHL1  H11B   36   3.643   5.070   8.201  1.0987  0.7185 -1.8916
    1CHL1    C9   37   3.508   5.244   8.238 -0.3829 -0.4129  0.5418
    1CHL1    H9   38   3.604   5.301   8.239  0.6874 -2.1408  0.6362
    1CHL1   C10   39   3.468   5.226   8.391  0.8179  0.6305 -0.0579
    1CHL1   C19   40   3.340   5.132   8.412 -0.1122  0.3932  0.0326
    1CHL1  H19A   41   3.244   5.177   8.380 -1.3445 -1.4246  0.9566
    1CHL1  H19B   42   3.362   5.034   8.364  1.5894  0.6405  0.2639
    1CHL1  H19C   43   3.321   5.120   8.521 -1.2459 -0.1973 -0.2152
    1CHL1    C1   44   3.599   5.161   8.454 -0.3024 -0.4101 -0.2825
    1CHL1   H1A   45   3.589   5.056   8.418  0.2213 -0.5671  0.0221
    1CHL1   H1B   46   3.695   5.200   8.412 -0.2460  0.1848  0.3896
    1CHL1    C2   47   3.617   5.154   8.608 -0.0410 -0.5256 -0.0682
    1CHL1   H2A   48   3.723   5.136   8.637  0.0649  0.1926 -0.0020
    1CHL1   H2B   49   3.550   5.074   8.647 -0.9403  0.5047  0.5423
    1CHL1   C20   50   3.529   5.225   7.670  0.1104 -0.7013 -0.2455
    1CHL1   H20   51   3.425   5.188   7.650 -0.1648  0.1505 -0.4222
    1CHL1   C21   52   3.628   5.106   7.680 -0.2858 -0.7169  0.4371
    1CHL1  H21A   53   3.596   5.040   7.763 -1.8050 -0.9313 -0.2657
    1CHL1  H21B   54   3.732   5.136   7.703 -0.4325  0.6054 -0.5194
    1CHL1  H21C   55   3.628   5.056   7.581 -1.3117 -0.1801  0.1478
    1CHL1   C22   56   3.569   5.321   7.555 -0.3404  0.1026 -0.4154
    1CHL1  H22A   57   3.506   5.412   7.556  0.1411  0.4354 -0.4932
    1CHL1  H22B   58   3.676   5.345   7.570 -0.2205 -0.2424 -0.6894
    1CHL1   C23   59   3.564   5.266   7.412  0.3318 -0.5081 -0.1093
    1CHL1  H23A   60   3.649   5.195   7.404  3.6271  3.0830  0.6267
    1CHL1  H23B   61   3.468   5.209   7.409 -0.0741  0.1690 -0.1828
    1CHL1   C24   62   3.563   5.376   7.304  0.1068 -0.9661  0.3338
    1CHL1  H24A   63   3.469   5.426   7.334 -0.0359 -1.2428  0.3437
    1CHL1  H24B   64   3.651   5.443   7.314 -1.0083  0.3149  2.1284
    1CHL1   C25   65   3.529   5.345   7.154  0.6288  0.2763 -0.1765
    1CHL1   H25   66   3.431   5.292   7.158 -1.1602  3.4350  1.5028
    1CHL1   C26   67   3.517   5.460   7.060 -0.4214 -0.8581  0.3213
    1CHL1  H26A   68   3.491   5.419   6.960 -0.0375 -3.1924  1.1112
    1CHL1  H26B   69   3.425   5.520   7.081 -0.1634  1.3129 -3.7344
    1CHL1  H26C   70   3.612   5.518   7.054  1.3162 -3.6084 -0.6061
    1CHL1   C27   71   3.638   5.255   7.094  0.0665  0.6237 -0.6355
    1CHL1  H27A   72   3.649   5.155   7.141  1.2573 -1.0727 -4.1859
    1CHL1  H27B   73   3.617   5.217   6.991  0.6105 -1.6077  0.0133
    1CHL1  H27C   74   3.728   5.319   7.094  1.5793 -1.3783  1.1718
    2CHL1    C3   75   4.141   5.341   8.813 -0.2518  0.2648  0.4919
    2CHL1    H3   76   4.048   5.393   8.781 -0.7793 -0.9829 -0.0478
    2CHL1    O3   77   4.172   5.370   8.949  0.2779 -0.1807  0.1163
    2CHL1   H3'   78   4.264   5.352   8.966  1.1393  1.7988 -1.9141
    2CHL1    C4   79   4.130   5.190   8.795 -0.1095  0.2034  0.3609
    2CHL1   H4A   80   4.217   5.134   8.835 -2.4299 -2.5445  1.9744
    2CHL1   H4B   81   4.037   5.160   8.847 -0.1198  1.2716  0.9963
    2CHL1    C5   82   4.111   5.143   8.651 -0.4070 -0.2065  1.1206
    2CHL1    C6   83   4.007   5.076   8.609  0.1646 -0.7507 -0.6564
    2CHL1    H6   84   3.930   5.047   8.682 -0.5366  0.6812 -0.7950
    2CHL1    C7   85   3.978   5.041   8.469 -0.7844 -0.3262 -0.2233
    2CHL1   H7A   86   3.939   4.937   8.480  1.8463 -1.3778  0.1828
    2CHL1   H7B   87   3.891   5.104   8.444 -0.4244  0.9711  1.6144
    2CHL1    C8   88   4.100   5.057   8.379  0.2291 -1.3905  0.1761
    2CHL1    H8   89   4.169   4.975   8.409  0.5491 -0.8931  0.8240
    2CHL1   C14   90   4.059   5.045   8.231  0.0540 -0.4044  0.0083
    2CHL1   H14   91   3.990   5.130   8.214 -0.4120 -0.3480  1.9562
    2CHL1   C15   92   3.973   4.924   8.184 -0.4748 -0.0843 -0.1893
    2CHL1  H15A   93   3.999   4.830   8.238 -0.0272  0.3002  0.2664
    2CHL1  H15B   94   3.870   4.943   8.220  0.4008  1.1565  1.7980
    2CHL1   C16   95   3.990   4.914   8.038  0.5168  0.3273 -0.8102
    2CHL1  H16A   96   4.037   4.814   8.023 -1.0880 -1.5874  4.4902
    2CHL1  H16B   97   3.892   4.929   7.988 -1.4575  0.8992  2.8781
    2CHL1   C17   98   4.100   5.020   7.998  0.9559  0.6360 -0.7380
    2CHL1   H17   99   4.041   5.111   7.973 -1.4055 -0.5959  0.0222
    2CHL1   C13  100   4.174   5.056   8.130 -0.8991 -0.0382  0.6284
    2CHL1   C18  101   4.279   4.944   8.163  0.6717 -0.2571 -0.2154
    2CHL1  H18A  102   4.310   4.944   8.270 -0.1385 -2.8109  0.0826
    2CHL1  H18B  103   4.224   4.849   8.150 -3.3313  1.6790  0.9577
    2CHL1  H18C  104   4.371   4.952   8.101  0.3546  3.3434 -0.4809
    2CHL1   C12  105   4.238   5.201   8.155  0.5611 -0.4990  0.8214
    2CHL1  H12A  106   4.321   5.215   8.082 -0.4345  1.9843  0.0520
    2CHL1  H12B  107   4.159   5.271   8.121  1.7443 -0.0750 -1.2374
    2CHL1   C11  108   4.277   5.233   8.301 -0.1225  0.3865  0.2032
    2CHL1  H11A  109   4.375   5.183   8.321 -0.5604 -0.7071 -0.3029
    2CHL1  H11B  110   4.287   5.343   8.309  1.7771  0.1797  1.3094
    2CHL1    C9  111   4.178   5.189   8.409  0.3048 -0.9175 -0.1852
    2CHL1    H9  112   4.102   5.268   8.393  1.9883  0.6245 -1.0111
    2CHL1   C10  113   4.220   5.205   8.559 -0.3646 -0.2254 -0.2269
    2CHL1   C19  114   4.351   5.123   8.585  0.6071  0.2051  0.6866
    2CHL1  H19A  115   4.431   5.159   8.518  1.8049  0.9022  2.4418
    2CHL1  H19B  116   4.384   5.130   8.690  0.7364  2.0947  0.5447
    2CHL1  H19C  117   4.338   5.014   8.563 -0.2714  0.5188 -0.4615
    2CHL1    C1  118   4.243   5.354   8.579  1.4356 -0.2091 -0.8066
    2CHL1   H1A  119   4.333   5.392   8.525  1.3755  0.2976 -0.5561
    2CHL1   H1B  120   4.147   5.396   8.542  0.4609 -1.8764 -0.2984
    2CHL1    C2  121   4.258   5.399   8.727 -0.1267  0.0259  0.4707
    2CHL1   H2A  122   4.254   5.510   8.730 -3.0734 -0.0071  3.7430
    2CHL1   H2B  123   4.352   5.357   8.769  0.2208  1.5590  1.2914
    2CHL1   C20  124   4.173   4.979   7.868 -0.7978 -0.4308 -0.0420
    2CHL1   H20  125   4.231   4.884   7.879  0.7687  0.6267  1.5198
    2CHL1   C21  126   4.283   5.081   7.833  0.6007  0.1373 -0.5928
    2CHL1  H21A  127   4.340   5.061   7.740  1.5598 -2.4520  0.4538
    2CHL1  H21B  128   4.356   5.074   7.917 -1.5154  0.5433  1.3895
    2CHL1  H21C  129   4.241   5.184   7.842  0.6059  0.0222  1.0521
    2CHL1   C22  130   4.067   4.959   7.753 -0.0540  0.4909  0.0664
    2CHL1  H22A  131   3.974   4.910   7.790  1.2994 -1.6867  0.8011
    2CHL1  H22B  132   4.043   5.064   7.728 -1.3926  0.4109  0.8854
    2CHL1   C23  133   4.122   4.896   7.625  0.5864  0.6061  0.1580
    2CHL1  H23A  134   4.202   4.946   7.566  0.7937  0.3080  0.1830
    2CHL1  H23B  135   4.167   4.803   7.664 -0.4446  0.2880  0.6175
    2CHL1   C24  136   3.997   4.852   7.541 -0.4471 -0.7193  0.3574
    2CHL1  H24A  137   3.960   4.751   7.568  1.2674 -2.7315 -3.8579
    2CHL1  H24B  138   3.918   4.930   7.543  1.0601  0.9462 -1.0604
    2CHL1   C25  139   4.027   4.835   7.385 -0.1312  0.6028 -0.1508
    2CHL1   H25  140   4.064   4.935   7.354 -3.8098  2.1171 -0.1754
    2CHL1   C26  141   4.126   4.715   7.360 -0.8389 -0.5773 -0.5663
    2CHL1  H26A  142   4.224   4.749   7.402  1.0114 -2.4071 -3.0784
    2CHL1  H26B  143   4.105   4.624   7.421 -1.2081 -2.0696 -2.8229
    2CHL1  H26C  144   4.159   4.697   7.256  2.8237  0.0594  0.3088
    2CHL1   C27  145   3.899   4.805   7.310 -0.2986  0.0011 -0.4626
    2CHL1  H27A  146   3.922   4.820   7.202 -0.7975 -0.2654 -0.6101
    2CHL1  H27B  147   3.880   4.696   7.320  3.3386 -0.5952  1.4263
    2CHL1  H27C  148   3.807   4.850   7.355 -0.3264 -0.8266  0.3476
    3CHL1    C3  149   5.286   4.241   8.733 -0.2680  0.6516 -0.3150
    3CHL1    H3  150   5.364   4.193   8.669 -0.0766  0.8406 -0.2224
    3CHL1    O3  151   5.289   4.166   8.850  0.2373  0.6929 -0.5242
    3CHL1   H3'  152   5.240   4.214   8.917  0.6433  2.1745 -1.2484
    3CHL1    C4  153   5.319   4.382   8.769 -0.4729 -0.6332 -0.1337
    3CHL1   H4A  154   5.243   4.419   8.840  1.8754  1.2175  1.5977
    3CHL1   H4B  155   5.415   4.373   8.825  0.2575 -0.2507 -1.2788
    3CHL1    C5  156   5.332   4.462   8.638  0.0731  0.7242  0.1393
    3CHL1    C6  157   5.447   4.519   8.607  0.1738 -0.2934 -0.2989
    3CHL1    H6  158   5.534   4.509   8.674  0.6424 -0.0061 -0.8609
    3CHL1    C7  159   5.471   4.588   8.482  0.7883 -0.1582  0.0078
    3CHL1   H7A  160   5.533   4.679   8.501  0.5018 -0.0343  0.3801
    3CHL1   H7B  161   5.532   4.522   8.418  3.5093  1.8852  0.3148
    3CHL1    C8  162   5.335   4.629   8.407 -1.4647 -0.6623 -0.4526
    3CHL1    H8  163   5.294   4.723   8.449  0.3770  2.4481 -4.8315
    3CHL1   C14  164   5.369   4.657   8.261  0.5415  0.0625 -0.2298
    3CHL1   H14  165   5.410   4.562   8.221  1.3327  0.8480 -1.3688
    3CHL1   C15  166   5.487   4.752   8.212 -0.0895  0.8589 -0.5346
    3CHL1  H15A  167   5.488   4.844   8.274 -0.6214 -0.0060  0.8129
    3CHL1  H15B  168   5.581   4.696   8.228 -0.1925  1.3937  2.6326
    3CHL1   C16  169   5.454   4.778   8.072 -0.3440 -0.0850 -0.2190
    3CHL1  H16A  170   5.465   4.887   8.054  2.7261 -0.4150 -0.9776
    3CHL1  H16B  171   5.528   4.729   8.005  1.7504  1.1511  1.0704
    3CHL1   C17  172   5.314   4.717   8.038  0.3176 -0.1303  0.2326
    3CHL1   H17  173   5.336   4.622   7.985 -2.3426 -0.5397 -0.2645
    3CHL1   C13  174   5.248   4.686   8.174  1.1112 -0.5607 -0.0220
    3CHL1   C18  175   5.182   4.824   8.219 -0.0185 -0.1089 -0.5775
    3CHL1  H18A  176   5.267   4.895   8.218 -1.2005  1.3647  0.1564
    3CHL1  H18B  177   5.102   4.863   8.153  1.1653  0.0894 -1.9467
    3CHL1  H18C  178   5.144   4.818   8.323  2.5228  0.9552  0.4864
    3CHL1   C12  179   5.149   4.561   8.172  0.2556 -0.3781  0.5685
    3CHL1  H12A  180   5.046   4.583   8.138  0.0778 -0.6639  0.9217
    3CHL1  H12B  181   5.191   4.471   8.122 -3.5987 -1.7651 -0.4953
    3CHL1   C11  182   5.120   4.518   8.317  0.1673 -0.2910 -0.1729
    3CHL1  H11A  183   5.051   4.595   8.356 -0.5086 -2.0503  2.3420
    3CHL1  H11B  184   5.078   4.415   8.321 -2.2182  0.6418  0.4479
    3CHL1    C9  185   5.242   4.506   8.412 -0.2695 -0.5939  0.2761
    3CHL1    H9  186   5.311   4.429   8.372 -0.9033 -1.7621  1.3865
    3CHL1   C10  187   5.204   4.461   8.552  0.3880  0.0795  0.7287
    3CHL1   C19  188   5.085   4.548   8.604  0.4323 -0.4438  0.0205
    3CHL1  H19A  189   5.115   4.655   8.600 -1.5440  0.1508  0.1036
    3CHL1  H19B  190   4.989   4.530   8.552  0.0457 -0.7712  0.8418
    3CHL1  H19C  191   5.066   4.519   8.709  0.2823 -2.6691 -0.5804
    3CHL1    C1  192   5.135   4.311   8.544 -0.5477 -1.0483 -0.7732
    3CHL1   H1A  193   5.028   4.315   8.516 -0.7879  0.6991  0.3063
    3CHL1   H1B  194   5.198   4.264   8.465 -1.6259 -1.5945 -1.3403
    3CHL1    C2  195   5.146   4.231   8.670  0.3595 -0.1306 -0.1316
    3CHL1   H2A  196   5.107   4.128   8.658 -2.1640  0.8345 -0.9236
    3CHL1   H2B  197   5.073   4.275   8.742  0.7296 -0.3232  0.3624
    3CHL1   C20  198   5.240   4.791   7.919  0.0069  0.2453 -0.2915
    3CHL1   H20  199   5.242   4.898   7.948  0.4112  0.2152 -0.1991
    3CHL1   C21  200   5.103   4.713   7.900  0.3347  0.1786  0.3182
    3CHL1  H21A  201   5.028   4.743   7.977  1.2298  1.5752  0.6927
    3CHL1  H21B  202   5.117   4.605   7.918 -1.1764  0.0007  0.6046
    3CHL1  H21C  203   5.057   4.725   7.799 -1.3190 -0.4243  0.9605
    3CHL1   C22  204   5.319   4.793   7.792 -0.6493  0.0856 -0.2236
    3CHL1  H22A  205   5.423   4.830   7.804 -0.5264  0.1390 -1.3915
    3CHL1  H22B  206   5.337   4.692   7.749  0.6621  1.3535 -2.9002
    3CHL1   C23  207   5.270   4.880   7.673  0.4790  0.3617 -0.1315
    3CHL1  H23A  208   5.203   4.831   7.600 -2.0861  2.0514  0.9442
    3CHL1  H23B  209   5.200   4.960   7.705 -0.9053  0.4442 -3.0746
    3CHL1   C24  210   5.392   4.937   7.599  0.0891  0.1689 -1.0813
    3CHL1  H24A  211   5.465   4.980   7.671 -0.8766  0.1382 -0.0430
    3CHL1  H24B  212   5.449   4.856   7.549 -1.3482 -1.8800  0.4200
    3CHL1   C25  213   5.355   5.050   7.505  0.7717  0.2397  0.3656
    3CHL1   H25  214   5.270   5.106   7.548 -0.0010 -1.4118  1.0676
    3CHL1   C26  215   5.474   5.147   7.488 -0.3055 -0.7305  0.0942
    3CHL1  H26A  216   5.525   5.180   7.581  2.1500  0.0903 -1.4772
    3CHL1  H26B  217   5.551   5.094   7.429  2.5193 -0.6886  3.4452
    3CHL1  H26C  218   5.432   5.237   7.438  0.7043  0.4739  1.3527
    3CHL1   C27  219   5.311   4.999   7.364  0.1562 -0.0724  0.3128
    3CHL1  H27A  220   5.337   5.067   7.281  2.1624 -1.9761 -0.7123
    3CHL1  H27B  221   5.373   4.908   7.348 -0.7749 -1.2097  2.6251
    3CHL1  H27C  222   5.206   4.964   7.368  0.4898 -1.0334  2.7084
    4CHL1    C3  223   3.063   3.508   0.003  0.9275  0.1727  0.5108
    4CHL1    H3  224   3.161   3.554  -0.018  1.1775  0.4929  2.2641
    4CHL1    O3  225   3.042   3.516   0.138  0.3930  0.0516 -0.3691
    4CHL1   H3'  226   2.982   3.444   0.156 -1.6958  1.8085  0.0473
    4CHL1    C4  227   2.968   3.589  -0.083 -0.6163 -0.3958  0.1337
    4CHL1   H4A  228   2.872   3.537  -0.061 -0.3711 -0.1617  1.9223
    4CHL1   H4B  229   2.963   3.689  -0.036  0.7740 -1.7183  3.3726
    4CHL1    C5  230   2.993   3.580  -0.233 -0.7487 -0.0247  0.6393
    4CHL1    C6  231   3.030   3.686  -0.302 -0.8204 -0.5013  0.0469
    4CHL1    H6  232   3.034   3.787  -0.259 -0.2300 -0.5347  0.0833
    4CHL1    C7  233   3.074   3.686  -0.448 -0.5408 -0.6156  0.0173
    4CHL1   H7A  234   3.025   3.763  -0.512  0.9052 -0.3462 -0.8219
    4CHL1   H7B  235   3.184   3.700  -0.453 -0.5961 -0.4196 -0.9667
    4CHL1    C8  236   3.044   3.546  -0.514 -0.0786 -0.3385 -1.1137
    4CHL1    H8  237   2.934   3.541  -0.528 -0.0953  0.6888 -1.4675
    4CHL1   C14  238   3.111   3.531  -0.659 -0.3751 -0.4184  0.7103
    4CHL1   H14  239   3.220   3.519  -0.638  0.2047 -2.0932 -2.6030
    4CHL1   C15  240   3.094   3.647  -0.758 -0.0697  0.3301 -0.2922
    4CHL1  H15A  241   2.992   3.690  -0.745  0.7634  1.8005  1.9649
    4CHL1  H15B  242   3.171   3.722  -0.732 -0.6856  1.0882 -0.6113
    4CHL1   C16  243   3.125   3.574  -0.893  0.0800  0.8023  0.4613
    4CHL1  H16A  244   3.038   3.571  -0.963  3.0193  1.2893 -3.5768
    4CHL1  H16B  245   3.210   3.627  -0.941 -0.4873  1.5240  0.2265
    4CHL1   C17  246   3.163   3.422  -0.862 -0.2044  0.3332 -0.6393
    4CHL1   H17  247   3.272   3.428  -0.843 -0.3395 -0.8866  0.6659
    4CHL1   C13  248   3.092   3.393  -0.727  0.8093 -0.0418  0.0049
    4CHL1   C18  249   2.947   3.379  -0.763 -0.7805  0.3969  0.1402
    4CHL1  H18A  250   2.912   3.457  -0.834 -1.3787  0.2744  0.2890
    4CHL1  H18B  251   2.925   3.272  -0.786 -0.0889  0.1602  0.5613
    4CHL1  H18C  252   2.884   3.404  -0.675 -1.5937 -0.3650 -0.2058
    4CHL1   C12  253   3.149   3.293  -0.631 -0.1379 -0.4168  0.4992
    4CHL1  H12A  254   3.118   3.192  -0.665  0.7976 -0.6713  0.3705
    4CHL1  H12B  255   3.260   3.296  -0.621 -0.0425 -0.6260 -0.4206
    4CHL1   C11  256   3.074   3.310  -0.501  0.5360  0.5683  0.2581
    4CHL1  H11A  257   2.969   3.288  -0.529  0.2914  3.0945 -1.0988
    4CHL1  H11B  258   3.099   3.220  -0.440  0.3496  1.0520  1.0575
    4CHL1    C9  259   3.084   3.434  -0.425  0.7534 -0.0895 -0.8390
    4CHL1    H9  260   3.189   3.445  -0.391  0.4714 -2.8106  1.2564
    4CHL1   C10  261   3.010   3.432  -0.285  0.1735 -0.2949 -0.0007
    4CHL1   C19  262   2.869   3.369  -0.304 -0.4717  0.4302 -0.0272
    4CHL1  H19A  263   2.894   3.271  -0.350  4.5026  2.6864 -2.9248
    4CHL1  H19B  264   2.817   3.364  -0.206  0.2644  0.0671  0.3571
    4CHL1  H19C  265   2.806   3.418  -0.381  1.5301 -0.9287 -2.7118
    4CHL1    C1  266   3.092   3.344  -0.178  0.0475 -0.6522  0.3938
    4CHL1   H1A  267   3.096   3.237  -0.209  1.7320 -0.1925 -1.1294
    4CHL1   H1B  268   3.199   3.373  -0.183  0.3410 -1.7886 -0.1813
    4CHL1    C2  269   3.056   3.356  -0.033  0.3101  0.0782 -0.1199
    4CHL1   H2A  270   3.122   3.297   0.034 -0.2451  0.0119  0.3718
    4CHL1   H2B  271   2.957   3.316  -0.002  0.3250  0.9852  1.2152
    4CHL1   C20  272   3.140   3.334  -0.982  0.1342  0.0479 -0.8746
    4CHL1   H20  273   3.030   3.324  -0.995  0.2507 -1.2868 -0.9815
    4CHL1   C21  274   3.194   3.194  -0.956  0.6136  0.6462  0.5390
    4CHL1  H21A  275   3.151   3.146  -0.865 -0.3141 -0.2073 -0.3378
    4CHL1  H21B  276   3.305   3.196  -0.948  0.7579  0.9391 -1.2659
    4CHL1  H21C  277   3.160   3.126  -1.036  0.3383  0.3446  0.9098
    4CHL1   C22  278   3.186   3.393  -1.112  0.1420  0.7054  1.2215
    4CHL1  H22A  279   3.180   3.504  -1.117 -0.6574  0.6098 -0.3799
    4CHL1  H22B  280   3.294   3.369  -1.124 -0.2789 -0.7363  0.1065
    4CHL1   C23  281   3.123   3.326  -1.240 -0.2714 -0.3032 -0.4529
    4CHL1  H23A  282   3.139   3.216  -1.231  4.0814  0.1103 -0.9563
    4CHL1  H23B  283   3.014   3.339  -1.251 -0.7326 -3.1300  0.0321
    4CHL1   C24  284   3.191   3.355  -1.379 -0.1164 -0.1452 -0.1727
    4CHL1  H24A  285   3.301   3.343  -1.374 -0.0602  0.4958  0.2478
    4CHL1  H24B  286   3.154   3.286  -1.458 -2.1163 -0.1959  0.7446
    4CHL1   C25  287   3.167   3.499  -1.424  0.3325 -0.1954 -0.9094
    4CHL1   H25  288   3.201   3.561  -1.338 -0.3044 -1.4942  0.3253
    4CHL1   C26  289   3.246   3.533  -1.554 -0.3462 -0.2957 -0.5052
    4CHL1  H26A  290   3.223   3.638  -1.581 -0.4722 -0.2457 -0.2053
    4CHL1  H26B  291   3.350   3.513  -1.523  0.1274  2.0836 -0.3619
    4CHL1  H26C  292   3.207   3.468  -1.636 -0.9368 -1.7956  0.9020
    4CHL1   C27  293   3.017   3.512  -1.458 -0.7629  0.6791  0.3750
    4CHL1  H27A  294   3.002   3.608  -1.511  1.7519  1.0758  0.2552
    4CHL1  H27B  295   2.985   3.432  -1.529 -0.5295 -0.3565  1.4088
    4CHL1  H27C  296   2.954   3.487  -1.371 -1.0229 -0.2517 -0.0602
    5CHL1    C3  297   2.726   0.402   8.241 -0.5914  0.2069  0.1710
    5CHL1    H3  298   2.808   0.470   8.209  0.9490 -1.1094  1.1204
    5CHL1    O3  299   2.743   0.372   8.376  0.3137 -0.0444  0.7066
    5CHL1   H3'  300   2.659   0.336   8.407 -0.1082  0.1518 -0.1821
    5CHL1    C4  301   2.592   0.471   8.229 -0.0589  0.5985  0.1222
    5CHL1   H4A  302   2.512   0.398   8.253 -1.3326  1.3800 -1.6049
    5CHL1   H4B  303   2.585   0.559   8.296  0.6704 -0.5626  1.7938
    5CHL1    C5  304   2.560   0.507   8.086 -0.4399  0.1181  0.4425
    5CHL1    C6  305   2.526   0.633   8.057  0.3754 -0.7709 -0.0790
    5CHL1    H6  306   2.526   0.708   8.137 -4.0929  3.2163 -3.2632
    5CHL1    C7  307   2.494   0.677   7.917 -0.5825  0.5183  0.1764
    5CHL1   H7A  308   2.420   0.759   7.904  0.8766  1.6911 -1.3367
    5CHL1   H7B  309   2.579   0.735   7.874 -0.3309  1.4600  1.8276
    5CHL1    C8  310   2.463   0.565   7.815 -0.2049 -0.0035  0.5337
    5CHL1    H8  311   2.362   0.527   7.840 -0.1544 -1.1566 -0.9047
    5CHL1   C14  312   2.477   0.611   7.669  0.6120  0.4909  0.0820
    5CHL1   H14  313   2.585   0.629   7.655  1.1439 -2.1032  0.2779
    5CHL1   C15  314   2.410   0.742   7.622  0.0569 -0.2355 -0.4184
    5CHL1  H15A  315   2.313   0.762   7.672  0.1249 -1.6072  0.2994
    5CHL1  H15B  316   2.473   0.832   7.643  1.1970 -0.8106 -1.2356
    5CHL1   C16  317   2.387   0.721   7.474  0.4287 -0.1813 -0.1286
    5CHL1  H16A  318   2.279   0.700   7.460  0.6868 -1.3975 -0.3524
    5CHL1  H16B  319   2.414   0.821   7.433  0.2132  0.8449  2.0575
    5CHL1   C17  320   2.459   0.588   7.439  0.0929 -0.3904  0.6007
    5CHL1   H17  321   2.569   0.604   7.433 -0.1890  1.2941 -1.1058
    5CHL1   C13  322   2.449   0.502   7.565  0.5013 -0.0613  0.5370
    5CHL1   C18  323   2.305   0.454   7.584  0.0585 -0.3304  0.5591
    5CHL1  H18A  324   2.295   0.379   7.503 -0.8216 -1.5995  1.7811
    5CHL1  H18B  325   2.284   0.403   7.681  2.5439  1.8125  2.3605
    5CHL1  H18C  326   2.231   0.535   7.567 -0.0263 -0.8690 -1.9496
    5CHL1   C12  327   2.559   0.391   7.581 -0.2910 -0.1156  0.3074
    5CHL1  H12A  328   2.539   0.306   7.512 -1.0232 -2.0145  2.7192
    5CHL1  H12B  329   2.665   0.415   7.559  0.4280 -3.4654 -0.5200
    5CHL1   C11  330   2.545   0.336   7.723  0.6432 -0.5642  0.1701
    5CHL1  H11A  331   2.447   0.290   7.748  0.8255 -0.7760  0.5017
    5CHL1  H11B  332   2.620   0.258   7.747 -0.4565 -1.3067  1.2912
    5CHL1    C9  333   2.563   0.447   7.837  0.3000  0.5297  0.2505
    5CHL1    H9  334   2.664   0.491   7.819  0.5542 -0.0562  0.1925
    5CHL1   C10  335   2.576   0.394   7.979 -0.5295  0.1696 -0.1404
    5CHL1   C19  336   2.455   0.295   8.003  0.1217 -0.2986 -0.1229
    5CHL1  H19A  337   2.366   0.357   7.978  0.2364  0.5743  1.5139
    5CHL1  H19B  338   2.450   0.198   7.950  1.0474 -1.6376  2.0875
    5CHL1  H19C  339   2.457   0.261   8.109  2.5034  2.9157  1.0295
    5CHL1    C1  340   2.709   0.319   8.009 -0.3634  0.6536  0.3667
    5CHL1   H1A  341   2.718   0.243   7.929  2.0851  1.1354  0.0899
    5CHL1   H1B  342   2.785   0.395   7.981  0.5408  0.2423  1.5968
    5CHL1    C2  343   2.733   0.282   8.150 -0.0323  0.0482 -0.3000
    5CHL1   H2A  344   2.825   0.220   8.160 -0.9978 -1.2580  0.9689
    5CHL1   H2B  345   2.652   0.214   8.186  0.4611  0.9986  2.9529
    5CHL1   C20  346   2.419   0.527   7.300  0.3737  0.4732  0.2827
    5CHL1   H20  347   2.326   0.468   7.314  1.0227 -1.6909 -3.2063
    5CHL1   C21  348   2.531   0.437   7.244 -0.3482  0.2888  0.6494
    5CHL1  H21A  349   2.514   0.391   7.144 -0.9161 -0.2836  1.0057
    5CHL1  H21B  350   2.563   0.359   7.315  0.4781  1.9804  2.2211
    5CHL1  H21C  351   2.622   0.497   7.223  0.0602 -0.3637  0.5406
    5CHL1   C22  352   2.378   0.643   7.205 -0.4368  0.4611  0.2992
    5CHL1  H22A  353   2.286   0.699   7.235 -0.9723 -0.6092  0.7029
    5CHL1  H22B  354   2.463   0.712   7.186 -0.1259  0.6367  2.1123
    5CHL1   C23  355   2.316   0.583   7.072 -0.2300 -0.2410 -0.5869
    5CHL1  H23A  356   2.380   0.503   7.029  0.1911  0.4338 -1.2344
    5CHL1  H23B  357   2.222   0.530   7.099 -1.0550 -0.3022 -3.3157
    5CHL1   C24  358   2.274   0.690   6.971 -0.8768 -0.0223  0.2303
    5CHL1  H24A  359   2.212   0.767   7.022  0.9255  1.9403 -0.4028
    5CHL1  H24B  360   2.365   0.736   6.927 -1.8581 -1.1023 -3.2654
    5CHL1   C25  361   2.200   0.633   6.853 -0.9165 -0.2868  0.0652
    5CHL1   H25  362   2.138   0.555   6.902 -1.4674  0.8636  1.2545
    5CHL1   C26  363   2.118   0.748   6.794 -0.0654 -0.4012  0.1652
    5CHL1  H26A  364   2.043   0.789   6.866  1.3135  2.1146  0.2793
    5CHL1  H26B  365   2.196   0.823   6.771  0.4728 -0.4183  1.8250
    5CHL1  H26C  366   2.071   0.729   6.695  1.1628  2.8281 -1.1808
    5CHL1   C27  367   2.296   0.580   6.748 -0.4132 -0.1402  0.1406
    5CHL1  H27A  368   2.233   0.535   6.670 -1.1175  1.2422 -0.1221
    5CHL1  H27B  369   2.369   0.650   6.702  0.3110  0.1507  1.6360
    5CHL1  H27C  370   2.359   0.501   6.795  1.3010  0.1481 -1.5401
    6CHL1    C3  371   6.140   2.247   8.223 -0.5008  0.0514 -0.0457
    6CHL1    H3  372   6.201   2.340   8.224 -0.3342 -0.0551  2.0155
    6CHL1    O3  373   6.106   2.210   8.357 -0.2011  0.6698  0.1131
    6CHL1   H3'  374   6.096   2.115   8.355 -0.5492  0.7242 -1.2521
    6CHL1    C4  375   6.012   2.264   8.141  0.2862  0.1477  0.4475
    6CHL1   H4A  376   5.934   2.188   8.162 -2.0462  2.9135  2.7074
    6CHL1   H4B  377   5.957   2.353   8.179  0.2930  1.0229 -1.4803
    6CHL1    C5  378   6.042   2.277   7.996  0.1924 -0.7147 -0.2322
    6CHL1    C6  379   6.007   2.384   7.929 -0.1654  0.3629  0.0918
    6CHL1    H6  380   5.941   2.451   7.985  0.1741 -2.3338  4.1718
    6CHL1    C7  381   6.021   2.399   7.783 -0.7213  0.8375  0.0334
    6CHL1   H7A  382   5.919   2.426   7.750 -1.7444 -0.0791  2.2430
    6CHL1   H7B  383   6.102   2.474   7.774  2.2210 -2.0619  0.5449
    6CHL1    C8  384   6.056   2.258   7.723 -0.3678  0.2039 -0.0986
    6CHL1    H8  385   5.975   2.183   7.728  0.7793 -0.9742  1.7564
    6CHL1   C14  386   6.108   2.286   7.574  0.5337  0.2719  0.1460
    6CHL1   H14  387   6.195   2.352   7.591 -0.4277  2.3105 -2.2505
    6CHL1   C15  388   6.018   2.368   7.485  0.0380  0.0283 -0.5998
    6CHL1  H15A  389   5.918   2.321   7.490 -0.0136 -0.0459 -2.0730
    6CHL1  H15B  390   6.012   2.474   7.520 -2.0220  0.5757 -2.4510
    6CHL1   C16  391   6.072   2.344   7.348  1.0006 -0.2713 -0.4782
    6CHL1  H16A  392   5.986   2.302   7.291 -1.0961  1.2685  1.3819
    6CHL1  H16B  393   6.123   2.434   7.308 -0.8594  1.3264  0.5516
    6CHL1   C17  394   6.180   2.240   7.369 -0.1215  0.7322 -0.7368
    6CHL1   H17  395   6.281   2.284   7.388 -0.6039  1.7910 -0.5458
    6CHL1   C13  396   6.148   2.163   7.500 -0.8498 -0.7916  0.2953
    6CHL1   C18  397   6.021   2.075   7.480  0.2702 -0.0234  0.3387
    6CHL1  H18A  398   6.050   1.998   7.406 -0.2478  1.5989 -1.6712
    6CHL1  H18B  399   5.974   2.026   7.568  0.7989 -0.9039  0.1343
    6CHL1  H18C  400   5.940   2.131   7.428  3.2185  3.1002 -1.3038
    6CHL1   C12  401   6.264   2.102   7.579 -0.4830  0.0258  0.7901
    6CHL1  H12A  402   6.322   2.017   7.537  0.4757  1.8120 -1.7493
    6CHL1  H12B  403   6.342   2.180   7.570  0.3351 -0.9865 -1.4037
    6CHL1   C11  404   6.239   2.069   7.729 -0.3467 -0.1984  0.7517
    6CHL1  H11A  405   6.165   1.986   7.719 -1.3341  0.7425 -0.0666
    6CHL1  H11B  406   6.328   2.024   7.778  0.0118 -0.5526 -0.2066
    6CHL1    C9  407   6.176   2.190   7.797  1.1202  0.1103 -0.1874
    6CHL1    H9  408   6.255   2.268   7.795  0.0614  1.2082 -0.6337
    6CHL1   C10  409   6.130   2.167   7.946  0.5903  0.5958  0.2427
    6CHL1   C19  410   6.053   2.035   7.951  0.1011 -0.9980 -0.3051
    6CHL1  H19A  411   5.965   2.039   7.882  0.3285  3.1004 -0.5546
    6CHL1  H19B  412   6.108   1.943   7.919 -0.6151 -1.2933 -0.7240
    6CHL1  H19C  413   6.014   2.004   8.050 -1.1883  1.3223 -0.0330
    6CHL1    C1  414   6.262   2.148   8.022 -0.0131 -0.3113 -0.0507
    6CHL1   H1A  415   6.309   2.052   7.991 -1.3984 -0.8766 -0.5015
    6CHL1   H1B  416   6.330   2.234   8.005  1.8107 -1.6695  0.0480
    6CHL1    C2  417   6.225   2.130   8.171 -0.2704 -1.0597 -0.2734
    6CHL1   H2A  418   6.323   2.132   8.223  1.4573 -0.6745 -3.3370
    6CHL1   H2B  419   6.171   2.033   8.180  0.4255 -1.4304 -0.0923
    6CHL1   C20  420   6.215   2.149   7.248 -0.1989  0.0814  0.3642
    6CHL1   H20  421   6.119   2.109   7.210 -0.2972  0.6176  0.0414
    6CHL1   C21  422   6.306   2.026   7.280 -0.0087  0.0337 -0.1834
    6CHL1  H21A  423   6.251   1.947   7.335 -0.3919 -1.3547 -2.4254
    6CHL1  H21B  424   6.397   2.063   7.331  0.1702 -1.3943  0.5752
    6CHL1  H21C  425   6.339   1.967   7.192  0.2431  0.4900 -0.3966
    6CHL1   C22  426   6.281   2.248   7.142 -0.1979 -0.2796 -0.4601
    6CHL1  H22A  427   6.208   2.326   7.111 -1.3300 -0.9648  0.4115
    6CHL1  H22B  428   6.375   2.284   7.188  0.5576 -4.0632  1.3375
    6CHL1   C23  429   6.316   2.174   7.011  0.3284  0.1081 -0.4500
    6CHL1  H23A  430   6.389   2.098   7.046 -0.8676 -0.2148  1.4941
    6CHL1  H23B  431   6.229   2.118   6.971 -0.8243 -0.0928  2.1842
    6CHL1   C24  432   6.364   2.269   6.900 -0.2722 -0.0993  0.0252
    6CHL1  H24A  433   6.280   2.292   6.831 -0.7680 -4.4247 -1.0591
    6CHL1  H24B  434   6.404   2.361   6.948  2.2439 -1.1636  0.1533
    6CHL1   C25  435   6.482   2.213   6.809  0.6301 -0.3327  0.2296
    6CHL1   H25  436   6.560   2.171   6.876  0.2827 -0.9371  0.2630
    6CHL1   C26  437   6.423   2.089   6.735 -0.2377 -0.0130  0.4395
    6CHL1  H26A  438   6.406   2.006   6.808  0.9531  0.2218  1.0057
    6CHL1  H26B  439   6.326   2.108   6.684 -0.1792 -1.5220 -0.2946
    6CHL1  H26C  440   6.496   2.041   6.667  0.8282  0.2208  1.3808
    6CHL1   C27  441   6.551   2.304   6.714  0.0355 -0.2075 -0.0660
    6CHL1  H27A  442   6.486   2.342   6.632  0.4064  1.0115  0.1748
    6CHL1  H27B  443   6.590   2.389   6.774 -0.3588 -1.8017  2.6004
    6CHL1  H27C  444   6.634   2.254   6.660 -0.7109  1.0759 -2.5873
    7CHL1    C3  445   4.094   0.692   8.249 -0.5186 -0.1637 -0.1847
    7CHL1    H3  446   4.019   0.612   8.231  0.2480 -1.4884  2.0491
    7CHL1    O3  447   4.122   0.705   8.386  0.5510  0.1643 -0.9782
    7CHL1   H3'  448   4.153   0.794   8.405 -0.3942 -0.2570  3.6991
    7CHL1    C4  449   4.223   0.663   8.178 -0.0463  0.4191 -0.4146
    7CHL1   H4A  450   4.279   0.758   8.196 -1.2825  0.4990  3.9919
    7CHL1   H4B  451   4.286   0.584   8.223 -0.3442 -0.4050 -1.4125
    7CHL1    C5  452   4.201   0.653   8.028  0.5661 -0.3560 -0.6065
    7CHL1    C6  453   4.226   0.543   7.957 -0.6468  0.0914 -0.4359
    7CHL1    H6  454   4.275   0.460   8.010 -1.9629 -1.7611 -1.9637
    7CHL1    C7  455   4.213   0.542   7.809  0.3421  0.2466 -0.5252
    7CHL1   H7A  456   4.308   0.494   7.775  0.5672 -1.5289  2.2930
    7CHL1   H7B  457   4.126   0.478   7.784 -0.2851 -0.2440  2.6133
    7CHL1    C8  458   4.180   0.679   7.745  0.3772  0.3436 -0.3101
    7CHL1    H8  459   4.274   0.737   7.754  1.3014 -1.3064  1.2519
    7CHL1   C14  460   4.130   0.664   7.600 -0.6283  0.4766  0.4803
    7CHL1   H14  461   4.039   0.600   7.597  0.6895 -1.4732 -0.4107
    7CHL1   C15  462   4.228   0.594   7.503 -0.2880 -0.3300 -0.7932
    7CHL1  H15A  463   4.330   0.629   7.529 -0.6486  0.2050 -0.0802
    7CHL1  H15B  464   4.218   0.483   7.502  1.3461 -0.5389  0.3249
    7CHL1   C16  465   4.184   0.641   7.370 -0.4922  0.4415  0.1982
    7CHL1  H16A  466   4.275   0.689   7.328 -0.2976  2.8259  3.0414
    7CHL1  H16B  467   4.136   0.564   7.305  0.1665  1.1464 -1.1533
    7CHL1   C17  468   4.070   0.749   7.386 -0.2878  0.3443 -0.0768
    7CHL1   H17  469   3.970   0.701   7.387 -0.2812  0.2414  2.4054
    7CHL1   C13  470   4.090   0.797   7.530  0.3881  0.5084 -0.5655
    7CHL1   C18  471   4.209   0.895   7.543 -0.1000  0.2631  0.1997
    7CHL1  H18A  472   4.173   0.999   7.529 -1.7420 -0.2518  0.4580
    7CHL1  H18B  473   4.258   0.889   7.643  0.6846  0.1999 -0.1828
    7CHL1  H18C  474   4.285   0.885   7.462 -0.8105 -2.0578 -0.2315
    7CHL1   C12  475   3.962   0.846   7.599 -0.8261  0.2518 -0.9110
    7CHL1  H12A  476   3.929   0.946   7.561  0.8295  1.2378  0.1181
    7CHL1  H12B  477   3.882   0.769   7.591  0.9895 -1.9291  0.6468
    7CHL1   C11  478   3.991   0.857   7.754  0.2057 -0.1547 -0.4448
    7CHL1  H11A  479   4.048   0.950   7.774  3.4664 -1.3078 -3.3491
    7CHL1  H11B  480   3.899   0.869   7.815  0.2340  1.0489 -0.6042
    7CHL1    C9  481   4.066   0.739   7.823 -0.1702  0.8781  0.1173
    7CHL1    H9  482   3.990   0.658   7.832  3.4812 -2.8137  0.9459
    7CHL1   C10  483   4.122   0.770   7.970  0.2737 -0.3149  0.0191
    7CHL1   C19  484   4.215   0.890   7.962 -0.0995 -0.7095  0.0979
    7CHL1  H19A  485   4.241   0.923   8.065  2.4972  1.1284 -1.0585
    7CHL1  H19B  486   4.312   0.864   7.915  0.6265 -3.3775  2.7875
    7CHL1  H19C  487   4.168   0.981   7.919 -1.1135 -0.0445  2.4662
    7CHL1    C1  488   3.995   0.799   8.055 -0.8646  0.0258  0.4302
    7CHL1   H1A  489   3.942   0.889   8.017  1.2139  0.4292 -1.7603
    7CHL1   H1B  490   3.925   0.715   8.036  0.9012 -1.2343 -0.9091
    7CHL1    C2  491   4.022   0.820   8.206 -0.0135  0.2295  0.5552
    7CHL1   H2A  492   3.920   0.811   8.248 -0.5051 -2.8195 -0.9945
    7CHL1   H2B  493   4.071   0.918   8.223 -1.2078  1.2561 -1.4668
    7CHL1   C20  494   4.058   0.850   7.270  0.2874  0.2695  0.1076
    7CHL1   H20  495   4.150   0.911   7.261 -0.3650  1.1842 -0.5881
    7CHL1   C21  496   3.942   0.951   7.286  0.3559  0.5460 -0.4834
    7CHL1  H21A  497   3.937   1.012   7.194  2.9538  1.7052  0.0564
    7CHL1  H21B  498   3.979   1.032   7.353  1.7956  0.6735 -1.3884
    7CHL1  H21C  499   3.845   0.911   7.323  0.4445  1.6468  1.0228
    7CHL1   C22  500   4.036   0.781   7.131 -0.1516 -0.2243 -0.1073
    7CHL1  H22A  501   4.078   0.679   7.144  0.0126  0.0989  2.3307
    7CHL1  H22B  502   3.926   0.770   7.123 -0.7627  2.6161  2.4360
    7CHL1   C23  503   4.094   0.854   7.001  0.4949  0.2585 -0.1838
    7CHL1  H23A  504   4.058   0.958   6.989 -1.5783 -0.3467  0.3923
    7CHL1  H23B  505   4.204   0.848   7.012  0.5541  1.5889  0.0903
    7CHL1   C24  506   4.044   0.781   6.873  0.5706 -0.0874  0.3905
    7CHL1  H24A  507   4.063   0.672   6.883 -1.9246 -0.6324 -0.0143
    7CHL1  H24B  508   3.934   0.797   6.860  1.0929  2.8725 -1.2902
    7CHL1   C25  509   4.097   0.830   6.734  0.3211 -1.1946 -0.5365
    7CHL1   H25  510   4.065   0.936   6.725  1.2702 -0.8953 -0.4833
    7CHL1   C26  511   4.255   0.831   6.724  0.1321 -0.3238  0.0363
    7CHL1  H26A  512   4.286   0.881   6.630  0.6208 -1.2603 -0.3102
    7CHL1  H26B  513   4.298   0.880   6.814 -0.0309 -1.2290  0.6277
    7CHL1  H26C  514   4.294   0.727   6.719  0.0198 -0.3018 -1.9095
    7CHL1   C27  515   4.041   0.744   6.621  0.0573 -0.0427  0.0130
    7CHL1  H27A  516   4.099   0.772   6.531 -0.2119 -0.4461 -0.2874
    7CHL1  H27B  517   4.063   0.636   6.634  0.3314  0.0442  0.2734
    7CHL1  H27C  518   3.933   0.763   6.603 -0.0430 -0.9207 -0.3965
    8CHL1    C3  519   0.515   3.448   7.984  0.9448 -0.6253 -0.3367
    8CHL1    H3  520   0.427   3.504   7.947  0.7429 -0.0740  0.9451
    8CHL1    O3  521   0.484   3.418   8.121 -0.1102 -0.4121  0.0001
    8CHL1   H3'  522   0.482   3.501   8.170  1.5397  0.4689 -1.3036
    8CHL1    C4  523   0.541   3.320   7.899  0.3117  0.3967 -0.3053
    8CHL1   H4A  524   0.625   3.271   7.953 -0.9416  1.0102  2.3997
    8CHL1   H4B  525   0.451   3.255   7.903 -0.2647  1.1316 -1.1860
    8CHL1    C5  526   0.571   3.358   7.753 -0.2454 -0.5661 -0.5240
    8CHL1    C6  527   0.493   3.315   7.654  0.7162  0.1691 -0.4925
    8CHL1    H6  528   0.410   3.245   7.673  0.9129 -0.4231 -1.6782
    8CHL1    C7  529   0.523   3.334   7.509 -0.2163  0.1101  0.5030
    8CHL1   H7A  530   0.539   3.246   7.443  0.7883  0.7255 -0.1034
    8CHL1   H7B  531   0.446   3.399   7.463  1.5453  1.9302 -0.0291
    8CHL1    C8  532   0.661   3.406   7.478  0.8686 -0.6360  0.9795
    8CHL1    H8  533   0.749   3.339   7.482  0.4540 -1.1469  1.9106
    8CHL1   C14  534   0.654   3.463   7.335 -0.0276 -0.6044 -0.3321
    8CHL1   H14  535   0.565   3.529   7.347 -0.8451 -1.7812  0.3527
    8CHL1   C15  536   0.630   3.373   7.215  0.0791 -0.0292  0.0710
    8CHL1  H15A  537   0.686   3.280   7.237 -0.3033 -0.6542 -1.4595
    8CHL1  H15B  538   0.522   3.351   7.203 -0.2768  1.6833 -0.1237
    8CHL1   C16  539   0.680   3.448   7.097 -0.0751  0.7212  0.2356
    8CHL1  H16A  540   0.763   3.381   7.064  0.8547  0.6003  2.5823
    8CHL1  H16B  541   0.598   3.460   7.024  1.1150  0.0653 -1.2691
    8CHL1   C17  542   0.747   3.576   7.155  0.2912 -0.4525  0.6807
    8CHL1   H17  543   0.660   3.644   7.162 -2.3744 -3.7394  2.1860
    8CHL1   C13  544   0.773   3.548   7.300  0.0018 -0.5676 -0.5320
    8CHL1   C18  545   0.901   3.459   7.301 -0.3494  0.6830  0.4518
    8CHL1  H18A  546   0.986   3.526   7.277  0.5973  0.4109  2.7273
    8CHL1  H18B  547   0.928   3.408   7.396 -3.2525  0.4200  1.2285
    8CHL1  H18C  548   0.893   3.380   7.224  2.7607 -0.2828  0.9897
    8CHL1   C12  549   0.775   3.665   7.399 -0.1245 -0.3773  0.3637
    8CHL1  H12A  550   0.851   3.742   7.376  1.2506 -1.8762 -0.2951
    8CHL1  H12B  551   0.679   3.721   7.392  0.3030  0.7174  2.4843
    8CHL1   C11  552   0.796   3.615   7.546 -0.5947  0.3189 -0.1428
    8CHL1  H11A  553   0.898   3.571   7.548 -0.9383 -0.4823 -0.1989
    8CHL1  H11B  554   0.805   3.707   7.608 -2.2106  0.4409 -0.0674
    8CHL1    C9  555   0.683   3.515   7.583 -0.2091  0.1496  0.1239
    8CHL1    H9  556   0.593   3.581   7.579  0.0828  0.5154 -0.5562
    8CHL1   C10  557   0.688   3.460   7.735  0.1374  0.6195 -0.2269
    8CHL1   C19  558   0.820   3.383   7.762  0.2821  0.2141  0.0941
    8CHL1  H19A  559   0.802   3.317   7.850  0.6049  0.3391  0.2589
    8CHL1  H19B  560   0.854   3.321   7.677  0.3681  0.0685  0.2338
    8CHL1  H19C  561   0.908   3.449   7.782  1.6396 -1.3265 -0.5525
    8CHL1    C1  562   0.662   3.579   7.832  0.1907  0.9787 -0.4723
    8CHL1   H1A  563   0.753   3.642   7.832  0.7704  0.1553  0.0065
    8CHL1   H1B  564   0.575   3.636   7.792  0.2886  1.8269  0.4606
    8CHL1    C2  565   0.632   3.541   7.976  0.1448 -0.0225  0.3858
    8CHL1   H2A  566   0.619   3.638   8.030 -0.4341 -0.1760  0.5303
    8CHL1   H2B  567   0.713   3.486   8.028  0.1949  1.1142  1.5802
    8CHL1   C20  568   0.851   3.649   7.052  0.2675  0.1648 -0.8852
    8CHL1   H20  569   0.946   3.590   7.052  0.7261  0.8801  0.2724
    8CHL1   C21  570   0.886   3.785   7.097 -0.9874  0.0194 -0.4368
    8CHL1  H21A  571   0.797   3.850   7.100 -0.9457  0.0439  0.5527
    8CHL1  H21B  572   0.964   3.832   7.034  1.2738  0.5627  2.5471
    8CHL1  H21C  573   0.942   3.783   7.193  1.7481 -1.1973 -1.9139
    8CHL1   C22  574   0.806   3.645   6.904 -0.2363 -0.2647 -0.0668
    8CHL1  H22A  575   0.880   3.711   6.855 -1.3457  1.9884  1.1253
    8CHL1  H22B  576   0.812   3.539   6.870  0.3893 -0.0112 -0.7822
    8CHL1   C23  577   0.666   3.712   6.888  0.1232 -0.0080  0.2968
    8CHL1  H23A  578   0.579   3.658   6.932 -0.4845 -0.9699 -1.9349
    8CHL1  H23B  579   0.673   3.808   6.943  3.1730 -1.4765  2.8091
    8CHL1   C24  580   0.630   3.731   6.741 -0.2273 -0.3902  0.2271
    8CHL1  H24A  581   0.724   3.749   6.684  0.4404 -0.1756  1.3632
    8CHL1  H24B  582   0.589   3.632   6.712 -2.9845  0.7605 -0.0541
    8CHL1   C25  583   0.522   3.841   6.712  0.2472  0.0029  0.1427
    8CHL1   H25  584   0.439   3.815   6.781 -0.7430  0.5538 -0.8299
    8CHL1   C26  585   0.578   3.982   6.740 -0.0318 -0.1422 -0.0735
    8CHL1  H26A  586   0.511   4.066   6.768  2.0765  0.8386  2.4460
    8CHL1  H26B  587   0.651   3.969   6.822 -1.3815  2.0331  1.6125
    8CHL1  H26C  588   0.642   4.010   6.653  1.8830 -2.2796  0.5648
    8CHL1   C27  589   0.452   3.837   6.577 -0.1783 -0.3568 -0.1490
    8CHL1  H27A  590   0.351   3.881   6.591  0.3735  0.3551  1.8090
    8CHL1  H27B  591   0.497   3.911   6.508 -0.3158  0.0836  0.2355
    8CHL1  H27C  592   0.453   3.732   6.538  0.3794 -0.0273 -1.0599
    9CHL1    C3  593   1.014   2.945   8.474  0.2918 -0.5367 -0.1915
    9CHL1    H3  594   0.975   2.842   8.460 -4.6936  1.1253 -0.4115
    9CHL1    O3  595   1.006   2.967   8.616 -0.8209 -0.0959 -0.2359
    9CHL1   H3'  596   1.016   3.062   8.622  0.1704 -0.2355  0.6248
    9CHL1    C4  597   1.156   2.973   8.413  0.5065 -0.5759 -0.7819
    9CHL1   H4A  598   1.193   3.075   8.438 -2.3180  0.9533 -2.2341
    9CHL1   H4B  599   1.228   2.902   8.458  0.9388  0.2606 -0.1304
    9CHL1    C5  600   1.160   2.970   8.262 -0.0517  0.0485 -0.4990
    9CHL1    C6  601   1.250   2.887   8.204  0.1057 -0.9273 -0.2468
    9CHL1    H6  602   1.330   2.845   8.267  1.0109  0.9157 -0.1165
    9CHL1    C7  603   1.271   2.882   8.052  0.3496 -0.5362  0.4742
    9CHL1   H7A  604   1.377   2.884   8.019  0.2094 -0.7444  0.0004
    9CHL1   H7B  605   1.223   2.785   8.024  0.3031 -1.0288  2.1468
    9CHL1    C8  606   1.197   2.994   7.976  0.2475 -0.5398  0.7913
    9CHL1    H8  607   1.249   3.091   7.993 -1.9035  0.5772  1.2280
    9CHL1   C14  608   1.181   2.958   7.825 -1.2336 -0.4021  0.8610
    9CHL1   H14  609   1.141   2.855   7.820  1.2798 -1.4882  1.3926
    9CHL1   C15  610   1.311   2.932   7.752 -0.0898 -0.8772 -0.5352
    9CHL1  H15A  611   1.380   3.016   7.778 -1.1786 -0.5067  1.3229
    9CHL1  H15B  612   1.355   2.833   7.778 -0.3234 -0.8225  0.0788
    9CHL1   C16  613   1.280   2.950   7.604  0.2151 -0.3604  0.2482
    9CHL1  H16A  614   1.351   3.022   7.557  1.2290 -1.0899  0.6448
    9CHL1  H16B  615   1.285   2.854   7.549 -0.4800 -0.0652 -0.3526
    9CHL1   C17  616   1.130   3.008   7.599  0.5633  0.5808  0.1842
    9CHL1   H17  617   1.062   2.921   7.592 -0.1500  1.0217  1.3572
    9CHL1   C13  618   1.101   3.059   7.743  0.2606  0.3687  0.4894
    9CHL1   C18  619   1.153   3.202   7.752  0.8297 -0.0171 -0.0714
    9CHL1  H18A  620   1.083   3.274   7.704 -2.3911  0.4886  4.6683
    9CHL1  H18B  621   1.170   3.232   7.857 -1.8429  2.0468 -0.1238
    9CHL1  H18C  622   1.255   3.209   7.708  1.2183  0.6960  0.8950
    9CHL1   C12  623   0.951   3.054   7.797  0.2373 -0.4590  0.5972
    9CHL1  H12A  624   0.891   3.124   7.735  0.9603 -1.2300 -1.0305
    9CHL1  H12B  625   0.910   2.953   7.773  0.6814 -0.0017 -2.4298
    9CHL1   C11  626   0.954   3.096   7.944  0.0675 -0.8390 -0.2077
    9CHL1  H11A  627   0.986   3.202   7.945  0.6116 -0.9754  1.9662
    9CHL1  H11B  628   0.853   3.080   7.987 -0.5250 -4.2644 -2.4666
    9CHL1    C9  629   1.050   3.005   8.031 -1.1808  0.6526  0.2162
    9CHL1    H9  630   1.010   2.902   8.033  0.3254  0.0312 -0.0221
    9CHL1   C10  631   1.059   3.048   8.183 -0.8106  0.1318 -0.2487
    9CHL1   C19  632   1.086   3.194   8.191 -0.0795  1.0748 -0.4711
    9CHL1  H19A  633   0.994   3.247   8.157 -0.7295 -0.8451 -1.8353
    9CHL1  H19B  634   1.102   3.231   8.294  0.0569  1.0783 -0.4949
    9CHL1  H19C  635   1.168   3.225   8.123  0.7033 -1.5918 -0.8474
    9CHL1    C1  636   0.918   3.030   8.254  0.5296 -0.0242 -0.9375
    9CHL1   H1A  637   0.847   3.102   8.207  1.9031  1.4071 -0.8852
    9CHL1   H1B  638   0.881   2.929   8.227 -0.9994  0.5045 -0.9512
    9CHL1    C2  639   0.918   3.045   8.407 -0.3680  0.3309 -0.2874
    9CHL1   H2A  640   0.819   3.022   8.453  0.3562 -1.6900  0.3280
    9CHL1   H2B  641   0.937   3.149   8.441 -2.5670  1.0434 -1.0385
    9CHL1   C20  642   1.090   3.093   7.476 -0.0375 -0.4299 -0.0825
    9CHL1   H20  643   1.125   3.197   7.497 -2.5313  0.6541 -0.8897
    9CHL1   C21  644   0.937   3.093   7.444 -0.4665 -0.4490 -0.2856
    9CHL1  H21A  645   0.870   3.113   7.530  2.5150  0.0227  2.0978
    9CHL1  H21B  646   0.906   2.992   7.410  0.8943 -0.2127 -2.4086
    9CHL1  H21C  647   0.909   3.166   7.365  1.1933 -1.4903 -1.9254
    9CHL1   C22  648   1.164   3.043   7.347 -0.2212  0.2001  0.2764
    9CHL1  H22A  649   1.273   3.027   7.363 -0.0747  1.4137  0.6043
    9CHL1  H22B  650   1.116   2.948   7.315  0.8404 -0.9629  1.9645
    9CHL1   C23  651   1.143   3.122   7.218 -0.4334  0.1027 -0.0392
    9CHL1  H23A  652   1.037   3.148   7.199  0.3085  2.6770 -1.1547
    9CHL1  H23B  653   1.191   3.220   7.241  0.6963 -0.1870 -1.0771
    9CHL1   C24  654   1.210   3.071   7.091 -0.3577 -0.5622 -0.4586
    9CHL1  H24A  655   1.319   3.057   7.111  0.0934  1.3894 -1.3005
    9CHL1  H24B  656   1.166   2.973   7.066  1.3750 -1.3596 -0.5653
    9CHL1   C25  657   1.198   3.160   6.961 -0.1980 -0.4321  0.0925
    9CHL1   H25  658   1.274   3.123   6.889  1.5176  1.3642  0.8942
    9CHL1   C26  659   1.058   3.145   6.887 -0.2858  0.1194  0.2022
    9CHL1  H26A  660   1.076   3.174   6.782 -0.8593  0.4270  0.1877
    9CHL1  H26B  661   1.037   3.036   6.882 -1.1051  0.2887 -0.1592
    9CHL1  H26C  662   0.972   3.201   6.931 -0.4072 -0.8677  1.2969
    9CHL1   C27  663   1.220   3.308   6.995  0.8574 -0.7007  0.5947
    9CHL1  H27A  664   1.204   3.378   6.910 -1.4598 -2.3045 -0.4041
    9CHL1  H27B  665   1.162   3.344   7.082  1.9072 -0.8354  1.3636
    9CHL1  H27C  666   1.326   3.319   7.026  1.1737  1.0182 -0.9225
   10CHL1    C3  667   3.507   4.598   8.504  0.6355 -0.9630  0.5209
   10CHL1    H3  668   3.400   4.576   8.482  0.3092  1.8963 -1.2861
   10CHL1    O3  669   3.530   4.626   8.640 -0.0826  0.8387 -0.0137
   10CHL1   H3'  670   3.472   4.694   8.673 -0.2647 -0.1521  1.8218
   10CHL1    C4  671   3.593   4.485   8.451 -0.9201 -0.2969 -0.0339
   10CHL1   H4A  672   3.698   4.500   8.485 -1.0911 -2.9524  2.1029
   10CHL1   H4B  673   3.567   4.387   8.497  1.0168  0.4188  2.8858
   10CHL1    C5  674   3.580   4.475   8.297 -0.2300 -0.3353  1.0484
   10CHL1    C6  675   3.552   4.362   8.232  0.0839 -0.1688 -0.4045
   10CHL1    H6  676   3.533   4.269   8.287  0.9600 -0.5846 -0.7807
   10CHL1    C7  677   3.545   4.338   8.082  1.0977  0.1799  0.7316
   10CHL1   H7A  678   3.615   4.261   8.044 -0.0535 -0.6319  0.2033
   10CHL1   H7B  679   3.439   4.317   8.059  1.5068 -1.7116  0.4621
   10CHL1    C8  680   3.590   4.465   7.999 -0.0578 -0.1033  0.3107
   10CHL1    H8  681   3.701   4.470   7.992 -0.0699 -0.8275 -0.7845
   10CHL1   C14  682   3.547   4.457   7.851 -0.0347  0.8213  0.9256
   10CHL1   H14  683   3.436   4.460   7.857 -0.1533  0.6514 -0.6589
   10CHL1   C15  684   3.580   4.328   7.767  0.0892 -0.2129 -0.1032
   10CHL1  H15A  685   3.690   4.313   7.769  0.1766  0.3787  1.4831
   10CHL1  H15B  686   3.532   4.238   7.811  0.8813  0.2455  1.8013
   10CHL1   C16  687   3.530   4.365   7.626 -0.1186  0.0955  0.3950
   10CHL1  H16A  688   3.609   4.337   7.553  0.3319  2.2423 -0.0146
   10CHL1  H16B  689   3.434   4.310   7.617  1.0939 -1.9446 -0.7474
   10CHL1   C17  690   3.516   4.517   7.618  0.2929  0.4040  0.2451
   10CHL1   H17  691   3.410   4.548   7.619  0.2230  0.1643  0.3378
   10CHL1   C13  692   3.579   4.573   7.756 -0.9094  0.1519  0.4252
   10CHL1   C18  693   3.731   4.579   7.731  0.8517  0.2428 -0.2094
   10CHL1  H18A  694   3.766   4.484   7.685 -0.2812  0.0768 -0.7580
   10CHL1  H18B  695   3.753   4.662   7.660  1.3033  0.1065 -0.2342
   10CHL1  H18C  696   3.786   4.609   7.823 -0.0661 -1.6664  1.0362
   10CHL1   C12  697   3.522   4.693   7.820 -0.5945 -0.3347 -0.7529
   10CHL1  H12A  698   3.554   4.785   7.767  2.1238 -1.1281 -0.6382
   10CHL1  H12B  699   3.411   4.686   7.823 -0.5991 -0.0538  0.3440
   10CHL1   C11  700   3.569   4.715   7.965 -0.2498 -0.3943  0.1874
   10CHL1  H11A  701   3.676   4.745   7.966  0.0987 -1.5795  0.0458
   10CHL1  H11B  702   3.521   4.809   8.001  0.5527  0.6553 -1.3529
   10CHL1    C9  703   3.541   4.592   8.063  0.2673 -0.4280 -0.0132
   10CHL1    H9  704   3.430   4.591   8.068  0.0597  0.9942 -2.6380
   10CHL1   C10  705   3.592   4.608   8.212 -0.5210  0.5597 -0.7443
   10CHL1   C19  706   3.744   4.637   8.215  0.3488  0.2994  0.2393
   10CHL1  H19A  707   3.807   4.555   8.176 -1.5417 -1.2372  0.2649
   10CHL1  H19B  708   3.767   4.717   8.141 -0.4389 -1.0579 -1.5357
   10CHL1  H19C  709   3.771   4.649   8.322  1.8699  0.2199 -0.1201
   10CHL1    C1  710   3.506   4.719   8.277 -0.5915  0.6145 -0.7543
   10CHL1   H1A  711   3.525   4.823   8.244  2.7421  0.1022 -0.7403
   10CHL1   H1B  712   3.401   4.683   8.266 -0.4836 -1.5394  3.3077
   10CHL1    C2  713   3.529   4.728   8.427 -0.1908  0.5231  0.0026
   10CHL1   H2A  714   3.458   4.799   8.474  0.6563  1.5577 -0.2265
   10CHL1   H2B  715   3.628   4.772   8.455 -0.7412  0.9139  1.4166
   10CHL1   C20  716   3.564   4.572   7.482 -0.1667 -0.5190  0.0878
   10CHL1   H20  717   3.674   4.559   7.470 -0.3558 -1.0330 -1.2142
   10CHL1   C21  718   3.533   4.724   7.485  0.5887 -0.0439 -0.1857
   10CHL1  H21A  719   3.604   4.785   7.544 -0.7792  3.6826 -2.0695
   10CHL1  H21B  720   3.430   4.741   7.524  0.4511  0.1639 -0.6337
   10CHL1  H21C  721   3.540   4.768   7.383 -2.2119 -1.4061 -1.0755
   10CHL1   C22  722   3.514   4.516   7.349 -0.2401  1.0138 -0.1997
   10CHL1  H22A  723   3.528   4.407   7.367  0.9968  0.9778 -1.2290
   10CHL1  H22B  724   3.411   4.541   7.314 -0.1695  0.0270 -1.1497
   10CHL1   C23  725   3.610   4.548   7.231 -0.1593 -0.4305 -0.2087
   10CHL1  H23A  726   3.619   4.658   7.217  1.5525 -0.7697 -2.5386
   10CHL1  H23B  727   3.716   4.522   7.252  0.5312  0.9367 -1.7249
   10CHL1   C24  728   3.564   4.493   7.101 -0.7428  0.3646  0.3246
   10CHL1  H24A  729   3.544   4.385   7.117 -1.2023  0.4728  0.5050
   10CHL1  H24B  730   3.457   4.520   7.090 -0.8513  0.5987  1.7849
   10CHL1   C25  731   3.661   4.504   6.982 -0.5375  0.9396 -0.4990
   10CHL1   H25  732   3.745   4.434   6.999 -1.5647 -0.1043  0.4917
   10CHL1   C26  733   3.596   4.451   6.854  0.7388  0.4979  0.1310
   10CHL1  H26A  734   3.670   4.442   6.772 -0.8374 -0.9332 -1.2194
   10CHL1  H26B  735   3.539   4.356   6.867 -0.4146  1.1107 -0.2409
   10CHL1  H26C  736   3.520   4.528   6.828 -0.8384 -0.6232  1.1973
   10CHL1   C27  737   3.712   4.646   6.950 -0.1071 -1.0374  0.3605
   10CHL1  H27A  738   3.624   4.712   6.930 -1.3836 -2.6317  0.5032
   10CHL1  H27B  739   3.780   4.686   7.028 -0.7775 -1.2874  1.0846
   10CHL1  H27C  740   3.767   4.636   6.854 -3.6349  0.9563 -2.1495
   11CHL1    C3  741   1.937   3.727   8.408  0.3193  0.1428  0.8081
   11CHL1    H3  742   1.993   3.819   8.383  0.9018  0.1534  2.1144
   11CHL1    O3  743   1.897   3.726   8.543 -0.5115  0.0344  0.0617
   11CHL1   H3'  744   1.870   3.635   8.560  0.5963 -0.2272  0.5008
   11CHL1    C4  745   1.819   3.735   8.309  0.0842 -0.4953  0.9349
   11CHL1   H4A  746   1.744   3.664   8.350 -1.8950  1.4596  0.8417
   11CHL1   H4B  747   1.784   3.840   8.300 -1.2909 -1.0955 -1.1157
   11CHL1    C5  748   1.829   3.688   8.165 -0.3180  0.2337  0.7765
   11CHL1    C6  749   1.785   3.760   8.065  0.2400 -0.9351  0.1399
   11CHL1    H6  750   1.719   3.846   8.086  1.5624  0.0567  0.3542
   11CHL1    C7  751   1.798   3.729   7.920  0.1507  0.2850 -0.0107
   11CHL1   H7A  752   1.697   3.723   7.873 -0.8591  0.8753  1.9677
   11CHL1   H7B  753   1.856   3.804   7.862  2.6419 -1.7859 -0.3919
   11CHL1    C8  754   1.873   3.594   7.888  0.2828 -0.1053 -0.4428
   11CHL1    H8  755   1.798   3.513   7.898  1.2594 -0.7612  2.2829
   11CHL1   C14  756   1.944   3.603   7.752  0.2100 -0.4610  0.3110
   11CHL1   H14  757   2.019   3.684   7.759 -1.9296  1.5912  0.8029
   11CHL1   C15  758   1.859   3.648   7.637  0.1759 -0.2081  0.3174
   11CHL1  H15A  759   1.755   3.609   7.635 -0.7241  1.9974  1.4408
   11CHL1  H15B  760   1.848   3.758   7.625  0.8651 -0.2325 -0.7291
   11CHL1   C16  761   1.931   3.590   7.510  0.1795  0.0967 -0.7648
   11CHL1  H16A  762   1.864   3.509   7.473 -1.4524  0.7001  0.7367
   11CHL1  H16B  763   1.938   3.663   7.427 -0.9056  0.7720 -0.2753
   11CHL1   C17  764   2.060   3.526   7.575 -0.4156  0.1392  0.7381
   11CHL1   H17  765   2.140   3.603   7.590  1.1150 -1.6916  2.5038
   11CHL1   C13  766   2.028   3.483   7.720  0.5471  0.6162 -0.2239
   11CHL1   C18  767   1.939   3.354   7.718  0.0509 -0.0259  0.4760
   11CHL1  H18A  768   1.870   3.336   7.804  1.3803 -2.0543  1.2134
   11CHL1  H18B  769   1.877   3.341   7.626  0.3455  0.0509  0.2669
   11CHL1  H18C  770   2.003   3.263   7.715  0.6401  0.4066 -0.1962
   11CHL1   C12  771   2.148   3.470   7.823  0.1745  0.1592  0.5104
   11CHL1  H12A  772   2.216   3.384   7.805 -0.2779  0.3880 -3.2740
   11CHL1  H12B  773   2.204   3.566   7.816  1.2075 -0.5195 -1.3472
   11CHL1   C11  774   2.080   3.462   7.968  0.3622 -0.4501 -0.1266
   11CHL1  H11A  775   2.022   3.367   7.973  1.4246 -1.1880 -1.1038
   11CHL1  H11B  776   2.158   3.450   8.046  0.6596  3.1240  0.3055
   11CHL1    C9  777   1.981   3.576   7.990  0.2907  0.2204 -0.0202
   11CHL1    H9  778   2.045   3.667   7.980 -0.9401  0.9639 -1.7671
   11CHL1   C10  779   1.935   3.575   8.137  0.4509  0.5715 -0.8959
   11CHL1   C19  780   1.855   3.444   8.163  0.7768 -0.4100 -0.0169
   11CHL1  H19A  781   1.800   3.450   8.259  0.3238  0.6979 -0.3258
   11CHL1  H19B  782   1.779   3.423   8.085  0.0046 -2.9597  1.3295
   11CHL1  H19C  783   1.929   3.361   8.166  3.1252  1.5266 -0.6126
   11CHL1    C1  784   2.052   3.592   8.231  0.5982 -0.0580  0.1049
   11CHL1   H1A  785   2.119   3.504   8.230  1.8324  0.8189  1.4573
   11CHL1   H1B  786   2.108   3.682   8.200 -0.0471  0.1218 -0.5887
   11CHL1    C2  787   2.015   3.606   8.379 -0.9132  0.6287 -0.2430
   11CHL1   H2A  788   2.116   3.618   8.425  0.5198  0.1511 -3.0169
   11CHL1   H2B  789   1.967   3.511   8.409  3.4882 -1.3786  1.4183
   11CHL1   C20  790   2.117   3.418   7.478 -0.2586 -0.8215 -0.2114
   11CHL1   H20  791   2.038   3.349   7.440 -1.2515  1.1527 -1.8966
   11CHL1   C21  792   2.231   3.338   7.552 -0.3145  1.2049  0.4577
   11CHL1  H21A  793   2.302   3.392   7.619 -0.4176 -1.8045  3.2095
   11CHL1  H21B  794   2.295   3.298   7.470  0.4809  0.9412  1.1898
   11CHL1  H21C  795   2.181   3.254   7.604  0.4272 -0.0270 -0.7483
   11CHL1   C22  796   2.182   3.494   7.357  0.1206 -0.0138 -0.4107
   11CHL1  H22A  797   2.114   3.575   7.322 -0.7513 -0.3830  0.4076
   11CHL1  H22B  798   2.276   3.536   7.399 -1.0220  1.2639  0.9366
   11CHL1   C23  799   2.199   3.419   7.229  0.3788  0.2103  0.2443
   11CHL1  H23A  800   2.247   3.319   7.235  0.8053  0.0343 -3.3875
   11CHL1  H23B  801   2.100   3.396   7.185  0.4644  0.8981 -0.3248
   11CHL1   C24  802   2.288   3.508   7.128  0.0871  0.2840 -0.3764
   11CHL1  H24A  803   2.243   3.605   7.099  0.8845  0.2198 -1.9483
   11CHL1  H24B  804   2.386   3.531   7.174 -0.0926  1.3609 -0.5134
   11CHL1   C25  805   2.320   3.437   6.992 -0.6311  0.3468 -0.1060
   11CHL1   H25  806   2.375   3.513   6.931 -0.3974 -1.1769 -1.8935
   11CHL1   C26  807   2.413   3.311   7.000 -0.3332 -0.4335 -0.2701
   11CHL1  H26A  808   2.362   3.228   7.055 -0.4245 -1.6730 -2.1549
   11CHL1  H26B  809   2.438   3.262   6.904  0.7187  0.5604 -0.5126
   11CHL1  H26C  810   2.506   3.338   7.055  0.4224  1.1019 -2.2125
   11CHL1   C27  811   2.188   3.416   6.921 -0.1289 -0.1977 -0.0470
   11CHL1  H27A  812   2.198   3.389   6.813 -0.8978  2.1992 -0.7864
   11CHL1  H27B  813   2.144   3.333   6.980 -1.8451  0.4581 -0.3563
   11CHL1  H27C  814   2.125   3.507   6.921  1.4362  0.9306  0.2685
   12CHL1    C3  815   5.508   2.310   8.242 -0.4113 -0.0028  0.8398
   12CHL1    H3  816   5.613   2.338   8.216 -0.6344  2.3370  2.1698
   12CHL1    O3  817   5.491   2.332   8.378 -0.5638 -0.4954  0.4191
   12CHL1   H3'  818   5.508   2.247   8.418  0.3554 -0.7686 -0.5229
   12CHL1    C4  819   5.433   2.410   8.152 -0.6466  0.3890  0.6545
   12CHL1   H4A  820   5.324   2.408   8.175  0.0382  2.1802  5.1886
   12CHL1   H4B  821   5.475   2.508   8.185  1.9729 -0.7853  1.0830
   12CHL1    C5  822   5.461   2.392   8.001 -0.3299  0.3978  0.2215
   12CHL1    C6  823   5.519   2.494   7.933 -0.0156  0.1490  0.1875
   12CHL1    H6  824   5.522   2.595   7.976  0.5926  0.7440 -1.1952
   12CHL1    C7  825   5.555   2.483   7.788  0.4939 -0.4243  0.4110
   12CHL1   H7A  826   5.529   2.571   7.725 -0.8951 -0.6010  0.7063
   12CHL1   H7B  827   5.664   2.476   7.772  0.2762 -0.6985 -1.1088
   12CHL1    C8  828   5.491   2.357   7.728 -0.6115  0.2084  0.0779
   12CHL1    H8  829   5.384   2.386   7.723 -0.4897  0.5795 -0.4265
   12CHL1   C14  830   5.541   2.326   7.585 -0.3241  0.0210 -0.6447
   12CHL1   H14  831   5.650   2.314   7.597 -0.5551  0.2443  2.5141
   12CHL1   C15  832   5.551   2.447   7.488  0.2555 -0.0444  0.0841
   12CHL1  H15A  833   5.453   2.501   7.488  1.1309  1.6242 -0.3725
   12CHL1  H15B  834   5.625   2.524   7.517 -0.5680  0.4739  0.8642
   12CHL1   C16  835   5.587   2.377   7.359  0.3458  0.7471 -0.7913
   12CHL1  H16A  836   5.513   2.409   7.282 -0.1029  0.4686 -0.4842
   12CHL1  H16B  837   5.686   2.413   7.325  1.4439 -0.6756  0.7274
   12CHL1   C17  838   5.558   2.222   7.384 -0.3077 -0.2788  0.5646
   12CHL1   H17  839   5.651   2.174   7.421  0.3328  0.6759  0.2125
   12CHL1   C13  840   5.478   2.213   7.508  0.7794 -0.3252 -0.0585
   12CHL1   C18  841   5.332   2.246   7.484  0.0434 -0.2617  0.1853
   12CHL1  H18A  842   5.286   2.157   7.437  0.2810 -0.6346  0.6459
   12CHL1  H18B  843   5.294   2.265   7.587 -0.6243 -0.0574 -0.0912
   12CHL1  H18C  844   5.308   2.338   7.426 -2.9922 -1.4495 -0.6543
   12CHL1   C12  845   5.491   2.087   7.597 -0.2295  0.1878 -0.3937
   12CHL1  H12A  846   5.427   2.001   7.568  1.6736 -1.3318 -0.3493
   12CHL1  H12B  847   5.597   2.056   7.584  0.0168  1.0654 -0.5155
   12CHL1   C11  848   5.446   2.107   7.748 -0.3825  0.2219 -0.3583
   12CHL1  H11A  849   5.337   2.130   7.745 -0.6007 -0.4525  1.2544
   12CHL1  H11B  850   5.471   2.010   7.795 -1.5935 -0.2837 -0.7153
   12CHL1    C9  851   5.510   2.230   7.815 -0.0673  0.6280 -0.3310
   12CHL1    H9  852   5.619   2.210   7.829 -0.3116  0.5120  1.6662
   12CHL1   C10  853   5.446   2.252   7.952 -0.8144  0.1651 -0.2111
   12CHL1   C19  854   5.288   2.220   7.963  0.2535  0.0675  0.0342
   12CHL1  H19A  855   5.251   2.244   8.065  2.1530 -0.1944  0.8335
   12CHL1  H19B  856   5.217   2.276   7.899 -1.4484  0.4506  2.1159
   12CHL1  H19C  857   5.273   2.112   7.943 -0.2396  0.2860 -0.7982
   12CHL1    C1  858   5.519   2.150   8.049 -0.2130  0.0806 -0.4478
   12CHL1   H1A  859   5.484   2.049   8.017 -0.9334  0.5970 -1.3383
   12CHL1   H1B  860   5.629   2.154   8.036 -0.2969 -0.8711 -1.6024
   12CHL1    C2  861   5.482   2.164   8.202  0.3482 -0.8037  0.3840
   12CHL1   H2A  862   5.546   2.090   8.255  0.8814 -1.1348 -0.7004
   12CHL1   H2B  863   5.378   2.141   8.234 -0.0719 -0.4046 -0.6444
   12CHL1   C20  864   5.513   2.155   7.253  0.1063 -0.6633 -0.2282
   12CHL1   H20  865   5.424   2.208   7.212  0.4864 -1.8493 -2.7655
   12CHL1   C21  866   5.487   2.006   7.270  0.3176  0.0701 -0.1255
   12CHL1  H21A  867   5.430   1.981   7.362  1.2785 -0.0026  0.4685
   12CHL1  H21B  868   5.593   1.971   7.270  0.4753  0.5388  0.1873
   12CHL1  H21C  869   5.431   1.973   7.180 -0.2738  2.1522 -0.5557
   12CHL1   C22  870   5.622   2.167   7.143  0.0261 -0.2898  0.1211
   12CHL1  H22A  871   5.634   2.274   7.118 -0.5457 -0.3513 -0.4633
   12CHL1  H22B  872   5.714   2.122   7.185 -1.0080  1.0158  4.3055
   12CHL1   C23  873   5.600   2.088   7.009  0.5072  0.2660  0.5661
   12CHL1  H23A  874   5.599   1.978   7.024  1.6824  0.4393  2.1348
   12CHL1  H23B  875   5.507   2.115   6.954  1.0977 -3.3008 -2.6000
   12CHL1   C24  876   5.722   2.115   6.927  0.3134 -0.0147  0.8118
   12CHL1  H24A  877   5.731   2.222   6.901 -1.0365 -0.3824 -1.4638
   12CHL1  H24B  878   5.816   2.098   6.985 -0.0170 -0.4154  1.2477
   12CHL1   C25  879   5.740   2.013   6.802  0.2137  0.0612 -0.0075
   12CHL1   H25  880   5.739   1.912   6.847  0.1586 -0.4798 -1.2117
   12CHL1   C26  881   5.620   2.026   6.706 -0.9514 -0.2700  0.3774
   12CHL1  H26A  882   5.635   1.970   6.611 -0.8451  1.7260 -0.8566
   12CHL1  H26B  883   5.534   1.980   6.759  0.8256 -1.6821  2.1969
   12CHL1  H26C  884   5.617   2.134   6.679 -0.4513 -0.1960  0.6129
   12CHL1   C27  885   5.866   2.027   6.736 -0.5705 -0.7281  0.0472
   12CHL1  H27A  886   5.894   1.945   6.667  1.1043 -0.0619 -0.1082
   12CHL1  H27B  887   5.881   2.107   6.660 -0.1136 -0.8112  0.0430
   12CHL1  H27C  888   5.950   2.034   6.808  1.0719 -0.1640 -1.8158
   13CHL1    C3  889   0.969   1.526   8.281  0.3250 -0.9927  0.6583
   13CHL1    H3  890   0.995   1.419   8.292  0.0168 -1.1306  0.0980
   13CHL1    O3  891   0.919   1.587   8.397  0.0727  0.2601 -0.8082
   13CHL1   H3'  892   0.902   1.680   8.380  2.7939  0.7480 -1.2570
   13CHL1    C4  893   1.097   1.604   8.242 -0.5863  0.1400 -0.6342
   13CHL1   H4A  894   1.078   1.714   8.244 -2.3067 -0.0928  1.9143
   13CHL1   H4B  895   1.165   1.601   8.330 -2.3591 -0.8930  0.7798
   13CHL1    C5  896   1.161   1.572   8.110 -0.1061  0.0196 -0.0168
   13CHL1    C6  897   1.296   1.564   8.096  0.0245  0.1175  0.0459
   13CHL1    H6  898   1.371   1.574   8.176 -1.6202  0.7465  1.5836
   13CHL1    C7  899   1.345   1.530   7.959 -0.6025 -0.8438  0.8267
   13CHL1   H7A  900   1.442   1.580   7.941 -1.3968  0.8602  1.0498
   13CHL1   H7B  901   1.365   1.421   7.956 -1.9208 -1.0894 -0.0556
   13CHL1    C8  902   1.258   1.543   7.831  0.4767  0.0438 -0.5439
   13CHL1    H8  903   1.262   1.651   7.806 -2.1315  0.8120  1.8492
   13CHL1   C14  904   1.322   1.464   7.710 -0.2577  0.2616 -0.1835
   13CHL1   H14  905   1.316   1.357   7.740 -1.1170  0.1966 -0.5406
   13CHL1   C15  906   1.469   1.492   7.680 -0.9073  0.4506 -0.0912
   13CHL1  H15A  907   1.497   1.600   7.679  0.9307  0.0195 -1.4044
   13CHL1  H15B  908   1.529   1.428   7.748  1.2541  1.5353 -0.8884
   13CHL1   C16  909   1.484   1.433   7.542  0.0811 -0.4834  0.6747
   13CHL1  H16A  910   1.539   1.505   7.477  1.4552 -0.9679  1.2545
   13CHL1  H16B  911   1.551   1.344   7.542  2.9730  1.4262 -2.0514
   13CHL1   C17  912   1.339   1.401   7.486  0.5891  0.4692  0.2418
   13CHL1   H17  913   1.324   1.295   7.515  0.8771  0.4470  0.3100
   13CHL1   C13  914   1.245   1.478   7.578 -0.0199  0.1022 -0.2987
   13CHL1   C18  915   1.247   1.623   7.525 -0.4795 -0.0038  0.4852
   13CHL1  H18A  916   1.181   1.643   7.438  1.0690 -3.0397 -1.5686
   13CHL1  H18B  917   1.233   1.704   7.600 -1.1878  0.4661 -0.1342
   13CHL1  H18C  918   1.352   1.650   7.500 -0.5518  0.2009  0.3975
   13CHL1   C12  919   1.100   1.426   7.610  0.3996 -0.1068 -0.2552
   13CHL1  H12A  920   1.030   1.437   7.525  0.1043  2.7226  0.2508
   13CHL1  H12B  921   1.111   1.318   7.636 -0.8604 -0.1290  0.2256
   13CHL1   C11  922   1.030   1.493   7.731 -0.2159 -0.0233  0.2707
   13CHL1  H11A  923   0.996   1.596   7.707  1.1125  0.3053 -0.2736
   13CHL1  H11B  924   0.936   1.436   7.743 -0.3933  0.3707  0.8016
   13CHL1    C9  925   1.119   1.489   7.859  0.1242 -0.3093  0.3295
   13CHL1    H9  926   1.132   1.384   7.894 -0.3879 -0.7360 -0.7236
   13CHL1   C10  927   1.059   1.561   7.990 -0.3954  0.4895  0.2029
   13CHL1   C19  928   1.018   1.705   7.952  0.2174  0.3091 -0.2480
   13CHL1  H19A  929   0.975   1.759   8.039  0.9102  2.8873 -1.4121
   13CHL1  H19B  930   1.110   1.762   7.928 -0.7015  2.0133  0.1495
   13CHL1  H19C  931   0.946   1.711   7.868  2.1812  2.5598 -1.9026
   13CHL1    C1  932   0.921   1.496   8.024  0.6151  0.3832 -0.2072
   13CHL1   H1A  933   0.843   1.519   7.949 -1.1699 -0.7883  1.2140
   13CHL1   H1B  934   0.934   1.386   8.029 -1.7251 -0.0279 -1.6386
   13CHL1    C2  935   0.867   1.543   8.162  0.7062 -0.1656 -0.1101
   13CHL1   H2A  936   0.784   1.474   8.187  0.1569  0.5331 -0.0026
   13CHL1   H2B  937   0.828   1.647   8.154  0.7036  0.0306  2.0719
   13CHL1   C20  938   1.318   1.419   7.330 -0.3848  0.4016  0.6261
   13CHL1   H20  939   1.285   1.522   7.304  0.4982  0.2949 -1.0508
   13CHL1   C21  940   1.186   1.340   7.290 -0.0852 -0.0335  0.4186
   13CHL1  H21A  941   1.153   1.375   7.190 -0.0506  0.1511  0.4713
   13CHL1  H21B  942   1.104   1.354   7.364 -0.4994 -2.2210  0.4335
   13CHL1  H21C  943   1.200   1.231   7.272 -0.6184  0.1437 -1.2077
   13CHL1   C22  944   1.441   1.383   7.244  0.2045  0.2258 -0.2382
   13CHL1  H22A  945   1.530   1.448   7.254  1.1356 -0.8047 -1.4839
   13CHL1  H22B  946   1.472   1.282   7.280 -0.0958  0.6039  1.1282
   13CHL1   C23  947   1.415   1.388   7.092 -0.0186  0.7157 -0.5031
   13CHL1  H23A  948   1.503   1.350   7.037  0.8530  0.5298  0.9994
   13CHL1  H23B  949   1.323   1.328   7.074  0.0500 -0.4520  2.5478
   13CHL1   C24  950   1.391   1.529   7.033 -0.2338  0.4277 -0.1413
   13CHL1  H24A  951   1.327   1.594   7.098 -0.5214 -0.2622  0.2723
   13CHL1  H24B  952   1.494   1.571   7.040 -0.3064  0.5029  0.5984
   13CHL1   C25  953   1.332   1.521   6.890  0.3575  0.1972  0.2452
   13CHL1   H25  954   1.244   1.453   6.895 -0.3747  1.2163  3.3766
   13CHL1   C26  955   1.282   1.663   6.853  0.0682  0.3890  0.6115
   13CHL1  H26A  956   1.202   1.655   6.776 -0.5550 -0.7180  1.3439
   13CHL1  H26B  957   1.243   1.713   6.944  0.4396 -0.1162  1.0571
   13CHL1  H26C  958   1.368   1.714   6.805 -0.6765  0.1420 -1.0568
   13CHL1   C27  959   1.438   1.463   6.787 -0.3948 -0.0009 -0.4954
   13CHL1  H27A  960   1.394   1.476   6.686  0.3325 -0.4485 -0.8691
   13CHL1  H27B  961   1.536   1.515   6.787  0.1306 -0.9153  1.1926
   13CHL1  H27C  962   1.460   1.358   6.814 -0.5341 -0.2708 -1.4045
   14CHL1    C3  963   3.193   0.304   8.341  0.2319 -0.2553  0.1718
   14CHL1    H3  964   3.135   0.210   8.348 -0.8705  0.4398  0.8287
   14CHL1    O3  965   3.206   0.371   8.471  0.3167  0.2194  0.7679
   14CHL1   H3'  966   3.116   0.397   8.491 -0.0899  0.9221 -1.6736
   14CHL1    C4  967   3.335   0.265   8.288 -0.5083  0.1889 -0.5452
   14CHL1   H4A  968   3.395   0.358   8.279  0.7778 -0.7052 -1.5723
   14CHL1   H4B  969   3.376   0.213   8.377  0.1129  2.3475  0.4997
   14CHL1    C5  970   3.324   0.188   8.157  0.1125  0.3057 -0.9100
   14CHL1    C6  971   3.369   0.063   8.150  0.0566 -0.1378  0.3766
   14CHL1    H6  972   3.414   0.010   8.235 -0.1646  1.4301  1.5249
   14CHL1    C7  973   3.354  -0.023   8.034 -0.7208  0.0510 -0.0357
   14CHL1   H7A  974   3.450  -0.079   8.029 -0.6133 -0.1032  2.4560
   14CHL1   H7B  975   3.269  -0.093   8.051 -0.2955 -0.3565  0.4700
   14CHL1    C8  976   3.338   0.058   7.904  0.7587  0.4187 -0.8694
   14CHL1    H8  977   3.431   0.115   7.885  1.8045  0.1153  2.6638
   14CHL1   C14  978   3.292  -0.032   7.793  0.0582  0.0518  0.0346
   14CHL1   H14  979   3.208  -0.091   7.835 -0.3951  0.6615 -0.0047
   14CHL1   C15  980   3.388  -0.146   7.752 -0.0799  0.0908 -0.3969
   14CHL1  H15A  981   3.494  -0.117   7.763 -0.5320  1.9516 -0.6061
   14CHL1  H15B  982   3.372  -0.233   7.819 -2.7742  1.1014  0.4291
   14CHL1   C16  983   3.350  -0.186   7.606 -0.1884 -1.2517  0.3699
   14CHL1  H16A  984   3.447  -0.172   7.554  0.6065  0.4218  2.1871
   14CHL1  H16B  985   3.317  -0.289   7.584  0.7388 -1.3137 -0.7854
   14CHL1   C17  986   3.236  -0.086   7.560  0.6889 -0.2461  0.3662
   14CHL1   H17  987   3.141  -0.134   7.591 -0.6658  1.4082 -1.0308
   14CHL1   C13  988   3.251   0.035   7.657  0.3613 -0.4923  0.0182
   14CHL1   C18  989   3.363   0.127   7.605  0.5807  0.6207  0.1125
   14CHL1  H18A  990   3.413   0.186   7.685  1.2922  0.3757 -0.1386
   14CHL1  H18B  991   3.445   0.065   7.562  0.8865  0.3303  1.0855
   14CHL1  H18C  992   3.333   0.192   7.520  0.3797  1.8980  1.1318
   14CHL1   C12  993   3.120   0.110   7.688 -0.1088  0.0769  0.1138
   14CHL1  H12A  994   3.083   0.175   7.606 -0.5277  1.7600  1.5646
   14CHL1  H12B  995   3.046   0.035   7.723 -0.3644 -0.3070 -1.1914
   14CHL1   C11  996   3.142   0.213   7.801 -0.2244  0.5516 -0.1236
   14CHL1  H11A  997   3.207   0.293   7.759  2.2298 -0.7011  1.1470
   14CHL1  H11B  998   3.052   0.272   7.829 -0.1485 -0.3917  2.2931
   14CHL1    C9  999   3.217   0.150   7.930 -0.3879 -0.0267 -0.1131
   14CHL1    H9 1000   3.128   0.089   7.957 -1.9841 -0.0149 -4.4987
   14CHL1   C10 1001   3.244   0.255   8.047  0.0748 -0.0999  0.0362
   14CHL1   C19 1002   3.334   0.358   8.001 -0.2999  0.2145  0.2621
   14CHL1  H19A 1003   3.409   0.318   7.929 -0.9426 -1.5797  0.5418
   14CHL1  H19B 1004   3.289   0.443   7.944  0.9465  0.7326  0.0187
   14CHL1  H19C 1005   3.395   0.407   8.080  0.8563  0.1620 -0.5644
   14CHL1    C1 1006   3.116   0.320   8.102  0.2874  0.8239 -0.4127
   14CHL1   H1A 1007   3.067   0.376   8.020  1.3867  2.3805 -0.0430
   14CHL1   H1B 1008   3.049   0.232   8.115  1.1389  0.3884  1.2907
   14CHL1    C2 1009   3.122   0.391   8.237  0.4731 -0.3606 -1.0861
   14CHL1   H2A 1010   3.021   0.427   8.266  0.3627 -0.6973 -1.0507
   14CHL1   H2B 1011   3.182   0.484   8.222  2.0567 -1.4516 -1.8310
   14CHL1   C20 1012   3.235  -0.060   7.410 -1.5988 -0.0920  0.7217
   14CHL1   H20 1013   3.337  -0.028   7.382 -0.7966 -4.0641 -1.6668
   14CHL1   C21 1014   3.133   0.044   7.369 -0.3479  0.1329  0.5650
   14CHL1  H21A 1015   3.135   0.056   7.259  2.7066  0.7283  0.6177
   14CHL1  H21B 1016   3.138   0.149   7.407 -0.1599  0.2253  0.2822
   14CHL1  H21C 1017   3.031   0.013   7.400 -0.2426  1.0074  1.8966
   14CHL1   C22 1018   3.207  -0.191   7.332 -0.0437  0.6810  0.1643
   14CHL1  H22A 1019   3.192  -0.154   7.229 -0.6077 -0.2272 -0.0898
   14CHL1  H22B 1020   3.295  -0.256   7.352 -1.2555 -0.5213  1.8763
   14CHL1   C23 1021   3.077  -0.267   7.367  0.1104  0.8424 -0.8026
   14CHL1  H23A 1022   3.090  -0.312   7.468 -1.7505  0.0475 -0.8751
   14CHL1  H23B 1023   3.002  -0.185   7.372  1.7342  2.3742 -0.5285
   14CHL1   C24 1024   3.023  -0.375   7.274 -1.0843  0.3318  0.1445
   14CHL1  H24A 1025   3.067  -0.477   7.278  0.1784  0.6060 -3.3013
   14CHL1  H24B 1026   2.912  -0.372   7.280 -1.0443  1.9501  0.5227
   14CHL1   C25 1027   3.046  -0.353   7.119 -0.2745  0.3151  0.5813
   14CHL1   H25 1028   3.152  -0.335   7.093 -0.6913  2.7061  0.3165
   14CHL1   C26 1029   3.002  -0.479   7.040  0.4791  0.2237 -0.2867
   14CHL1  H26A 1030   3.008  -0.476   6.929  1.2472  0.2134 -0.2497
   14CHL1  H26B 1031   3.058  -0.570   7.072 -0.9691 -0.5074  0.2390
   14CHL1  H26C 1032   2.897  -0.485   7.074  0.8934 -0.0577  0.9938
   14CHL1   C27 1033   2.950  -0.239   7.068  0.2079 -0.3674 -0.4479
   14CHL1  H27A 1034   2.849  -0.259   7.111 -0.2617  1.8728 -0.3917
   14CHL1  H27B 1035   2.987  -0.151   7.124  0.7657 -2.2956  2.4091
   14CHL1  H27C 1036   2.951  -0.229   6.957  0.1174 -0.8176 -0.4913
   15CHL1    C3 1037   1.700   6.722   8.352  0.1734  0.2013  0.8770
   15CHL1    H3 1038   1.624   6.791   8.309  0.6511  1.0131  1.3001
   15CHL1    O3 1039   1.710   6.755   8.489  0.0940  0.3224 -0.1340
   15CHL1   H3' 1040   1.656   6.688   8.532  0.8720 -0.3909 -0.2292
   15CHL1    C4 1041   1.646   6.578   8.330  0.2659  0.2724  0.4507
   15CHL1   H4A 1042   1.702   6.521   8.407  0.0142 -0.0961  0.3615
   15CHL1   H4B 1043   1.540   6.569   8.364  0.6384 -0.9143  1.3718
   15CHL1    C5 1044   1.659   6.522   8.193 -0.5169  0.5619  1.5052
   15CHL1    C6 1045   1.560   6.443   8.135 -0.3715 -0.5335  0.0433
   15CHL1    H6 1046   1.470   6.410   8.188  0.4878 -1.6158  0.8914
   15CHL1    C7 1047   1.573   6.385   8.001 -0.2453 -0.1822 -0.1042
   15CHL1   H7A 1048   1.549   6.277   8.006  1.2465 -0.4883  2.0704
   15CHL1   H7B 1049   1.509   6.435   7.926  0.7799 -1.1173 -1.6411
   15CHL1    C8 1050   1.716   6.373   7.939 -0.0956 -0.8817 -0.2853
   15CHL1    H8 1051   1.762   6.287   7.992 -1.1049 -3.7835 -3.7113
   15CHL1   C14 1052   1.710   6.354   7.788 -0.5758  0.3548 -0.8196
   15CHL1   H14 1053   1.684   6.453   7.746  2.5640  1.6030 -0.1244
   15CHL1   C15 1054   1.620   6.248   7.724  0.2765 -0.1301  0.5853
   15CHL1  H15A 1055   1.634   6.145   7.763  1.5518  0.8470  2.8931
   15CHL1  H15B 1056   1.515   6.284   7.729  0.3384  0.0216  0.7940
   15CHL1   C16 1057   1.673   6.254   7.579  0.1675  0.2010 -0.3060
   15CHL1  H16A 1058   1.715   6.152   7.564 -0.1833  0.0585 -0.3370
   15CHL1  H16B 1059   1.596   6.281   7.504  0.0642 -0.1992 -0.3520
   15CHL1   C17 1060   1.808   6.333   7.577 -0.1382  0.5267 -0.3481
   15CHL1   H17 1061   1.784   6.438   7.550 -4.3109  0.1181  1.0104
   15CHL1   C13 1062   1.857   6.338   7.726  0.3557 -0.3087 -0.4024
   15CHL1   C18 1063   1.922   6.206   7.779 -0.3283 -0.2525 -0.2978
   15CHL1  H18A 1064   2.022   6.184   7.735  1.3563  0.8941  2.6555
   15CHL1  H18B 1065   1.937   6.217   7.888 -0.7577 -0.8308 -0.1771
   15CHL1  H18C 1066   1.861   6.116   7.756  0.6396 -0.6816 -1.3372
   15CHL1   C12 1067   1.939   6.462   7.754  0.0160  0.8897 -0.0143
   15CHL1  H12A 1068   2.041   6.451   7.710  0.4674  1.1210  0.9347
   15CHL1  H12B 1069   1.898   6.551   7.703  2.1329  1.3040 -1.1331
   15CHL1   C11 1070   1.935   6.485   7.901  0.2060  0.0943 -0.8465
   15CHL1  H11A 1071   1.993   6.409   7.957  0.6659  2.1267  1.6315
   15CHL1  H11B 1072   1.992   6.579   7.922 -0.4154  1.1431 -3.5157
   15CHL1    C9 1073   1.791   6.505   7.967 -0.0524 -0.6368  0.4172
   15CHL1    H9 1074   1.736   6.589   7.919 -1.7205 -1.1081  1.3950
   15CHL1   C10 1075   1.792   6.542   8.117 -0.2964 -0.8426 -0.7917
   15CHL1   C19 1076   1.901   6.458   8.193  0.4865 -0.2770 -0.9004
   15CHL1  H19A 1077   2.006   6.491   8.176  0.4636  0.9220  0.9896
   15CHL1  H19B 1078   1.887   6.472   8.302  1.5522  0.5946 -0.8539
   15CHL1  H19C 1079   1.896   6.348   8.178  1.0583 -0.3506 -0.5467
   15CHL1    C1 1080   1.825   6.694   8.136  1.3910  0.3091 -0.1635
   15CHL1   H1A 1081   1.920   6.722   8.087  0.6016  0.9270 -1.3702
   15CHL1   H1B 1082   1.756   6.764   8.085  0.1764 -0.1769  0.7599
   15CHL1    C2 1083   1.831   6.746   8.277  0.7010  0.3165 -0.4392
   15CHL1   H2A 1084   1.862   6.853   8.273  4.2747 -0.5696 -0.0799
   15CHL1   H2B 1085   1.910   6.682   8.322 -0.1570 -1.2014 -1.0119
   15CHL1   C20 1086   1.904   6.274   7.471 -0.2233  0.5501 -0.7466
   15CHL1   H20 1087   1.968   6.191   7.508 -0.7066 -0.3207 -1.8107
   15CHL1   C21 1088   2.005   6.387   7.440  0.7026 -1.1268  0.0395
   15CHL1  H21A 1089   1.942   6.479   7.440  1.1463 -0.7707  2.0750
   15CHL1  H21B 1090   2.050   6.379   7.339 -0.4562 -2.3201 -0.4224
   15CHL1  H21C 1091   2.084   6.408   7.516  0.1762  2.7593 -0.2541
   15CHL1   C22 1092   1.839   6.226   7.335  0.2462  0.5285 -0.1053
   15CHL1  H22A 1093   1.917   6.190   7.265 -0.1705 -1.4652  0.3778
   15CHL1  H22B 1094   1.786   6.131   7.361  2.8853 -0.2467  3.0235
   15CHL1   C23 1095   1.738   6.323   7.272  0.5955 -0.2767 -0.3767
   15CHL1  H23A 1096   1.701   6.386   7.356  0.0488 -3.2393  1.7336
   15CHL1  H23B 1097   1.788   6.389   7.197  0.3368  1.3680  0.8427
   15CHL1   C24 1098   1.614   6.263   7.214  0.4789  0.6811 -0.6185
   15CHL1  H24A 1099   1.563   6.199   7.289  1.2224  0.6251 -0.1488
   15CHL1  H24B 1100   1.544   6.346   7.192  2.0667  3.1214  2.7086
   15CHL1   C25 1101   1.630   6.154   7.102 -0.1259  0.2647 -0.4684
   15CHL1   H25 1102   1.703   6.077   7.135 -0.8750 -0.6513 -0.8901
   15CHL1   C26 1103   1.494   6.072   7.087 -0.6180 -0.8192  0.4337
   15CHL1  H26A 1104   1.421   6.146   7.046  0.4420  0.1253  0.2194
   15CHL1  H26B 1105   1.522   5.987   7.021  2.2621 -1.1916  1.9769
   15CHL1  H26C 1106   1.448   6.034   7.181 -2.6055 -1.6662 -0.8035
   15CHL1   C27 1107   1.681   6.204   6.966 -0.2334  0.2921  0.0999
   15CHL1  H27A 1108   1.771   6.269   6.975 -0.8642  1.8193 -2.9927
   15CHL1  H27B 1109   1.701   6.117   6.901 -1.8262 -0.7838  0.9784
   15CHL1  H27C 1110   1.603   6.269   6.920 -1.2024 -0.6035  0.4410
   16CHL1    C3 1111   4.037   4.217   8.655  0.1643 -0.1184 -0.2018
   16CHL1    H3 1112   4.050   4.318   8.610 -0.1433  2.0350  4.0162
   16CHL1    O3 1113   4.041   4.234   8.799 -0.6889  0.8299  0.7741
   16CHL1   H3' 1114   3.989   4.163   8.838  0.2245  0.3824  1.2156
   16CHL1    C4 1115   3.920   4.142   8.603 -0.8246 -0.3584  0.1218
   16CHL1   H4A 1116   3.917   4.045   8.658 -0.6094 -0.9010 -0.8090
   16CHL1   H4B 1117   3.832   4.200   8.638  1.0164  3.2842 -0.8592
   16CHL1    C5 1118   3.920   4.112   8.457  0.5069  0.0989  0.5129
   16CHL1    C6 1119   3.810   4.134   8.377 -1.2152  0.0609  0.5664
   16CHL1    H6 1120   3.720   4.180   8.421 -1.3697 -0.8567  1.2376
   16CHL1    C7 1121   3.804   4.082   8.237 -0.5087 -0.4283 -0.4880
   16CHL1   H7A 1122   3.711   4.030   8.204 -0.0310 -2.2673  0.8887
   16CHL1   H7B 1123   3.806   4.173   8.173 -0.7258 -0.1252 -0.0662
   16CHL1    C8 1124   3.915   3.993   8.195 -0.0505 -0.5193  0.9457
   16CHL1    H8 1125   3.902   3.889   8.231  0.1683  0.3907  3.9047
   16CHL1   C14 1126   3.930   3.989   8.046  0.7097 -0.1037  0.5880
   16CHL1   H14 1127   3.941   4.087   7.996  1.6501 -1.0332 -1.1480
   16CHL1   C15 1128   3.806   3.937   7.966 -0.0914 -0.0543 -0.3919
   16CHL1  H15A 1129   3.765   3.850   8.022  0.0280  1.0454  1.5129
   16CHL1  H15B 1130   3.722   4.009   7.962 -0.1819 -0.0790  0.6388
   16CHL1   C16 1131   3.875   3.890   7.835  0.6330  0.2373  0.1748
   16CHL1  H16A 1132   3.851   3.787   7.802  1.0758  0.4237 -0.7787
   16CHL1  H16B 1133   3.838   3.955   7.753 -3.3259 -0.9560  0.7825
   16CHL1   C17 1134   4.034   3.901   7.841 -0.4547 -0.5789  0.4616
   16CHL1   H17 1135   4.062   4.005   7.814 -0.8206 -0.2215  1.3837
   16CHL1   C13 1136   4.049   3.903   7.995  0.3107 -0.4809 -1.1850
   16CHL1   C18 1137   4.042   3.757   8.046 -1.0065 -0.0137 -0.4544
   16CHL1  H18A 1138   3.938   3.721   8.030 -1.3989  1.2125 -0.7570
   16CHL1  H18B 1139   4.113   3.689   7.995  1.5404  1.6034  0.7387
   16CHL1  H18C 1140   4.064   3.768   8.154 -0.2990  0.8384 -0.6731
   16CHL1   C12 1141   4.183   3.968   8.036  0.5611 -0.0012  0.6430
   16CHL1  H12A 1142   4.276   3.914   8.009  1.0075  1.8070 -1.7029
   16CHL1  H12B 1143   4.196   4.060   7.976 -0.3457 -0.1614  0.1824
   16CHL1   C11 1144   4.186   4.002   8.184  0.3419 -0.5575 -0.4242
   16CHL1  H11A 1145   4.224   3.911   8.237 -0.4065  1.0163  3.1335
   16CHL1  H11B 1146   4.271   4.070   8.207  0.1126 -0.6533  0.7748
   16CHL1    C9 1147   4.051   4.053   8.246  0.6855  0.4566 -0.9166
   16CHL1    H9 1148   4.047   4.161   8.217 -0.6163  1.1052  1.3759
   16CHL1   C10 1149   4.048   4.040   8.407 -0.6179  0.0529  0.2889
   16CHL1   C19 1150   4.048   3.885   8.444 -0.3576 -0.2091 -0.2928
   16CHL1  H19A 1151   3.943   3.850   8.437 -0.5385  0.1093  0.6677
   16CHL1  H19B 1152   4.107   3.818   8.379  0.3700  0.1741 -0.0335
   16CHL1  H19C 1153   4.075   3.873   8.551 -1.5940  0.5671  0.1290
   16CHL1    C1 1154   4.176   4.106   8.462 -0.0310  0.1570  0.2557
   16CHL1   H1A 1155   4.264   4.039   8.452 -1.1482 -1.2975  0.0266
   16CHL1   H1B 1156   4.191   4.207   8.417  1.6520  0.7621  2.0351
   16CHL1    C2 1157   4.169   4.136   8.617  0.1645 -0.1128 -0.4026
   16CHL1   H2A 1158   4.249   4.208   8.647 -1.2144  1.8055 -1.1167
   16CHL1   H2B 1159   4.180   4.038   8.666 -0.8826 -0.4292 -0.7697
   16CHL1   C20 1160   4.097   3.796   7.755 -0.5728 -0.3773  0.0945
   16CHL1   H20 1161   4.080   3.690   7.783 -1.5110  0.1452  1.6299
   16CHL1   C21 1162   4.252   3.816   7.755 -0.3020 -0.3705  0.6486
   16CHL1  H21A 1163   4.275   3.925   7.748 -0.4552 -0.3523  0.4173
   16CHL1  H21B 1164   4.311   3.754   7.684 -1.9037  0.0616 -1.1380
   16CHL1  H21C 1165   4.304   3.791   7.850 -0.6923 -1.8139  0.5096
   16CHL1   C22 1166   4.040   3.828   7.618 -0.0574 -0.0344  0.0500
   16CHL1  H22A 1167   3.931   3.810   7.627  0.0935 -0.0491  2.3332
   16CHL1  H22B 1168   4.053   3.937   7.598 -0.4065 -0.2410 -1.3795
   16CHL1   C23 1169   4.101   3.748   7.502  0.4186  0.1518 -0.3738
   16CHL1  H23A 1170   4.201   3.785   7.470  0.8022 -1.2776 -0.9285
   16CHL1  H23B 1171   4.124   3.646   7.539 -2.1709 -0.9635 -1.5558
   16CHL1   C24 1172   4.008   3.729   7.392  0.2145  0.1098  0.5392
   16CHL1  H24A 1173   3.917   3.676   7.429 -0.2823  0.9594  0.5709
   16CHL1  H24B 1174   3.975   3.825   7.346 -0.4447  0.3607  1.5084
   16CHL1   C25 1175   4.063   3.637   7.277 -0.6108  0.1806  0.3249
   16CHL1   H25 1176   4.107   3.545   7.322  2.5871  1.5484  0.2582
   16CHL1   C26 1177   3.947   3.609   7.181 -0.3581  0.1657 -1.1913
   16CHL1  H26A 1178   3.879   3.555   7.250  0.5671  1.7435  1.0913
   16CHL1  H26B 1179   3.883   3.697   7.156 -1.0769 -0.6260 -2.2780
   16CHL1  H26C 1180   3.959   3.542   7.093 -0.1125 -0.4752 -0.6701
   16CHL1   C27 1181   4.180   3.695   7.205  0.5708  0.5555 -0.0097
   16CHL1  H27A 1182   4.143   3.786   7.153  0.0001 -0.6767 -1.8585
   16CHL1  H27B 1183   4.259   3.727   7.277 -0.1279  1.9995  0.1335
   16CHL1  H27C 1184   4.215   3.623   7.128 -1.6145 -2.0175  1.2300
   17CHL1    C3 1185   0.583   0.020   8.585 -0.0321 -0.1641 -0.6859
   17CHL1    H3 1186   0.628  -0.081   8.588  0.2109 -0.0813 -1.3692
   17CHL1    O3 1187   0.541   0.061   8.715 -0.3128 -0.2088  0.5104
   17CHL1   H3' 1188   0.597   0.004   8.769  1.4872  0.9112 -0.0822
   17CHL1    C4 1189   0.687   0.125   8.534  0.0298  0.2526 -0.2141
   17CHL1   H4A 1190   0.645   0.228   8.534 -0.2814  0.1308 -0.6439
   17CHL1   H4B 1191   0.780   0.126   8.595  0.1020 -0.8581 -0.2860
   17CHL1    C5 1192   0.727   0.107   8.386  0.9403  0.4092 -0.1795
   17CHL1    C6 1193   0.858   0.080   8.367 -0.2671 -0.6391  0.4785
   17CHL1    H6 1194   0.928   0.071   8.452 -0.0677 -2.1187  0.1902
   17CHL1    C7 1195   0.917   0.053   8.231 -0.1306  0.2336  0.2503
   17CHL1   H7A 1196   1.008   0.114   8.213 -0.4265  0.9232  1.0279
   17CHL1   H7B 1197   0.959  -0.050   8.222 -0.4807  0.2504 -2.1975
   17CHL1    C8 1198   0.813   0.091   8.124  0.4514  0.2303  0.7875
   17CHL1    H8 1199   0.820   0.201   8.110  0.4397  0.5171  2.8323
   17CHL1   C14 1200   0.849   0.008   7.994  0.4636 -0.3722 -0.7024
   17CHL1   H14 1201   0.821  -0.100   8.004  0.0765 -0.4084 -1.9709
   17CHL1   C15 1202   0.999   0.013   7.956 -0.0713  0.1727  0.2734
   17CHL1  H15A 1203   1.031   0.118   7.969 -0.3355  0.0597  2.1073
   17CHL1  H15B 1204   1.064  -0.048   8.023 -1.9786 -0.3952  1.7233
   17CHL1   C16 1205   0.988  -0.017   7.803  0.8317 -0.3438 -0.3873
   17CHL1  H16A 1206   1.041   0.069   7.757  0.7863 -0.9010 -1.5136
   17CHL1  H16B 1207   1.040  -0.114   7.785 -0.6948 -1.2198 -0.2300
   17CHL1   C17 1208   0.831  -0.023   7.758  0.3142 -0.0340  0.7294
   17CHL1   H17 1209   0.797  -0.128   7.758  1.2815 -0.3678  1.6649
   17CHL1   C13 1210   0.768   0.056   7.873 -0.2262  0.1571  0.0965
   17CHL1   C18 1211   0.781   0.212   7.847 -0.0807  0.7740 -0.5246
   17CHL1  H18A 1212   0.887   0.241   7.834  0.4223 -1.4749 -1.7427
   17CHL1  H18B 1213   0.727   0.246   7.756 -2.0993  1.5645  0.8880
   17CHL1  H18C 1214   0.747   0.271   7.936  0.8079 -1.8980  1.7253
   17CHL1   C12 1215   0.620   0.023   7.908 -0.0948  0.9570 -0.1624
   17CHL1  H12A 1216   0.565   0.048   7.815  0.1107  1.3170 -0.1901
   17CHL1  H12B 1217   0.613  -0.088   7.911  0.5488  0.7919 -2.5754
   17CHL1   C11 1218   0.562   0.090   8.030 -0.0562 -0.1955  0.4993
   17CHL1  H11A 1219   0.553   0.199   8.009 -1.5261 -0.4921 -0.5884
   17CHL1  H11B 1220   0.460   0.055   8.055  0.3847 -1.5544  0.4632
   17CHL1    C9 1221   0.659   0.060   8.155 -0.6442  0.3836  0.4767
   17CHL1    H9 1222   0.650  -0.049   8.172 -1.1836  0.3788  0.1972
   17CHL1   C10 1223   0.612   0.117   8.289 -0.2583 -0.0726  0.0363
   17CHL1   C19 1224   0.568   0.264   8.273 -0.0129 -0.0091  0.6046
   17CHL1  H19A 1225   0.476   0.268   8.211  0.5601 -1.7018 -0.4051
   17CHL1  H19B 1226   0.540   0.327   8.360 -3.2960  0.9279 -0.9524
   17CHL1  H19C 1227   0.647   0.322   8.220 -1.9452  2.4027  0.1700
   17CHL1    C1 1228   0.496   0.018   8.341  0.6623  0.0867 -0.3257
   17CHL1   H1A 1229   0.406   0.046   8.283  0.1343 -0.5420  0.1895
   17CHL1   H1B 1230   0.526  -0.088   8.326 -0.1480 -0.7402  3.0185
   17CHL1    C2 1231   0.455   0.034   8.492  0.2025  0.3581  0.4995
   17CHL1   H2A 1232   0.389  -0.054   8.505  0.9012 -0.4756 -1.3031
   17CHL1   H2B 1233   0.405   0.133   8.497  1.7208  1.1562  0.5572
   17CHL1   C20 1234   0.814   0.026   7.617  0.2692  0.9376  0.0268
   17CHL1   H20 1235   0.870   0.119   7.595 -0.0337  1.2968  0.7549
   17CHL1   C21 1236   0.662   0.040   7.587  0.0509  1.1714 -0.5225
   17CHL1  H21A 1237   0.605   0.119   7.641 -0.4803  1.1667 -1.0694
   17CHL1  H21B 1238   0.612  -0.054   7.617 -1.4611  1.5891 -1.6119
   17CHL1  H21C 1239   0.645   0.034   7.477 -2.3797  1.0463 -0.1862
   17CHL1   C22 1240   0.878  -0.081   7.525  0.2182 -0.2186  0.1348
   17CHL1  H22A 1241   0.979  -0.106   7.562 -0.6372 -2.0915  1.3702
   17CHL1  H22B 1242   0.825  -0.178   7.541  0.3390 -0.4000 -0.5403
   17CHL1   C23 1243   0.896  -0.030   7.380  1.2665 -0.1294 -0.4826
   17CHL1  H23A 1244   0.801  -0.039   7.324  0.5488  1.7647  0.3572
   17CHL1  H23B 1245   0.928   0.075   7.366 -1.8683  0.7054 -2.2283
   17CHL1   C24 1246   0.999  -0.115   7.295  0.8378  0.0013 -1.1203
   17CHL1  H24A 1247   1.104  -0.114   7.330  0.9732  1.1120 -1.5027
   17CHL1  H24B 1248   0.963  -0.220   7.295  1.9473 -0.4107  0.1583
   17CHL1   C25 1249   1.005  -0.065   7.144  0.5169  0.0877 -0.4521
   17CHL1   H25 1250   1.022   0.044   7.158 -1.5975  0.1478  2.7696
   17CHL1   C26 1251   1.125  -0.137   7.072 -0.4812  0.1854  0.4909
   17CHL1  H26A 1252   1.108  -0.246   7.061  1.1750  0.0839 -1.9269
   17CHL1  H26B 1253   1.136  -0.102   6.967 -1.5829 -0.8208  0.0163
   17CHL1  H26C 1254   1.217  -0.117   7.130 -1.1943  0.4437  1.5638
   17CHL1   C27 1255   0.872  -0.081   7.069  0.1119  0.2881  0.1667
   17CHL1  H27A 1256   0.797  -0.016   7.118 -1.3505  0.1186 -1.7330
   17CHL1  H27B 1257   0.891  -0.049   6.964 -0.3566 -2.0374 -0.6953
   17CHL1  H27C 1258   0.837  -0.185   7.054  3.8770 -0.8535 -2.1954
   18CHL1    C3 1259   6.757   3.047   8.535  0.1536 -0.1262  0.3871
   18CHL1    H3 1260   6.665   2.984   8.533 -2.0696  2.9357  0.0099
   18CHL1    O3 1261   6.771   3.058   8.675  0.8171 -0.1155  0.0334
   18CHL1   H3' 1262   6.678   3.069   8.700  0.6170  1.1184 -1.1147
   18CHL1    C4 1263   6.879   2.979   8.470  0.2414 -0.4403 -0.9555
   18CHL1   H4A 1264   6.962   3.044   8.506  0.1233 -1.7756  2.0705
   18CHL1   H4B 1265   6.901   2.882   8.520 -0.1684 -1.2785 -2.3644
   18CHL1    C5 1266   6.873   2.971   8.329  0.3203 -0.0685  1.0051
   18CHL1    C6 1267   6.891   2.853   8.267 -0.3596  0.0827 -0.0766
   18CHL1    H6 1268   6.910   2.768   8.335  1.9822  0.8683  0.3425
   18CHL1    C7 1269   6.891   2.841   8.120  0.4079  0.6220  0.3343
   18CHL1   H7A 1270   6.967   2.776   8.070 -0.3052 -0.3213  0.4501
   18CHL1   H7B 1271   6.799   2.784   8.098  2.1863 -2.5073  0.3050
   18CHL1    C8 1272   6.897   2.977   8.040 -0.0624  0.0913  0.1644
   18CHL1    H8 1273   7.001   3.009   8.059  0.7012 -3.2005  2.2853
   18CHL1   C14 1274   6.871   2.965   7.892  0.1411 -0.2683 -0.6827
   18CHL1   H14 1275   6.769   2.925   7.878 -0.5666  0.8891  0.8881
   18CHL1   C15 1276   6.955   2.863   7.818  0.5164  0.3076  0.4289
   18CHL1  H15A 1277   7.064   2.871   7.838  1.2217  0.7945 -2.9914
   18CHL1  H15B 1278   6.941   2.754   7.834  1.3433 -0.5703 -3.6559
   18CHL1   C16 1279   6.930   2.896   7.668  0.3207  0.2039  0.1288
   18CHL1  H16A 1280   7.030   2.912   7.622 -0.4615  1.3485 -1.2802
   18CHL1  H16B 1281   6.874   2.810   7.624 -0.9603  1.2760 -0.4014
   18CHL1   C17 1282   6.851   3.033   7.679  0.4948 -0.3073  0.2716
   18CHL1   H17 1283   6.742   3.015   7.680  0.4622 -0.1840  1.9598
   18CHL1   C13 1284   6.879   3.088   7.819 -0.5351  0.1294 -0.3874
   18CHL1   C18 1285   7.012   3.157   7.826  0.3832 -0.3177 -0.0092
   18CHL1  H18A 1286   7.090   3.086   7.791  0.4422  0.6713 -2.0712
   18CHL1  H18B 1287   7.018   3.254   7.773  1.1701  0.2264  1.0323
   18CHL1  H18C 1288   7.035   3.179   7.932 -3.5326  0.0568  0.9072
   18CHL1   C12 1289   6.776   3.198   7.867 -0.4106  0.2374  0.2084
   18CHL1  H12A 1290   6.784   3.292   7.808 -0.0762 -0.0490 -0.2095
   18CHL1  H12B 1291   6.672   3.164   7.850 -0.5602  0.9043 -0.2328
   18CHL1   C11 1292   6.806   3.215   8.022  0.0445 -0.5978 -1.1555
   18CHL1  H11A 1293   6.894   3.281   8.040 -0.7991 -0.1627  1.9964
   18CHL1  H11B 1294   6.726   3.277   8.067  2.3391  1.4939  0.3322
   18CHL1    C9 1295   6.818   3.082   8.108  0.9553 -0.7245  0.1119
   18CHL1    H9 1296   6.713   3.046   8.098 -0.1051  1.9615  0.9202
   18CHL1   C10 1297   6.847   3.109   8.249  0.1363  0.2957 -0.2982
   18CHL1   C19 1298   6.969   3.206   8.263 -0.0133 -0.5739 -0.0210
   18CHL1  H19A 1299   6.935   3.311   8.250  1.5960  0.4318  2.9595
   18CHL1  H19B 1300   7.008   3.211   8.367 -1.7761  1.2803  0.6155
   18CHL1  H19C 1301   7.052   3.177   8.195  1.0343  0.1827  0.8925
   18CHL1    C1 1302   6.714   3.167   8.310 -0.4281 -0.3819  0.4912
   18CHL1   H1A 1303   6.698   3.269   8.269  0.0799 -0.7408 -0.6383
   18CHL1   H1B 1304   6.623   3.109   8.281  1.7429 -2.4850 -2.6823
   18CHL1    C2 1305   6.725   3.185   8.465 -0.0102  0.2819 -0.0327
   18CHL1   H2A 1306   6.628   3.223   8.503 -0.5358 -0.7905 -0.2650
   18CHL1   H2B 1307   6.806   3.260   8.480 -0.1111  0.6534 -1.2573
   18CHL1   C20 1308   6.876   3.132   7.558  0.0403 -0.0728 -0.1672
   18CHL1   H20 1309   6.962   3.198   7.582 -1.0984  1.1331  0.6793
   18CHL1   C21 1310   6.754   3.222   7.531  0.1330  0.6431 -0.1458
   18CHL1  H21A 1311   6.735   3.285   7.620 -0.4739  1.3795 -0.7890
   18CHL1  H21B 1312   6.658   3.174   7.503  0.1480  1.7940 -2.4083
   18CHL1  H21C 1313   6.786   3.290   7.449 -0.1582  0.1268 -0.6933
   18CHL1   C22 1314   6.919   3.059   7.437 -0.7427 -0.5365 -0.2383
   18CHL1  H22A 1315   7.014   3.006   7.457 -0.4871 -0.3142 -0.8477
   18CHL1  H22B 1316   6.832   2.992   7.417 -2.2290  1.0859  0.4701
   18CHL1   C23 1317   6.939   3.147   7.313  0.0415  0.1643 -0.2693
   18CHL1  H23A 1318   6.843   3.193   7.284 -1.6193 -1.4356  2.2558
   18CHL1  H23B 1319   7.009   3.232   7.328  0.0748  0.2390 -0.8352
   18CHL1   C24 1320   6.980   3.066   7.189  0.1908  0.0676 -0.3144
   18CHL1  H24A 1321   7.089   3.069   7.170  0.1798 -0.4414 -0.4783
   18CHL1  H24B 1322   6.931   2.967   7.199 -3.5213  1.9263  2.6259
   18CHL1   C25 1323   6.920   3.118   7.053 -0.0063  1.0409 -0.3141
   18CHL1   H25 1324   6.810   3.106   7.058  0.2358 -1.0620  2.7278
   18CHL1   C26 1325   6.949   3.266   7.034  0.1187  0.4984 -0.6567
   18CHL1  H26A 1326   6.900   3.311   6.945 -0.6864  0.8961 -0.0402
   18CHL1  H26B 1327   6.911   3.320   7.124 -1.2804 -0.1696 -0.8204
   18CHL1  H26C 1328   7.058   3.286   7.028  0.1995  0.5623  0.6014
   18CHL1   C27 1329   6.969   3.032   6.934 -0.9908  0.8074  0.5831
   18CHL1  H27A 1330   6.920   3.064   6.839  0.5605 -0.4794 -0.7176
   18CHL1  H27B 1331   7.079   3.031   6.916 -1.2242  1.4014 -1.1165
   18CHL1  H27C 1332   6.951   2.923   6.942  0.5604  0.2819 -1.8394
   19CHL1    C3 1333   0.991   0.977   8.230 -0.6927 -0.5097  0.0109
   19CHL1    H3 1334   1.075   0.910   8.256  0.6736  0.4198 -1.8404
   19CHL1    O3 1335   0.921   1.018   8.349  0.0855  0.0892  0.3591
   19CHL1   H3' 1336   0.854   1.078   8.315 -1.0038 -2.4641 -2.4490
   19CHL1    C4 1337   1.057   1.104   8.165  0.5558 -0.1953 -0.5072
   19CHL1   H4A 1338   0.993   1.195   8.157  0.7195 -0.1475 -1.3344
   19CHL1   H4B 1339   1.131   1.130   8.244 -1.0035 -1.4934  1.4708
   19CHL1    C5 1340   1.122   1.070   8.031 -0.9462 -0.0175  0.3117
   19CHL1    C6 1341   1.253   1.096   8.025 -0.2802  0.3251  0.2643
   19CHL1    H6 1342   1.302   1.156   8.103 -2.8129 -0.0148  2.2459
   19CHL1    C7 1343   1.338   1.065   7.907 -0.2137 -0.2394 -0.2950
   19CHL1   H7A 1344   1.388   1.161   7.881 -1.9350  0.6882 -0.3686
   19CHL1   H7B 1345   1.417   0.991   7.932 -0.4720 -1.2202 -2.2183
   19CHL1    C8 1346   1.253   1.024   7.787 -0.5306 -0.1982  0.5824
   19CHL1    H8 1347   1.219   1.117   7.736  2.1144  0.6529  0.1877
   19CHL1   C14 1348   1.343   0.962   7.681 -0.0369  1.2919 -0.2705
   19CHL1   H14 1349   1.383   0.871   7.730  0.7491  1.4372 -0.6306
   19CHL1   C15 1350   1.471   1.037   7.639 -0.0971 -0.1619  0.4243
   19CHL1  H15A 1351   1.450   1.146   7.627 -2.7498 -0.3570  2.4007
   19CHL1  H15B 1352   1.553   1.024   7.713 -0.4521 -2.3144  0.4818
   19CHL1   C16 1353   1.513   0.972   7.509 -0.1596  0.2820  0.1023
   19CHL1  H16A 1354   1.511   1.046   7.427 -1.2796  1.7085  1.3634
   19CHL1  H16B 1355   1.611   0.919   7.515 -0.3257  0.0845  1.7403
   19CHL1   C17 1356   1.401   0.857   7.476  0.2337 -0.5747 -0.3583
   19CHL1   H17 1357   1.438   0.765   7.526 -0.6421 -2.8350 -3.5431
   19CHL1   C13 1358   1.274   0.905   7.555 -0.1513  0.0860 -0.0284
   19CHL1   C18 1359   1.203   1.023   7.485  0.0130  0.6972 -0.4111
   19CHL1  H18A 1360   1.123   1.071   7.544 -1.8971  0.2749 -2.5238
   19CHL1  H18B 1361   1.271   1.103   7.448  0.3962  0.4799 -0.1816
   19CHL1  H18C 1362   1.143   0.986   7.398 -2.1864 -0.9954  1.6910
   19CHL1   C12 1363   1.169   0.802   7.595  0.1867  0.3299 -0.7135
   19CHL1  H12A 1364   1.115   0.772   7.504 -0.0232 -0.9982 -0.1748
   19CHL1  H12B 1365   1.218   0.707   7.626 -0.2491 -0.3808 -2.1119
   19CHL1   C11 1366   1.068   0.857   7.706 -0.0541 -0.3943  0.2800
   19CHL1  H11A 1367   1.011   0.938   7.656  0.8429  1.9805  2.8568
   19CHL1  H11B 1368   1.008   0.769   7.738  0.2047 -0.1148  1.6020
   19CHL1    C9 1369   1.141   0.931   7.826 -0.5412  0.5445 -0.1932
   19CHL1    H9 1370   1.197   0.847   7.874 -1.1255 -0.3606 -1.0519
   19CHL1   C10 1371   1.039   0.997   7.926 -0.4918  0.2018 -0.4788
   19CHL1   C19 1372   0.946   1.103   7.863  0.2848 -0.4658  0.0622
   19CHL1  H19A 1373   0.893   1.063   7.774  1.0258  1.1634 -1.1388
   19CHL1  H19B 1374   0.871   1.141   7.936  0.8619  0.1770  0.3259
   19CHL1  H19C 1375   1.010   1.186   7.829 -0.4792 -0.4480 -1.4174
   19CHL1    C1 1376   0.955   0.886   7.987  0.3806  0.3840  0.1287
   19CHL1   H1A 1377   0.874   0.882   7.912  0.7019  0.7580 -0.2426
   19CHL1   H1B 1378   1.004   0.786   7.979  2.1485  1.1669  0.7802
   19CHL1    C2 1379   0.896   0.908   8.128 -0.3924  1.1315 -0.3065
   19CHL1   H2A 1380   0.876   0.807   8.171 -0.2925  1.3975  0.3755
   19CHL1   H2B 1381   0.802   0.967   8.123 -0.1626  1.6161  0.7673
   19CHL1   C20 1382   1.386   0.818   7.327  0.1594  0.8342  0.1563
   19CHL1   H20 1383   1.290   0.762   7.327  0.9864 -0.7156 -1.7187
   19CHL1   C21 1384   1.505   0.716   7.312  0.1916  0.1344 -0.4091
   19CHL1  H21A 1385   1.605   0.758   7.336  1.6148 -2.4688 -1.3694
   19CHL1  H21B 1386   1.510   0.671   7.211  1.5997  0.5254 -0.5275
   19CHL1  H21C 1387   1.486   0.638   7.389 -0.6928  0.4622 -0.2844
   19CHL1   C22 1388   1.388   0.933   7.225 -0.4413  0.1860 -0.3624
   19CHL1  H22A 1389   1.324   1.020   7.253  0.2743  0.4289  0.5628
   19CHL1  H22B 1390   1.492   0.972   7.225  0.1567 -0.8988  3.8248
   19CHL1   C23 1391   1.356   0.886   7.076  0.0033 -0.2806 -0.1371
   19CHL1  H23A 1392   1.437   0.815   7.048 -0.7650 -1.6983  1.0687
   19CHL1  H23B 1393   1.260   0.831   7.077  0.3527 -1.0450  2.8889
   19CHL1   C24 1394   1.362   1.010   6.983  0.2664 -0.6227 -1.0842
   19CHL1  H24A 1395   1.286   1.084   7.017 -0.2365 -1.1443 -1.0366
   19CHL1  H24B 1396   1.462   1.058   6.983  0.3778 -0.8406 -0.0249
   19CHL1   C25 1397   1.343   0.972   6.833  0.5364 -0.4134  0.7240
   19CHL1   H25 1398   1.410   0.890   6.801  0.2553 -0.6713  0.7923
   19CHL1   C26 1399   1.201   0.922   6.804  0.4162  0.4182 -0.0099
   19CHL1  H26A 1400   1.124   0.995   6.835  1.1054  0.7611  0.9512
   19CHL1  H26B 1401   1.195   0.880   6.701 -0.6233 -0.6846  0.4827
   19CHL1  H26C 1402   1.184   0.844   6.882  1.4917  0.9134  0.7504
   19CHL1   C27 1403   1.370   1.098   6.741 -0.5941  0.1626 -1.3090
   19CHL1  H27A 1404   1.343   1.077   6.636 -1.8860 -3.0337 -0.4699
   19CHL1  H27B 1405   1.315   1.182   6.788  0.1633 -0.3880  0.6770
   19CHL1  H27C 1406   1.478   1.124   6.747 -0.8886  1.1579  2.0593
   20CHL1    C3 1407   5.332   1.433   8.588 -0.0509  0.0288  0.3904
   20CHL1    H3 1408   5.280   1.362   8.656  0.7554 -1.4437 -0.4788
   20CHL1    O3 1409   5.370   1.545   8.666 -0.0243  0.0056  0.0923
   20CHL1   H3' 1410   5.405   1.520   8.752  3.3410  0.3624 -1.0326
   20CHL1    C4 1411   5.456   1.363   8.526 -0.6918  0.1502  0.3791
   20CHL1   H4A 1412   5.516   1.441   8.474  2.1220 -1.0687  1.6049
   20CHL1   H4B 1413   5.516   1.327   8.612  0.5966  1.2485 -0.0280
   20CHL1    C5 1414   5.422   1.256   8.426  0.7931 -0.2876  0.7116
   20CHL1    C6 1415   5.477   1.133   8.431 -0.0135  0.3748 -0.0592
   20CHL1    H6 1416   5.539   1.099   8.516 -1.5317 -2.0091  0.1702
   20CHL1    C7 1417   5.458   1.024   8.332  0.1350 -0.1368  0.7281
   20CHL1   H7A 1418   5.554   0.978   8.300 -1.4907 -3.6586  0.4861
   20CHL1   H7B 1419   5.391   0.950   8.381 -0.7128 -0.2629 -0.5706
   20CHL1    C8 1420   5.379   1.065   8.201  0.0877  0.3900 -0.2737
   20CHL1    H8 1421   5.452   1.117   8.135 -0.5520  2.7062  0.7421
   20CHL1   C14 1422   5.317   0.936   8.138  0.7705 -0.3598  0.0298
   20CHL1   H14 1423   5.235   0.900   8.204  0.0391 -0.4146 -0.8725
   20CHL1   C15 1424   5.398   0.805   8.119 -0.4324  0.1468  0.5938
   20CHL1  H15A 1425   5.501   0.833   8.087 -0.6105 -0.4214 -0.5502
   20CHL1  H15B 1426   5.413   0.737   8.206  1.5748  0.5489  0.6304
   20CHL1   C16 1427   5.330   0.745   7.998  0.4004  0.2698  0.0331
   20CHL1  H16A 1428   5.400   0.734   7.912  1.2367  1.3462  0.5521
   20CHL1  H16B 1429   5.290   0.645   8.024 -1.3969  1.4345  2.0098
   20CHL1   C17 1430   5.206   0.828   7.964 -0.0311  0.0171 -0.0832
   20CHL1   H17 1431   5.131   0.805   8.042  1.2565  2.6914  2.1353
   20CHL1   C13 1432   5.237   0.970   8.011  0.1527 -0.0382 -0.5160
   20CHL1   C18 1433   5.335   1.028   7.912  0.3154  0.7275  0.2250
   20CHL1  H18A 1434   5.353   1.138   7.912  4.0321  0.2830 -1.9909
   20CHL1  H18B 1435   5.434   0.981   7.925 -0.7901 -1.6178  0.7605
   20CHL1  H18C 1436   5.305   0.999   7.809  1.4122 -0.8220  0.3223
   20CHL1   C12 1437   5.125   1.074   8.030 -0.4661  0.3948 -0.3176
   20CHL1  H12A 1438   5.069   1.099   7.938  1.0539  1.0968 -1.0769
   20CHL1  H12B 1439   5.043   1.047   8.101 -0.1012 -0.8810 -0.3714
   20CHL1   C11 1440   5.172   1.195   8.109 -0.4254 -1.1441 -0.2412
   20CHL1  H11A 1441   5.232   1.269   8.052  0.2086 -0.5904  1.0833
   20CHL1  H11B 1442   5.087   1.261   8.136  2.4163  1.8170  2.4040
   20CHL1    C9 1443   5.266   1.162   8.235 -0.4364 -0.1678 -0.2824
   20CHL1    H9 1444   5.195   1.103   8.297 -0.1665 -2.1725 -1.7791
   20CHL1   C10 1445   5.314   1.286   8.317  0.3330  0.0636 -0.0921
   20CHL1   C19 1446   5.380   1.396   8.222  0.7624 -0.0959 -0.0266
   20CHL1  H19A 1447   5.419   1.486   8.273 -0.3850  1.1048 -1.2079
   20CHL1  H19B 1448   5.460   1.342   8.166 -0.7040 -0.5197 -1.7968
   20CHL1  H19C 1449   5.311   1.440   8.148 -0.5460  1.2680  1.9034
   20CHL1    C1 1450   5.195   1.361   8.379  0.6887 -0.6497 -0.6508
   20CHL1   H1A 1451   5.121   1.403   8.308 -0.8931  0.1689  1.3989
   20CHL1   H1B 1452   5.143   1.288   8.444 -0.0075 -1.3728 -1.9746
   20CHL1    C2 1453   5.237   1.477   8.482 -0.1088 -0.5378  0.5750
   20CHL1   H2A 1454   5.143   1.514   8.529 -0.1960  0.1278 -0.0968
   20CHL1   H2B 1455   5.285   1.556   8.421 -2.3209 -0.6106 -1.4229
   20CHL1   C20 1456   5.138   0.810   7.825  0.2773 -0.0055 -0.6190
   20CHL1   H20 1457   5.130   0.903   7.765  0.6829 -0.3586 -1.2221
   20CHL1   C21 1458   4.998   0.760   7.853 -0.1960  0.5778  0.2756
   20CHL1  H21A 1459   4.934   0.760   7.763 -1.0744 -0.1660  0.8857
   20CHL1  H21B 1460   4.949   0.825   7.929 -1.4097  0.1746 -0.1384
   20CHL1  H21C 1461   5.000   0.661   7.903 -0.2955  0.3542 -0.1571
   20CHL1   C22 1462   5.216   0.726   7.732 -0.4696  0.0182 -0.0474
   20CHL1  H22A 1463   5.320   0.765   7.723  0.0418 -0.9131  1.4757
   20CHL1  H22B 1464   5.212   0.624   7.775  1.0571 -0.0062  0.0876
   20CHL1   C23 1465   5.157   0.718   7.586 -0.2121  0.6004  0.2995
   20CHL1  H23A 1466   5.058   0.668   7.590  1.3899 -2.9470 -0.2603
   20CHL1  H23B 1467   5.136   0.822   7.553 -4.7345  1.1853  3.9223
   20CHL1   C24 1468   5.235   0.640   7.476  0.3602 -0.6374  0.8331
   20CHL1  H24A 1469   5.283   0.714   7.407  0.1240 -2.1636 -1.0658
   20CHL1  H24B 1470   5.326   0.592   7.518  1.0602 -0.0814 -0.0102
   20CHL1   C25 1471   5.157   0.534   7.399  0.1564 -0.2194  0.2397
   20CHL1   H25 1472   5.114   0.463   7.472 -2.0020  0.8206  0.0545
   20CHL1   C26 1473   5.046   0.583   7.304 -0.2321 -1.0030 -0.4743
   20CHL1  H26A 1474   4.964   0.611   7.373  0.5443  1.4175 -0.4487
   20CHL1  H26B 1475   5.087   0.665   7.242 -1.4109 -0.0095  0.0242
   20CHL1  H26C 1476   5.002   0.496   7.250 -0.2624 -2.3745  1.6583
   20CHL1   C27 1477   5.254   0.463   7.311  0.2498  0.0206  0.1280
   20CHL1  H27A 1478   5.202   0.387   7.248 -1.5666  0.5042  0.9760
   20CHL1  H27B 1479   5.308   0.538   7.249  0.2744  0.3091  0.5000
   20CHL1  H27C 1480   5.335   0.408   7.363  1.4465  0.2521 -1.4058
   21CHL1    C3 1481   4.664   2.871   8.667  0.2820  0.4251 -0.7172
   21CHL1    H3 1482   4.707   2.773   8.637 -0.9913 -0.3264 -0.1846
   21CHL1    O3 1483   4.624   2.877   8.806 -0.5279  0.6851  0.2901
   21CHL1   H3' 1484   4.540   2.923   8.814  0.2274  1.9789  1.0912
   21CHL1    C4 1485   4.765   2.979   8.634 -0.6710 -0.6197 -0.5702
   21CHL1   H4A 1486   4.716   3.067   8.681  1.8614 -0.5610  2.2627
   21CHL1   H4B 1487   4.855   2.961   8.697  0.0189 -3.8317 -2.2377
   21CHL1    C5 1488   4.798   2.987   8.484  0.4871 -0.5612 -0.5950
   21CHL1    C6 1489   4.923   2.984   8.441 -0.2081  0.0798 -0.3845
   21CHL1    H6 1490   5.009   2.988   8.509 -0.1481  0.2631 -0.4698
   21CHL1    C7 1491   4.959   2.992   8.295  0.5015  0.2126 -0.0775
   21CHL1   H7A 1492   5.036   3.071   8.279 -0.6033  1.6473  1.4301
   21CHL1   H7B 1493   4.983   2.902   8.234 -1.1101  0.0746 -0.5480
   21CHL1    C8 1494   4.838   3.042   8.206 -0.2632 -0.1070 -0.3226
   21CHL1    H8 1495   4.826   3.151   8.228 -2.4269 -0.2990 -0.3402
   21CHL1   C14 1496   4.865   3.017   8.056  0.0643 -0.3752  0.1096
   21CHL1   H14 1497   4.870   2.906   8.048  0.8977 -0.2962 -0.5785
   21CHL1   C15 1498   5.005   3.062   8.001  0.1335 -0.7162 -0.1252
   21CHL1  H15A 1499   5.027   3.167   8.030  0.1641 -0.2939 -1.5859
   21CHL1  H15B 1500   5.090   2.996   8.027 -0.1753 -1.2737 -0.5232
   21CHL1   C16 1501   4.976   3.047   7.847  0.5445 -0.4225 -0.2480
   21CHL1  H16A 1502   4.990   3.150   7.808 -0.3643  0.3313  1.3061
   21CHL1  H16B 1503   5.040   2.975   7.792 -1.4354 -3.1874  0.8305
   21CHL1   C17 1504   4.830   3.014   7.825  0.0001  0.1910  0.0123
   21CHL1   H17 1505   4.820   2.904   7.841 -1.4009  0.3922  0.6599
   21CHL1   C13 1506   4.760   3.065   7.958 -0.3911  0.4009  0.5981
   21CHL1   C18 1507   4.753   3.220   7.952  0.0623 -0.4722  0.4437
   21CHL1  H18A 1508   4.725   3.262   8.052  0.3279 -0.9733  0.7308
   21CHL1  H18B 1509   4.842   3.269   7.908 -0.6700  1.0324  0.5449
   21CHL1  H18C 1510   4.672   3.245   7.880 -1.0440 -0.9446  1.4653
   21CHL1   C12 1511   4.623   3.006   8.001  0.1538 -0.3748  0.4314
   21CHL1  H12A 1512   4.547   3.054   7.936 -1.2305  1.0163  2.9417
   21CHL1  H12B 1513   4.638   2.896   7.992  0.5139 -0.1812 -1.9321
   21CHL1   C11 1514   4.590   3.030   8.152 -0.0306  0.2093 -0.8084
   21CHL1  H11A 1515   4.567   3.137   8.174  1.9063  0.7491 -1.1938
   21CHL1  H11B 1516   4.504   2.962   8.171 -0.1415  0.5299 -0.1258
   21CHL1    C9 1517   4.707   2.973   8.246 -0.0452  0.1499  0.6325
   21CHL1    H9 1518   4.723   2.865   8.226  0.2849  0.3581 -0.2796
   21CHL1   C10 1519   4.672   2.993   8.394 -0.4748 -0.0281  0.3509
   21CHL1   C19 1520   4.609   3.126   8.418  0.7013 -0.4717  0.7264
   21CHL1  H19A 1521   4.499   3.118   8.406  0.5002  2.0562  0.2909
   21CHL1  H19B 1522   4.614   3.160   8.524  0.1812  1.1770  0.2557
   21CHL1  H19C 1523   4.658   3.210   8.365  1.7894 -0.7443  1.2626
   21CHL1    C1 1524   4.572   2.893   8.432 -0.8484  0.2973  0.3331
   21CHL1   H1A 1525   4.478   2.911   8.376  0.0139  0.9264 -0.9476
   21CHL1   H1B 1526   4.593   2.789   8.399  0.1261  0.1790  1.2571
   21CHL1    C2 1527   4.533   2.886   8.583  0.1930  0.9745 -1.0565
   21CHL1   H2A 1528   4.469   2.798   8.604  0.9537  0.8783  1.1937
   21CHL1   H2B 1529   4.482   2.977   8.621  2.5085  2.0976 -0.4149
   21CHL1   C20 1530   4.784   3.058   7.686  1.2170  0.9059  0.4784
   21CHL1   H20 1531   4.794   3.167   7.669  0.8072  0.7501 -0.8608
   21CHL1   C21 1532   4.640   3.016   7.661  0.3641  0.4991 -0.0721
   21CHL1  H21A 1533   4.614   2.919   7.707  0.7901  1.2707  1.8840
   21CHL1  H21B 1534   4.612   3.014   7.553 -4.3248  0.2612  0.8970
   21CHL1  H21C 1535   4.567   3.088   7.705  0.5797  0.8185 -0.2311
   21CHL1   C22 1536   4.871   2.987   7.580 -0.6198 -0.0779  0.9874
   21CHL1  H22A 1537   4.980   3.009   7.585 -1.0193  1.8811  1.4475
   21CHL1  H22B 1538   4.856   2.877   7.576 -1.9205  0.1166 -0.6184
   21CHL1   C23 1539   4.852   3.033   7.436 -0.0556  0.0079  0.5018
   21CHL1  H23A 1540   4.754   3.001   7.395  0.3711  1.0606 -1.4697
   21CHL1  H23B 1541   4.855   3.142   7.418 -0.4066  0.2642  1.8924
   21CHL1   C24 1542   4.955   2.964   7.343  0.5969 -1.0709  0.3951
   21CHL1  H24A 1543   5.060   2.984   7.373  0.9302 -0.1365 -1.2622
   21CHL1  H24B 1544   4.929   2.858   7.361  0.3534 -0.9451  0.8035
   21CHL1   C25 1545   4.934   2.987   7.193  0.1420  0.0335 -0.0779
   21CHL1   H25 1546   4.827   2.990   7.162  0.1288 -0.1369 -0.0521
   21CHL1   C26 1547   5.001   3.122   7.144  0.3866 -0.1540  0.5535
   21CHL1  H26A 1548   4.947   3.210   7.185  0.9188  0.6691 -0.4400
   21CHL1  H26B 1549   5.109   3.129   7.167  0.4675  0.2570  0.0791
   21CHL1  H26C 1550   4.990   3.127   7.033 -1.4321 -2.6916  0.5429
   21CHL1   C27 1551   5.005   2.875   7.114  0.3486 -0.0648  0.0642
   21CHL1  H27A 1552   5.116   2.879   7.126  0.2688 -0.6828  1.0777
   21CHL1  H27B 1553   4.974   2.774   7.146 -0.2483 -0.0627 -0.4913
   21CHL1  H27C 1554   4.970   2.882   7.009 -0.7287  1.3505  0.4767
   22CHL1    C3 1555   6.820   6.695   8.680  0.9374  0.3048 -0.0330
   22CHL1    H3 1556   6.722   6.747   8.679 -0.2993 -1.8707  0.8028
   22CHL1    O3 1557   6.876   6.706   8.812  0.0867 -0.3334 -0.1556
   22CHL1   H3' 1558   6.946   6.767   8.790  0.2127 -0.7516 -0.9828
   22CHL1    C4 1559   6.803   6.550   8.627  0.4981  0.7905  0.0549
   22CHL1   H4A 1560   6.896   6.499   8.658 -0.0472 -0.4748 -0.3529
   22CHL1   H4B 1561   6.729   6.507   8.697 -0.3291  2.9587  0.6137
   22CHL1    C5 1562   6.781   6.531   8.477  0.3570  0.2445 -0.3462
   22CHL1    C6 1563   6.680   6.456   8.432 -0.0378  0.3187  0.3642
   22CHL1    H6 1564   6.615   6.395   8.496  1.0510  0.5795  1.7684
   22CHL1    C7 1565   6.664   6.423   8.281 -0.5364 -0.2886 -1.0819
   22CHL1   H7A 1566   6.650   6.315   8.260 -1.7160 -0.9158  2.2634
   22CHL1   H7B 1567   6.577   6.477   8.238 -1.1184 -1.1744 -1.0376
   22CHL1    C8 1568   6.793   6.464   8.199  0.0557  0.0618  0.7914
   22CHL1    H8 1569   6.877   6.393   8.216 -0.5947 -0.7235  0.7752
   22CHL1   C14 1570   6.748   6.460   8.053 -0.0198 -0.1268  0.3597
   22CHL1   H14 1571   6.661   6.526   8.034 -1.6479 -2.2520  0.1387
   22CHL1   C15 1572   6.677   6.330   7.998 -0.3665 -0.4981  0.1993
   22CHL1  H15A 1573   6.737   6.240   8.022  1.6007  0.8910  0.7123
   22CHL1  H15B 1574   6.574   6.320   8.038 -1.2964 -0.8624 -2.1694
   22CHL1   C16 1575   6.692   6.340   7.842 -0.6295  0.1766  0.0902
   22CHL1  H16A 1576   6.740   6.244   7.812 -2.8048 -1.4479  1.4478
   22CHL1  H16B 1577   6.591   6.339   7.796  0.1155  1.9922 -1.7480
   22CHL1   C17 1578   6.776   6.468   7.812 -0.5332  0.1680 -0.0069
   22CHL1   H17 1579   6.696   6.546   7.807 -0.7178  0.0119  0.4779
   22CHL1   C13 1580   6.852   6.504   7.946 -0.0790 -0.1601 -0.5372
   22CHL1   C18 1581   6.978   6.418   7.959  0.3855  0.1541 -0.3225
   22CHL1  H18A 1582   7.063   6.444   7.893  1.0533  1.1502  0.8931
   22CHL1  H18B 1583   7.012   6.424   8.064 -1.2220  1.5551  0.1519
   22CHL1  H18C 1584   6.970   6.309   7.939  3.9625 -0.8136  2.5261
   22CHL1   C12 1585   6.885   6.658   7.976 -0.0779 -0.5182 -0.2918
   22CHL1  H12A 1586   6.971   6.686   7.912  0.4067  0.2256  0.6545
   22CHL1  H12B 1587   6.793   6.715   7.952 -1.3874 -2.9052 -1.2938
   22CHL1   C11 1588   6.932   6.673   8.129 -0.1736 -0.4848  0.3526
   22CHL1  H11A 1589   7.033   6.628   8.127 -0.0783 -0.2581 -0.3971
   22CHL1  H11B 1590   6.961   6.776   8.158  1.0117 -0.1442 -1.8098
   22CHL1    C9 1591   6.839   6.609   8.233 -0.4440 -0.5759 -0.5703
   22CHL1    H9 1592   6.744   6.668   8.234 -1.3367 -1.9566  0.8775
   22CHL1   C10 1593   6.879   6.609   8.381  0.1470  0.3576 -0.1351
   22CHL1   C19 1594   7.021   6.539   8.389  0.4191 -0.5247 -0.2280
   22CHL1  H19A 1595   7.086   6.591   8.316 -1.3210  0.7695 -0.9227
   22CHL1  H19B 1596   7.066   6.557   8.489 -0.4597 -2.4669  0.5825
   22CHL1  H19C 1597   7.018   6.430   8.365 -1.7131  0.0119 -2.8784
   22CHL1    C1 1598   6.897   6.757   8.432 -0.4143 -0.4292  0.5657
   22CHL1   H1A 1599   6.990   6.803   8.392 -1.3538 -1.0224 -2.5383
   22CHL1   H1B 1600   6.812   6.814   8.391  0.8747 -0.0821 -1.8616
   22CHL1    C2 1601   6.927   6.767   8.585  0.2432  0.1406  0.2327
   22CHL1   H2A 1602   6.918   6.875   8.613 -0.2156  0.0300  0.5144
   22CHL1   H2B 1603   7.028   6.725   8.602 -0.0399 -0.4558  0.4525
   22CHL1   C20 1604   6.853   6.460   7.682 -0.5617  0.2359 -0.1143
   22CHL1   H20 1605   6.908   6.363   7.686 -0.7283  0.0731 -1.2259
   22CHL1   C21 1606   6.943   6.581   7.649  0.8130 -0.4004 -0.1863
   22CHL1  H21A 1607   6.879   6.671   7.644  1.9039  0.4010 -4.5210
   22CHL1  H21B 1608   6.985   6.566   7.547  2.0564  0.9721  0.1002
   22CHL1  H21C 1609   7.032   6.599   7.713  1.5208  3.2123 -1.9223
   22CHL1   C22 1610   6.760   6.428   7.562 -0.5642 -0.1727 -0.1601
   22CHL1  H22A 1611   6.818   6.431   7.467 -0.6874 -0.7620 -0.2602
   22CHL1  H22B 1612   6.727   6.323   7.578  2.2363 -0.8453  1.9057
   22CHL1   C23 1613   6.640   6.524   7.534 -0.0081 -0.9299  0.4032
   22CHL1  H23A 1614   6.574   6.535   7.623  1.9204  0.8772  1.7152
   22CHL1  H23B 1615   6.691   6.621   7.516  0.0735 -0.8440  1.0955
   22CHL1   C24 1616   6.566   6.490   7.399  0.1396  0.3860  0.9508
   22CHL1  H24A 1617   6.640   6.462   7.320 -0.4710  1.1385  0.1017
   22CHL1  H24B 1618   6.505   6.401   7.424  2.6854 -2.1549 -1.0920
   22CHL1   C25 1619   6.483   6.608   7.346 -0.0582  0.0972 -0.0268
   22CHL1   H25 1620   6.414   6.642   7.426  0.1066  1.2178 -0.3429
   22CHL1   C26 1621   6.566   6.725   7.296 -0.3429  0.0131  0.5238
   22CHL1  H26A 1622   6.500   6.795   7.241 -0.2280  0.5583  1.0685
   22CHL1  H26B 1623   6.633   6.777   7.368  0.8010 -0.5708 -0.0987
   22CHL1  H26C 1624   6.623   6.685   7.210 -0.3644  0.3862  0.3362
   22CHL1   C27 1625   6.396   6.555   7.231  0.2967  0.1216  0.3092
   22CHL1  H27A 1626   6.458   6.506   7.153  0.8600  0.8356  0.3011
   22CHL1  H27B 1627   6.329   6.471   7.260  1.1145 -1.3520 -1.8383
   22CHL1  H27C 1628   6.346   6.640   7.182  0.8355  0.1480 -0.2038
   23CHL1    C3 1629   6.615   2.463   8.479 -0.3695  0.1837  0.3456
   23CHL1    H3 1630   6.634   2.361   8.438 -1.9524  0.8343 -2.2808
   23CHL1    O3 1631   6.635   2.474   8.625  0.0353 -0.5362  0.5437
   23CHL1   H3' 1632   6.626   2.568   8.644  1.8650 -0.1132 -0.4552
   23CHL1    C4 1633   6.720   2.555   8.407 -0.1427  0.3476  0.9184
   23CHL1   H4A 1634   6.714   2.662   8.439 -3.5439  1.6678 -3.1268
   23CHL1   H4B 1635   6.817   2.508   8.433 -0.3870 -1.3506 -0.9715
   23CHL1    C5 1636   6.692   2.544   8.256  0.2951  0.7447  0.2891
   23CHL1    C6 1637   6.783   2.492   8.169 -0.0982  0.0316 -0.0123
   23CHL1    H6 1638   6.885   2.465   8.200  1.5478  1.2629 -3.7672
   23CHL1    C7 1639   6.762   2.479   8.015 -0.5383  0.0409  0.0556
   23CHL1   H7A 1640   6.858   2.513   7.971 -0.7919  0.8478  0.1034
   23CHL1   H7B 1641   6.739   2.373   7.992 -1.2876  0.2239 -0.0656
   23CHL1    C8 1642   6.648   2.559   7.960 -0.6160 -0.3618 -0.4430
   23CHL1    H8 1643   6.677   2.667   7.965 -0.8063 -0.3046 -0.5642
   23CHL1   C14 1644   6.616   2.529   7.817 -0.3094  0.4042 -0.5962
   23CHL1   H14 1645   6.586   2.423   7.826  2.0686 -0.2927 -0.2373
   23CHL1   C15 1646   6.734   2.533   7.722  0.1048  0.0828 -0.8723
   23CHL1  H15A 1647   6.800   2.621   7.740 -1.7444  1.6375 -1.4689
   23CHL1  H15B 1648   6.779   2.431   7.727 -3.1153 -1.6717 -3.3228
   23CHL1   C16 1649   6.662   2.558   7.584 -0.3124  0.5809 -0.7025
   23CHL1  H16A 1650   6.682   2.660   7.544 -2.5771  1.9151  1.2695
   23CHL1  H16B 1651   6.707   2.493   7.506  0.7400  1.4380 -0.8256
   23CHL1   C17 1652   6.509   2.561   7.612 -0.4935 -0.1618 -0.0985
   23CHL1   H17 1653   6.464   2.460   7.602 -0.9790 -0.2358  2.1763
   23CHL1   C13 1654   6.498   2.595   7.758  0.8873 -0.2101 -0.4812
   23CHL1   C18 1655   6.518   2.750   7.765  0.2362  0.1996  0.1104
   23CHL1  H18A 1656   6.607   2.791   7.712  0.5833 -1.6544 -0.8026
   23CHL1  H18B 1657   6.426   2.803   7.731  1.0033  1.3546 -0.2321
   23CHL1  H18C 1658   6.516   2.763   7.875  0.5552 -0.4326  0.1935
   23CHL1   C12 1659   6.378   2.558   7.849 -0.3347 -0.0096  0.5339
   23CHL1  H12A 1660   6.282   2.603   7.816 -0.9548 -0.9140  1.0604
   23CHL1  H12B 1661   6.353   2.450   7.845 -2.3613  0.3895  1.2959
   23CHL1   C11 1662   6.390   2.598   7.997 -0.1761  0.3934 -0.2008
   23CHL1  H11A 1663   6.382   2.708   8.005 -0.1086  0.3304  0.8312
   23CHL1  H11B 1664   6.308   2.540   8.045 -0.8613  0.4245 -1.3003
   23CHL1    C9 1665   6.526   2.547   8.057  0.3158  0.8322 -0.1527
   23CHL1    H9 1666   6.497   2.440   8.060 -3.7694  1.7433 -0.3776
   23CHL1   C10 1667   6.554   2.589   8.213 -0.4373  0.5872  0.4099
   23CHL1   C19 1668   6.522   2.737   8.231 -0.0203  0.7671  0.1764
   23CHL1  H19A 1669   6.413   2.750   8.215  0.2497  0.8263 -1.8694
   23CHL1  H19B 1670   6.552   2.771   8.332 -0.5996  3.5855 -0.5168
   23CHL1  H19C 1671   6.570   2.801   8.154 -0.2418  0.7343  0.0107
   23CHL1    C1 1672   6.453   2.498   8.296  0.4626 -0.2614  0.5775
   23CHL1   H1A 1673   6.354   2.538   8.266  0.5975 -1.7083 -2.1675
   23CHL1   H1B 1674   6.460   2.392   8.264 -0.9346  0.1495 -1.3069
   23CHL1    C2 1675   6.475   2.510   8.441  0.0054  0.2985 -0.3427
   23CHL1   H2A 1676   6.417   2.441   8.506 -0.1120  0.2559 -0.4918
   23CHL1   H2B 1677   6.448   2.612   8.477  0.9096 -0.2305  2.0042
   23CHL1   C20 1678   6.439   2.649   7.500 -0.4381 -0.0627  0.1149
   23CHL1   H20 1679   6.478   2.753   7.508  0.5156 -0.3477 -0.6345
   23CHL1   C21 1680   6.285   2.664   7.520 -0.3905 -0.5034  0.0036
   23CHL1  H21A 1681   6.226   2.570   7.517 -1.6569  0.2783 -0.1877
   23CHL1  H21B 1682   6.248   2.735   7.443  2.4154  0.3069 -0.7100
   23CHL1  H21C 1683   6.256   2.711   7.616  1.0178  1.1998 -0.3543
   23CHL1   C22 1684   6.474   2.599   7.365 -0.5929  0.1844 -0.1275
   23CHL1  H22A 1685   6.582   2.576   7.358 -0.9262 -1.2095 -1.0974
   23CHL1  H22B 1686   6.411   2.507   7.360 -2.8065  1.5960  0.3355
   23CHL1   C23 1687   6.432   2.698   7.253 -0.2277  0.0960  0.0752
   23CHL1  H23A 1688   6.324   2.722   7.264  0.3019  2.2536  1.0952
   23CHL1  H23B 1689   6.496   2.789   7.249 -0.0090 -0.0705 -2.7456
   23CHL1   C24 1690   6.462   2.630   7.117  0.0528  0.6544  0.9895
   23CHL1  H24A 1691   6.570   2.603   7.116  0.4057  1.9813  0.3883
   23CHL1  H24B 1692   6.412   2.532   7.109  1.6575 -0.0579 -0.9267
   23CHL1   C25 1693   6.433   2.702   6.983 -0.4387  0.3046 -0.4315
   23CHL1   H25 1694   6.476   2.801   7.010 -0.4732  0.2723 -0.2562
   23CHL1   C26 1695   6.493   2.632   6.867 -0.2073 -0.0096  0.4992
   23CHL1  H26A 1696   6.447   2.531   6.856  0.9594 -0.5421  0.2412
   23CHL1  H26B 1697   6.473   2.684   6.771  0.8876 -1.2251 -0.4228
   23CHL1  H26C 1698   6.602   2.609   6.869 -0.4499 -2.2133 -2.9462
   23CHL1   C27 1699   6.288   2.726   6.961  0.4418 -0.0623  0.6757
   23CHL1  H27A 1700   6.232   2.635   6.930  1.0085 -0.2147  0.0536
   23CHL1  H27B 1701   6.243   2.776   7.049 -0.1237 -0.9284  0.8892
   23CHL1  H27C 1702   6.288   2.802   6.880 -0.9452  0.3135  1.0097
   24CHL1    C3 1703   0.439   0.728   8.068 -0.2079 -0.2138  0.0586
   24CHL1    H3 1704   0.341   0.759   8.025 -0.4683  1.4412  1.7329
   24CHL1    O3 1705   0.431   0.733   8.212 -0.1290  0.0678 -0.4361
   24CHL1   H3' 1706   0.343   0.716   8.246 -0.0038 -0.8626 -0.5647
   24CHL1    C4 1707   0.459   0.582   8.024  0.1232  0.7521  0.3958
   24CHL1   H4A 1708   0.541   0.531   8.078 -0.2526 -1.7737 -1.2560
   24CHL1   H4B 1709   0.365   0.537   8.063  0.5166  0.9412  1.6188
   24CHL1    C5 1710   0.491   0.565   7.867 -1.1567 -0.1793  0.1847
   24CHL1    C6 1711   0.420   0.483   7.796  0.0884  0.4241  0.1615
   24CHL1    H6 1712   0.340   0.427   7.848  0.1152  0.8624  0.6790
   24CHL1    C7 1713   0.449   0.452   7.655  0.1739 -0.0518  0.7015
   24CHL1   H7A 1714   0.452   0.341   7.655 -0.5992 -0.1060  2.3118
   24CHL1   H7B 1715   0.357   0.480   7.598  1.9517  0.7633 -1.9828
   24CHL1    C8 1716   0.581   0.511   7.599 -0.0287  0.4070 -0.1961
   24CHL1    H8 1717   0.662   0.440   7.626  0.3915  1.4491  1.4897
   24CHL1   C14 1718   0.573   0.521   7.441  0.1157 -0.3793  0.4060
   24CHL1   H14 1719   0.493   0.595   7.420  1.3818  1.2453  1.0411
   24CHL1   C15 1720   0.549   0.396   7.364 -0.7601 -0.0374  0.0880
   24CHL1  H15A 1721   0.622   0.317   7.392  0.5637  1.1558  0.1142
   24CHL1  H15B 1722   0.454   0.339   7.369 -0.5383 -0.3945  0.3439
   24CHL1   C16 1723   0.582   0.441   7.218  0.4380  0.8520 -0.4907
   24CHL1  H16A 1724   0.661   0.375   7.175  1.1643 -0.1335  2.1796
   24CHL1  H16B 1725   0.497   0.445   7.146  2.2669  1.1214 -2.7511
   24CHL1   C17 1726   0.654   0.582   7.229  0.0934 -0.7173 -0.2056
   24CHL1   H17 1727   0.571   0.655   7.221  0.5754 -0.1465 -0.0530
   24CHL1   C13 1728   0.697   0.582   7.379  0.0733  0.0723 -0.8153
   24CHL1   C18 1729   0.825   0.491   7.391 -0.1132 -0.2197 -0.2095
   24CHL1  H18A 1730   0.917   0.529   7.340  1.0829 -1.3284  1.0311
   24CHL1  H18B 1731   0.853   0.479   7.498 -0.0632  1.0309 -0.0703
   24CHL1  H18C 1732   0.798   0.396   7.340 -2.3632  0.8598 -1.1626
   24CHL1   C12 1733   0.718   0.727   7.437  0.0665  0.8116 -0.0433
   24CHL1  H12A 1734   0.812   0.767   7.393 -0.1605  0.3063 -1.0135
   24CHL1  H12B 1735   0.628   0.790   7.418 -0.8431  0.2137  1.9705
   24CHL1   C11 1736   0.730   0.715   7.592  0.3655 -0.5003  0.0709
   24CHL1  H11A 1737   0.825   0.661   7.612  0.4263 -1.8438 -3.2028
   24CHL1  H11B 1738   0.745   0.815   7.638  1.0029 -0.1042 -0.9616
   24CHL1    C9 1739   0.612   0.646   7.655  0.0721  0.1938  0.2490
   24CHL1    H9 1740   0.520   0.704   7.631  0.1021 -0.6335 -2.0823
   24CHL1   C10 1741   0.608   0.651   7.814  0.0494 -0.2021  0.6207
   24CHL1   C19 1742   0.746   0.589   7.859 -0.5199  0.2698 -0.1513
   24CHL1  H19A 1743   0.754   0.574   7.969  0.8208 -0.9293 -0.3676
   24CHL1  H19B 1744   0.774   0.498   7.802 -0.1926  1.2494 -1.6091
   24CHL1  H19C 1745   0.827   0.663   7.837  0.1189  0.2346  1.8921
   24CHL1    C1 1746   0.579   0.798   7.863  0.3515 -0.0696 -0.4612
   24CHL1   H1A 1747   0.664   0.862   7.830  0.4005 -0.5352 -1.2496
   24CHL1   H1B 1748   0.490   0.833   7.807 -0.1888 -0.7947 -0.0821
   24CHL1    C2 1749   0.557   0.814   8.022 -0.1708  0.1770  0.4655
   24CHL1   H2A 1750   0.558   0.922   8.046  4.6608  0.3742  0.4017
   24CHL1   H2B 1751   0.647   0.771   8.071  0.0080  2.1155  1.9576
   24CHL1   C20 1752   0.766   0.616   7.122  0.5584  0.2200 -0.1733
   24CHL1   H20 1753   0.838   0.681   7.176  1.3408 -1.0192  0.3451
   24CHL1   C21 1754   0.695   0.698   7.010  0.0354 -0.0718 -0.1398
   24CHL1  H21A 1755   0.626   0.631   6.955 -1.4017  0.6301  0.7378
   24CHL1  H21B 1756   0.780   0.741   6.952  0.9091 -0.1605  1.0411
   24CHL1  H21C 1757   0.630   0.771   7.063 -1.3701 -0.4155 -1.3131
   24CHL1   C22 1758   0.844   0.499   7.059 -0.0020  0.0304 -0.6661
   24CHL1  H22A 1759   0.846   0.403   7.114  0.4755  0.6211  0.3887
   24CHL1  H22B 1760   0.790   0.469   6.967 -1.1934 -0.7742  0.2499
   24CHL1   C23 1761   0.983   0.544   7.000  0.5351  0.0654  0.2033
   24CHL1  H23A 1762   0.958   0.645   6.963 -1.3943  0.0544  1.3435
   24CHL1  H23B 1763   1.060   0.549   7.080  1.0999  1.7265 -0.4074
   24CHL1   C24 1764   1.021   0.447   6.891 -0.9776 -0.2487 -0.0732
   24CHL1  H24A 1765   1.034   0.339   6.914 -0.3026  0.1932  1.7765
   24CHL1  H24B 1766   0.932   0.437   6.825 -0.4574  0.1384 -0.8520
   24CHL1   C25 1767   1.138   0.511   6.812  0.3943 -0.1045  0.9092
   24CHL1   H25 1768   1.114   0.619   6.803  0.2031  0.1147  3.4956
   24CHL1   C26 1769   1.263   0.503   6.898  0.2030 -0.5100 -0.0556
   24CHL1  H26A 1770   1.352   0.468   6.840  2.0660 -1.0151  2.8971
   24CHL1  H26B 1771   1.281   0.610   6.923 -0.6116 -0.2701 -0.4433
   24CHL1  H26C 1772   1.257   0.439   6.988 -1.7223  2.6433  2.2579
   24CHL1   C27 1773   1.169   0.444   6.677 -0.5150 -0.1302 -0.3314
   24CHL1  H27A 1774   1.187   0.335   6.687  2.2439  0.2853  0.1940
   24CHL1  H27B 1775   1.084   0.459   6.607 -1.2634  5.1687  1.2932
   24CHL1  H27C 1776   1.257   0.488   6.626  1.6702 -1.6001  1.9204
   25CHL1    C3 1777   5.635   6.035   8.609  0.1630 -0.1693 -0.2480
   25CHL1    H3 1778   5.581   5.939   8.593  1.2587 -0.6335 -1.3737
   25CHL1    O3 1779   5.659   6.039   8.744 -0.3817  0.0874 -0.4036
   25CHL1   H3' 1780   5.575   6.013   8.784 -0.7156  2.6002  0.7559
   25CHL1    C4 1781   5.773   6.049   8.549 -0.1454  0.0895  0.8370
   25CHL1   H4A 1782   5.818   6.147   8.576  1.1742 -0.1543 -0.3764
   25CHL1   H4B 1783   5.841   5.966   8.576  0.4353  0.3465  0.1737
   25CHL1    C5 1784   5.760   6.058   8.400 -0.0098  0.4803 -0.2267
   25CHL1    C6 1785   5.821   5.960   8.328  0.0606  0.2415 -0.9335
   25CHL1    H6 1786   5.872   5.886   8.391 -1.0997 -0.4874 -0.8415
   25CHL1    C7 1787   5.809   5.942   8.183 -0.1123  0.5631  0.4272
   25CHL1   H7A 1788   5.906   5.926   8.133 -0.8284 -0.3450 -0.7188
   25CHL1   H7B 1789   5.746   5.851   8.170  0.5977  0.2583 -1.0172
   25CHL1    C8 1790   5.736   6.061   8.113  0.1204 -0.9541 -0.7809
   25CHL1    H8 1791   5.803   6.149   8.119 -1.2086 -0.0361  1.4077
   25CHL1   C14 1792   5.694   6.029   7.972  0.3142  0.1886  0.2217
   25CHL1   H14 1793   5.613   5.953   7.976  0.4313 -0.2472 -2.9449
   25CHL1   C15 1794   5.804   5.959   7.882  0.5775  0.5715  0.9852
   25CHL1  H15A 1795   5.895   6.022   7.893  1.6708 -0.7159 -0.3534
   25CHL1  H15B 1796   5.833   5.853   7.899 -0.2638  0.1855  0.1167
   25CHL1   C16 1797   5.752   5.983   7.743 -0.4593  0.7921  0.1434
   25CHL1  H16A 1798   5.828   6.028   7.676 -0.2698  1.4573  0.7917
   25CHL1  H16B 1799   5.726   5.884   7.700  1.4425  1.2062 -2.1608
   25CHL1   C17 1800   5.627   6.085   7.755  0.0996  0.5508  0.4802
   25CHL1   H17 1801   5.540   6.015   7.757  1.1964 -0.8426  0.5857
   25CHL1   C13 1802   5.631   6.144   7.897  0.4570 -0.0182 -0.4545
   25CHL1   C18 1803   5.724   6.270   7.885  0.1981 -0.0998 -0.8386
   25CHL1  H18A 1804   5.817   6.239   7.833  0.0795 -0.6264 -0.7426
   25CHL1  H18B 1805   5.674   6.348   7.824 -2.8113 -0.6540  0.7513
   25CHL1  H18C 1806   5.732   6.311   7.987 -0.6346  0.6008 -1.0509
   25CHL1   C12 1807   5.496   6.178   7.968 -0.6595  0.1710  0.4889
   25CHL1  H12A 1808   5.454   6.268   7.918  1.5288  1.6596  1.1544
   25CHL1  H12B 1809   5.429   6.091   7.957  1.4046 -1.2181 -1.9135
   25CHL1   C11 1810   5.525   6.208   8.115 -0.2408  0.9869  0.9149
   25CHL1  H11A 1811   5.567   6.310   8.118  0.2565  0.7816  0.9938
   25CHL1  H11B 1812   5.425   6.218   8.163 -0.4411  1.8649  0.3241
   25CHL1    C9 1813   5.612   6.101   8.191  0.1064  0.1738  0.0819
   25CHL1    H9 1814   5.549   6.010   8.200 -0.4066  0.6520  1.5293
   25CHL1   C10 1815   5.657   6.152   8.332 -0.4478  0.0160 -0.2068
   25CHL1   C19 1816   5.707   6.288   8.324 -0.1651  0.0309  0.5871
   25CHL1  H19A 1817   5.758   6.313   8.419 -0.6606  1.8097  0.4291
   25CHL1  H19B 1818   5.790   6.308   8.253  0.4894  0.5111  1.4849
   25CHL1  H19C 1819   5.633   6.370   8.314  2.2663  2.3513  0.5180
   25CHL1    C1 1820   5.525   6.150   8.411 -0.5339  0.6145 -0.2899
   25CHL1   H1A 1821   5.451   6.217   8.362 -0.7271 -1.0230 -2.3749
   25CHL1   H1B 1822   5.481   6.049   8.392 -2.1522  1.1481  0.4448
   25CHL1    C2 1823   5.549   6.162   8.566  0.1805 -0.6279  0.4434
   25CHL1   H2A 1824   5.457   6.163   8.628 -0.2100 -0.7603 -0.1181
   25CHL1   H2B 1825   5.600   6.258   8.587 -0.7537 -0.3465  1.5060
   25CHL1   C20 1826   5.594   6.171   7.625 -0.8923  0.6832 -0.2188
   25CHL1   H20 1827   5.683   6.225   7.587  0.1449 -0.8164  0.0024
   25CHL1   C21 1828   5.478   6.271   7.645 -0.1970  0.0434 -0.3817
   25CHL1  H21A 1829   5.504   6.350   7.718 -2.2100  1.0778 -0.7201
   25CHL1  H21B 1830   5.410   6.215   7.713  2.0839 -0.6197  1.4975
   25CHL1  H21C 1831   5.419   6.290   7.552  1.6640  2.3098 -1.1962
   25CHL1   C22 1832   5.554   6.075   7.512  0.2341  0.0687  0.4139
   25CHL1  H22A 1833   5.629   5.994   7.498  1.8471  1.3529  1.3538
   25CHL1  H22B 1834   5.462   6.016   7.533  1.1463 -2.5928 -2.2632
   25CHL1   C23 1835   5.553   6.150   7.376  0.3120 -0.1106  0.1224
   25CHL1  H23A 1836   5.487   6.240   7.380 -0.4545 -0.6724  3.5223
   25CHL1  H23B 1837   5.655   6.191   7.361  0.3864 -0.0949  0.6437
   25CHL1   C24 1838   5.518   6.060   7.253  0.1213 -0.6728  0.3515
   25CHL1  H24A 1839   5.597   5.987   7.228  1.8601  1.1005  0.3620
   25CHL1  H24B 1840   5.426   6.006   7.282 -2.4988  2.1049 -2.0485
   25CHL1   C25 1841   5.498   6.136   7.122  0.0182  0.2550  0.6442
   25CHL1   H25 1842   5.414   6.209   7.133 -1.4253 -1.3905  0.9096
   25CHL1   C26 1843   5.617   6.232   7.080  0.3966  0.1335 -0.1130
   25CHL1  H26A 1844   5.592   6.276   6.982 -0.6094  2.0944  0.9536
   25CHL1  H26B 1845   5.621   6.307   7.163 -0.5756 -1.9826  1.9747
   25CHL1  H26C 1846   5.719   6.192   7.061  0.2015 -0.4536  0.0605
   25CHL1   C27 1847   5.447   6.041   7.010  0.0402 -0.0099  0.1560
   25CHL1  H27A 1848   5.370   5.967   7.040 -0.0783 -0.3693 -0.9805
   25CHL1  H27B 1849   5.410   6.103   6.926  0.9637  1.6177  0.9145
   25CHL1  H27C 1850   5.533   5.982   6.970  0.8734  1.1386  0.2302
   26CHL1    C3 1851   1.719   3.003   8.401 -0.3298 -0.2967 -0.3076
   26CHL1    H3 1852   1.775   3.098   8.385  1.1058 -1.0546  0.0600
   26CHL1    O3 1853   1.669   3.014   8.537  0.1017 -0.0575  0.1974
   26CHL1   H3' 1854   1.589   2.961   8.529 -0.3391  0.7651 -1.1565
   26CHL1    C4 1855   1.596   2.996   8.310 -0.1504 -0.4684 -0.5005
   26CHL1   H4A 1856   1.527   2.913   8.335  0.2884 -0.6722  0.0596
   26CHL1   H4B 1857   1.529   3.081   8.336 -1.0127 -1.5435  0.9513
   26CHL1    C5 1858   1.634   2.992   8.165  0.1410  0.4148 -0.6446
   26CHL1    C6 1859   1.606   3.091   8.076  0.1326  0.5568 -0.9635
   26CHL1    H6 1860   1.553   3.184   8.102 -0.3923  0.1987 -0.7221
   26CHL1    C7 1861   1.665   3.090   7.935 -0.5081  0.2919 -0.4235
   26CHL1   H7A 1862   1.590   3.134   7.866 -2.6986  0.5428  1.9517
   26CHL1   H7B 1863   1.747   3.166   7.935 -1.8593  1.8553 -2.5454
   26CHL1    C8 1864   1.726   2.956   7.884  0.1973  0.1726  0.1362
   26CHL1    H8 1865   1.641   2.886   7.865  0.8881 -1.1983  1.7780
   26CHL1   C14 1866   1.812   2.974   7.758  0.9592  0.4034 -0.2241
   26CHL1   H14 1867   1.893   3.043   7.790  0.7373  0.6494 -0.1892
   26CHL1   C15 1868   1.745   3.044   7.642 -0.0207 -0.3068  0.4402
   26CHL1  H15A 1869   1.646   2.995   7.631 -0.7178  1.4345 -1.5238
   26CHL1  H15B 1870   1.735   3.153   7.663  0.3382 -0.3629  0.9264
   26CHL1   C16 1871   1.831   3.009   7.522 -0.5429 -0.1576 -0.6905
   26CHL1  H16A 1872   1.773   2.961   7.440 -0.3168 -1.3512 -0.1719
   26CHL1  H16B 1873   1.891   3.096   7.488  3.0531 -2.8262 -1.8309
   26CHL1   C17 1874   1.934   2.903   7.574  0.1604 -0.1402  0.0961
   26CHL1   H17 1875   2.023   2.959   7.610  0.4717 -1.6604  1.8528
   26CHL1   C13 1876   1.875   2.844   7.702  0.2498  0.5036 -0.2200
   26CHL1   C18 1877   1.766   2.740   7.655 -0.1073 -0.5033  0.2350
   26CHL1  H18A 1878   1.822   2.654   7.613 -2.2974 -0.6348 -2.7421
   26CHL1  H18B 1879   1.706   2.698   7.739  0.1197 -1.0755  0.1120
   26CHL1  H18C 1880   1.694   2.785   7.583  1.5075  2.1604  0.1502
   26CHL1   C12 1881   1.965   2.777   7.812 -0.2143  0.0544 -0.4304
   26CHL1  H12A 1882   1.991   2.678   7.769 -0.6894 -0.4490  0.4174
   26CHL1  H12B 1883   2.049   2.849   7.823 -0.8156  0.3913  2.9819
   26CHL1   C11 1884   1.888   2.759   7.938  0.5876  0.1012 -0.4212
   26CHL1  H11A 1885   1.815   2.677   7.924 -0.4476  1.2440 -2.1743
   26CHL1  H11B 1886   1.957   2.727   8.019  2.8282  2.6135 -1.1750
   26CHL1    C9 1887   1.803   2.885   7.989 -0.2427  0.5040 -0.9935
   26CHL1    H9 1888   1.881   2.961   8.010 -1.1960  0.9606  1.0989
   26CHL1   C10 1889   1.728   2.866   8.127  0.2963  0.4132  0.1006
   26CHL1   C19 1890   1.636   2.739   8.121 -0.6363  0.1974  0.3456
   26CHL1  H19A 1891   1.581   2.725   8.217 -1.1422  0.5908  0.1195
   26CHL1  H19B 1892   1.565   2.750   8.036  0.7209 -0.8374 -0.9639
   26CHL1  H19C 1893   1.690   2.645   8.100  0.2695  0.8179 -0.1769
   26CHL1    C1 1894   1.838   2.861   8.239 -0.2926  0.5053 -1.1489
   26CHL1   H1A 1895   1.889   2.764   8.225  0.4821  0.3692  1.9645
   26CHL1   H1B 1896   1.923   2.932   8.225 -0.4121  1.0850  0.7210
   26CHL1    C2 1897   1.798   2.877   8.385  0.1705  0.4312  0.3793
   26CHL1   H2A 1898   1.884   2.892   8.454 -0.2374  1.0867  0.7537
   26CHL1   H2B 1899   1.738   2.787   8.408 -1.1183  0.4716 -2.4467
   26CHL1   C20 1900   1.984   2.816   7.454 -0.7154 -0.1876 -0.1306
   26CHL1   H20 1901   1.899   2.753   7.420 -1.7926 -0.1315  2.2459
   26CHL1   C21 1902   2.096   2.717   7.502 -0.4320  0.2718 -0.9264
   26CHL1  H21A 1903   2.179   2.773   7.548 -1.1205  0.7124 -0.1895
   26CHL1  H21B 1904   2.137   2.665   7.412 -1.9245 -1.1120 -0.8643
   26CHL1  H21C 1905   2.049   2.645   7.572 -0.7671 -0.4001 -1.8149
   26CHL1   C22 1906   2.041   2.901   7.337 -1.1210  0.6669  0.2026
   26CHL1  H22A 1907   2.006   3.007   7.331  0.9332  1.3279 -2.3153
   26CHL1  H22B 1908   2.152   2.906   7.346 -0.9065  0.7041 -1.8061
   26CHL1   C23 1909   2.020   2.845   7.189 -0.7160 -0.0840 -0.0933
   26CHL1  H23A 1910   2.083   2.754   7.183  1.0107  0.8187  2.5268
   26CHL1  H23B 1911   1.915   2.820   7.163 -0.1085 -0.3052 -2.6864
   26CHL1   C24 1912   2.059   2.960   7.098  0.1015  0.2355  0.1786
   26CHL1  H24A 1913   2.035   3.063   7.132  3.2615  0.8802  0.8120
   26CHL1  H24B 1914   2.170   2.968   7.095  0.0486  1.2411 -2.9559
   26CHL1   C25 1915   2.021   2.934   6.951 -1.1669 -0.5045 -0.4716
   26CHL1   H25 1916   1.913   2.914   6.940 -1.4274 -0.2177  1.3232
   26CHL1   C26 1917   2.070   3.055   6.868  0.0235 -0.3773 -0.2784
   26CHL1  H26A 1918   2.023   3.149   6.903  0.6349 -0.1042 -0.1836
   26CHL1  H26B 1919   2.180   3.064   6.863 -0.0091  0.3673  0.1565
   26CHL1  H26C 1920   2.036   3.037   6.764 -1.3797 -2.3584  0.4518
   26CHL1   C27 1921   2.084   2.809   6.897 -0.4201 -0.2499 -0.9676
   26CHL1  H27A 1922   2.025   2.728   6.946 -3.0757  1.8860 -0.3642
   26CHL1  H27B 1923   2.069   2.781   6.791 -0.8706 -1.0100 -0.7177
   26CHL1  H27C 1924   2.191   2.797   6.925 -0.8076 -1.6333  0.0648
   27CHL1    C3 1925   6.398   0.001   8.540 -0.4400  0.7070  0.2707
   27CHL1    H3 1926   6.290  -0.025   8.545 -0.0631 -0.8882  0.6283
   27CHL1    O3 1927   6.449  -0.024   8.671 -0.4717 -0.3661 -0.3356
   27CHL1   H3' 1928   6.495   0.052   8.706 -0.6296 -0.8275  0.9145
   27CHL1    C4 1929   6.468  -0.096   8.441 -0.2483  0.1399 -0.3393
   27CHL1   H4A 1930   6.578  -0.083   8.447 -0.0743 -1.5913  1.0764
   27CHL1   H4B 1931   6.443  -0.201   8.469 -1.1672  0.8837  1.8609
   27CHL1    C5 1932   6.422  -0.075   8.297  0.0116 -0.3049  0.4074
   27CHL1    C6 1933   6.370  -0.172   8.224  0.3713 -0.4892 -0.6724
   27CHL1    H6 1934   6.348  -0.270   8.270 -1.2605  0.0671 -0.1954
   27CHL1    C7 1935   6.334  -0.163   8.079 -1.2814  0.1688 -0.1083
   27CHL1   H7A 1936   6.380  -0.254   8.036  1.5457  1.8543 -0.8596
   27CHL1   H7B 1937   6.227  -0.184   8.059 -0.8058 -1.9573 -0.6042
   27CHL1    C8 1938   6.389  -0.034   8.014 -0.3539 -0.0858  0.0102
   27CHL1    H8 1939   6.498  -0.054   8.005  0.3450  2.6456  1.0914
   27CHL1   C14 1940   6.338  -0.009   7.873 -0.1543 -0.0791  0.5406
   27CHL1   H14 1941   6.228  -0.014   7.881 -0.2255  1.1058  0.3926
   27CHL1   C15 1942   6.358  -0.120   7.771 -0.1638  0.5828 -0.1684
   27CHL1  H15A 1943   6.458  -0.168   7.779 -1.1385 -1.4140  0.6401
   27CHL1  H15B 1944   6.278  -0.196   7.785 -0.6782  1.5872  3.3024
   27CHL1   C16 1945   6.347  -0.037   7.629  0.4904  0.4501  0.8659
   27CHL1  H16A 1946   6.446  -0.053   7.582  1.1836 -1.9988  2.9322
   27CHL1  H16B 1947   6.277  -0.077   7.553  0.7560  1.4541  0.0823
   27CHL1   C17 1948   6.313   0.112   7.681 -0.0126  0.3883  0.7113
   27CHL1   H17 1949   6.207   0.116   7.716 -0.3182 -1.0580  0.0051
   27CHL1   C13 1950   6.381   0.124   7.816 -0.2553  0.5414  0.4504
   27CHL1   C18 1951   6.536   0.127   7.801 -0.3811 -0.0680  0.0154
   27CHL1  H18A 1952   6.557   0.038   7.738 -1.7495  1.1657 -2.3245
   27CHL1  H18B 1953   6.563   0.212   7.734 -0.6239 -0.1258 -0.1557
   27CHL1  H18C 1954   6.594   0.134   7.896 -1.1384  1.7544  0.3906
   27CHL1   C12 1955   6.335   0.244   7.898 -0.1329  0.4027  0.0491
   27CHL1  H12A 1956   6.376   0.341   7.863  2.4505 -0.1018  1.4347
   27CHL1  H12B 1957   6.224   0.238   7.907 -0.2408  0.8403 -0.8937
   27CHL1   C11 1958   6.390   0.230   8.040 -0.2337 -0.4286 -0.2761
   27CHL1  H11A 1959   6.499   0.251   8.036 -0.3566  0.2088 -0.2540
   27CHL1  H11B 1960   6.345   0.316   8.092 -1.3721 -1.7473  1.0198
   27CHL1    C9 1961   6.370   0.089   8.106  0.0962 -0.5368 -0.8252
   27CHL1    H9 1962   6.261   0.087   8.128  0.3218 -0.3000  0.3499
   27CHL1   C10 1963   6.439   0.071   8.241  0.2400 -0.1285  0.3422
   27CHL1   C19 1964   6.586   0.121   8.221  0.7121 -0.0334  0.6561
   27CHL1  H19A 1965   6.644   0.105   8.315  0.9423 -0.2902  0.4697
   27CHL1  H19B 1966   6.630   0.058   8.141  0.2801  0.2276  0.2081
   27CHL1  H19C 1967   6.595   0.229   8.196  0.1791 -0.1969 -0.2713
   27CHL1    C1 1968   6.368   0.165   8.347 -0.1090  0.6442  0.5883
   27CHL1   H1A 1969   6.395   0.268   8.317  4.0034 -0.9599 -2.0830
   27CHL1   H1B 1970   6.257   0.159   8.348 -0.0972  0.2904  1.6906
   27CHL1    C2 1971   6.413   0.150   8.493  0.1841 -0.0795  0.0733
   27CHL1   H2A 1972   6.360   0.225   8.554 -1.5487 -1.1665 -0.0464
   27CHL1   H2B 1973   6.521   0.177   8.501  0.3833 -1.0456  0.8051
   27CHL1   C20 1974   6.330   0.228   7.584 -0.5717  0.4568  0.3804
   27CHL1   H20 1975   6.372   0.318   7.634 -2.0154  2.8401 -2.3325
   27CHL1   C21 1976   6.198   0.276   7.527 -0.2304  0.8091  0.1141
   27CHL1  H21A 1977   6.153   0.197   7.464  3.7982 -0.2797 -1.7242
   27CHL1  H21B 1978   6.203   0.370   7.467 -0.9497  1.4456  1.0087
   27CHL1  H21C 1979   6.125   0.306   7.606 -3.4534  0.9029 -2.6692
   27CHL1   C22 1980   6.436   0.193   7.475  0.0061  0.3465 -0.1750
   27CHL1  H22A 1981   6.526   0.155   7.529 -0.4701 -2.4598 -1.2153
   27CHL1  H22B 1982   6.409   0.109   7.408  2.8203 -1.2558  0.5023
   27CHL1   C23 1983   6.482   0.312   7.382 -0.2449 -0.5388 -0.2073
   27CHL1  H23A 1984   6.554   0.279   7.305 -1.9732  1.2348 -2.7734
   27CHL1  H23B 1985   6.387   0.352   7.339  1.1468  2.8570 -0.4545
   27CHL1   C24 1986   6.562   0.426   7.462 -0.1462 -0.2560  0.3150
   27CHL1  H24A 1987   6.498   0.469   7.542 -1.1067  1.2532 -1.2250
   27CHL1  H24B 1988   6.656   0.381   7.502 -0.2525 -2.3757 -1.6068
   27CHL1   C25 1989   6.603   0.550   7.366 -0.5261 -0.1676 -0.7933
   27CHL1   H25 1990   6.659   0.518   7.276  0.7368  2.1066 -0.9057
   27CHL1   C26 1991   6.481   0.635   7.325  0.4904  0.1473  0.5596
   27CHL1  H26A 1992   6.394   0.575   7.289  0.9810  0.3193 -0.9761
   27CHL1  H26B 1993   6.446   0.694   7.413 -0.3951  0.8564 -0.2477
   27CHL1  H26C 1994   6.510   0.718   7.258 -1.3122  1.6978  1.6112
   27CHL1   C27 1995   6.702   0.640   7.449 -0.1082  0.0515  0.2461
   27CHL1  H27A 1996   6.799   0.589   7.472  0.7251  1.5110  0.1010
   27CHL1  H27B 1997   6.725   0.726   7.383 -2.1887 -0.1009 -0.7659
   27CHL1  H27C 1998   6.660   0.679   7.543  3.8006  0.9988  1.7856
   28CHL1    C3 1999   4.829   2.603   8.365  0.9124 -0.5132 -0.0609
   28CHL1    H3 2000   4.814   2.709   8.334  0.7671 -0.9163 -1.4636
   28CHL1    O3 2001   4.800   2.579   8.500 -0.6021 -0.1259 -0.2945
   28CHL1   H3' 2002   4.708   2.600   8.518 -0.1457  1.5275  0.2792
   28CHL1    C4 2003   4.729   2.529   8.270  0.2797 -0.1522  0.2575
   28CHL1   H4A 2004   4.720   2.420   8.288 -0.8832  0.0046  0.6692
   28CHL1   H4B 2005   4.627   2.566   8.292 -0.7681 -2.3563 -0.6386
   28CHL1    C5 2006   4.750   2.545   8.124 -0.2127 -0.4972 -0.1904
   28CHL1    C6 2007   4.655   2.585   8.041  0.5316  0.4662 -0.3621
   28CHL1    H6 2008   4.550   2.602   8.066  0.0653 -0.2765 -1.7271
   28CHL1    C7 2009   4.691   2.601   7.893 -0.0235  1.0830  0.8480
   28CHL1   H7A 2010   4.613   2.546   7.836  0.6045 -0.7379  1.6721
   28CHL1   H7B 2011   4.685   2.709   7.870 -2.2125  0.9708  0.6574
   28CHL1    C8 2012   4.831   2.544   7.848  0.2336 -0.2757 -0.3970
   28CHL1    H8 2013   4.825   2.433   7.848 -0.6903 -0.3592  3.2441
   28CHL1   C14 2014   4.856   2.598   7.714 -0.2104 -0.3566  0.6470
   28CHL1   H14 2015   4.871   2.706   7.735  0.0853 -0.2901  0.1053
   28CHL1   C15 2016   4.750   2.579   7.603  0.7254  0.3189 -0.0823
   28CHL1  H15A 2017   4.712   2.475   7.610  2.6336 -0.4438 -0.2474
   28CHL1  H15B 2018   4.662   2.646   7.610  0.1263 -0.5913  3.4131
   28CHL1   C16 2019   4.831   2.585   7.472  0.7236 -0.5545  0.3682
   28CHL1  H16A 2020   4.823   2.488   7.419 -1.1068 -0.8769  1.1726
   28CHL1  H16B 2021   4.791   2.665   7.405 -1.6326 -1.3436  0.7367
   28CHL1   C17 2022   4.983   2.604   7.518  0.4627  0.5922 -0.2383
   28CHL1   H17 2023   4.986   2.713   7.538 -2.7420  1.4488 -3.4072
   28CHL1   C13 2024   4.989   2.545   7.656  0.3008 -0.2396 -0.0579
   28CHL1   C18 2025   4.998   2.386   7.641 -0.2335 -0.5016 -0.5177
   28CHL1  H18A 2026   5.105   2.360   7.625  0.0358  1.6971 -2.8862
   28CHL1  H18B 2027   4.961   2.338   7.734  0.7663 -2.2198 -0.9704
   28CHL1  H18C 2028   4.946   2.354   7.548 -0.9997 -1.1101  0.0942
   28CHL1   C12 2029   5.101   2.594   7.752 -0.8554  0.5564  0.2044
   28CHL1  H12A 2030   5.190   2.540   7.713 -0.4985  0.4552  1.1349
   28CHL1  H12B 2031   5.115   2.703   7.737  3.0628 -0.1594 -2.9612
   28CHL1   C11 2032   5.075   2.548   7.901  1.0859 -0.8501  0.0836
   28CHL1  H11A 2033   5.086   2.438   7.905  0.5118 -0.9888 -1.4858
   28CHL1  H11B 2034   5.150   2.605   7.960  1.1500  0.2575 -1.0283
   28CHL1    C9 2035   4.933   2.580   7.945 -0.4389 -0.4196  0.2490
   28CHL1    H9 2036   4.932   2.691   7.953  1.9795 -0.4156  2.0602
   28CHL1   C10 2037   4.893   2.522   8.089 -0.3507 -0.3378 -0.2465
   28CHL1   C19 2038   4.916   2.370   8.099 -0.1830  0.1619 -0.1132
   28CHL1  H19A 2039   5.022   2.346   8.075  0.0826  1.8916 -0.8628
   28CHL1  H19B 2040   4.903   2.331   8.203 -1.6981  0.8769 -0.0153
   28CHL1  H19C 2041   4.847   2.309   8.038 -0.4331  2.1985 -2.0024
   28CHL1    C1 2042   5.000   2.584   8.183 -0.1496  0.6701  0.0449
   28CHL1   H1A 2043   5.100   2.540   8.165 -0.1441  0.6673  0.0808
   28CHL1   H1B 2044   5.008   2.692   8.159  0.7551  0.1755 -2.0449
   28CHL1    C2 2045   4.974   2.565   8.333 -0.2040  0.2885  0.2487
   28CHL1   H2A 2046   5.051   2.631   8.377  1.6825 -2.8266  2.0200
   28CHL1   H2B 2047   4.995   2.466   8.379 -0.6123 -1.1586 -2.4708
   28CHL1   C20 2048   5.097   2.560   7.422  0.5447  0.0609 -0.6581
   28CHL1   H20 2049   5.160   2.484   7.473 -0.4583  0.2910  0.9850
   28CHL1   C21 2050   5.198   2.672   7.413 -0.8177 -0.1705  0.1245
   28CHL1  H21A 2051   5.284   2.645   7.349 -0.7206  1.6002 -0.5430
   28CHL1  H21B 2052   5.219   2.701   7.518  0.1394  0.0525 -0.1244
   28CHL1  H21C 2053   5.153   2.767   7.375  3.4918  1.8050 -0.5824
   28CHL1   C22 2054   5.053   2.509   7.282 -0.4071 -0.0232  0.6934
   28CHL1  H22A 2055   4.969   2.437   7.289 -0.6453 -0.2265 -2.5932
   28CHL1  H22B 2056   5.007   2.597   7.231 -1.8646 -0.2540  1.5426
   28CHL1   C23 2057   5.169   2.458   7.190 -0.1741 -0.6142 -0.1355
   28CHL1  H23A 2058   5.259   2.521   7.175 -0.7699  0.5919  1.2013
   28CHL1  H23B 2059   5.211   2.365   7.235  3.9575  0.7421 -0.7670
   28CHL1   C24 2060   5.101   2.427   7.052 -0.3861 -0.5088  0.6451
   28CHL1  H24A 2061   5.005   2.375   7.075 -0.7103 -0.7688 -1.1768
   28CHL1  H24B 2062   5.080   2.527   7.009 -2.2006 -0.3094  1.8591
   28CHL1   C25 2063   5.194   2.354   6.954  0.1038 -0.8744 -0.2365
   28CHL1   H25 2064   5.296   2.391   6.978 -0.9314  0.3093  2.8594
   28CHL1   C26 2065   5.181   2.201   6.958 -0.0122 -0.5937  0.0550
   28CHL1  H26A 2066   5.191   2.154   7.058 -1.1679 -1.8171 -0.3807
   28CHL1  H26B 2067   5.073   2.186   6.937 -0.0538 -1.0872  0.6123
   28CHL1  H26C 2068   5.253   2.154   6.888  1.6678  1.8510 -0.0238
   28CHL1   C27 2069   5.173   2.395   6.811 -0.0117 -0.6369  0.5824
   28CHL1  H27A 2070   5.070   2.375   6.776 -0.6313  4.0344 -1.0070
   28CHL1  H27B 2071   5.178   2.505   6.793 -3.0137 -0.9372 -3.5345
   28CHL1  H27C 2072   5.248   2.355   6.740  1.0530  3.5825 -0.9637
   29CHL1    C3 2073   5.819   2.087   5.561 -0.2058 -0.7942 -0.2396
   29CHL1    H3 2074   5.715   2.104   5.527 -0.3883 -1.8502 -0.2689
   29CHL1    O3 2075   5.883   2.008   5.460  0.3093 -0.4465  0.0024
   29CHL1   H3' 2076   5.949   1.962   5.512  1.1888 -0.2815 -0.9302
   29CHL1    C4 2077   5.898   2.207   5.599  0.6458  0.4028  0.7981
   29CHL1   H4A 2078   5.995   2.166   5.636 -0.3738 -1.7189  1.3057
   29CHL1   H4B 2079   5.920   2.256   5.502 -0.7369 -0.2985  0.1011
   29CHL1    C5 2080   5.833   2.277   5.715  0.2612 -0.2384 -0.3344
   29CHL1    C6 2081   5.796   2.406   5.706  0.0275  0.5415  0.1664
   29CHL1    H6 2082   5.808   2.457   5.609 -2.6972  1.2373  0.1174
   29CHL1    C7 2083   5.734   2.484   5.816 -0.5100  0.3488  0.8400
   29CHL1   H7A 2084   5.777   2.586   5.824 -2.6249  1.4149 -0.4738
   29CHL1   H7B 2085   5.628   2.498   5.786 -0.5351  1.8707  1.5328
   29CHL1    C8 2086   5.742   2.419   5.958  0.3983  0.9952 -0.1589
   29CHL1    H8 2087   5.843   2.442   5.998 -0.1416  2.9851  0.1756
   29CHL1   C14 2088   5.637   2.471   6.049 -0.0597  0.1653 -0.7341
   29CHL1   H14 2089   5.538   2.440   6.010 -0.3015 -0.4583  0.3382
   29CHL1   C15 2090   5.615   2.618   6.058  0.2099 -0.5738 -0.1465
   29CHL1  H15A 2091   5.712   2.669   6.079 -0.2578  0.3267 -0.1257
   29CHL1  H15B 2092   5.570   2.654   5.963  2.0082 -0.4732 -1.0209
   29CHL1   C16 2093   5.528   2.632   6.187  0.3178  0.3897  0.7093
   29CHL1  H16A 2094   5.581   2.695   6.262  2.3052 -1.1905  0.7145
   29CHL1  H16B 2095   5.423   2.667   6.174 -0.0522 -1.1770 -0.9008
   29CHL1   C17 2096   5.512   2.488   6.244 -0.1391 -0.0589  0.5482
   29CHL1   H17 2097   5.424   2.453   6.186  0.2472 -0.5220  0.2397
   29CHL1   C13 2098   5.631   2.415   6.196 -0.2743 -0.0405  0.2745
   29CHL1   C18 2099   5.761   2.457   6.274  0.5391 -0.4202 -0.4700
   29CHL1  H18A 2100   5.851   2.398   6.246  1.4167  1.4208 -1.7848
   29CHL1  H18B 2101   5.779   2.565   6.255  0.1695 -0.3301 -0.3133
   29CHL1  H18C 2102   5.739   2.443   6.382  0.6541 -2.3842 -0.6635
   29CHL1   C12 2103   5.621   2.264   6.192 -0.2659 -0.0673 -0.7121
   29CHL1  H12A 2104   5.647   2.238   6.297  0.7259  4.3355  0.3408
   29CHL1  H12B 2105   5.519   2.228   6.169 -0.9073  0.8956  0.4957
   29CHL1   C11 2106   5.720   2.205   6.093 -0.1791  0.6654 -0.0052
   29CHL1  H11A 2107   5.822   2.207   6.136  0.3987  0.7454 -1.3496
   29CHL1  H11B 2108   5.698   2.097   6.079  1.4439  0.4570 -1.1389
   29CHL1    C9 2109   5.724   2.261   5.950  0.0229 -0.7876  0.6016
   29CHL1    H9 2110   5.619   2.252   5.916 -0.4999  1.2325  1.5633
   29CHL1   C10 2111   5.817   2.187   5.843  0.2022 -0.0518  0.3978
   29CHL1   C19 2112   5.954   2.161   5.907 -0.7514 -0.6855 -0.3826
   29CHL1  H19A 2113   6.000   2.245   5.963 -0.0346 -0.6877 -0.9504
   29CHL1  H19B 2114   5.950   2.077   5.980  1.2449 -2.0292 -1.7188
   29CHL1  H19C 2115   6.031   2.141   5.829  1.4388  3.5268  0.4168
   29CHL1    C1 2116   5.743   2.053   5.799  0.0980  0.0214 -0.6126
   29CHL1   H1A 2117   5.741   1.980   5.883  0.5917  0.9087  0.1847
   29CHL1   H1B 2118   5.642   2.084   5.766 -0.1340 -0.7215 -0.6269
   29CHL1    C2 2119   5.808   1.987   5.682 -0.4088 -0.4171 -0.1312
   29CHL1   H2A 2120   5.752   1.899   5.644 -0.2371  0.1688 -1.8202
   29CHL1   H2B 2121   5.906   1.952   5.722 -0.8084 -0.6725  0.6289
   29CHL1   C20 2122   5.481   2.472   6.393  0.1740 -0.1840  0.2268
   29CHL1   H20 2123   5.522   2.372   6.418 -1.9209 -1.1110  0.1308
   29CHL1   C21 2124   5.328   2.470   6.400  0.5641 -0.3208  0.4526
   29CHL1  H21A 2125   5.301   2.456   6.507 -0.5586 -1.6284  0.0223
   29CHL1  H21B 2126   5.283   2.392   6.335  0.0531  1.2229 -1.1229
   29CHL1  H21C 2127   5.291   2.571   6.372  1.4003 -0.1988 -0.2710
   29CHL1   C22 2128   5.535   2.575   6.487  0.4072 -0.0270  0.3371
   29CHL1  H22A 2129   5.645   2.591   6.478  0.5327 -1.6161 -1.8251
   29CHL1  H22B 2130   5.497   2.678   6.469 -1.0935 -0.1896  2.2577
   29CHL1   C23 2131   5.507   2.551   6.639 -0.0225  0.0259  0.8415
   29CHL1  H23A 2132   5.397   2.544   6.651  0.0099 -3.2381  0.1176
   29CHL1  H23B 2133   5.538   2.446   6.660 -1.1359 -0.2920  0.9716
   29CHL1   C24 2134   5.546   2.670   6.730  0.0918  0.4635  0.0975
   29CHL1  H24A 2135   5.655   2.692   6.727  0.2844 -0.4038  0.3366
   29CHL1  H24B 2136   5.493   2.762   6.699 -2.8744 -1.9492 -2.6877
   29CHL1   C25 2137   5.502   2.652   6.879  0.8628  0.5759 -0.7638
   29CHL1   H25 2138   5.396   2.617   6.882  1.0425  0.0485 -0.4607
   29CHL1   C26 2139   5.563   2.529   6.943 -0.2375  0.9610 -0.4106
   29CHL1  H26A 2140   5.674   2.525   6.947 -0.2788 -0.2035 -0.0781
   29CHL1  H26B 2141   5.516   2.512   7.042 -2.5295  0.4409 -1.5219
   29CHL1  H26C 2142   5.523   2.438   6.894 -1.6083  0.5558  1.3568
   29CHL1   C27 2143   5.532   2.780   6.965 -0.4992  0.2960  1.0210
   29CHL1  H27A 2144   5.534   2.755   7.074 -0.7105 -1.0337  0.7322
   29CHL1  H27B 2145   5.638   2.801   6.940 -0.0935 -1.0449  1.5297
   29CHL1  H27C 2146   5.459   2.857   6.933 -0.0319 -0.0188 -0.8754
   30CHL1    C3 2147   2.360   4.583   5.298 -0.1910  0.1296 -0.2600
   30CHL1    H3 2148   2.273   4.519   5.324  0.4264 -0.2265  1.0194
   30CHL1    O3 2149   2.367   4.575   5.157  0.0847  1.0586  0.0914
   30CHL1   H3' 2150   2.416   4.495   5.135 -3.0455 -1.2785  0.8518
   30CHL1    C4 2151   2.321   4.729   5.332  0.2355  0.1560 -0.3809
   30CHL1   H4A 2152   2.392   4.796   5.279 -0.8571  2.1471  0.5482
   30CHL1   H4B 2153   2.227   4.757   5.281 -0.6500  0.3264  1.2755
   30CHL1    C5 2154   2.327   4.760   5.484  0.3020  0.2589  1.4365
   30CHL1    C6 2155   2.220   4.810   5.548  0.3267  0.2775 -0.5780
   30CHL1    H6 2156   2.138   4.838   5.481 -0.5493 -2.2403 -0.6271
   30CHL1    C7 2157   2.225   4.853   5.692 -0.3840  0.2041 -0.2754
   30CHL1   H7A 2158   2.180   4.954   5.707  3.0294  1.6404  1.3277
   30CHL1   H7B 2159   2.184   4.779   5.764 -1.8793  0.6486 -0.6369
   30CHL1    C8 2160   2.376   4.872   5.735 -0.4124 -0.9842  0.4258
   30CHL1    H8 2161   2.393   4.968   5.680 -0.1724 -1.4293 -0.2999
   30CHL1   C14 2162   2.378   4.900   5.883  0.2763 -0.2087  0.5572
   30CHL1   H14 2163   2.339   4.804   5.924  0.1131 -0.7531 -0.8338
   30CHL1   C15 2164   2.285   5.003   5.934 -0.4939 -0.0119 -0.1907
   30CHL1  H15A 2165   2.314   5.099   5.887  0.7877 -1.2664 -2.1196
   30CHL1  H15B 2166   2.175   4.994   5.918 -0.6166  0.1368  0.5643
   30CHL1   C16 2167   2.323   5.029   6.082  0.4310 -0.1928  0.0176
   30CHL1  H16A 2168   2.337   5.138   6.092  1.3185 -0.2099 -0.9346
   30CHL1  H16B 2169   2.253   4.981   6.153 -0.6683  0.8240 -0.3503
   30CHL1   C17 2170   2.468   4.954   6.093  0.2603  0.4330 -0.1154
   30CHL1   H17 2171   2.440   4.853   6.127  4.0961 -1.9292 -3.1073
   30CHL1   C13 2172   2.510   4.926   5.941 -0.1250 -0.8620  0.4883
   30CHL1   C18 2173   2.585   5.045   5.889  0.2089 -0.1926 -0.2287
   30CHL1  H18A 2174   2.540   5.142   5.916 -0.3365 -0.6009  0.3670
   30CHL1  H18B 2175   2.685   5.049   5.938 -1.2934 -1.2906  3.2348
   30CHL1  H18C 2176   2.601   5.050   5.779 -2.4565  0.7256 -0.6365
   30CHL1   C12 2177   2.592   4.796   5.913  0.7641  0.2445  0.0518
   30CHL1  H12A 2178   2.691   4.814   5.961  0.2817  2.5175  0.2894
   30CHL1  H12B 2179   2.532   4.714   5.957 -1.5590  2.5791  1.5292
   30CHL1   C11 2180   2.604   4.771   5.760  0.0748 -0.4558  0.2036
   30CHL1  H11A 2181   2.658   4.855   5.710  0.7979 -1.2862 -0.4421
   30CHL1  H11B 2182   2.661   4.681   5.728  1.1130  0.7331 -1.4912
   30CHL1    C9 2183   2.467   4.757   5.699 -0.1974  0.1612  0.2007
   30CHL1    H9 2184   2.423   4.669   5.750 -0.5080  0.3670  0.2941
   30CHL1   C10 2185   2.460   4.726   5.544  0.1778 -0.1417 -0.2987
   30CHL1   C19 2186   2.567   4.813   5.477  0.0546 -0.5751  0.2705
   30CHL1  H19A 2187   2.666   4.785   5.519  0.2135  0.9430  0.9767
   30CHL1  H19B 2188   2.567   4.821   5.366  2.7792 -0.3258  0.2391
   30CHL1  H19C 2189   2.543   4.916   5.510  2.4471  0.2811 -0.4960
   30CHL1    C1 2190   2.490   4.575   5.521 -0.1511 -0.4985 -0.2620
   30CHL1   H1A 2191   2.592   4.551   5.558  0.2892  1.3274 -0.2227
   30CHL1   H1B 2192   2.417   4.509   5.573 -1.5020 -0.2788 -1.7976
   30CHL1    C2 2193   2.495   4.536   5.370  0.2781  0.5034 -0.2964
   30CHL1   H2A 2194   2.509   4.429   5.342  0.8039  0.7801 -1.1316
   30CHL1   H2B 2195   2.570   4.601   5.320 -0.0916  0.8909 -0.3462
   30CHL1   C20 2196   2.553   5.020   6.196 -0.1344 -0.0277 -0.2920
   30CHL1   H20 2197   2.577   5.122   6.158 -2.4327 -0.4289 -3.2024
   30CHL1   C21 2198   2.688   4.938   6.207 -0.1051 -0.2712  0.5683
   30CHL1  H21A 2199   2.753   4.940   6.117 -0.7470  0.3131  0.1126
   30CHL1  H21B 2200   2.671   4.830   6.227  1.7432 -0.5807  0.6815
   30CHL1  H21C 2201   2.752   4.977   6.290 -0.1174  1.9873 -0.3871
   30CHL1   C22 2202   2.478   5.041   6.334 -0.1749 -0.2647  0.9231
   30CHL1  H22A 2203   2.552   5.083   6.405  0.2790  1.7183 -0.6493
   30CHL1  H22B 2204   2.408   5.125   6.313  0.6747  0.2531  0.0818
   30CHL1   C23 2205   2.408   4.919   6.386  0.2119  0.1209 -0.4028
   30CHL1  H23A 2206   2.304   4.899   6.352 -0.3276  0.5981  0.8898
   30CHL1  H23B 2207   2.470   4.830   6.361 -0.9367 -0.0917 -2.6896
   30CHL1   C24 2208   2.396   4.919   6.535  0.7060 -0.0934 -0.2083
   30CHL1  H24A 2209   2.348   4.821   6.555  1.6167 -0.6851 -0.8532
   30CHL1  H24B 2210   2.500   4.915   6.575  1.4886  0.7375 -2.0053
   30CHL1   C25 2211   2.329   5.041   6.592  1.1658 -0.1549  0.2223
   30CHL1   H25 2212   2.381   5.132   6.557  0.0603 -0.3965 -2.2273
   30CHL1   C26 2213   2.180   5.053   6.540 -0.8333  0.3493  0.2562
   30CHL1  H26A 2214   2.187   5.071   6.431  2.4990  0.7179  0.4129
   30CHL1  H26B 2215   2.114   4.966   6.560  2.5337 -2.5373 -0.0740
   30CHL1  H26C 2216   2.134   5.141   6.589 -1.0354  0.5535 -0.2948
   30CHL1   C27 2217   2.344   5.036   6.742 -0.2265 -0.2731  0.0457
   30CHL1  H27A 2218   2.271   5.103   6.793 -0.2486 -1.4557  1.6307
   30CHL1  H27B 2219   2.321   4.935   6.781 -0.4433  0.2068  1.1879
   30CHL1  H27C 2220   2.448   5.066   6.769 -0.1998  0.0708 -0.4163
   31CHL1    C3 2221   0.746   5.004   5.261 -0.5218 -0.3829  0.3271
   31CHL1    H3 2222   0.720   4.898   5.279 -1.1403 -0.5064 -1.1678
   31CHL1    O3 2223   0.759   5.033   5.128  0.2420  0.0668  0.4752
   31CHL1   H3' 2224   0.670   5.021   5.097  1.1576 -0.4261 -2.2164
   31CHL1    C4 2225   0.628   5.090   5.316 -0.4482  0.1788  0.0407
   31CHL1   H4A 2226   0.644   5.195   5.282  0.3216  0.0726  0.0697
   31CHL1   H4B 2227   0.540   5.055   5.259 -0.7842 -0.8304  1.1331
   31CHL1    C5 2228   0.608   5.089   5.467  0.5502 -0.2980  1.0155
   31CHL1    C6 2229   0.500   5.036   5.525  0.3292  0.1327  0.0502
   31CHL1    H6 2230   0.422   5.003   5.455 -0.5140  2.6246 -0.2875
   31CHL1    C7 2231   0.467   5.049   5.669  0.3620 -0.0228 -0.4883
   31CHL1   H7A 2232   0.366   5.090   5.688  0.0598 -1.8394  2.5967
   31CHL1   H7B 2233   0.469   4.946   5.712  0.0830 -1.3301 -3.3623
   31CHL1    C8 2234   0.562   5.146   5.736  0.9078 -0.0452 -0.2005
   31CHL1    H8 2235   0.531   5.249   5.708 -0.4705 -0.5584 -0.6418
   31CHL1   C14 2236   0.544   5.137   5.882 -0.1395  0.8226 -0.1237
   31CHL1   H14 2237   0.576   5.031   5.894 -0.8637  0.3930 -1.6843
   31CHL1   C15 2238   0.402   5.141   5.946  0.4272 -0.6211  0.3428
   31CHL1  H15A 2239   0.350   5.235   5.917  1.1384 -0.7162 -1.3572
   31CHL1  H15B 2240   0.340   5.049   5.945  0.1500 -0.4823 -1.9527
   31CHL1   C16 2241   0.433   5.156   6.091 -0.8127  0.8890  0.5448
   31CHL1  H16A 2242   0.369   5.242   6.120 -0.2637  1.7886 -0.7942
   31CHL1  H16B 2243   0.406   5.059   6.138  0.9267 -0.5362 -1.2022
   31CHL1   C17 2244   0.588   5.182   6.103  0.3015 -0.4269 -1.1489
   31CHL1   H17 2245   0.647   5.088   6.113  3.9777  1.8126  0.2718
   31CHL1   C13 2246   0.630   5.233   5.962  0.2122 -0.0829  0.2157
   31CHL1   C18 2247   0.596   5.382   5.949  0.2291 -0.2396 -0.1852
   31CHL1  H18A 2248   0.490   5.410   5.969  1.5725  3.3758  3.1104
   31CHL1  H18B 2249   0.659   5.437   6.022 -0.5961  0.1412  0.2537
   31CHL1  H18C 2250   0.615   5.426   5.849 -1.4983  1.1635  0.0465
   31CHL1   C12 2251   0.773   5.208   5.929 -0.1333  0.2319 -0.2439
   31CHL1  H12A 2252   0.836   5.290   5.971 -0.4899  0.7852 -0.7694
   31CHL1  H12B 2253   0.820   5.111   5.956  1.3718  0.6590 -1.1929
   31CHL1   C11 2254   0.805   5.219   5.783  0.3616  0.2428  0.5420
   31CHL1  H11A 2255   0.808   5.326   5.753 -1.2372  0.0204 -0.4962
   31CHL1  H11B 2256   0.903   5.170   5.768 -0.6863 -1.2624 -1.8294
   31CHL1    C9 2257   0.710   5.136   5.692 -0.6152  0.2853  0.3982
   31CHL1    H9 2258   0.737   5.031   5.717  1.3751  0.6980  0.1976
   31CHL1   C10 2259   0.734   5.146   5.533  0.3052 -0.7801  0.2421
   31CHL1   C19 2260   0.756   5.299   5.495 -0.5681  0.0606 -0.0034
   31CHL1  H19A 2261   0.848   5.337   5.544  0.0562 -1.4324  0.0203
   31CHL1  H19B 2262   0.774   5.305   5.385  1.6637 -2.5222  0.1138
   31CHL1  H19C 2263   0.670   5.360   5.530  0.6137  2.1322 -0.4941
   31CHL1    C1 2264   0.855   5.065   5.486  0.5526 -0.1745 -0.0572
   31CHL1   H1A 2265   0.953   5.102   5.524 -0.6627  3.6641 -0.1877
   31CHL1   H1B 2266   0.837   4.967   5.534  0.0154 -1.4804 -2.7064
   31CHL1    C2 2267   0.873   5.043   5.332  0.1777 -0.8059 -0.4180
   31CHL1   H2A 2268   0.954   4.969   5.315  1.0934 -0.9041  3.3409
   31CHL1   H2B 2269   0.910   5.140   5.293 -0.5439 -1.0991 -1.8961
   31CHL1   C20 2270   0.615   5.268   6.224  0.5146 -0.2462 -0.0380
   31CHL1   H20 2271   0.579   5.370   6.199 -2.7085 -0.4568  2.8540
   31CHL1   C21 2272   0.768   5.270   6.254  0.0438 -0.0355 -0.3353
   31CHL1  H21A 2273   0.811   5.168   6.259  0.3150  0.1007  0.1676
   31CHL1  H21B 2274   0.798   5.314   6.352  0.0802  0.5993 -0.6215
   31CHL1  H21C 2275   0.822   5.324   6.173 -1.9258 -1.9986 -3.1327
   31CHL1   C22 2276   0.539   5.225   6.356  0.1449  0.0530 -0.2826
   31CHL1  H22A 2277   0.435   5.209   6.323  0.6902 -0.1768 -2.0008
   31CHL1  H22B 2278   0.582   5.132   6.400 -0.2513  0.1570  0.3352
   31CHL1   C23 2279   0.538   5.343   6.461  0.0043  0.3048 -0.4134
   31CHL1  H23A 2280   0.644   5.340   6.495 -0.2548 -0.3523  0.3810
   31CHL1  H23B 2281   0.509   5.438   6.412  1.4396  0.9209 -0.1233
   31CHL1   C24 2282   0.442   5.313   6.580 -0.0837 -0.0745  0.4555
   31CHL1  H24A 2283   0.340   5.298   6.538  0.3246  1.0178 -0.9970
   31CHL1  H24B 2284   0.478   5.220   6.630 -0.0360 -0.7641 -0.8203
   31CHL1   C25 2285   0.443   5.414   6.698 -0.5399  0.0370 -0.5883
   31CHL1   H25 2286   0.544   5.430   6.742 -1.1072 -0.0175  0.7871
   31CHL1   C26 2287   0.394   5.541   6.645 -0.5485  0.0550  0.0552
   31CHL1  H26A 2288   0.389   5.619   6.724  2.3212  1.1894 -0.7492
   31CHL1  H26B 2289   0.465   5.581   6.569 -1.2862  2.1698  0.4202
   31CHL1  H26C 2290   0.297   5.526   6.592 -1.0870 -0.5748  1.1810
   31CHL1   C27 2291   0.333   5.370   6.800  0.2489 -0.1036 -0.1107
   31CHL1  H27A 2292   0.336   5.272   6.853 -1.4452  0.6270  1.4354
   31CHL1  H27B 2293   0.330   5.449   6.879  0.5454 -0.1788 -0.0229
   31CHL1  H27C 2294   0.236   5.382   6.748  0.6924 -2.2554 -1.5670
   32CHL1    C3 2295   0.219   3.791   5.066  0.1828  0.4147 -0.0111
   32CHL1    H3 2296   0.323   3.815   5.097  0.7041 -2.6628  0.9980
   32CHL1    O3 2297   0.208   3.741   4.937  0.0059  0.8006 -0.3602
   32CHL1   H3' 2298   0.202   3.821   4.884 -1.2687  0.9776  0.0022
   32CHL1    C4 2299   0.160   3.682   5.157  0.0051  0.5475 -0.3769
   32CHL1   H4A 2300   0.061   3.660   5.112  1.5582 -0.9694 -3.3408
   32CHL1   H4B 2301   0.212   3.588   5.128 -0.6598  0.0804 -0.0745
   32CHL1    C5 2302   0.149   3.705   5.307  0.8983  0.0218 -0.4660
   32CHL1    C6 2303   0.198   3.624   5.399  0.1326  0.1310  0.1298
   32CHL1    H6 2304   0.231   3.526   5.364 -3.3985 -1.3984  0.6284
   32CHL1    C7 2305   0.190   3.645   5.550 -0.4839  0.4711  1.2061
   32CHL1   H7A 2306   0.132   3.559   5.591 -4.0395  2.0746 -0.0853
   32CHL1   H7B 2307   0.293   3.655   5.590  0.4540 -0.0820 -0.9515
   32CHL1    C8 2308   0.105   3.758   5.590  0.2967 -0.5298 -0.1273
   32CHL1    H8 2309  -0.003   3.730   5.596 -0.2843  1.1683 -1.5726
   32CHL1   C14 2310   0.152   3.811   5.734  0.1046 -0.1483  0.3840
   32CHL1   H14 2311   0.255   3.851   5.723  1.0505 -2.4783  0.3738
   32CHL1   C15 2312   0.177   3.709   5.843  0.0332  1.6633 -0.5121
   32CHL1  H15A 2313   0.089   3.642   5.843 -1.0374  3.0383 -0.6618
   32CHL1  H15B 2314   0.266   3.647   5.819 -0.2362  1.0368  0.1033
   32CHL1   C16 2315   0.177   3.788   5.970  0.1214 -0.5923 -0.1845
   32CHL1  H16A 2316   0.098   3.735   6.027 -2.5552  1.9315 -1.3293
   32CHL1  H16B 2317   0.268   3.783   6.035 -1.8428 -1.0604  2.7132
   32CHL1   C17 2318   0.125   3.937   5.936  0.1999 -0.0806  0.2001
   32CHL1   H17 2319   0.218   3.998   5.926  1.1118 -1.6532 -1.5989
   32CHL1   C13 2320   0.059   3.927   5.794  1.0154  0.3531 -0.3518
   32CHL1   C18 2321  -0.087   3.885   5.815  0.2135  0.5302  0.0989
   32CHL1  H18A 2322  -0.130   3.863   5.715  2.4472 -3.6208 -0.1647
   32CHL1  H18B 2323  -0.089   3.797   5.883 -1.7072  1.5855  1.5462
   32CHL1  H18C 2324  -0.140   3.967   5.869 -0.3355  0.7082 -0.6928
   32CHL1   C12 2325   0.076   4.049   5.692 -0.2635  0.4198  0.2866
   32CHL1  H12A 2326   0.004   4.126   5.726 -1.8892 -0.6015 -0.6984
   32CHL1  H12B 2327   0.183   4.080   5.691  0.0673 -0.6471 -1.1694
   32CHL1   C11 2328   0.045   4.008   5.544  0.1714 -0.2709 -0.1177
   32CHL1  H11A 2329  -0.064   3.988   5.547  0.6060 -3.1182  0.4005
   32CHL1  H11B 2330   0.066   4.093   5.476  1.5276  1.1816  1.9829
   32CHL1    C9 2331   0.112   3.876   5.495  0.0727 -0.2745  0.4252
   32CHL1    H9 2332   0.221   3.898   5.496  0.3620 -1.2930 -1.9388
   32CHL1   C10 2333   0.083   3.839   5.345  0.2323  0.3525 -0.0700
   32CHL1   C19 2334  -0.072   3.824   5.328  0.6473 -0.2993  0.4837
   32CHL1  H19A 2335  -0.115   3.759   5.407  1.4913 -1.3181  0.1350
   32CHL1  H19B 2336  -0.112   3.927   5.329  1.9969  0.2807 -1.1339
   32CHL1  H19C 2337  -0.101   3.786   5.228  0.3908  1.2406 -0.0484
   32CHL1    C1 2338   0.138   3.955   5.250 -0.0111  0.1388 -0.0261
   32CHL1   H1A 2339   0.070   4.041   5.264 -0.4677 -0.6115  2.9867
   32CHL1   H1B 2340   0.244   3.979   5.276 -0.7083  1.1232  2.0919
   32CHL1    C2 2341   0.127   3.923   5.096 -0.4791 -0.2582  0.9472
   32CHL1   H2A 2342   0.163   4.006   5.031  1.2133 -0.5327  1.5051
   32CHL1   H2B 2343   0.024   3.891   5.068 -0.1975 -2.3126  2.0394
   32CHL1   C20 2344   0.054   3.995   6.057 -0.0014 -0.6354 -0.6567
   32CHL1   H20 2345  -0.042   3.941   6.065 -0.0625 -0.3123  1.3281
   32CHL1   C21 2346   0.033   4.151   6.032 -0.0059 -0.3268  0.7368
   32CHL1  H21A 2347  -0.013   4.202   6.119  1.0302  1.0650  0.5017
   32CHL1  H21B 2348  -0.017   4.167   5.934  2.7905  1.3173 -0.5671
   32CHL1  H21C 2349   0.136   4.193   6.024 -0.5604  1.0570  0.5995
   32CHL1   C22 2350   0.125   3.978   6.200 -0.9243  0.4307  0.5638
   32CHL1  H22A 2351   0.146   3.869   6.207 -0.4388  0.4570 -0.3508
   32CHL1  H22B 2352   0.221   4.034   6.199  0.1734 -1.1875 -3.0618
   32CHL1   C23 2353   0.043   4.020   6.320  0.1334  0.1682  0.2383
   32CHL1  H23A 2354   0.018   4.129   6.316  1.3196  0.4274 -0.7609
   32CHL1  H23B 2355  -0.054   3.968   6.319 -0.9222  2.0545 -0.1527
   32CHL1   C24 2356   0.121   4.002   6.460  0.2339  0.0307  0.4373
   32CHL1  H24A 2357   0.168   3.901   6.468 -0.1785 -0.0965  1.3720
   32CHL1  H24B 2358   0.203   4.077   6.463  1.6109 -1.4126  0.7922
   32CHL1   C25 2359   0.033   4.025   6.585  0.5820 -0.9332  0.0519
   32CHL1   H25 2360  -0.051   3.953   6.577  1.7790 -2.2794 -0.6988
   32CHL1   C26 2361   0.109   3.991   6.708  0.3918 -0.0220 -0.1148
   32CHL1  H26A 2362   0.206   4.043   6.720 -0.0311  1.1010 -1.2867
   32CHL1  H26B 2363   0.049   4.008   6.800  0.1771 -0.5123 -0.1588
   32CHL1  H26C 2364   0.149   3.887   6.708  1.4326  0.3654 -0.7719
   32CHL1   C27 2365  -0.026   4.168   6.596  0.2824 -0.1972  0.0149
   32CHL1  H27A 2366  -0.069   4.183   6.697  1.3642  3.1147  0.1258
   32CHL1  H27B 2367   0.046   4.251   6.580  1.3268 -0.9023  0.9374
   32CHL1  H27C 2368  -0.097   4.198   6.516  1.3524 -0.1921 -0.9497
   33CHL1    C3 2369   5.416   3.811   5.338 -0.6197 -0.2005 -0.6149
   33CHL1    H3 2370   5.342   3.882   5.381 -0.5733 -0.3448 -0.3010
   33CHL1    O3 2371   5.429   3.839   5.201  0.3670  0.1485 -0.6784
   33CHL1   H3' 2372   5.342   3.829   5.163 -1.1879  1.8581  2.0624
   33CHL1    C4 2373   5.550   3.827   5.415  0.2325 -0.7230  0.7274
   33CHL1   H4A 2374   5.617   3.766   5.351 -0.5319  2.4676 -3.6047
   33CHL1   H4B 2375   5.575   3.935   5.406  4.9171 -1.5268  1.7300
   33CHL1    C5 2376   5.556   3.787   5.560 -1.0057  0.2248  0.2935
   33CHL1    C6 2377   5.618   3.864   5.654 -0.5730 -0.0153  0.4646
   33CHL1    H6 2378   5.664   3.961   5.634 -0.1426 -0.3138 -0.0241
   33CHL1    C7 2379   5.626   3.806   5.792 -0.2660  0.4315 -0.1383
   33CHL1   H7A 2380   5.734   3.809   5.817 -0.6067  1.8499  1.3979
   33CHL1   H7B 2381   5.588   3.880   5.867  0.5231  0.9358 -0.2292
   33CHL1    C8 2382   5.567   3.660   5.832  0.2587 -0.8510 -0.7250
   33CHL1    H8 2383   5.645   3.581   5.820  0.5387 -0.4950 -1.2734
   33CHL1   C14 2384   5.522   3.663   5.977 -0.8533 -0.2249 -0.2730
   33CHL1   H14 2385   5.454   3.751   5.988  0.3570  0.6000  0.9555
   33CHL1   C15 2386   5.632   3.684   6.078 -1.1480 -1.0338 -0.4023
   33CHL1  H15A 2387   5.715   3.613   6.056 -1.7274 -1.0339 -2.9209
   33CHL1  H15B 2388   5.682   3.784   6.072  0.6922 -1.9098 -0.5576
   33CHL1   C16 2389   5.576   3.637   6.213  0.3688 -0.9102 -0.6065
   33CHL1  H16A 2390   5.649   3.580   6.274 -1.2278 -0.5261  1.8083
   33CHL1  H16B 2391   5.539   3.728   6.265 -2.6714 -2.3491  0.0143
   33CHL1   C17 2392   5.441   3.561   6.177  0.0326 -0.6595 -1.0551
   33CHL1   H17 2393   5.359   3.636   6.179  0.4464 -0.2112 -0.5459
   33CHL1   C13 2394   5.461   3.535   6.027 -0.0750  0.4855 -0.5706
   33CHL1   C18 2395   5.552   3.416   6.016 -0.2884 -0.6486 -0.3538
   33CHL1  H18A 2396   5.505   3.318   6.039  0.0450 -0.2064  2.6854
   33CHL1  H18B 2397   5.609   3.414   5.921 -0.5162  0.5667 -0.5217
   33CHL1  H18C 2398   5.628   3.424   6.097 -0.5605  1.3272 -0.2617
   33CHL1   C12 2399   5.342   3.505   5.939  0.6875 -0.2654  0.1102
   33CHL1  H12A 2400   5.292   3.409   5.962  0.0780  0.3626  1.5850
   33CHL1  H12B 2401   5.267   3.584   5.962  1.3749 -0.0445  1.7498
   33CHL1   C11 2402   5.382   3.508   5.794  0.0128  0.1034 -0.0008
   33CHL1  H11A 2403   5.443   3.419   5.767 -2.9356 -1.6793 -1.3566
   33CHL1  H11B 2404   5.285   3.505   5.739 -0.5665  0.8837  0.9340
   33CHL1    C9 2405   5.446   3.633   5.745 -0.6722 -0.0410 -0.0451
   33CHL1    H9 2406   5.372   3.712   5.768 -1.6344 -0.1296 -2.5080
   33CHL1   C10 2407   5.476   3.655   5.594  0.4135 -0.2572  0.9631
   33CHL1   C19 2408   5.556   3.533   5.558 -0.7192  0.3311 -0.6653
   33CHL1  H19A 2409   5.503   3.438   5.578  0.8906  0.1209  3.7049
   33CHL1  H19B 2410   5.601   3.545   5.458 -0.2423  0.8297 -0.3962
   33CHL1  H19C 2411   5.645   3.531   5.625 -0.5546  0.4858 -0.8809
   33CHL1    C1 2412   5.345   3.648   5.508  0.2225  0.2112  0.0596
   33CHL1   H1A 2413   5.302   3.546   5.514  2.0413 -0.6926 -1.3550
   33CHL1   H1B 2414   5.272   3.720   5.552 -2.0791 -1.7658 -0.3602
   33CHL1    C2 2415   5.357   3.677   5.361 -0.7953  0.6909  0.7188
   33CHL1   H2A 2416   5.257   3.661   5.313 -0.7443 -1.2478  1.1806
   33CHL1   H2B 2417   5.423   3.599   5.318  0.6068  0.8762  2.4524
   33CHL1   C20 2418   5.401   3.445   6.280  0.5922 -0.0358 -0.5972
   33CHL1   H20 2419   5.472   3.360   6.280 -1.1761 -1.6805  2.0002
   33CHL1   C21 2420   5.260   3.394   6.255  0.2530 -0.4242  0.3822
   33CHL1  H21A 2421   5.225   3.377   6.150  0.4478  1.5049 -0.0307
   33CHL1  H21B 2422   5.183   3.457   6.304 -0.2059 -0.0618 -0.7554
   33CHL1  H21C 2423   5.253   3.295   6.305 -1.1472 -0.2320  0.6245
   33CHL1   C22 2424   5.412   3.480   6.434 -0.1911 -0.3197  0.0088
   33CHL1  H22A 2425   5.519   3.499   6.457  0.0265 -1.5412  0.0497
   33CHL1  H22B 2426   5.342   3.559   6.470 -0.7279 -0.6701 -0.2570
   33CHL1   C23 2427   5.363   3.373   6.537  0.0815 -0.3280  0.5740
   33CHL1  H23A 2428   5.253   3.378   6.550  0.0636 -1.6500  1.0815
   33CHL1  H23B 2429   5.392   3.270   6.505  0.6593 -0.7163  2.2420
   33CHL1   C24 2430   5.426   3.381   6.672  0.2217  0.3900  0.2488
   33CHL1  H24A 2431   5.534   3.369   6.647 -0.2598 -0.0801 -1.7612
   33CHL1  H24B 2432   5.392   3.478   6.715 -1.0273  0.6876 -1.3318
   33CHL1   C25 2433   5.404   3.266   6.771  0.0194 -0.2453 -0.2837
   33CHL1   H25 2434   5.476   3.288   6.852  0.1183  0.8701 -0.6571
   33CHL1   C26 2435   5.266   3.271   6.833 -0.1754 -0.6869 -0.1881
   33CHL1  H26A 2436   5.254   3.358   6.901 -2.5572 -2.2997  1.5981
   33CHL1  H26B 2437   5.185   3.284   6.757  0.6103 -0.3952 -0.9969
   33CHL1  H26C 2438   5.238   3.183   6.893 -0.7328 -0.5369 -0.2191
   33CHL1   C27 2439   5.447   3.131   6.711  0.2769  0.3385  0.3078
   33CHL1  H27A 2440   5.552   3.138   6.676 -0.4865  2.0539 -1.8601
   33CHL1  H27B 2441   5.431   3.053   6.788  0.3372  0.9055  0.9027
   33CHL1  H27C 2442   5.381   3.102   6.626 -1.4388  0.6413  1.4842
   34CHL1    C3 2443   2.517   5.598   8.302 -0.0387  0.1791 -0.4689
   34CHL1    H3 2444   2.626   5.582   8.310  0.2086  2.2586  1.1459
   34CHL1    O3 2445   2.479   5.627   8.437 -0.2428 -0.4650  0.3151
   34CHL1   H3' 2446   2.438   5.550   8.478  1.6370 -0.1261  3.0750
   34CHL1    C4 2447   2.490   5.718   8.217 -0.3590 -0.2497  1.7604
   34CHL1   H4A 2448   2.389   5.759   8.234 -0.6194  0.3450 -0.7819
   34CHL1   H4B 2449   2.568   5.789   8.251  0.9627 -0.2412 -0.9930
   34CHL1    C5 2450   2.525   5.686   8.071  0.0646 -0.5322 -1.1911
   34CHL1    C6 2451   2.629   5.746   8.011  0.2008  0.1422 -0.5259
   34CHL1    H6 2452   2.694   5.822   8.057  0.7665 -0.7628  0.1940
   34CHL1    C7 2453   2.666   5.720   7.872 -0.5953 -0.2109  0.4277
   34CHL1   H7A 2454   2.700   5.813   7.822  1.7366 -0.5236  1.3046
   34CHL1   H7B 2455   2.745   5.642   7.868 -1.7243 -1.3657  0.1221
   34CHL1    C8 2456   2.540   5.658   7.795 -0.7477 -0.5670 -0.0722
   34CHL1    H8 2457   2.457   5.731   7.790 -1.5496 -1.5174 -1.1301
   34CHL1   C14 2458   2.592   5.622   7.659  0.8085  0.0519  0.7241
   34CHL1   H14 2459   2.677   5.552   7.671  1.3258  0.4261 -0.5668
   34CHL1   C15 2460   2.647   5.734   7.566  0.1115 -0.4775 -0.1589
   34CHL1  H15A 2461   2.579   5.821   7.564  0.0661 -0.3678 -4.6764
   34CHL1  H15B 2462   2.746   5.772   7.599  0.7202  0.3054 -2.7067
   34CHL1   C16 2463   2.632   5.671   7.422  0.0920  0.2247 -0.2847
   34CHL1  H16A 2464   2.565   5.744   7.371 -0.2134  2.3570  2.8815
   34CHL1  H16B 2465   2.731   5.671   7.372 -0.7020 -0.9841 -1.9288
   34CHL1   C17 2466   2.570   5.532   7.441  0.6901  0.0686 -0.5598
   34CHL1   H17 2467   2.653   5.465   7.468  0.0609  0.1543  1.8200
   34CHL1   C13 2468   2.490   5.545   7.574 -0.5371  0.4479  0.0591
   34CHL1   C18 2469   2.355   5.625   7.552 -0.2450 -0.0056 -0.4731
   34CHL1  H18A 2470   2.308   5.646   7.651  1.5298  3.9589 -0.2915
   34CHL1  H18B 2471   2.383   5.724   7.511 -0.3841  0.9862  1.6957
   34CHL1  H18C 2472   2.287   5.568   7.486  1.2473 -1.7649 -0.5919
   34CHL1   C12 2473   2.465   5.413   7.646  0.2329  0.1118  0.0193
   34CHL1  H12A 2474   2.396   5.352   7.584 -2.1193  2.9444 -0.3837
   34CHL1  H12B 2475   2.554   5.346   7.655 -0.5579 -1.0586 -0.6341
   34CHL1   C11 2476   2.405   5.430   7.789 -0.3947 -0.5946  0.6927
   34CHL1  H11A 2477   2.302   5.469   7.783 -0.9663 -2.0052  0.9571
   34CHL1  H11B 2478   2.403   5.337   7.850  1.8154  0.0531  1.8943
   34CHL1    C9 2479   2.488   5.540   7.873  0.0897  0.7969 -0.4359
   34CHL1    H9 2480   2.581   5.485   7.897 -0.8022  0.0274  1.4321
   34CHL1   C10 2481   2.434   5.575   8.007  0.0916  0.6478 -0.0454
   34CHL1   C19 2482   2.288   5.623   7.998 -0.1533  0.3765  0.2576
   34CHL1  H19A 2483   2.216   5.544   7.966  2.2101 -0.7000 -2.9497
   34CHL1  H19B 2484   2.255   5.659   8.098 -0.6778 -0.0960  0.2673
   34CHL1  H19C 2485   2.288   5.701   7.920  0.0158 -1.0821 -1.2578
   34CHL1    C1 2486   2.449   5.451   8.096  1.0698  0.3316 -0.1387
   34CHL1   H1A 2487   2.362   5.387   8.071  0.4743  0.7311  0.8361
   34CHL1   H1B 2488   2.551   5.410   8.090  1.5811  1.4246  0.6603
   34CHL1    C2 2489   2.439   5.471   8.249  0.2566 -0.7791 -0.1457
   34CHL1   H2A 2490   2.461   5.380   8.308  3.1176 -0.3985 -0.4765
   34CHL1   H2B 2491   2.335   5.507   8.263  0.8486  1.4815 -1.1028
   34CHL1   C20 2492   2.492   5.491   7.314  0.0906 -0.1855  1.2448
   34CHL1   H20 2493   2.416   5.567   7.287  0.7321 -0.1520 -0.6330
   34CHL1   C21 2494   2.403   5.359   7.330 -0.9397  0.2212 -0.2850
   34CHL1  H21A 2495   2.367   5.313   7.235 -0.2262  0.7296 -0.8131
   34CHL1  H21B 2496   2.316   5.377   7.395 -1.7944  0.0695 -1.3550
   34CHL1  H21C 2497   2.473   5.292   7.384 -2.4925 -1.6218 -0.4425
   34CHL1   C22 2498   2.585   5.472   7.185  0.3546  0.6021  0.4123
   34CHL1  H22A 2499   2.526   5.440   7.096 -0.2331  0.6505  0.7796
   34CHL1  H22B 2500   2.633   5.567   7.157 -0.5793  0.4539 -1.9358
   34CHL1   C23 2501   2.698   5.376   7.196 -0.3089  0.3280 -0.3299
   34CHL1  H23A 2502   2.765   5.409   7.278  0.4665 -1.0196 -0.4115
   34CHL1  H23B 2503   2.652   5.277   7.218  0.9044 -0.4692 -1.2524
   34CHL1   C24 2504   2.785   5.362   7.066  0.9412 -0.4406  0.1542
   34CHL1  H24A 2505   2.871   5.297   7.091  2.0792  0.7584 -0.5315
   34CHL1  H24B 2506   2.714   5.317   6.993  0.3124  1.1389 -0.2612
   34CHL1   C25 2507   2.838   5.500   7.015 -0.1130 -0.7850  0.2584
   34CHL1   H25 2508   2.760   5.578   7.002  1.4255  0.7781  0.0108
   34CHL1   C26 2509   2.951   5.561   7.108 -0.2253 -1.0860  0.9710
   34CHL1  H26A 2510   2.905   5.593   7.204 -1.6544  2.3385 -0.6969
   34CHL1  H26B 2511   3.049   5.511   7.122  0.4884  0.0360  0.1556
   34CHL1  H26C 2512   2.976   5.656   7.058 -0.1443  0.4349  3.6851
   34CHL1   C27 2513   2.894   5.469   6.879 -0.5098 -0.6062 -0.0094
   34CHL1  H27A 2514   2.816   5.420   6.817 -0.1647 -1.2883  0.0918
   34CHL1  H27B 2515   2.940   5.559   6.832  0.5947 -0.3953  1.4227
   34CHL1  H27C 2516   2.962   5.383   6.892 -3.2832 -2.5842  2.6038
   35CHL1    C3 2517   5.951   0.784   5.396 -0.9720  1.0797  0.3952
   35CHL1    H3 2518   5.993   0.685   5.426  1.4742  1.4583 -1.4840
   35CHL1    O3 2519   5.917   0.789   5.259 -0.1317 -0.1300 -0.2674
   35CHL1   H3' 2520   5.987   0.830   5.207  0.0573 -2.0005 -1.5873
   35CHL1    C4 2521   5.826   0.794   5.489 -0.6085 -0.9534  0.8149
   35CHL1   H4A 2522   5.770   0.880   5.449 -1.8975 -1.4227  1.5633
   35CHL1   H4B 2523   5.761   0.708   5.463  0.1425 -1.2324 -0.2282
   35CHL1    C5 2524   5.853   0.806   5.638 -0.4057 -0.3827  0.2856
   35CHL1    C6 2525   5.806   0.724   5.728 -0.1059  0.2876 -0.3966
   35CHL1    H6 2526   5.743   0.640   5.695 -0.2238 -0.3852  1.4550
   35CHL1    C7 2527   5.813   0.745   5.877 -0.2968 -0.3356  0.0347
   35CHL1   H7A 2528   5.714   0.731   5.925  0.1874  0.6931  1.4001
   35CHL1   H7B 2529   5.879   0.667   5.922 -0.7869 -0.6874  0.1500
   35CHL1    C8 2530   5.867   0.884   5.921  0.2389  0.3524  0.0685
   35CHL1    H8 2531   5.788   0.962   5.917 -1.4908 -1.2890  0.5428
   35CHL1   C14 2532   5.912   0.880   6.068 -0.2220  1.3177 -0.2766
   35CHL1   H14 2533   5.991   0.802   6.059 -2.8256 -1.6500  0.5707
   35CHL1   C15 2534   5.807   0.844   6.177 -0.9442 -0.1002  0.3261
   35CHL1  H15A 2535   5.715   0.896   6.143 -0.4913  0.7556  0.4033
   35CHL1  H15B 2536   5.795   0.733   6.177  0.2059 -0.3533 -3.2259
   35CHL1   C16 2537   5.866   0.896   6.302  0.3910 -0.2754 -0.4842
   35CHL1  H16A 2538   5.788   0.957   6.352 -0.8339 -1.2380 -1.1743
   35CHL1  H16B 2539   5.900   0.815   6.370 -0.0847  1.8268  2.4393
   35CHL1   C17 2540   5.989   0.979   6.253 -0.1320 -0.3668 -0.5392
   35CHL1   H17 2541   6.068   0.901   6.254  2.5564  2.1893  0.7122
   35CHL1   C13 2542   5.969   1.012   6.108  0.1980 -0.4517  0.0749
   35CHL1   C18 2543   5.862   1.129   6.101  0.2926  0.3500 -0.3760
   35CHL1  H18A 2544   5.907   1.218   6.150  0.1426  0.2896 -0.1285
   35CHL1  H18B 2545   5.840   1.162   5.998  1.1716 -0.6681 -0.9192
   35CHL1  H18C 2546   5.769   1.109   6.158 -0.7104  2.2159 -1.2925
   35CHL1   C12 2547   6.093   1.038   6.023  0.1018  0.0126 -0.1649
   35CHL1  H12A 2548   6.146   1.127   6.061  0.5599  0.3889 -1.6154
   35CHL1  H12B 2549   6.155   0.947   6.040  0.2865  0.1327 -0.1965
   35CHL1   C11 2550   6.064   1.041   5.878 -0.5695 -0.2838 -0.8963
   35CHL1  H11A 2551   6.009   1.135   5.855  1.9870  1.4374 -0.2875
   35CHL1  H11B 2552   6.153   1.053   5.813  1.7067 -0.4790  1.9956
   35CHL1    C9 2553   5.985   0.919   5.828  0.2985 -0.4733 -0.2468
   35CHL1    H9 2554   6.059   0.836   5.828  1.4444  0.4837 -1.6988
   35CHL1   C10 2555   5.942   0.930   5.674  0.4669  0.1277  0.1755
   35CHL1   C19 2556   5.872   1.061   5.641  0.6396 -0.3777  0.2574
   35CHL1  H19A 2557   5.841   1.064   5.534  0.2260 -0.4507  0.3733
   35CHL1  H19B 2558   5.776   1.080   5.694 -1.3380 -1.9003 -2.4908
   35CHL1  H19C 2559   5.949   1.140   5.654 -0.7114  0.8377  1.2291
   35CHL1    C1 2560   6.065   0.904   5.585 -0.1964 -0.7564  0.5210
   35CHL1   H1A 2561   6.137   0.989   5.595  1.3532 -1.8172 -1.0108
   35CHL1   H1B 2562   6.118   0.814   5.622 -0.7462 -0.8687  1.0473
   35CHL1    C2 2563   6.044   0.902   5.430 -0.5393  0.2133  0.0309
   35CHL1   H2A 2564   6.139   0.880   5.377  0.0066  2.0228  0.2025
   35CHL1   H2B 2565   6.012   1.003   5.395 -0.7490 -0.2136 -1.0564
   35CHL1   C20 2566   6.039   1.100   6.343 -0.0196  0.4304 -0.2561
   35CHL1   H20 2567   6.071   1.183   6.276 -0.9583 -0.0854 -1.3610
   35CHL1   C21 2568   6.168   1.055   6.420  0.6007 -0.0422 -0.1819
   35CHL1  H21A 2569   6.252   1.030   6.351  0.9109 -0.5037  0.3527
   35CHL1  H21B 2570   6.149   0.969   6.488 -1.8170  0.9037  0.4268
   35CHL1  H21C 2571   6.209   1.140   6.478  3.6409 -1.7303  0.3716
   35CHL1   C22 2572   5.937   1.164   6.441 -0.8601 -0.5651  0.9094
   35CHL1  H22A 2573   5.839   1.174   6.389  0.4148  4.4678 -1.1738
   35CHL1  H22B 2574   5.927   1.103   6.533  1.3479 -2.5706 -0.0724
   35CHL1   C23 2575   5.965   1.314   6.475 -0.2467 -0.8074  0.0306
   35CHL1  H23A 2576   6.073   1.319   6.501  0.7992  1.9640 -3.8942
   35CHL1  H23B 2577   5.965   1.364   6.376  3.5338  0.1226  0.3394
   35CHL1   C24 2578   5.871   1.374   6.581 -0.2386  0.4570  0.3263
   35CHL1  H24A 2579   5.772   1.380   6.532 -0.4186 -0.3080  0.5790
   35CHL1  H24B 2580   5.867   1.313   6.674  0.4006 -0.5745 -0.2951
   35CHL1   C25 2581   5.905   1.514   6.634  0.2127 -0.4733 -0.0524
   35CHL1   H25 2582   5.866   1.583   6.557 -0.4665 -1.9702 -1.1076
   35CHL1   C26 2583   5.831   1.555   6.758  0.4581  0.0066 -0.1439
   35CHL1  H26A 2584   5.854   1.661   6.783  0.1236  0.4549 -1.6343
   35CHL1  H26B 2585   5.722   1.546   6.738  0.2656 -1.3505  1.3814
   35CHL1  H26C 2586   5.852   1.498   6.851 -0.7076  0.2097  0.2646
   35CHL1   C27 2587   6.057   1.523   6.652  0.5545  0.3619 -0.6889
   35CHL1  H27A 2588   6.087   1.620   6.697 -1.8034  0.3953  1.0014
   35CHL1  H27B 2589   6.087   1.450   6.731 -1.1146 -0.9403 -1.2017
   35CHL1  H27C 2590   6.111   1.498   6.559  0.2527 -2.0695 -0.2802
   36CHL1    C3 2591   6.241   2.298   5.385 -0.2629  0.2361  0.2423
   36CHL1    H3 2592   6.153   2.239   5.418 -0.6224  0.1919 -0.7621
   36CHL1    O3 2593   6.244   2.292   5.243  0.6340  0.1781  0.3582
   36CHL1   H3' 2594   6.222   2.203   5.217  0.5528  0.4898 -0.6848
   36CHL1    C4 2595   6.226   2.446   5.431 -0.1105  0.7441 -0.0418
   36CHL1   H4A 2596   6.315   2.502   5.393 -0.7323  0.0051 -2.8016
   36CHL1   H4B 2597   6.138   2.490   5.380  0.2816  1.6087  0.0097
   36CHL1    C5 2598   6.220   2.463   5.583 -0.2694  0.2488  0.3722
   36CHL1    C6 2599   6.114   2.518   5.635 -0.0071  0.2328  0.1808
   36CHL1    H6 2600   6.034   2.544   5.564  0.0052  0.9673  0.4229
   36CHL1    C7 2601   6.092   2.539   5.786 -0.3923  0.2804  0.3296
   36CHL1   H7A 2602   6.058   2.644   5.801  2.3057  0.7911  4.6131
   36CHL1   H7B 2603   6.027   2.465   5.838  2.1336 -0.8488  2.1036
   36CHL1    C8 2604   6.227   2.519   5.860 -0.2371 -0.2191  0.4029
   36CHL1    H8 2605   6.297   2.603   5.839  1.6540 -1.0567  2.8558
   36CHL1   C14 2606   6.207   2.521   6.005 -0.2745  0.5322 -0.1444
   36CHL1   H14 2607   6.153   2.429   6.035  1.6613 -0.6576 -0.1383
   36CHL1   C15 2608   6.121   2.644   6.056  0.5473 -0.5089  0.3939
   36CHL1  H15A 2609   6.158   2.736   6.005 -1.6168  1.1271  1.5964
   36CHL1  H15B 2610   6.012   2.645   6.034  0.2020  1.4967  1.9050
   36CHL1   C16 2611   6.153   2.638   6.202 -0.4072 -0.5093  0.0178
   36CHL1  H16A 2612   6.188   2.740   6.228 -1.1832 -0.4922  1.0245
   36CHL1  H16B 2613   6.060   2.618   6.259 -0.6753 -0.2762 -0.3291
   36CHL1   C17 2614   6.261   2.526   6.230 -0.0691  0.3165  0.5892
   36CHL1   H17 2615   6.222   2.424   6.253  0.6361 -0.0144  0.3586
   36CHL1   C13 2616   6.334   2.509   6.088  0.2660  0.3257 -0.1919
   36CHL1   C18 2617   6.421   2.635   6.061 -0.0380 -0.2013 -0.0392
   36CHL1  H18A 2618   6.380   2.734   6.090 -0.3001 -0.7965  1.7888
   36CHL1  H18B 2619   6.515   2.638   6.120  0.3022  3.7590 -0.5007
   36CHL1  H18C 2620   6.451   2.647   5.955 -1.5961  0.7763 -0.4065
   36CHL1   C12 2621   6.400   2.372   6.044  0.0980 -0.0745 -1.0332
   36CHL1  H12A 2622   6.498   2.361   6.096 -0.0531 -2.8584 -1.1899
   36CHL1  H12B 2623   6.331   2.289   6.069 -0.1093  0.3970  0.0521
   36CHL1   C11 2624   6.423   2.373   5.895 -0.3855  0.9251  0.2723
   36CHL1  H11A 2625   6.505   2.447   5.891  0.3747  0.1453  1.0593
   36CHL1  H11B 2626   6.447   2.271   5.859 -2.2308 -0.0395  1.5980
   36CHL1    C9 2627   6.300   2.394   5.802 -0.3574 -0.2872  0.4289
   36CHL1    H9 2628   6.231   2.313   5.836 -0.9078 -0.4955 -1.1055
   36CHL1   C10 2629   6.335   2.396   5.650  0.0134  0.5724 -0.8469
   36CHL1   C19 2630   6.471   2.468   5.639  0.0042 -0.0854  0.7491
   36CHL1  H19A 2631   6.557   2.409   5.678 -0.0008 -0.2737  0.4757
   36CHL1  H19B 2632   6.491   2.484   5.531 -1.2222 -0.1063  0.5118
   36CHL1  H19C 2633   6.470   2.558   5.704  1.3795 -0.5690  1.4733
   36CHL1    C1 2634   6.361   2.256   5.603 -0.8361  0.4591 -0.3571
   36CHL1   H1A 2635   6.457   2.216   5.643 -1.9614 -1.7227  0.3304
   36CHL1   H1B 2636   6.284   2.187   5.644  0.3284 -0.8995 -0.3953
   36CHL1    C2 2637   6.371   2.237   5.450  0.2717  0.2091  0.7042
   36CHL1   H2A 2638   6.390   2.132   5.419 -0.6217 -0.5645  2.6128
   36CHL1   H2B 2639   6.455   2.302   5.418  0.6463 -1.5439 -2.2545
   36CHL1   C20 2640   6.347   2.576   6.349  0.2209  0.2469 -0.0711
   36CHL1   H20 2641   6.388   2.676   6.323 -3.4148  1.7862 -0.6204
   36CHL1   C21 2642   6.462   2.483   6.375  0.0108 -0.1981  0.9740
   36CHL1  H21A 2643   6.533   2.539   6.439 -0.4053  1.5361  0.0040
   36CHL1  H21B 2644   6.516   2.459   6.281 -0.5766 -0.7623  0.7734
   36CHL1  H21C 2645   6.423   2.392   6.425 -0.6339  0.0019  0.8509
   36CHL1   C22 2646   6.268   2.592   6.486 -0.5377  0.3709 -0.2151
   36CHL1  H22A 2647   6.335   2.619   6.570  2.1652  0.2501 -2.1965
   36CHL1  H22B 2648   6.199   2.677   6.469 -1.3842 -0.2985 -0.2066
   36CHL1   C23 2649   6.189   2.467   6.531 -0.7213 -0.1271  0.4185
   36CHL1  H23A 2650   6.113   2.453   6.451  1.3070 -0.6683 -1.5479
   36CHL1  H23B 2651   6.237   2.368   6.545  0.3533  0.2610 -0.3532
   36CHL1   C24 2652   6.123   2.504   6.659 -1.0584 -0.5270 -0.4083
   36CHL1  H24A 2653   6.203   2.510   6.735  0.6408 -1.3303 -2.0552
   36CHL1  H24B 2654   6.079   2.605   6.641 -0.2492  0.6253  3.2326
   36CHL1   C25 2655   6.010   2.411   6.707 -0.1140 -0.2821  0.5533
   36CHL1   H25 2656   6.037   2.310   6.668 -0.4736 -0.5826  1.0719
   36CHL1   C26 2657   6.003   2.396   6.863  0.7956  0.0582  0.3377
   36CHL1  H26A 2658   5.938   2.313   6.894  1.1235 -0.3466 -0.0461
   36CHL1  H26B 2659   6.099   2.360   6.907  0.5633 -1.6465 -0.5038
   36CHL1  H26C 2660   5.972   2.489   6.916 -0.2193 -0.0369 -0.0714
   36CHL1   C27 2661   5.873   2.449   6.647  0.1230 -0.3040 -0.0372
   36CHL1  H27A 2662   5.807   2.359   6.650  0.2060 -0.3834 -0.5473
   36CHL1  H27B 2663   5.825   2.527   6.708  0.6613  0.0429 -0.0520
   36CHL1  H27C 2664   5.887   2.491   6.545 -0.0176  1.6361  0.7189
   37CHL1    C3 2665   4.390   4.811   5.442  0.2175  0.1864 -0.6537
   37CHL1    H3 2666   4.300   4.877   5.444 -0.2599 -0.4719  0.3913
   37CHL1    O3 2667   4.419   4.776   5.312  0.0776 -0.3990  0.1779
   37CHL1   H3' 2668   4.342   4.732   5.275 -0.4039 -0.6404  1.4154
   37CHL1    C4 2669   4.513   4.874   5.505 -0.2668  0.4043  0.3047
   37CHL1   H4A 2670   4.600   4.807   5.496 -2.7295 -3.0679  0.4547
   37CHL1   H4B 2671   4.535   4.969   5.451 -1.8842  0.3899 -0.4500
   37CHL1    C5 2672   4.488   4.906   5.647  0.5120  0.3317  0.1418
   37CHL1    C6 2673   4.500   5.032   5.695  0.5971 -0.6327 -0.1503
   37CHL1    H6 2674   4.529   5.117   5.632 -1.9300 -0.3129 -0.9891
   37CHL1    C7 2675   4.471   5.072   5.844 -0.8758  0.4203  0.3119
   37CHL1   H7A 2676   4.561   5.131   5.874 -0.2795 -1.5945  2.9481
   37CHL1   H7B 2677   4.373   5.117   5.868 -0.3493  1.0142  1.4229
   37CHL1    C8 2678   4.486   4.940   5.928 -0.3781 -0.0934 -0.3772
   37CHL1    H8 2679   4.595   4.919   5.934 -0.8218 -2.3367  1.0309
   37CHL1   C14 2680   4.441   4.975   6.067 -0.3111  0.3544 -0.0541
   37CHL1   H14 2681   4.333   4.998   6.062 -0.8857 -1.6467  1.5721
   37CHL1   C15 2682   4.515   5.093   6.135  0.8752  0.6112 -0.3214
   37CHL1  H15A 2683   4.624   5.110   6.121  0.9248  3.2713  2.2972
   37CHL1  H15B 2684   4.464   5.185   6.101 -2.0000 -1.0503 -0.7925
   37CHL1   C16 2685   4.479   5.069   6.284  0.5119 -0.4966  0.3521
   37CHL1  H16A 2686   4.575   5.057   6.339  1.1323 -0.6916 -0.7470
   37CHL1  H16B 2687   4.430   5.152   6.339 -0.4232  0.0277 -1.2344
   37CHL1   C17 2688   4.400   4.935   6.294  0.4975 -0.0756  0.0950
   37CHL1   H17 2689   4.292   4.960   6.282  0.5255 -0.6490 -1.5577
   37CHL1   C13 2690   4.435   4.858   6.169  0.2909 -0.5120 -0.4284
   37CHL1   C18 2691   4.582   4.798   6.182  0.9154  0.2036 -0.0639
   37CHL1  H18A 2692   4.635   4.767   6.090  2.5140  0.1624  0.8332
   37CHL1  H18B 2693   4.642   4.870   6.241 -1.4178 -0.4168  3.4641
   37CHL1  H18C 2694   4.575   4.703   6.240  1.6074 -0.3544 -0.8839
   37CHL1   C12 2695   4.332   4.752   6.115  0.3142  0.2459  0.5068
   37CHL1  H12A 2696   4.329   4.661   6.178  1.1078  0.3407  0.6880
   37CHL1  H12B 2697   4.228   4.792   6.107  0.8810  1.6953  0.0518
   37CHL1   C11 2698   4.370   4.712   5.965  0.0692 -0.0346  0.1853
   37CHL1  H11A 2699   4.466   4.657   5.979 -0.4781 -0.5451  2.4433
   37CHL1  H11B 2700   4.290   4.645   5.929  1.3938 -2.1177  0.9226
   37CHL1    C9 2701   4.397   4.829   5.868 -0.4603 -0.2085 -0.0588
   37CHL1    H9 2702   4.301   4.876   5.839 -1.0765 -1.1648  0.3794
   37CHL1   C10 2703   4.450   4.779   5.733 -0.2364 -0.5741  0.4332
   37CHL1   C19 2704   4.574   4.697   5.751 -0.2967 -0.6243  0.6457
   37CHL1  H19A 2705   4.550   4.595   5.789 -1.4501 -0.3867  0.5694
   37CHL1  H19B 2706   4.616   4.684   5.649 -0.0012  2.2358  0.3361
   37CHL1  H19C 2707   4.644   4.751   5.819 -1.2409  0.8704  0.4551
   37CHL1    C1 2708   4.333   4.705   5.660  1.0044 -0.2930 -0.0195
   37CHL1   H1A 2709   4.317   4.606   5.709  1.2173 -0.3678 -0.1022
   37CHL1   H1B 2710   4.234   4.756   5.661 -0.1168 -2.3098 -1.4256
   37CHL1    C2 2711   4.365   4.679   5.512 -0.2455  0.6157 -0.1885
   37CHL1   H2A 2712   4.266   4.644   5.476 -0.3858 -0.6216  1.2592
   37CHL1   H2B 2713   4.440   4.599   5.495 -1.7610 -1.6000  2.4839
   37CHL1   C20 2714   4.410   4.871   6.435  0.1261  0.1178 -0.1103
   37CHL1   H20 2715   4.515   4.851   6.466  0.3230 -0.2446 -0.9687
   37CHL1   C21 2716   4.336   4.736   6.428 -0.3862  0.2447  0.3030
   37CHL1  H21A 2717   4.324   4.691   6.529  0.0348 -0.7331 -0.0680
   37CHL1  H21B 2718   4.403   4.669   6.370  0.8564  1.2060  0.5707
   37CHL1  H21C 2719   4.242   4.734   6.370 -0.9630  0.9450  1.1945
   37CHL1   C22 2720   4.340   4.955   6.542  0.3089  0.0277  0.6994
   37CHL1  H22A 2721   4.384   5.057   6.537  0.8108 -0.2345 -2.3992
   37CHL1  H22B 2722   4.231   4.966   6.524  0.4335 -0.0012 -0.1291
   37CHL1   C23 2723   4.361   4.911   6.685  0.6069  0.1608  0.2910
   37CHL1  H23A 2724   4.285   4.833   6.708 -2.5700  1.8400 -3.3152
   37CHL1  H23B 2725   4.460   4.864   6.700  1.4649  2.3388  2.1884
   37CHL1   C24 2726   4.347   5.031   6.781 -0.6264  1.0812 -0.2649
   37CHL1  H24A 2727   4.415   5.111   6.744 -1.6437  1.3073 -1.7566
   37CHL1  H24B 2728   4.250   5.085   6.780 -0.1480  2.2636  3.1529
   37CHL1   C25 2729   4.372   4.997   6.926  0.4495 -0.3773  0.3734
   37CHL1   H25 2730   4.467   4.940   6.941 -0.9462 -2.4636  1.9829
   37CHL1   C26 2731   4.389   5.120   7.015 -0.3124 -0.0672 -0.9150
   37CHL1  H26A 2732   4.315   5.195   6.978 -2.0859 -1.8591 -1.2242
   37CHL1  H26B 2733   4.367   5.090   7.120  3.4523 -0.8638 -0.2143
   37CHL1  H26C 2734   4.488   5.166   6.996 -0.0480 -1.1025 -2.1818
   37CHL1   C27 2735   4.256   4.916   6.981 -0.1626  0.2828  0.5762
   37CHL1  H27A 2736   4.257   4.890   7.089  0.7015 -1.0738  0.2585
   37CHL1  H27B 2737   4.156   4.959   6.955  0.0102  0.3923  0.0940
   37CHL1  H27C 2738   4.264   4.821   6.924 -1.7782  0.8812 -0.7316
   38CHL1    C3 2739   5.804   3.155   5.280 -0.4251 -0.3972  0.4611
   38CHL1    H3 2740   5.803   3.262   5.309 -0.9257 -1.0272  3.0005
   38CHL1    O3 2741   5.813   3.155   5.135 -0.7640  0.2200  0.5223
   38CHL1   H3' 2742   5.724   3.187   5.115 -0.7645 -0.2035 -0.1904
   38CHL1    C4 2743   5.940   3.098   5.341 -0.0261 -0.2184  0.4141
   38CHL1   H4A 2744   5.961   2.992   5.316  0.9249  0.1438 -0.3453
   38CHL1   H4B 2745   6.022   3.157   5.295  1.8870 -1.6143  1.8953
   38CHL1    C5 2746   5.933   3.094   5.492  0.3964  0.1142 -0.2687
   38CHL1    C6 2747   6.031   3.164   5.558  0.1544  0.0668  0.8338
   38CHL1    H6 2748   6.107   3.225   5.509  0.2170  0.5734  1.5395
   38CHL1    C7 2749   6.033   3.166   5.709 -0.3596  0.6352 -0.0549
   38CHL1   H7A 2750   6.131   3.131   5.747 -0.6272 -0.3156 -0.2142
   38CHL1   H7B 2751   6.013   3.269   5.745  0.1023  0.4263  0.8120
   38CHL1    C8 2752   5.931   3.065   5.783  0.2021 -0.3659  0.0483
   38CHL1    H8 2753   5.978   2.965   5.777  0.3626 -0.3124  0.3690
   38CHL1   C14 2754   5.914   3.113   5.926  0.4184 -0.3524  0.1072
   38CHL1   H14 2755   5.878   3.216   5.941  0.8965 -0.3207  1.0818
   38CHL1   C15 2756   6.046   3.122   6.000 -0.1107  0.3942  0.2735
   38CHL1  H15A 2757   6.113   3.039   5.968 -0.5231 -0.1342  0.7395
   38CHL1  H15B 2758   6.087   3.222   5.976 -1.0785  1.0060  1.0793
   38CHL1   C16 2759   6.005   3.123   6.149 -0.1213 -0.6959 -0.2587
   38CHL1  H16A 2760   6.057   3.042   6.204  2.9953  0.9913 -0.5365
   38CHL1  H16B 2761   6.026   3.225   6.188  0.1739 -1.6885  2.3541
   38CHL1   C17 2762   5.853   3.094   6.156 -0.3486  0.5355  0.2640
   38CHL1   H17 2763   5.791   3.186   6.150 -3.1878 -1.2017  0.6462
   38CHL1   C13 2764   5.825   3.025   6.019 -0.5689 -1.5183  0.0512
   38CHL1   C18 2765   5.887   2.883   6.034  0.2576 -0.1387  0.0628
   38CHL1  H18A 2766   5.979   2.890   6.095  0.0375  1.6258  0.2451
   38CHL1  H18B 2767   5.826   2.821   6.103  1.8985  1.0141  2.6808
   38CHL1  H18C 2768   5.905   2.829   5.939  0.4093 -0.9728  0.5621
   38CHL1   C12 2769   5.686   3.036   5.953  0.1646 -0.3809  0.2187
   38CHL1  H12A 2770   5.609   2.970   5.999 -0.4373 -1.0615 -1.6646
   38CHL1  H12B 2771   5.641   3.136   5.969  3.0385  0.9817  0.3919
   38CHL1   C11 2772   5.688   3.000   5.803  0.8324 -0.6267  0.2639
   38CHL1  H11A 2773   5.701   2.889   5.805  0.1884 -0.7765 -1.6887
   38CHL1  H11B 2774   5.588   3.012   5.755  1.3226  1.5638 -0.3120
   38CHL1    C9 2775   5.797   3.069   5.713 -0.3929 -0.1071  0.1958
   38CHL1    H9 2776   5.769   3.176   5.714  1.2614  0.3614 -0.5596
   38CHL1   C10 2777   5.810   3.036   5.560  0.4831  0.6375  0.0924
   38CHL1   C19 2778   5.803   2.879   5.541  0.2956 -0.1839 -0.2551
   38CHL1  H19A 2779   5.700   2.844   5.568  0.4499 -0.7041 -0.3346
   38CHL1  H19B 2780   5.819   2.856   5.434 -2.3090  0.3427 -0.8320
   38CHL1  H19C 2781   5.874   2.827   5.609  0.0871 -0.4617 -0.2482
   38CHL1    C1 2782   5.679   3.088   5.488 -0.3010  0.1723  0.2529
   38CHL1   H1A 2783   5.592   3.028   5.521  0.2213 -0.8845 -0.2256
   38CHL1   H1B 2784   5.666   3.195   5.513 -4.3334 -0.1677  0.1708
   38CHL1    C2 2785   5.686   3.075   5.332 -0.0810 -0.3885 -0.1311
   38CHL1   H2A 2786   5.585   3.112   5.306  0.5183  4.0130  2.8019
   38CHL1   H2B 2787   5.696   2.970   5.298 -1.3284 -0.7782  0.6420
   38CHL1   C20 2788   5.809   3.030   6.294 -0.0522  0.1809  0.3465
   38CHL1   H20 2789   5.849   2.927   6.312 -0.5208  0.0856  0.8721
   38CHL1   C21 2790   5.658   3.020   6.287  0.2456  0.0891 -0.3672
   38CHL1  H21A 2791   5.627   2.977   6.385  2.3464  0.3943  0.4862
   38CHL1  H21B 2792   5.612   2.950   6.214 -2.2251  1.2544 -0.0105
   38CHL1  H21C 2793   5.614   3.119   6.261  2.2176  0.7074 -1.5839
   38CHL1   C22 2794   5.849   3.117   6.419 -1.0489 -0.0631  0.7071
   38CHL1  H22A 2795   5.804   3.069   6.508  1.8717 -2.6334  0.9698
   38CHL1  H22B 2796   5.957   3.100   6.436 -0.4342  2.0432 -0.6561
   38CHL1   C23 2797   5.814   3.262   6.416 -0.5067 -0.1314  0.0165
   38CHL1  H23A 2798   5.859   3.317   6.330  1.8868  1.3784  2.1045
   38CHL1  H23B 2799   5.704   3.275   6.417 -0.7856 -0.6466 -4.1326
   38CHL1   C24 2800   5.875   3.353   6.529  0.6207  0.3179  0.1835
   38CHL1  H24A 2801   5.857   3.314   6.631 -2.3529  2.3427  0.5831
   38CHL1  H24B 2802   5.984   3.358   6.508  0.5958  3.1612  0.3560
   38CHL1   C25 2803   5.831   3.497   6.528  0.4364 -0.8635 -0.3007
   38CHL1   H25 2804   5.726   3.509   6.494 -0.1655  1.0942  2.0007
   38CHL1   C26 2805   5.839   3.559   6.665  0.0102  0.4037  0.4287
   38CHL1  H26A 2806   5.805   3.664   6.653  0.6307  0.4482 -1.2646
   38CHL1  H26B 2807   5.767   3.503   6.729  0.9464  1.9489  2.9308
   38CHL1  H26C 2808   5.932   3.561   6.725  0.6519 -2.6712 -0.2848
   38CHL1   C27 2809   5.913   3.579   6.426 -0.0591 -0.5314 -0.5434
   38CHL1  H27A 2810   5.893   3.540   6.324  0.5171 -1.8238 -0.1930
   38CHL1  H27B 2811   5.888   3.687   6.422  2.2554  0.0867  0.1756
   38CHL1  H27C 2812   6.023   3.569   6.443 -0.5801 -0.5044  3.8391
   39CHL1    C3 2813   1.658   2.645   5.198 -0.4036  0.2491 -0.0333
   39CHL1    H3 2814   1.718   2.553   5.182  1.4482  0.7520  3.2536
   39CHL1    O3 2815   1.678   2.737   5.090  0.2393 -0.2441 -0.2093
   39CHL1   H3' 2816   1.649   2.687   5.014  0.6692 -1.4615  0.4122
   39CHL1    C4 2817   1.514   2.600   5.211 -0.0518 -0.7893 -0.0682
   39CHL1   H4A 2818   1.441   2.682   5.230 -1.0082 -1.6359 -0.0153
   39CHL1   H4B 2819   1.494   2.549   5.114 -1.3115 -1.7012  0.6492
   39CHL1    C5 2820   1.510   2.508   5.334 -0.0007  0.0152 -0.1625
   39CHL1    C6 2821   1.465   2.387   5.329  0.0998 -0.5158  0.1309
   39CHL1    H6 2822   1.442   2.348   5.229 -3.1695  0.9698  0.1724
   39CHL1    C7 2823   1.452   2.292   5.442 -0.6128 -0.0827 -0.1638
   39CHL1   H7A 2824   1.363   2.227   5.428 -1.4637  1.1936 -0.8811
   39CHL1   H7B 2825   1.547   2.237   5.462 -0.1909  1.1752  1.5513
   39CHL1    C8 2826   1.437   2.362   5.580 -0.3970  0.2149  0.1356
   39CHL1    H8 2827   1.342   2.419   5.571 -0.0823  0.8528  0.7065
   39CHL1   C14 2828   1.432   2.272   5.697  0.1396 -0.2988  0.4055
   39CHL1   H14 2829   1.530   2.219   5.701  1.2881  1.7881  2.1726
   39CHL1   C15 2830   1.322   2.158   5.695  0.0005  0.1612  0.4606
   39CHL1  H15A 2831   1.224   2.195   5.659 -0.5434 -1.9622 -0.3776
   39CHL1  H15B 2832   1.352   2.075   5.628  1.5330  2.3704 -1.7698
   39CHL1   C16 2833   1.322   2.108   5.839  0.8400  0.1465  0.1054
   39CHL1  H16A 2834   1.223   2.104   5.890  1.0616 -2.3527  0.4636
   39CHL1  H16B 2835   1.366   2.006   5.835 -0.3708 -0.5047  1.9924
   39CHL1   C17 2836   1.408   2.212   5.921 -0.8670 -0.2256  0.4257
   39CHL1   H17 2837   1.515   2.182   5.916 -0.5578  0.4535  2.2287
   39CHL1   C13 2838   1.415   2.339   5.831 -0.3265 -0.0211 -0.3589
   39CHL1   C18 2839   1.277   2.400   5.849  0.4599  0.0736  0.7163
   39CHL1  H18A 2840   1.202   2.320   5.869  1.5392 -0.8972  1.0048
   39CHL1  H18B 2841   1.280   2.458   5.944  1.3256 -1.7305  1.8608
   39CHL1  H18C 2842   1.253   2.470   5.766  0.1687  0.8649  1.4537
   39CHL1   C12 2843   1.529   2.444   5.857 -0.6680 -0.1924 -0.2222
   39CHL1  H12A 2844   1.504   2.501   5.949  1.7399  0.0021  0.3730
   39CHL1  H12B 2845   1.625   2.397   5.886 -0.9691  0.0782  1.2664
   39CHL1   C11 2846   1.533   2.548   5.732  0.1326  0.1444 -0.2154
   39CHL1  H11A 2847   1.430   2.588   5.737 -1.0063 -2.5970  0.2987
   39CHL1  H11B 2848   1.609   2.627   5.749  0.0481 -0.0441  1.1835
   39CHL1    C9 2849   1.536   2.477   5.592  0.0987  0.5259  0.0286
   39CHL1    H9 2850   1.639   2.434   5.594  0.6988  1.9304  0.6710
   39CHL1   C10 2851   1.538   2.580   5.465 -0.8214 -0.1191  0.1579
   39CHL1   C19 2852   1.437   2.688   5.494  0.1733 -0.3706 -0.1710
   39CHL1  H19A 2853   1.471   2.730   5.591  0.5120 -3.2567  1.0547
   39CHL1  H19B 2854   1.434   2.769   5.418  0.4262 -0.3749 -0.1837
   39CHL1  H19C 2855   1.336   2.644   5.509  0.5226 -0.4761  2.3321
   39CHL1    C1 2856   1.686   2.631   5.450  0.0789 -0.2755 -0.1097
   39CHL1   H1A 2857   1.701   2.697   5.538  0.4146 -1.9682  1.1519
   39CHL1   H1B 2858   1.756   2.545   5.453  1.3782  0.7237 -0.8284
   39CHL1    C2 2859   1.706   2.717   5.324  0.0269  0.0427  0.0420
   39CHL1   H2A 2860   1.814   2.739   5.316  0.6948 -2.9774 -0.4396
   39CHL1   H2B 2861   1.644   2.810   5.329 -0.7260 -0.3142 -2.0179
   39CHL1   C20 2862   1.362   2.211   6.070 -0.0876 -0.3250 -0.0004
   39CHL1   H20 2863   1.253   2.233   6.071  0.0865  0.5401  0.4887
   39CHL1   C21 2864   1.425   2.327   6.146  0.4427  0.0328  0.0684
   39CHL1  H21A 2865   1.387   2.342   6.250  0.7782  1.4587  0.0142
   39CHL1  H21B 2866   1.405   2.428   6.104 -0.8558  0.5856  1.8579
   39CHL1  H21C 2867   1.535   2.312   6.137  0.6653  1.8391 -0.6039
   39CHL1   C22 2868   1.389   2.071   6.137 -0.0293  0.0041  0.0580
   39CHL1  H22A 2869   1.410   1.994   6.060 -0.1225  1.6101 -1.6669
   39CHL1  H22B 2870   1.491   2.082   6.180 -0.1063  0.6819  0.0777
   39CHL1   C23 2871   1.278   2.016   6.226 -0.1329  0.0126  0.2703
   39CHL1  H23A 2872   1.258   2.090   6.306 -0.3186  2.3599 -1.8275
   39CHL1  H23B 2873   1.189   1.994   6.163  0.0042  1.4394 -0.4585
   39CHL1   C24 2874   1.322   1.890   6.296 -0.1893  0.8955 -0.9265
   39CHL1  H24A 2875   1.355   1.806   6.231 -1.5676 -0.8080  0.4659
   39CHL1  H24B 2876   1.394   1.917   6.376 -1.4430  1.1174  0.1467
   39CHL1   C25 2877   1.196   1.842   6.382 -0.5494 -0.1557 -0.6737
   39CHL1   H25 2878   1.158   1.936   6.428  0.6906  0.6604 -1.2440
   39CHL1   C26 2879   1.095   1.751   6.298  0.2567  0.7585 -0.1916
   39CHL1  H26A 2880   1.012   1.724   6.367  0.3858 -0.1520 -0.3926
   39CHL1  H26B 2881   1.051   1.800   6.209  0.5316 -1.8845 -1.8646
   39CHL1  H26C 2882   1.141   1.653   6.277  2.0823  1.2559  1.1945
   39CHL1   C27 2883   1.226   1.772   6.512 -0.1857 -0.2825 -0.1343
   39CHL1  H27A 2884   1.310   1.816   6.571 -1.5130  0.9412  0.9135
   39CHL1  H27B 2885   1.136   1.774   6.578 -1.0238 -2.7352 -1.1091
   39CHL1  H27C 2886   1.266   1.674   6.479  1.8598  0.8386 -1.2323
   40CHL1    C3 2887   5.524   2.587   5.501 -0.8973 -1.2764 -0.9608
   40CHL1    H3 2888   5.590   2.597   5.590 -0.6992 -0.0300 -1.2174
   40CHL1    O3 2889   5.595   2.615   5.381 -0.6769  0.0338 -0.0890
   40CHL1   H3' 2890   5.685   2.596   5.407 -0.8960 -3.0411 -1.1600
   40CHL1    C4 2891   5.471   2.451   5.506 -0.2856  0.1762  1.1989
   40CHL1   H4A 2892   5.408   2.445   5.415  0.8371  2.4803  0.1959
   40CHL1   H4B 2893   5.558   2.382   5.498 -0.1623  0.5209 -0.9916
   40CHL1    C5 2894   5.394   2.424   5.634  0.5739  0.3496  0.3248
   40CHL1    C6 2895   5.410   2.321   5.708 -0.5267 -0.2418  0.1537
   40CHL1    H6 2896   5.480   2.243   5.676 -0.5360  0.3797 -1.4894
   40CHL1    C7 2897   5.337   2.288   5.831  0.5919 -0.4084  0.2486
   40CHL1   H7A 2898   5.296   2.185   5.818  0.8220 -0.3236 -1.5032
   40CHL1   H7B 2899   5.396   2.293   5.924  1.6479  2.0769 -0.4792
   40CHL1    C8 2900   5.212   2.377   5.853 -0.2579 -1.0676  0.0915
   40CHL1    H8 2901   5.136   2.349   5.776 -0.7639 -3.1938  1.2936
   40CHL1   C14 2902   5.166   2.366   5.994  0.6254 -0.0614 -0.3135
   40CHL1   H14 2903   5.254   2.393   6.057  0.1336  1.1531 -0.1126
   40CHL1   C15 2904   5.128   2.228   6.043  0.1313 -0.8657  0.1103
   40CHL1  H15A 2905   5.067   2.187   5.960  0.7665 -0.4450 -0.5805
   40CHL1  H15B 2906   5.211   2.157   6.064  1.7559  0.6977 -0.7106
   40CHL1   C16 2907   5.042   2.258   6.173  0.3670  0.3323  0.0108
   40CHL1  H16A 2908   4.947   2.200   6.179  1.5760 -2.0099 -1.9101
   40CHL1  H16B 2909   5.107   2.238   6.261  0.2387 -1.3175 -0.2300
   40CHL1   C17 2910   5.023   2.417   6.175 -0.4951  0.4581  0.4458
   40CHL1   H17 2911   5.107   2.456   6.237 -1.3656  2.0687  0.6603
   40CHL1   C13 2912   5.050   2.468   6.030 -0.7593  0.9337  0.0163
   40CHL1   C18 2913   4.922   2.433   5.958 -0.1744 -0.4600 -0.3353
   40CHL1  H18A 2914   4.860   2.525   5.947  0.8400  0.1209 -1.4452
   40CHL1  H18B 2915   4.955   2.417   5.853  0.9552  0.6226 -0.1741
   40CHL1  H18C 2916   4.863   2.353   6.008 -2.2230  1.0287 -0.2216
   40CHL1   C12 2917   5.112   2.612   6.011  0.1436  0.0905 -0.2906
   40CHL1  H12A 2918   5.035   2.691   6.027 -0.7996 -1.0738  1.1565
   40CHL1  H12B 2919   5.189   2.635   6.086  0.1924  3.1309 -1.1470
   40CHL1   C11 2920   5.155   2.636   5.866  0.1492  0.2452  0.4150
   40CHL1  H11A 2921   5.065   2.637   5.801  1.2487  0.2271 -1.1447
   40CHL1  H11B 2922   5.189   2.741   5.852 -1.6063  0.6287 -1.6443
   40CHL1    C9 2923   5.254   2.522   5.824  0.2164 -0.7121 -0.0104
   40CHL1    H9 2924   5.346   2.537   5.883  0.9011 -1.1155 -0.9592
   40CHL1   C10 2925   5.293   2.536   5.674  0.2537 -0.0011  0.2461
   40CHL1   C19 2926   5.175   2.520   5.576  0.0946  0.2061  0.2096
   40CHL1  H19A 2927   5.215   2.533   5.473  3.1276  0.5686  1.3312
   40CHL1  H19B 2928   5.129   2.419   5.573 -1.5571  0.7538  3.0284
   40CHL1  H19C 2929   5.110   2.609   5.591  0.9253  0.7788  0.4858
   40CHL1    C1 2930   5.350   2.682   5.643  0.2927  0.1912 -0.0486
   40CHL1   H1A 2931   5.270   2.760   5.647  1.6076  1.7216 -1.6617
   40CHL1   H1B 2932   5.415   2.716   5.726  0.7196 -2.1497  0.6302
   40CHL1    C2 2933   5.430   2.701   5.512  0.4357 -0.1879 -1.0808
   40CHL1   H2A 2934   5.474   2.802   5.499 -2.4006  1.0918 -1.6337
   40CHL1   H2B 2935   5.359   2.707   5.427 -0.1581 -0.4912 -0.6217
   40CHL1   C20 2936   4.892   2.466   6.248 -0.2730  0.8574 -0.1510
   40CHL1   H20 2937   4.798   2.438   6.196 -0.4913  0.6661  0.3345
   40CHL1   C21 2938   4.885   2.614   6.265  0.4775  0.2177  0.2281
   40CHL1  H21A 2939   4.973   2.657   6.317 -1.3471  3.5148  0.8981
   40CHL1  H21B 2940   4.794   2.641   6.323  0.5296 -1.2783  1.0446
   40CHL1  H21C 2941   4.873   2.664   6.166 -2.1705 -0.8465 -0.0748
   40CHL1   C22 2942   4.881   2.391   6.387 -0.2161 -0.0572  0.3002
   40CHL1  H22A 2943   4.865   2.285   6.358  0.3922  0.0024 -0.2671
   40CHL1  H22B 2944   4.972   2.407   6.448  0.6472 -0.6781 -0.7976
   40CHL1   C23 2945   4.760   2.428   6.474  0.3971 -0.0514 -0.0016
   40CHL1  H23A 2946   4.785   2.516   6.537  3.7172 -2.6311  2.7052
   40CHL1  H23B 2947   4.680   2.451   6.401  0.9411  0.3700 -0.4827
   40CHL1   C24 2948   4.737   2.313   6.580  0.3087 -0.5400 -0.5169
   40CHL1  H24A 2949   4.715   2.219   6.526 -1.1373 -0.2844 -0.4126
   40CHL1  H24B 2950   4.829   2.301   6.642  1.0742  0.4768 -1.4113
   40CHL1   C25 2951   4.623   2.350   6.669  0.3407  0.0877  0.1698
   40CHL1   H25 2952   4.640   2.446   6.722 -1.4057  0.5657 -0.0770
   40CHL1   C26 2953   4.490   2.354   6.589  0.1672 -0.2668 -0.2168
   40CHL1  H26A 2954   4.407   2.394   6.652 -1.3268 -0.1481 -2.1702
   40CHL1  H26B 2955   4.484   2.398   6.487 -2.0922 -3.6613 -1.7361
   40CHL1  H26C 2956   4.466   2.247   6.571  0.7202 -0.2600 -1.0622
   40CHL1   C27 2957   4.607   2.232   6.773  0.2815 -0.6671 -1.5122
   40CHL1  H27A 2958   4.521   2.248   6.841  0.9619 -0.7014 -0.6267
   40CHL1  H27B 2959   4.608   2.140   6.711 -0.3109 -1.4337 -0.4030
   40CHL1  H27C 2960   4.700   2.234   6.835  0.0683 -0.3908 -1.1999
   41CHL1    C3 2961   0.732   4.567   5.396  0.8127 -0.0942  0.0021
   41CHL1    H3 2962   0.623   4.565   5.421  0.6953 -2.6815 -0.4371
   41CHL1    O3 2963   0.736   4.587   5.253  0.2446 -1.0432  0.1095
   41CHL1   H3' 2964   0.826   4.618   5.252 -0.7469  2.2676 -0.2026
   41CHL1    C4 2965   0.810   4.679   5.464  0.7157  0.6265  0.0601
   41CHL1   H4A 2966   0.909   4.700   5.419  0.9411  1.5806  0.9577
   41CHL1   H4B 2967   0.761   4.777   5.449  0.0463  0.2946  0.0352
   41CHL1    C5 2968   0.832   4.652   5.613 -0.0537  0.5497  0.2433
   41CHL1    C6 2969   0.792   4.740   5.705  0.3951  0.0692 -0.5410
   41CHL1    H6 2970   0.751   4.837   5.673  1.2019  0.7369  0.3866
   41CHL1    C7 2971   0.810   4.722   5.859 -0.2312  0.1026  0.3064
   41CHL1   H7A 2972   0.857   4.806   5.914 -0.6144  0.4041  0.1772
   41CHL1   H7B 2973   0.715   4.687   5.903 -0.8315  0.9511 -0.2935
   41CHL1    C8 2974   0.906   4.606   5.890  0.2319 -0.0759  0.1763
   41CHL1    H8 2975   1.011   4.627   5.861  0.4713 -1.0425  0.2932
   41CHL1   C14 2976   0.909   4.581   6.037 -0.1943 -0.4337  0.0571
   41CHL1   H14 2977   0.806   4.546   6.060 -0.3019 -1.1961 -1.4185
   41CHL1   C15 2978   0.934   4.705   6.129 -0.0010  0.1796 -0.2256
   41CHL1  H15A 2979   1.027   4.753   6.093 -0.3497  1.9367  1.0536
   41CHL1  H15B 2980   0.855   4.782   6.133 -1.9268 -1.6601 -0.9418
   41CHL1   C16 2981   0.957   4.636   6.266 -0.2850  0.5912  0.0117
   41CHL1  H16A 2982   1.050   4.673   6.315  0.7052 -0.1609 -1.2304
   41CHL1  H16B 2983   0.870   4.643   6.334 -0.2504 -2.0109  0.3993
   41CHL1   C17 2984   0.961   4.483   6.246 -0.9809 -0.1905  0.0059
   41CHL1   H17 2985   0.860   4.442   6.267 -0.5973 -1.1060  0.1492
   41CHL1   C13 2986   0.986   4.458   6.088  0.1783 -0.4670 -1.2233
   41CHL1   C18 2987   1.133   4.484   6.060 -0.0065  0.3296  0.4232
   41CHL1  H18A 2988   1.197   4.399   6.091 -0.5192  1.2140  4.3209
   41CHL1  H18B 2989   1.141   4.503   5.950 -0.0031  0.8812  0.5146
   41CHL1  H18C 2990   1.178   4.569   6.115  1.3725  0.4292 -0.8056
   41CHL1   C12 2991   0.927   4.338   6.021 -0.1110  0.0278 -0.5930
   41CHL1  H12A 2992   0.980   4.245   6.049 -0.2719 -1.0911 -3.6031
   41CHL1  H12B 2993   0.828   4.326   6.070  0.7310 -0.8012  0.9674
   41CHL1   C11 2994   0.923   4.350   5.863  0.2184  0.3051  0.5114
   41CHL1  H11A 2995   1.028   4.334   5.832  1.1981 -2.4784  4.4880
   41CHL1  H11B 2996   0.853   4.273   5.825 -1.5421  0.7317  2.6941
   41CHL1    C9 2997   0.861   4.486   5.809 -0.2165 -0.6750 -0.4169
   41CHL1    H9 2998   0.752   4.474   5.828 -0.3400  1.8709  0.9894
   41CHL1   C10 2999   0.887   4.511   5.655 -0.2954  0.1195  1.1313
   41CHL1   C19 3000   1.040   4.499   5.615 -1.0471 -0.1229 -0.5662
   41CHL1  H19A 3001   1.071   4.394   5.635  0.3092 -0.0059 -1.9498
   41CHL1  H19B 3002   1.059   4.519   5.508  1.7671  1.9410  0.2099
   41CHL1  H19C 3003   1.101   4.563   5.683 -0.4701 -0.3131 -0.9002
   41CHL1    C1 3004   0.803   4.400   5.577 -0.7714 -0.6001 -0.3410
   41CHL1   H1A 3005   0.858   4.307   5.603  1.3055  1.4959  3.7702
   41CHL1   H1B 3006   0.708   4.403   5.634 -0.0275  2.7676  0.9861
   41CHL1    C2 3007   0.793   4.430   5.434  0.1937  0.1903  0.2854
   41CHL1   H2A 3008   0.745   4.354   5.369  0.0745  0.6609 -0.1822
   41CHL1   H2B 3009   0.897   4.431   5.394  0.4211  0.2785  0.8649
   41CHL1   C20 3010   1.062   4.413   6.344 -0.0531 -0.2268 -0.4093
   41CHL1   H20 3011   1.163   4.458   6.342 -0.0647 -0.1134  0.7289
   41CHL1   C21 3012   1.080   4.260   6.316  0.3519 -0.8872 -0.1686
   41CHL1  H21A 3013   1.110   4.222   6.216  1.0571 -0.8581  0.0299
   41CHL1  H21B 3014   0.979   4.221   6.341 -0.5172 -0.2966 -2.4249
   41CHL1  H21C 3015   1.161   4.220   6.380 -1.6077 -1.1906  2.2578
   41CHL1   C22 3016   1.022   4.423   6.496  0.2120 -0.1672  0.6098
   41CHL1  H22A 3017   0.961   4.515   6.512 -1.9456 -1.4520  0.2490
   41CHL1  H22B 3018   0.952   4.342   6.527 -0.2779 -0.3245 -0.8431
   41CHL1   C23 3019   1.142   4.427   6.595  0.2358 -0.1395 -0.1623
   41CHL1  H23A 3020   1.210   4.340   6.598  1.4508  0.7941 -0.0946
   41CHL1  H23B 3021   1.206   4.499   6.540  0.2867  3.1208  3.7088
   41CHL1   C24 3022   1.115   4.473   6.736 -0.1487 -0.4349 -0.6674
   41CHL1  H24A 3023   1.054   4.566   6.741 -1.2099 -1.1082 -0.6949
   41CHL1  H24B 3024   1.045   4.403   6.787 -0.8443  0.7216  0.0035
   41CHL1   C25 3025   1.245   4.485   6.822  0.7906  0.4935  0.1759
   41CHL1   H25 3026   1.279   4.380   6.810 -0.6266  0.2414 -2.6502
   41CHL1   C26 3027   1.352   4.578   6.774  0.4232  0.5460  0.6939
   41CHL1  H26A 3028   1.439   4.571   6.843 -1.2449 -1.4083  2.7472
   41CHL1  H26B 3029   1.386   4.550   6.672  2.1244  1.6471  0.9044
   41CHL1  H26C 3030   1.304   4.678   6.776 -2.3409 -0.7008  0.8308
   41CHL1   C27 3031   1.196   4.512   6.959 -0.4550  0.1783 -0.0439
   41CHL1  H27A 3032   1.175   4.621   6.969  4.1398  1.1995  0.7404
   41CHL1  H27B 3033   1.106   4.454   6.988  0.2883  0.1190  2.3021
   41CHL1  H27C 3034   1.273   4.486   7.034 -1.7751  1.1895  1.7421
   42CHL1    C3 3035   3.887   5.139   5.278 -0.6377 -0.3013 -0.2963
   42CHL1    H3 3036   3.779   5.164   5.266 -0.2574  0.5439 -2.1724
   42CHL1    O3 3037   3.923   5.080   5.155 -0.0291 -0.5609  0.2918
   42CHL1   H3' 3038   3.990   5.015   5.178 -1.0206 -1.3949  0.9177
   42CHL1    C4 3039   3.973   5.261   5.310  0.1617  0.1928 -0.0026
   42CHL1   H4A 3040   4.079   5.235   5.294 -0.4079 -1.4798 -1.3968
   42CHL1   H4B 3041   3.947   5.347   5.243 -3.4024  0.4898  1.5399
   42CHL1    C5 3042   3.958   5.296   5.459  0.7383 -0.9123  0.1038
   42CHL1    C6 3043   3.910   5.415   5.492  0.5118  0.5461 -0.1351
   42CHL1    H6 3044   3.881   5.495   5.422 -0.1387 -1.4785 -2.3198
   42CHL1    C7 3045   3.914   5.468   5.634 -0.8680  0.7282 -0.7040
   42CHL1   H7A 3046   3.974   5.561   5.632 -1.0634  0.8854 -3.9944
   42CHL1   H7B 3047   3.811   5.490   5.668 -0.7100 -2.3238  2.3120
   42CHL1    C8 3048   3.980   5.379   5.744  1.0302  0.1926 -0.1334
   42CHL1    H8 3049   4.091   5.376   5.731  0.9803  0.4973 -0.6507
   42CHL1   C14 3050   3.945   5.418   5.885  0.1932 -0.5738  0.4319
   42CHL1   H14 3051   3.835   5.406   5.895 -0.1821  0.2511 -2.1070
   42CHL1   C15 3052   3.953   5.565   5.926 -0.4839  0.7398 -0.2058
   42CHL1  H15A 3053   4.055   5.598   5.896  0.1795  0.2107  1.3382
   42CHL1  H15B 3054   3.884   5.642   5.885 -0.0699  0.6424 -1.1068
   42CHL1   C16 3055   3.940   5.554   6.073 -0.2917 -0.4483 -0.2464
   42CHL1  H16A 3056   4.012   5.620   6.126 -2.7525  0.8813  1.7146
   42CHL1  H16B 3057   3.842   5.593   6.110 -0.9527 -0.6516 -1.7281
   42CHL1   C17 3058   3.954   5.411   6.121  0.3870  0.7299 -0.7815
   42CHL1   H17 3059   3.856   5.365   6.143  1.8707 -1.5527  1.6391
   42CHL1   C13 3060   4.007   5.334   5.995 -0.4147 -0.0223  0.2592
   42CHL1   C18 3061   4.165   5.351   6.001  0.3870 -0.3401 -0.1542
   42CHL1  H18A 3062   4.196   5.456   6.019  0.9892 -0.6676  0.7698
   42CHL1  H18B 3063   4.202   5.277   6.075  1.2594 -0.0308 -0.2720
   42CHL1  H18C 3064   4.207   5.319   5.903  1.7627  2.7447 -0.6998
   42CHL1   C12 3065   3.979   5.186   5.977  0.4825  0.6906 -0.4893
   42CHL1  H12A 3066   4.039   5.133   6.054 -0.5468  1.3600  0.8259
   42CHL1  H12B 3067   3.872   5.184   6.008  0.7872 -1.7177  0.6917
   42CHL1   C11 3068   4.012   5.133   5.833 -0.1428 -0.1802  0.5183
   42CHL1  H11A 3069   4.123   5.132   5.827 -0.1965 -2.0142 -2.6068
   42CHL1  H11B 3070   3.980   5.027   5.822  0.9880 -0.4139 -0.7169
   42CHL1    C9 3071   3.955   5.226   5.717 -0.3988  0.6667 -0.3341
   42CHL1    H9 3072   3.846   5.212   5.726 -0.3227  0.8980  1.1784
   42CHL1   C10 3073   3.988   5.192   5.568 -0.6988  0.2462  0.5740
   42CHL1   C19 3074   4.142   5.156   5.561  0.3312  0.0999 -0.8917
   42CHL1  H19A 3075   4.174   5.073   5.628  1.4708  2.5823  1.8120
   42CHL1  H19B 3076   4.179   5.137   5.457 -0.3698  0.2978 -1.1864
   42CHL1  H19C 3077   4.197   5.234   5.616  0.3633 -0.4308 -0.1580
   42CHL1    C1 3078   3.903   5.065   5.533 -0.4305 -0.5387 -0.0901
   42CHL1   H1A 3079   3.930   4.982   5.602 -1.7361  1.1074  2.5098
   42CHL1   H1B 3080   3.794   5.071   5.555 -1.3026 -0.3317 -3.7592
   42CHL1    C2 3081   3.907   5.028   5.388  0.0599  0.4039 -0.2825
   42CHL1   H2A 3082   3.841   4.942   5.364 -0.4256  0.8228 -0.4840
   42CHL1   H2B 3083   4.013   5.009   5.362 -0.1074  2.1762 -2.6326
   42CHL1   C20 3084   4.029   5.397   6.253 -0.5228  0.5335  0.2025
   42CHL1   H20 3085   4.133   5.430   6.232 -0.5638  0.6478  0.1798
   42CHL1   C21 3086   4.017   5.248   6.304  0.0158  0.1596  0.2615
   42CHL1  H21A 3087   4.081   5.175   6.250  0.3676  0.3745  0.3834
   42CHL1  H21B 3088   3.913   5.211   6.291  0.8924 -1.9556 -1.1686
   42CHL1  H21C 3089   4.046   5.252   6.411 -1.1067  0.2031  0.5756
   42CHL1   C22 3090   3.966   5.490   6.363  0.0220 -0.4653 -0.2347
   42CHL1  H22A 3091   4.022   5.481   6.458 -0.3037  0.6852  0.0815
   42CHL1  H22B 3092   3.993   5.595   6.342  2.5794 -0.9273  0.4477
   42CHL1   C23 3093   3.809   5.462   6.390 -0.0655 -0.3690 -0.0233
   42CHL1  H23A 3094   3.740   5.473   6.304 -0.5758  1.6498  0.5915
   42CHL1  H23B 3095   3.795   5.356   6.418  0.6931 -1.1815 -2.4286
   42CHL1   C24 3096   3.750   5.546   6.504  0.6682  0.0822  0.5937
   42CHL1  H24A 3097   3.641   5.526   6.495  0.4230  1.9803 -1.9772
   42CHL1  H24B 3098   3.780   5.505   6.603  0.8305 -1.8304 -0.2052
   42CHL1   C25 3099   3.760   5.699   6.492 -0.0756  0.1085 -0.3719
   42CHL1   H25 3100   3.867   5.725   6.478 -0.1572  0.0093 -1.2462
   42CHL1   C26 3101   3.681   5.746   6.365 -0.0509  0.0380 -0.4099
   42CHL1  H26A 3102   3.684   5.857   6.365 -1.5658  0.0940 -0.3523
   42CHL1  H26B 3103   3.724   5.715   6.267 -0.8215  0.7234 -0.9788
   42CHL1  H26C 3104   3.575   5.711   6.362 -0.3183  0.8778 -1.4892
   42CHL1   C27 3105   3.701   5.766   6.613 -0.1420 -0.4487 -0.5327
   42CHL1  H27A 3106   3.755   5.730   6.704  0.2132  3.4753  1.0485
   42CHL1  H27B 3107   3.700   5.877   6.606  0.8770 -0.0869  2.8417
   42CHL1  H27C 3108   3.593   5.748   6.629 -0.4458  0.5639 -1.3486
   43CHL1    C3 3109   4.937   5.489   5.596 -0.1792 -0.0540 -0.4848
   43CHL1    H3 3110   5.040   5.462   5.630 -0.0316  0.7166 -0.3186
   43CHL1    O3 3111   4.933   5.491   5.457  0.6488  0.4921 -0.1890
   43CHL1   H3' 3112   4.895   5.576   5.433 -0.2171  0.0030 -0.6048
   43CHL1    C4 3113   4.837   5.389   5.655  0.0781  0.3919  0.1365
   43CHL1   H4A 3114   4.738   5.403   5.605  0.5342 -0.4184 -1.0443
   43CHL1   H4B 3115   4.874   5.291   5.618 -0.8368 -0.1970  0.7371
   43CHL1    C5 3116   4.842   5.394   5.808  0.2934 -0.1936 -0.8139
   43CHL1    C6 3117   4.876   5.291   5.885 -0.3179  0.0331 -0.1988
   43CHL1    H6 3118   4.898   5.191   5.844  1.0474  0.2892 -0.1460
   43CHL1    C7 3119   4.878   5.279   6.036  0.2639 -1.4727 -0.1922
   43CHL1   H7A 3120   4.831   5.183   6.065 -0.8891 -1.1414 -0.9022
   43CHL1   H7B 3121   4.982   5.280   6.076 -0.7443  0.4239  2.7746
   43CHL1    C8 3122   4.795   5.404   6.088 -0.3613 -0.1130 -0.4075
   43CHL1    H8 3123   4.686   5.389   6.073 -0.0368 -1.9456 -1.1749
   43CHL1   C14 3124   4.823   5.414   6.244 -0.8683  0.6817 -0.2390
   43CHL1   H14 3125   4.930   5.441   6.255 -0.7984 -0.0230  0.9231
   43CHL1   C15 3126   4.817   5.283   6.335  0.2215 -0.0638  0.6830
   43CHL1  H15A 3127   4.715   5.243   6.319  0.7578 -1.1104 -0.2643
   43CHL1  H15B 3128   4.896   5.212   6.303  0.3614  0.9113 -1.3220
   43CHL1   C16 3129   4.838   5.346   6.470 -0.2815  0.2245 -0.4775
   43CHL1  H16A 3130   4.767   5.283   6.528  0.8445 -2.5705 -1.9523
   43CHL1  H16B 3131   4.939   5.329   6.514 -0.2376 -0.4681 -0.8309
   43CHL1   C17 3132   4.803   5.498   6.468  0.2237  0.3969 -0.3278
   43CHL1   H17 3133   4.896   5.557   6.472  1.6754 -1.8054  2.2671
   43CHL1   C13 3134   4.747   5.524   6.323 -0.0700  0.2281 -0.9043
   43CHL1   C18 3135   4.596   5.499   6.310  0.0424 -0.2341  0.5630
   43CHL1  H18A 3136   4.564   5.403   6.356 -1.9080 -0.6217 -1.4260
   43CHL1  H18B 3137   4.532   5.569   6.367  0.2592 -0.6290  1.3138
   43CHL1  H18C 3138   4.563   5.503   6.204  0.4186 -0.3359  0.4424
   43CHL1   C12 3139   4.793   5.658   6.254 -0.1617 -0.4805 -0.1066
   43CHL1  H12A 3140   4.746   5.746   6.302 -1.3572 -0.0874 -1.9071
   43CHL1  H12B 3141   4.904   5.667   6.265  0.2854 -1.6018 -2.9559
   43CHL1   C11 3142   4.776   5.662   6.099  0.6353  0.4068  0.7291
   43CHL1  H11A 3143   4.666   5.670   6.083  0.4862  0.4541  1.7085
   43CHL1  H11B 3144   4.831   5.748   6.056 -0.8495  0.8123 -0.4269
   43CHL1    C9 3145   4.828   5.536   6.021  0.1554  0.2181 -0.4714
   43CHL1    H9 3146   4.938   5.540   6.037  0.3103  1.6308 -1.6553
   43CHL1   C10 3147   4.804   5.528   5.866  0.2773 -0.3228  0.0496
   43CHL1   C19 3148   4.651   5.553   5.840  0.1225  0.3919  0.4498
   43CHL1  H19A 3149   4.583   5.478   5.885 -1.8721  0.4785 -2.1832
   43CHL1  H19B 3150   4.622   5.656   5.868 -0.6771  0.0009  1.0975
   43CHL1  H19C 3151   4.631   5.544   5.731 -0.4610 -0.4937  0.6188
   43CHL1    C1 3152   4.885   5.642   5.801 -0.5876 -0.8194  0.0071
   43CHL1   H1A 3153   4.863   5.745   5.837  0.5167 -0.5706  0.0038
   43CHL1   H1B 3154   4.990   5.632   5.836 -1.3652 -0.8834  2.4690
   43CHL1    C2 3155   4.880   5.627   5.642  0.1654 -0.3735 -0.2489
   43CHL1   H2A 3156   4.939   5.711   5.599  0.2487 -1.2905 -2.0301
   43CHL1   H2B 3157   4.777   5.652   5.609 -0.6486  0.9564  2.9189
   43CHL1   C20 3158   4.715   5.534   6.593 -0.3194  0.6498  0.9208
   43CHL1   H20 3159   4.616   5.486   6.582 -0.3839  1.1674 -1.2038
   43CHL1   C21 3160   4.700   5.681   6.588 -0.1395  0.1006 -0.4959
   43CHL1  H21A 3161   4.798   5.731   6.594  0.2660 -0.5119 -1.6936
   43CHL1  H21B 3162   4.633   5.709   6.673  2.5614 -0.8765  2.1516
   43CHL1  H21C 3163   4.649   5.710   6.494 -1.4013 -0.5095 -0.0260
   43CHL1   C22 3164   4.775   5.487   6.727  0.0091 -0.1443 -0.3291
   43CHL1  H22A 3165   4.796   5.378   6.727  2.9212  0.2922  1.5124
   43CHL1  H22B 3166   4.877   5.524   6.750 -0.2412 -0.4029  1.3044
   43CHL1   C23 3167   4.691   5.535   6.849 -0.2145 -0.6508 -0.0293
   43CHL1  H23A 3168   4.727   5.639   6.866  2.0770 -1.2989 -0.4738
   43CHL1  H23B 3169   4.585   5.530   6.818 -0.7526  0.4420  1.5436
   43CHL1   C24 3170   4.730   5.466   6.976 -0.1006  0.2978  0.8304
   43CHL1  H24A 3171   4.715   5.356   6.966 -2.2527  0.5651  0.6595
   43CHL1  H24B 3172   4.840   5.478   6.975  0.3909 -2.3144  4.1530
   43CHL1   C25 3173   4.647   5.513   7.101  0.3250 -0.0177  0.1722
   43CHL1   H25 3174   4.622   5.621   7.093 -1.2514 -0.3581  0.2181
   43CHL1   C26 3175   4.513   5.432   7.118  0.8139 -0.1142 -0.0823
   43CHL1  H26A 3176   4.461   5.436   7.021 -0.6227 -2.4575  0.5057
   43CHL1  H26B 3177   4.521   5.323   7.142 -2.5422 -0.5410 -0.4915
   43CHL1  H26C 3178   4.450   5.474   7.199  0.8095 -0.3108  0.0175
   43CHL1   C27 3179   4.723   5.496   7.231 -0.6436 -0.0604 -0.1920
   43CHL1  H27A 3180   4.825   5.538   7.214 -0.1523 -1.8141 -1.9923
   43CHL1  H27B 3181   4.696   5.574   7.305  1.6952  0.8721 -0.2256
   43CHL1  H27C 3182   4.728   5.397   7.281 -2.4298 -0.0079  0.1628
   44CHL1    C3 3183   3.709   5.920   4.837  0.2306  0.0307 -0.2301
   44CHL1    H3 3184   3.599   5.926   4.850  0.2220  1.8034 -0.8610
   44CHL1    O3 3185   3.739   5.900   4.703 -0.0514 -0.5169 -0.1074
   44CHL1   H3' 3186   3.835   5.911   4.700  0.3984 -3.4526 -3.1107
   44CHL1    C4 3187   3.772   6.046   4.887 -0.6294  0.3268 -0.7815
   44CHL1   H4A 3188   3.880   6.061   4.867 -0.4437  2.6412  1.4198
   44CHL1   H4B 3189   3.715   6.127   4.837 -0.7511  0.2497 -0.7673
   44CHL1    C5 3190   3.757   6.067   5.038 -0.3838 -0.5089 -0.2603
   44CHL1    C6 3191   3.698   6.175   5.091 -1.2564  0.7522 -0.6491
   44CHL1    H6 3192   3.657   6.254   5.026 -2.2583  0.8030  0.0134
   44CHL1    C7 3193   3.677   6.183   5.237 -0.9679  0.8104 -0.4448
   44CHL1   H7A 3194   3.702   6.285   5.274  1.5371 -0.0506  0.4173
   44CHL1   H7B 3195   3.572   6.163   5.267 -0.2065 -0.4139  1.6214
   44CHL1    C8 3196   3.770   6.090   5.321  0.2537 -1.0669 -0.3885
   44CHL1    H8 3197   3.873   6.130   5.308 -1.0992  2.8522 -0.3170
   44CHL1   C14 3198   3.728   6.103   5.470 -0.0720 -0.6218  0.1425
   44CHL1   H14 3199   3.619   6.081   5.464  0.4228 -3.1779 -3.0777
   44CHL1   C15 3200   3.736   6.249   5.541  0.2961 -0.0312  0.4812
   44CHL1  H15A 3201   3.834   6.292   5.512  0.6686 -1.0997  0.0950
   44CHL1  H15B 3202   3.655   6.317   5.507  3.1627  2.6594 -1.5484
   44CHL1   C16 3203   3.728   6.214   5.697 -0.5295 -0.2248 -0.5705
   44CHL1  H16A 3204   3.826   6.256   5.730 -0.2277 -2.0794  1.0494
   44CHL1  H16B 3205   3.651   6.265   5.759 -0.4539 -1.5177  0.6280
   44CHL1   C17 3206   3.739   6.058   5.702 -0.6865  0.7931 -0.1147
   44CHL1   H17 3207   3.636   6.016   5.695  0.6010 -2.3920 -2.6727
   44CHL1   C13 3208   3.799   6.007   5.562 -0.4946 -0.0338  0.9140
   44CHL1   C18 3209   3.953   6.032   5.558  1.0993 -0.2261  0.2891
   44CHL1  H18A 3210   3.997   5.945   5.611 -1.6033 -2.3272 -0.7253
   44CHL1  H18B 3211   4.007   6.049   5.462  3.2630 -0.9261  1.3115
   44CHL1  H18C 3212   3.968   6.127   5.615 -0.1876  1.1493 -1.5497
   44CHL1   C12 3213   3.775   5.863   5.512 -0.2875  0.9532  0.1322
   44CHL1  H12A 3214   3.822   5.786   5.576  2.1134 -0.2838 -2.8603
   44CHL1  H12B 3215   3.665   5.843   5.505 -0.2998  0.5813  1.2720
   44CHL1   C11 3216   3.824   5.845   5.369  0.4029  0.1059 -0.1686
   44CHL1  H11A 3217   3.935   5.847   5.358  0.3534 -0.0631 -0.6974
   44CHL1  H11B 3218   3.786   5.746   5.338 -0.7501  0.8477 -1.2554
   44CHL1    C9 3219   3.755   5.950   5.273  0.3052  0.6541 -0.1856
   44CHL1    H9 3220   3.645   5.936   5.266  0.5138 -0.7292 -1.0641
   44CHL1   C10 3221   3.810   5.943   5.127 -0.6368  0.0967  0.5282
   44CHL1   C19 3222   3.964   5.918   5.125  0.1723 -0.3849 -0.1348
   44CHL1  H19A 3223   4.008   5.918   5.023 -0.7459 -3.3575 -0.6357
   44CHL1  H19B 3224   4.011   5.991   5.194 -1.4347 -1.6613  2.5078
   44CHL1  H19C 3225   3.998   5.823   5.173 -1.1018 -0.8887 -0.1853
   44CHL1    C1 3226   3.740   5.817   5.059  0.1470  0.8427 -0.2478
   44CHL1   H1A 3227   3.779   5.723   5.105 -0.7087 -0.5337 -2.1801
   44CHL1   H1B 3228   3.630   5.825   5.072  0.2170  1.8432 -0.1832
   44CHL1    C2 3229   3.763   5.803   4.913 -0.4327  0.3712 -0.2865
   44CHL1   H2A 3230   3.709   5.712   4.879  1.9264 -1.3056  0.1926
   44CHL1   H2B 3231   3.871   5.779   4.901 -0.4659 -2.2399  3.1322
   44CHL1   C20 3232   3.808   6.009   5.829  0.3644 -0.1609  0.2650
   44CHL1   H20 3233   3.917   6.004   5.812  0.2099  2.3520 -2.3172
   44CHL1   C21 3234   3.748   5.876   5.875  0.0164  0.0443 -0.3391
   44CHL1  H21A 3235   3.808   5.822   5.952  1.4386  0.1260 -1.3667
   44CHL1  H21B 3236   3.758   5.805   5.790  2.4532  0.5922 -0.5754
   44CHL1  H21C 3237   3.639   5.890   5.897 -0.3152  2.3466 -2.9963
   44CHL1   C22 3238   3.791   6.120   5.942  0.1248  0.3617 -0.1843
   44CHL1  H22A 3239   3.855   6.206   5.913  1.8122 -0.6912  0.2480
   44CHL1  H22B 3240   3.684   6.151   5.944 -0.1041 -0.3892 -0.6419
   44CHL1   C23 3241   3.835   6.076   6.082  0.2880 -0.6503 -0.3711
   44CHL1  H23A 3242   3.760   6.001   6.113  1.4070 -1.8129 -0.3676
   44CHL1  H23B 3243   3.935   6.027   6.082  1.2545  1.2281 -0.3154
   44CHL1   C24 3244   3.854   6.190   6.178 -0.1801 -0.8173 -0.3870
   44CHL1  H24A 3245   3.904   6.273   6.124 -0.8345 -0.3738 -0.3257
   44CHL1  H24B 3246   3.753   6.226   6.210 -0.3441 -0.2883 -1.4570
   44CHL1   C25 3247   3.948   6.160   6.299 -0.8834 -0.7180 -0.6652
   44CHL1   H25 3248   4.048   6.134   6.259 -0.7227 -2.3526  0.6935
   44CHL1   C26 3249   3.955   6.285   6.393  0.2220  0.1601  0.2736
   44CHL1  H26A 3250   3.998   6.368   6.332 -1.4085  0.5018 -0.4753
   44CHL1  H26B 3251   3.848   6.305   6.417  0.3196  2.9492 -1.1866
   44CHL1  H26C 3252   4.011   6.269   6.487  0.5615  0.8582  0.1992
   44CHL1   C27 3253   3.895   6.039   6.382 -0.9051 -1.2424 -0.2262
   44CHL1  H27A 3254   3.807   6.064   6.445 -1.2811 -1.8659 -0.4892
   44CHL1  H27B 3255   3.855   5.962   6.312 -2.1566 -0.9339  0.1309
   44CHL1  H27C 3256   3.978   5.992   6.438 -0.4975 -2.1691 -1.5452
   45CHL1    C3 3257   5.016   6.785   5.072  0.3927  0.1254  0.5478
   45CHL1    H3 3258   5.123   6.753   5.081 -0.3994 -2.5895  1.4675
   45CHL1    O3 3259   4.970   6.756   4.939  0.0602  0.4300 -0.8241
   45CHL1   H3' 3260   4.893   6.812   4.926  1.3909  2.4809 -0.1964
   45CHL1    C4 3261   4.943   6.695   5.178 -0.6599  0.1540 -0.3638
   45CHL1   H4A 3262   4.835   6.720   5.177 -0.7227  0.2411 -3.4535
   45CHL1   H4B 3263   4.963   6.589   5.149 -2.1591  0.2167 -1.7850
   45CHL1    C5 3264   4.993   6.740   5.319 -0.1435 -0.0451  0.0784
   45CHL1    C6 3265   5.042   6.652   5.409  0.3779  1.2018  0.3260
   45CHL1    H6 3266   5.056   6.546   5.382 -3.2488  0.8748 -0.8516
   45CHL1    C7 3267   5.069   6.690   5.554  0.2729 -0.1347 -0.3625
   45CHL1   H7A 3268   5.015   6.617   5.618 -0.8534  0.4241 -0.6470
   45CHL1   H7B 3269   5.176   6.678   5.579  0.9321  1.0621 -2.2995
   45CHL1    C8 3270   5.018   6.830   5.601  0.2432  0.7107 -0.4932
   45CHL1    H8 3271   4.912   6.811   5.627  0.8397 -0.3334  1.3770
   45CHL1   C14 3272   5.085   6.880   5.723  0.1626 -0.1175 -0.6778
   45CHL1   H14 3273   5.194   6.893   5.708 -0.0742  1.9531 -0.8156
   45CHL1   C15 3274   5.077   6.785   5.851  0.6881 -0.4996  0.0124
   45CHL1  H15A 3275   4.972   6.749   5.852  0.5430 -0.2094 -1.4634
   45CHL1  H15B 3276   5.153   6.704   5.856  1.8792  0.5986  0.2061
   45CHL1   C16 3277   5.101   6.882   5.970  0.3176 -0.0802  0.0176
   45CHL1  H16A 3278   5.018   6.868   6.043 -0.5766  1.2643 -0.7040
   45CHL1  H16B 3279   5.188   6.860   6.036  3.5358 -0.0452 -3.8331
   45CHL1   C17 3280   5.117   7.025   5.905  0.2689 -0.3170  0.2636
   45CHL1   H17 3281   5.219   7.050   5.870  0.1300  1.0222  0.7327
   45CHL1   C13 3282   5.033   7.019   5.771 -0.1146  0.8962  0.3669
   45CHL1   C18 3283   4.881   7.011   5.798  0.3380  0.0942  0.0992
   45CHL1  H18A 3284   4.860   6.956   5.892 -0.5916 -0.7880 -0.6151
   45CHL1  H18B 3285   4.841   7.113   5.813 -0.3510 -0.1236 -0.2294
   45CHL1  H18C 3286   4.821   6.977   5.711  2.6769 -0.4208 -1.3998
   45CHL1   C12 3287   5.066   7.117   5.658  0.4362  0.6224 -0.3747
   45CHL1  H12A 3288   5.043   7.223   5.682  0.7548  0.4721  0.6388
   45CHL1  H12B 3289   5.173   7.125   5.629  0.2350  0.4500 -1.2183
   45CHL1   C11 3290   4.996   7.077   5.528 -0.0000 -0.1719  0.2631
   45CHL1  H11A 3291   4.890   7.106   5.540  0.0589  0.6894 -1.0266
   45CHL1  H11B 3292   5.026   7.147   5.446  0.8493 -0.6629  0.1444
   45CHL1    C9 3293   5.037   6.932   5.483  0.5822 -0.1242  0.8373
   45CHL1    H9 3294   5.146   6.934   5.464  0.5296  0.6704  0.5806
   45CHL1   C10 3295   4.966   6.896   5.353  0.6368  0.4256  1.0345
   45CHL1   C19 3296   4.816   6.914   5.378  0.4818 -0.4187 -0.2704
   45CHL1  H19A 3297   4.753   6.881   5.292 -1.0964 -2.0592  1.4122
   45CHL1  H19B 3298   4.794   6.846   5.463  1.1676 -0.4337 -0.1017
   45CHL1  H19C 3299   4.781   7.018   5.398  1.1132 -0.5857  1.9402
   45CHL1    C1 3300   5.028   6.968   5.232 -0.4000 -0.3289 -0.1054
   45CHL1   H1A 3301   5.019   7.077   5.251 -0.6623 -0.6269  1.7051
   45CHL1   H1B 3302   5.135   6.944   5.249 -0.3534  1.0407  1.8693
   45CHL1    C2 3303   4.989   6.927   5.093 -0.0935 -0.6733  0.1405
   45CHL1   H2A 3304   5.055   6.976   5.018 -2.7467  0.0345 -1.8828
   45CHL1   H2B 3305   4.886   6.960   5.069  0.3309  0.8158  0.2464
   45CHL1   C20 3306   5.058   7.120   6.013  0.3813 -0.5850 -0.1980
   45CHL1   H20 3307   4.952   7.094   6.034 -0.0043  0.3948 -0.8320
   45CHL1   C21 3308   5.066   7.267   5.956 -0.2951 -0.0112 -0.3187
   45CHL1  H21A 3309   5.165   7.303   5.920  0.2383  0.5677  1.5922
   45CHL1  H21B 3310   5.025   7.339   6.030  1.8590  0.7931  0.1780
   45CHL1  H21C 3311   4.989   7.271   5.876  0.0622 -0.6261 -0.7019
   45CHL1   C22 3312   5.133   7.116   6.147 -0.2358 -0.3888  0.4657
   45CHL1  H22A 3313   5.131   7.012   6.185  3.1694 -0.9161 -0.5087
   45CHL1  H22B 3314   5.239   7.131   6.119 -0.9586  0.1971 -2.2402
   45CHL1   C23 3315   5.072   7.218   6.253  0.5100  0.0610  1.2187
   45CHL1  H23A 3316   5.081   7.323   6.218  0.9245  0.2962  2.0162
   45CHL1  H23B 3317   4.965   7.186   6.254  0.4006  0.2420 -0.7974
   45CHL1   C24 3318   5.128   7.187   6.384  0.1744 -0.0670 -0.9322
   45CHL1  H24A 3319   5.109   7.080   6.408 -0.9711  0.1170 -0.9707
   45CHL1  H24B 3320   5.238   7.204   6.389  0.2717 -1.0130  0.9120
   45CHL1   C25 3321   5.060   7.271   6.497 -1.0182 -0.1389  0.7145
   45CHL1   H25 3322   4.952   7.244   6.495 -1.2939  0.9432 -0.3393
   45CHL1   C26 3323   5.116   7.226   6.635  0.4024 -0.0349 -0.0750
   45CHL1  H26A 3324   5.227   7.230   6.641  0.4446 -1.4996  0.6297
   45CHL1  H26B 3325   5.080   7.291   6.717  1.8530  1.6807 -0.7431
   45CHL1  H26C 3326   5.096   7.117   6.647 -1.7798  0.3751  0.4582
   45CHL1   C27 3327   5.067   7.423   6.485  0.9746  0.0402 -0.2178
   45CHL1  H27A 3328   5.053   7.477   6.581 -0.5717 -0.8654  0.1035
   45CHL1  H27B 3329   5.162   7.459   6.439  1.0012 -0.5821 -0.6724
   45CHL1  H27C 3330   4.990   7.463   6.415 -0.8958 -1.5048  0.8437
   46CHL1    C3 3331   0.703   6.540   5.160  0.3100  0.6230  0.2382
   46CHL1    H3 3332   0.789   6.469   5.156 -0.5594 -0.5667  1.6356
   46CHL1    O3 3333   0.674   6.593   5.034 -0.3097  0.6173 -0.2972
   46CHL1   H3' 3334   0.682   6.689   5.038  0.6491  0.5155  0.6610
   46CHL1    C4 3335   0.577   6.472   5.216 -1.4435  0.0783  0.1572
   46CHL1   H4A 3336   0.505   6.555   5.232  0.3849  1.6114  0.9208
   46CHL1   H4B 3337   0.537   6.401   5.141 -1.3208 -0.5742  0.7018
   46CHL1    C5 3338   0.615   6.411   5.346  0.1126 -0.1924 -0.4650
   46CHL1    C6 3339   0.599   6.282   5.379  0.2561 -0.2575  0.1132
   46CHL1    H6 3340   0.568   6.213   5.298  0.5825  0.8993 -1.0347
   46CHL1    C7 3341   0.623   6.227   5.518 -0.3350 -0.1561 -0.0723
   46CHL1   H7A 3342   0.536   6.163   5.547  0.5488 -0.3462  2.4287
   46CHL1   H7B 3343   0.708   6.156   5.511  0.3612  0.6732 -0.1319
   46CHL1    C8 3344   0.655   6.334   5.630  0.1044  0.9376  0.9588
   46CHL1    H8 3345   0.561   6.384   5.660  0.0027  1.2114  0.2073
   46CHL1   C14 3346   0.722   6.274   5.758 -0.0745  0.4408  0.7314
   46CHL1   H14 3347   0.815   6.224   5.725  0.2392 -0.0593  2.2718
   46CHL1   C15 3348   0.646   6.157   5.833  0.1214  0.2101  0.3318
   46CHL1  H15A 3349   0.539   6.187   5.829  0.0240 -0.3023 -1.6776
   46CHL1  H15B 3350   0.656   6.056   5.788  0.5500  0.6304 -0.5400
   46CHL1   C16 3351   0.706   6.164   5.974 -0.3272 -0.1456  0.1144
   46CHL1  H16A 3352   0.632   6.194   6.051 -0.4308  0.8964 -0.3775
   46CHL1  H16B 3353   0.749   6.064   5.998 -2.1183 -1.1397 -0.5721
   46CHL1   C17 3354   0.810   6.278   5.967 -0.9034 -0.1992 -0.4503
   46CHL1   H17 3355   0.908   6.244   5.927 -1.4651 -1.2491 -0.9845
   46CHL1   C13 3356   0.756   6.380   5.862  0.2466 -0.2913 -0.1170
   46CHL1   C18 3357   0.629   6.460   5.910 -0.8439  0.0814  0.0913
   46CHL1  H18A 3358   0.666   6.549   5.966  0.9970  0.1958 -1.2207
   46CHL1  H18B 3359   0.567   6.498   5.826 -0.6674 -0.2229 -0.1769
   46CHL1  H18C 3360   0.566   6.397   5.976  0.0555 -1.1297 -0.1778
   46CHL1   C12 3361   0.857   6.472   5.794 -0.5341  0.4997 -0.1801
   46CHL1  H12A 3362   0.883   6.547   5.873 -2.2669 -1.2396  2.2022
   46CHL1  H12B 3363   0.948   6.411   5.775 -0.5852  0.1502  0.6422
   46CHL1   C11 3364   0.793   6.549   5.675 -0.2869 -0.7206 -0.2821
   46CHL1  H11A 3365   0.717   6.621   5.714 -0.8433 -0.3340 -2.0093
   46CHL1  H11B 3366   0.872   6.605   5.620 -0.3634  0.4321  0.7312
   46CHL1    C9 3367   0.746   6.443   5.572 -0.1826  0.2718 -0.3113
   46CHL1    H9 3368   0.834   6.384   5.539 -0.0804  0.5569 -0.5573
   46CHL1   C10 3369   0.673   6.511   5.452 -0.8169 -0.2563 -0.2973
   46CHL1   C19 3370   0.567   6.609   5.508 -0.2705  0.4768 -0.3084
   46CHL1  H19A 3371   0.514   6.664   5.427  0.4115  3.1002  0.9156
   46CHL1  H19B 3372   0.504   6.554   5.581  1.5057 -1.6589 -0.2859
   46CHL1  H19C 3373   0.612   6.691   5.569 -1.4263  0.7344  0.2157
   46CHL1    C1 3374   0.782   6.600   5.388  0.5269  0.0156  0.0308
   46CHL1   H1A 3375   0.801   6.690   5.451  1.5714 -1.8008  2.4753
   46CHL1   H1B 3376   0.879   6.545   5.388 -0.0294 -1.0724 -2.1687
   46CHL1    C2 3377   0.748   6.655   5.251 -0.3895  0.1482  0.0056
   46CHL1   H2A 3378   0.838   6.697   5.201 -0.6540 -2.0733 -2.4899
   46CHL1   H2B 3379   0.677   6.738   5.275 -0.2185  0.2088  0.3106
   46CHL1   C20 3380   0.842   6.330   6.107  0.4232  0.0733 -0.0321
   46CHL1   H20 3381   0.745   6.370   6.141 -0.1370 -1.8617  0.8025
   46CHL1   C21 3382   0.944   6.445   6.118  0.6697 -0.0263  0.4043
   46CHL1  H21A 3383   1.037   6.425   6.061  1.0914  0.0883  1.0465
   46CHL1  H21B 3384   0.982   6.460   6.221  1.4546  1.4050 -0.0672
   46CHL1  H21C 3385   0.887   6.532   6.081  0.3574 -0.3883  0.0181
   46CHL1   C22 3386   0.893   6.217   6.201  0.7239 -0.4872  0.1305
   46CHL1  H22A 3387   0.851   6.117   6.173  2.0172 -0.5856 -1.6810
   46CHL1  H22B 3388   1.002   6.199   6.193  1.9020  3.9014  3.2004
   46CHL1   C23 3389   0.868   6.250   6.350  0.0757  0.1459  0.2857
   46CHL1  H23A 3390   0.924   6.343   6.375  2.6446 -1.1917 -0.1622
   46CHL1  H23B 3391   0.759   6.264   6.364 -0.3472 -0.3869 -2.1048
   46CHL1   C24 3392   0.919   6.136   6.444 -0.0499  0.6902 -0.5085
   46CHL1  H24A 3393   0.850   6.050   6.429  0.7781 -0.9287  3.6106
   46CHL1  H24B 3394   1.025   6.116   6.417 -0.5026 -0.9009 -1.2465
   46CHL1   C25 3395   0.904   6.150   6.594 -0.9550 -0.1935 -0.6189
   46CHL1   H25 3396   0.807   6.200   6.616 -0.4635 -0.2381  2.0122
   46CHL1   C26 3397   0.922   6.020   6.670  0.7324  0.1805 -0.2980
   46CHL1  H26A 3398   0.895   6.036   6.776  1.3565 -0.0593 -0.0963
   46CHL1  H26B 3399   0.849   5.945   6.633 -0.2520 -0.2186  2.2506
   46CHL1  H26C 3400   1.027   5.984   6.679  1.0514  1.1516 -0.0024
   46CHL1   C27 3401   1.005   6.246   6.656 -0.2534 -0.0441 -0.1797
   46CHL1  H27A 3402   0.993   6.350   6.618  2.5105  0.7016  0.7348
   46CHL1  H27B 3403   0.983   6.243   6.765 -0.5398 -0.0023 -0.2354
   46CHL1  H27C 3404   1.107   6.204   6.640  0.6170 -0.3289  4.5949
   47CHL1    C3 3405   6.456   0.034   5.449 -0.3422  0.3776 -0.1176
   47CHL1    H3 3406   6.520   0.124   5.462  0.5663 -0.0187 -1.6195
   47CHL1    O3 3407   6.447   0.022   5.308 -0.3315 -0.3634  0.0958
   47CHL1   H3' 3408   6.403  -0.063   5.303  0.3429 -0.7421  0.4574
   47CHL1    C4 3409   6.529  -0.082   5.515  0.4984 -0.2010  0.7442
   47CHL1   H4A 3410   6.484  -0.182   5.496  2.4878 -0.6125 -2.6139
   47CHL1   H4B 3411   6.623  -0.088   5.455  0.3872 -1.3435  0.6536
   47CHL1    C5 3412   6.536  -0.048   5.668  0.3119  0.2488  1.2008
   47CHL1    C6 3413   6.655  -0.058   5.731 -0.4246 -0.1920 -0.1717
   47CHL1    H6 3414   6.749  -0.072   5.676 -0.5955 -0.3015 -0.4344
   47CHL1    C7 3415   6.670  -0.034   5.880  0.1352  0.5310 -0.1471
   47CHL1   H7A 3416   6.747  -0.100   5.926 -1.1566  1.2598  3.3939
   47CHL1   H7B 3417   6.705   0.071   5.890 -0.0917  0.7008 -1.0364
   47CHL1    C8 3418   6.539  -0.047   5.960 -0.8788  0.0528 -0.1768
   47CHL1    H8 3419   6.521  -0.154   5.988  1.0699 -0.4346 -0.6539
   47CHL1   C14 3420   6.562   0.027   6.090  0.4051 -0.6454  0.6909
   47CHL1   H14 3421   6.580   0.134   6.065  1.0439 -0.8702  0.1700
   47CHL1   C15 3422   6.674  -0.027   6.191 -0.1850  0.3058 -0.3597
   47CHL1  H15A 3423   6.684  -0.135   6.214  2.3248  0.9122  1.8688
   47CHL1  H15B 3424   6.774   0.001   6.152 -0.5645  0.0879 -1.5367
   47CHL1   C16 3425   6.650   0.058   6.319  0.5198  0.2799 -0.4095
   47CHL1  H16A 3426   6.649  -0.016   6.402 -1.3091  0.9338  0.2010
   47CHL1  H16B 3427   6.735   0.129   6.328  0.7411  0.0672 -0.7657
   47CHL1   C17 3428   6.506   0.118   6.300  0.0179  0.3835 -0.6275
   47CHL1   H17 3429   6.535   0.223   6.276  2.1543 -0.1729 -0.6490
   47CHL1   C13 3430   6.447   0.038   6.183 -0.5483  0.3637 -0.0461
   47CHL1   C18 3431   6.394  -0.102   6.228  0.1464  0.5121  0.7355
   47CHL1  H18A 3432   6.305  -0.087   6.292 -1.0196 -0.6032 -0.5421
   47CHL1  H18B 3433   6.356  -0.158   6.140 -0.7938 -1.7299  2.4580
   47CHL1  H18C 3434   6.480  -0.153   6.277  0.2211 -0.3752 -0.2588
   47CHL1   C12 3435   6.338   0.109   6.106  0.0277 -0.0802 -0.2315
   47CHL1  H12A 3436   6.244   0.121   6.165  0.2121  2.2317 -0.3037
   47CHL1  H12B 3437   6.382   0.209   6.085  0.8272 -0.4495 -0.3449
   47CHL1   C11 3438   6.297   0.047   5.975 -0.2232 -0.1008  0.4194
   47CHL1  H11A 3439   6.252  -0.054   5.987 -1.9254  0.3704 -1.5114
   47CHL1  H11B 3440   6.230   0.110   5.914  0.2389  0.4234  0.4405
   47CHL1    C9 3441   6.422   0.020   5.886 -0.3592  0.3497  0.0654
   47CHL1    H9 3442   6.468   0.117   5.858 -0.5356 -0.4846 -3.5157
   47CHL1   C10 3443   6.399  -0.027   5.743 -0.1587  0.0811  0.0220
   47CHL1   C19 3444   6.335  -0.166   5.739  0.3406 -0.2012  0.8930
   47CHL1  H19A 3445   6.246  -0.152   5.805 -0.0076  2.0783  0.0160
   47CHL1  H19B 3446   6.300  -0.202   5.639  0.6107  2.0792 -0.0637
   47CHL1  H19C 3447   6.413  -0.231   5.784  0.1279 -0.1283  1.3722
   47CHL1    C1 3448   6.326   0.077   5.662  0.0678  0.1873  0.0523
   47CHL1   H1A 3449   6.223   0.088   5.703 -0.2046 -3.0954  0.5138
   47CHL1   H1B 3450   6.381   0.172   5.679  1.5874 -0.3973 -1.3719
   47CHL1    C2 3451   6.313   0.049   5.514 -0.5083  0.5359  0.3409
   47CHL1   H2A 3452   6.261   0.137   5.470  0.6961  0.5500 -1.1570
   47CHL1   H2B 3453   6.249  -0.040   5.498 -0.0774  0.0099  1.4086
   47CHL1   C20 3454   6.431   0.130   6.433  0.2996 -0.1105 -0.0279
   47CHL1   H20 3455   6.419   0.030   6.479  0.8365  1.1309  3.0787
   47CHL1   C21 3456   6.297   0.197   6.411 -0.4588  0.1593 -0.3530
   47CHL1  H21A 3457   6.213   0.129   6.383 -0.4638  0.0436 -0.0642
   47CHL1  H21B 3458   6.307   0.274   6.332  1.7595 -0.8145 -1.0978
   47CHL1  H21C 3459   6.260   0.244   6.505  0.5473 -1.1371  0.7228
   47CHL1   C22 3460   6.513   0.206   6.535 -0.0831 -0.3812  0.5052
   47CHL1  H22A 3461   6.612   0.161   6.556 -0.3592 -0.8997  0.6924
   47CHL1  H22B 3462   6.546   0.306   6.496  0.6680 -1.1324 -0.8874
   47CHL1   C23 3463   6.447   0.235   6.672 -0.0675  0.5650  0.4698
   47CHL1  H23A 3464   6.357   0.300   6.662 -1.3952 -1.5215 -3.0182
   47CHL1  H23B 3465   6.407   0.142   6.718 -1.5011  1.5890  1.4076
   47CHL1   C24 3466   6.545   0.300   6.777  0.1688  0.6582  0.8475
   47CHL1  H24A 3467   6.641   0.244   6.773 -0.5478 -0.8176  2.8965
   47CHL1  H24B 3468   6.568   0.406   6.749 -0.6920  0.2788 -1.5233
   47CHL1   C25 3469   6.502   0.313   6.919 -0.2841 -0.1716  0.2710
   47CHL1   H25 3470   6.417   0.244   6.938 -2.4197  1.9498 -1.0563
   47CHL1   C26 3471   6.617   0.273   7.011 -0.5456 -0.0609 -0.1867
   47CHL1  H26A 3472   6.577   0.276   7.114 -0.2740  0.0087 -0.0804
   47CHL1  H26B 3473   6.645   0.166   6.998 -1.3221 -0.5223  1.5845
   47CHL1  H26C 3474   6.706   0.339   7.001 -0.6580  0.3815  1.4172
   47CHL1   C27 3475   6.445   0.454   6.954 -0.4783 -0.3127 -1.0977
   47CHL1  H27A 3476   6.347   0.468   6.903 -0.0707  1.8453 -1.3683
   47CHL1  H27B 3477   6.442   0.462   7.065 -0.9267  0.4764 -1.1633
   47CHL1  H27C 3478   6.510   0.539   6.927 -2.0544  0.7742 -1.6333
   48CHL1    C3 3479   2.897   4.070   5.285  1.3204  0.0733  0.3425
   48CHL1    H3 3480   2.859   3.978   5.333 -2.3906  0.7366 -0.9560
   48CHL1    O3 3481   2.930   4.051   5.148  0.2850 -0.7725 -0.4216
   48CHL1   H3' 3482   2.920   4.141   5.118  0.8793 -0.2853  0.7854
   48CHL1    C4 3483   2.781   4.179   5.287 -0.5193  0.1809 -0.2814
   48CHL1   H4A 3484   2.821   4.275   5.247  0.5868  0.2179  0.8178
   48CHL1   H4B 3485   2.705   4.147   5.213  2.9986 -1.2762 -3.5875
   48CHL1    C5 3486   2.741   4.195   5.431 -0.5558  0.0554 -0.4502
   48CHL1    C6 3487   2.619   4.176   5.472  0.9470 -0.7557  0.1774
   48CHL1    H6 3488   2.542   4.132   5.407  1.0480 -0.3130 -0.2483
   48CHL1    C7 3489   2.575   4.189   5.615 -0.8250  0.3021  0.2044
   48CHL1   H7A 3490   2.477   4.237   5.637 -0.5675  0.3705  1.2294
   48CHL1   H7B 3491   2.565   4.082   5.642 -1.2977 -1.3557 -5.2217
   48CHL1    C8 3492   2.673   4.268   5.708  0.6380 -0.2949 -0.6225
   48CHL1    H8 3493   2.680   4.374   5.674  3.2906 -0.6389 -1.3754
   48CHL1   C14 3494   2.633   4.259   5.857 -0.0950  0.3047  0.2426
   48CHL1   H14 3495   2.635   4.151   5.880 -0.4984  0.1031 -0.6413
   48CHL1   C15 3496   2.492   4.305   5.902 -1.1315 -0.1896 -0.2005
   48CHL1  H15A 3497   2.475   4.394   5.839  1.2298  0.1952 -0.3997
   48CHL1  H15B 3498   2.411   4.229   5.898 -0.4149 -0.9787  0.0238
   48CHL1   C16 3499   2.511   4.343   6.052  0.0047  0.2876 -0.3235
   48CHL1  H16A 3500   2.469   4.445   6.069  0.8140  0.7092 -0.8106
   48CHL1  H16B 3501   2.449   4.269   6.107  0.8936  0.4604  0.9751
   48CHL1   C17 3502   2.660   4.333   6.087  0.5978 -0.0427  0.0506
   48CHL1   H17 3503   2.676   4.231   6.126  0.6619 -0.1076 -0.1414
   48CHL1   C13 3504   2.732   4.331   5.951 -0.2450 -0.0710 -0.4620
   48CHL1   C18 3505   2.752   4.481   5.916  0.1341 -1.0461  0.4674
   48CHL1  H18A 3506   2.820   4.534   5.986 -0.3012  1.9895 -1.2313
   48CHL1  H18B 3507   2.784   4.509   5.813 -0.9042 -1.3981  0.0316
   48CHL1  H18C 3508   2.652   4.529   5.911  0.6225 -0.1292 -0.9549
   48CHL1   C12 3509   2.866   4.263   5.929  0.1159  0.6067  0.1134
   48CHL1  H12A 3510   2.938   4.307   6.002  0.0735 -1.1116  1.2467
   48CHL1  H12B 3511   2.851   4.155   5.951  0.9434  0.8658  2.2249
   48CHL1   C11 3512   2.922   4.271   5.784 -0.4214 -0.0716  0.0562
   48CHL1  H11A 3513   2.948   4.379   5.777 -0.5856  0.1348  1.9914
   48CHL1  H11B 3514   3.014   4.210   5.784 -0.4117 -0.0765 -1.0917
   48CHL1    C9 3515   2.819   4.217   5.677 -0.1956 -0.4078 -0.3520
   48CHL1    H9 3516   2.812   4.107   5.695 -0.6660 -0.3398 -0.0941
   48CHL1   C10 3517   2.860   4.235   5.526 -0.2440  0.3670  0.5483
   48CHL1   C19 3518   2.899   4.380   5.510 -0.5656  0.1613 -0.2136
   48CHL1  H19A 3519   2.819   4.450   5.543  0.9344  2.8040 -1.8225
   48CHL1  H19B 3520   2.990   4.418   5.562 -0.6365 -0.2373  0.2092
   48CHL1  H19C 3521   2.912   4.406   5.403  0.1514 -1.4051 -0.5468
   48CHL1    C1 3522   2.977   4.145   5.501  0.0626  0.8962  0.0701
   48CHL1   H1A 3523   3.058   4.182   5.568  0.9237 -0.2517 -0.3073
   48CHL1   H1B 3524   2.956   4.043   5.541 -1.9330  1.6933  1.2229
   48CHL1    C2 3525   3.017   4.126   5.355 -0.5088 -0.6010  0.3804
   48CHL1   H2A 3526   3.098   4.052   5.340  0.2172  0.4695 -1.2666
   48CHL1   H2B 3527   3.047   4.223   5.311  1.1941 -0.9307  0.7373
   48CHL1   C20 3528   2.710   4.438   6.190 -0.3329  0.6728 -0.7818
   48CHL1   H20 3529   2.707   4.543   6.153  1.2083  1.6195  1.5347
   48CHL1   C21 3530   2.854   4.413   6.243  0.1907 -0.5847 -0.3585
   48CHL1  H21A 3531   2.924   4.413   6.157  0.2311  1.4424 -0.3785
   48CHL1  H21B 3532   2.858   4.323   6.308 -0.9569  0.6777  1.5569
   48CHL1  H21C 3533   2.884   4.493   6.314 -0.9969  0.7674 -1.3296
   48CHL1   C22 3534   2.610   4.443   6.314  0.2796  0.0052  0.4367
   48CHL1  H22A 3535   2.503   4.452   6.286  0.2457 -0.9590  0.2029
   48CHL1  H22B 3536   2.620   4.340   6.356  0.2419  0.2058  0.9429
   48CHL1   C23 3537   2.626   4.552   6.428 -0.0642 -0.3812  0.5641
   48CHL1  H23A 3538   2.727   4.549   6.474 -0.2015 -0.3971  0.8604
   48CHL1  H23B 3539   2.608   4.649   6.376 -0.2300 -1.8628 -2.3858
   48CHL1   C24 3540   2.532   4.546   6.549  0.6078  0.3938 -0.3365
   48CHL1  H24A 3541   2.568   4.618   6.626  0.4294 -0.1160  0.2259
   48CHL1  H24B 3542   2.427   4.562   6.516 -0.5615 -1.1362  2.3069
   48CHL1   C25 3543   2.536   4.405   6.626 -0.0582 -0.0572  0.1532
   48CHL1   H25 3544   2.530   4.333   6.543  1.3405  3.2751 -3.1400
   48CHL1   C26 3545   2.671   4.386   6.708  0.1872 -0.9241  0.0086
   48CHL1  H26A 3546   2.755   4.418   6.643 -0.3254  0.2302 -0.1204
   48CHL1  H26B 3547   2.654   4.437   6.806 -0.8289 -0.9851 -0.1276
   48CHL1  H26C 3548   2.680   4.276   6.716  0.6635 -1.0476 -1.8846
   48CHL1   C27 3549   2.416   4.393   6.716 -1.0515  0.0716 -0.1963
   48CHL1  H27A 3550   2.412   4.480   6.786  1.0817  1.6759 -1.9267
   48CHL1  H27B 3551   2.321   4.371   6.662 -1.2929 -0.4414  0.4281
   48CHL1  H27C 3552   2.435   4.303   6.779 -0.1863  0.6233  0.3597
   49CHL1    C3 3553   3.782   2.600   5.298  0.4902  0.5382  0.5061
   49CHL1    H3 3554   3.743   2.496   5.306 -0.3940  0.6190 -1.9071
   49CHL1    O3 3555   3.783   2.634   5.162  0.4877  0.4085 -0.2162
   49CHL1   H3' 3556   3.692   2.637   5.133  1.0294 -1.8047 -2.5515
   49CHL1    C4 3557   3.677   2.698   5.355  0.2521  0.1731  0.4156
   49CHL1   H4A 3558   3.707   2.801   5.329  2.2772 -0.8396 -1.6272
   49CHL1   H4B 3559   3.579   2.677   5.307 -0.6306 -0.4000  2.3338
   49CHL1    C5 3560   3.665   2.696   5.507  1.2311  0.4662  0.4370
   49CHL1    C6 3561   3.550   2.668   5.570 -0.0181 -0.6754  0.5793
   49CHL1    H6 3562   3.459   2.656   5.510 -0.3611  1.4096  0.5806
   49CHL1    C7 3563   3.528   2.657   5.714 -0.3268  0.7440  0.3846
   49CHL1   H7A 3564   3.439   2.716   5.744 -1.5239  0.0479 -1.5725
   49CHL1   H7B 3565   3.495   2.554   5.741 -1.1913  0.9383  0.1189
   49CHL1    C8 3566   3.649   2.709   5.799 -0.1206 -0.1097  0.0354
   49CHL1    H8 3567   3.637   2.819   5.808  5.4692  0.8223 -0.4957
   49CHL1   C14 3568   3.640   2.663   5.945 -0.5504 -0.0166  0.2871
   49CHL1   H14 3569   3.630   2.553   5.935 -5.1498  0.2572 -0.0990
   49CHL1   C15 3570   3.518   2.703   6.028  1.0051  0.6553  0.2838
   49CHL1  H15A 3571   3.511   2.813   6.023 -1.2017  0.5005 -1.6613
   49CHL1  H15B 3572   3.421   2.668   5.986  1.8384 -0.2009 -1.0305
   49CHL1   C16 3573   3.557   2.663   6.168  0.5935  0.3016 -0.5019
   49CHL1  H16A 3574   3.533   2.744   6.239  4.7066  1.6866 -0.4367
   49CHL1  H16B 3575   3.502   2.578   6.214 -0.3009  0.9803 -0.3046
   49CHL1   C17 3576   3.710   2.634   6.171  0.3807 -0.0893 -0.2468
   49CHL1   H17 3577   3.726   2.525   6.153 -1.4189 -0.2416 -1.1175
   49CHL1   C13 3578   3.761   2.691   6.036  0.6636 -0.0501 -0.2258
   49CHL1   C18 3579   3.786   2.840   6.052 -0.2079 -0.2848  0.5813
   49CHL1  H18A 3580   3.719   2.888   6.127 -1.1194  0.3139 -0.5897
   49CHL1  H18B 3581   3.890   2.852   6.091  0.2192  0.8106 -0.8088
   49CHL1  H18C 3582   3.790   2.887   5.951 -2.3142 -1.0186  0.1107
   49CHL1   C12 3583   3.883   2.619   5.972 -0.2664 -0.0491  0.1183
   49CHL1  H12A 3584   3.974   2.645   6.031 -1.5801  0.3327  2.0916
   49CHL1  H12B 3585   3.879   2.508   5.975 -0.3449 -0.1343  4.5913
   49CHL1   C11 3586   3.898   2.664   5.828  0.0746 -0.0920  0.3985
   49CHL1  H11A 3587   3.939   2.766   5.829  1.3212 -0.5774  0.0800
   49CHL1  H11B 3588   3.975   2.612   5.767 -0.6498 -1.8368  0.8888
   49CHL1    C9 3589   3.773   2.650   5.732  0.2127  0.2532 -0.2004
   49CHL1    H9 3590   3.753   2.542   5.717 -4.4605  0.5337  1.9959
   49CHL1   C10 3591   3.793   2.701   5.585 -0.4206 -0.3588 -0.5962
   49CHL1   C19 3592   3.825   2.857   5.595  0.0891 -0.5901 -0.0384
   49CHL1  H19A 3593   3.926   2.886   5.632  0.0860 -1.6442  0.8589
   49CHL1  H19B 3594   3.829   2.890   5.489  1.0676 -0.2422  0.0974
   49CHL1  H19C 3595   3.749   2.915   5.649  1.1258  0.1831  0.6284
   49CHL1    C1 3596   3.904   2.609   5.525  0.1208  0.5139 -0.2271
   49CHL1   H1A 3597   4.003   2.627   5.571  0.4399 -0.4425 -0.5024
   49CHL1   H1B 3598   3.893   2.502   5.555  1.6816  0.7286  1.2790
   49CHL1    C2 3599   3.915   2.610   5.371 -0.2148  0.0272 -0.2529
   49CHL1   H2A 3600   3.983   2.523   5.355  1.1654  1.2210 -1.0282
   49CHL1   H2B 3601   3.967   2.706   5.350  1.8852 -0.4292  2.2300
   49CHL1   C20 3602   3.779   2.673   6.302 -0.3841 -0.2536 -0.0903
   49CHL1   H20 3603   3.769   2.783   6.316  0.8866 -0.1522  0.1391
   49CHL1   C21 3604   3.931   2.628   6.300  0.2076  0.4665  0.2219
   49CHL1  H21A 3605   3.945   2.521   6.276 -0.2483  0.2776  0.7782
   49CHL1  H21B 3606   3.985   2.653   6.394 -0.2088 -0.3678  0.6937
   49CHL1  H21C 3607   3.984   2.685   6.220  2.3559  0.5895  1.6538
   49CHL1   C22 3608   3.711   2.602   6.428  0.7865  0.1478  0.7461
   49CHL1  H22A 3609   3.602   2.622   6.431  0.7124  0.2407 -1.1143
   49CHL1  H22B 3610   3.718   2.494   6.404  1.8467  0.1170  1.1388
   49CHL1   C23 3611   3.772   2.632   6.565  0.5430 -0.3625 -0.4305
   49CHL1  H23A 3612   3.734   2.559   6.640  0.1744  1.0298  0.7979
   49CHL1  H23B 3613   3.883   2.619   6.570  0.4630 -1.1470 -0.6602
   49CHL1   C24 3614   3.751   2.781   6.599 -0.4655 -0.1102 -0.0128
   49CHL1  H24A 3615   3.806   2.852   6.533 -1.1751 -0.6932 -1.2600
   49CHL1  H24B 3616   3.644   2.804   6.581 -0.2927  0.0864 -0.8532
   49CHL1   C25 3617   3.787   2.820   6.742  0.0985 -0.2859  0.2630
   49CHL1   H25 3618   3.878   2.764   6.774 -0.3303 -0.7155  0.7367
   49CHL1   C26 3619   3.831   2.969   6.748  0.1393 -0.2399  0.2826
   49CHL1  H26A 3620   3.858   2.993   6.853 -3.2583  0.4134  1.1535
   49CHL1  H26B 3621   3.913   2.987   6.676 -1.1648  0.6585 -1.0408
   49CHL1  H26C 3622   3.746   3.038   6.730  0.0578 -0.2235  0.7225
   49CHL1   C27 3623   3.672   2.798   6.840 -0.1121 -0.0577  0.8916
   49CHL1  H27A 3624   3.705   2.818   6.944  1.2484  0.5030  0.3776
   49CHL1  H27B 3625   3.583   2.861   6.816  0.5995  1.0212  1.0301
   49CHL1  H27C 3626   3.651   2.689   6.838 -0.9783  0.1166  0.0274
   50CHL1    C3 3627   0.141   6.352   5.581 -0.6789  0.6983 -0.1789
   50CHL1    H3 3628   0.070   6.267   5.572  0.1072  0.0315 -0.1395
   50CHL1    O3 3629   0.179   6.401   5.452 -0.6821  0.1311 -0.4065
   50CHL1   H3' 3630   0.098   6.448   5.428 -0.1751  0.5658 -1.3332
   50CHL1    C4 3631   0.076   6.464   5.664  0.4872  0.1859 -0.5263
   50CHL1   H4A 3632   0.142   6.551   5.645  1.8138 -0.9007 -1.0196
   50CHL1   H4B 3633  -0.019   6.501   5.617 -0.5804  1.7218  2.5407
   50CHL1    C5 3634   0.049   6.439   5.808  0.0684 -0.5173  0.2951
   50CHL1    C6 3635  -0.072   6.438   5.866  0.3916 -0.5287 -0.1608
   50CHL1    H6 3636  -0.154   6.458   5.795  0.0296 -2.1179 -0.2244
   50CHL1    C7 3637  -0.104   6.407   6.009  0.0272 -0.0978 -0.0794
   50CHL1   H7A 3638  -0.179   6.482   6.041 -1.4764 -1.1153 -1.0840
   50CHL1   H7B 3639  -0.126   6.299   6.025  0.9185 -0.2454  0.2255
   50CHL1    C8 3640   0.026   6.426   6.095 -0.3441  0.6047 -0.2409
   50CHL1    H8 3641   0.044   6.535   6.092  0.2860  0.5456  0.8678
   50CHL1   C14 3642   0.013   6.368   6.238 -0.3675 -0.0718 -0.7272
   50CHL1   H14 3643   0.014   6.257   6.235 -1.0893 -0.0523 -1.9359
   50CHL1   C15 3644  -0.114   6.417   6.326  0.1061 -0.8348  0.3182
   50CHL1  H15A 3645  -0.123   6.522   6.291  0.4064 -0.8964  0.0523
   50CHL1  H15B 3646  -0.198   6.351   6.295 -0.8468  0.1221  0.8074
   50CHL1   C16 3647  -0.079   6.394   6.469 -1.0121  0.0183  0.2219
   50CHL1  H16A 3648  -0.094   6.492   6.519  0.9269 -0.5480  2.0448
   50CHL1  H16B 3649  -0.134   6.305   6.508  1.8451 -1.1469  1.8980
   50CHL1   C17 3650   0.070   6.350   6.469 -0.8629  0.3334  0.6670
   50CHL1   H17 3651   0.065   6.239   6.466 -1.2162  0.3410  0.9615
   50CHL1   C13 3652   0.130   6.399   6.337  0.0163  0.3573  0.5274
   50CHL1   C18 3653   0.152   6.557   6.341 -0.0768 -0.3133  0.0261
   50CHL1  H18A 3654   0.237   6.583   6.408 -0.2780  0.3348  0.0384
   50CHL1  H18B 3655   0.172   6.600   6.241 -1.0996 -0.6224 -0.3213
   50CHL1  H18C 3656   0.064   6.610   6.384  0.0355  0.3997 -0.5991
   50CHL1   C12 3657   0.247   6.327   6.277 -0.0341  0.6689 -0.1966
   50CHL1  H12A 3658   0.343   6.355   6.326  0.2388 -0.2113 -0.2039
   50CHL1  H12B 3659   0.237   6.216   6.275  0.2718  0.6148  0.6249
   50CHL1   C11 3660   0.276   6.368   6.129  0.1273 -0.3626 -0.3269
   50CHL1  H11A 3661   0.302   6.476   6.129 -1.4205  0.1148 -3.7661
   50CHL1  H11B 3662   0.363   6.313   6.086  2.8471  1.9444  1.8055
   50CHL1    C9 3663   0.148   6.359   6.033 -0.0446 -0.1028 -0.3898
   50CHL1    H9 3664   0.131   6.250   6.028 -0.2753 -0.3146  2.8499
   50CHL1   C10 3665   0.175   6.396   5.883  1.0806  0.9010  0.1366
   50CHL1   C19 3666   0.259   6.523   5.882  0.5222 -0.7192  0.0370
   50CHL1  H19A 3667   0.206   6.606   5.934 -0.3779 -1.8526  1.0121
   50CHL1  H19B 3668   0.352   6.498   5.937  0.7454 -1.4478 -0.6727
   50CHL1  H19C 3669   0.284   6.560   5.781 -3.0855 -2.5723 -1.7428
   50CHL1    C1 3670   0.241   6.275   5.805 -0.1367 -0.8348  0.0836
   50CHL1   H1A 3671   0.335   6.258   5.863  0.3547  0.9344 -0.1292
   50CHL1   H1B 3672   0.176   6.185   5.808  0.1747 -1.0343  1.6816
   50CHL1    C2 3673   0.261   6.306   5.658 -0.2173 -0.3027 -0.3371
   50CHL1   H2A 3674   0.301   6.215   5.609 -1.2352 -0.6397 -0.5643
   50CHL1   H2B 3675   0.348   6.375   5.649 -0.6614  0.1873 -0.9399
   50CHL1   C20 3676   0.141   6.374   6.607 -0.0588  0.2668  1.1683
   50CHL1   H20 3677   0.123   6.480   6.635 -2.3694  0.5552 -0.9543
   50CHL1   C21 3678   0.292   6.335   6.596  0.0772 -0.4085  0.1494
   50CHL1  H21A 3679   0.337   6.401   6.520  0.5587 -0.1709  0.6324
   50CHL1  H21B 3680   0.308   6.232   6.557  0.8041  0.3770 -1.7236
   50CHL1  H21C 3681   0.348   6.359   6.689  1.4436 -2.2973 -0.1259
   50CHL1   C22 3682   0.079   6.293   6.719  0.4893  0.0852 -0.7972
   50CHL1  H22A 3683  -0.025   6.330   6.736  1.6199  2.6552  1.3215
   50CHL1  H22B 3684   0.069   6.183   6.706 -1.1671  0.0818  0.2036
   50CHL1   C23 3685   0.138   6.328   6.862  0.2323  0.0026  0.1619
   50CHL1  H23A 3686   0.234   6.272   6.852 -0.2871 -0.8158 -0.3400
   50CHL1  H23B 3687   0.155   6.438   6.861  0.4837 -0.0390 -0.3566
   50CHL1   C24 3688   0.064   6.268   6.984  0.1756 -0.6067 -0.1294
   50CHL1  H24A 3689  -0.036   6.316   6.986  0.5544  0.4312 -2.2234
   50CHL1  H24B 3690   0.058   6.161   6.953  1.1497 -0.6717 -0.1434
   50CHL1   C25 3691   0.137   6.289   7.119  0.4502  0.4850  0.4656
   50CHL1   H25 3692   0.237   6.239   7.118 -0.7081 -2.0305  2.0014
   50CHL1   C26 3693   0.150   6.439   7.155 -0.7103 -0.1195  0.4966
   50CHL1  H26A 3694   0.052   6.485   7.179 -0.2827  1.1395 -0.1305
   50CHL1  H26B 3695   0.215   6.442   7.246 -0.2849  1.1744  0.1738
   50CHL1  H26C 3696   0.219   6.485   7.082 -0.4570 -1.6112 -0.2348
   50CHL1   C27 3697   0.056   6.211   7.227 -0.3423 -0.2739  0.3030
   50CHL1  H27A 3698   0.096   6.109   7.248 -1.0452 -0.4924  0.6513
   50CHL1  H27B 3699   0.054   6.257   7.328 -0.4499 -1.5010  0.8865
   50CHL1  H27C 3700  -0.050   6.204   7.192  0.0730 -1.4245 -0.8157
   51CHL1    C3 3701   5.782   6.139   5.340  0.8720 -0.2439 -0.1955
   51CHL1    H3 3702   5.828   6.240   5.336 -2.7828  1.5487 -3.4062
   51CHL1    O3 3703   5.781   6.077   5.210  0.0533  0.1961  0.1620
   51CHL1   H3' 3704   5.832   5.996   5.219  2.3867  1.1932 -2.4975
   51CHL1    C4 3705   5.852   6.046   5.438 -0.4081  0.6033 -0.4206
   51CHL1   H4A 3706   5.813   5.942   5.426  0.1374  0.4013 -0.4570
   51CHL1   H4B 3707   5.953   6.030   5.396 -0.6469 -0.7614 -0.5194
   51CHL1    C5 3708   5.840   6.081   5.581 -0.1060 -0.0369 -0.6513
   51CHL1    C6 3709   5.950   6.088   5.667 -0.2075 -0.3459  0.7074
   51CHL1    H6 3710   6.044   6.037   5.642  0.1706  1.5039 -2.0704
   51CHL1    C7 3711   5.942   6.124   5.810 -0.1081 -0.6505 -0.0728
   51CHL1   H7A 3712   5.992   6.041   5.865  0.3681  0.1128  0.6800
   51CHL1   H7B 3713   6.008   6.209   5.837 -0.7459  0.0833 -0.7817
   51CHL1    C8 3714   5.797   6.143   5.868 -0.8027  0.3200 -0.1818
   51CHL1    H8 3715   5.759   6.041   5.888 -1.6760  0.1900 -2.2626
   51CHL1   C14 3716   5.799   6.224   5.988  0.0566 -0.3126  0.0400
   51CHL1   H14 3717   5.840   6.324   5.961  0.3859 -0.3020  0.5681
   51CHL1   C15 3718   5.889   6.161   6.094 -0.1241 -0.4583 -0.3734
   51CHL1  H15A 3719   5.892   6.051   6.086  4.2623 -0.4343 -1.3924
   51CHL1  H15B 3720   5.992   6.203   6.092 -0.6108  0.7724 -0.5881
   51CHL1   C16 3721   5.835   6.220   6.226 -0.7209  0.7453 -0.0846
   51CHL1  H16A 3722   5.800   6.136   6.289 -1.5539  0.7750 -0.4991
   51CHL1  H16B 3723   5.915   6.280   6.275 -1.7335  2.3335 -0.2663
   51CHL1   C17 3724   5.718   6.316   6.184 -0.2167 -0.3609  1.0710
   51CHL1   H17 3725   5.778   6.400   6.143  0.3030 -0.4719  1.5989
   51CHL1   C13 3726   5.661   6.248   6.055  0.3341 -0.0013 -0.2151
   51CHL1   C18 3727   5.599   6.108   6.089  1.0017  0.8361  0.1855
   51CHL1  H18A 3728   5.678   6.048   6.140 -0.0640 -0.7367  0.0840
   51CHL1  H18B 3729   5.500   6.104   6.140  0.0217 -1.1643 -1.7136
   51CHL1  H18C 3730   5.588   6.056   5.992 -2.7982  2.1385 -0.2641
   51CHL1   C12 3731   5.573   6.324   5.959 -0.0786 -0.1767 -0.0389
   51CHL1  H12A 3732   5.469   6.343   5.994  0.1002 -1.2030  1.1248
   51CHL1  H12B 3733   5.628   6.418   5.939 -0.8138  0.2134 -0.2738
   51CHL1   C11 3734   5.561   6.241   5.822  0.0424 -0.2459  0.2137
   51CHL1  H11A 3735   5.508   6.148   5.853  0.8906 -0.1428  2.1807
   51CHL1  H11B 3736   5.508   6.309   5.752  2.0312  1.1288 -0.0479
   51CHL1    C9 3737   5.704   6.204   5.762  0.2353 -0.4050 -0.0690
   51CHL1    H9 3738   5.742   6.307   5.749  0.5232 -0.3012  1.3872
   51CHL1   C10 3739   5.701   6.129   5.626 -0.2504 -0.3880 -0.4816
   51CHL1   C19 3740   5.607   6.004   5.658  0.1629  0.0604  0.1876
   51CHL1  H19A 3741   5.503   6.041   5.669  0.6941  2.5555 -2.3165
   51CHL1  H19B 3742   5.619   5.923   5.583  1.6354 -0.4142  0.8980
   51CHL1  H19C 3743   5.631   5.941   5.747  1.8912 -1.5097 -1.3113
   51CHL1    C1 3744   5.644   6.223   5.521  0.6833  0.2436 -0.6641
   51CHL1   H1A 3745   5.541   6.255   5.546  0.4202 -0.6525 -0.5595
   51CHL1   H1B 3746   5.694   6.322   5.515  1.7523  0.0169  2.5201
   51CHL1    C2 3747   5.636   6.164   5.378 -0.0144 -0.3483 -0.2412
   51CHL1   H2A 3748   5.587   6.234   5.306 -0.3610 -1.1221 -0.7708
   51CHL1   H2B 3749   5.581   6.067   5.381  1.0309 -0.9657 -0.5086
   51CHL1   C20 3750   5.623   6.367   6.290  0.5103  0.5566  0.1896
   51CHL1   H20 3751   5.529   6.312   6.269 -0.4953  2.3261 -0.0882
   51CHL1   C21 3752   5.574   6.515   6.261  0.2861  0.2572 -0.2393
   51CHL1  H21A 3753   5.662   6.581   6.277  1.1994 -0.8995 -0.3617
   51CHL1  H21B 3754   5.490   6.544   6.329 -0.2194  0.5051 -0.9640
   51CHL1  H21C 3755   5.542   6.527   6.156 -0.4000  1.6385  0.0966
   51CHL1   C22 3756   5.678   6.345   6.432 -0.4662 -0.3537  0.6110
   51CHL1  H22A 3757   5.719   6.243   6.446 -0.6665 -0.4475  0.5147
   51CHL1  H22B 3758   5.759   6.420   6.447  0.6474 -1.4388  0.1571
   51CHL1   C23 3759   5.568   6.357   6.547 -0.2601 -0.1841  0.4490
   51CHL1  H23A 3760   5.498   6.441   6.527  2.1895  1.4241 -2.0051
   51CHL1  H23B 3761   5.513   6.264   6.525  0.6416 -0.9565  1.3370
   51CHL1   C24 3762   5.631   6.357   6.687 -0.1005  0.2280  0.0095
   51CHL1  H24A 3763   5.553   6.339   6.764 -0.0238 -2.0080 -0.3771
   51CHL1  H24B 3764   5.703   6.274   6.698 -1.5862 -0.9080  1.8982
   51CHL1   C25 3765   5.700   6.489   6.721 -0.0377  0.1621 -0.8726
   51CHL1   H25 3766   5.742   6.532   6.627  0.1017 -1.6368 -1.6747
   51CHL1   C26 3767   5.607   6.600   6.777 -0.2266 -0.0602 -0.0393
   51CHL1  H26A 3768   5.659   6.698   6.776  1.5161 -0.9345 -0.3392
   51CHL1  H26B 3769   5.525   6.603   6.702 -0.2581 -3.7628 -0.3784
   51CHL1  H26C 3770   5.585   6.573   6.882  1.3630  0.8256  0.5575
   51CHL1   C27 3771   5.819   6.454   6.817 -0.5303 -0.3780 -0.0435
   51CHL1  H27A 3772   5.782   6.423   6.917 -0.9520  0.8397  0.1983
   51CHL1  H27B 3773   5.887   6.372   6.784  1.1977  0.4353  1.3545
   51CHL1  H27C 3774   5.873   6.546   6.846 -3.0866  1.4941 -0.8989
   52CHL1    C3 3775   4.646   2.442   5.160  0.0088 -0.2499 -0.3993
   52CHL1    H3 3776   4.597   2.345   5.134  1.0217 -0.6723 -0.7871
   52CHL1    O3 3777   4.701   2.505   5.045  0.1051 -0.3272  0.3130
   52CHL1   H3' 3778   4.666   2.593   5.056 -2.6759 -1.4054  0.8574
   52CHL1    C4 3779   4.546   2.538   5.226  0.2755 -0.1598  0.3126
   52CHL1   H4A 3780   4.591   2.639   5.230 -1.2713  0.6082 -0.6509
   52CHL1   H4B 3781   4.468   2.562   5.150  3.1885  2.8152 -2.0317
   52CHL1    C5 3782   4.483   2.509   5.358 -0.1941 -0.4321 -0.1131
   52CHL1    C6 3783   4.354   2.505   5.379  0.3490 -0.3560  0.3008
   52CHL1    H6 3784   4.279   2.537   5.305  0.3719  1.8202  1.1493
   52CHL1    C7 3785   4.293   2.473   5.509 -0.5387  0.4733 -0.2114
   52CHL1   H7A 3786   4.216   2.548   5.538 -0.0065  1.1480 -0.5042
   52CHL1   H7B 3787   4.242   2.376   5.492  0.1096  0.3881 -1.9368
   52CHL1    C8 3788   4.395   2.467   5.627  0.5608 -0.1867 -0.0348
   52CHL1    H8 3789   4.416   2.574   5.649  0.6360  0.0629 -1.2513
   52CHL1   C14 3790   4.323   2.394   5.747 -0.5020 -0.5368 -0.4645
   52CHL1   H14 3791   4.307   2.289   5.713  0.4432 -0.9562  0.3205
   52CHL1   C15 3792   4.200   2.452   5.811 -0.7828 -0.1977 -0.1241
   52CHL1  H15A 3793   4.209   2.555   5.851 -3.1744 -0.2680  0.7378
   52CHL1  H15B 3794   4.107   2.443   5.750 -0.8892  0.0531 -0.0010
   52CHL1   C16 3795   4.190   2.379   5.944 -0.0529  0.1571 -0.2050
   52CHL1  H16A 3796   4.169   2.441   6.034 -1.7683  1.2765 -1.3133
   52CHL1  H16B 3797   4.107   2.305   5.933 -0.1439  0.4853 -2.0677
   52CHL1   C17 3798   4.329   2.301   5.969 -0.4031  0.1851 -0.2466
   52CHL1   H17 3799   4.321   2.198   5.929 -0.2423  0.1011 -0.0625
   52CHL1   C13 3800   4.429   2.371   5.872  0.2479  0.8036  0.3207
   52CHL1   C18 3801   4.469   2.517   5.926 -0.0499  0.1109 -1.0588
   52CHL1  H18A 3802   4.562   2.505   5.985  1.0348 -0.9943 -2.9058
   52CHL1  H18B 3803   4.491   2.584   5.840  1.4702  0.0653 -0.7239
   52CHL1  H18C 3804   4.391   2.556   5.995 -1.7292 -1.6100 -1.8935
   52CHL1   C12 3805   4.552   2.293   5.817 -0.6482  0.0641 -0.4918
   52CHL1  H12A 3806   4.636   2.277   5.888 -0.1190  2.9381 -0.3149
   52CHL1  H12B 3807   4.521   2.193   5.781 -1.7462  0.0413  0.4713
   52CHL1   C11 3808   4.621   2.368   5.703 -0.6512 -0.1064  0.8910
   52CHL1  H11A 3809   4.662   2.458   5.753  3.9261 -1.7697  0.6718
   52CHL1  H11B 3810   4.721   2.320   5.692 -0.4812  0.1221  1.3857
   52CHL1    C9 3811   4.524   2.395   5.583 -0.2831 -0.2378  0.0140
   52CHL1    H9 3812   4.495   2.296   5.540 -0.3902 -1.3261  2.4231
   52CHL1   C10 3813   4.586   2.466   5.462 -0.3286  0.1904  0.6298
   52CHL1   C19 3814   4.656   2.595   5.504 -0.0147 -0.7162  0.1350
   52CHL1  H19A 3815   4.588   2.668   5.553 -1.6912 -2.5148  0.6077
   52CHL1  H19B 3816   4.746   2.576   5.567  1.1007  1.6011 -0.6544
   52CHL1  H19C 3817   4.700   2.646   5.416  1.5486  0.7681  1.6905
   52CHL1    C1 3818   4.699   2.367   5.388  0.2466  1.6730 -0.0411
   52CHL1   H1A 3819   4.786   2.359   5.457 -1.6404 -0.1732  2.3284
   52CHL1   H1B 3820   4.639   2.274   5.391 -1.8075  2.9406  0.3070
   52CHL1    C2 3821   4.755   2.413   5.257  0.0306  0.0217 -0.0991
   52CHL1   H2A 3822   4.817   2.332   5.215 -2.2045 -1.7542 -0.1924
   52CHL1   H2B 3823   4.813   2.500   5.295 -2.8799  1.0075  2.6332
   52CHL1   C20 3824   4.369   2.289   6.116  0.4708  0.0429 -0.4791
   52CHL1   H20 3825   4.340   2.383   6.167 -2.7617  0.4955 -2.8006
   52CHL1   C21 3826   4.517   2.251   6.144 -0.1000 -0.2671 -0.3807
   52CHL1  H21A 3827   4.541   2.159   6.087 -1.5521 -0.8216 -0.1253
   52CHL1  H21B 3828   4.543   2.226   6.249 -1.8879 -1.5009 -0.1890
   52CHL1  H21C 3829   4.580   2.332   6.101 -1.0307 -0.7095 -2.7128
   52CHL1   C22 3830   4.272   2.185   6.187  0.4039 -0.1045 -0.6621
   52CHL1  H22A 3831   4.170   2.227   6.171  0.6956  0.7017 -0.4662
   52CHL1  H22B 3832   4.286   2.087   6.136  1.4661  0.2322 -1.0523
   52CHL1   C23 3833   4.286   2.181   6.341  0.4922  0.3593 -0.1741
   52CHL1  H23A 3834   4.380   2.128   6.366  0.3357 -0.3214 -0.9921
   52CHL1  H23B 3835   4.297   2.287   6.375 -1.1653  0.4745  0.0893
   52CHL1   C24 3836   4.157   2.116   6.397 -0.2365 -0.1215  0.4354
   52CHL1  H24A 3837   4.065   2.145   6.342  0.2164 -2.3705 -1.7045
   52CHL1  H24B 3838   4.166   2.005   6.386  2.7902  0.1008 -0.0997
   52CHL1   C25 3839   4.124   2.154   6.544  0.1521 -0.1876  0.4569
   52CHL1   H25 3840   4.220   2.141   6.600  0.5514  1.6910  0.2851
   52CHL1   C26 3841   4.065   2.297   6.564 -0.0422  0.2672  0.8795
   52CHL1  H26A 3842   4.142   2.363   6.519  0.6812 -1.1190  0.0119
   52CHL1  H26B 3843   3.978   2.316   6.497  1.8463  1.1728 -1.4347
   52CHL1  H26C 3844   4.059   2.317   6.673  2.4648 -1.1700  1.3615
   52CHL1   C27 3845   4.027   2.050   6.596  0.9263  0.8122 -0.3222
   52CHL1  H27A 3846   4.018   2.052   6.707  3.2193  0.1908 -0.0700
   52CHL1  H27B 3847   3.924   2.061   6.555  0.3770  1.5709  1.1953
   52CHL1  H27C 3848   4.055   1.945   6.573  1.6101  0.6237  1.2593
   53CHL1    C3 3849   2.991   3.088   5.462  0.1834 -0.1452 -0.0580
   53CHL1    H3 3850   2.913   3.010   5.450  0.5031 -0.4334 -0.2817
   53CHL1    O3 3851   3.021   3.126   5.328 -0.4705  0.2616  0.2103
   53CHL1   H3' 3852   3.093   3.071   5.297  0.6797  0.9479  1.5262
   53CHL1    C4 3853   2.940   3.213   5.538  0.2765 -0.0318 -1.1785
   53CHL1   H4A 3854   3.005   3.302   5.530 -1.4819  1.3005 -1.1838
   53CHL1   H4B 3855   2.854   3.244   5.475  0.6711  1.8226 -0.8460
   53CHL1    C5 3856   2.889   3.185   5.678  1.0927  0.4419  0.2639
   53CHL1    C6 3857   2.765   3.202   5.715 -0.1164 -0.6986 -0.0238
   53CHL1    H6 3858   2.692   3.251   5.649 -0.0979 -0.9977 -0.2688
   53CHL1    C7 3859   2.722   3.181   5.857 -0.3499  0.1670 -0.3175
   53CHL1   H7A 3860   2.657   3.263   5.894  0.0788  0.0061  0.8099
   53CHL1   H7B 3861   2.652   3.095   5.863 -0.9589  0.6044 -1.0188
   53CHL1    C8 3862   2.834   3.140   5.958 -0.2889  0.6171  0.6640
   53CHL1    H8 3863   2.888   3.229   5.999  2.3789 -0.7817  0.4106
   53CHL1   C14 3864   2.778   3.075   6.083 -0.4091  0.1333  0.6081
   53CHL1   H14 3865   2.735   2.979   6.048  2.0309 -0.2845 -1.5173
   53CHL1   C15 3866   2.669   3.153   6.160 -0.4315  0.7113 -0.0905
   53CHL1  H15A 3867   2.706   3.258   6.154  0.9670  0.2654  0.2138
   53CHL1  H15B 3868   2.567   3.134   6.121 -0.6489 -0.9550  1.2040
   53CHL1   C16 3869   2.684   3.101   6.304  0.8146  0.3532 -1.0270
   53CHL1  H16A 3870   2.716   3.188   6.365  1.2996 -0.8868  0.5675
   53CHL1  H16B 3871   2.586   3.063   6.342  0.3965  1.2117 -1.2258
   53CHL1   C17 3872   2.798   2.992   6.300 -0.7465 -0.4301 -0.1250
   53CHL1   H17 3873   2.756   2.897   6.262  1.5747 -0.9117 -1.6997
   53CHL1   C13 3874   2.880   3.043   6.186  0.3079  0.0019 -0.0956
   53CHL1   C18 3875   2.970   3.162   6.241  0.1089  0.0979 -0.3538
   53CHL1  H18A 3876   2.906   3.241   6.285 -0.9928 -0.1580 -1.4279
   53CHL1  H18B 3877   3.044   3.128   6.317 -1.5377 -0.2880  1.1283
   53CHL1  H18C 3878   3.022   3.214   6.157  0.5766  2.4231  1.2949
   53CHL1   C12 3879   2.977   2.941   6.135  0.5441 -0.3807  0.4229
   53CHL1  H12A 3880   3.065   2.918   6.199 -0.4787  0.7072  2.3217
   53CHL1  H12B 3881   2.922   2.845   6.124 -0.5300  0.1466  0.9849
   53CHL1   C11 3882   3.043   2.995   5.999 -0.2428 -0.0996  0.0247
   53CHL1  H11A 3883   3.107   3.080   6.028 -1.0877  1.0141 -1.2645
   53CHL1  H11B 3884   3.107   2.914   5.958 -0.9559 -2.0281  2.4813
   53CHL1    C9 3885   2.941   3.047   5.894  1.0748 -0.1065  0.1691
   53CHL1    H9 3886   2.894   2.956   5.852  0.5532  0.0385  0.4335
   53CHL1   C10 3887   2.998   3.112   5.765 -0.0251 -0.0075  0.4289
   53CHL1   C19 3888   3.098   3.225   5.797  0.1362 -0.0509 -0.5735
   53CHL1  H19A 3889   3.182   3.167   5.842  0.4403  0.1618 -0.8624
   53CHL1  H19B 3890   3.142   3.287   5.716  1.3893 -0.3686 -0.1621
   53CHL1  H19C 3891   3.052   3.293   5.870 -2.6127 -1.2604 -1.0586
   53CHL1    C1 3892   3.072   3.002   5.687  0.8373 -0.3752 -0.2831
   53CHL1   H1A 3893   3.148   2.947   5.746  0.1109  0.7333  1.8180
   53CHL1   H1B 3894   3.001   2.921   5.660  1.2269  0.1537 -3.1727
   53CHL1    C2 3895   3.113   3.040   5.539 -0.1063 -0.2161 -0.2551
   53CHL1   H2A 3896   3.163   2.956   5.485  1.0510 -0.2275  0.8155
   53CHL1   H2B 3897   3.187   3.123   5.533 -2.1551  1.6681 -0.9844
   53CHL1   C20 3898   2.862   2.964   6.437 -0.1588  0.1139 -0.4401
   53CHL1   H20 3899   2.965   2.925   6.432 -0.1520  0.2929 -2.7399
   53CHL1   C21 3900   2.781   2.848   6.500  0.1307 -0.2735 -0.1580
   53CHL1  H21A 3901   2.676   2.884   6.508  0.0748  0.2983 -2.5517
   53CHL1  H21B 3902   2.816   2.806   6.596 -2.1530 -0.4585  0.6534
   53CHL1  H21C 3903   2.768   2.761   6.432  0.1810  0.9305 -1.7712
   53CHL1   C22 3904   2.864   3.079   6.541  0.2056 -0.1436  0.2665
   53CHL1  H22A 3905   2.917   3.171   6.511 -1.0769  2.0081  3.9032
   53CHL1  H22B 3906   2.760   3.108   6.567  0.0575 -1.9343  1.9911
   53CHL1   C23 3907   2.936   3.048   6.672  0.2238  1.0394 -0.4302
   53CHL1  H23A 3908   2.886   2.968   6.730  1.1614 -0.8544 -2.1285
   53CHL1  H23B 3909   3.037   3.017   6.638 -0.4426 -1.5714 -0.1853
   53CHL1   C24 3910   2.964   3.166   6.763 -0.0197  0.0910  0.2280
   53CHL1  H24A 3911   3.003   3.252   6.705 -2.6480  3.0822  2.5492
   53CHL1  H24B 3912   2.877   3.203   6.821  1.1410  2.2131  0.7137
   53CHL1   C25 3913   3.071   3.134   6.878 -0.5422  0.4492 -0.3451
   53CHL1   H25 3914   3.033   3.043   6.929  1.3654  0.6380  1.5628
   53CHL1   C26 3915   3.209   3.101   6.832 -0.2082 -0.6186  0.6539
   53CHL1  H26A 3916   3.274   3.087   6.921  2.0450 -1.5638 -1.0712
   53CHL1  H26B 3917   3.216   3.012   6.767 -1.4353  0.2594 -0.7585
   53CHL1  H26C 3918   3.256   3.187   6.780 -1.2643 -0.4444 -0.0487
   53CHL1   C27 3919   3.077   3.243   6.991  0.2768  0.1220  0.6945
   53CHL1  H27A 3920   3.136   3.333   6.963 -0.1882  1.1397  2.7870
   53CHL1  H27B 3921   2.970   3.264   7.016 -0.1158 -0.6298 -0.2895
   53CHL1  H27C 3922   3.115   3.202   7.087 -0.5214 -0.0559  0.9430
   54CHL1    C3 3923   3.907   2.034   5.319 -0.9198 -0.0212  0.2678
   54CHL1    H3 3924   3.804   1.994   5.303 -2.3438  2.8653  1.4432
   54CHL1    O3 3925   3.973   2.043   5.190  0.2061 -0.2554  0.2399
   54CHL1   H3' 3926   3.913   2.000   5.129  0.5564 -0.0785 -0.2354
   54CHL1    C4 3927   3.897   2.172   5.387  0.2556  0.6652  0.0789
   54CHL1   H4A 3928   4.002   2.209   5.398  0.3170  1.2196 -1.8922
   54CHL1   H4B 3929   3.847   2.237   5.312  1.7320  1.9558  0.1719
   54CHL1    C5 3930   3.843   2.164   5.525  0.0734 -0.0496 -0.2319
   54CHL1    C6 3931   3.733   2.233   5.550  0.0998 -0.1587 -0.5686
   54CHL1    H6 3932   3.678   2.284   5.470 -1.4315 -0.1603  0.4627
   54CHL1    C7 3933   3.674   2.232   5.691 -0.8961  0.4350  0.0172
   54CHL1   H7A 3934   3.630   2.328   5.725 -0.5843 -0.3910  3.0171
   54CHL1   H7B 3935   3.587   2.163   5.684 -0.7798  0.2925 -0.0287
   54CHL1    C8 3936   3.771   2.183   5.804  0.0406  0.2449 -0.2498
   54CHL1    H8 3937   3.842   2.268   5.815  0.6348 -0.3576  0.7061
   54CHL1   C14 3938   3.697   2.151   5.930  0.0847  0.4099  0.2624
   54CHL1   H14 3939   3.629   2.070   5.897 -0.5360  0.8800  0.3727
   54CHL1   C15 3940   3.610   2.255   5.997  0.3685  0.0214  0.8543
   54CHL1  H15A 3941   3.669   2.347   6.017  0.3679  0.2686 -0.2333
   54CHL1  H15B 3942   3.517   2.281   5.941 -0.7535 -1.5410  1.9004
   54CHL1   C16 3943   3.580   2.195   6.129  0.6304  0.0132 -0.1126
   54CHL1  H16A 3944   3.581   2.269   6.211 -0.2438  0.5937 -0.6124
   54CHL1  H16B 3945   3.477   2.160   6.106  0.8179 -0.2122 -0.6308
   54CHL1   C17 3946   3.666   2.068   6.149 -0.4454 -0.6486  0.5081
   54CHL1   H17 3947   3.616   1.979   6.108  1.3714 -1.7570  0.5860
   54CHL1   C13 3948   3.782   2.098   6.046 -0.7009 -0.2700  0.7753
   54CHL1   C18 3949   3.873   2.211   6.103 -0.3691  0.6587  0.1659
   54CHL1  H18A 3950   3.923   2.269   6.023 -0.7436  1.6985  0.6666
   54CHL1  H18B 3951   3.812   2.286   6.158 -1.3021 -1.0091  1.5385
   54CHL1  H18C 3952   3.948   2.168   6.173  0.5998  1.7283 -0.2073
   54CHL1   C12 3953   3.861   1.978   5.996 -0.0852  0.4344  0.1144
   54CHL1  H12A 3954   3.926   1.955   6.083 -0.7147  0.2433  0.5446
   54CHL1  H12B 3955   3.789   1.895   5.981 -0.7759  0.9704  0.4252
   54CHL1   C11 3956   3.945   2.008   5.875  0.1352  0.7443  0.3914
   54CHL1  H11A 3957   4.024   2.078   5.911  0.3761  0.9133 -0.4374
   54CHL1  H11B 3958   3.989   1.909   5.852  1.5532  0.8185  2.4785
   54CHL1    C9 3959   3.850   2.057   5.764  0.4992  0.3909 -0.4162
   54CHL1    H9 3960   3.772   1.980   5.751  0.3173  0.6561 -0.9433
   54CHL1   C10 3961   3.918   2.071   5.621  1.3398  0.1236  0.5737
   54CHL1   C19 3962   4.065   2.123   5.646 -0.0586  0.2012 -0.4395
   54CHL1  H19A 3963   4.119   2.122   5.549 -0.4322 -2.8269 -0.7159
   54CHL1  H19B 3964   4.061   2.224   5.692  1.0974 -1.5508  4.0591
   54CHL1  H19C 3965   4.131   2.059   5.708 -0.2004  0.5185  0.0452
   54CHL1    C1 3966   3.928   1.935   5.546  0.3595 -0.0728 -0.0695
   54CHL1   H1A 3967   3.982   1.867   5.616 -1.5803  1.0831  2.7215
   54CHL1   H1B 3968   3.830   1.884   5.543 -0.2283  1.0221 -0.0397
   54CHL1    C2 3969   3.993   1.943   5.400  0.0348 -0.1309 -0.4660
   54CHL1   H2A 3970   3.994   1.842   5.356  1.1387 -0.0910 -0.5743
   54CHL1   H2B 3971   4.100   1.970   5.418  0.1467 -2.3321  3.2532
   54CHL1   C20 3972   3.697   2.040   6.295  0.3187  0.6123 -0.1693
   54CHL1   H20 3973   3.751   2.125   6.342  0.8912 -0.2497  0.7828
   54CHL1   C21 3974   3.792   1.917   6.310  0.2370 -0.3949 -0.0900
   54CHL1  H21A 3975   3.810   1.876   6.412  0.4170  0.7880  0.3629
   54CHL1  H21B 3976   3.890   1.950   6.270 -1.1683  1.6760 -2.0132
   54CHL1  H21C 3977   3.750   1.825   6.264 -1.2549  0.6527 -0.8976
   54CHL1   C22 3978   3.563   2.022   6.371  0.4474  0.6385 -0.2102
   54CHL1  H22A 3979   3.497   2.110   6.350 -1.5130 -0.6997  0.0202
   54CHL1  H22B 3980   3.513   1.926   6.346  1.6013 -0.3207  1.0887
   54CHL1   C23 3981   3.590   2.007   6.524  0.6458 -0.8120 -0.1671
   54CHL1  H23A 3982   3.494   1.976   6.571  0.2342  1.1975  0.4217
   54CHL1  H23B 3983   3.655   1.922   6.553 -1.2071 -2.0238  0.6549
   54CHL1   C24 3984   3.644   2.134   6.592  0.0564 -0.3458  0.7581
   54CHL1  H24A 3985   3.739   2.176   6.554 -0.3856 -0.3971 -0.4421
   54CHL1  H24B 3986   3.572   2.216   6.573  0.9826  0.6272  1.3407
   54CHL1   C25 3987   3.669   2.126   6.748  0.4860 -1.0990  0.3904
   54CHL1   H25 3988   3.757   2.058   6.757  0.3166 -1.3341  0.2870
   54CHL1   C26 3989   3.713   2.265   6.803 -0.0270  0.0717  0.5249
   54CHL1  H26A 3990   3.734   2.258   6.911 -2.5592  1.2901  1.1817
   54CHL1  H26B 3991   3.807   2.294   6.752 -1.0579 -1.7711 -2.7678
   54CHL1  H26C 3992   3.627   2.336   6.796 -0.5183 -0.5400  0.2742
   54CHL1   C27 3993   3.561   2.055   6.827 -0.3369  0.2228  0.8851
   54CHL1  H27A 3994   3.551   1.951   6.790  0.0793  0.6638 -0.5314
   54CHL1  H27B 3995   3.605   2.046   6.928  2.9357 -1.2489 -0.5227
   54CHL1  H27C 3996   3.459   2.099   6.822 -0.3117  0.4736  2.3100
   55CHL1    C3 3997   0.392   0.797   5.264  0.4217 -0.3359  0.3807
   55CHL1    H3 3998   0.503   0.796   5.276  0.4156  1.5065  0.8466
   55CHL1    O3 3999   0.375   0.800   5.123 -0.7333 -0.9348 -0.9156
   55CHL1   H3' 4000   0.405   0.717   5.085 -0.0962 -1.1546  0.0318
   55CHL1    C4 4001   0.315   0.678   5.326 -0.1186  0.3299 -0.2134
   55CHL1   H4A 4002   0.207   0.674   5.300 -0.2425 -1.6870  0.4575
   55CHL1   H4B 4003   0.356   0.581   5.290  1.5402  0.3254  1.5501
   55CHL1    C5 4004   0.311   0.681   5.476  0.2040 -0.2917  0.0453
   55CHL1    C6 4005   0.352   0.577   5.548  0.2504 -0.1043  0.0309
   55CHL1    H6 4006   0.396   0.488   5.500  0.7844  0.3761 -0.3731
   55CHL1    C7 4007   0.361   0.569   5.695 -0.5847 -0.2031 -0.0399
   55CHL1   H7A 4008   0.318   0.470   5.721 -1.0894  0.2565  0.9300
   55CHL1   H7B 4009   0.468   0.572   5.726 -0.0824  0.7743 -1.7298
   55CHL1    C8 4010   0.299   0.688   5.770 -0.2045 -0.1470  0.0216
   55CHL1    H8 4011   0.188   0.682   5.761 -0.2406  0.6435 -0.2026
   55CHL1   C14 4012   0.339   0.704   5.918  0.3525 -0.3408 -0.3337
   55CHL1   H14 4013   0.447   0.732   5.914  0.6268 -1.4472 -1.2894
   55CHL1   C15 4014   0.340   0.577   6.005  0.1991  0.4200  0.0807
   55CHL1  H15A 4015   0.269   0.494   5.986  2.4526 -1.5344 -0.2613
   55CHL1  H15B 4016   0.437   0.523   6.005  0.6984  1.1186  3.0226
   55CHL1   C16 4017   0.327   0.629   6.150 -0.2672  0.0289  0.0906
   55CHL1  H16A 4018   0.227   0.606   6.192  0.2943  0.5097  1.7651
   55CHL1  H16B 4019   0.396   0.589   6.227  0.8422  0.2324 -0.7751
   55CHL1   C17 4020   0.332   0.787   6.140 -0.1863  0.5234 -0.1452
   55CHL1   H17 4021   0.439   0.815   6.127 -0.2942  2.2147  2.0384
   55CHL1   C13 4022   0.274   0.816   5.996  0.0534  0.6973 -0.2328
   55CHL1   C18 4023   0.126   0.791   6.011 -0.0051  0.1197 -0.2306
   55CHL1  H18A 4024   0.094   0.697   6.061 -0.7400 -0.0135 -0.9325
   55CHL1  H18B 4025   0.081   0.881   6.058  1.2451  1.1957 -1.0103
   55CHL1  H18C 4026   0.081   0.791   5.910  0.2100  0.5413 -0.3266
   55CHL1   C12 4027   0.314   0.940   5.923  0.0408  0.6949 -0.1332
   55CHL1  H12A 4028   0.275   1.028   5.978  0.4498  0.9562 -0.2563
   55CHL1  H12B 4029   0.424   0.953   5.934 -0.2211  2.9718  0.4017
   55CHL1   C11 4030   0.279   0.935   5.779 -0.0732 -0.0797  0.7122
   55CHL1  H11A 4031   0.169   0.925   5.760 -0.0860  2.0156 -0.7439
   55CHL1  H11B 4032   0.303   1.035   5.737 -3.0853  1.0864  1.4621
   55CHL1    C9 4033   0.331   0.815   5.696 -0.1793 -1.2977  0.5712
   55CHL1    H9 4034   0.440   0.828   5.680 -0.7312  0.4558 -2.7574
   55CHL1   C10 4035   0.286   0.812   5.542  0.5485  0.3237 -0.1365
   55CHL1   C19 4036   0.135   0.842   5.529  0.4750  0.0367 -0.3713
   55CHL1  H19A 4037   0.082   0.847   5.432 -0.7278  0.6438  0.3041
   55CHL1  H19B 4038   0.076   0.786   5.605 -0.7845  1.7406 -0.0481
   55CHL1  H19C 4039   0.122   0.947   5.563  0.8360  0.5763 -1.8268
   55CHL1    C1 4040   0.365   0.927   5.466  0.4774  1.0825 -0.5515
   55CHL1   H1A 4041   0.340   1.022   5.519 -1.0504  0.0350  0.6821
   55CHL1   H1B 4042   0.475   0.908   5.474  0.4139  0.9426  0.0349
   55CHL1    C2 4043   0.344   0.929   5.319  0.2536 -0.2177 -0.3522
   55CHL1   H2A 4044   0.408   1.011   5.278  0.2978 -0.0819 -0.0128
   55CHL1   H2B 4045   0.237   0.943   5.293 -0.2643  0.5168  1.9360
   55CHL1   C20 4046   0.285   0.862   6.267  0.8119  0.4233 -0.0614
   55CHL1   H20 4047   0.176   0.838   6.271  0.8231  0.5597  1.4489
   55CHL1   C21 4048   0.297   1.016   6.258 -0.1906 -0.5737  0.7663
   55CHL1  H21A 4049   0.394   1.038   6.208 -1.5409 -0.2499 -1.9125
   55CHL1  H21B 4050   0.298   1.061   6.360  1.1809 -0.2179  0.6236
   55CHL1  H21C 4051   0.225   1.053   6.182  1.1277  0.5399  0.0037
   55CHL1   C22 4052   0.351   0.813   6.396  0.0744 -0.2161 -0.0725
   55CHL1  H22A 4053   0.318   0.867   6.487  0.9491 -0.5813  0.4625
   55CHL1  H22B 4054   0.309   0.711   6.411 -0.0121 -0.1200  0.3584
   55CHL1   C23 4055   0.509   0.800   6.392 -0.2544  0.0983  0.4068
   55CHL1  H23A 4056   0.544   0.713   6.453  0.7375 -1.5921 -2.3741
   55CHL1  H23B 4057   0.551   0.758   6.298  1.0513  1.7380  0.2010
   55CHL1   C24 4058   0.581   0.931   6.430  0.0868  0.1440  0.2821
   55CHL1  H24A 4059   0.586   0.991   6.336  1.0085 -0.2290  0.0794
   55CHL1  H24B 4060   0.515   0.976   6.506 -0.8746  0.3236 -0.6391
   55CHL1   C25 4061   0.721   0.918   6.502  0.2986 -0.9089 -0.4552
   55CHL1   H25 4062   0.733   1.015   6.555 -1.1087 -0.2575 -1.2911
   55CHL1   C26 4063   0.728   0.816   6.615  0.0259 -1.0357  0.6122
   55CHL1  H26A 4064   0.732   0.711   6.579 -1.8369 -0.9696  0.1533
   55CHL1  H26B 4065   0.819   0.834   6.677  0.3768 -0.5430 -0.0339
   55CHL1  H26C 4066   0.639   0.822   6.680 -0.3198 -1.6792  0.2066
   55CHL1   C27 4067   0.844   0.895   6.409  0.0400 -0.9264  0.2311
   55CHL1  H27A 4068   0.826   0.934   6.307  0.1427  0.0415  0.5731
   55CHL1  H27B 4069   0.929   0.935   6.468 -1.0856  0.0988  1.2115
   55CHL1  H27C 4070   0.857   0.785   6.397  0.8868 -0.8511  0.4344
   56CHL1    C3 4071   1.349   5.822   5.224 -0.0352  0.3151 -0.9224
   56CHL1    H3 4072   1.325   5.921   5.268  2.4509  0.9311 -0.8183
   56CHL1    O3 4073   1.350   5.850   5.086  0.7409  0.2843 -0.8334
   56CHL1   H3' 4074   1.359   5.769   5.035 -2.4849 -0.4659 -0.4225
   56CHL1    C4 4075   1.486   5.759   5.266  0.7437 -0.3167  0.1294
   56CHL1   H4A 4076   1.499   5.665   5.208  1.1304 -1.7346  2.4101
   56CHL1   H4B 4077   1.560   5.837   5.236 -0.7726  0.0432 -3.1898
   56CHL1    C5 4078   1.497   5.731   5.414  0.3205  0.1303 -0.3198
   56CHL1    C6 4079   1.605   5.767   5.486 -0.3243 -0.0144 -0.0534
   56CHL1    H6 4080   1.674   5.833   5.431 -0.2835 -1.2162 -1.5174
   56CHL1    C7 4081   1.629   5.724   5.627  0.3661  0.1885  0.1731
   56CHL1   H7A 4082   1.735   5.694   5.641 -0.3626 -2.1125  1.1310
   56CHL1   H7B 4083   1.617   5.818   5.685  1.1359  2.4355 -3.0078
   56CHL1    C8 4084   1.527   5.619   5.688  0.1889 -0.0618 -0.1037
   56CHL1    H8 4085   1.558   5.515   5.664  0.0656  0.3132 -2.0634
   56CHL1   C14 4086   1.515   5.627   5.844 -0.1192  0.3948  0.6898
   56CHL1   H14 4087   1.465   5.725   5.857  0.7618  0.8970  0.3472
   56CHL1   C15 4088   1.646   5.620   5.919 -0.5051  0.1624  0.1002
   56CHL1  H15A 4089   1.707   5.542   5.869  0.7558  0.3142  1.3379
   56CHL1  H15B 4090   1.706   5.714   5.922 -1.9202  1.0913  0.0995
   56CHL1   C16 4091   1.606   5.576   6.061  0.1229  0.2966  0.4734
   56CHL1  H16A 4092   1.643   5.473   6.080  1.1153  0.3938 -0.7934
   56CHL1  H16B 4093   1.639   5.656   6.130 -0.2989  1.1378 -0.2831
   56CHL1   C17 4094   1.448   5.561   6.053  0.5543 -0.3434 -0.5525
   56CHL1   H17 4095   1.416   5.666   6.072  1.5861 -0.0936 -0.1331
   56CHL1   C13 4096   1.424   5.521   5.911 -0.1146 -0.7115 -0.0782
   56CHL1   C18 4097   1.468   5.378   5.879 -0.5019  0.3337  0.4706
   56CHL1  H18A 4098   1.453   5.348   5.773  1.8260  1.7824 -0.3374
   56CHL1  H18B 4099   1.574   5.360   5.907 -0.1941  0.8000 -0.3670
   56CHL1  H18C 4100   1.400   5.312   5.938 -1.7330  1.1934  0.0577
   56CHL1   C12 4101   1.280   5.553   5.850  0.1566  0.5414  0.0438
   56CHL1  H12A 4102   1.217   5.467   5.880  1.6096 -0.3074  0.7871
   56CHL1  H12B 4103   1.243   5.647   5.898  1.4497  0.6528  0.8896
   56CHL1   C11 4104   1.273   5.557   5.700 -0.5857 -0.4525 -0.0437
   56CHL1  H11A 4105   1.282   5.454   5.660  1.8343 -0.4730  0.3819
   56CHL1  H11B 4106   1.175   5.599   5.669  0.4927  0.3616 -2.6192
   56CHL1    C9 4107   1.385   5.643   5.631  0.0181  0.5206 -0.6311
   56CHL1    H9 4108   1.366   5.749   5.662 -2.7552  0.1422 -0.7407
   56CHL1   C10 4109   1.378   5.646   5.474  0.4976 -0.1681 -0.2345
   56CHL1   C19 4110   1.395   5.496   5.425 -0.0754  0.0853 -0.3891
   56CHL1  H19A 4111   1.314   5.435   5.469 -0.7008  0.7436 -0.6147
   56CHL1  H19B 4112   1.408   5.488   5.315 -1.6296  4.2775 -1.0791
   56CHL1  H19C 4113   1.494   5.464   5.464 -0.0273 -0.9172 -1.3061
   56CHL1    C1 4114   1.238   5.697   5.420 -0.5392 -0.6174  0.0907
   56CHL1   H1A 4115   1.167   5.617   5.449  1.1877 -2.1440  0.3208
   56CHL1   H1B 4116   1.209   5.792   5.468  1.8514  0.9197 -1.3071
   56CHL1    C2 4117   1.239   5.719   5.263 -0.0973 -0.7142  0.2573
   56CHL1   H2A 4118   1.151   5.767   5.216  1.4460 -1.0411 -3.2879
   56CHL1   H2B 4119   1.254   5.622   5.210  0.8094  0.2912 -1.4269
   56CHL1   C20 4120   1.393   5.468   6.168 -0.1196 -0.0002  0.6749
   56CHL1   H20 4121   1.413   5.361   6.147 -2.1854 -0.1090 -1.0660
   56CHL1   C21 4122   1.241   5.483   6.173 -0.5624  0.7515 -0.2366
   56CHL1  H21A 4123   1.196   5.466   6.073 -1.3861  0.3701  0.1980
   56CHL1  H21B 4124   1.223   5.587   6.208  1.8454  2.3242 -3.1860
   56CHL1  H21C 4125   1.201   5.409   6.245  0.8248  0.1225 -0.0775
   56CHL1   C22 4126   1.461   5.501   6.312  0.3377  0.1923  0.2587
   56CHL1  H22A 4127   1.568   5.469   6.313 -0.3773 -2.4178 -0.1529
   56CHL1  H22B 4128   1.458   5.612   6.320 -0.4952  0.1959 -0.0084
   56CHL1   C23 4129   1.394   5.437   6.432  0.1169 -0.4522 -0.7154
   56CHL1  H23A 4130   1.287   5.468   6.439  0.1078 -0.6688  0.4303
   56CHL1  H23B 4131   1.403   5.328   6.410  2.8545 -0.9211  2.0221
   56CHL1   C24 4132   1.469   5.472   6.560  0.2031 -0.3143 -0.0275
   56CHL1  H24A 4133   1.576   5.451   6.545  0.3919  0.1501  0.6192
   56CHL1  H24B 4134   1.467   5.582   6.577 -1.8137  0.1437 -2.5531
   56CHL1   C25 4135   1.416   5.415   6.696 -0.0882  0.3638  0.6045
   56CHL1   H25 4136   1.350   5.496   6.731 -0.3097  0.5059 -0.1309
   56CHL1   C26 4137   1.347   5.284   6.685 -0.3860  0.2677 -0.0941
   56CHL1  H26A 4138   1.423   5.203   6.695  1.5082  1.9309 -0.5033
   56CHL1  H26B 4139   1.284   5.259   6.774 -0.7243  2.7939  0.4598
   56CHL1  H26C 4140   1.280   5.263   6.599  2.7277  1.3067 -2.9354
   56CHL1   C27 4141   1.533   5.389   6.789  0.2265  0.2303  0.0948
   56CHL1  H27A 4142   1.591   5.482   6.803 -0.1994  0.8717 -2.0543
   56CHL1  H27B 4143   1.501   5.350   6.888 -1.2088 -0.2844 -0.5403
   56CHL1  H27C 4144   1.605   5.313   6.751 -0.2676  0.1837 -0.7714
   57SAPC     N 4145   2.551   1.194   0.465 -0.3006  0.7058  0.4207
   57SAPC   C12 4146   2.662   1.084   0.449  0.0552  0.0587  0.7870
   57SAPC  H12A 4147   2.614   0.988   0.464 -1.7225  0.6088 -1.0480
   57SAPC  H12B 4148   2.725   1.101   0.535  0.5222  0.9237  0.2861
   57SAPC   C13 4149   2.470   1.172   0.585  0.4423 -0.2944  0.0506
   57SAPC  H13A 4150   2.381   1.233   0.595 -0.3839 -1.4956  0.3117
   57SAPC  H13B 4151   2.420   1.077   0.580  0.3735 -0.2160 -0.8649
   57SAPC  H13C 4152   2.532   1.170   0.673 -0.1990 -1.4129  0.5024
   57SAPC   C14 4153   2.622   1.330   0.471 -0.1397  0.3066 -0.0237
   57SAPC  H14A 4154   2.673   1.351   0.378  1.1158 -0.1394  0.5386
   57SAPC  H14B 4155   2.546   1.395   0.512  0.5050  0.0386  1.6703
   57SAPC  H14C 4156   2.705   1.326   0.540  1.8755 -0.3826 -2.3514
   57SAPC   C15 4157   2.459   1.200   0.352  0.5841  0.6017 -0.6662
   57SAPC  H15A 4158   2.517   1.194   0.261  0.9206 -0.9947 -0.3765
   57SAPC  H15B 4159   2.386   1.120   0.357  1.2289  0.0934  1.5017
   57SAPC  H15C 4160   2.398   1.289   0.351 -1.7616 -0.8411  1.1481
   57SAPC   C11 4161   2.746   1.047   0.320 -0.4392  0.2731 -0.0493
   57SAPC  H11A 4162   2.671   0.996   0.255 -0.5495 -0.1368  0.3984
   57SAPC  H11B 4163   2.827   0.972   0.333  0.1416  0.8455 -0.3121
   57SAPC     P 4164   2.804   1.217   0.123 -0.1568 -0.1147  0.2608
   57SAPC   O13 4165   2.666   1.197   0.073  0.2815 -0.9986  0.8368
   57SAPC   O14 4166   2.863   1.351   0.119  0.0894  0.2185  0.2956
   57SAPC   O12 4167   2.809   1.171   0.274  0.2562 -0.2460  0.2764
   57SAPC   O11 4168   2.905   1.116   0.065  0.2400  0.2381 -0.1040
   57SAPC    C1 4169   2.869   0.977   0.031 -0.4146  0.5377  0.2338
   57SAPC    HA 4170   2.886   0.911   0.119 -1.1719  0.7341  0.5367
   57SAPC    HB 4171   2.760   0.962   0.014 -0.6956  0.5431  1.8865
   57SAPC    C2 4172   2.934   0.927  -0.101  0.3385  0.1015 -0.4613
   57SAPC    HS 4173   3.030   0.876  -0.076  1.9355  3.6103  1.3371
   57SAPC   O21 4174   2.954   1.042  -0.183  0.4570 -0.0267 -0.0690
   57SAPC   C21 4175   3.080   1.102  -0.174 -0.0729 -0.0656  0.5917
   57SAPC   O22 4176   3.173   1.059  -0.106 -0.7792  0.2446  1.1023
   57SAPC   C22 4177   3.084   1.230  -0.260 -0.3728 -0.1976 -0.4367
   57SAPC   H2R 4178   2.987   1.285  -0.266  0.1972  1.0802  1.2461
   57SAPC   H2S 4179   3.147   1.298  -0.200 -1.0806  0.4310 -0.3776
   57SAPC    C3 4180   2.843   0.826  -0.167  0.5223 -0.5273 -0.4982
   57SAPC    HX 4181   2.744   0.876  -0.179  0.3470 -0.4423  1.1192
   57SAPC    HY 4182   2.832   0.734  -0.105  1.3702 -0.6249 -0.4838
   57SAPC   O31 4183   2.893   0.785  -0.296 -0.0055 -0.3237  0.8022
   57SAPC   C31 4184   2.844   0.833  -0.410  1.5727  0.4569  0.3326
   57SAPC   O32 4185   2.746   0.907  -0.419  0.1938 -0.0873 -0.0186
   57SAPC   C32 4186   2.924   0.765  -0.520  0.2640  0.1783  0.0717
   57SAPC   H2X 4187   2.925   0.656  -0.497  2.0216 -0.0163 -0.7379
   57SAPC   H2Y 4188   3.033   0.784  -0.507  0.5468  0.2455 -1.9647
   57SAPC   C23 4189   3.151   1.210  -0.396  0.0549  0.0254  0.1084
   57SAPC   H3R 4190   3.251   1.164  -0.389 -0.2562 -0.8180 -0.8378
   57SAPC   H3S 4191   3.165   1.304  -0.454 -2.3622 -0.1753 -0.9130
   57SAPC   C24 4192   3.071   1.113  -0.490 -0.0019 -0.0438 -0.2394
   57SAPC   H4R 4193   3.053   1.020  -0.432 -0.7474  0.0122 -0.3762
   57SAPC   H4S 4194   3.126   1.077  -0.579  1.3846  2.4549 -0.4868
   57SAPC   C25 4195   2.940   1.179  -0.524  0.8584 -0.4368 -0.1914
   57SAPC   H5R 4196   2.859   1.144  -0.458  1.8533 -2.8462 -0.1475
   57SAPC   C26 4197   2.915   1.266  -0.623 -0.4518 -0.0873  0.2703
   57SAPC   H6R 4198   2.810   1.299  -0.629 -1.2645 -2.3321  1.2265
   57SAPC   C27 4199   3.013   1.327  -0.720  0.2623  0.9592  0.1420
   57SAPC   H7R 4200   2.992   1.275  -0.817 -2.2963  0.3077  0.9674
   57SAPC   H7S 4201   3.117   1.290  -0.703 -0.1370 -1.0704 -1.4103
   57SAPC   C28 4202   3.002   1.481  -0.730  0.1905  0.2651  0.3725
   57SAPC   H8R 4203   3.075   1.522  -0.659  3.8609 -0.7421 -2.4989
   57SAPC   C29 4204   2.917   1.554  -0.806  0.5169 -0.6504  0.6722
   57SAPC   H9R 4205   2.917   1.664  -0.798 -1.2905 -0.3988 -1.5839
   57SAPC  C210 4206   2.828   1.508  -0.923  0.5505 -0.4824  0.1788
   57SAPC  H10R 4207   2.830   1.397  -0.935 -1.6499 -0.5681  0.2513
   57SAPC  H10S 4208   2.867   1.557  -1.015  2.6962 -2.2084  0.0829
   57SAPC  C211 4209   2.682   1.532  -0.904  0.0945 -0.1935  0.0484
   57SAPC  H11R 4210   2.639   1.516  -0.805 -1.1859  3.9951  0.3814
   57SAPC  C212 4211   2.595   1.574  -1.001  0.0234 -0.8015 -0.2621
   57SAPC  H12R 4212   2.492   1.600  -0.969  0.6697  1.4912  0.1133
   57SAPC  C213 4213   2.628   1.613  -1.148  0.3293 -0.1389 -0.1194
   57SAPC  H13R 4214   2.688   1.706  -1.152 -0.4967  0.3674 -1.1111
   57SAPC  H13S 4215   2.531   1.647  -1.190  0.0005 -2.8633 -1.7978
   57SAPC  C214 4216   2.661   1.498  -1.241  1.0520 -0.3941 -0.7217
   57SAPC  H14R 4217   2.658   1.398  -1.197 -2.8527  0.7132  2.0866
   57SAPC  C215 4218   2.697   1.510  -1.367 -0.6265 -1.2495  0.3114
   57SAPC  H15R 4219   2.713   1.415  -1.420 -0.7698 -0.4647 -1.2163
   57SAPC  C216 4220   2.704   1.633  -1.455 -0.3179 -0.0382 -0.6661
   57SAPC  H16R 4221   2.812   1.662  -1.459  0.3794 -2.1636  1.0303
   57SAPC  H16S 4222   2.656   1.719  -1.404 -0.8196 -1.6374  1.6841
   57SAPC  C217 4223   2.652   1.613  -1.597 -0.2731 -0.9925  0.2878
   57SAPC  H17R 4224   2.737   1.556  -1.641  0.0058  0.1124 -0.6501
   57SAPC  H17S 4225   2.638   1.706  -1.656  0.0333 -0.7191  0.6484
   57SAPC  C218 4226   2.515   1.539  -1.606 -0.8656 -0.5106 -0.0675
   57SAPC  H18R 4227   2.452   1.588  -1.528  1.0141  1.9142  0.0434
   57SAPC  H18S 4228   2.517   1.433  -1.572  0.6526 -0.8303 -1.0587
   57SAPC  C219 4229   2.442   1.559  -1.747  0.2296  0.0905 -0.9428
   57SAPC  H19R 4230   2.418   1.667  -1.751  1.0905  0.2620 -1.8733
   57SAPC  H19S 4231   2.344   1.506  -1.750  0.5462 -0.7281  1.4012
   57SAPC  C220 4232   2.524   1.518  -1.863 -0.3038 -0.3899  0.0737
   57SAPC  H20R 4233   2.631   1.537  -1.836  0.3136 -0.6630 -2.0337
   57SAPC  H20S 4234   2.490   1.575  -1.952 -0.7726 -0.6169  0.1095
   57SAPC  H20T 4235   2.511   1.409  -1.881 -1.2226  0.0477 -2.1739
   57SAPC   C33 4236   2.876   0.782  -0.665 -0.4895 -0.8550  0.4386
   57SAPC   H3X 4237   2.892   0.890  -0.688  0.1627 -0.1379  3.7429
   57SAPC   H3Y 4238   2.768   0.754  -0.675 -0.9751  1.7028 -3.6146
   57SAPC   C34 4239   2.974   0.711  -0.754 -0.1478 -0.0454  0.1242
   57SAPC   H4X 4240   2.957   0.606  -0.721 -0.1592  0.2093  0.9507
   57SAPC   H4Y 4241   3.079   0.742  -0.735 -0.5113  1.0842  0.3202
   57SAPC   C35 4242   2.933   0.733  -0.901  0.0702  0.2693 -0.3649
   57SAPC   H5X 4243   2.953   0.838  -0.931  0.0061  1.7603  4.0607
   57SAPC   H5Y 4244   2.824   0.717  -0.913  0.3204  0.4382 -3.4984
   57SAPC   C36 4245   2.993   0.621  -0.993  0.3058  0.7519 -0.1408
   57SAPC   H6X 4246   2.982   0.519  -0.952  1.6030  0.2477 -1.0005
   57SAPC   H6Y 4247   3.097   0.642  -0.962  0.5165 -1.2879  0.6905
   57SAPC   C37 4248   2.960   0.631  -1.145  0.3499 -0.8582 -0.7637
   57SAPC   H7X 4249   2.984   0.735  -1.176  0.3281 -0.4441  0.5220
   57SAPC   H7Y 4250   2.851   0.617  -1.158  0.0213  2.2443 -2.3093
   57SAPC   C38 4251   3.037   0.535  -1.231  0.1433 -0.1107  0.7398
   57SAPC   H8X 4252   3.046   0.435  -1.184  1.8174  0.7200  2.3132
   57SAPC   H8Y 4253   3.143   0.563  -1.253  0.0401  0.6003  1.1182
   57SAPC   C39 4254   2.959   0.535  -1.362  0.2611 -0.0557  0.0042
   57SAPC   H9X 4255   2.942   0.639  -1.398 -1.5056  0.5374  2.3171
   57SAPC   H9Y 4256   2.862   0.490  -1.329  1.7791 -1.8865  2.3651
   57SAPC  C310 4257   3.024   0.469  -1.483  0.0849 -0.1271  0.3128
   57SAPC  H10X 4258   3.052   0.365  -1.455 -0.1112  0.1752  1.7243
   57SAPC  H10Y 4259   3.121   0.519  -1.504  0.3557 -0.3976  0.8893
   57SAPC  C311 4260   2.954   0.476  -1.614 -0.5061 -0.1054 -0.3015
   57SAPC  H11X 4261   2.963   0.583  -1.640  0.2712  0.0317  0.4538
   57SAPC  H11Y 4262   2.846   0.464  -1.588  0.2099 -1.4032  2.5225
   57SAPC  C312 4263   3.012   0.391  -1.728  0.0155  0.0568 -0.3924
   57SAPC  H12X 4264   2.954   0.393  -1.823 -2.4675 -0.8685  1.0049
   57SAPC  H12Y 4265   2.988   0.290  -1.690 -2.6512  0.8747  0.3603
   57SAPC  C313 4266   3.162   0.422  -1.750  0.4452 -1.1746  0.2105
   57SAPC  H13X 4267   3.221   0.400  -1.659  2.1371  2.2670  0.1284
   57SAPC  H13Y 4268   3.177   0.532  -1.763 -1.2525 -0.5433  2.9048
   57SAPC  C314 4269   3.222   0.348  -1.871  0.1236 -0.4533  0.5670
   57SAPC  H14X 4270   3.319   0.393  -1.901  0.6440  0.9517  3.9523
   57SAPC  H14Y 4271   3.153   0.364  -1.957  0.4841  0.0262  0.3636
   57SAPC  C315 4272   3.237   0.194  -1.841  1.0588  0.1329  0.5163
   57SAPC  H15X 4273   3.144   0.148  -1.802  1.7031  0.0373  1.9875
   57SAPC  H15Y 4274   3.316   0.193  -1.763  0.9876  3.0575  0.7292
   57SAPC  C316 4275   3.273   0.133  -1.976 -0.1962  0.3345 -0.9534
   57SAPC  H16X 4276   3.358   0.184  -2.026  0.5243 -2.5240 -2.9084
   57SAPC  H16Y 4277   3.191   0.123  -2.050 -0.5008  0.9294 -0.7087
   57SAPC  C317 4278   3.322  -0.009  -1.960 -0.0072 -0.0055 -0.5650
   57SAPC  H17X 4279   3.234  -0.056  -1.911 -1.0169  1.7288 -0.6515
   57SAPC  H17Y 4280   3.402  -0.010  -1.883 -0.5682  2.1935  0.1152
   57SAPC  C318 4281   3.365  -0.071  -2.092  0.1885  0.1639  0.0018
   57SAPC  H18X 4282   3.431   0.002  -2.144  0.1214 -0.0205 -0.3443
   57SAPC  H18Y 4283   3.280  -0.093  -2.159 -0.9494 -0.3376  1.5590
   57SAPC  H18Z 4284   3.422  -0.166  -2.085  1.6778  1.0693  0.8292
   58SAPC     N 4285   0.056   0.935   0.383 -0.1559 -0.0192 -0.0528
   58SAPC   C12 4286   0.065   1.059   0.473  0.3324  0.1753 -0.6849
   58SAPC  H12A 4287   0.166   1.097   0.470  1.0364 -1.5357  0.1228
   58SAPC  H12B 4288   0.040   1.042   0.576 -1.0160  0.8982 -0.8778
   58SAPC   C13 4289   0.143   0.827   0.437 -0.0181  0.1397  1.0961
   58SAPC  H13A 4290   0.147   0.740   0.373  1.1997  0.8824  0.1164
   58SAPC  H13B 4291   0.246   0.859   0.441  0.2551 -0.4305 -0.5395
   58SAPC  H13C 4292   0.103   0.813   0.536 -2.8998  2.6501  0.4211
   58SAPC   C14 4293  -0.086   0.881   0.372  0.1291 -0.3415 -0.4115
   58SAPC  H14A 4294  -0.106   0.786   0.420  0.6446 -0.3813 -0.2727
   58SAPC  H14B 4295  -0.155   0.955   0.410 -0.8122  0.6254 -3.6545
   58SAPC  H14C 4296  -0.111   0.859   0.269 -1.4669 -0.9896  0.0790
   58SAPC   C15 4297   0.105   0.961   0.247 -0.1278  0.0869  0.2560
   58SAPC  H15A 4298   0.075   0.880   0.183 -0.1377  1.4552 -1.5615
   58SAPC  H15B 4299   0.078   1.059   0.211 -0.0663  0.3401  0.8723
   58SAPC  H15C 4300   0.213   0.962   0.245 -0.1444  0.2274 -1.7215
   58SAPC   C11 4301  -0.017   1.183   0.436  0.8079  0.1356  0.2538
   58SAPC  H11A 4302  -0.009   1.252   0.523  0.1475 -1.0076  1.2481
   58SAPC  H11B 4303  -0.121   1.156   0.411  0.6701 -0.5285  1.4644
   58SAPC     P 4304  -0.025   1.332   0.213  0.0140  0.3392 -0.0442
   58SAPC   O13 4305  -0.138   1.408   0.263  0.5414 -0.1509 -0.2085
   58SAPC   O14 4306   0.076   1.414   0.142 -0.1231  0.1411 -0.5628
   58SAPC   O12 4307   0.051   1.248   0.331 -0.2155  0.0752 -0.0476
   58SAPC   O11 4308  -0.081   1.217   0.117 -0.2465  0.2284 -0.5705
   58SAPC    C1 4309  -0.008   1.186  -0.004 -0.4620 -0.4427 -0.2757
   58SAPC    HA 4310   0.085   1.247  -0.016 -0.3393 -0.6852 -0.5493
   58SAPC    HB 4311   0.017   1.078  -0.010 -1.0903 -0.5713 -0.6717
   58SAPC    C2 4312  -0.083   1.216  -0.137 -0.2069 -0.6268 -0.1954
   58SAPC    HS 4313  -0.087   1.326  -0.130 -0.1562 -0.5954 -0.6216
   58SAPC   O21 4314  -0.215   1.165  -0.109 -0.7084  0.5829 -0.1423
   58SAPC   C21 4315  -0.322   1.239  -0.124 -0.9368  0.7283 -0.0806
   58SAPC   O22 4316  -0.319   1.357  -0.142  0.6506 -0.1098  0.8639
   58SAPC   C22 4317  -0.447   1.152  -0.129 -0.0013  0.0505  0.2631
   58SAPC   H2R 4318  -0.421   1.044  -0.124  0.6731  0.2609  2.4154
   58SAPC   H2S 4319  -0.488   1.171  -0.027  2.2450  0.6492  1.1104
   58SAPC    C3 4320  -0.024   1.148  -0.265 -0.3805 -0.1038  0.3009
   58SAPC    HX 4321  -0.058   1.043  -0.250 -1.4896  0.2139  0.0944
   58SAPC    HY 4322   0.087   1.152  -0.276 -0.2388  0.3998  1.6816
   58SAPC   O31 4323  -0.093   1.187  -0.388 -0.1822 -0.3461  0.2204
   58SAPC   C31 4324  -0.060   1.308  -0.435  0.3765  0.1348  0.4522
   58SAPC   O32 4325   0.021   1.375  -0.379 -0.1988 -0.2636  0.4302
   58SAPC   C32 4326  -0.145   1.347  -0.558  0.4841 -0.4288 -0.8039
   58SAPC   H2X 4327  -0.253   1.332  -0.536  1.0851 -1.8629  1.5178
   58SAPC   H2Y 4328  -0.127   1.263  -0.629 -3.9567 -1.0908 -1.4208
   58SAPC   C23 4329  -0.550   1.199  -0.225  0.6684 -0.5004 -0.3320
   58SAPC   H3R 4330  -0.581   1.298  -0.186  0.2233 -0.6483 -0.3037
   58SAPC   H3S 4331  -0.641   1.137  -0.213  2.1778 -2.6947  0.5229
   58SAPC   C24 4332  -0.500   1.217  -0.374  0.1787  0.2323 -0.1046
   58SAPC   H4R 4333  -0.431   1.302  -0.394 -0.9167  0.6144 -2.7113
   58SAPC   H4S 4334  -0.590   1.244  -0.433 -0.2996  1.9511  1.3382
   58SAPC   C25 4335  -0.442   1.089  -0.425  0.6115 -0.4466  0.2971
   58SAPC   H5R 4336  -0.398   1.026  -0.346 -1.5209 -1.7115  0.5683
   58SAPC   C26 4337  -0.456   1.042  -0.555 -0.4620 -0.2536  0.2548
   58SAPC   H6R 4338  -0.416   0.943  -0.582  1.5760  0.2670  1.2007
   58SAPC   C27 4339  -0.539   1.104  -0.668 -0.0431 -0.1428 -0.3452
   58SAPC   H7R 4340  -0.593   1.193  -0.629  0.6777  0.4894 -0.7593
   58SAPC   H7S 4341  -0.618   1.038  -0.710 -0.2293  0.3859 -0.8454
   58SAPC   C28 4342  -0.442   1.138  -0.783 -0.1905 -0.7496  0.3568
   58SAPC   H8R 4343  -0.335   1.142  -0.758 -0.2477 -0.2929  0.5244
   58SAPC   C29 4344  -0.469   1.159  -0.913 -0.0599 -0.1036  0.5815
   58SAPC   H9R 4345  -0.397   1.212  -0.978 -1.5253  0.1047 -0.9483
   58SAPC  C210 4346  -0.610   1.152  -0.969  0.0294  0.6383 -0.1215
   58SAPC  H10R 4347  -0.676   1.094  -0.900 -0.4388  1.2287 -0.0636
   58SAPC  H10S 4348  -0.624   1.092  -1.061  2.3810  1.3252 -0.9792
   58SAPC  C211 4349  -0.671   1.287  -0.990 -0.4920 -0.5523  0.1690
   58SAPC  H11R 4350  -0.692   1.347  -0.900 -0.3298 -1.7710  1.0401
   58SAPC  C212 4351  -0.704   1.345  -1.108  0.8385 -0.3081  0.0433
   58SAPC  H12R 4352  -0.744   1.447  -1.097  0.8046 -0.5698  3.5637
   58SAPC  C213 4353  -0.699   1.276  -1.241 -0.3826  0.7747  0.2452
   58SAPC  H13R 4354  -0.599   1.228  -1.255 -0.0628  1.8634 -1.4819
   58SAPC  H13S 4355  -0.694   1.356  -1.318 -0.3649  0.4724 -0.0710
   58SAPC  C214 4356  -0.813   1.185  -1.266  0.5945  0.4026 -0.0459
   58SAPC  H14R 4357  -0.907   1.201  -1.211 -0.5726 -2.4662 -1.0337
   58SAPC  C215 4358  -0.804   1.081  -1.347 -0.0427 -0.1675  0.5810
   58SAPC  H15R 4359  -0.896   1.023  -1.361 -1.0477  0.5270  3.4685
   58SAPC  C216 4360  -0.673   1.030  -1.411  0.3707 -0.2574 -0.3310
   58SAPC  H16R 4361  -0.579   1.076  -1.374 -0.4305  1.0381  0.1920
   58SAPC  H16S 4362  -0.670   1.038  -1.522  0.4943 -3.8038 -0.6924
   58SAPC  C217 4363  -0.666   0.872  -1.393  0.2457  0.1118  0.1596
   58SAPC  H17R 4364  -0.575   0.833  -1.443 -0.3692  0.1913 -1.0469
   58SAPC  H17S 4365  -0.747   0.829  -1.454 -0.4749 -0.6720  1.6276
   58SAPC  C218 4366  -0.667   0.828  -1.243 -0.3711  0.0974  0.6555
   58SAPC  H18R 4367  -0.767   0.837  -1.195 -0.5246  1.1824  0.1446
   58SAPC  H18S 4368  -0.592   0.882  -1.182 -1.4946  1.9886  0.4406
   58SAPC  C219 4369  -0.642   0.684  -1.234 -0.4434  0.1453  0.3932
   58SAPC  H19R 4370  -0.546   0.654  -1.280  0.3483  0.1973  1.9509
   58SAPC  H19S 4371  -0.709   0.616  -1.292  1.2891 -1.0214 -0.3193
   58SAPC  C220 4372  -0.644   0.635  -1.092 -0.0369 -0.0331  0.7058
   58SAPC  H20R 4373  -0.557   0.680  -1.041 -0.1762  0.6425  0.3545
   58SAPC  H20S 4374  -0.644   0.524  -1.086  1.2544  0.0342  3.5173
   58SAPC  H20T 4375  -0.741   0.673  -1.054 -0.5475 -0.0722 -0.5013
   58SAPC   C33 4376  -0.111   1.484  -0.612  0.5851 -0.5234 -0.1626
   58SAPC   H3X 4377  -0.000   1.498  -0.610  0.3889  1.1888  0.5842
   58SAPC   H3Y 4378  -0.146   1.560  -0.540  1.1476  0.0510 -0.4772
   58SAPC   C34 4379  -0.163   1.502  -0.756 -0.1246 -0.2510  0.0109
   58SAPC   H4X 4380  -0.156   1.608  -0.790  2.0121 -0.6424 -0.9515
   58SAPC   H4Y 4381  -0.271   1.475  -0.752 -0.2821 -0.0373 -1.7553
   58SAPC   C35 4382  -0.095   1.426  -0.871 -0.1935  0.0471  0.4923
   58SAPC   H5X 4383  -0.164   1.374  -0.940 -0.9419 -0.5259  1.6377
   58SAPC   H5Y 4384  -0.029   1.349  -0.825  0.4940  0.5719  0.4149
   58SAPC   C36 4385   0.017   1.500  -0.938  0.0808 -0.8248 -1.2638
   58SAPC   H6X 4386   0.110   1.497  -0.878 -0.6477  1.2469  0.0892
   58SAPC   H6Y 4387  -0.010   1.608  -0.937  0.2824 -0.7802 -0.3951
   58SAPC   C37 4388   0.039   1.459  -1.079  0.7734 -0.0587 -0.0751
   58SAPC   H7X 4389  -0.057   1.465  -1.136  0.4051  1.8590  0.6510
   58SAPC   H7Y 4390   0.071   1.353  -1.070  0.8120 -0.0655 -0.2732
   58SAPC   C38 4391   0.155   1.538  -1.139  0.4880 -0.2956 -0.4135
   58SAPC   H8X 4392   0.255   1.513  -1.096 -0.7871 -0.3827  2.6879
   58SAPC   H8Y 4393   0.140   1.644  -1.110 -0.2580  0.6321 -3.7202
   58SAPC   C39 4394   0.159   1.551  -1.291 -0.3674  0.6477  0.2506
   58SAPC   H9X 4395   0.207   1.650  -1.306  0.2126  0.4457  0.7354
   58SAPC   H9Y 4396   0.058   1.558  -1.336 -0.7495 -2.2072  0.5016
   58SAPC  C310 4397   0.245   1.453  -1.360 -0.3140  0.1088 -0.1319
   58SAPC  H10X 4398   0.198   1.355  -1.386  2.4548 -1.5198  0.6146
   58SAPC  H10Y 4399   0.327   1.417  -1.295 -0.1729  1.3710  0.4152
   58SAPC  C311 4400   0.306   1.515  -1.481  0.2437 -0.0924  0.2608
   58SAPC  H11X 4401   0.361   1.605  -1.446  0.7519  0.2168 -1.2737
   58SAPC  H11Y 4402   0.231   1.546  -1.558 -2.2629 -2.2851  1.6317
   58SAPC  C312 4403   0.410   1.425  -1.549  0.1468 -0.3808 -1.1513
   58SAPC  H12X 4404   0.463   1.368  -1.470  0.0199  0.4461 -0.4493
   58SAPC  H12Y 4405   0.477   1.468  -1.626 -0.0389  0.6638 -0.7409
   58SAPC  C313 4406   0.340   1.320  -1.639  0.4451 -0.2035 -0.5055
   58SAPC  H13X 4407   0.278   1.375  -1.713  3.0195  2.8661 -0.5809
   58SAPC  H13Y 4408   0.266   1.255  -1.587  1.0086  0.5559  1.3240
   58SAPC  C314 4409   0.431   1.222  -1.716 -0.4015  0.7005  0.0427
   58SAPC  H14X 4410   0.465   1.131  -1.661 -1.2137 -1.2143 -2.4272
   58SAPC  H14Y 4411   0.520   1.285  -1.734 -0.0150  0.0414 -0.4273
   58SAPC  C315 4412   0.370   1.172  -1.848 -0.1553 -0.3649 -0.8318
   58SAPC  H15X 4413   0.350   1.258  -1.915 -2.0881  1.9265  2.4214
   58SAPC  H15Y 4414   0.270   1.125  -1.835 -1.8660  2.8426 -1.4515
   58SAPC  C316 4415   0.464   1.078  -1.923  0.2441 -0.5285 -0.4797
   58SAPC  H16X 4416   0.474   0.988  -1.858 -0.9928  0.0606  0.5847
   58SAPC  H16Y 4417   0.565   1.123  -1.926  0.0453  0.2263  1.8238
   58SAPC  C317 4418   0.417   1.052  -2.067 -0.1324 -0.0399 -0.9087
   58SAPC  H17X 4419   0.488   0.978  -2.110 -1.5450 -2.7847  1.1372
   58SAPC  H17Y 4420   0.435   1.141  -2.131 -1.2303  0.3009 -0.7531
   58SAPC  C318 4421   0.275   1.002  -2.077 -0.6210 -0.2595  0.6793
   58SAPC  H18X 4422   0.200   1.057  -2.017 -0.5433  1.9169 -1.1086
   58SAPC  H18Y 4423   0.281   0.898  -2.038 -0.8232 -0.9623 -1.0884
   58SAPC  H18Z 4424   0.246   1.004  -2.184  1.7333  0.8205 -0.0062
   59SAPC     N 4425   1.307   4.784   0.551 -0.0736 -0.3263 -0.6243
   59SAPC   C12 4426   1.290   4.802   0.404 -0.6496  0.2759  0.4811
   59SAPC  H12A 4427   1.243   4.897   0.382 -1.1837 -0.0883  0.0160
   59SAPC  H12B 4428   1.225   4.729   0.359 -1.1901  1.0362 -0.0007
   59SAPC   C13 4429   1.402   4.676   0.581 -0.0301  0.0554 -0.0854
   59SAPC  H13A 4430   1.493   4.695   0.528  0.0372 -2.4191 -0.9888
   59SAPC  H13B 4431   1.416   4.662   0.687 -2.1471 -0.5482  0.1809
   59SAPC  H13C 4432   1.369   4.582   0.539  1.5024 -0.4011 -0.3315
   59SAPC   C14 4433   1.374   4.900   0.614 -0.1247 -0.4150 -0.5883
   59SAPC  H14A 4434   1.292   4.967   0.635 -0.5469 -1.5441  1.6464
   59SAPC  H14B 4435   1.423   4.864   0.703 -3.8999 -0.7832  1.5685
   59SAPC  H14C 4436   1.448   4.944   0.549 -0.2707  2.4782  1.0148
   59SAPC   C15 4437   1.179   4.752   0.616  0.1490  0.0317 -0.2391
   59SAPC  H15A 4438   1.137   4.658   0.583  0.4045 -0.4708  0.8187
   59SAPC  H15B 4439   1.191   4.747   0.723 -0.1551  0.7828 -0.1644
   59SAPC  H15C 4440   1.117   4.837   0.593 -0.8346 -0.5741  0.0838
   59SAPC   C11 4441   1.421   4.803   0.314  0.2852  0.2678  0.4899
   59SAPC  H11A 4442   1.388   4.800   0.208 -1.0825 -1.8810  0.9142
   59SAPC  H11B 4443   1.471   4.704   0.322  1.1914  0.6137 -0.6375
   59SAPC     P 4444   1.497   5.054   0.297  0.1985  0.1262 -0.2445
   59SAPC   O13 4445   1.420   5.132   0.401 -0.3026 -0.0179 -0.4776
   59SAPC   O14 4446   1.627   5.105   0.254 -0.1662 -0.0065  0.0853
   59SAPC   O12 4447   1.514   4.902   0.351  0.1560 -0.0406 -0.0094
   59SAPC   O11 4448   1.409   5.039   0.172 -0.6442 -0.1564  0.2876
   59SAPC    C1 4449   1.449   5.024   0.037  0.6198 -0.8310 -0.3495
   59SAPC    HA 4450   1.548   4.973   0.029  1.8222  1.5583 -1.6978
   59SAPC    HB 4451   1.379   4.951  -0.008 -1.6324 -0.6458  2.5123
   59SAPC    C2 4452   1.441   5.154  -0.044 -0.0892 -0.5764  0.3539
   59SAPC    HS 4453   1.496   5.234   0.009 -0.3803  1.4569 -2.1853
   59SAPC   O21 4454   1.306   5.194  -0.065 -0.1630  0.1714  0.2111
   59SAPC   C21 4455   1.298   5.328  -0.087  0.3255  0.3738 -0.2861
   59SAPC   O22 4456   1.384   5.407  -0.058 -0.1409 -0.7460  0.2051
   59SAPC   C22 4457   1.164   5.369  -0.161  0.2302 -0.3380 -0.3604
   59SAPC   H2R 4458   1.147   5.284  -0.230  0.8368 -0.1601 -0.7342
   59SAPC   H2S 4459   1.087   5.380  -0.081  0.7007  1.5172 -0.1013
   59SAPC    C3 4460   1.524   5.151  -0.183  0.4860  0.0388  0.0691
   59SAPC    HX 4461   1.634   5.138  -0.170  0.4503  0.3419  0.7125
   59SAPC    HY 4462   1.502   5.248  -0.232  0.0037 -1.1354 -2.1731
   59SAPC   O31 4463   1.475   5.040  -0.259 -0.2426  0.0413 -0.0908
   59SAPC   C31 4464   1.518   5.046  -0.388 -0.9133  0.2742 -0.8249
   59SAPC   O32 4465   1.619   5.107  -0.422 -0.6320  0.4666  0.5071
   59SAPC   C32 4466   1.424   4.956  -0.469 -0.1431 -0.0934  0.4679
   59SAPC   H2X 4467   1.324   5.003  -0.459 -0.0928  0.5959 -1.6564
   59SAPC   H2Y 4468   1.413   4.860  -0.414  0.4340  0.2706  1.2280
   59SAPC   C23 4469   1.176   5.499  -0.237  0.3878  0.5129  0.8640
   59SAPC   H3R 4470   1.230   5.584  -0.189  0.3004  0.2701  1.4045
   59SAPC   H3S 4471   1.074   5.539  -0.257  0.1923  0.0122  0.8567
   59SAPC   C24 4472   1.226   5.472  -0.386  0.0478 -0.2069 -0.2105
   59SAPC   H4R 4473   1.201   5.572  -0.427 -0.4836  0.6706  2.0948
   59SAPC   H4S 4474   1.174   5.394  -0.447 -0.9000 -0.0036  0.3155
   59SAPC   C25 4475   1.378   5.455  -0.405  0.0897 -0.4908  0.4490
   59SAPC   H5R 4476   1.435   5.469  -0.312 -0.2292 -1.1797  0.7586
   59SAPC   C26 4477   1.441   5.445  -0.520 -0.4501 -0.3752 -0.5692
   59SAPC   H6R 4478   1.548   5.419  -0.523 -0.4378 -0.2592 -1.3404
   59SAPC   C27 4479   1.379   5.429  -0.660  0.1334 -0.5494  0.3405
   59SAPC   H7R 4480   1.268   5.427  -0.662 -0.0333  2.9634 -0.1130
   59SAPC   H7S 4481   1.418   5.333  -0.701 -0.1463  0.1214 -1.5786
   59SAPC   C28 4482   1.446   5.527  -0.757 -1.0248 -0.4872 -0.1435
   59SAPC   H8R 4483   1.485   5.616  -0.706 -0.1272 -0.4309 -0.9018
   59SAPC   C29 4484   1.420   5.532  -0.895 -0.1193 -0.2746  0.1997
   59SAPC   H9R 4485   1.464   5.615  -0.952  0.4343 -1.3140 -0.9322
   59SAPC  C210 4486   1.346   5.435  -0.980  0.7172  0.4557 -0.9705
   59SAPC  H10R 4487   1.287   5.499  -1.049  0.2892  0.0441 -0.9932
   59SAPC  H10S 4488   1.268   5.384  -0.919 -0.6316  3.4019 -0.0543
   59SAPC  C211 4489   1.433   5.344  -1.067 -0.4893 -0.9371 -0.6816
   59SAPC  H11R 4490   1.501   5.275  -1.014  0.0987  0.4818  0.4746
   59SAPC  C212 4491   1.450   5.360  -1.196  0.8431  0.1456  0.4752
   59SAPC  H12R 4492   1.519   5.288  -1.241 -0.2397 -2.1240  2.2455
   59SAPC  C213 4493   1.380   5.456  -1.291 -0.7022 -0.2747 -0.2665
   59SAPC  H13R 4494   1.350   5.545  -1.231 -0.1084 -1.0699  1.2720
   59SAPC  H13S 4495   1.289   5.406  -1.331  0.1477 -1.7123 -0.4783
   59SAPC  C214 4496   1.478   5.490  -1.408  0.4351 -0.2213 -0.5632
   59SAPC  H14R 4497   1.586   5.482  -1.389  0.2805 -0.6856  0.1428
   59SAPC  C215 4498   1.439   5.520  -1.534 -0.0650  0.3138 -0.1505
   59SAPC  H15R 4499   1.518   5.519  -1.610 -0.6491  0.0409 -0.7694
   59SAPC  C216 4500   1.293   5.522  -1.577 -0.5261 -1.0310  0.0006
   59SAPC  H16R 4501   1.244   5.621  -1.590 -0.0469 -1.0009 -1.8725
   59SAPC  H16S 4502   1.234   5.469  -1.499  0.4829 -2.0685  0.0927
   59SAPC  C217 4503   1.260   5.430  -1.697  0.5685  0.1286 -0.4677
   59SAPC  H17R 4504   1.314   5.449  -1.792  2.8432 -0.4577  0.6190
   59SAPC  H17S 4505   1.150   5.420  -1.710  0.4126  0.1775  0.6573
   59SAPC  C218 4506   1.297   5.284  -1.661  0.8998 -0.1440  0.7140
   59SAPC  H18R 4507   1.253   5.256  -1.563  1.1860 -1.9470  0.3563
   59SAPC  H18S 4508   1.407   5.273  -1.654  0.7162 -1.7508  1.5585
   59SAPC  C219 4509   1.233   5.191  -1.780  0.0880 -0.2917 -0.2540
   59SAPC  H19R 4510   1.273   5.239  -1.872  0.7420  1.5637  0.9360
   59SAPC  H19S 4511   1.123   5.206  -1.784  0.0508 -0.2516  0.7271
   59SAPC  C220 4512   1.259   5.047  -1.760 -0.1085 -0.1769  0.3830
   59SAPC  H20R 4513   1.283   5.032  -1.653 -1.6494  1.1514  0.9489
   59SAPC  H20S 4514   1.347   5.021  -1.823 -0.4690 -0.3923 -0.0458
   59SAPC  H20T 4515   1.172   4.987  -1.795 -0.7478  1.9289 -1.8970
   59SAPC   C33 4516   1.456   4.967  -0.618  0.7947  0.1553 -0.1732
   59SAPC   H3X 4517   1.550   4.915  -0.643  0.9636  0.2200  0.3219
   59SAPC   H3Y 4518   1.461   5.075  -0.646 -5.9170  1.7319  2.6158
   59SAPC   C34 4519   1.342   4.912  -0.709 -0.5301 -0.1323  0.3191
   59SAPC   H4X 4520   1.251   4.970  -0.683  0.8858  1.6249  1.5198
   59SAPC   H4Y 4521   1.329   4.801  -0.705  0.1325 -0.2671 -0.7973
   59SAPC   C35 4522   1.373   4.960  -0.856  0.0146 -0.7720  0.4056
   59SAPC   H5X 4523   1.473   4.922  -0.886 -0.9435 -3.8330  0.6816
   59SAPC   H5Y 4524   1.370   5.070  -0.866 -0.4770 -0.9120 -1.5076
   59SAPC   C36 4525   1.284   4.900  -0.974 -0.2854  0.5190  0.4084
   59SAPC   H6X 4526   1.177   4.927  -0.957 -0.1890  0.9648  0.3339
   59SAPC   H6Y 4527   1.286   4.789  -0.970  0.6986  0.4806 -0.6158
   59SAPC   C37 4528   1.314   4.935  -1.120  0.1900  0.3255  0.1665
   59SAPC   H7X 4529   1.309   5.045  -1.131 -1.6373  0.3014  0.3415
   59SAPC   H7Y 4530   1.236   4.904  -1.193  1.1515 -0.2845 -0.6093
   59SAPC   C38 4531   1.447   4.893  -1.168 -0.0164 -0.4180  0.3401
   59SAPC   H8X 4532   1.452   4.782  -1.172 -0.1677 -0.4110 -0.1428
   59SAPC   H8Y 4533   1.533   4.925  -1.105 -0.5965 -1.8152  1.9017
   59SAPC   C39 4534   1.481   4.949  -1.302  0.4235 -0.5466  0.6496
   59SAPC   H9X 4535   1.501   5.059  -1.298 -2.8503  0.1825  0.0332
   59SAPC   H9Y 4536   1.391   4.940  -1.367  0.7966 -4.5255  0.4448
   59SAPC  C310 4537   1.595   4.868  -1.369  0.0778 -0.0924  0.2822
   59SAPC  H10X 4538   1.558   4.764  -1.384 -0.0393  0.0328 -0.2893
   59SAPC  H10Y 4539   1.680   4.857  -1.297 -0.3917 -3.0572  0.4994
   59SAPC  C311 4540   1.648   4.920  -1.497 -0.1407  0.1781 -0.0737
   59SAPC  H11X 4541   1.564   4.912  -1.569 -1.0340 -1.6957  1.1093
   59SAPC  H11Y 4542   1.722   4.841  -1.524 -0.4554 -1.1373  2.5690
   59SAPC  C312 4543   1.725   5.054  -1.487 -0.2182 -0.4149  0.0913
   59SAPC  H12X 4544   1.813   5.041  -1.420 -2.2102  0.2626  3.0731
   59SAPC  H12Y 4545   1.657   5.126  -1.436  3.5980  2.6040  1.4039
   59SAPC  C313 4546   1.765   5.093  -1.631  0.3509  0.1101  0.1382
   59SAPC  H13X 4547   1.663   5.109  -1.672  0.6675  1.6789 -0.1212
   59SAPC  H13Y 4548   1.820   5.002  -1.662 -0.2088 -1.9186  4.4661
   59SAPC  C314 4549   1.849   5.225  -1.649  0.5156  0.1873 -0.5560
   59SAPC  H14X 4550   1.949   5.208  -1.603  0.7323  0.7989 -0.7897
   59SAPC  H14Y 4551   1.805   5.316  -1.603  2.9189  1.4622 -0.6271
   59SAPC  C315 4552   1.872   5.274  -1.795 -0.5689  0.3221 -0.0534
   59SAPC  H15X 4553   1.773   5.301  -1.838 -1.0514 -0.6937  0.3838
   59SAPC  H15Y 4554   1.913   5.190  -1.854  0.3934  1.0106 -0.3965
   59SAPC  C316 4555   1.989   5.384  -1.798 -0.6419  0.4321 -0.6564
   59SAPC  H16X 4556   2.080   5.334  -1.758 -2.8647 -2.0189  1.8072
   59SAPC  H16Y 4557   1.964   5.465  -1.726 -0.7315  2.3467 -2.7559
   59SAPC  C317 4558   2.000   5.434  -1.933 -0.1797  0.3928  0.3155
   59SAPC  H17X 4559   2.055   5.530  -1.936 -1.3037  1.0221 -1.6808
   59SAPC  H17Y 4560   1.900   5.464  -1.970 -0.2453 -0.5189 -0.2922
   59SAPC  C318 4561   2.079   5.345  -2.029 -0.1790  0.0657 -0.2830
   59SAPC  H18X 4562   2.048   5.239  -2.024  0.4309 -0.0451  2.4839
   59SAPC  H18Y 4563   2.187   5.362  -2.010 -0.2711  0.1755  0.1408
   59SAPC  H18Z 4564   2.055   5.384  -2.130  0.3635  1.5980  0.1516
   60SAPC     N 4565   1.568   0.733   0.090 -0.2719  0.2008  0.1405
   60SAPC   C12 4566   1.469   0.649   0.008 -0.4120  0.4488  0.3178
   60SAPC  H12A 4567   1.475   0.694  -0.090 -0.1868  0.6857  0.4411
   60SAPC  H12B 4568   1.365   0.656   0.034 -0.9848 -1.5231 -1.1814
   60SAPC   C13 4569   1.584   0.673   0.228  0.3140 -0.5452  0.4635
   60SAPC  H13A 4570   1.488   0.665   0.278 -0.8616 -0.8503 -1.6865
   60SAPC  H13B 4571   1.637   0.579   0.236 -2.3164 -2.0317  2.0780
   60SAPC  H13C 4572   1.635   0.743   0.292  1.4245 -0.2905 -0.6653
   60SAPC   C14 4573   1.699   0.739   0.027 -0.7575 -0.3090 -0.1181
   60SAPC  H14A 4574   1.688   0.820  -0.043 -2.3032 -1.0049 -0.7107
   60SAPC  H14B 4575   1.776   0.759   0.101 -0.8799 -1.4925  0.3586
   60SAPC  H14C 4576   1.731   0.656  -0.035 -1.3317  0.9095 -2.0976
   60SAPC   C15 4577   1.515   0.876   0.101  0.2392  0.8049 -0.0232
   60SAPC  H15A 4578   1.566   0.923   0.184  0.5891 -1.4992  1.1587
   60SAPC  H15B 4579   1.521   0.935   0.011  2.7850  1.3004  0.3853
   60SAPC  H15C 4580   1.409   0.876   0.124  0.1478  1.2125 -0.4402
   60SAPC   C11 4581   1.490   0.495  -0.004 -0.6009  0.1134 -0.0765
   60SAPC  H11A 4582   1.388   0.470  -0.042 -0.2622  0.2192 -1.0952
   60SAPC  H11B 4583   1.511   0.455   0.097  0.7589 -0.7774 -0.6785
   60SAPC     P 4584   1.577   0.464  -0.246 -0.2502 -0.3044  0.0240
   60SAPC   O13 4585   1.553   0.327  -0.295 -0.4343 -0.8414  0.6485
   60SAPC   O14 4586   1.480   0.563  -0.282  0.4600 -0.0471  0.1062
   60SAPC   O12 4587   1.597   0.457  -0.087  0.6592  0.3065  0.2220
   60SAPC   O11 4588   1.716   0.519  -0.298 -0.5346  0.1225 -0.0106
   60SAPC    C1 4589   1.735   0.647  -0.353  0.3041 -0.5477 -0.4870
   60SAPC    HA 4590   1.668   0.721  -0.304 -2.1026 -1.9770 -1.4197
   60SAPC    HB 4591   1.840   0.672  -0.327 -0.0034  0.4920 -0.1745
   60SAPC    C2 4592   1.731   0.632  -0.505 -0.1619  0.2057  0.1202
   60SAPC    HS 4593   1.623   0.616  -0.526 -1.1291  2.6328  2.6221
   60SAPC   O21 4594   1.827   0.529  -0.541  0.0717 -0.0615 -0.0354
   60SAPC   C21 4595   1.792   0.435  -0.621  0.0989  0.2728  0.2527
   60SAPC   O22 4596   1.680   0.416  -0.669 -0.6417  0.0746  0.0465
   60SAPC   C22 4597   1.912   0.350  -0.655  0.0743 -0.5550 -0.0984
   60SAPC   H2R 4598   2.002   0.372  -0.594  0.5265  1.5567 -1.4406
   60SAPC   H2S 4599   1.883   0.245  -0.630 -1.7894  0.2841  1.5182
   60SAPC    C3 4600   1.770   0.757  -0.585  0.2425 -0.0430  0.5524
   60SAPC    HX 4601   1.880   0.769  -0.580  0.1799  3.3894 -2.3577
   60SAPC    HY 4602   1.733   0.856  -0.550  2.0522  0.9381 -0.1873
   60SAPC   O31 4603   1.735   0.749  -0.723 -0.1921  0.0560 -0.2024
   60SAPC   C31 4604   1.611   0.766  -0.759  0.0931 -0.0960  0.8856
   60SAPC   O32 4605   1.523   0.805  -0.692  0.5094 -0.0336  0.1253
   60SAPC   C32 4606   1.592   0.741  -0.906  0.1873 -0.5528 -0.1866
   60SAPC   H2X 4607   1.643   0.824  -0.960  0.8146 -0.0753  1.1056
   60SAPC   H2Y 4608   1.485   0.731  -0.935  0.7840 -2.0209 -2.1366
   60SAPC   C23 4609   1.957   0.372  -0.801  0.1460 -0.0364 -0.6158
   60SAPC   H3R 4610   1.971   0.481  -0.820  0.9462 -0.3845 -2.1594
   60SAPC   H3S 4611   1.877   0.337  -0.869 -0.5090  0.4947 -0.1308
   60SAPC   C24 4612   2.094   0.318  -0.840  0.0544 -0.6675 -0.0490
   60SAPC   H4R 4613   2.182   0.361  -0.786  0.4729  1.0026 -1.9327
   60SAPC   H4S 4614   2.112   0.345  -0.946 -1.2356  0.4192 -0.0204
   60SAPC   C25 4615   2.086   0.169  -0.820  0.2488  0.1629  0.5340
   60SAPC   H5R 4616   2.062   0.137  -0.717  0.1538  0.1667  0.5133
   60SAPC   C26 4617   2.120   0.075  -0.906 -0.4408  0.6934  0.7216
   60SAPC   H6R 4618   2.120  -0.030  -0.873  1.6667  0.8125  1.1991
   60SAPC   C27 4619   2.171   0.095  -1.042 -0.8083 -0.0038  0.3401
   60SAPC   H7R 4620   2.233   0.014  -1.086  0.3727  1.0281  0.0733
   60SAPC   H7S 4621   2.236   0.185  -1.038 -0.4420  0.0692 -3.4550
   60SAPC   C28 4622   2.053   0.112  -1.132 -0.0333 -0.0469 -0.0009
   60SAPC   H8R 4623   1.965   0.165  -1.093 -0.1846 -1.8686  2.4017
   60SAPC   C29 4624   2.059   0.083  -1.263  0.1117  0.0476  1.0816
   60SAPC   H9R 4625   1.969   0.100  -1.324  0.4175 -0.3422  0.5038
   60SAPC  C210 4626   2.179   0.025  -1.339  0.5146 -0.0847  0.2377
   60SAPC  H10R 4627   2.159  -0.084  -1.341 -2.6425  0.3850  0.0719
   60SAPC  H10S 4628   2.278   0.029  -1.290  1.4480 -1.1159 -1.4666
   60SAPC  C211 4629   2.180   0.071  -1.477 -0.5199 -0.9663  0.4009
   60SAPC  H11R 4630   2.239   0.163  -1.492 -3.1207  0.6556 -0.5307
   60SAPC  C212 4631   2.117   0.013  -1.581 -0.4744  0.0301 -0.9625
   60SAPC  H12R 4632   2.148   0.048  -1.681  1.3564 -1.3556 -0.9390
   60SAPC  C213 4633   2.039  -0.118  -1.588  0.6165 -0.4163  0.2007
   60SAPC  H13R 4634   1.928  -0.108  -1.594  0.5330  0.3708  2.1187
   60SAPC  H13S 4635   2.051  -0.179  -1.496  1.2731 -0.0066  0.3965
   60SAPC  C214 4636   2.090  -0.195  -1.707 -0.5409  0.7392 -0.4033
   60SAPC  H14R 4637   2.196  -0.218  -1.694 -1.1350 -1.9501  0.2040
   60SAPC  C215 4638   2.038  -0.255  -1.814  0.5531  0.1083 -0.3283
   60SAPC  H15R 4639   2.111  -0.281  -1.891  2.2767 -1.9473  1.8281
   60SAPC  C216 4640   1.895  -0.259  -1.850 -0.5980 -0.2644  0.5790
   60SAPC  H16R 4641   1.835  -0.255  -1.756  0.6816  0.8305  1.3852
   60SAPC  H16S 4642   1.849  -0.349  -1.896 -2.8536  1.2454 -0.2981
   60SAPC  C217 4643   1.841  -0.130  -1.921 -0.1416  0.3952 -0.5875
   60SAPC  H17R 4644   1.866  -0.139  -2.028 -0.2729 -0.9226 -0.5193
   60SAPC  H17S 4645   1.886  -0.043  -1.868  0.3559  0.5245 -1.2061
   60SAPC  C218 4646   1.692  -0.111  -1.909  0.4426 -0.1752  0.0384
   60SAPC  H18R 4647   1.661  -0.010  -1.945 -2.1098 -0.6747  0.6280
   60SAPC  H18S 4648   1.679  -0.128  -1.800  0.5816  0.9353  0.2354
   60SAPC  C219 4649   1.609  -0.228  -1.966  0.0722  0.2032  0.0019
   60SAPC  H19R 4650   1.621  -0.324  -1.911  1.4729 -0.0625 -0.7119
   60SAPC  H19S 4651   1.631  -0.250  -2.073 -2.0181  0.8826 -0.6211
   60SAPC  C220 4652   1.460  -0.202  -1.966 -0.2265  0.5678  0.2057
   60SAPC  H20R 4653   1.442  -0.113  -2.030 -0.2842  1.1258  0.9759
   60SAPC  H20S 4654   1.424  -0.183  -1.863 -0.3319 -1.6814  0.6340
   60SAPC  H20T 4655   1.414  -0.293  -2.010  2.4716 -0.0172 -1.6576
   60SAPC   C33 4656   1.659   0.607  -0.957  0.3774  0.0518  0.4975
   60SAPC   H3X 4657   1.607   0.517  -0.917 -0.2062 -0.2286 -0.8686
   60SAPC   H3Y 4658   1.763   0.609  -0.919 -0.0130 -1.7702  1.8231
   60SAPC   C34 4659   1.650   0.594  -1.111  0.2354  0.0032 -1.2800
   60SAPC   H4X 4660   1.688   0.683  -1.166 -2.3167  0.5116 -2.3553
   60SAPC   H4Y 4661   1.546   0.572  -1.144 -0.1694 -1.3300  0.7280
   60SAPC   C35 4662   1.737   0.478  -1.158  0.2078  0.4669 -0.1991
   60SAPC   H5X 4663   1.685   0.387  -1.120  1.1301  1.1167  2.8976
   60SAPC   H5Y 4664   1.826   0.496  -1.094 -0.3296 -0.3162  0.7996
   60SAPC   C36 4665   1.758   0.474  -1.307 -0.3533 -0.2314 -0.0434
   60SAPC   H6X 4666   1.790   0.573  -1.347 -0.1572  0.0394  0.7749
   60SAPC   H6Y 4667   1.666   0.449  -1.364 -0.6751  0.6790  0.0592
   60SAPC   C37 4668   1.869   0.382  -1.341 -0.7856 -0.2662  0.1821
   60SAPC   H7X 4669   1.860   0.287  -1.283 -1.7869 -1.2910 -1.5502
   60SAPC   H7Y 4670   1.966   0.420  -1.302 -0.0995  0.5155 -2.1641
   60SAPC   C38 4671   1.889   0.350  -1.492  0.2818  0.0070 -0.0941
   60SAPC   H8X 4672   1.986   0.298  -1.507 -1.3067 -2.9944 -0.7336
   60SAPC   H8Y 4673   1.894   0.440  -1.557 -0.2786  0.0361 -0.0989
   60SAPC   C39 4674   1.773   0.260  -1.540 -0.3715 -0.8602 -0.4952
   60SAPC   H9X 4675   1.678   0.316  -1.526 -0.2832 -0.8374  0.0462
   60SAPC   H9Y 4676   1.764   0.176  -1.467  2.4146 -0.6632  0.2061
   60SAPC  C310 4677   1.796   0.196  -1.684  0.4552 -0.4379 -0.4796
   60SAPC  H10X 4678   1.717   0.119  -1.698  0.3964 -0.4779  0.0688
   60SAPC  H10Y 4679   1.900   0.157  -1.685  1.4811  2.0816 -0.2579
   60SAPC  C311 4680   1.798   0.300  -1.800  0.8265  0.7575 -0.6895
   60SAPC  H11X 4681   1.878   0.375  -1.779  0.7950  0.0879  2.2591
   60SAPC  H11Y 4682   1.698   0.347  -1.797  0.6023  0.2727 -0.4599
   60SAPC  C312 4683   1.822   0.242  -1.941  0.2508  0.1526 -0.3827
   60SAPC  H12X 4684   1.731   0.183  -1.966  0.3318  0.7808 -2.2721
   60SAPC  H12Y 4685   1.902   0.165  -1.949 -0.3271 -0.3103 -2.3416
   60SAPC  C313 4686   1.855   0.345  -2.055 -0.4588 -0.5360 -0.4512
   60SAPC  H13X 4687   1.946   0.395  -2.015 -0.1883 -2.4088  1.4586
   60SAPC  H13Y 4688   1.771   0.417  -2.063  0.2772  0.3367 -0.5900
   60SAPC  C314 4689   1.897   0.271  -2.186 -0.2111  0.1614  0.0686
   60SAPC  H14X 4690   1.921   0.349  -2.261 -1.5067  0.2910 -0.2241
   60SAPC  H14Y 4691   1.815   0.213  -2.234 -0.4294  1.2537 -0.9309
   60SAPC  C315 4692   2.029   0.194  -2.164  0.4110 -0.1268  0.1099
   60SAPC  H15X 4693   2.008   0.089  -2.133 -0.9777 -0.7664 -2.6558
   60SAPC  H15Y 4694   2.083   0.249  -2.084 -0.8860 -1.1054  1.7062
   60SAPC  C316 4695   2.106   0.186  -2.294 -0.7445 -0.5014 -0.3587
   60SAPC  H16X 4696   2.120   0.284  -2.343  0.0293 -1.4636 -2.1568
   60SAPC  H16Y 4697   2.044   0.130  -2.368 -0.9589  1.4389 -1.7101
   60SAPC  C317 4698   2.244   0.120  -2.277  0.4627  0.0683  0.1980
   60SAPC  H17X 4699   2.311   0.178  -2.211  0.4420  1.3943 -0.9102
   60SAPC  H17Y 4700   2.296   0.124  -2.375  2.2185  0.4278  1.0883
   60SAPC  C318 4701   2.243  -0.028  -2.227 -0.2139  1.0185 -0.3000
   60SAPC  H18X 4702   2.215  -0.055  -2.123 -1.7868 -0.0265 -0.9537
   60SAPC  H18Y 4703   2.345  -0.069  -2.244 -0.8133 -0.5736 -0.1976
   60SAPC  H18Z 4704   2.179  -0.094  -2.289  0.5316  0.6333 -0.6751
   61SAPC     N 4705   6.242   5.761   0.593  0.8473  0.6007 -0.4012
   61SAPC   C12 4706   6.246   5.804   0.449  0.2164 -0.2984 -0.0741
   61SAPC  H12A 4707   6.147   5.834   0.416 -0.1200  0.0848  1.2422
   61SAPC  H12B 4708   6.270   5.722   0.383 -0.5589 -0.5863 -0.0102
   61SAPC   C13 4709   6.238   5.870   0.686  0.3013  0.0094 -0.9640
   61SAPC  H13A 4710   6.263   5.838   0.786  2.0688  0.0742 -1.3533
   61SAPC  H13B 4711   6.311   5.945   0.660 -0.2786  0.9826  0.1472
   61SAPC  H13C 4712   6.141   5.917   0.690  0.6750  0.7284  1.6472
   61SAPC   C14 4713   6.119   5.680   0.611  0.2374  0.2758 -0.0784
   61SAPC  H14A 4714   6.103   5.593   0.548 -0.8375  1.2556 -1.2241
   61SAPC  H14B 4715   6.112   5.654   0.715  3.2509 -2.1501 -0.3269
   61SAPC  H14C 4716   6.027   5.733   0.592  0.2053  0.2943  0.1290
   61SAPC   C15 4717   6.358   5.674   0.622 -0.0914 -0.0928 -0.1048
   61SAPC  H15A 4718   6.455   5.720   0.608 -0.6374  0.9476 -0.6015
   61SAPC  H15B 4719   6.354   5.629   0.720  0.8388 -1.4705 -0.6761
   61SAPC  H15C 4720   6.366   5.598   0.547  1.2723  1.7169 -1.8999
   61SAPC   C11 4721   6.355   5.907   0.410  0.7552 -0.1739 -0.0121
   61SAPC  H11A 4722   6.355   5.912   0.299 -0.4940  0.4789 -0.0034
   61SAPC  H11B 4723   6.452   5.866   0.444 -0.4706 -1.0785  2.6776
   61SAPC     P 4724   6.430   6.155   0.452 -0.0668 -0.1364  0.1790
   61SAPC   O13 4725   6.379   6.270   0.524  0.6113  0.1787  0.7256
   61SAPC   O14 4726   6.562   6.099   0.494 -0.6182 -0.2389 -0.2111
   61SAPC   O12 4727   6.328   6.037   0.466  0.1537  0.9855  0.4957
   61SAPC   O11 4728   6.423   6.170   0.298 -0.1959  0.4406 -0.0142
   61SAPC    C1 4729   6.513   6.260   0.225 -0.2053 -0.5182 -0.2882
   61SAPC    HA 4730   6.474   6.364   0.233 -2.6569 -1.4711  2.0823
   61SAPC    HB 4731   6.621   6.245   0.248 -0.2429 -0.0444  0.2314
   61SAPC    C2 4732   6.491   6.225   0.075 -0.3677 -0.4402  0.2836
   61SAPC    HS 4733   6.571   6.276   0.016 -0.1307 -1.2203 -0.0819
   61SAPC   O21 4734   6.363   6.258   0.018  0.1812  0.1242  0.0824
   61SAPC   C21 4735   6.365   6.290  -0.112  0.7219 -0.1345 -0.0199
   61SAPC   O22 4736   6.463   6.315  -0.175 -0.6069  0.1188  0.1242
   61SAPC   C22 4737   6.217   6.316  -0.154  0.3699  0.1342 -0.9583
   61SAPC   H2R 4738   6.187   6.215  -0.191 -1.5063  0.1712  0.3467
   61SAPC   H2S 4739   6.151   6.356  -0.075 -1.6011  1.9867 -3.3683
   61SAPC    C3 4740   6.525   6.076   0.040 -0.5821  0.2463  0.2934
   61SAPC    HX 4741   6.452   6.004   0.083 -0.2375  0.1999  0.8065
   61SAPC    HY 4742   6.618   6.059   0.097  0.0515 -3.1898 -1.4749
   61SAPC   O31 4743   6.530   6.063  -0.100 -0.2450  0.2925  0.9585
   61SAPC   C31 4744   6.647   6.062  -0.146 -0.2242  0.1025  0.2058
   61SAPC   O32 4745   6.756   6.093  -0.095  0.0040  0.3399  0.1375
   61SAPC   C32 4746   6.632   6.024  -0.295 -0.2553 -1.0121 -0.0868
   61SAPC   H2X 4747   6.539   6.066  -0.338  0.6479  1.0281 -0.1750
   61SAPC   H2Y 4748   6.616   5.914  -0.290  1.8298 -1.3806 -0.5204
   61SAPC   C23 4749   6.215   6.420  -0.276  0.7028  0.4435  0.4776
   61SAPC   H3R 4750   6.279   6.373  -0.354  1.5208 -1.1920  2.0643
   61SAPC   H3S 4751   6.251   6.515  -0.233  0.3578 -0.4239  2.8440
   61SAPC   C24 4752   6.075   6.429  -0.335  1.4064 -0.3221 -0.1587
   61SAPC   H4R 4753   6.069   6.515  -0.405  1.3618 -0.2017 -0.0048
   61SAPC   H4S 4754   6.001   6.455  -0.256 -0.8338  1.7315 -2.7249
   61SAPC   C25 4755   6.031   6.298  -0.398 -0.0537 -0.1050 -0.4552
   61SAPC   H5R 4756   5.988   6.230  -0.322  2.5392  1.0804  2.2695
   61SAPC   C26 4757   6.049   6.255  -0.526 -0.1905  0.5157  0.3971
   61SAPC   H6R 4758   6.015   6.153  -0.546  0.8493 -0.1265  1.6904
   61SAPC   C27 4759   6.114   6.332  -0.643 -0.6676  0.2393  0.0568
   61SAPC   H7R 4760   6.159   6.428  -0.611  0.6944 -0.5659  0.6258
   61SAPC   H7S 4761   6.042   6.365  -0.722  2.5241  1.7085 -2.4682
   61SAPC   C28 4762   6.227   6.258  -0.708 -0.7100  0.3831 -0.6182
   61SAPC   H8R 4763   6.291   6.208  -0.633  1.4627  2.1867 -1.1586
   61SAPC   C29 4764   6.280   6.264  -0.834  0.0515  0.5767  1.1148
   61SAPC   H9R 4765   6.355   6.185  -0.853 -0.3234  0.1279  1.4802
   61SAPC  C210 4766   6.233   6.340  -0.957 -0.0088  0.4526  0.8234
   61SAPC  H10R 4767   6.311   6.366  -1.031 -1.7065  1.4730 -0.6971
   61SAPC  H10S 4768   6.182   6.435  -0.928 -1.5287  0.7590 -2.4105
   61SAPC  C211 4769   6.115   6.259  -1.016 -0.7159 -0.1045  0.4801
   61SAPC  H11R 4770   6.016   6.271  -0.968 -0.9670 -3.4745  1.0191
   61SAPC  C212 4771   6.112   6.202  -1.135 -0.0527 -1.2493  0.0915
   61SAPC  H12R 4772   6.029   6.133  -1.157  0.5984 -1.4411 -2.0415
   61SAPC  C213 4773   6.219   6.193  -1.237  0.3687  0.3743  0.9146
   61SAPC  H13R 4774   6.245   6.086  -1.257 -2.2823 -0.3533  1.0677
   61SAPC  H13S 4775   6.314   6.246  -1.213  1.1940 -0.0034 -1.2290
   61SAPC  C214 4776   6.175   6.260  -1.368 -1.1576  0.4658  0.0936
   61SAPC  H14R 4777   6.117   6.351  -1.346  0.7545  1.4259  1.4629
   61SAPC  C215 4778   6.202   6.239  -1.501 -0.1087  0.0248 -0.9643
   61SAPC  H15R 4779   6.142   6.293  -1.575 -1.8336  0.9025  0.9599
   61SAPC  C216 4780   6.288   6.131  -1.559 -0.5062  0.5324 -0.1884
   61SAPC  H16R 4781   6.228   6.042  -1.589  1.0205 -0.9947  1.0846
   61SAPC  H16S 4782   6.365   6.096  -1.487 -0.3124  1.2098 -0.0591
   61SAPC  C217 4783   6.359   6.191  -1.676 -0.0412 -0.3466 -0.0031
   61SAPC  H17R 4784   6.436   6.262  -1.638 -1.2288  0.8271  0.2566
   61SAPC  H17S 4785   6.291   6.251  -1.739 -0.7250 -0.8994  0.1917
   61SAPC  C218 4786   6.436   6.086  -1.769 -0.3376 -0.3592  1.0805
   61SAPC  H18R 4787   6.374   5.997  -1.793 -1.8307 -0.0475  3.4729
   61SAPC  H18S 4788   6.510   6.042  -1.699 -0.1229 -0.8949  0.5286
   61SAPC  C219 4789   6.500   6.150  -1.896  0.4366 -0.7445  0.1955
   61SAPC  H19R 4790   6.561   6.238  -1.864  2.0648 -1.2316 -1.3859
   61SAPC  H19S 4791   6.421   6.184  -1.966  0.4849  2.5376  1.5234
   61SAPC  C220 4792   6.591   6.054  -1.969  0.0701 -0.8244 -0.5711
   61SAPC  H20R 4793   6.534   5.980  -2.029 -0.6799 -1.9182  1.3860
   61SAPC  H20S 4794   6.673   6.005  -1.913 -0.4990 -0.3084  0.7730
   61SAPC  H20T 4795   6.637   6.110  -2.053 -1.2731  1.3983  0.0880
   61SAPC   C33 4796   6.766   6.044  -0.376 -0.7984  0.2071  0.0535
   61SAPC   H3X 4797   6.857   6.015  -0.320 -1.6306 -1.0848  0.7887
   61SAPC   H3Y 4798   6.780   6.152  -0.397 -0.8026  0.4263  1.1233
   61SAPC   C34 4799   6.775   5.967  -0.506  0.0359 -0.2845 -0.4850
   61SAPC   H4X 4800   6.679   5.973  -0.561  0.5087 -1.4144 -1.4719
   61SAPC   H4Y 4801   6.791   5.857  -0.497 -1.2172 -0.5128 -0.8454
   61SAPC   C35 4802   6.876   6.036  -0.604  0.1451  0.8386 -0.0952
   61SAPC   H5X 4803   6.979   6.005  -0.576  0.2357  1.0057 -0.2365
   61SAPC   H5Y 4804   6.869   6.147  -0.593  1.1239  0.8181  0.8723
   61SAPC   C36 4805   6.854   5.989  -0.751  0.2108 -0.2072 -0.1919
   61SAPC   H6X 4806   6.935   6.041  -0.807  0.6844  0.1511  0.8090
   61SAPC   H6Y 4807   6.758   6.035  -0.785  0.1594  1.2980  1.7896
   61SAPC   C37 4808   6.855   5.836  -0.765  0.0425  0.0402  0.4305
   61SAPC   H7X 4809   6.756   5.796  -0.735  0.7995 -0.1360  2.9168
   61SAPC   H7Y 4810   6.930   5.791  -0.696  0.8084  0.7243  0.0722
   61SAPC   C38 4811   6.895   5.793  -0.908  0.3053 -0.4056  0.6735
   61SAPC   H8X 4812   6.994   5.836  -0.931  0.3376 -0.1017  1.3399
   61SAPC   H8Y 4813   6.819   5.826  -0.982 -0.9471 -1.2876  1.5196
   61SAPC   C39 4814   6.904   5.643  -0.913  0.6014  0.8822 -0.0010
   61SAPC   H9X 4815   6.801   5.609  -0.891  1.0432 -1.1094 -0.8100
   61SAPC   H9Y 4816   6.971   5.599  -0.836 -1.9321 -1.4064  1.0491
   61SAPC  C310 4817   6.932   5.579  -1.044 -0.0060  0.0257 -0.3392
   61SAPC  H10X 4818   6.859   5.611  -1.121  0.5839  0.6773 -0.6371
   61SAPC  H10Y 4819   6.926   5.469  -1.027 -0.4204  0.0194 -0.5220
   61SAPC  C311 4820   7.075   5.611  -1.101  0.5581 -0.0966 -0.2598
   61SAPC  H11X 4821   7.148   5.595  -1.019  2.7350  1.4809 -1.7586
   61SAPC  H11Y 4822   7.078   5.719  -1.128 -0.6493 -0.3694 -1.6187
   61SAPC  C312 4823   7.122   5.533  -1.222  0.2357 -0.0112  0.3808
   61SAPC  H12X 4824   7.152   5.430  -1.192 -0.0503 -0.4986 -0.9259
   61SAPC  H12Y 4825   7.222   5.565  -1.257  0.8268 -1.4194  0.6905
   61SAPC  C313 4826   7.022   5.514  -1.335  0.1071 -0.0792 -0.5738
   61SAPC  H13X 4827   6.934   5.473  -1.282  0.6838  0.5496  0.9025
   61SAPC  H13Y 4828   7.061   5.441  -1.409  0.7276 -1.6118  1.2038
   61SAPC  C314 4829   6.984   5.640  -1.410 -0.1046 -0.6926  1.0511
   61SAPC  H14X 4830   7.068   5.711  -1.426 -1.8194  1.7837  2.4435
   61SAPC  H14Y 4831   6.904   5.700  -1.362  0.5749 -0.2412  1.6233
   61SAPC  C315 4832   6.929   5.607  -1.548  0.1724 -0.6643  0.1481
   61SAPC  H15X 4833   7.019   5.571  -1.601  0.6925 -0.8927  1.1585
   61SAPC  H15Y 4834   6.909   5.705  -1.596 -0.1860 -0.7645  0.0912
   61SAPC  C316 4835   6.816   5.505  -1.549  0.0218  0.3997 -0.9318
   61SAPC  H16X 4836   6.737   5.552  -1.486  0.4116  0.2834 -0.3477
   61SAPC  H16Y 4837   6.838   5.404  -1.508 -5.0603 -1.0621 -1.0899
   61SAPC  C317 4838   6.764   5.477  -1.686  0.0540  0.5444 -0.3692
   61SAPC  H17X 4839   6.843   5.467  -1.764 -0.4089  0.7099 -0.8706
   61SAPC  H17Y 4840   6.701   5.559  -1.727 -1.9419 -1.7821 -2.3360
   61SAPC  C318 4841   6.675   5.347  -1.697  0.7078 -0.7416 -0.3130
   61SAPC  H18X 4842   6.615   5.351  -1.604  0.5465  0.2403 -0.4474
   61SAPC  H18Y 4843   6.743   5.259  -1.690  2.2826  0.5004  0.8487
   61SAPC  H18Z 4844   6.611   5.351  -1.788 -0.8329  2.1728  0.7789
   62SAPC     N 4845   5.373   1.681   0.381 -0.4171  0.4012  0.1595
   62SAPC   C12 4846   5.398   1.807   0.305 -0.5844 -0.4316  0.4820
   62SAPC  H12A 4847   5.453   1.877   0.367  1.3497 -0.8588 -0.6713
   62SAPC  H12B 4848   5.307   1.858   0.275  0.1073  0.9375  0.6498
   62SAPC   C13 4849   5.498   1.633   0.438  0.0551  0.8393 -0.3151
   62SAPC  H13A 4850   5.538   1.694   0.517 -1.2492  0.6307  0.5327
   62SAPC  H13B 4851   5.475   1.535   0.478  2.3693 -0.5882 -2.1973
   62SAPC  H13C 4852   5.568   1.631   0.356  0.5188  2.3801  0.0081
   62SAPC   C14 4853   5.287   1.701   0.497  0.5087  0.8004  0.3898
   62SAPC  H14A 4854   5.264   1.607   0.547  3.8926  0.2068  1.0876
   62SAPC  H14B 4855   5.342   1.743   0.579  3.0841  0.1114 -0.8762
   62SAPC  H14C 4856   5.194   1.753   0.479  0.0822 -0.2779 -0.6597
   62SAPC   C15 4857   5.304   1.576   0.302  0.0144 -0.1663 -0.0616
   62SAPC  H15A 4858   5.364   1.547   0.217  2.6379 -1.4476  2.0888
   62SAPC  H15B 4859   5.287   1.496   0.372 -0.0897 -0.2138 -0.1422
   62SAPC  H15C 4860   5.205   1.598   0.266 -0.1668 -0.4827  0.2404
   62SAPC   C11 4861   5.476   1.790   0.175  0.5933 -0.0542 -0.3478
   62SAPC  H11A 4862   5.468   1.888   0.125 -0.4389 -0.0117 -0.1074
   62SAPC  H11B 4863   5.427   1.714   0.111 -0.1934  0.7455 -0.7134
   62SAPC     P 4864   5.717   1.698   0.126  0.1303  0.2258 -0.4271
   62SAPC   O13 4865   5.846   1.692   0.198 -0.2629 -0.0779  0.0775
   62SAPC   O14 4866   5.656   1.574   0.086  0.2291 -0.1270  0.2992
   62SAPC   O12 4867   5.612   1.775   0.217 -0.4414  0.3275  0.8815
   62SAPC   O11 4868   5.739   1.798   0.007 -0.3298  0.2272  0.0735
   62SAPC    C1 4869   5.675   1.787  -0.120  0.5383 -0.0961 -0.3562
   62SAPC    HA 4870   5.576   1.739  -0.111 -0.0084  1.2038  0.9318
   62SAPC    HB 4871   5.646   1.889  -0.153  1.4398 -0.0875 -1.1825
   62SAPC    C2 4872   5.760   1.722  -0.234 -0.0107 -0.3619  0.4120
   62SAPC    HS 4873   5.849   1.780  -0.266  0.8567 -2.8420 -2.0853
   62SAPC   O21 4874   5.673   1.707  -0.341  0.4435  0.2487  0.2983
   62SAPC   C21 4875   5.659   1.812  -0.423 -0.2550  0.0580 -0.4562
   62SAPC   O22 4876   5.716   1.914  -0.401  0.5884  0.2070 -0.1380
   62SAPC   C22 4877   5.571   1.779  -0.547 -0.1918  0.0519 -0.3129
   62SAPC   H2R 4878   5.477   1.748  -0.497  1.7182 -0.6098  3.1936
   62SAPC   H2S 4879   5.556   1.870  -0.608  1.4534  1.8429  1.7571
   62SAPC    C3 4880   5.816   1.584  -0.195  0.1283  0.2570  0.4391
   62SAPC    HX 4881   5.725   1.519  -0.195  0.8853 -0.8373  0.1297
   62SAPC    HY 4882   5.860   1.587  -0.093  1.2823  2.6778 -0.0581
   62SAPC   O31 4883   5.913   1.539  -0.299 -0.2068 -0.1550 -0.0261
   62SAPC   C31 4884   6.038   1.585  -0.289 -0.4715 -0.0569  0.0945
   62SAPC   O32 4885   6.074   1.674  -0.215  0.5315 -0.1279 -0.1328
   62SAPC   C32 4886   6.129   1.524  -0.405  0.5516 -0.4071 -0.1288
   62SAPC   H2X 4887   6.067   1.461  -0.471 -1.7606  1.7623 -0.1872
   62SAPC   H2Y 4888   6.201   1.461  -0.349 -0.8817 -1.8802  0.1157
   62SAPC   C23 4889   5.639   1.663  -0.636 -0.2299  0.0455 -0.7271
   62SAPC   H3R 4890   5.576   1.632  -0.723  0.5830 -1.8134 -0.7080
   62SAPC   H3S 4891   5.621   1.574  -0.571  0.9289  1.3438  1.5054
   62SAPC   C24 4892   5.786   1.676  -0.677  0.5229 -0.1931  0.8656
   62SAPC   H4R 4893   5.806   1.590  -0.745 -0.1872 -0.6723  1.2465
   62SAPC   H4S 4894   5.863   1.659  -0.599  1.2381 -2.2517 -0.2184
   62SAPC   C25 4895   5.802   1.814  -0.752  0.3785  1.1103  1.0350
   62SAPC   H5R 4896   5.813   1.910  -0.699  0.9206  1.7821 -0.2545
   62SAPC   C26 4897   5.781   1.837  -0.885  0.1746  0.6452 -0.6329
   62SAPC   H6R 4898   5.794   1.939  -0.925 -0.6381  0.7224 -0.7221
   62SAPC   C27 4899   5.751   1.741  -1.000  0.2280 -0.0467 -0.3366
   62SAPC   H7R 4900   5.645   1.708  -0.989  0.1283  0.6311  0.9789
   62SAPC   H7S 4901   5.801   1.642  -0.986 -1.7535 -1.2073 -0.9882
   62SAPC   C28 4902   5.771   1.803  -1.136  0.4926 -0.0217  0.0132
   62SAPC   H8R 4903   5.732   1.906  -1.146  1.1676  0.1660 -0.8054
   62SAPC   C29 4904   5.840   1.761  -1.241  0.3802  0.2192  0.1581
   62SAPC   H9R 4905   5.838   1.820  -1.333  0.6104 -0.4849 -0.3064
   62SAPC  C210 4906   5.919   1.633  -1.259  0.0890 -0.3342 -0.7216
   62SAPC  H10R 4907   5.855   1.573  -1.327 -3.1475  0.6571  1.1981
   62SAPC  H10S 4908   5.915   1.570  -1.168 -0.1259  2.5980  1.4611
   62SAPC  C211 4909   6.061   1.671  -1.294 -0.1024  0.1145  0.0967
   62SAPC  H11R 4910   6.113   1.743  -1.230  1.1912 -0.0216 -0.7658
   62SAPC  C212 4911   6.118   1.655  -1.417  0.6457  0.4354 -1.2837
   62SAPC  H12R 4912   6.216   1.697  -1.444  0.1491  0.1750 -3.6590
   62SAPC  C213 4913   6.056   1.561  -1.524 -0.0231  0.7579  0.1840
   62SAPC  H13R 4914   6.008   1.617  -1.607 -3.0230 -1.9013 -0.0641
   62SAPC  H13S 4915   5.978   1.494  -1.483  0.7650 -1.0515 -1.1350
   62SAPC  C214 4916   6.150   1.467  -1.590 -0.7388 -0.4265 -0.6085
   62SAPC  H14R 4917   6.257   1.489  -1.578 -1.0294 -0.1273  1.9861
   62SAPC  C215 4918   6.120   1.352  -1.661  0.9728  0.1896  0.0046
   62SAPC  H15R 4919   6.206   1.303  -1.707 -0.2604 -2.4398  0.2795
   62SAPC  C216 4920   5.981   1.303  -1.696  0.2093  0.5412  0.1047
   62SAPC  H16R 4921   5.905   1.378  -1.666  2.3416  3.0749 -0.5461
   62SAPC  H16S 4922   5.962   1.203  -1.651  1.6293  1.1025  2.1047
   62SAPC  C217 4923   5.961   1.280  -1.850 -0.2905 -0.6252 -0.1581
   62SAPC  H17R 4924   5.990   1.371  -1.905  2.7057  0.0596  2.2653
   62SAPC  H17S 4925   5.855   1.252  -1.867 -0.4576  1.0933 -2.3652
   62SAPC  C218 4926   6.046   1.157  -1.891 -0.7165  0.0970  0.1953
   62SAPC  H18R 4927   6.025   1.075  -1.819 -0.9664  1.1520  1.3430
   62SAPC  H18S 4928   6.152   1.190  -1.893 -0.9945  1.0246  0.4634
   62SAPC  C219 4929   6.028   1.113  -2.036  0.5666  0.4828  0.5864
   62SAPC  H19R 4930   6.047   1.202  -2.099 -3.1309  0.3306 -1.0539
   62SAPC  H19S 4931   5.920   1.091  -2.053  0.3155  1.6874  0.5671
   62SAPC  C220 4932   6.118   0.998  -2.063 -0.0726 -0.5287  0.1788
   62SAPC  H20R 4933   6.116   0.975  -2.172  0.3631  0.4283 -0.0323
   62SAPC  H20S 4934   6.089   0.906  -2.007 -0.6068  0.4663  1.5949
   62SAPC  H20T 4935   6.224   1.014  -2.034  0.1229 -3.5984  1.6436
   62SAPC   C33 4936   6.182   1.636  -0.500  0.6404  0.0392 -0.0374
   62SAPC   H3X 4937   6.279   1.678  -0.464 -0.0208  0.4629  1.3229
   62SAPC   H3Y 4938   6.117   1.725  -0.511 -1.7622 -1.1731  2.9351
   62SAPC   C34 4939   6.209   1.593  -0.644  0.1119 -0.4649 -0.2010
   62SAPC   H4X 4940   6.116   1.545  -0.681  0.7039 -1.0020 -1.0251
   62SAPC   H4Y 4941   6.286   1.513  -0.653 -0.5371 -1.2039  0.5899
   62SAPC   C35 4942   6.229   1.704  -0.749  0.3519  0.1435  0.0736
   62SAPC   H5X 4943   6.285   1.794  -0.718  1.7424 -0.6279 -0.1285
   62SAPC   H5Y 4944   6.128   1.751  -0.759  0.4447 -0.2171 -3.7958
   62SAPC   C36 4945   6.255   1.660  -0.892 -0.5919 -0.8495 -0.1110
   62SAPC   H6X 4946   6.173   1.689  -0.961 -1.2768 -0.1254  0.9731
   62SAPC   H6Y 4947   6.252   1.550  -0.898  1.0404 -0.9339  0.1502
   62SAPC   C37 4948   6.390   1.718  -0.946  0.2347 -0.7642 -0.3697
   62SAPC   H7X 4949   6.452   1.699  -0.856 -1.4742 -0.0080  1.0376
   62SAPC   H7Y 4950   6.378   1.828  -0.952 -0.0312 -0.8579 -2.2706
   62SAPC   C38 4951   6.424   1.654  -1.075 -0.0582 -0.1460 -0.4167
   62SAPC   H8X 4952   6.339   1.668  -1.145  0.1261  0.4704 -0.5194
   62SAPC   H8Y 4953   6.444   1.545  -1.068 -1.0915 -0.3319 -0.2057
   62SAPC   C39 4954   6.544   1.720  -1.144  0.6523  0.8094 -0.1756
   62SAPC   H9X 4955   6.643   1.693  -1.100 -0.0277  1.6535  2.0150
   62SAPC   H9Y 4956   6.526   1.829  -1.147  0.2126  0.7508  0.3479
   62SAPC  C310 4957   6.533   1.687  -1.295  0.0615 -0.1597 -0.2674
   62SAPC  H10X 4958   6.440   1.716  -1.349  0.0781 -1.9192 -1.3157
   62SAPC  H10Y 4959   6.547   1.578  -1.308 -1.2842 -0.2437 -1.1889
   62SAPC  C311 4960   6.649   1.752  -1.381 -0.1014 -0.8061  0.6948
   62SAPC  H11X 4961   6.747   1.703  -1.364 -0.0043 -1.0907 -0.5834
   62SAPC  H11Y 4962   6.666   1.857  -1.349 -2.3284  0.1675 -1.0557
   62SAPC  C312 4963   6.633   1.768  -1.532 -0.9417  0.6942 -0.1526
   62SAPC  H12X 4964   6.721   1.819  -1.577  0.1319  1.2533  2.4374
   62SAPC  H12Y 4965   6.537   1.816  -1.557 -1.4511  0.9677  2.1757
   62SAPC  C313 4966   6.625   1.630  -1.611 -0.6960 -0.2268 -0.2591
   62SAPC  H13X 4967   6.529   1.581  -1.584 -1.0907 -0.1431 -1.4409
   62SAPC  H13Y 4968   6.720   1.580  -1.583 -1.3170 -1.9218 -1.0623
   62SAPC  C314 4969   6.616   1.640  -1.765  0.6766 -1.0365 -0.3998
   62SAPC  H14X 4970   6.606   1.534  -1.800 -0.8548 -2.3897  3.6120
   62SAPC  H14Y 4971   6.706   1.673  -1.821 -0.2566 -1.1429 -2.0376
   62SAPC  C315 4972   6.499   1.725  -1.819  0.4224  0.3265 -0.3904
   62SAPC  H15X 4973   6.508   1.835  -1.806  1.9316  0.2829 -0.8326
   62SAPC  H15Y 4974   6.405   1.676  -1.786  0.8557 -1.9022 -2.2206
   62SAPC  C316 4975   6.492   1.716  -1.973  0.6099 -0.3305  0.8794
   62SAPC  H16X 4976   6.406   1.776  -2.010  0.3575 -1.1791  0.0410
   62SAPC  H16Y 4977   6.467   1.612  -2.005 -1.2131  0.4066 -0.2737
   62SAPC  C317 4978   6.612   1.776  -2.039 -0.4482 -1.0428 -0.0892
   62SAPC  H17X 4979   6.705   1.727  -2.006 -0.6545 -0.5209  1.3421
   62SAPC  H17Y 4980   6.617   1.885  -2.020  1.2503 -1.1083 -0.0722
   62SAPC  C318 4981   6.615   1.746  -2.182  0.1929  0.7018 -0.4461
   62SAPC  H18X 4982   6.522   1.777  -2.235  0.8218  1.2038 -1.2942
   62SAPC  H18Y 4983   6.622   1.635  -2.187  1.1365  0.7816 -1.2304
   62SAPC  H18Z 4984   6.704   1.783  -2.238  2.8504 -0.3187  2.7836
   63SAPC     N 4985   0.819   6.808   0.196 -0.3240 -0.1847 -0.0204
   63SAPC   C12 4986   0.800   6.667   0.145 -0.0581  0.0798 -0.3847
   63SAPC  H12A 4987   0.751   6.607   0.220 -1.6126 -0.9284 -2.1229
   63SAPC  H12B 4988   0.896   6.618   0.145 -1.0647 -2.0399  1.2809
   63SAPC   C13 4989   0.875   6.895   0.088 -0.7608  0.0599  0.0856
   63SAPC  H13A 4990   0.811   6.907   0.002  1.0625  0.4737 -1.2836
   63SAPC  H13B 4991   0.914   6.987   0.128  1.0027  0.2589 -1.8780
   63SAPC  H13C 4992   0.966   6.851   0.048 -0.5635  0.9401 -0.4593
   63SAPC   C14 4993   0.692   6.875   0.233  0.3328  0.7263  0.2180
   63SAPC  H14A 4994   0.629   6.880   0.146 -0.9837  0.3373  1.1247
   63SAPC  H14B 4995   0.647   6.813   0.309  2.1557  1.6987  2.1939
   63SAPC  H14C 4996   0.705   6.974   0.275  0.1075  0.9416 -0.2185
   63SAPC   C15 4997   0.914   6.810   0.314  0.0102  1.1160 -0.1270
   63SAPC  H15A 4998   0.938   6.910   0.347 -0.4960  1.3581 -0.4890
   63SAPC  H15B 4999   0.882   6.753   0.401 -0.6607  0.7227 -0.6171
   63SAPC  H15C 5000   1.008   6.770   0.279 -0.4091  0.3711 -0.4381
   63SAPC   C11 5001   0.725   6.649   0.008  0.1092  0.3050 -0.3496
   63SAPC  H11A 5002   0.725   6.539  -0.010 -2.2767  0.6878 -3.3627
   63SAPC  H11B 5003   0.774   6.695  -0.080 -0.6101  0.5007 -0.6530
   63SAPC     P 5004   0.485   6.596   0.087 -0.3726  0.0989  0.7784
   63SAPC   O13 5005   0.538   6.538   0.214  0.7502 -0.1363  0.0454
   63SAPC   O14 5006   0.359   6.670   0.097  0.6600 -0.2151 -0.2886
   63SAPC   O12 5007   0.590   6.691   0.017 -0.1987 -0.3492 -0.0564
   63SAPC   O11 5008   0.474   6.471  -0.009  0.0382  0.5893  0.2865
   63SAPC    C1 5009   0.448   6.483  -0.153  0.7350  0.0822 -0.0294
   63SAPC    HA 5010   0.352   6.434  -0.181  0.8233 -0.9224  1.3285
   63SAPC    HB 5011   0.426   6.585  -0.190  0.2160 -0.3131 -0.8505
   63SAPC    C2 5012   0.569   6.429  -0.239  0.4497 -0.5526 -0.4756
   63SAPC    HS 5013   0.655   6.486  -0.198  0.9010 -0.8488 -0.9915
   63SAPC   O21 5014   0.541   6.458  -0.376 -0.2830 -0.0290 -0.4184
   63SAPC   C21 5015   0.637   6.463  -0.467 -0.6428 -0.8184  0.6478
   63SAPC   O22 5016   0.754   6.475  -0.445  0.2186 -0.8079 -0.9065
   63SAPC   C22 5017   0.574   6.466  -0.611  0.2131  0.3444 -0.7452
   63SAPC   H2R 5018   0.465   6.479  -0.594  0.5949  1.2238  1.4537
   63SAPC   H2S 5019   0.615   6.554  -0.664 -1.5493  0.3379 -2.2125
   63SAPC    C3 5020   0.587   6.276  -0.210 -0.0219 -0.4705 -0.1160
   63SAPC    HX 5021   0.492   6.231  -0.247 -1.9185  3.3225 -0.3604
   63SAPC    HY 5022   0.578   6.263  -0.100 -1.5188 -2.6641 -0.4329
   63SAPC   O31 5023   0.702   6.207  -0.257 -0.7517  0.1405  0.4154
   63SAPC   C31 5024   0.679   6.122  -0.357 -0.0197  0.2584 -0.5486
   63SAPC   O32 5025   0.578   6.109  -0.424 -0.4168 -0.5170 -0.2593
   63SAPC   C32 5026   0.804   6.031  -0.376 -0.1241  0.1805 -0.1340
   63SAPC   H2X 5027   0.818   5.974  -0.282 -2.1813  0.0369  0.1203
   63SAPC   H2Y 5028   0.891   6.100  -0.385 -0.2875  0.7285  2.0338
   63SAPC   C23 5029   0.595   6.323  -0.677 -0.1842 -0.4787  0.0640
   63SAPC   H3R 5030   0.547   6.321  -0.777 -0.4644 -0.9858  0.2020
   63SAPC   H3S 5031   0.552   6.238  -0.619  2.5647 -1.1784  1.2470
   63SAPC   C24 5032   0.747   6.294  -0.709 -0.4312 -1.0927  0.2798
   63SAPC   H4R 5033   0.762   6.190  -0.747 -1.7216 -0.8795 -0.8932
   63SAPC   H4S 5034   0.808   6.296  -0.616  1.3863  1.9501 -0.8262
   63SAPC   C25 5035   0.808   6.396  -0.804 -0.0499 -0.7217 -0.1563
   63SAPC   H5R 5036   0.850   6.483  -0.751 -0.5974 -0.5361 -0.0206
   63SAPC   C26 5037   0.801   6.411  -0.939 -0.0534  0.1766  0.6947
   63SAPC   H6R 5038   0.848   6.497  -0.988  1.8434 -1.5365 -0.6932
   63SAPC   C27 5039   0.724   6.318  -1.035  0.2515 -0.5438 -0.2357
   63SAPC   H7R 5040   0.657   6.251  -0.977  0.2155  1.3757  2.0915
   63SAPC   H7S 5041   0.805   6.255  -1.079  0.0916 -1.0190  0.1423
   63SAPC   C28 5042   0.651   6.395  -1.144 -0.0515  0.1601  0.1618
   63SAPC   H8R 5043   0.551   6.428  -1.113  0.0174 -1.0149  1.7561
   63SAPC   C29 5044   0.692   6.414  -1.269 -0.1095 -0.3541  0.1159
   63SAPC   H9R 5045   0.628   6.479  -1.330 -0.0104 -0.8112 -0.4830
   63SAPC  C210 5046   0.824   6.354  -1.327  0.3160 -0.8533  0.2607
   63SAPC  H10R 5047   0.889   6.331  -1.240  1.6320 -3.2238 -1.2437
   63SAPC  H10S 5048   0.876   6.427  -1.393 -0.4076 -0.1985  0.4054
   63SAPC  C211 5049   0.783   6.235  -1.410  0.2221  0.0141  0.4608
   63SAPC  H11R 5050   0.712   6.173  -1.353  0.8731  0.0285  1.3076
   63SAPC  C212 5051   0.831   6.190  -1.531 -0.3526 -0.1685 -0.1677
   63SAPC  H12R 5052   0.787   6.095  -1.564 -2.5885 -0.2303  2.6152
   63SAPC  C213 5053   0.923   6.266  -1.617 -0.1395  0.7764 -0.1355
   63SAPC  H13R 5054   0.974   6.348  -1.562 -1.6551  1.9434 -0.4250
   63SAPC  H13S 5055   0.869   6.305  -1.706 -2.1586 -3.1553 -0.8464
   63SAPC  C214 5056   1.037   6.183  -1.676 -0.0548  0.2592  0.5389
   63SAPC  H14R 5057   1.027   6.171  -1.785  0.0915  0.8781  0.4523
   63SAPC  C215 5058   1.134   6.120  -1.609 -0.0874  0.2223 -0.4249
   63SAPC  H15R 5059   1.205   6.065  -1.671 -1.5039 -0.6244 -1.3474
   63SAPC  C216 5060   1.165   6.137  -1.458  0.4514 -0.7225  0.2827
   63SAPC  H16R 5061   1.099   6.079  -1.391 -0.8815  0.0658 -0.3097
   63SAPC  H16S 5062   1.142   6.238  -1.418  0.3018 -0.6877  0.1096
   63SAPC  C217 5063   1.305   6.106  -1.416  0.1903 -0.6493  0.1169
   63SAPC  H17R 5064   1.329   6.131  -1.311  0.7625 -1.4621  0.1902
   63SAPC  H17S 5065   1.375   6.161  -1.483  1.3944  0.4118  2.1677
   63SAPC  C218 5066   1.328   5.953  -1.418  0.0005 -0.0309  0.6319
   63SAPC  H18R 5067   1.308   5.917  -1.521  1.5351 -0.1106  0.3363
   63SAPC  H18S 5068   1.263   5.901  -1.345 -1.2606  0.3500 -0.1817
   63SAPC  C219 5069   1.467   5.905  -1.369  0.5718 -0.0722 -1.2363
   63SAPC  H19R 5070   1.542   5.986  -1.384 -0.7735  1.5360  0.3179
   63SAPC  H19S 5071   1.492   5.811  -1.423 -1.8596 -1.2495 -0.4594
   63SAPC  C220 5072   1.463   5.864  -1.221  0.0304  1.1142  0.2253
   63SAPC  H20R 5073   1.421   5.762  -1.209 -0.8682  1.7266  3.0880
   63SAPC  H20S 5074   1.404   5.932  -1.155  1.3985  1.3632  1.2359
   63SAPC  H20T 5075   1.566   5.864  -1.178  0.4911  1.4988 -0.8626
   63SAPC   C33 5076   0.781   5.931  -0.488  0.5322 -0.1961  0.4022
   63SAPC   H3X 5077   0.749   5.988  -0.578  0.8620  1.0958  1.0841
   63SAPC   H3Y 5078   0.700   5.856  -0.473 -1.1515  1.1269 -1.5209
   63SAPC   C34 5079   0.915   5.857  -0.521  0.4415  0.0383  0.0271
   63SAPC   H4X 5080   0.937   5.787  -0.438  1.2127 -0.8287 -0.8799
   63SAPC   H4Y 5081   1.000   5.929  -0.514  3.1355 -3.0161  1.9746
   63SAPC   C35 5082   0.904   5.792  -0.654 -0.1440 -0.2563  0.2906
   63SAPC   H5X 5083   0.903   5.870  -0.733 -0.4119  0.6812  1.2124
   63SAPC   H5Y 5084   0.811   5.736  -0.678 -0.4204  0.0025  0.7560
   63SAPC   C36 5085   1.026   5.706  -0.685 -0.1664 -0.4029 -0.4918
   63SAPC   H6X 5086   1.039   5.631  -0.605 -0.5934  1.0701  0.9995
   63SAPC   H6Y 5087   1.112   5.775  -0.672 -1.2555  0.6707  1.3750
   63SAPC   C37 5088   1.029   5.627  -0.816  0.5071  0.7950 -0.8203
   63SAPC   H7X 5089   0.929   5.584  -0.838  1.7269 -1.7283 -1.7765
   63SAPC   H7Y 5090   1.094   5.537  -0.815 -3.0541 -2.0088  0.7158
   63SAPC   C38 5091   1.070   5.713  -0.934  0.3368  0.5170  1.5281
   63SAPC   H8X 5092   1.179   5.727  -0.948  0.4314  0.4834  2.1953
   63SAPC   H8Y 5093   1.025   5.814  -0.917 -2.5466 -0.3844 -0.0463
   63SAPC   C39 5094   1.018   5.649  -1.067  0.2142 -0.1501  0.4061
   63SAPC   H9X 5095   0.908   5.634  -1.059 -0.1725  2.6857  1.6093
   63SAPC   H9Y 5096   1.059   5.547  -1.079 -0.1360 -0.1045 -1.5600
   63SAPC  C310 5097   1.044   5.731  -1.191 -0.1213 -0.2913  0.6989
   63SAPC  H10X 5098   1.153   5.750  -1.177 -0.2570  2.2453 -0.9856
   63SAPC  H10Y 5099   1.011   5.837  -1.204  0.6761 -0.0336  0.7285
   63SAPC  C311 5100   1.005   5.655  -1.313  0.0735  0.1248  0.3019
   63SAPC  H11X 5101   0.897   5.630  -1.313  0.1537 -1.0096 -4.1436
   63SAPC  H11Y 5102   1.072   5.567  -1.312 -0.5906 -0.3857  1.2874
   63SAPC  C312 5103   1.013   5.740  -1.446  0.2433  0.1409  0.9208
   63SAPC  H12X 5104   1.119   5.745  -1.480  0.6101 -2.3228  1.4602
   63SAPC  H12Y 5105   0.971   5.839  -1.420 -1.9151 -0.7155  0.9500
   63SAPC  C313 5106   0.936   5.684  -1.563 -0.0521  0.3063 -0.0312
   63SAPC  H13X 5107   0.859   5.624  -1.508  0.0435 -0.5983 -0.8563
   63SAPC  H13Y 5108   1.003   5.605  -1.603  1.0080 -0.1035  2.3799
   63SAPC  C314 5109   0.870   5.787  -1.654 -0.8492 -0.1649 -0.0718
   63SAPC  H14X 5110   0.825   5.871  -1.596 -0.9601  1.4761 -2.3897
   63SAPC  H14Y 5111   0.799   5.749  -1.730 -0.1720 -1.6295  0.0058
   63SAPC  C315 5112   0.985   5.849  -1.745  0.0304  0.4538 -0.7611
   63SAPC  H15X 5113   1.066   5.882  -1.678 -0.0218 -0.8029 -0.0406
   63SAPC  H15Y 5114   0.934   5.943  -1.776 -0.8148  0.3518  0.2618
   63SAPC  C316 5115   1.040   5.763  -1.855 -0.3235 -0.1098 -0.5887
   63SAPC  H16X 5116   0.970   5.715  -1.926 -0.0023 -2.1885  0.4224
   63SAPC  H16Y 5117   1.085   5.679  -1.798  0.9889  1.3624  0.6426
   63SAPC  C317 5118   1.150   5.834  -1.929 -0.4591  0.1760  0.2486
   63SAPC  H17X 5119   1.240   5.827  -1.864  0.4889 -1.6924 -1.1718
   63SAPC  H17Y 5120   1.116   5.938  -1.947 -2.9801 -0.7972 -1.0745
   63SAPC  C318 5121   1.183   5.772  -2.071  0.8729  0.0495 -0.7325
   63SAPC  H18X 5122   1.083   5.758  -2.118  1.9121 -0.4303 -2.9436
   63SAPC  H18Y 5123   1.232   5.673  -2.060  1.6538  0.4755 -0.3873
   63SAPC  H18Z 5124   1.244   5.848  -2.124  0.5742  1.2970  0.6507
   64SAPC     N 5125   4.381   2.531   0.087 -0.1726 -0.3305 -0.1203
   64SAPC   C12 5126   4.253   2.592   0.037 -0.3906 -0.0461 -0.5234
   64SAPC  H12A 5127   4.252   2.694   0.074  1.9986  0.0109 -0.4924
   64SAPC  H12B 5128   4.173   2.551   0.097  2.2085 -4.4462  0.3457
   64SAPC   C13 5129   4.496   2.592   0.002  0.4239 -0.0556 -0.1660
   64SAPC  H13A 5130   4.585   2.533   0.017 -0.6509 -1.9824 -0.9487
   64SAPC  H13B 5131   4.471   2.586  -0.103 -1.1872 -0.5171  0.2068
   64SAPC  H13C 5132   4.512   2.697   0.020  1.8779 -0.0290 -1.3904
   64SAPC   C14 5133   4.405   2.572   0.226 -0.1356  0.0514  0.3140
   64SAPC  H14A 5134   4.326   2.521   0.280 -1.0280  1.6569  0.6029
   64SAPC  H14B 5135   4.503   2.546   0.261  0.1288  0.3173 -0.2180
   64SAPC  H14C 5136   4.393   2.678   0.244 -1.1739 -0.3758  2.5109
   64SAPC   C15 5137   4.395   2.385   0.071  0.0837 -0.2659  0.5940
   64SAPC  H15A 5138   4.497   2.356   0.091 -0.4887 -2.7033  0.2915
   64SAPC  H15B 5139   4.324   2.324   0.124 -0.5713 -1.7979 -1.9269
   64SAPC  H15C 5140   4.387   2.354  -0.032  0.0971  1.3293  0.0754
   64SAPC   C11 5141   4.219   2.585  -0.116 -0.4512  0.0376 -0.4154
   64SAPC  H11A 5142   4.252   2.483  -0.144  2.2036  0.7200 -0.1306
   64SAPC  H11B 5143   4.289   2.655  -0.167  0.6448  0.2400  1.2784
   64SAPC     P 5144   3.962   2.535  -0.090 -0.1663 -0.1523  0.1414
   64SAPC   O13 5145   3.966   2.537   0.060 -1.0653 -0.3881 -0.2997
   64SAPC   O14 5146   3.838   2.585  -0.145 -0.4777 -0.4228 -0.2757
   64SAPC   O12 5147   4.089   2.618  -0.145  0.1318 -0.2231 -0.1851
   64SAPC   O11 5148   3.978   2.382  -0.128  0.5277 -0.3078 -0.2866
   64SAPC    C1 5149   3.934   2.341  -0.262  0.3175 -0.8450  0.5228
   64SAPC    HA 5150   3.926   2.230  -0.265 -0.0926 -0.8346  1.0584
   64SAPC    HB 5151   3.839   2.387  -0.297  1.1340 -0.4389 -1.2587
   64SAPC    C2 5152   4.038   2.370  -0.374 -0.3876  0.6028  0.0747
   64SAPC    HS 5153   4.129   2.354  -0.313 -1.2415 -1.9912  0.8104
   64SAPC   O21 5154   4.028   2.505  -0.428  0.0002 -0.1323 -0.3806
   64SAPC   C21 5155   4.135   2.569  -0.438 -0.6918  0.0926  0.5474
   64SAPC   O22 5156   4.252   2.531  -0.422 -0.6570  0.0033  0.1146
   64SAPC   C22 5157   4.098   2.710  -0.473 -0.2910 -0.0905  1.1874
   64SAPC   H2R 5158   3.991   2.712  -0.503 -0.3208 -1.6231  1.1059
   64SAPC   H2S 5159   4.107   2.768  -0.378 -0.2725  0.3135  0.9409
   64SAPC    C3 5160   4.023   2.264  -0.486  0.6290  0.1923  0.2487
   64SAPC    HX 5161   3.915   2.273  -0.513  0.4467 -3.1401 -0.5431
   64SAPC    HY 5162   4.033   2.160  -0.450 -1.4044  0.2727  1.1789
   64SAPC   O31 5163   4.107   2.290  -0.601  0.1559  0.4835 -0.0398
   64SAPC   C31 5164   4.239   2.266  -0.575 -0.2465 -0.3387  0.1827
   64SAPC   O32 5165   4.283   2.210  -0.482 -0.3765 -0.5657  0.0431
   64SAPC   C32 5166   4.323   2.327  -0.696  0.1924 -0.5040 -0.0781
   64SAPC   H2X 5167   4.429   2.309  -0.670  0.5664  0.9905 -0.4997
   64SAPC   H2Y 5168   4.304   2.436  -0.700 -1.5805 -0.7892 -0.5295
   64SAPC   C23 5169   4.199   2.782  -0.570  0.5424 -0.3347  0.2904
   64SAPC   H3R 5170   4.303   2.755  -0.545  0.3791 -1.5388 -0.2289
   64SAPC   H3S 5171   4.187   2.892  -0.555  4.0686  0.3000 -0.6102
   64SAPC   C24 5172   4.174   2.743  -0.719 -0.4613  0.0892 -1.2619
   64SAPC   H4R 5173   4.189   2.633  -0.722 -1.1129 -0.0755  0.2484
   64SAPC   H4S 5174   4.249   2.788  -0.787  2.0733 -0.6112  0.9343
   64SAPC   C25 5175   4.045   2.787  -0.779 -0.9035 -0.5388 -0.2616
   64SAPC   H5R 5176   4.018   2.893  -0.763  0.1161 -0.4441  0.9714
   64SAPC   C26 5177   3.957   2.722  -0.860 -0.5022 -0.8030  0.5950
   64SAPC   H6R 5178   3.872   2.781  -0.898 -0.2184 -0.3829  0.6046
   64SAPC   C27 5179   3.965   2.581  -0.918  0.1665 -0.1276  0.5669
   64SAPC   H7R 5180   4.064   2.565  -0.965 -0.2613 -1.0446 -0.0438
   64SAPC   H7S 5181   3.893   2.578  -1.002  0.6554  0.0095  0.1408
   64SAPC   C28 5182   3.944   2.463  -0.826  0.0372 -0.8356 -0.4242
   64SAPC   H8R 5183   4.018   2.455  -0.746 -0.3407 -1.7979 -0.1648
   64SAPC   C29 5184   3.848   2.366  -0.824  0.5956  0.1941 -0.3928
   64SAPC   H9R 5185   3.841   2.283  -0.752 -0.9818  1.2078  0.6929
   64SAPC  C210 5186   3.747   2.351  -0.943  0.4497 -0.3924 -0.0222
   64SAPC  H10R 5187   3.759   2.246  -0.977 -1.3844 -0.3952 -0.8103
   64SAPC  H10S 5188   3.787   2.405  -1.032  0.4956 -0.4826 -0.0562
   64SAPC  C211 5189   3.602   2.401  -0.917  0.3340 -0.7728 -0.2238
   64SAPC  H11R 5190   3.590   2.477  -0.839  1.5235 -2.4491  1.6958
   64SAPC  C212 5191   3.491   2.364  -0.977  0.8149 -0.0455  0.2402
   64SAPC  H12R 5192   3.399   2.407  -0.937 -0.9739 -0.7837 -2.7414
   64SAPC  C213 5193   3.471   2.256  -1.091  0.2433  0.2619 -1.3434
   64SAPC  H13R 5194   3.462   2.157  -1.042 -0.2897  1.0210  0.1579
   64SAPC  H13S 5195   3.570   2.251  -1.141  0.6958 -1.9513 -0.3556
   64SAPC  C214 5196   3.357   2.289  -1.182 -0.2168 -0.2389 -0.7339
   64SAPC  H14R 5197   3.397   2.329  -1.276 -1.1307  2.8273  0.0727
   64SAPC  C215 5198   3.232   2.265  -1.156  0.2508 -0.3000 -0.4061
   64SAPC  H15R 5199   3.169   2.288  -1.243 -0.0429  2.0774  0.3552
   64SAPC  C216 5200   3.165   2.201  -1.037 -1.2153 -0.4434  0.5433
   64SAPC  H16R 5201   3.083   2.272  -1.013  0.4761  1.6273  0.4494
   64SAPC  H16S 5202   3.229   2.187  -0.947 -1.2053  1.8949  0.9583
   64SAPC  C217 5203   3.116   2.058  -1.070  0.6475  0.3241  0.1446
   64SAPC  H17R 5204   3.196   1.984  -1.089  0.6481  0.5987 -0.9707
   64SAPC  H17S 5205   3.053   2.059  -1.161 -0.3991 -0.5844  0.8293
   64SAPC  C218 5206   3.020   2.007  -0.956 -0.4944  0.6627  0.6798
   64SAPC  H18R 5207   2.953   1.928  -0.996  0.0482  0.5164  0.0439
   64SAPC  H18S 5208   2.966   2.100  -0.931 -0.0535  2.1000 -3.0025
   64SAPC  C219 5209   3.091   1.942  -0.826  0.3297  0.3170 -0.5074
   64SAPC  H19R 5210   3.004   1.925  -0.758 -0.6504 -1.4264 -2.0989
   64SAPC  H19S 5211   3.160   2.020  -0.787  0.7779 -0.2911 -0.0669
   64SAPC  C220 5212   3.164   1.813  -0.850 -0.4561  0.3527 -0.1519
   64SAPC  H20R 5213   3.251   1.818  -0.919  0.2859  0.5885  0.7834
   64SAPC  H20S 5214   3.098   1.735  -0.895  0.1927 -0.5350  0.3982
   64SAPC  H20T 5215   3.204   1.779  -0.753  1.1580  0.6402 -0.6896
   64SAPC   C33 5216   4.292   2.264  -0.837  0.5509 -0.8193  0.2129
   64SAPC   H3X 5217   4.186   2.281  -0.865  0.1183 -2.5246  0.7323
   64SAPC   H3Y 5218   4.305   2.154  -0.828 -0.4419 -1.0647 -1.1561
   64SAPC   C34 5219   4.380   2.326  -0.945  0.3652  0.7791  0.7254
   64SAPC   H4X 5220   4.488   2.304  -0.935  0.5201  1.0821 -0.1252
   64SAPC   H4Y 5221   4.366   2.436  -0.935  0.4988  1.1022 -1.8097
   64SAPC   C35 5222   4.339   2.271  -1.081  0.9643 -0.4042  1.0176
   64SAPC   H5X 5223   4.231   2.295  -1.096  1.3269  0.7817  0.1007
   64SAPC   H5Y 5224   4.351   2.161  -1.083  1.3140 -0.3735  1.3467
   64SAPC   C36 5225   4.427   2.325  -1.194 -0.1813 -0.0560 -0.7648
   64SAPC   H6X 5226   4.531   2.354  -1.168 -0.9076  0.5649  1.7556
   64SAPC   H6Y 5227   4.391   2.430  -1.206  0.5156  0.0096 -2.5281
   64SAPC   C37 5228   4.423   2.251  -1.324 -0.3812  0.6260 -0.0270
   64SAPC   H7X 5229   4.320   2.225  -1.354  0.3483 -2.4978 -0.1253
   64SAPC   H7Y 5230   4.475   2.154  -1.310 -0.4008  0.5118 -0.7336
   64SAPC   C38 5231   4.489   2.328  -1.442 -0.4354  0.5539 -0.3472
   64SAPC   H8X 5232   4.598   2.344  -1.429 -0.9151  4.4967 -0.1715
   64SAPC   H8Y 5233   4.448   2.431  -1.443  0.2285  0.8170 -0.5580
   64SAPC   C39 5234   4.473   2.260  -1.573  0.2367  0.2244  0.3698
   64SAPC   H9X 5235   4.372   2.281  -1.615 -0.0135 -0.0867  0.8021
   64SAPC   H9Y 5236   4.477   2.149  -1.573 -0.0153  0.2145  0.0948
   64SAPC  C310 5237   4.580   2.292  -1.682 -0.6125 -0.4883 -1.2218
   64SAPC  H10X 5238   4.590   2.208  -1.754  0.7114 -2.4299  1.0850
   64SAPC  H10Y 5239   4.672   2.309  -1.621 -2.7283 -1.1004  2.4361
   64SAPC  C311 5240   4.544   2.429  -1.739  0.0920 -0.6463  0.3335
   64SAPC  H11X 5241   4.482   2.487  -1.668  1.4758 -0.2751  1.2677
   64SAPC  H11Y 5242   4.464   2.408  -1.814  0.2421  2.1455 -0.7220
   64SAPC  C312 5243   4.659   2.506  -1.801  0.0199  0.3435 -0.3926
   64SAPC  H12X 5244   4.714   2.421  -1.848 -1.9765 -1.1084 -0.2508
   64SAPC  H12Y 5245   4.717   2.556  -1.721  0.1440 -0.0849 -0.2115
   64SAPC  C313 5246   4.612   2.618  -1.896  0.6606  0.8404  0.2188
   64SAPC  H13X 5247   4.563   2.696  -1.834 -0.0944 -0.1406  0.8784
   64SAPC  H13Y 5248   4.531   2.582  -1.962  0.9723  1.8355 -0.7386
   64SAPC  C314 5249   4.723   2.683  -1.980  0.3405  1.0702  0.7292
   64SAPC  H14X 5250   4.775   2.599  -2.031  0.3902  1.3389  0.3369
   64SAPC  H14Y 5251   4.795   2.741  -1.919  2.4150  0.8096 -1.3279
   64SAPC  C315 5252   4.674   2.766  -2.096  0.1940  0.0538  0.0062
   64SAPC  H15X 5253   4.630   2.854  -2.044 -0.8520 -0.4116 -0.0734
   64SAPC  H15Y 5254   4.598   2.705  -2.149  0.7917  1.4928 -2.6870
   64SAPC  C316 5255   4.780   2.810  -2.200  0.9269 -0.4168  0.3952
   64SAPC  H16X 5256   4.823   2.719  -2.246  2.3108  0.6938 -0.5963
   64SAPC  H16Y 5257   4.843   2.881  -2.142 -2.5796  2.2102  1.3459
   64SAPC  C317 5258   4.715   2.888  -2.319 -0.2881 -0.1665 -0.4136
   64SAPC  H17X 5259   4.636   2.957  -2.282  0.5847  0.6751 -0.0632
   64SAPC  H17Y 5260   4.673   2.821  -2.396  2.4160 -1.8500 -0.5715
   64SAPC  C318 5261   4.823   2.976  -2.388  0.0418  0.0112 -0.5608
   64SAPC  H18X 5262   4.775   3.046  -2.459 -1.9087  0.2638  0.9187
   64SAPC  H18Y 5263   4.894   2.911  -2.445  0.3710 -0.6811  0.5946
   64SAPC  H18Z 5264   4.879   3.037  -2.314 -0.4911  1.8730 -1.6412
   65SAPC     N 5265   5.332   5.964   4.455  0.3280 -0.3805 -0.4079
   65SAPC   C12 5266   5.373   5.935   4.599  0.2825  0.4330  0.3842
   65SAPC  H12A 5267   5.472   5.974   4.612  0.5974  0.3806 -1.5210
   65SAPC  H12B 5268   5.387   5.828   4.592  0.5372  0.5511 -2.0024
   65SAPC   C13 5269   5.441   5.908   4.362  0.2460 -0.0777 -0.1792
   65SAPC  H13A 5270   5.404   5.924   4.262  0.5142 -1.5267 -0.5280
   65SAPC  H13B 5271   5.535   5.960   4.370  1.0695 -0.9884 -3.0093
   65SAPC  H13C 5272   5.451   5.801   4.374 -0.1139 -0.0216  0.7150
   65SAPC   C14 5273   5.197   5.909   4.420 -0.1254  0.0547  0.5703
   65SAPC  H14A 5274   5.124   5.946   4.491 -0.5285 -0.9031  0.6652
   65SAPC  H14B 5275   5.173   5.934   4.318  1.8412 -0.0166  0.0493
   65SAPC  H14C 5276   5.204   5.801   4.425 -3.1672 -0.4975 -2.7254
   65SAPC   C15 5277   5.330   6.110   4.440  0.6546  0.1606  0.3487
   65SAPC  H15A 5278   5.432   6.146   4.449  2.0769 -2.5037 -2.7164
   65SAPC  H15B 5279   5.289   6.144   4.346 -1.6308  0.2124  1.3200
   65SAPC  H15C 5280   5.259   6.146   4.513 -2.7709 -1.0199 -2.1360
   65SAPC   C11 5281   5.269   5.987   4.710  0.4690  0.4831 -0.3266
   65SAPC  H11A 5282   5.295   5.943   4.808  0.5761  1.7117  0.2058
   65SAPC  H11B 5283   5.168   5.945   4.687  0.2722  1.0255 -0.4702
   65SAPC     P 5284   5.365   6.194   4.825 -0.5885 -0.5764 -0.0239
   65SAPC   O13 5285   5.492   6.144   4.779 -0.3239  0.3015  0.1875
   65SAPC   O14 5286   5.359   6.345   4.820  1.3313  0.9860 -0.0134
   65SAPC   O12 5287   5.258   6.128   4.729 -0.3504 -0.0007 -0.8193
   65SAPC   O11 5288   5.329   6.140   4.968  0.0725 -0.3007  0.1879
   65SAPC    C1 5289   5.208   6.194   5.029  0.5096  0.0565  0.2818
   65SAPC    HA 5290   5.155   6.263   4.960 -0.8915 -0.0409  1.2230
   65SAPC    HB 5291   5.138   6.110   5.045  0.3405  0.3747  1.2889
   65SAPC    C2 5292   5.228   6.264   5.167 -0.1045  0.7060 -0.5194
   65SAPC    HS 5293   5.125   6.299   5.191 -0.1059  0.1651  0.2901
   65SAPC   O21 5294   5.330   6.370   5.165 -0.8273  0.3507  0.0799
   65SAPC   C21 5295   5.293   6.478   5.092  0.3310 -0.0737 -0.4908
   65SAPC   O22 5296   5.183   6.497   5.038  0.4776 -0.3255 -0.4645
   65SAPC   C22 5297   5.408   6.582   5.108  0.4816  0.4566 -0.3589
   65SAPC   H2R 5298   5.497   6.515   5.117 -1.7525 -2.6894  0.2569
   65SAPC   H2S 5299   5.413   6.636   5.012  0.2547  1.7951  0.3593
   65SAPC    C3 5300   5.261   6.161   5.284  1.5178 -1.0590  0.2197
   65SAPC    HX 5301   5.356   6.109   5.255  2.3616 -0.8434  2.3873
   65SAPC    HY 5302   5.182   6.084   5.293  1.6421 -0.9481  3.6861
   65SAPC   O31 5303   5.288   6.218   5.418 -0.6658 -0.2844  0.1859
   65SAPC   C31 5304   5.190   6.267   5.490  0.7801  0.1196 -0.8627
   65SAPC   O32 5305   5.076   6.282   5.455 -0.0337  0.4364  0.6260
   65SAPC   C32 5306   5.226   6.301   5.635  0.0117  0.6406  1.3015
   65SAPC   H2X 5307   5.266   6.404   5.625 -0.8780  0.8071 -1.1232
   65SAPC   H2Y 5308   5.303   6.229   5.669  0.2352  1.4431  2.5572
   65SAPC   C23 5309   5.392   6.680   5.226  0.3482  0.5736  0.0756
   65SAPC   H3R 5310   5.291   6.727   5.218 -0.0308 -0.2563 -0.1154
   65SAPC   H3S 5311   5.475   6.753   5.223 -0.3105  1.3830  0.7724
   65SAPC   C24 5312   5.411   6.617   5.370  0.0809 -0.8779  1.0522
   65SAPC   H4R 5313   5.350   6.524   5.378  1.4123 -1.6806  2.3659
   65SAPC   H4S 5314   5.376   6.691   5.445 -0.3111 -1.0377  1.0304
   65SAPC   C25 5315   5.559   6.587   5.396  0.2687 -0.5383  0.0751
   65SAPC   H5R 5316   5.601   6.512   5.328  2.7192  1.4158 -0.7439
   65SAPC   C26 5317   5.631   6.638   5.496 -0.3161  0.4659 -0.4369
   65SAPC   H6R 5318   5.731   6.595   5.513 -0.7409  0.0316  1.1849
   65SAPC   C27 5319   5.590   6.728   5.614  0.0586 -0.3996  0.5115
   65SAPC   H7R 5320   5.527   6.809   5.573 -3.7634 -3.4281 -0.1912
   65SAPC   H7S 5321   5.683   6.781   5.646 -0.6113  3.0988 -2.6508
   65SAPC   C28 5322   5.504   6.665   5.720  0.0029  0.6953 -0.2262
   65SAPC   H8R 5323   5.425   6.596   5.687  0.6720 -0.6768  0.8862
   65SAPC   C29 5324   5.510   6.696   5.852 -0.1332  0.3113 -0.7962
   65SAPC   H9R 5325   5.447   6.634   5.917 -0.4919  0.0888 -1.3493
   65SAPC  C210 5326   5.592   6.798   5.929 -0.6104 -0.2198  0.3323
   65SAPC  H10R 5327   5.670   6.829   5.855 -0.9444  0.4479  0.2508
   65SAPC  H10S 5328   5.641   6.735   6.007  2.1628  0.6567 -0.5542
   65SAPC  C211 5329   5.519   6.916   5.980 -0.0955  0.0486  1.1786
   65SAPC  H11R 5330   5.469   6.977   5.903 -0.2870  0.3041  1.5027
   65SAPC  C212 5331   5.512   6.970   6.099 -0.7521  1.0382 -0.0342
   65SAPC  H12R 5332   5.455   7.062   6.117 -2.0464  0.0158  1.3909
   65SAPC  C213 5333   5.588   6.916   6.218 -0.3372  0.1357  0.1255
   65SAPC  H13R 5334   5.664   6.997   6.227  0.2429 -0.3250 -0.4931
   65SAPC  H13S 5335   5.645   6.824   6.190 -0.4568  1.2630 -4.5558
   65SAPC  C214 5336   5.494   6.902   6.335 -0.2870 -0.3448 -0.4967
   65SAPC  H14R 5337   5.413   6.830   6.316 -1.3750  1.0736 -1.3887
   65SAPC  C215 5338   5.510   6.951   6.456  1.1947 -0.2374 -0.2793
   65SAPC  H15R 5339   5.464   6.927   6.553  3.5650  0.0657  0.9870
   65SAPC  C216 5340   5.624   7.040   6.487 -0.3534 -0.3237  0.0358
   65SAPC  H16R 5341   5.604   7.146   6.459  0.7196 -0.3556 -0.9599
   65SAPC  H16S 5342   5.714   7.008   6.430  1.6685  0.6780  2.5013
   65SAPC  C217 5343   5.661   7.041   6.638 -0.7670  0.7541  0.0192
   65SAPC  H17R 5344   5.751   7.105   6.649  1.1923 -1.7765 -0.1629
   65SAPC  H17S 5345   5.682   6.933   6.657 -1.6119  0.3760 -1.0818
   65SAPC  C218 5346   5.551   7.096   6.738 -0.8121  0.1654  0.0258
   65SAPC  H18R 5347   5.462   7.033   6.723 -1.4004  1.3533 -1.7001
   65SAPC  H18S 5348   5.513   7.196   6.709 -0.3593  0.2979 -0.1267
   65SAPC  C219 5349   5.594   7.103   6.885 -0.1242  0.2385 -0.4061
   65SAPC  H19R 5350   5.667   7.186   6.893  0.4436 -0.1506 -1.3296
   65SAPC  H19S 5351   5.652   7.012   6.915 -0.9341 -0.4288 -0.8280
   65SAPC  C220 5352   5.475   7.113   6.979  0.0255 -0.0571  0.2801
   65SAPC  H20R 5353   5.413   7.203   6.957  0.0843  0.1368  0.8784
   65SAPC  H20S 5354   5.507   7.100   7.085  0.2518  0.1438  0.2372
   65SAPC  H20T 5355   5.414   7.023   6.955  1.9137 -1.6151  1.0947
   65SAPC   C33 5356   5.111   6.284   5.735  0.6541  0.5097 -0.6696
   65SAPC   H3X 5357   5.056   6.188   5.722  0.2342  0.6490  0.0337
   65SAPC   H3Y 5358   5.035   6.361   5.710  1.7326  2.1219  0.8402
   65SAPC   C34 5359   5.164   6.291   5.880 -0.1212  0.5516  0.3507
   65SAPC   H4X 5360   5.271   6.263   5.893 -0.3175 -0.2880  0.2413
   65SAPC   H4Y 5361   5.096   6.229   5.941 -0.3539  1.3368  0.9018
   65SAPC   C35 5362   5.163   6.434   5.946 -0.3218 -0.0114  0.5369
   65SAPC   H5X 5363   5.063   6.482   5.938 -0.8785 -1.4185 -2.3716
   65SAPC   H5Y 5364   5.232   6.492   5.882  0.6852 -1.1355  0.5735
   65SAPC   C36 5365   5.204   6.423   6.094  0.2885 -0.5385  0.1816
   65SAPC   H6X 5366   5.303   6.387   6.129 -0.1804  0.1919  2.4146
   65SAPC   H6Y 5367   5.143   6.336   6.125  0.8465 -1.0307 -0.0776
   65SAPC   C37 5368   5.170   6.559   6.172 -0.0896 -0.4089 -0.0496
   65SAPC   H7X 5369   5.073   6.605   6.143  1.5432  0.8083 -4.3362
   65SAPC   H7Y 5370   5.236   6.644   6.146 -1.7240  1.4390  1.5567
   65SAPC   C38 5371   5.192   6.537   6.318  0.2291 -0.4703  0.1950
   65SAPC   H8X 5372   5.293   6.494   6.336 -0.0482 -2.0448 -1.7933
   65SAPC   H8Y 5373   5.115   6.468   6.359  0.2495  0.0371  1.1409
   65SAPC   C39 5374   5.177   6.674   6.397  0.8042  0.0696  0.1057
   65SAPC   H9X 5375   5.067   6.694   6.393  0.4245 -1.4951  1.7184
   65SAPC   H9Y 5376   5.236   6.756   6.351  3.6881 -0.6919  2.1959
   65SAPC  C310 5377   5.216   6.655   6.547  0.4451  0.0853  0.3993
   65SAPC  H10X 5378   5.327   6.648   6.546  0.4143 -1.9155 -2.4657
   65SAPC  H10Y 5379   5.166   6.563   6.584 -0.0047 -0.0051 -0.4149
   65SAPC  C311 5380   5.182   6.773   6.638 -0.1513  0.2412  0.2600
   65SAPC  H11X 5381   5.074   6.778   6.662 -1.3050 -1.0218 -3.7340
   65SAPC  H11Y 5382   5.204   6.864   6.578  2.6668  0.0751  0.9212
   65SAPC  C312 5383   5.270   6.774   6.769  0.2450 -0.7848 -0.0293
   65SAPC  H12X 5384   5.252   6.875   6.811  0.3103 -0.0197 -1.7293
   65SAPC  H12Y 5385   5.377   6.770   6.739  0.4974  2.4839  0.1238
   65SAPC  C313 5386   5.216   6.660   6.855  0.3882  0.1555 -0.3534
   65SAPC  H13X 5387   5.232   6.567   6.797 -2.1163 -2.0137  2.1456
   65SAPC  H13Y 5388   5.106   6.657   6.869  0.5535 -1.5549  0.8551
   65SAPC  C314 5389   5.285   6.657   6.992 -0.1320  0.2118  0.0343
   65SAPC  H14X 5390   5.303   6.760   7.029 -0.9486 -0.3045  1.9797
   65SAPC  H14Y 5391   5.382   6.606   6.976 -1.3530 -2.6833  1.1974
   65SAPC  C315 5392   5.217   6.575   7.099  0.5608 -0.5737 -0.0246
   65SAPC  H15X 5393   5.108   6.587   7.085  0.6235  0.9948  0.6344
   65SAPC  H15Y 5394   5.241   6.615   7.200 -2.2260 -0.1574  0.5639
   65SAPC  C316 5395   5.253   6.426   7.113  0.4441 -0.1092 -0.4643
   65SAPC  H16X 5396   5.238   6.396   7.219  0.8589 -2.3328 -0.9776
   65SAPC  H16Y 5397   5.363   6.420   7.101  0.4577  0.7610 -0.8294
   65SAPC  C317 5398   5.172   6.335   7.017  0.1192  0.2013  0.0417
   65SAPC  H17X 5399   5.220   6.235   7.025 -0.2328  0.0390  0.1567
   65SAPC  H17Y 5400   5.184   6.375   6.914 -1.4565  0.8887  0.0901
   65SAPC  C318 5401   5.024   6.325   7.049  0.8976  0.9146 -0.1532
   65SAPC  H18X 5402   4.976   6.425   7.060  1.0581  0.8498  1.4529
   65SAPC  H18Y 5403   5.009   6.279   7.149 -2.5441  2.1542  0.0327
   65SAPC  H18Z 5404   4.969   6.255   6.983 -0.6139  0.6585  1.3113
   66SAPC     N 5405   1.982   1.381   4.315  0.2462 -0.6135  0.1769
   66SAPC   C12 5406   2.051   1.386   4.447  0.1795 -0.3085  0.9300
   66SAPC  H12A 5407   2.157   1.404   4.448  0.0926  0.2256  0.8387
   66SAPC  H12B 5408   2.043   1.288   4.494  4.2615 -2.6954 -2.6204
   66SAPC   C13 5409   2.048   1.274   4.237 -0.4890  0.1029 -0.2373
   66SAPC  H13A 5410   2.150   1.306   4.223 -0.2710  0.6335  2.2270
   66SAPC  H13B 5411   2.046   1.176   4.283  0.3467 -0.7727 -1.9394
   66SAPC  H13C 5412   2.001   1.256   4.141  1.8615  3.5053 -2.2596
   66SAPC   C14 5413   1.840   1.338   4.326  0.4555  0.0768 -0.2021
   66SAPC  H14A 5414   1.796   1.314   4.230  0.7062 -1.0083 -0.0557
   66SAPC  H14B 5415   1.836   1.253   4.392  0.0963  0.1131 -0.1762
   66SAPC  H14C 5416   1.778   1.411   4.376 -0.3342 -0.1210 -0.8674
   66SAPC   C15 5417   1.997   1.511   4.244 -0.0977  0.5866  0.4001
   66SAPC  H15A 5418   2.101   1.539   4.250  0.5741 -1.7678  0.5372
   66SAPC  H15B 5419   1.978   1.486   4.141 -1.2500 -1.3472  1.0439
   66SAPC  H15C 5420   1.932   1.586   4.289 -0.2866  0.9920 -0.5238
   66SAPC   C11 5421   1.989   1.485   4.551  0.4945  0.5094  0.2381
   66SAPC  H11A 5422   2.039   1.466   4.649 -1.1396 -0.4988  0.9256
   66SAPC  H11B 5423   1.882   1.459   4.566  1.3438 -2.5833  1.6273
   66SAPC     P 5424   2.156   1.679   4.526 -0.3317 -0.1286 -0.1683
   66SAPC   O13 5425   2.256   1.585   4.462  0.8342 -0.3242 -0.2975
   66SAPC   O14 5426   2.170   1.819   4.483  0.2479  0.5191  0.0306
   66SAPC   O12 5427   2.010   1.621   4.507  0.3436  0.2398  0.9403
   66SAPC   O11 5428   2.166   1.683   4.686 -0.1874  0.0294  0.3504
   66SAPC    C1 5429   2.083   1.785   4.749 -0.2658 -0.3611  0.5717
   66SAPC    HA 5430   2.138   1.880   4.735 -0.7041 -0.1774  0.0638
   66SAPC    HB 5431   1.982   1.800   4.707 -0.6264 -0.2406  1.4524
   66SAPC    C2 5432   2.072   1.771   4.906  0.2329 -0.4790 -0.7505
   66SAPC    HS 5433   2.162   1.820   4.949 -2.6816  3.2873  1.7259
   66SAPC   O21 5434   2.076   1.638   4.943 -0.2993  0.4925  0.5502
   66SAPC   C21 5435   1.977   1.557   4.908 -0.1268  0.5345 -0.1089
   66SAPC   O22 5436   1.872   1.595   4.856  0.0326 -0.0666 -0.8040
   66SAPC   C22 5437   2.009   1.418   4.948 -1.1144 -0.2228  0.4887
   66SAPC   H2R 5438   2.038   1.369   4.852  0.7771 -0.2881  1.0675
   66SAPC   H2S 5439   2.100   1.414   5.011 -1.6481  0.2243  1.3002
   66SAPC    C3 5440   1.955   1.844   4.983  0.0963  0.0115 -0.0899
   66SAPC    HX 5441   1.863   1.825   4.924 -0.1151  0.4781  0.0889
   66SAPC    HY 5442   1.957   1.954   4.966 -1.2931  0.1025  0.2129
   66SAPC   O31 5443   1.930   1.792   5.116 -0.2890  0.3602  0.0664
   66SAPC   C31 5444   2.021   1.822   5.205 -0.8154  0.7110  0.2532
   66SAPC   O32 5445   2.126   1.886   5.181 -0.1740  0.3238 -0.6481
   66SAPC   C32 5446   1.990   1.758   5.344  0.0701 -0.0415  0.6858
   66SAPC   H2X 5447   1.892   1.706   5.338 -0.3650  0.6482  1.6913
   66SAPC   H2Y 5448   1.977   1.837   5.421  0.6272  0.3185  0.4148
   66SAPC   C23 5449   1.895   1.335   5.014 -0.9040 -0.1392  0.6563
   66SAPC   H3R 5450   1.918   1.227   5.017 -0.0513 -0.0935 -1.7323
   66SAPC   H3S 5451   1.816   1.353   4.938 -0.6702 -0.3630  0.3584
   66SAPC   C24 5452   1.859   1.395   5.147  0.5600  0.4042 -0.4260
   66SAPC   H4R 5453   1.816   1.498   5.155 -0.0734  0.0217  2.0480
   66SAPC   H4S 5454   1.951   1.396   5.208  0.7207  1.3804 -0.6685
   66SAPC   C25 5455   1.743   1.319   5.221 -0.6153 -0.8435  0.2974
   66SAPC   H5R 5456   1.693   1.252   5.150 -2.2333  1.1510 -0.5749
   66SAPC   C26 5457   1.715   1.302   5.347 -0.7788  0.0663 -0.1175
   66SAPC   H6R 5458   1.621   1.249   5.372 -1.4726  0.8802 -0.9185
   66SAPC   C27 5459   1.793   1.374   5.451 -0.2916  0.1298  0.0432
   66SAPC   H7R 5460   1.819   1.477   5.419 -0.1146  0.5131  1.3617
   66SAPC   H7S 5461   1.889   1.318   5.450 -1.0303 -1.1724 -2.0627
   66SAPC   C28 5462   1.730   1.355   5.589  0.8783 -0.2046 -0.4578
   66SAPC   H8R 5463   1.628   1.314   5.590  1.2992 -1.3775  2.1557
   66SAPC   C29 5464   1.795   1.376   5.710  0.0335 -0.1146  0.5414
   66SAPC   H9R 5465   1.745   1.342   5.802 -0.8497  0.7058  0.3715
   66SAPC  C210 5466   1.935   1.417   5.737 -0.7973 -0.4829 -0.8786
   66SAPC  H10R 5467   1.962   1.482   5.651 -2.7881 -0.1761 -1.3426
   66SAPC  H10S 5468   1.992   1.322   5.731 -1.2611 -1.0251  1.8863
   66SAPC  C211 5469   1.950   1.492   5.872 -0.3001  0.5956  0.8617
   66SAPC  H11R 5470   1.897   1.588   5.880 -1.3140  0.0769  0.4366
   66SAPC  C212 5471   2.032   1.463   5.971  0.5604 -0.7066 -0.1581
   66SAPC  H12R 5472   2.021   1.529   6.058 -1.7410  0.0215 -0.9396
   66SAPC  C213 5473   2.117   1.343   6.000  0.0946  0.3502 -0.0279
   66SAPC  H13R 5474   2.123   1.268   5.919 -0.4466 -1.4079  1.4739
   66SAPC  H13S 5475   2.059   1.281   6.072  1.4651  1.3558  2.0545
   66SAPC  C214 5476   2.258   1.365   6.053  0.7305 -1.0234  0.2939
   66SAPC  H14R 5477   2.336   1.361   5.976 -0.5316  0.0161 -1.0954
   66SAPC  C215 5478   2.287   1.405   6.176 -0.2321  1.0145  0.0149
   66SAPC  H15R 5479   2.390   1.414   6.213 -0.3300 -0.4400  0.7144
   66SAPC  C216 5480   2.184   1.437   6.288 -0.2537 -0.1797  0.9360
   66SAPC  H16R 5481   2.093   1.474   6.237 -1.9929 -2.8821  1.9036
   66SAPC  H16S 5482   2.225   1.513   6.358  1.2007 -0.7228  0.7147
   66SAPC  C217 5483   2.135   1.328   6.385  0.5065 -0.4461  0.2771
   66SAPC  H17R 5484   2.083   1.243   6.335 -0.6108  1.1249 -1.3969
   66SAPC  H17S 5485   2.057   1.370   6.452  0.3196  1.9461 -1.3222
   66SAPC  C218 5486   2.248   1.259   6.462 -1.0580  0.4888  0.6161
   66SAPC  H18R 5487   2.280   1.341   6.531 -2.7276  2.3334 -0.6705
   66SAPC  H18S 5488   2.331   1.221   6.399 -3.4312 -1.8498 -1.3041
   66SAPC  C219 5489   2.210   1.138   6.553  0.0776  0.1032 -0.0048
   66SAPC  H19R 5490   2.290   1.128   6.629  1.1596  2.0273 -0.8225
   66SAPC  H19S 5491   2.206   1.043   6.495 -1.5465  0.2865 -0.2289
   66SAPC  C220 5492   2.072   1.147   6.620 -0.5852 -0.4462  0.6081
   66SAPC  H20R 5493   2.045   1.058   6.682 -1.9492  0.6321  1.6083
   66SAPC  H20S 5494   1.990   1.167   6.547  1.5973 -1.9162 -2.4788
   66SAPC  H20T 5495   2.079   1.234   6.689  1.8953  0.0781 -0.2228
   66SAPC   C33 5496   2.097   1.658   5.392 -0.0301 -0.4593  0.5820
   66SAPC   H3X 5497   2.117   1.590   5.306 -2.3281  1.5861 -1.7418
   66SAPC   H3Y 5498   2.066   1.605   5.484  0.0698 -0.4688  0.6089
   66SAPC   C34 5499   2.222   1.734   5.444 -0.3171 -0.1476 -0.1163
   66SAPC   H4X 5500   2.271   1.799   5.368 -0.3377  0.0700  0.0546
   66SAPC   H4Y 5501   2.293   1.652   5.469 -1.9707 -1.9500 -1.0149
   66SAPC   C35 5502   2.213   1.824   5.565 -0.3940  0.4882  1.0304
   66SAPC   H5X 5503   2.161   1.916   5.532 -1.6193  0.3479  2.4414
   66SAPC   H5Y 5504   2.316   1.855   5.596  0.9776 -2.4393 -0.2340
   66SAPC   C36 5505   2.146   1.752   5.684  0.5342 -0.1276  0.2430
   66SAPC   H6X 5506   2.211   1.668   5.718  1.0733 -0.2251 -0.9791
   66SAPC   H6Y 5507   2.044   1.724   5.650 -0.0071  1.5037  0.4620
   66SAPC   C37 5508   2.115   1.851   5.789 -0.0442  0.1767 -0.5180
   66SAPC   H7X 5509   2.033   1.809   5.852 -0.0557 -0.7096 -1.0994
   66SAPC   H7Y 5510   2.077   1.944   5.741 -1.8416  0.2682  0.9661
   66SAPC   C38 5511   2.238   1.874   5.876 -0.2185  0.3101  0.6936
   66SAPC   H8X 5512   2.213   1.969   5.928  1.5844  0.5458  1.2062
   66SAPC   H8Y 5513   2.331   1.891   5.816 -0.1320  1.0323  1.0229
   66SAPC   C39 5514   2.254   1.771   5.988  0.2364  0.0897 -0.3725
   66SAPC   H9X 5515   2.359   1.772   6.027 -0.5865 -0.8606  2.1096
   66SAPC   H9Y 5516   2.243   1.665   5.957  2.1015  0.3988 -2.2555
   66SAPC  C310 5517   2.170   1.791   6.121  0.2920 -0.5440  0.2642
   66SAPC  H10X 5518   2.159   1.700   6.183  0.2923  0.5683  1.9369
   66SAPC  H10Y 5519   2.067   1.807   6.080  0.5766  1.5907  0.2641
   66SAPC  C311 5520   2.220   1.907   6.204  0.2375  0.3370 -0.1762
   66SAPC  H11X 5521   2.231   1.991   6.132 -2.2074 -0.3966 -1.5425
   66SAPC  H11Y 5522   2.326   1.894   6.232  0.1157  0.8520  0.5445
   66SAPC  C312 5523   2.128   1.955   6.315 -0.6276  0.0219  0.0834
   66SAPC  H12X 5524   2.036   1.977   6.257 -0.3325  0.4535 -0.2260
   66SAPC  H12Y 5525   2.150   2.051   6.366  0.4493 -0.9107  1.5081
   66SAPC  C313 5526   2.090   1.844   6.410 -0.8403  0.0519  0.0482
   66SAPC  H13X 5527   2.107   1.739   6.376  0.1668  0.2448 -0.0928
   66SAPC  H13Y 5528   1.984   1.858   6.437 -0.7212  0.7086  0.1825
   66SAPC  C314 5529   2.165   1.846   6.546  0.2510 -0.4797  0.0164
   66SAPC  H14X 5530   2.139   1.935   6.609  0.9689 -1.5440  1.9041
   66SAPC  H14Y 5531   2.275   1.837   6.543  0.2667 -1.0908  1.3764
   66SAPC  C315 5532   2.111   1.730   6.635 -1.3040 -0.2749 -0.5083
   66SAPC  H15X 5533   2.125   1.632   6.584  0.1985  0.0292 -0.7370
   66SAPC  H15Y 5534   2.002   1.743   6.650 -0.9149  2.1355  0.7378
   66SAPC  C316 5535   2.198   1.714   6.765  0.0020  0.2449 -0.3187
   66SAPC  H16X 5536   2.185   1.799   6.836  2.5460  1.2623 -0.9458
   66SAPC  H16Y 5537   2.306   1.693   6.746  0.1750 -0.4083  1.2615
   66SAPC  C317 5538   2.164   1.584   6.837  0.4692  0.1780 -0.4999
   66SAPC  H17X 5539   2.214   1.590   6.936  1.6920 -0.5550 -1.0502
   66SAPC  H17Y 5540   2.205   1.504   6.772 -3.0347  0.3939 -3.2689
   66SAPC  C318 5541   2.022   1.554   6.861 -0.0013  0.0874 -0.1426
   66SAPC  H18X 5542   2.004   1.446   6.881 -0.5625  0.4414  1.4234
   66SAPC  H18Y 5543   1.959   1.576   6.772  0.4005 -0.9810 -0.7057
   66SAPC  H18Z 5544   1.972   1.615   6.940 -3.0388 -0.4806 -1.4658
   67SAPC     N 5545   4.730   3.253   4.467  0.1312 -0.0646 -0.2915
   67SAPC   C12 5546   4.758   3.288   4.617  1.2489  0.2474  0.7062
   67SAPC  H12A 5547   4.815   3.205   4.658  1.1892  0.5414  1.4003
   67SAPC  H12B 5548   4.669   3.295   4.679  0.9795 -1.9051  0.6436
   67SAPC   C13 5549   4.697   3.107   4.458 -0.1382  0.4154  0.5189
   67SAPC  H13A 5550   4.782   3.055   4.498  1.2833  2.8194  0.8278
   67SAPC  H13B 5551   4.609   3.082   4.515  1.0521 -0.6201  1.9665
   67SAPC  H13C 5552   4.684   3.074   4.356 -1.5219  1.6424  0.2697
   67SAPC   C14 5553   4.610   3.329   4.413  0.2113 -1.1238  0.5763
   67SAPC  H14A 5554   4.609   3.321   4.306  0.0012  0.9286  0.3831
   67SAPC  H14B 5555   4.520   3.287   4.457 -1.2887  0.8099 -0.4888
   67SAPC  H14C 5556   4.619   3.435   4.432  0.6779 -0.6296 -2.0357
   67SAPC   C15 5557   4.854   3.283   4.386 -0.9236  0.0655 -0.4584
   67SAPC  H15A 5558   4.846   3.219   4.300  0.4665 -1.0182  0.1740
   67SAPC  H15B 5559   4.864   3.388   4.363  2.8711  0.1116  0.6749
   67SAPC  H15C 5560   4.946   3.256   4.435 -1.1116  1.8779  1.0075
   67SAPC   C11 5561   4.838   3.416   4.654 -0.1803  0.2469 -0.2161
   67SAPC  H11A 5562   4.930   3.422   4.593 -0.7368 -1.4912 -1.2941
   67SAPC  H11B 5563   4.877   3.404   4.758 -1.3438 -1.0643  0.1052
   67SAPC     P 5564   4.646   3.558   4.750  0.3815  0.2305 -0.2164
   67SAPC   O13 5565   4.560   3.677   4.712 -0.1578 -0.3755 -0.0389
   67SAPC   O14 5566   4.576   3.433   4.797  0.3160 -0.6474 -0.3747
   67SAPC   O12 5567   4.751   3.525   4.642 -0.3424 -0.0787 -0.0127
   67SAPC   O11 5568   4.740   3.599   4.864 -0.1989 -0.2898  0.1119
   67SAPC    C1 5569   4.849   3.693   4.859  0.3394  0.3050 -0.0659
   67SAPC    HA 5570   4.946   3.641   4.871  1.2418  2.0777  0.7504
   67SAPC    HB 5571   4.856   3.741   4.759  0.4301 -0.4850 -0.4401
   67SAPC    C2 5572   4.831   3.800   4.970 -0.5184 -0.1621 -0.5563
   67SAPC    HS 5573   4.930   3.847   4.986 -0.0046 -1.3357 -0.2082
   67SAPC   O21 5574   4.801   3.738   5.098 -0.0737  0.3787  0.0055
   67SAPC   C21 5575   4.892   3.648   5.142 -0.0883  0.0079  0.1464
   67SAPC   O22 5576   5.000   3.621   5.095  0.0030 -0.1406  0.2464
   67SAPC   C22 5577   4.832   3.585   5.260  0.1361 -0.7955 -0.0085
   67SAPC   H2R 5578   4.739   3.643   5.279  0.8214  0.5657 -0.6721
   67SAPC   H2S 5579   4.792   3.481   5.256 -2.0602 -0.0479  1.0432
   67SAPC    C3 5580   4.720   3.902   4.933 -0.2975  0.1323  0.8498
   67SAPC    HX 5581   4.625   3.846   4.918  1.0224 -2.6003  1.9800
   67SAPC    HY 5582   4.748   3.929   4.830  1.4990 -1.6458  0.8009
   67SAPC   O31 5583   4.725   4.012   5.024  0.0571  0.9452  0.1010
   67SAPC   C31 5584   4.637   4.001   5.128 -0.9868 -0.5445 -0.0398
   67SAPC   O32 5585   4.550   3.916   5.138 -0.2041 -0.8296  0.0717
   67SAPC   C32 5586   4.670   4.101   5.234 -0.5368  0.3381 -0.1953
   67SAPC   H2X 5587   4.592   4.108   5.314  0.0343 -1.1912  0.5442
   67SAPC   H2Y 5588   4.682   4.197   5.180 -0.0121  1.1138  1.2515
   67SAPC   C23 5589   4.926   3.598   5.388 -0.7020 -0.2570 -0.0683
   67SAPC   H3R 5590   4.977   3.696   5.397 -0.4540 -0.5375  2.6930
   67SAPC   H3S 5591   5.013   3.530   5.379 -0.0559  0.6002 -0.4310
   67SAPC   C24 5592   4.847   3.578   5.519  1.0837  0.7486  0.2895
   67SAPC   H4R 5593   4.817   3.471   5.516 -0.4855  1.1601  0.4356
   67SAPC   H4S 5594   4.757   3.643   5.521 -0.7090 -1.6104  1.9995
   67SAPC   C25 5595   4.938   3.618   5.632  0.1873 -0.3110  0.0405
   67SAPC   H5R 5596   4.976   3.722   5.638  1.0086 -0.6910  3.1222
   67SAPC   C26 5597   4.969   3.535   5.736  0.3347 -0.3001 -0.1460
   67SAPC   H6R 5598   5.041   3.570   5.811  1.0750 -2.0829  0.0250
   67SAPC   C27 5599   4.899   3.402   5.766 -0.3391 -0.3122  0.9708
   67SAPC   H7R 5600   4.885   3.345   5.671 -0.1930  0.2062  0.6343
   67SAPC   H7S 5601   4.802   3.433   5.810 -0.7312 -0.3547  0.1453
   67SAPC   C28 5602   4.970   3.321   5.870  0.2402 -0.3647  0.1023
   67SAPC   H8R 5603   5.018   3.232   5.828 -2.3084 -1.6764 -0.1896
   67SAPC   C29 5604   4.956   3.339   6.006  0.1171  0.1886  0.4653
   67SAPC   H9R 5605   5.014   3.270   6.069 -0.7840 -1.4738 -0.4656
   67SAPC  C210 5606   4.891   3.458   6.070  0.0014 -0.6359 -0.0812
   67SAPC  H10R 5607   4.865   3.536   5.995 -0.8055 -0.4441  0.3866
   67SAPC  H10S 5608   4.956   3.507   6.146  0.8314 -0.8954 -0.6141
   67SAPC  C211 5609   4.761   3.416   6.130 -0.1411 -0.0375 -0.2446
   67SAPC  H11R 5610   4.691   3.374   6.056  1.3047 -1.7573 -0.7081
   67SAPC  C212 5611   4.734   3.412   6.261 -0.0784  0.7029 -0.2895
   67SAPC  H12R 5612   4.637   3.368   6.286 -1.3884  3.3771 -0.2929
   67SAPC  C213 5613   4.832   3.453   6.368 -0.4282 -0.0025  0.0575
   67SAPC  H13R 5614   4.772   3.498   6.450  0.3530  1.0153  0.0927
   67SAPC  H13S 5615   4.886   3.544   6.334 -1.0506  0.6942  0.8630
   67SAPC  C214 5616   4.928   3.349   6.422  0.1847  0.3124  0.6355
   67SAPC  H14R 5617   4.979   3.278   6.356 -3.1657 -1.0729 -0.7245
   67SAPC  C215 5618   4.957   3.332   6.548  0.4626  0.2955 -0.3116
   67SAPC  H15R 5619   5.019   3.244   6.571 -0.4599 -1.6591 -4.4476
   67SAPC  C216 5620   4.916   3.407   6.674  0.3059 -0.3838  0.3899
   67SAPC  H16R 5621   4.867   3.502   6.644  3.8746  2.1033  1.6894
   67SAPC  H16S 5622   5.008   3.439   6.729 -0.1668  1.2766  0.2592
   67SAPC  C217 5623   4.833   3.329   6.776  0.2312  0.3076  0.5579
   67SAPC  H17R 5624   4.808   3.387   6.867 -0.4149  1.0112 -0.0561
   67SAPC  H17S 5625   4.887   3.235   6.803  0.1705  0.5150  1.4294
   67SAPC  C218 5626   4.704   3.288   6.714  0.1501 -0.4256 -0.2375
   67SAPC  H18R 5627   4.711   3.243   6.613 -1.0523 -1.1451 -0.0253
   67SAPC  H18S 5628   4.639   3.378   6.708  0.3452 -0.2534  0.1778
   67SAPC  C219 5629   4.621   3.185   6.787 -0.3500 -0.4308  0.5655
   67SAPC  H19R 5630   4.694   3.102   6.802 -0.2244 -0.6254 -0.9248
   67SAPC  H19S 5631   4.537   3.141   6.727 -1.9503  2.0694  0.8248
   67SAPC  C220 5632   4.557   3.241   6.911 -0.7561 -0.1473  0.5393
   67SAPC  H20R 5633   4.492   3.168   6.964  1.0443  0.5747  4.0676
   67SAPC  H20S 5634   4.502   3.337   6.901 -0.1260  0.3511  1.7160
   67SAPC  H20T 5635   4.644   3.259   6.978 -0.3750  0.3232 -0.0701
   67SAPC   C33 5636   4.804   4.072   5.309  0.0701  0.4579  0.7276
   67SAPC   H3X 5637   4.836   4.168   5.355 -1.1121  1.5937 -0.7299
   67SAPC   H3Y 5638   4.889   4.049   5.241 -0.9236 -2.0464  0.2003
   67SAPC   C34 5639   4.791   3.969   5.425 -0.4158 -0.4386 -0.0184
   67SAPC   H4X 5640   4.890   3.919   5.428  0.6679  1.6097  1.2674
   67SAPC   H4Y 5641   4.706   3.902   5.401  1.3058 -1.7273 -3.1274
   67SAPC   C35 5642   4.759   4.024   5.566  0.3250 -0.0693 -0.2800
   67SAPC   H5X 5643   4.659   4.071   5.553  0.0064 -1.1319 -1.9594
   67SAPC   H5Y 5644   4.829   4.108   5.586 -1.6166  1.1871  1.7058
   67SAPC   C36 5645   4.766   3.920   5.672  0.1340 -1.2346  0.6022
   67SAPC   H6X 5646   4.872   3.890   5.681  0.5470 -0.2172 -0.5496
   67SAPC   H6Y 5647   4.704   3.839   5.628  1.1889 -0.9952 -1.4747
   67SAPC   C37 5648   4.705   3.974   5.801 -0.2233  0.6033  0.0285
   67SAPC   H7X 5649   4.609   4.025   5.779 -0.2968 -0.2513 -1.8922
   67SAPC   H7Y 5650   4.772   4.054   5.838  1.4070 -0.4872 -0.4490
   67SAPC   C38 5651   4.675   3.861   5.893  0.3044  0.3477 -0.5028
   67SAPC   H8X 5652   4.762   3.813   5.942  0.1764 -0.4278 -1.0261
   67SAPC   H8Y 5653   4.629   3.777   5.837  0.2525 -0.9596  1.3746
   67SAPC   C39 5654   4.592   3.899   6.022  0.3019 -0.2071 -0.7778
   67SAPC   H9X 5655   4.545   3.810   6.069 -0.5571  0.9241  0.6136
   67SAPC   H9Y 5656   4.513   3.976   6.007 -0.8959 -1.3167 -0.3191
   67SAPC  C310 5657   4.692   3.957   6.128 -0.3266  0.2481  0.2663
   67SAPC  H10X 5658   4.763   4.028   6.080  1.5096 -1.6960 -0.0511
   67SAPC  H10Y 5659   4.747   3.872   6.175 -1.9489 -0.4677  0.9446
   67SAPC  C311 5660   4.613   4.019   6.242 -0.8544  0.2987 -0.4990
   67SAPC  H11X 5661   4.515   3.965   6.242 -1.9936  2.2466  0.8437
   67SAPC  H11Y 5662   4.607   4.128   6.220 -0.9588  0.4404  0.2070
   67SAPC  C312 5663   4.668   4.003   6.390  0.8242 -0.6062  0.0520
   67SAPC  H12X 5664   4.598   4.063   6.452 -1.9693 -0.1235 -3.2394
   67SAPC  H12Y 5665   4.774   4.031   6.406  0.7657 -0.3588  0.0095
   67SAPC  C313 5666   4.624   3.868   6.454 -0.8453 -0.3971  0.9827
   67SAPC  H13X 5667   4.677   3.790   6.395 -2.2252 -0.9802  0.4748
   67SAPC  H13Y 5668   4.517   3.842   6.436 -0.8601  0.3334 -0.0435
   67SAPC  C314 5669   4.658   3.848   6.604  0.1561  0.9833 -0.2095
   67SAPC  H14X 5670   4.621   3.932   6.666  2.7750  0.2250  2.6362
   67SAPC  H14Y 5671   4.769   3.856   6.602  0.2418 -0.0481 -0.6463
   67SAPC  C315 5672   4.610   3.709   6.657 -0.0902  0.5306 -0.7369
   67SAPC  H15X 5673   4.655   3.633   6.589 -0.1590  1.1827 -1.5201
   67SAPC  H15Y 5674   4.500   3.704   6.639  0.1608 -1.5989 -2.0249
   67SAPC  C316 5675   4.646   3.684   6.813  0.4174 -0.1571  0.8172
   67SAPC  H16X 5676   4.691   3.775   6.858  2.1443 -0.8151  0.5144
   67SAPC  H16Y 5677   4.727   3.608   6.811  0.5962  0.0372  0.2779
   67SAPC  C317 5678   4.525   3.635   6.883  0.5847 -0.5227 -0.1922
   67SAPC  H17X 5679   4.491   3.546   6.827 -0.3767 -0.1055 -0.2827
   67SAPC  H17Y 5680   4.446   3.713   6.878 -0.4042 -1.5707 -2.8176
   67SAPC  C318 5681   4.558   3.592   7.031 -0.0480 -0.2428  0.4319
   67SAPC  H18X 5682   4.475   3.534   7.076  0.3841 -1.0339  0.2316
   67SAPC  H18Y 5683   4.591   3.678   7.093 -1.7033  0.2254  0.6976
   67SAPC  H18Z 5684   4.636   3.514   7.020  0.3902  0.3635 -1.0264
   68SAPC     N 5685   6.569   2.738   4.602 -0.2501 -0.0892  0.3065
   68SAPC   C12 5686   6.558   2.690   4.745  0.5549  0.2984  0.3658
   68SAPC  H12A 5687   6.460   2.644   4.748  0.6595 -0.2947 -2.3538
   68SAPC  H12B 5688   6.560   2.767   4.820 -0.9548 -0.3028  1.0765
   68SAPC   C13 5689   6.488   2.863   4.581 -0.4804 -0.2578 -0.2268
   68SAPC  H13A 5690   6.530   2.940   4.644 -0.2322 -1.1258  0.6728
   68SAPC  H13B 5691   6.486   2.893   4.477 -0.0947 -1.6629 -0.6625
   68SAPC  H13C 5692   6.386   2.849   4.614 -0.6232  1.2050  0.0582
   68SAPC   C14 5693   6.707   2.772   4.561 -0.7194 -0.3669  0.2502
   68SAPC  H14A 5694   6.711   2.837   4.475 -1.3706  0.4298  0.8191
   68SAPC  H14B 5695   6.767   2.809   4.642 -0.9578 -1.0970  0.7696
   68SAPC  H14C 5696   6.754   2.678   4.534  1.8704  0.6401  0.9306
   68SAPC   C15 5697   6.503   2.627   4.514 -0.1578  0.3052  0.6077
   68SAPC  H15A 5698   6.557   2.537   4.539 -3.3576 -1.3491  2.0637
   68SAPC  H15B 5699   6.400   2.611   4.539 -0.5399  0.7010 -0.6566
   68SAPC  H15C 5700   6.510   2.645   4.408 -0.5287  0.3485  0.5926
   68SAPC   C11 5701   6.664   2.581   4.787 -0.0168  0.3085 -0.2299
   68SAPC  H11A 5702   6.665   2.570   4.897  1.4157 -1.5592 -0.3683
   68SAPC  H11B 5703   6.759   2.626   4.753 -0.4146  0.3965 -1.2868
   68SAPC     P 5704   6.523   2.362   4.749 -0.1465 -0.5393 -0.1559
   68SAPC   O13 5705   6.398   2.439   4.742 -0.4833 -0.0906  0.1535
   68SAPC   O14 5706   6.528   2.248   4.664 -0.5918  0.3240 -0.0539
   68SAPC   O12 5707   6.647   2.457   4.710  0.4620  0.2483  0.3418
   68SAPC   O11 5708   6.557   2.334   4.896 -0.2879 -0.2095 -0.1569
   68SAPC    C1 5709   6.603   2.205   4.950 -0.3084  0.3545 -0.5093
   68SAPC    HA 5710   6.537   2.125   4.910  1.7207 -0.9612 -1.3784
   68SAPC    HB 5711   6.708   2.186   4.921 -0.4132 -0.7887 -0.1551
   68SAPC    C2 5712   6.586   2.203   5.103 -0.3136  0.3080 -0.6728
   68SAPC    HS 5713   6.480   2.223   5.128 -0.4368  0.6690 -1.4738
   68SAPC   O21 5714   6.671   2.316   5.142  0.5198  0.2699  0.0845
   68SAPC   C21 5715   6.612   2.434   5.161 -0.4319 -0.3731 -0.1724
   68SAPC   O22 5716   6.496   2.461   5.152  0.0500 -0.3564  0.4992
   68SAPC   C22 5717   6.724   2.526   5.215 -0.1964 -0.8629  0.4914
   68SAPC   H2R 5718   6.796   2.466   5.274 -0.0172 -0.5075  0.6426
   68SAPC   H2S 5719   6.785   2.561   5.130 -0.2529 -1.7375  0.0846
   68SAPC    C3 5720   6.626   2.067   5.168  0.6217  0.3053  0.0576
   68SAPC    HX 5721   6.724   2.031   5.129  0.6849 -0.8112  1.1854
   68SAPC    HY 5722   6.553   1.991   5.133 -0.4883  0.7481  1.3483
   68SAPC   O31 5723   6.625   2.085   5.312  0.4015 -0.7053  0.1016
   68SAPC   C31 5724   6.753   2.117   5.360  0.1268  0.0033 -0.5546
   68SAPC   O32 5725   6.859   2.119   5.301  0.4762 -0.1709  0.1417
   68SAPC   C32 5726   6.742   2.111   5.509 -0.4327  0.5015  0.3831
   68SAPC   H2X 5727   6.808   2.024   5.533  1.5303  1.7021 -0.3909
   68SAPC   H2Y 5728   6.641   2.085   5.546 -0.5370 -1.9112 -1.3100
   68SAPC   C23 5729   6.672   2.642   5.302  0.0854  0.0255  0.9286
   68SAPC   H3R 5730   6.626   2.601   5.395  0.8594 -0.9156  0.9022
   68SAPC   H3S 5731   6.586   2.690   5.249 -0.6512 -0.6943  1.4501
   68SAPC   C24 5732   6.783   2.750   5.318 -0.0269  0.0434  0.1852
   68SAPC   H4R 5733   6.736   2.834   5.372  2.5998 -0.7996  4.2053
   68SAPC   H4S 5734   6.819   2.780   5.217  1.3197  0.1564  0.6743
   68SAPC   C25 5735   6.895   2.700   5.407 -0.6331 -0.6032  0.2589
   68SAPC   H5R 5736   6.970   2.646   5.348 -0.1886  1.3849 -1.0940
   68SAPC   C26 5737   6.895   2.701   5.544 -0.2460  0.8298  0.2166
   68SAPC   H6R 5738   6.975   2.642   5.592 -1.7199 -0.8840  0.6732
   68SAPC   C27 5739   6.788   2.759   5.638 -0.7035 -0.3176  0.8675
   68SAPC   H7R 5740   6.746   2.681   5.705  2.4659 -0.4973  2.8475
   68SAPC   H7S 5741   6.705   2.794   5.572 -1.8066 -2.3416  1.1120
   68SAPC   C28 5742   6.831   2.875   5.719  0.0499  0.0274 -0.9819
   68SAPC   H8R 5743   6.844   2.966   5.658 -0.6279  0.9267  0.1780
   68SAPC   C29 5744   6.873   2.880   5.850  0.0662 -1.2300 -0.7271
   68SAPC   H9R 5745   6.897   2.976   5.897 -0.6827 -1.6042  0.4660
   68SAPC  C210 5746   6.896   2.767   5.935  0.0147  0.8905  0.3051
   68SAPC  H10R 5747   6.946   2.687   5.877  0.4905  1.7324 -0.4718
   68SAPC  H10S 5748   6.797   2.724   5.959 -0.0482  0.1965 -1.1264
   68SAPC  C211 5749   6.981   2.790   6.061  0.2970 -0.1793 -0.1354
   68SAPC  H11R 5750   7.080   2.832   6.038  0.9195  0.0558  2.6040
   68SAPC  C212 5751   6.952   2.753   6.186  0.5906  0.2901  0.1802
   68SAPC  H12R 5752   7.022   2.785   6.264  0.7012  0.7296 -0.0985
   68SAPC  C213 5753   6.816   2.690   6.220 -0.4567  0.0824  0.7092
   68SAPC  H13R 5754   6.817   2.612   6.299 -0.6495 -0.8658 -0.2083
   68SAPC  H13S 5755   6.778   2.621   6.141  0.0395 -0.3447  0.8446
   68SAPC  C214 5756   6.709   2.785   6.276  0.3477 -0.1138  0.8571
   68SAPC  H14R 5757   6.633   2.813   6.202  2.1026  1.0327 -0.6224
   68SAPC  C215 5758   6.711   2.838   6.399  0.4748  0.2946 -0.5079
   68SAPC  H15R 5759   6.626   2.904   6.423  0.7525  0.0503  1.2690
   68SAPC  C216 5760   6.814   2.810   6.504 -0.1147 -0.4319  0.0514
   68SAPC  H16R 5761   6.810   2.893   6.578  0.6025 -2.1043  2.1056
   68SAPC  H16S 5762   6.914   2.792   6.458 -0.8896 -0.7224 -1.5955
   68SAPC  C217 5763   6.803   2.697   6.609  0.2493 -0.8537  0.3112
   68SAPC  H17R 5764   6.743   2.618   6.559  2.1161 -2.7500  0.9446
   68SAPC  H17S 5765   6.753   2.744   6.697  0.8265 -1.0813  0.7698
   68SAPC  C218 5766   6.931   2.643   6.669 -0.7430  0.4621 -0.6874
   68SAPC  H18R 5767   6.983   2.717   6.733  1.8315 -0.2290 -1.8579
   68SAPC  H18S 5768   7.006   2.627   6.588 -1.0104 -2.1862 -0.4923
   68SAPC  C219 5769   6.904   2.502   6.734  0.9563  0.0733  0.1270
   68SAPC  H19R 5770   6.832   2.456   6.663  0.8260  2.0874 -1.1089
   68SAPC  H19S 5771   6.854   2.518   6.832  2.0156 -0.8545  0.8504
   68SAPC  C220 5772   7.021   2.417   6.759 -1.3668 -0.2124  0.1001
   68SAPC  H20R 5773   7.099   2.481   6.805 -0.4740 -1.0232 -0.2467
   68SAPC  H20S 5774   7.068   2.381   6.665 -1.3014 -2.0986  0.8248
   68SAPC  H20T 5775   6.999   2.325   6.816 -0.5721 -1.8528 -2.0961
   68SAPC   C33 5776   6.814   2.235   5.569 -0.2046 -0.0548 -0.5633
   68SAPC   H3X 5777   6.768   2.331   5.535 -0.7883  0.6636  1.9714
   68SAPC   H3Y 5778   6.912   2.249   5.520 -0.3655  0.6572 -0.7033
   68SAPC   C34 5779   6.809   2.236   5.723  0.3019 -0.2821 -0.4667
   68SAPC   H4X 5780   6.841   2.135   5.758 -2.0087 -0.4607  1.3402
   68SAPC   H4Y 5781   6.706   2.239   5.765  0.8882  0.1927  0.9746
   68SAPC   C35 5782   6.892   2.343   5.800  0.4196  0.1582 -0.2195
   68SAPC   H5X 5783   6.860   2.440   5.756  0.7387 -0.0590 -0.9542
   68SAPC   H5Y 5784   6.999   2.317   5.786  0.1987 -1.0448  0.1669
   68SAPC   C36 5785   6.854   2.337   5.949 -0.1443 -0.7281 -0.0926
   68SAPC   H6X 5786   6.743   2.346   5.943 -0.2670 -1.5369  0.7040
   68SAPC   H6Y 5787   6.887   2.422   6.012  1.4075 -1.4646  0.1085
   68SAPC   C37 5788   6.904   2.211   6.015 -0.0848  0.2146 -0.1779
   68SAPC   H7X 5789   6.995   2.178   5.960  0.6322 -0.5262  1.4003
   68SAPC   H7Y 5790   6.831   2.128   6.006 -0.1897  0.4722 -2.2673
   68SAPC   C38 5791   6.930   2.234   6.162 -0.0356  0.4003 -0.0612
   68SAPC   H8X 5792   7.001   2.319   6.164 -0.2858  0.6361 -0.7996
   68SAPC   H8Y 5793   6.981   2.147   6.209 -3.1801 -0.7593  1.4915
   68SAPC   C39 5794   6.804   2.272   6.246  0.0700  0.4157  0.4068
   68SAPC   H9X 5795   6.721   2.201   6.224 -0.9000  1.4589  0.6119
   68SAPC   H9Y 5796   6.786   2.380   6.229 -0.2210  0.9682  3.5630
   68SAPC  C310 5797   6.827   2.265   6.400  0.3743 -0.4574  0.2478
   68SAPC  H10X 5798   6.734   2.303   6.448  0.4321 -1.2157  0.9974
   68SAPC  H10Y 5799   6.907   2.339   6.419 -1.0700  0.4820  3.5052
   68SAPC  C311 5800   6.855   2.119   6.439 -0.4397 -0.1673 -0.0961
   68SAPC  H11X 5801   6.933   2.071   6.376 -0.1241  1.3387 -0.9234
   68SAPC  H11Y 5802   6.763   2.058   6.435  0.7584 -1.9803 -1.0679
   68SAPC  C312 5803   6.919   2.122   6.581 -0.2044  0.9567 -0.3921
   68SAPC  H12X 5804   6.845   2.132   6.663 -1.6712  0.1473 -1.5482
   68SAPC  H12Y 5805   6.997   2.201   6.580  0.0179  0.7704  0.8031
   68SAPC  C313 5806   6.994   1.984   6.609  0.3957  0.1471  0.5186
   68SAPC  H13X 5807   7.093   1.993   6.559  0.1437  0.8005  0.1106
   68SAPC  H13Y 5808   6.944   1.889   6.582 -1.1849  0.7691  1.1381
   68SAPC  C314 5809   7.026   1.969   6.755  0.6621  0.0282 -0.0120
   68SAPC  H14X 5810   6.932   1.975   6.814  2.2711  1.2449  2.6311
   68SAPC  H14Y 5811   7.079   2.053   6.805 -1.8566  0.0245  2.9844
   68SAPC  C315 5812   7.091   1.837   6.793  0.4147 -0.3709  0.0276
   68SAPC  H15X 5813   7.035   1.754   6.745 -1.3951  0.3983  0.6894
   68SAPC  H15Y 5814   7.103   1.820   6.903  3.9160  0.1458 -0.1656
   68SAPC  C316 5815   7.231   1.839   6.745 -0.3105 -0.3983  0.3932
   68SAPC  H16X 5816   7.287   1.930   6.777 -1.0410  0.1302  0.1736
   68SAPC  H16Y 5817   7.224   1.846   6.634 -0.6169  1.2938  0.4969
   68SAPC  C317 5818   7.308   1.717   6.777  0.4850  0.2101  0.2217
   68SAPC  H17X 5819   7.270   1.646   6.701 -2.9277  0.5750  1.4000
   68SAPC  H17Y 5820   7.306   1.677   6.881  0.4701  2.3534  1.1032
   68SAPC  C318 5821   7.459   1.729   6.741  0.4561  0.8757 -0.2234
   68SAPC  H18X 5822   7.504   1.807   6.807 -0.0421 -1.2846  2.9162
   68SAPC  H18Y 5823   7.462   1.762   6.635 -1.4716  0.7469 -0.3614
   68SAPC  H18Z 5824   7.510   1.636   6.774 -2.0929  0.5409  3.3977
   69SAPC     N 5825   2.986   6.686   4.158  0.2672  0.3670  0.4543
   69SAPC   C12 5826   2.839   6.671   4.191  0.3327  0.4300 -1.5936
   69SAPC  H12A 5827   2.804   6.586   4.133  0.4215 -1.8885  1.4589
   69SAPC  H12B 5828   2.786   6.760   4.163 -2.2747 -0.6117 -0.3448
   69SAPC   C13 5829   3.013   6.697   4.008 -0.2021 -1.2932 -0.7871
   69SAPC  H13A 5830   2.973   6.789   3.968 -0.5303 -1.1468 -0.1399
   69SAPC  H13B 5831   3.118   6.689   3.987 -0.0602 -2.5704  0.2727
   69SAPC  H13C 5832   2.968   6.615   3.954 -1.1996 -0.2213 -1.6427
   69SAPC   C14 5833   3.041   6.814   4.227  0.3218  0.7358 -0.2593
   69SAPC  H14A 5834   3.144   6.838   4.207  0.7314 -1.0348 -0.5134
   69SAPC  H14B 5835   2.990   6.898   4.184 -2.8212 -1.4560 -1.1805
   69SAPC  H14C 5836   3.027   6.806   4.334  0.3873 -2.2105 -0.3706
   69SAPC   C15 5837   3.070   6.571   4.210 -0.4510  0.9728 -0.5734
   69SAPC  H15A 5838   3.040   6.554   4.312 -0.9122 -0.2572 -0.8970
   69SAPC  H15B 5839   3.068   6.481   4.150  2.9165  0.7616 -0.5783
   69SAPC  H15C 5840   3.173   6.605   4.203 -0.5790  1.8510  1.2453
   69SAPC   C11 5841   2.796   6.623   4.331 -0.9185  0.4174  0.3091
   69SAPC  H11A 5842   2.834   6.520   4.348 -1.6131  0.2727  1.0472
   69SAPC  H11B 5843   2.686   6.613   4.341 -0.7335 -1.9958  0.7284
   69SAPC     P 5844   2.791   6.857   4.463 -0.1448  0.4508  0.2131
   69SAPC   O13 5845   2.909   6.947   4.453 -0.3436 -0.5378  0.0868
   69SAPC   O14 5846   2.677   6.892   4.377 -0.0174 -0.6166 -0.0059
   69SAPC   O12 5847   2.845   6.717   4.425 -0.6501  0.2797  0.3889
   69SAPC   O11 5848   2.737   6.844   4.613  0.0678  0.0368 -0.3378
   69SAPC    C1 5849   2.605   6.788   4.627  0.4358 -0.3738  0.4029
   69SAPC    HA 5850   2.523   6.854   4.594  1.4442 -0.0418 -1.5871
   69SAPC    HB 5851   2.588   6.704   4.557 -1.3933  1.2460 -1.1942
   69SAPC    C2 5852   2.578   6.736   4.772  0.3512  0.3328 -0.3107
   69SAPC    HS 5853   2.468   6.734   4.784  0.1612  1.5438 -1.5665
   69SAPC   O21 5854   2.638   6.817   4.873  0.3403  0.9515 -0.2488
   69SAPC   C21 5855   2.585   6.945   4.869 -0.4958  0.2857 -0.5974
   69SAPC   O22 5856   2.503   6.986   4.793  0.2643  0.1342  0.6208
   69SAPC   C22 5857   2.644   7.022   4.985  0.0347  0.1468  0.3923
   69SAPC   H2R 5858   2.715   6.961   5.045 -0.9004 -1.2946  0.0930
   69SAPC   H2S 5859   2.706   7.096   4.930  1.7005 -1.4510  0.0234
   69SAPC    C3 5860   2.644   6.596   4.788 -0.4539 -0.5929 -0.4455
   69SAPC    HX 5861   2.754   6.604   4.786 -0.1790 -3.2735  0.3069
   69SAPC    HY 5862   2.605   6.538   4.701  0.4203  2.1231 -2.8132
   69SAPC   O31 5863   2.608   6.548   4.921 -0.1190  0.1547  0.8645
   69SAPC   C31 5864   2.483   6.511   4.939  0.2975 -0.2068  0.9096
   69SAPC   O32 5865   2.398   6.496   4.851 -0.6526 -0.1044  0.2513
   69SAPC   C32 5866   2.466   6.479   5.088 -0.5065  0.2824  0.0032
   69SAPC   H2X 5867   2.561   6.431   5.118 -0.1379  1.8647  1.5188
   69SAPC   H2Y 5868   2.378   6.412   5.097 -0.1989 -0.1453 -0.1258
   69SAPC   C23 5869   2.542   7.097   5.075 -0.4514 -0.2986  0.7359
   69SAPC   H3R 5870   2.441   7.104   5.029  0.5853  1.3915 -1.5197
   69SAPC   H3S 5871   2.587   7.194   5.106  0.7594 -1.3340  2.3774
   69SAPC   C24 5872   2.532   7.034   5.219 -0.3631 -0.0237  0.9683
   69SAPC   H4R 5873   2.634   7.022   5.263 -0.2009 -4.5402 -0.1668
   69SAPC   H4S 5874   2.504   6.927   5.216 -1.1765  0.2084 -1.4259
   69SAPC   C25 5875   2.446   7.124   5.310  0.3413  0.0595 -0.3555
   69SAPC   H5R 5876   2.345   7.148   5.274 -0.0129  0.4924  0.8842
   69SAPC   C26 5877   2.487   7.173   5.427 -0.0990 -0.4133 -0.2486
   69SAPC   H6R 5878   2.421   7.243   5.480  1.1750 -0.0600  0.9293
   69SAPC   C27 5879   2.621   7.146   5.487 -0.2186  0.1302  0.0631
   69SAPC   H7R 5880   2.642   7.230   5.557 -2.6398 -0.9749  2.2611
   69SAPC   H7S 5881   2.702   7.150   5.411  1.5203 -3.7533  1.4283
   69SAPC   C28 5882   2.633   7.011   5.556 -0.0778  0.4235 -0.3498
   69SAPC   H8R 5883   2.603   6.917   5.506  1.6733 -1.4033  1.8042
   69SAPC   C29 5884   2.680   6.988   5.680  0.5601 -0.7022 -0.2220
   69SAPC   H9R 5885   2.668   6.895   5.736 -1.9848  0.2214  0.9035
   69SAPC  C210 5886   2.744   7.097   5.775 -0.0591 -0.2343  0.4436
   69SAPC  H10R 5887   2.681   7.098   5.867 -3.1104 -1.4434 -1.4595
   69SAPC  H10S 5888   2.754   7.203   5.743  0.8540 -0.4317  0.0565
   69SAPC  C211 5889   2.887   7.049   5.804  0.7745 -0.7821 -0.4797
   69SAPC  H11R 5890   2.947   7.047   5.712  0.6896 -1.7577 -0.5229
   69SAPC  C212 5891   2.951   7.023   5.923 -0.6539 -0.0936  0.3079
   69SAPC  H12R 5892   3.053   6.983   5.913 -0.8347 -0.0257 -3.1818
   69SAPC  C213 5893   2.894   7.047   6.059 -0.2581  0.5425 -0.3775
   69SAPC  H13R 5894   2.916   6.957   6.120 -1.0118  0.8321  0.3389
   69SAPC  H13S 5895   2.783   7.051   6.056 -0.2718 -0.0569 -0.9854
   69SAPC  C214 5896   2.958   7.169   6.123 -0.6952  0.0813  0.2757
   69SAPC  H14R 5897   2.939   7.269   6.080 -2.9617  1.0998  3.2879
   69SAPC  C215 5898   3.025   7.163   6.239 -0.2017 -1.3874  0.1230
   69SAPC  H15R 5899   3.059   7.258   6.282 -1.4975 -0.5147 -0.7496
   69SAPC  C216 5900   3.068   7.048   6.319  0.0655 -0.0786  0.2110
   69SAPC  H16R 5901   3.055   6.952   6.265  2.2128 -0.5234  0.3644
   69SAPC  H16S 5902   3.013   7.048   6.416  1.0754  3.7495  0.9301
   69SAPC  C217 5903   3.216   7.062   6.358 -0.5908 -0.1638 -0.1005
   69SAPC  H17R 5904   3.234   7.147   6.427  0.4968 -1.1443  0.8935
   69SAPC  H17S 5905   3.290   7.073   6.276 -0.7748  2.0027 -0.0203
   69SAPC  C218 5906   3.266   6.939   6.436 -0.1077 -0.2801  0.0981
   69SAPC  H18R 5907   3.187   6.907   6.508 -0.5582  1.1565  0.2667
   69SAPC  H18S 5908   3.358   6.969   6.491  0.1348  0.7400 -0.8454
   69SAPC  C219 5909   3.280   6.824   6.343  0.0720  0.1186 -0.2572
   69SAPC  H19R 5910   3.340   6.869   6.261 -0.3060  1.2201  0.0518
   69SAPC  H19S 5911   3.185   6.791   6.294 -0.8879  0.7895  1.0908
   69SAPC  C220 5912   3.347   6.693   6.387  0.3994  0.5560  0.6480
   69SAPC  H20R 5913   3.457   6.697   6.400  0.9761 -2.2186 -2.1368
   69SAPC  H20S 5914   3.336   6.606   6.318  0.4673 -0.7706  2.2580
   69SAPC  H20T 5915   3.306   6.658   6.484  3.0081 -2.9766  0.6629
   69SAPC   C33 5916   2.459   6.607   5.176 -0.7295 -0.0465  0.1567
   69SAPC   H3X 5917   2.369   6.666   5.150  0.7547  2.0729 -0.5329
   69SAPC   H3Y 5918   2.548   6.672   5.160  0.9448 -1.2114  3.6320
   69SAPC   C34 5919   2.460   6.574   5.323 -0.1134 -0.0603  0.3880
   69SAPC   H4X 5920   2.547   6.505   5.324 -0.3419 -0.5193  4.1492
   69SAPC   H4Y 5921   2.381   6.506   5.362 -1.1968  0.0867 -1.4414
   69SAPC   C35 5922   2.460   6.695   5.416 -0.4921 -0.0917  0.5121
   69SAPC   H5X 5923   2.374   6.759   5.384  0.0498  0.5492  0.3256
   69SAPC   H5Y 5924   2.552   6.752   5.392 -1.6939  0.9360 -2.0516
   69SAPC   C36 5925   2.433   6.665   5.562  0.6017 -0.1928  0.4213
   69SAPC   H6X 5926   2.352   6.589   5.568  0.5284 -0.3753 -1.8233
   69SAPC   H6Y 5927   2.409   6.756   5.620  0.7109  1.0921 -1.4742
   69SAPC   C37 5928   2.554   6.598   5.634 -0.5979  0.1569  0.5642
   69SAPC   H7X 5929   2.646   6.659   5.629 -1.0406  0.7259 -1.3858
   69SAPC   H7Y 5930   2.566   6.510   5.568 -1.6527  0.8504 -0.5947
   69SAPC   C38 5931   2.512   6.566   5.781 -0.4037 -0.6152  0.6877
   69SAPC   H8X 5932   2.568   6.476   5.815  1.7362 -0.1941 -1.4505
   69SAPC   H8Y 5933   2.402   6.556   5.787 -0.6197  0.8353 -0.4577
   69SAPC   C39 5934   2.564   6.674   5.875 -0.1275 -1.1115 -0.0244
   69SAPC   H9X 5935   2.502   6.766   5.866  0.1631 -0.8049  0.9937
   69SAPC   H9Y 5936   2.671   6.689   5.848 -0.2122 -2.4424 -1.2327
   69SAPC  C310 5937   2.560   6.634   6.024 -0.5259  0.0284 -0.8002
   69SAPC  H10X 5938   2.646   6.565   6.030 -2.8311 -3.2223 -2.0098
   69SAPC  H10Y 5939   2.456   6.606   6.050 -0.4941  0.1918 -0.4981
   69SAPC  C311 5940   2.592   6.764   6.104  0.5648  0.8744  0.3654
   69SAPC  H11X 5941   2.521   6.847   6.082 -1.4398 -1.5744 -3.4859
   69SAPC  H11Y 5942   2.697   6.788   6.079  0.9127 -0.1435  0.7925
   69SAPC  C312 5943   2.597   6.727   6.252  0.1106  0.6394 -0.4715
   69SAPC  H12X 5944   2.681   6.657   6.267  0.1785  0.1613 -2.7483
   69SAPC  H12Y 5945   2.504   6.671   6.277  0.6353 -0.6440 -1.2965
   69SAPC  C313 5946   2.617   6.855   6.336 -0.0346  0.3654  0.1946
   69SAPC  H13X 5947   2.539   6.931   6.318 -1.1491 -0.4110  1.5968
   69SAPC  H13Y 5948   2.711   6.906   6.304  0.0539  0.0051 -0.1422
   69SAPC  C314 5949   2.636   6.838   6.488  0.5484 -0.0339 -0.1653
   69SAPC  H14X 5950   2.542   6.799   6.533 -0.3386 -1.1418 -2.7464
   69SAPC  H14Y 5951   2.647   6.939   6.533  3.0908 -0.4628  0.3169
   69SAPC  C315 5952   2.762   6.764   6.515  0.3242 -0.5408 -0.5866
   69SAPC  H15X 5953   2.839   6.821   6.459  2.3159  1.4691  3.6573
   69SAPC  H15Y 5954   2.739   6.666   6.470 -1.2526  1.0445 -3.4953
   69SAPC  C316 5955   2.798   6.758   6.665  0.3632 -0.3279  0.3889
   69SAPC  H16X 5956   2.863   6.668   6.671 -0.1495 -0.7059  0.2725
   69SAPC  H16Y 5957   2.703   6.739   6.719  1.7533 -0.5163  2.9242
   69SAPC  C317 5958   2.865   6.883   6.717 -0.6584  0.2430  0.3794
   69SAPC  H17X 5959   2.808   6.969   6.676  3.0871  1.9345 -1.7492
   69SAPC  H17Y 5960   2.965   6.910   6.679 -0.8776 -0.4432 -0.7106
   69SAPC  C318 5961   2.861   6.888   6.866 -0.4537 -0.0186 -0.3739
   69SAPC  H18X 5962   2.766   6.847   6.905 -1.5125  0.9691 -1.7908
   69SAPC  H18Y 5963   2.869   6.991   6.906  1.3440  0.0448 -0.8014
   69SAPC  H18Z 5964   2.941   6.820   6.902 -1.3963 -0.8355  0.2443
   70SAPC     N 5965   3.314   3.573   4.577 -0.0963 -0.3982 -0.1886
   70SAPC   C12 5966   3.302   3.726   4.565  0.2889  0.3151 -0.1533
   70SAPC  H12A 5967   3.238   3.750   4.481  0.7002  0.2812 -0.4853
   70SAPC  H12B 5968   3.400   3.771   4.551  0.8493  1.2502  5.0019
   70SAPC   C13 5969   3.185   3.512   4.554 -0.4030  0.2817 -0.4141
   70SAPC  H13A 5970   3.149   3.542   4.456  0.2449 -1.1945 -1.1286
   70SAPC  H13B 5971   3.192   3.405   4.563  0.9255  0.4757  1.4019
   70SAPC  H13C 5972   3.120   3.538   4.637 -1.0350 -1.8880 -0.1677
   70SAPC   C14 5973   3.411   3.519   4.477 -0.2755  0.6053 -0.6322
   70SAPC  H14A 5974   3.425   3.413   4.492 -1.2478  0.7594  1.8300
   70SAPC  H14B 5975   3.377   3.528   4.374  0.8257  0.8741 -0.9908
   70SAPC  H14C 5976   3.502   3.576   4.465  0.3581 -0.6168 -1.9092
   70SAPC   C15 5977   3.367   3.539   4.712 -0.9440  0.2490  0.3759
   70SAPC  H15A 5978   3.292   3.558   4.788 -1.8562  2.7665 -1.0396
   70SAPC  H15B 5979   3.414   3.442   4.716  0.6536  0.9506 -0.4557
   70SAPC  H15C 5980   3.455   3.599   4.730 -2.2543  2.9203 -1.4760
   70SAPC   C11 5981   3.234   3.809   4.683 -0.1194 -0.6461  0.4151
   70SAPC  H11A 5982   3.230   3.914   4.648 -1.3129 -1.1767 -1.1498
   70SAPC  H11B 5983   3.303   3.803   4.770  0.0551  0.0971  0.3321
   70SAPC     P 5984   3.012   3.831   4.801 -0.2850  0.0105  0.0336
   70SAPC   O13 5985   3.018   3.978   4.774  0.3006 -0.0839 -0.6777
   70SAPC   O14 5986   2.880   3.765   4.813 -0.3064  0.1038  0.3214
   70SAPC   O12 5987   3.103   3.749   4.699  0.2681  0.1737 -0.6170
   70SAPC   O11 5988   3.087   3.802   4.936  0.0090  0.4847  0.4596
   70SAPC    C1 5989   3.115   3.674   4.986 -0.2433  0.7253  0.0491
   70SAPC    HA 5990   3.023   3.627   5.029  0.8634  0.1470  1.9007
   70SAPC    HB 5991   3.153   3.603   4.910  0.1079 -1.1191  1.8517
   70SAPC    C2 5992   3.219   3.688   5.101  0.3599 -0.2748  0.4624
   70SAPC    HS 5993   3.318   3.708   5.054  0.8253 -2.2319  0.5277
   70SAPC   O21 5994   3.214   3.568   5.176 -0.0301 -0.1035 -0.3222
   70SAPC   C21 5995   3.332   3.516   5.214  1.0766 -0.3724  0.7573
   70SAPC   O22 5996   3.438   3.536   5.159  0.0828  0.2295  0.0816
   70SAPC   C22 5997   3.304   3.451   5.341  0.1907  0.6456 -0.4104
   70SAPC   H2R 5998   3.220   3.382   5.323 -0.2209  1.1830 -0.5742
   70SAPC   H2S 5999   3.390   3.386   5.367 -0.0167 -0.2970 -1.9678
   70SAPC    C3 6000   3.186   3.816   5.185 -0.0124  0.1973  0.2214
   70SAPC    HX 6001   3.082   3.803   5.220 -0.8082 -0.4876 -2.1995
   70SAPC    HY 6002   3.189   3.898   5.110 -1.1334  1.1596  1.1940
   70SAPC   O31 6003   3.272   3.829   5.299 -0.3715  0.1461 -0.4469
   70SAPC   C31 6004   3.382   3.909   5.289  0.5529 -0.1891  0.3620
   70SAPC   O32 6005   3.414   3.960   5.179 -0.3679  0.1030  0.3511
   70SAPC   C32 6006   3.442   3.930   5.432 -0.5703  0.9266  0.2154
   70SAPC   H2X 6007   3.519   4.009   5.418  0.7092 -0.1599  0.8240
   70SAPC   H2Y 6008   3.482   3.830   5.460  3.0743  2.1669 -0.0615
   70SAPC   C23 6009   3.278   3.547   5.456 -0.8122 -0.5031 -0.7975
   70SAPC   H3R 6010   3.189   3.608   5.429 -0.0454  1.6481  1.2255
   70SAPC   H3S 6011   3.362   3.618   5.463 -0.2176 -0.7614 -3.9754
   70SAPC   C24 6012   3.252   3.481   5.591 -0.4802 -0.3977 -0.3406
   70SAPC   H4R 6013   3.315   3.390   5.590 -1.1544 -0.8650 -1.1099
   70SAPC   H4S 6014   3.149   3.441   5.597  0.0157 -1.8968 -1.2125
   70SAPC   C25 6015   3.283   3.557   5.718  0.2905  0.5862  0.6470
   70SAPC   H5R 6016   3.195   3.589   5.777  1.1824 -1.7111  3.4421
   70SAPC   C26 6017   3.405   3.584   5.764  0.4768 -0.6224  0.3496
   70SAPC   H6R 6018   3.424   3.645   5.853 -1.0083  1.0174 -0.3970
   70SAPC   C27 6019   3.526   3.539   5.687 -0.0474 -0.5359 -1.4388
   70SAPC   H7R 6020   3.501   3.476   5.599  0.1401 -2.0822 -0.4181
   70SAPC   H7S 6021   3.575   3.470   5.759 -2.7894 -0.7167  0.3960
   70SAPC   C28 6022   3.621   3.646   5.637 -0.4311 -0.1160  0.3421
   70SAPC   H8R 6023   3.642   3.661   5.530  0.5428 -0.2471  0.4991
   70SAPC   C29 6024   3.706   3.703   5.731  0.3592 -0.2501  0.4157
   70SAPC   H9R 6025   3.779   3.774   5.689 -0.4896  0.1120 -0.4719
   70SAPC  C210 6026   3.711   3.686   5.883 -0.3629  0.2158  0.1800
   70SAPC  H10R 6027   3.817   3.693   5.914  0.6243  2.3769 -3.2458
   70SAPC  H10S 6028   3.680   3.583   5.912 -1.9170  0.8556  0.9617
   70SAPC  C211 6029   3.622   3.785   5.950 -0.2821  0.4353  0.1441
   70SAPC  H11R 6030   3.621   3.885   5.904  1.4640  0.9047  1.0419
   70SAPC  C212 6031   3.556   3.768   6.067 -0.1442 -0.2185  0.6180
   70SAPC  H12R 6032   3.502   3.854   6.109 -0.6437 -1.1862  2.0377
   70SAPC  C213 6033   3.563   3.647   6.159 -0.7006 -0.1644  0.4849
   70SAPC  H13R 6034   3.634   3.667   6.242 -0.3552 -0.6900  0.3224
   70SAPC  H13S 6035   3.601   3.555   6.111  2.1770  0.2653  1.7401
   70SAPC  C214 6036   3.436   3.615   6.209  0.0995 -0.4356 -0.6949
   70SAPC  H14R 6037   3.375   3.550   6.144 -1.3051  1.9048 -1.8283
   70SAPC  C215 6038   3.378   3.663   6.319  0.2479 -0.1285 -0.2126
   70SAPC  H15R 6039   3.275   3.633   6.342 -0.4303  1.7322 -0.7017
   70SAPC  C216 6040   3.457   3.739   6.417 -0.0327  0.6361  0.0047
   70SAPC  H16R 6041   3.494   3.839   6.387 -1.8691  1.2853 -0.2542
   70SAPC  H16S 6042   3.535   3.670   6.456 -0.2822 -0.9426 -2.1225
   70SAPC  C217 6043   3.380   3.783   6.545  0.6768  0.3265  1.0524
   70SAPC  H17R 6044   3.289   3.845   6.534  1.7577  2.2547  2.3772
   70SAPC  H17S 6045   3.446   3.850   6.604  3.5647  1.3240 -2.8777
   70SAPC  C218 6046   3.343   3.663   6.636 -0.8191  0.1007 -0.4206
   70SAPC  H18R 6047   3.439   3.628   6.680 -1.4830  1.8053  2.7372
   70SAPC  H18S 6048   3.295   3.582   6.577  0.0426 -0.1613 -0.7774
   70SAPC  C219 6049   3.255   3.708   6.752  0.1445 -0.6764  0.3611
   70SAPC  H19R 6050   3.164   3.753   6.709 -1.1588 -3.5457 -0.1341
   70SAPC  H19S 6051   3.313   3.787   6.804  0.3350 -1.0338  0.7000
   70SAPC  C220 6052   3.222   3.600   6.849  0.4567 -0.0613  0.6410
   70SAPC  H20R 6053   3.159   3.646   6.929 -1.1032 -0.9713 -0.0199
   70SAPC  H20S 6054   3.313   3.558   6.898  0.6903 -0.4077 -0.0855
   70SAPC  H20T 6055   3.168   3.515   6.804  3.6752 -1.3405 -1.1106
   70SAPC   C33 6056   3.337   3.960   5.543 -0.1755 -0.7975 -0.1559
   70SAPC   H3X 6057   3.262   3.878   5.545 -0.1321 -1.0143  4.3014
   70SAPC   H3Y 6058   3.281   4.051   5.516  0.3078 -0.8027 -1.2166
   70SAPC   C34 6059   3.411   3.983   5.677  0.2873 -0.1194  0.1445
   70SAPC   H4X 6060   3.460   4.083   5.670 -1.0066  0.6444  1.4292
   70SAPC   H4Y 6061   3.489   3.908   5.700 -0.8362 -1.2123  0.4434
   70SAPC   C35 6062   3.316   3.978   5.784  0.2338  0.6539 -0.2614
   70SAPC   H5X 6063   3.317   3.870   5.811  0.5721  0.4518 -1.0620
   70SAPC   H5Y 6064   3.212   4.012   5.763 -0.5191 -1.0863  0.4304
   70SAPC   C36 6065   3.370   4.048   5.913  0.3419  0.4809  0.1356
   70SAPC   H6X 6066   3.371   4.156   5.887  1.1662  0.2923 -0.6488
   70SAPC   H6Y 6067   3.478   4.028   5.927 -0.0937 -2.7333 -0.1236
   70SAPC   C37 6068   3.282   4.014   6.037  0.2183  0.2393 -0.6486
   70SAPC   H7X 6069   3.175   4.044   6.026  0.3770  0.3621 -2.0983
   70SAPC   H7Y 6070   3.278   3.905   6.057 -1.1554  0.1976 -1.0693
   70SAPC   C38 6071   3.321   4.090   6.166 -0.4164  0.3891 -0.1139
   70SAPC   H8X 6072   3.328   4.198   6.142  0.4671  0.2627 -0.4766
   70SAPC   H8Y 6073   3.423   4.065   6.201  0.1821  1.8773 -0.7143
   70SAPC   C39 6074   3.245   4.053   6.287  0.3250  0.1062  0.6229
   70SAPC   H9X 6075   3.276   4.100   6.383 -0.8403 -0.9309  1.5398
   70SAPC   H9Y 6076   3.246   3.943   6.297 -1.9223 -0.0414 -0.1230
   70SAPC  C310 6077   3.093   4.081   6.278  0.3903 -0.2664 -0.2466
   70SAPC  H10X 6078   3.048   4.026   6.193  0.0816 -0.7955  0.2502
   70SAPC  H10Y 6079   3.076   4.189   6.259  0.4546 -0.2726 -0.3411
   70SAPC  C311 6080   3.027   4.041   6.411  0.2355 -0.3352 -0.2694
   70SAPC  H11X 6081   3.065   3.945   6.451  0.8532 -0.3549 -0.8742
   70SAPC  H11Y 6082   2.917   4.037   6.394  0.0366  1.1432  0.5438
   70SAPC  C312 6083   3.038   4.139   6.528 -0.1143 -0.0066  0.3362
   70SAPC  H12X 6084   2.964   4.221   6.533  0.0427  0.1142  0.7507
   70SAPC  H12Y 6085   3.133   4.196   6.519  0.3792 -0.8554  0.0428
   70SAPC  C313 6086   3.050   4.074   6.662 -0.2140  0.3685 -0.4993
   70SAPC  H13X 6087   3.056   4.143   6.749 -1.3217 -1.8545  1.4671
   70SAPC  H13Y 6088   3.133   4.002   6.650  1.1222  1.7490  0.1394
   70SAPC  C314 6089   2.923   3.985   6.682 -0.5410 -1.1519 -0.2939
   70SAPC  H14X 6090   2.920   3.906   6.603 -1.7767  0.4450 -1.9362
   70SAPC  H14Y 6091   2.841   4.055   6.658  0.7759  0.7725  0.6265
   70SAPC  C315 6092   2.900   3.924   6.826  0.1104 -0.5882 -0.5786
   70SAPC  H15X 6093   2.992   3.878   6.868 -0.4726  0.7341  2.4682
   70SAPC  H15Y 6094   2.825   3.843   6.819 -0.5518  0.1692 -2.9139
   70SAPC  C316 6095   2.867   4.040   6.913 -0.5214 -0.4147 -0.3498
   70SAPC  H16X 6096   2.760   4.066   6.899 -0.5313 -0.7636 -0.9654
   70SAPC  H16Y 6097   2.921   4.134   6.890 -0.2067 -0.4446  0.2557
   70SAPC  C317 6098   2.890   4.001   7.059  0.4493  1.1832  0.8797
   70SAPC  H17X 6099   2.979   3.934   7.063 -0.0097  0.3170 -1.6042
   70SAPC  H17Y 6100   2.803   3.933   7.069  2.3627 -1.9989 -1.8462
   70SAPC  C318 6101   2.890   4.122   7.151 -0.0899 -1.1877 -0.0510
   70SAPC  H18X 6102   2.976   4.125   7.222  0.4168  2.5063 -0.6242
   70SAPC  H18Y 6103   2.792   4.137   7.202  0.3583 -0.0556  0.5062
   70SAPC  H18Z 6104   2.916   4.213   7.093 -0.1947  0.4794  2.3720
   71SAPC     N 6105   3.929   2.999   4.490  0.0033  0.3022 -0.4524
   71SAPC   C12 6106   3.894   3.039   4.637 -0.3373 -0.0838 -0.2642
   71SAPC  H12A 6107   3.861   2.950   4.689 -1.0523  1.1119  1.4533
   71SAPC  H12B 6108   3.818   3.116   4.646  1.6406  2.0036 -0.5957
   71SAPC   C13 6109   4.049   2.913   4.479 -0.1610 -0.1724  0.3740
   71SAPC  H13A 6110   4.137   2.959   4.521 -0.5711 -0.4362  1.5709
   71SAPC  H13B 6111   4.039   2.819   4.532 -1.4677 -0.3283 -0.1172
   71SAPC  H13C 6112   4.063   2.893   4.374 -1.8513 -0.8946  0.2545
   71SAPC   C14 6113   3.817   2.925   4.434 -0.0131 -0.4209  0.2547
   71SAPC  H14A 6114   3.845   2.893   4.334 -0.9317 -0.6979  0.0843
   71SAPC  H14B 6115   3.803   2.833   4.489 -1.8611  1.1970  2.7027
   71SAPC  H14C 6116   3.723   2.973   4.411 -0.3498 -1.1922 -0.0075
   71SAPC   C15 6117   3.945   3.121   4.411  0.0516  0.2843 -0.4445
   71SAPC  H15A 6118   3.960   3.100   4.306 -1.2367 -0.1512 -0.5568
   71SAPC  H15B 6119   3.862   3.189   4.428  2.0233  2.8522 -0.3788
   71SAPC  H15C 6120   4.035   3.169   4.447  0.7913 -2.1072  1.1014
   71SAPC   C11 6121   4.015   3.103   4.725 -0.7543 -0.0164  0.2794
   71SAPC  H11A 6122   4.093   3.029   4.752 -0.2676  0.4961  0.2918
   71SAPC  H11B 6123   3.975   3.133   4.825 -1.6201  0.0479 -0.0797
   71SAPC     P 6124   4.018   3.362   4.659  0.4669  0.1987  0.6176
   71SAPC   O13 6125   4.044   3.416   4.530 -0.4444 -0.8960  0.4890
   71SAPC   O14 6126   3.878   3.345   4.704  0.3564  0.6427  0.2033
   71SAPC   O12 6127   4.074   3.210   4.658 -0.2649  0.2341  0.1830
   71SAPC   O11 6128   4.092   3.432   4.779 -0.2666 -0.5372  0.1282
   71SAPC    C1 6129   4.120   3.358   4.900  0.6200 -0.3131 -0.3456
   71SAPC    HA 6130   4.031   3.304   4.941  1.4053  0.0361  1.9140
   71SAPC    HB 6131   4.197   3.280   4.881  0.0074 -1.7954  2.7270
   71SAPC    C2 6132   4.154   3.460   5.017  0.2882 -0.2013 -0.2477
   71SAPC    HS 6133   4.237   3.527   4.983  0.3468  0.6456  1.4746
   71SAPC   O21 6134   4.194   3.376   5.128  0.3777 -0.0859  0.2643
   71SAPC   C21 6135   4.303   3.423   5.199  0.0947  0.0400  0.1468
   71SAPC   O22 6136   4.358   3.528   5.176 -0.3565 -0.0384  0.3812
   71SAPC   C22 6137   4.340   3.327   5.305 -0.1992  0.2564 -0.9712
   71SAPC   H2R 6138   4.245   3.296   5.353 -0.5651  0.8649 -1.2842
   71SAPC   H2S 6139   4.389   3.239   5.259  1.3126 -0.1986  1.3394
   71SAPC    C3 6140   4.031   3.548   5.048 -0.9023 -0.1081  0.5585
   71SAPC    HX 6141   3.938   3.488   5.059 -2.0620  1.7430  1.2535
   71SAPC    HY 6142   4.005   3.606   4.957 -1.3189  0.3709  0.9824
   71SAPC   O31 6143   4.067   3.628   5.167  0.4779 -0.6061  0.0129
   71SAPC   C31 6144   4.088   3.756   5.139  0.0234  0.7142 -0.0804
   71SAPC   O32 6145   4.070   3.814   5.033  0.2474 -0.2368 -0.1342
   71SAPC   C32 6146   4.152   3.828   5.260 -0.2266 -0.2167  0.1854
   71SAPC   H2X 6147   4.094   3.918   5.287  2.0079  0.9687  1.3095
   71SAPC   H2Y 6148   4.256   3.856   5.233 -1.5723  1.4196 -4.2719
   71SAPC   C23 6149   4.439   3.396   5.402  0.6715  0.6636  0.1913
   71SAPC   H3R 6150   4.407   3.500   5.426 -0.7152  0.4086 -0.4646
   71SAPC   H3S 6151   4.543   3.397   5.362  0.4800 -2.5470 -0.6556
   71SAPC   C24 6152   4.434   3.328   5.543 -0.0505 -0.0930 -0.2673
   71SAPC   H4R 6153   4.471   3.223   5.539  0.3701 -0.1215  2.6409
   71SAPC   H4S 6154   4.329   3.304   5.573 -0.3824  0.4497 -0.9509
   71SAPC   C25 6155   4.523   3.393   5.649  0.8723 -0.4420 -0.2957
   71SAPC   H5R 6156   4.631   3.398   5.631  1.1838 -0.6494  1.3181
   71SAPC   C26 6157   4.490   3.418   5.777  0.0143 -0.0138  0.3173
   71SAPC   H6R 6158   4.561   3.453   5.853 -1.7016 -0.3115  2.1483
   71SAPC   C27 6159   4.362   3.392   5.835 -0.3235 -0.2769  0.1745
   71SAPC   H7R 6160   4.296   3.333   5.767 -0.9093  2.9933 -2.3300
   71SAPC   H7S 6161   4.296   3.481   5.843 -1.2343 -0.8855 -0.3381
   71SAPC   C28 6162   4.363   3.330   5.971 -0.3074 -0.3145  0.6389
   71SAPC   H8R 6163   4.375   3.221   5.978 -0.9890 -0.3241  1.8594
   71SAPC   C29 6164   4.355   3.395   6.090  0.3871  0.4362 -0.1020
   71SAPC   H9R 6165   4.353   3.333   6.181  0.9933  0.0533 -0.3419
   71SAPC  C210 6166   4.345   3.540   6.120 -0.1912 -0.3273  0.0768
   71SAPC  H10R 6167   4.245   3.555   6.166 -0.1428 -0.1793  0.1352
   71SAPC  H10S 6168   4.358   3.584   6.018  0.2536 -1.7216 -0.4958
   71SAPC  C211 6169   4.445   3.589   6.225 -0.2099 -1.2521  0.2883
   71SAPC  H11R 6170   4.537   3.641   6.194  0.4319 -1.2785  2.0654
   71SAPC  C212 6171   4.442   3.567   6.352  0.3745 -0.2219  0.2593
   71SAPC  H12R 6172   4.529   3.582   6.417 -0.9731  0.3206  2.0317
   71SAPC  C213 6173   4.313   3.521   6.424 -0.3623 -0.0192 -0.0334
   71SAPC  H13R 6174   4.235   3.482   6.356 -1.1562 -1.1912  1.5000
   71SAPC  H13S 6175   4.257   3.606   6.470  0.2302 -0.9652  2.6090
   71SAPC  C214 6176   4.358   3.413   6.524  0.2942 -0.0544 -0.3870
   71SAPC  H14R 6177   4.411   3.331   6.474 -0.6306  0.3480 -2.0835
   71SAPC  C215 6178   4.306   3.394   6.649 -0.5728 -0.3455 -0.0856
   71SAPC  H15R 6179   4.348   3.313   6.710  1.0216  1.3562  1.1826
   71SAPC  C216 6180   4.201   3.476   6.720 -0.0713 -0.5658 -0.2551
   71SAPC  H16R 6181   4.131   3.530   6.652 -1.0347 -0.2731  0.9408
   71SAPC  H16S 6182   4.254   3.537   6.795  0.7831 -1.2099 -0.3239
   71SAPC  C217 6183   4.102   3.397   6.807  0.0766  0.4207  0.3151
   71SAPC  H17R 6184   4.046   3.324   6.745 -2.9408  1.4541  1.6316
   71SAPC  H17S 6185   4.033   3.470   6.854  0.7208  0.1753  1.7235
   71SAPC  C218 6186   4.166   3.339   6.936  0.5810 -0.0585  0.2994
   71SAPC  H18R 6187   4.217   3.423   6.988  0.0386 -0.0450  0.8277
   71SAPC  H18S 6188   4.245   3.270   6.901 -0.3754 -0.6380 -0.7780
   71SAPC  C219 6189   4.058   3.268   7.016  1.0504  0.0272 -0.0005
   71SAPC  H19R 6190   3.997   3.209   6.945 -1.1933  1.1655  0.8731
   71SAPC  H19S 6191   4.001   3.350   7.066  0.8633  1.0674 -1.8182
   71SAPC  C220 6192   4.103   3.169   7.124 -0.4611 -0.0565 -0.4009
   71SAPC  H20R 6193   4.163   3.220   7.202  1.1224 -0.4350 -1.3157
   71SAPC  H20S 6194   4.182   3.101   7.084  1.1477  1.7761 -0.4623
   71SAPC  H20T 6195   4.017   3.110   7.160 -1.5328  1.2569 -0.7299
   71SAPC   C33 6196   4.156   3.750   5.389 -0.3740  0.5161 -0.0402
   71SAPC   H3X 6197   4.221   3.661   5.378 -1.2608  0.0025 -1.4384
   71SAPC   H3Y 6198   4.053   3.720   5.418 -0.2468 -2.2681 -2.0663
   71SAPC   C34 6199   4.204   3.845   5.505  0.3512 -0.3432  0.2496
   71SAPC   H4X 6200   4.137   3.934   5.510  0.6474 -0.1698  1.4719
   71SAPC   H4Y 6201   4.303   3.886   5.475 -0.1739  0.6129 -0.2460
   71SAPC   C35 6202   4.206   3.772   5.640  0.4948  0.6206 -0.3512
   71SAPC   H5X 6203   4.284   3.693   5.646  1.8835  1.8390 -1.5558
   71SAPC   H5Y 6204   4.108   3.732   5.674 -0.0611  0.9712 -1.5064
   71SAPC   C36 6205   4.253   3.877   5.750 -0.1276  0.3238 -0.4759
   71SAPC   H6X 6206   4.206   3.976   5.733  0.1990  0.5908  0.1459
   71SAPC   H6Y 6207   4.362   3.897   5.736 -0.5365  3.1728 -0.1212
   71SAPC   C37 6208   4.216   3.826   5.891  0.2429  0.7166  0.0593
   71SAPC   H7X 6209   4.290   3.852   5.970  0.4771  2.9371 -0.8203
   71SAPC   H7Y 6210   4.231   3.716   5.884 -0.5756  0.5720  0.4011
   71SAPC   C38 6211   4.075   3.852   5.945 -0.0455 -0.5334  0.0062
   71SAPC   H8X 6212   4.004   3.789   5.888 -0.2042 -0.3440 -0.0056
   71SAPC   H8Y 6213   4.054   3.960   5.928  0.9263 -0.1460  1.0751
   71SAPC   C39 6214   4.051   3.819   6.089  0.0721 -0.7103 -0.5347
   71SAPC   H9X 6215   4.062   3.709   6.103  1.0530 -0.4292  1.2319
   71SAPC   H9Y 6216   3.946   3.846   6.109 -0.2010 -1.0333 -1.4460
   71SAPC  C310 6217   4.137   3.903   6.192  0.3046  1.1724  0.5776
   71SAPC  H10X 6218   4.126   4.013   6.180 -0.2052  1.0204 -0.5235
   71SAPC  H10Y 6219   4.246   3.883   6.182 -0.1906 -0.5523 -3.2801
   71SAPC  C311 6220   4.099   3.867   6.332 -0.1467  0.7475 -0.0202
   71SAPC  H11X 6221   4.115   3.757   6.331  2.5462  1.0588  0.5386
   71SAPC  H11Y 6222   3.999   3.895   6.371  0.3571  1.6160  0.6716
   71SAPC  C312 6223   4.192   3.931   6.428 -0.2409 -0.0750  0.3781
   71SAPC  H12X 6224   4.181   4.042   6.422  1.0698  0.0754  0.3215
   71SAPC  H12Y 6225   4.300   3.908   6.412 -0.8029 -1.4816 -1.7407
   71SAPC  C313 6226   4.167   3.882   6.572 -0.2028 -0.4054  0.1011
   71SAPC  H13X 6227   4.187   3.773   6.579 -0.0069 -0.3095  1.0912
   71SAPC  H13Y 6228   4.062   3.906   6.598  0.0111  1.6285 -0.7007
   71SAPC  C314 6229   4.257   3.958   6.662 -0.8530  0.2552  0.1446
   71SAPC  H14X 6230   4.240   4.064   6.635  0.0100  0.3074 -0.1985
   71SAPC  H14Y 6231   4.362   3.931   6.638 -0.2342  0.5656  2.3336
   71SAPC  C315 6232   4.236   3.930   6.812 -0.1448  0.0971 -0.1719
   71SAPC  H15X 6233   4.238   3.824   6.844 -1.8796  0.5253  1.5157
   71SAPC  H15Y 6234   4.136   3.971   6.839  0.0213  0.4155 -0.0250
   71SAPC  C316 6235   4.345   4.010   6.892  0.8789  0.0558  0.1469
   71SAPC  H16X 6236   4.338   4.114   6.854 -2.6267  0.0802  0.6150
   71SAPC  H16Y 6237   4.447   3.972   6.867  1.1575 -0.3488  1.8161
   71SAPC  C317 6238   4.324   4.008   7.044 -0.4416  0.1430 -0.7638
   71SAPC  H17X 6239   4.266   3.923   7.086  2.1429 -1.9688 -1.1815
   71SAPC  H17Y 6240   4.266   4.100   7.067 -0.9513 -0.4641  0.4691
   71SAPC  C318 6241   4.454   4.005   7.125  0.7689 -0.6992  0.0283
   71SAPC  H18X 6242   4.493   4.108   7.140  0.5763 -0.7788  1.1821
   71SAPC  H18Y 6243   4.525   3.931   7.083  1.1750 -0.7782  0.8403
   71SAPC  H18Z 6244   4.425   3.971   7.227  0.1435  1.4193  0.6149
   72SAPC     N 6245   0.857   0.696   4.510 -0.0423  0.0730  0.3950
   72SAPC   C12 6246   0.866   0.833   4.438 -0.7636 -0.1176 -0.3579
   72SAPC  H12A 6247   0.805   0.838   4.350 -1.9948  2.3742  0.5420
   72SAPC  H12B 6248   0.969   0.836   4.404 -0.8433  1.0160 -0.5296
   72SAPC   C13 6249   0.920   0.595   4.426 -0.0152  0.1557 -0.5256
   72SAPC  H13A 6250   0.875   0.591   4.327 -0.1128 -0.1216 -0.4697
   72SAPC  H13B 6251   1.024   0.622   4.422  0.5575 -1.8666 -0.2175
   72SAPC  H13C 6252   0.922   0.497   4.470  0.9760  0.0826 -0.7115
   72SAPC   C14 6253   0.928   0.701   4.638 -0.1011 -0.7206 -0.4282
   72SAPC  H14A 6254   0.929   0.799   4.683  1.1566 -1.5325  1.4356
   72SAPC  H14B 6255   0.883   0.627   4.703 -0.8859 -0.8289 -1.0750
   72SAPC  H14C 6256   1.031   0.667   4.635 -0.4849 -2.1939  1.3579
   72SAPC   C15 6257   0.713   0.666   4.533 -0.5199  0.5300  0.4685
   72SAPC  H15A 6258   0.660   0.635   4.444 -1.3982  0.0226  1.1556
   72SAPC  H15B 6259   0.718   0.575   4.590  1.3272 -0.6151 -1.3977
   72SAPC  H15C 6260   0.664   0.747   4.586 -0.4476  2.0951 -1.7112
   72SAPC   C11 6261   0.840   0.969   4.522 -0.7310  0.4313  0.6718
   72SAPC  H11A 6262   0.750   0.954   4.587  0.7936  3.0347  3.6577
   72SAPC  H11B 6263   0.816   1.047   4.447  0.5091  0.7921  0.6300
   72SAPC     P 6264   1.074   1.089   4.545  0.1756  0.5183 -0.1902
   72SAPC   O13 6265   1.118   1.036   4.420 -0.0798 -0.6632  0.2230
   72SAPC   O14 6266   1.053   1.234   4.545  0.0829 -0.0059 -0.8186
   72SAPC   O12 6267   0.947   1.012   4.603 -0.3348  0.1002  0.2867
   72SAPC   O11 6268   1.186   1.067   4.646 -0.4433  0.3615 -0.4694
   72SAPC    C1 6269   1.320   1.112   4.644  0.4713  0.0074  0.1258
   72SAPC    HA 6270   1.383   1.020   4.649  1.1123  0.4689  1.0294
   72SAPC    HB 6271   1.348   1.167   4.552  1.7157 -1.3941 -0.3721
   72SAPC    C2 6272   1.359   1.194   4.769  0.2084 -0.5000 -0.3513
   72SAPC    HS 6273   1.469   1.207   4.765  0.1634  0.0925  0.2284
   72SAPC   O21 6274   1.327   1.113   4.888  0.4028 -0.5315  0.1873
   72SAPC   C21 6275   1.426   1.085   4.978  0.5745 -0.6252 -0.0532
   72SAPC   O22 6276   1.537   1.136   4.977  0.9610 -0.3486 -0.4837
   72SAPC   C22 6277   1.382   0.976   5.077  0.0825  0.1684  0.2951
   72SAPC   H2R 6278   1.274   0.980   5.104 -0.3154 -1.4040 -0.8535
   72SAPC   H2S 6279   1.379   0.879   5.023  0.6870 -0.5937  1.5737
   72SAPC    C3 6280   1.272   1.324   4.770  1.5262  0.3234 -0.0117
   72SAPC    HX 6281   1.170   1.283   4.791  2.2158 -1.6678 -0.3874
   72SAPC    HY 6282   1.262   1.387   4.679 -2.6142  1.8511  1.2684
   72SAPC   O31 6283   1.307   1.403   4.888 -0.3783  0.2156  0.2150
   72SAPC   C31 6284   1.417   1.467   4.882 -0.3786  0.1290 -0.8681
   72SAPC   O32 6285   1.486   1.480   4.782 -0.2945  0.0285  0.2522
   72SAPC   C32 6286   1.452   1.533   5.022  0.9558 -0.3868  0.1720
   72SAPC   H2X 6287   1.548   1.499   5.066  1.3690  0.1250 -0.3279
   72SAPC   H2Y 6288   1.369   1.502   5.090 -2.2810  1.9916 -2.3424
   72SAPC   C23 6289   1.470   0.952   5.199  0.0735  0.4083 -0.1865
   72SAPC   H3R 6290   1.491   1.041   5.262  1.1892  0.9231 -1.2586
   72SAPC   H3S 6291   1.572   0.916   5.175 -0.4459 -1.5414  0.3550
   72SAPC   C24 6292   1.420   0.832   5.283  0.0634  0.2067 -0.0729
   72SAPC   H4R 6293   1.512   0.792   5.331  0.3563  2.4702  1.4353
   72SAPC   H4S 6294   1.372   0.749   5.228  1.0326 -0.5430  0.1837
   72SAPC   C25 6295   1.326   0.862   5.398 -0.1504 -0.0376 -0.8364
   72SAPC   H5R 6296   1.221   0.888   5.375 -0.5791 -1.2313 -0.2739
   72SAPC   C26 6297   1.359   0.854   5.527 -0.8256  0.0303  0.3759
   72SAPC   H6R 6298   1.286   0.870   5.608 -0.4022 -1.7604  1.1632
   72SAPC   C27 6299   1.503   0.829   5.575  0.0734  0.4427 -0.4719
   72SAPC   H7R 6300   1.554   0.747   5.521  0.9387  0.1520  0.7405
   72SAPC   H7S 6301   1.503   0.790   5.680 -1.1144  3.0511  0.5983
   72SAPC   C28 6302   1.595   0.950   5.566  0.1779 -0.0934 -0.4021
   72SAPC   H8R 6303   1.630   0.979   5.466  1.3928  0.7477  0.2488
   72SAPC   C29 6304   1.645   1.022   5.668  0.4381 -0.1023 -0.0903
   72SAPC   H9R 6305   1.726   1.091   5.642 -1.0845  2.6112  1.8977
   72SAPC  C210 6306   1.621   1.004   5.816  0.5681 -0.6587 -0.5509
   72SAPC  H10R 6307   1.705   0.952   5.866 -1.3231 -1.6664  1.7768
   72SAPC  H10S 6308   1.532   0.938   5.824 -0.1809  0.1900 -1.5891
   72SAPC  C211 6309   1.580   1.130   5.889 -0.0386 -0.7082  0.2579
   72SAPC  H11R 6310   1.543   1.210   5.824 -0.0479 -0.8964  0.0274
   72SAPC  C212 6311   1.582   1.142   6.022 -0.7345 -0.1263 -0.6011
   72SAPC  H12R 6312   1.542   1.229   6.075 -0.3850 -1.3719  1.8478
   72SAPC  C213 6313   1.626   1.039   6.126 -0.9847 -0.4163  0.4042
   72SAPC  H13R 6314   1.653   0.941   6.081 -1.6155 -0.5012  0.2045
   72SAPC  H13S 6315   1.542   1.005   6.190 -0.6094 -0.3313  0.9470
   72SAPC  C214 6316   1.749   1.101   6.196  0.8860  0.6449 -0.3522
   72SAPC  H14R 6317   1.819   1.158   6.134 -0.5043  2.6528 -0.1797
   72SAPC  C215 6318   1.766   1.099   6.329  0.4363 -0.4261 -0.0328
   72SAPC  H15R 6319   1.861   1.136   6.369  1.7788 -2.0022 -1.5943
   72SAPC  C216 6320   1.678   1.018   6.422 -0.3352 -0.0420  0.8606
   72SAPC  H16R 6321   1.631   0.932   6.369  0.4359  0.3728 -0.5625
   72SAPC  H16S 6322   1.609   1.072   6.490  0.0182 -2.0613  2.9331
   72SAPC  C217 6323   1.758   0.943   6.532 -0.1137 -0.4460 -0.4667
   72SAPC  H17R 6324   1.832   1.003   6.590 -0.9756 -0.9491  1.2142
   72SAPC  H17S 6325   1.827   0.874   6.480 -0.6725 -0.5267 -1.1168
   72SAPC  C218 6326   1.675   0.859   6.632 -0.6376  0.1891 -0.1922
   72SAPC  H18R 6327   1.603   0.792   6.581  1.2939  0.5531 -3.6698
   72SAPC  H18S 6328   1.615   0.930   6.693  0.9763  0.6586  0.9342
   72SAPC  C219 6329   1.769   0.776   6.715 -0.4112  0.0036 -0.0314
   72SAPC  H19R 6330   1.840   0.841   6.771  1.1955 -0.6533 -1.2531
   72SAPC  H19S 6331   1.819   0.704   6.647 -1.0459 -0.9127  0.4476
   72SAPC  C220 6332   1.682   0.697   6.815 -0.4620  0.3696  0.4020
   72SAPC  H20R 6333   1.624   0.771   6.874 -0.7393  0.3139  0.1992
   72SAPC  H20S 6334   1.727   0.619   6.881 -0.9952 -1.0168 -0.8359
   72SAPC  H20T 6335   1.610   0.637   6.756 -0.0339 -1.1143  1.3231
   72SAPC   C33 6336   1.441   1.682   5.024 -0.2375 -0.9163 -0.1167
   72SAPC   H3X 6337   1.348   1.725   4.980 -0.1624  1.4103  1.7999
   72SAPC   H3Y 6338   1.531   1.725   4.976 -1.0804  1.2770  0.1367
   72SAPC   C34 6339   1.432   1.730   5.167  0.6203  0.6927 -0.3770
   72SAPC   H4X 6340   1.478   1.659   5.239 -0.7607 -0.0453 -0.1983
   72SAPC   H4Y 6341   1.323   1.732   5.187  0.3116 -2.7587 -1.0951
   72SAPC   C35 6342   1.494   1.868   5.189 -0.0508 -0.1118  0.2791
   72SAPC   H5X 6343   1.454   1.937   5.112 -0.2152  2.2084  2.3116
   72SAPC   H5Y 6344   1.603   1.851   5.184  0.0617  0.7138 -0.2927
   72SAPC   C36 6345   1.458   1.931   5.324 -0.1760  0.0159 -0.1884
   72SAPC   H6X 6346   1.349   1.918   5.343 -0.0907 -2.6560 -1.2197
   72SAPC   H6Y 6347   1.484   2.039   5.333 -0.8515  0.2183 -0.5808
   72SAPC   C37 6348   1.509   1.856   5.447 -0.1305  0.3533  0.5918
   72SAPC   H7X 6349   1.478   1.749   5.443 -0.1650  0.3960 -0.7943
   72SAPC   H7Y 6350   1.474   1.910   5.538 -0.1568  1.6639 -0.1734
   72SAPC   C38 6351   1.664   1.855   5.458  0.6088  0.2183 -0.3720
   72SAPC   H8X 6352   1.678   1.966   5.455 -1.1446  0.5129  1.1374
   72SAPC   H8Y 6353   1.704   1.786   5.380  1.5914 -0.0469  0.3534
   72SAPC   C39 6354   1.724   1.807   5.595  0.1256 -0.2035  0.7711
   72SAPC   H9X 6355   1.835   1.813   5.590 -0.0290  2.4800 -2.1559
   72SAPC   H9Y 6356   1.699   1.699   5.607  2.4638 -0.8602  0.3228
   72SAPC  C310 6357   1.669   1.885   5.716 -0.5209  0.2337 -0.2934
   72SAPC  H10X 6358   1.560   1.869   5.733 -0.6634  1.0532 -0.3879
   72SAPC  H10Y 6359   1.690   1.994   5.711  1.0141 -0.0689 -1.1168
   72SAPC  C311 6360   1.746   1.847   5.846 -0.0107 -0.1953 -0.2174
   72SAPC  H11X 6361   1.844   1.899   5.841 -0.0183 -0.2149 -0.5804
   72SAPC  H11Y 6362   1.764   1.738   5.852  1.2788 -0.0188 -0.6492
   72SAPC  C312 6363   1.673   1.908   5.965 -0.4396 -0.1075 -0.4368
   72SAPC  H12X 6364   1.565   1.881   5.969  0.0337 -2.0964  0.2161
   72SAPC  H12Y 6365   1.661   2.018   5.956  0.2311  0.3057  2.7104
   72SAPC  C313 6366   1.734   1.856   6.097  0.5606 -0.5052 -0.0594
   72SAPC  H13X 6367   1.698   1.927   6.175 -0.7375 -0.0435 -1.0472
   72SAPC  H13Y 6368   1.841   1.863   6.069 -0.2922  1.9015 -3.3846
   72SAPC  C314 6369   1.685   1.719   6.134  0.2341  0.3934  0.0404
   72SAPC  H14X 6370   1.693   1.642   6.055 -2.9060 -1.7731  1.6091
   72SAPC  H14Y 6371   1.577   1.724   6.159  0.2009 -3.1260  1.1482
   72SAPC  C315 6372   1.777   1.673   6.249 -0.0550 -0.1997  0.1415
   72SAPC  H15X 6373   1.769   1.746   6.333 -2.6757  1.3567 -1.2981
   72SAPC  H15Y 6374   1.882   1.673   6.213  0.1564  1.7231  0.6331
   72SAPC  C316 6375   1.739   1.536   6.310 -0.5940  0.5018 -0.0344
   72SAPC  H16X 6376   1.827   1.502   6.368 -0.1451  0.5288 -0.6859
   72SAPC  H16Y 6377   1.731   1.458   6.232 -0.1520 -0.8946  1.2770
   72SAPC  C317 6378   1.616   1.528   6.400  0.7462  0.3855 -0.4070
   72SAPC  H17X 6379   1.528   1.582   6.358 -1.2025 -1.0025  1.6454
   72SAPC  H17Y 6380   1.631   1.586   6.494  0.4261  0.0688 -0.1589
   72SAPC  C318 6381   1.573   1.387   6.418  0.8731  0.2261 -0.3530
   72SAPC  H18X 6382   1.661   1.320   6.436 -0.8620 -1.9533  0.5058
   72SAPC  H18Y 6383   1.515   1.351   6.330  1.0348 -1.7324  0.2956
   72SAPC  H18Z 6384   1.506   1.375   6.506 -0.5155 -1.1908 -1.5382
   73SLPC     N 6385   5.291   6.749   0.756 -0.0641  0.3344 -0.1405
   73SLPC   C13 6386   5.187   6.821   0.839  0.6195 -0.4362  0.5087
   73SLPC  H13A 6387   5.223   6.843   0.938 -0.0138 -0.0463  0.6622
   73SLPC  H13B 6388   5.146   6.904   0.783 -0.5897 -0.9855  0.5234
   73SLPC  H13C 6389   5.108   6.749   0.856 -0.9513  0.6564 -1.6688
   73SLPC   C14 6390   5.294   6.607   0.801 -0.0601 -0.7266 -0.0750
   73SLPC  H14A 6391   5.316   6.603   0.906 -3.0550  0.6308  0.7181
   73SLPC  H14B 6392   5.195   6.571   0.782 -0.0522 -1.0182  0.4300
   73SLPC  H14C 6393   5.366   6.544   0.751  0.1923 -0.1633 -0.4461
   73SLPC   C15 6394   5.436   6.800   0.783  0.0067  0.3055 -0.5485
   73SLPC  H15A 6395   5.461   6.805   0.889  0.9040  0.4614 -0.7586
   73SLPC  H15B 6396   5.513   6.744   0.732 -0.0557 -0.4611  0.1756
   73SLPC  H15C 6397   5.443   6.903   0.754 -0.1372  0.0028 -1.6718
   73SLPC   C12 6398   5.254   6.764   0.610  0.2249  0.0429  0.1711
   73SLPC  H12A 6399   5.146   6.754   0.612  0.2128  0.2943  0.7934
   73SLPC  H12B 6400   5.308   6.681   0.566  1.3641  0.1866  1.2546
   73SLPC   C11 6401   5.274   6.895   0.523  0.6359  0.5978 -0.2419
   73SLPC  H11A 6402   5.220   6.977   0.575 -0.1970  1.0661 -1.7601
   73SLPC  H11B 6403   5.210   6.884   0.432  0.9589  2.2257 -0.7020
   73SLPC     P 6404   5.497   6.852   0.394  0.0309  0.2306  0.0138
   73SLPC   O13 6405   5.631   6.916   0.382  0.1322  0.0808 -0.6147
   73SLPC   O14 6406   5.498   6.709   0.433  0.3027 -0.4939 -0.1195
   73SLPC   O12 6407   5.409   6.931   0.500 -0.3892  0.8346  0.0089
   73SLPC   O11 6408   5.424   6.871   0.254  0.1604 -0.1639  0.1544
   73SLPC    C1 6409   5.404   6.991   0.168 -0.5314 -0.0164  0.2266
   73SLPC    HA 6410   5.297   7.021   0.158 -0.7717 -0.9209 -0.0089
   73SLPC    HB 6411   5.449   7.081   0.215 -0.9665  0.5766 -0.4736
   73SLPC    C2 6412   5.481   6.968   0.036 -0.1792  0.9818 -0.9034
   73SLPC    HS 6413   5.488   7.067  -0.014 -0.8979  1.5844  0.1447
   73SLPC   O21 6414   5.423   6.857  -0.032 -0.0133  0.3560  0.6712
   73SLPC   C21 6415   5.315   6.893  -0.107  0.2771 -0.7820 -0.1059
   73SLPC   O22 6416   5.276   7.008  -0.125 -0.3599 -0.5638  0.2704
   73SLPC   C22 6417   5.238   6.772  -0.158  0.0841  0.0232  0.5600
   73SLPC   H2R 6418   5.300   6.688  -0.195 -1.6553 -1.0362 -0.0310
   73SLPC   H2S 6419   5.171   6.732  -0.078 -2.6668 -1.1862 -2.1707
   73SLPC    C3 6420   5.630   6.931   0.044 -0.3043  0.1790 -0.7759
   73SLPC    HX 6421   5.632   6.824   0.072 -0.5367  0.1556 -0.8419
   73SLPC    HY 6422   5.673   6.990   0.127 -0.6339 -0.6198 -0.0185
   73SLPC   O31 6423   5.705   6.960  -0.074 -0.2257  0.0204  0.1970
   73SLPC   C31 6424   5.836   6.929  -0.064 -0.0637 -0.0411 -0.4847
   73SLPC   O32 6425   5.888   6.853   0.022 -0.1727 -0.6542  0.4628
   73SLPC   C32 6426   5.920   7.002  -0.173 -0.7593 -0.5522 -0.1969
   73SLPC   H2X 6427   6.003   6.932  -0.193  0.1263 -0.1939  1.9602
   73SLPC   H2Y 6428   5.968   7.083  -0.114  0.9817 -2.2506  0.8045
   73SLPC   C23 6429   5.151   6.815  -0.271  0.3710 -0.1199  0.0051
   73SLPC   H3R 6430   5.208   6.866  -0.351 -0.4222  0.8441  0.0437
   73SLPC   H3S 6431   5.083   6.894  -0.234  0.0059  0.6310 -2.1612
   73SLPC   C24 6432   5.061   6.713  -0.332  0.5865 -0.0056  0.2526
   73SLPC   H4R 6433   4.982   6.670  -0.267  0.8590 -4.6136 -2.0411
   73SLPC   H4S 6434   5.117   6.623  -0.368 -1.4676 -1.3732  0.3307
   73SLPC   C25 6435   4.982   6.771  -0.450  0.3768  0.0071 -0.1228
   73SLPC   H5R 6436   5.045   6.783  -0.541 -0.9767  0.5644 -1.0151
   73SLPC   H5S 6437   4.948   6.873  -0.422 -0.4349 -0.1806 -0.3950
   73SLPC   C26 6438   4.854   6.689  -0.486 -0.9116 -0.1573  0.0092
   73SLPC   H6R 6439   4.783   6.720  -0.407 -2.0657 -0.7856 -0.7562
   73SLPC   H6S 6440   4.876   6.580  -0.485 -0.5988 -0.1722 -2.4271
   73SLPC   C27 6441   4.803   6.721  -0.629 -0.5655  0.5980  0.2246
   73SLPC   H7R 6442   4.872   6.681  -0.707 -0.5823 -1.1367  1.0529
   73SLPC   H7S 6443   4.806   6.830  -0.650 -0.9373  0.6565  0.4519
   73SLPC   C28 6444   4.662   6.668  -0.665 -0.7227  0.1704  0.0220
   73SLPC   H8R 6445   4.592   6.674  -0.579 -0.9199  0.3136 -0.1459
   73SLPC   H8S 6446   4.661   6.560  -0.691 -0.6279  0.2473 -0.3080
   73SLPC   C29 6447   4.602   6.756  -0.770 -0.0194 -0.0962 -0.5702
   73SLPC   H9R 6448   4.562   6.852  -0.734  0.3277  0.3042 -1.2274
   73SLPC  C210 6449   4.576   6.722  -0.899  0.1796  0.2152 -0.5939
   73SLPC  H10R 6450   4.529   6.791  -0.970  1.2257 -0.6153 -2.1408
   73SLPC  C211 6451   4.630   6.605  -0.961 -0.8936  0.0204  0.3225
   73SLPC  H11R 6452   4.568   6.518  -0.930 -1.1106 -0.2664 -0.8710
   73SLPC  H11S 6453   4.731   6.579  -0.922 -0.1601  1.0951 -0.8060
   73SLPC  C212 6454   4.640   6.629  -1.111  0.0248  0.6452  0.2028
   73SLPC  H12R 6455   4.743   6.648  -1.144 -0.4576  1.1434 -1.0935
   73SLPC  C213 6456   4.546   6.597  -1.204  0.2259 -0.3464  0.1591
   73SLPC  H13R 6457   4.577   6.618  -1.308  2.0397 -1.9977  0.3025
   73SLPC  C214 6458   4.406   6.543  -1.181  0.4486  0.8204  0.1201
   73SLPC  H14R 6459   4.343   6.603  -1.251  0.0821 -0.1407 -0.3962
   73SLPC  H14S 6460   4.372   6.563  -1.077 -1.0571  1.7917 -0.5164
   73SLPC  C215 6461   4.394   6.393  -1.198 -0.4077 -0.5872  0.3989
   73SLPC  H15R 6462   4.417   6.342  -1.102  1.3650  0.4684  0.5919
   73SLPC  H15S 6463   4.463   6.355  -1.277 -0.0970  0.4463  0.1522
   73SLPC  C216 6464   4.255   6.342  -1.229 -0.9499  0.5164 -0.8635
   73SLPC  H16R 6465   4.188   6.386  -1.152 -0.2681 -2.3184  1.4995
   73SLPC  H16S 6466   4.251   6.233  -1.213 -0.2396  0.5869 -0.1782
   73SLPC  C217 6467   4.200   6.375  -1.367 -0.0987  0.3902 -0.4286
   73SLPC  H17R 6468   4.275   6.372  -1.449  1.9549  2.7810  1.2017
   73SLPC  H17S 6469   4.169   6.482  -1.370 -3.7479 -0.5468  0.0397
   73SLPC  C218 6470   4.089   6.285  -1.399  0.3004 -0.5646 -0.2491
   73SLPC  H18R 6471   4.001   6.304  -1.334  0.6044  0.9199 -0.2353
   73SLPC  H18S 6472   4.119   6.179  -1.386  0.8462 -0.2994  0.7371
   73SLPC  H18T 6473   4.061   6.305  -1.505  0.6494  0.4058 -0.1739
   73SLPC   C33 6474   5.840   7.030  -0.301 -0.6201  0.7841 -0.2350
   73SLPC   H3X 6475   5.751   7.095  -0.288 -0.8940  0.3748 -0.0270
   73SLPC   H3Y 6476   5.798   6.933  -0.335  0.1174 -0.5843  2.5310
   73SLPC   C34 6477   5.935   7.075  -0.410  0.6391 -0.0856  0.8750
   73SLPC   H4X 6478   5.996   6.986  -0.438 -2.0707 -1.1752 -2.2013
   73SLPC   H4Y 6479   5.994   7.162  -0.374  2.2931 -1.4269  1.5715
   73SLPC   C35 6480   5.846   7.129  -0.531  0.3092  0.0557  0.0196
   73SLPC   H5X 6481   5.779   7.215  -0.510 -0.5769 -0.6451  0.1037
   73SLPC   H5Y 6482   5.785   7.047  -0.574  1.2877 -0.5130 -0.3386
   73SLPC   C36 6483   5.938   7.170  -0.654  0.4408  0.0547 -0.3015
   73SLPC   H6X 6484   5.992   7.085  -0.700  0.6848  0.7131 -1.2613
   73SLPC   H6Y 6485   6.015   7.236  -0.608 -0.9414  0.0051  2.2462
   73SLPC   C37 6486   5.856   7.242  -0.763 -0.1548 -0.1847  0.7304
   73SLPC   H7X 6487   5.927   7.314  -0.808 -1.6812  0.9538  0.0577
   73SLPC   H7Y 6488   5.777   7.312  -0.729 -1.9860 -0.3730 -2.7107
   73SLPC   C38 6489   5.811   7.152  -0.879 -1.1106 -0.1530  0.2698
   73SLPC   H8X 6490   5.729   7.086  -0.843  1.1876 -1.3540  3.8186
   73SLPC   H8Y 6491   5.892   7.082  -0.911  2.1491  3.8399 -1.1496
   73SLPC   C39 6492   5.784   7.238  -1.007 -0.0409 -1.2746  0.1473
   73SLPC   H9X 6493   5.882   7.287  -1.028 -0.2045 -0.9141  0.2117
   73SLPC   H9Y 6494   5.710   7.319  -0.985  0.1842 -0.4623 -1.8506
   73SLPC  C310 6495   5.748   7.146  -1.113  0.1299  0.1306 -0.2065
   73SLPC  H10X 6496   5.646   7.103  -1.101 -0.0399  0.0717 -1.6854
   73SLPC  H10Y 6497   5.817   7.061  -1.127 -0.8295 -0.8662  0.9035
   73SLPC  C311 6498   5.751   7.224  -1.244  0.3256 -0.0505  0.0685
   73SLPC  H11X 6499   5.856   7.258  -1.258  0.5491 -1.3195 -1.6075
   73SLPC  H11Y 6500   5.680   7.310  -1.241  0.6460  0.1984  2.1289
   73SLPC  C312 6501   5.721   7.138  -1.372  0.0826  0.3372 -0.1787
   73SLPC  H12X 6502   5.625   7.089  -1.344  0.4188 -1.1532 -1.5084
   73SLPC  H12Y 6503   5.800   7.060  -1.378  0.1266  0.4589 -1.1918
   73SLPC  C313 6504   5.691   7.212  -1.512 -0.2076 -0.1166  0.0059
   73SLPC  H13X 6505   5.597   7.269  -1.497 -0.5100 -0.2877 -1.2132
   73SLPC  H13Y 6506   5.681   7.130  -1.585 -1.6609  0.1368 -0.0974
   73SLPC  C314 6507   5.797   7.316  -1.552 -0.5339 -0.3150 -0.2496
   73SLPC  H14X 6508   5.804   7.392  -1.472 -1.2615 -0.3417 -0.1526
   73SLPC  H14Y 6509   5.753   7.365  -1.641  0.9548 -1.3589 -1.6247
   73SLPC  C315 6510   5.934   7.265  -1.600  0.8688  0.1400  0.1990
   73SLPC  H15X 6511   5.922   7.203  -1.692 -0.0625  0.2233  0.2494
   73SLPC  H15Y 6512   5.965   7.195  -1.521  0.4214 -1.6389 -1.1354
   73SLPC  C316 6513   6.044   7.371  -1.622  0.1182  0.2403  0.0601
   73SLPC  H16X 6514   6.137   7.310  -1.621  1.1876  1.7942 -0.6860
   73SLPC  H16Y 6515   6.053   7.444  -1.539 -0.9479  0.3111  0.1296
   73SLPC  C317 6516   6.032   7.446  -1.756  0.1508 -0.4922 -0.3677
   73SLPC  H17X 6517   5.937   7.504  -1.758  0.2144 -0.3650  0.0509
   73SLPC  H17Y 6518   6.022   7.367  -1.833  0.1770  0.4286 -1.3326
   73SLPC  C318 6519   6.155   7.525  -1.786  0.2809 -0.4273  0.6003
   73SLPC  H18X 6520   6.247   7.461  -1.785  0.2239 -0.5480 -0.5868
   73SLPC  H18Y 6521   6.169   7.609  -1.715  0.9415  1.7220 -1.9241
   73SLPC  H18Z 6522   6.147   7.573  -1.886 -1.3706  0.2733  1.0392
   74SLPC     N 6523   0.373   5.036   0.595  0.1335 -0.4221 -0.4677
   74SLPC   C13 6524   0.514   5.001   0.612  0.3251  0.6369  0.0200
   74SLPC  H13A 6525   0.524   4.894   0.626  1.6231  0.9010  1.3540
   74SLPC  H13B 6526   0.564   5.041   0.525 -0.7176  3.4025  0.5927
   74SLPC  H13C 6527   0.561   5.047   0.698  1.1315 -1.4652  0.7634
   74SLPC   C14 6528   0.368   5.188   0.596 -0.2474  0.1575  0.0447
   74SLPC  H14A 6529   0.434   5.242   0.663  0.7680  0.8454 -1.4508
   74SLPC  H14B 6530   0.389   5.233   0.499 -1.4060 -0.2711 -0.4181
   74SLPC  H14C 6531   0.268   5.225   0.608 -1.3102 -2.3624 -0.4784
   74SLPC   C15 6532   0.288   4.982   0.713  0.0191 -0.2976  0.3792
   74SLPC  H15A 6533   0.287   4.875   0.701 -0.1143 -0.4449  1.6122
   74SLPC  H15B 6534   0.339   5.006   0.805 -0.9421  0.2740  0.7716
   74SLPC  H15C 6535   0.190   5.026   0.718  0.4152  0.4977  3.1913
   74SLPC   C12 6536   0.310   4.983   0.465 -0.5037 -0.5836 -0.6374
   74SLPC  H12A 6537   0.220   5.043   0.457  1.0705  1.7932 -1.7476
   74SLPC  H12B 6538   0.267   4.884   0.474  2.6427 -2.2968 -2.5069
   74SLPC   C11 6539   0.388   4.987   0.331  0.1942  0.1569  0.2420
   74SLPC  H11A 6540   0.335   4.930   0.252  0.5792 -0.7248  0.6036
   74SLPC  H11B 6541   0.486   4.936   0.346  0.6622  0.9950  0.0824
   74SLPC     P 6542   0.513   5.186   0.220 -0.1172 -0.6572  0.1747
   74SLPC   O13 6543   0.532   5.328   0.243  0.3028  0.3165  0.0381
   74SLPC   O14 6544   0.637   5.105   0.252  0.1359  0.0012  0.5119
   74SLPC   O12 6545   0.393   5.130   0.300  0.0760 -0.7099  0.0755
   74SLPC   O11 6546   0.475   5.162   0.067 -0.1803 -0.2406  0.1252
   74SLPC    C1 6547   0.368   5.237  -0.005  0.5695 -0.1166  0.3744
   74SLPC    HA 6548   0.280   5.226   0.062  1.6605  0.7658  2.0339
   74SLPC    HB 6549   0.389   5.346  -0.009  0.9419 -0.0788  2.2800
   74SLPC    C2 6550   0.330   5.185  -0.150 -0.1350 -0.2796 -0.2356
   74SLPC    HS 6551   0.257   5.253  -0.199 -1.0072 -2.3967 -2.0689
   74SLPC   O21 6552   0.273   5.052  -0.149  0.1233  0.1623 -0.2101
   74SLPC   C21 6553   0.142   5.057  -0.105  0.2015 -0.1976  0.3184
   74SLPC   O22 6554   0.076   5.158  -0.087 -0.9885 -0.0888  0.6742
   74SLPC   C22 6555   0.090   4.920  -0.092 -0.2622 -0.2219  0.5048
   74SLPC   H2R 6556   0.136   4.863  -0.009  0.7771 -1.5285 -0.8984
   74SLPC   H2S 6557  -0.015   4.932  -0.059  0.2124 -0.8653  2.4103
   74SLPC    C3 6558   0.451   5.177  -0.247 -0.0244 -0.2068 -0.8547
   74SLPC    HX 6559   0.512   5.101  -0.192  0.6321  0.4586 -0.6479
   74SLPC    HY 6560   0.494   5.278  -0.233 -1.7889  0.4887 -0.1821
   74SLPC   O31 6561   0.423   5.147  -0.383 -0.2130  0.7555  0.1401
   74SLPC   C31 6562   0.464   5.038  -0.440  1.4760 -0.3874 -0.5968
   74SLPC   O32 6563   0.525   4.952  -0.381 -0.4041  0.1042 -0.0617
   74SLPC   C32 6564   0.413   5.023  -0.586 -0.7681 -0.0128  0.3234
   74SLPC   H2X 6565   0.359   5.115  -0.616 -1.4815 -0.9875 -1.5053
   74SLPC   H2Y 6566   0.358   4.926  -0.589  0.6620 -0.8444 -0.0489
   74SLPC   C23 6567   0.084   4.853  -0.234 -0.0379  0.4026  0.1040
   74SLPC   H3R 6568   0.054   4.933  -0.305  2.7376  1.9355  0.5167
   74SLPC   H3S 6569   0.003   4.777  -0.227  0.4078 -0.2482 -1.3570
   74SLPC   C24 6570   0.213   4.779  -0.275 -0.1338  0.0724  0.3229
   74SLPC   H4R 6571   0.250   4.707  -0.199 -1.8131 -1.1567  0.0296
   74SLPC   H4S 6572   0.301   4.845  -0.293 -0.4184 -0.0343 -1.7565
   74SLPC   C25 6573   0.184   4.690  -0.401 -0.7817 -0.1514  0.2438
   74SLPC   H5R 6574   0.131   4.752  -0.476  2.9534  1.6101 -1.1838
   74SLPC   H5S 6575   0.109   4.609  -0.387 -0.8843  0.3069  2.7473
   74SLPC   C26 6576   0.314   4.633  -0.465  0.4813 -0.2345  0.2758
   74SLPC   H6R 6577   0.361   4.562  -0.394  0.4649  0.4892  1.0290
   74SLPC   H6S 6578   0.396   4.706  -0.478 -0.0709  0.6593  1.5849
   74SLPC   C27 6579   0.295   4.586  -0.611  0.7433  0.8637 -0.1325
   74SLPC   H7R 6580   0.396   4.566  -0.653  0.1277  0.1612 -1.3529
   74SLPC   H7S 6581   0.250   4.660  -0.681  0.9510 -0.8742 -2.1999
   74SLPC   C28 6582   0.218   4.457  -0.636  1.3211 -0.3397 -0.0382
   74SLPC   H8R 6583   0.242   4.417  -0.736  1.2875 -1.9157  0.5600
   74SLPC   H8S 6584   0.112   4.490  -0.640  1.6552  1.0684  1.2783
   74SLPC   C29 6585   0.222   4.348  -0.531  0.1053 -0.0416 -0.0702
   74SLPC   H9R 6586   0.199   4.389  -0.431  1.4902 -0.8693  0.6242
   74SLPC  C210 6587   0.252   4.214  -0.536  0.7692  0.3182 -0.7151
   74SLPC  H10R 6588   0.251   4.153  -0.444  1.6118  1.0692 -0.1930
   74SLPC  C211 6589   0.287   4.128  -0.655 -0.0800 -0.1929 -0.3124
   74SLPC  H11R 6590   0.294   4.196  -0.742 -2.5216  1.2161  0.5326
   74SLPC  H11S 6591   0.206   4.053  -0.661 -0.7120  0.1482  2.5514
   74SLPC  C212 6592   0.426   4.072  -0.642  0.0283  0.5043 -0.4383
   74SLPC  H12R 6593   0.488   4.118  -0.563  1.7672 -1.2818 -0.6647
   74SLPC  C213 6594   0.484   3.986  -0.725  0.2777 -0.3981  0.7224
   74SLPC  H13R 6595   0.585   3.958  -0.691  0.8599  1.1048  0.3121
   74SLPC  C214 6596   0.433   3.921  -0.850  0.8902  0.2034 -1.0750
   74SLPC  H14R 6597   0.322   3.927  -0.852  0.7755 -0.8306  0.8660
   74SLPC  H14S 6598   0.469   3.816  -0.846 -0.3741 -0.2661 -1.6272
   74SLPC  C215 6599   0.476   3.990  -0.977 -0.4001  0.0049 -0.2544
   74SLPC  H15R 6600   0.585   3.989  -1.001 -0.6904 -0.1532 -1.6227
   74SLPC  H15S 6601   0.447   4.096  -0.963  3.0796  0.7800  2.4014
   74SLPC  C216 6602   0.415   3.922  -1.103  0.6039  0.2541  0.5287
   74SLPC  H16R 6603   0.306   3.941  -1.114  0.7514  0.1745 -1.5102
   74SLPC  H16S 6604   0.423   3.812  -1.090  0.4792 -0.1586 -2.3449
   74SLPC  C217 6605   0.467   3.962  -1.234  0.4767 -0.1460 -0.3469
   74SLPC  H17R 6606   0.430   4.065  -1.255  1.3727  0.2201 -0.2007
   74SLPC  H17S 6607   0.406   3.894  -1.297 -2.1361 -0.3061  2.1612
   74SLPC  C218 6608   0.623   3.958  -1.244  0.0513  0.5530  0.1342
   74SLPC  H18R 6609   0.653   3.951  -1.351 -0.5747  1.1233 -0.0848
   74SLPC  H18S 6610   0.664   3.866  -1.198 -1.5437 -0.2192  0.0749
   74SLPC  H18T 6611   0.665   4.043  -1.187 -3.3584  1.9974  0.7439
   74SLPC   C33 6612   0.529   4.988  -0.683 -0.1469 -0.0385  0.5842
   74SLPC   H3X 6613   0.577   4.892  -0.655  0.1488  0.0246  0.2991
   74SLPC   H3Y 6614   0.607   5.067  -0.686 -1.5752  1.4448  1.0802
   74SLPC   C34 6615   0.469   4.989  -0.821 -0.3590 -1.0291  0.7432
   74SLPC   H4X 6616   0.550   5.002  -0.897 -2.8642  1.4398 -1.7151
   74SLPC   H4Y 6617   0.423   5.089  -0.836  0.9281 -0.6304 -0.9362
   74SLPC   C35 6618   0.382   4.872  -0.863  0.2647  0.3148  0.6374
   74SLPC   H5X 6619   0.276   4.892  -0.838 -0.5294 -2.4559 -0.2025
   74SLPC   H5Y 6620   0.405   4.785  -0.797  1.2287  0.9981  1.2309
   74SLPC   C36 6621   0.395   4.825  -1.011 -0.6457 -0.3723 -0.7933
   74SLPC   H6X 6622   0.501   4.803  -1.037 -0.0061  0.7248  0.7355
   74SLPC   H6Y 6623   0.369   4.919  -1.065  0.2126 -0.0398 -0.6483
   74SLPC   C37 6624   0.312   4.699  -1.043 -0.2475 -0.4913  0.8647
   74SLPC   H7X 6625   0.203   4.722  -1.036 -0.4892 -0.9362 -0.9612
   74SLPC   H7Y 6626   0.335   4.614  -0.975 -0.9995 -3.9208 -2.7618
   74SLPC   C38 6627   0.340   4.650  -1.191  0.2507  0.3451  0.3913
   74SLPC   H8X 6628   0.444   4.612  -1.199  0.1264 -0.1545  1.0275
   74SLPC   H8Y 6629   0.326   4.737  -1.258  2.2205 -0.1751 -0.8062
   74SLPC   C39 6630   0.244   4.539  -1.236 -0.2362 -0.3039 -0.0894
   74SLPC   H9X 6631   0.140   4.577  -1.231  0.0138  0.2242  1.4548
   74SLPC   H9Y 6632   0.243   4.458  -1.160 -0.9580 -1.6511 -1.4729
   74SLPC  C310 6633   0.286   4.486  -1.374  0.6347 -0.2430  0.3188
   74SLPC  H10X 6634   0.258   4.378  -1.376  0.6545 -0.2852  1.4201
   74SLPC  H10Y 6635   0.395   4.486  -1.392  0.5762 -1.4670 -0.1933
   74SLPC  C311 6636   0.211   4.551  -1.494  0.1781  0.1525 -0.9615
   74SLPC  H11X 6637   0.236   4.658  -1.476 -0.3774  0.1283  0.0197
   74SLPC  H11Y 6638   0.101   4.532  -1.486  0.1389  0.6359 -0.2345
   74SLPC  C312 6639   0.251   4.503  -1.636  0.3315  0.4192  0.2647
   74SLPC  H12X 6640   0.260   4.392  -1.632  3.6464  0.5647 -0.0649
   74SLPC  H12Y 6641   0.345   4.555  -1.665 -0.9976  0.4663 -4.8946
   74SLPC  C313 6642   0.151   4.559  -1.747  0.0845  0.8904 -1.0514
   74SLPC  H13X 6643   0.132   4.665  -1.723 -2.4667  0.2587  0.0058
   74SLPC  H13Y 6644   0.057   4.501  -1.737  0.5718  0.0428 -1.2246
   74SLPC  C314 6645   0.210   4.558  -1.883  0.1595 -0.1517 -0.0477
   74SLPC  H14X 6646   0.237   4.454  -1.912 -1.0014  0.1009 -2.2729
   74SLPC  H14Y 6647   0.313   4.601  -1.886 -1.1826  3.2991 -1.2147
   74SLPC  C315 6648   0.110   4.626  -1.982  0.2112  0.3419 -0.6400
   74SLPC  H15X 6649   0.156   4.623  -2.083  0.6525  0.8315 -0.4591
   74SLPC  H15Y 6650   0.099   4.732  -1.952 -1.5072 -0.1573  0.6329
   74SLPC  C316 6651  -0.024   4.564  -1.978 -0.1148 -0.0732  0.9542
   74SLPC  H16X 6652  -0.078   4.614  -1.895 -0.2027  2.3257 -0.4535
   74SLPC  H16Y 6653  -0.005   4.457  -1.954  0.9535  0.5153  2.9045
   74SLPC  C317 6654  -0.109   4.569  -2.108  0.0233 -0.0660  0.2553
   74SLPC  H17X 6655  -0.209   4.526  -2.087 -0.4560 -0.3741 -2.2745
   74SLPC  H17Y 6656  -0.062   4.506  -2.187  0.0126  0.8110 -0.4722
   74SLPC  C318 6657  -0.121   4.714  -2.160  0.0119  0.4650 -0.9198
   74SLPC  H18X 6658  -0.028   4.757  -2.202  0.1339  0.1884 -0.9379
   74SLPC  H18Y 6659  -0.139   4.781  -2.073  1.5614  3.5314 -2.8116
   74SLPC  H18Z 6660  -0.199   4.722  -2.239  0.1381 -0.0579 -1.1027
   75SLPC     N 6661   2.904   2.595   0.621 -0.3079  0.1883  0.3451
   75SLPC   C13 6662   2.995   2.683   0.539 -0.2890 -0.2517  0.2708
   75SLPC  H13A 6663   3.067   2.620   0.490  3.6404  2.9292  1.4675
   75SLPC  H13B 6664   2.939   2.730   0.459 -1.6880 -3.2034 -0.6440
   75SLPC  H13C 6665   3.047   2.755   0.601 -2.0567 -1.1356  2.9730
   75SLPC   C14 6666   2.792   2.680   0.680  0.1209  0.4637 -0.2921
   75SLPC  H14A 6667   2.716   2.698   0.606  0.2915  0.3076 -0.5067
   75SLPC  H14B 6668   2.752   2.622   0.762  1.9289 -0.5282 -0.0654
   75SLPC  H14C 6669   2.826   2.769   0.731  4.0737  0.1559 -2.0276
   75SLPC   C15 6670   2.982   2.541   0.734 -0.2960  1.1216 -0.8284
   75SLPC  H15A 6671   3.026   2.621   0.791  2.2886 -1.6083  1.3347
   75SLPC  H15B 6672   2.919   2.479   0.796 -0.6680  1.5164 -0.8062
   75SLPC  H15C 6673   3.069   2.486   0.700  0.6794  3.2084 -1.8980
   75SLPC   C12 6674   2.839   2.483   0.544 -0.0963  0.1768 -0.1360
   75SLPC  H12A 6675   2.771   2.513   0.466  0.3333  2.2047  0.2188
   75SLPC  H12B 6676   2.774   2.430   0.611 -0.1942  2.8138  2.0206
   75SLPC   C11 6677   2.945   2.383   0.485 -0.2312  0.0128 -1.0089
   75SLPC  H11A 6678   2.892   2.308   0.423  0.7607  0.4666 -2.4632
   75SLPC  H11B 6679   2.980   2.318   0.568  2.0824  0.4651 -1.5604
   75SLPC     P 6680   3.065   2.479   0.269 -0.1216  0.3081 -0.7250
   75SLPC   O13 6681   3.206   2.511   0.230  0.3932  0.4786  0.1468
   75SLPC   O14 6682   2.993   2.365   0.206  0.1387  0.1997 -0.0073
   75SLPC   O12 6683   3.062   2.441   0.423  0.1554 -0.3234  0.3325
   75SLPC   O11 6684   2.979   2.618   0.260 -0.4436  0.0076 -0.1131
   75SLPC    C1 6685   2.998   2.692   0.140 -0.5174 -0.0034 -0.4669
   75SLPC    HA 6686   2.972   2.798   0.158 -2.1784 -0.4130 -0.2377
   75SLPC    HB 6687   3.107   2.694   0.119 -0.1921  1.7267  1.1186
   75SLPC    C2 6688   2.917   2.646   0.013  0.0741 -0.1194  0.7938
   75SLPC    HS 6689   2.964   2.550  -0.017  1.3592 -0.5172  3.7511
   75SLPC   O21 6690   2.929   2.754  -0.089  0.3626  0.8857 -0.0508
   75SLPC   C21 6691   3.040   2.750  -0.161 -0.7394  0.4527 -0.5102
   75SLPC   O22 6692   3.130   2.668  -0.148  0.0996 -0.6355  0.1529
   75SLPC   C22 6693   3.055   2.863  -0.264  0.2858 -0.1842 -0.1276
   75SLPC   H2R 6694   2.957   2.913  -0.283  1.4068  1.2068 -2.7974
   75SLPC   H2S 6695   3.131   2.928  -0.216 -0.1016  0.4209 -0.3213
   75SLPC    C3 6696   2.777   2.619   0.042  0.3245 -0.1154 -0.4459
   75SLPC    HX 6697   2.733   2.710   0.088  1.2948 -0.8530  2.0686
   75SLPC    HY 6698   2.774   2.533   0.112  1.2263  0.1821 -0.0349
   75SLPC   O31 6699   2.690   2.583  -0.073 -0.1605  0.3178  0.2889
   75SLPC   C31 6700   2.582   2.522  -0.049  0.6135 -0.4631  0.2326
   75SLPC   O32 6701   2.531   2.497   0.050 -0.1347  0.0533 -0.9031
   75SLPC   C32 6702   2.523   2.487  -0.186  0.3265  0.0923  0.0531
   75SLPC   H2X 6703   2.609   2.451  -0.246 -0.8244  0.0176 -1.6424
   75SLPC   H2Y 6704   2.497   2.581  -0.239 -1.6796  0.9688  2.3794
   75SLPC   C23 6705   3.089   2.816  -0.410  0.4775  0.1084 -0.2937
   75SLPC   H3R 6706   3.009   2.750  -0.451 -1.9367  2.0228  1.0238
   75SLPC   H3S 6707   3.177   2.751  -0.397  0.6755  0.3010 -0.6371
   75SLPC   C24 6708   3.112   2.930  -0.508 -0.2118  0.2081  0.4954
   75SLPC   H4R 6709   3.203   2.985  -0.477 -1.1504  0.9529  2.0519
   75SLPC   H4S 6710   3.031   3.006  -0.507 -3.2614 -2.7983  1.0785
   75SLPC   C25 6711   3.100   2.891  -0.658  0.4615  0.5060  0.3335
   75SLPC   H5R 6712   3.095   2.981  -0.723 -2.0944 -0.1154 -0.4689
   75SLPC   H5S 6713   2.998   2.852  -0.681  0.1067  1.4078  0.3407
   75SLPC   C26 6714   3.205   2.798  -0.697 -0.2556 -0.5882  0.7428
   75SLPC   H6R 6715   3.204   2.702  -0.641 -2.6755  0.1733  2.1517
   75SLPC   H6S 6716   3.306   2.843  -0.681 -0.7637  1.1638 -0.6825
   75SLPC   C27 6717   3.205   2.779  -0.849  0.1592 -0.3982 -0.2866
   75SLPC   H7R 6718   3.290   2.710  -0.869 -0.8826 -1.2459 -2.1029
   75SLPC   H7S 6719   3.224   2.877  -0.898 -0.1022  1.1364  2.5068
   75SLPC   C28 6720   3.077   2.706  -0.920  0.0903  0.5210  0.6045
   75SLPC   H8R 6721   2.993   2.778  -0.918  1.1460  1.7940  0.0150
   75SLPC   H8S 6722   3.053   2.625  -0.847  1.7867 -1.1004 -0.5209
   75SLPC   C29 6723   3.107   2.649  -1.055 -0.5868  0.0809  0.1634
   75SLPC   H9R 6724   3.108   2.539  -1.062  1.6356  0.0879 -0.6165
   75SLPC  C210 6725   3.128   2.720  -1.167 -0.0301  0.0624 -0.0523
   75SLPC  H10R 6726   3.137   2.661  -1.260  0.8604 -0.2724  0.2322
   75SLPC  C211 6727   3.134   2.867  -1.186  0.4446 -0.4364 -0.3814
   75SLPC  H11R 6728   3.074   2.918  -1.108  1.5558  1.5947 -0.7873
   75SLPC  H11S 6729   3.074   2.894  -1.276  1.1266  2.1014 -0.1441
   75SLPC  C212 6730   3.278   2.919  -1.189  1.1175  0.5683 -0.2227
   75SLPC  H12R 6731   3.330   2.907  -1.093 -2.6558  1.1712  2.1250
   75SLPC  C213 6732   3.348   2.978  -1.286 -1.0969  0.2546  0.5610
   75SLPC  H13R 6733   3.453   3.006  -1.270  0.1340 -2.8892 -1.1147
   75SLPC  C214 6734   3.294   3.003  -1.428 -0.9782 -0.6838  0.7972
   75SLPC  H14R 6735   3.330   3.096  -1.477  0.4632 -1.9130 -0.6058
   75SLPC  H14S 6736   3.186   3.024  -1.416 -1.4342 -2.5677  0.3143
   75SLPC  C215 6737   3.314   2.894  -1.538  0.0757  0.5541  0.5277
   75SLPC  H15R 6738   3.281   2.794  -1.502 -4.3544  2.1035  1.4582
   75SLPC  H15S 6739   3.420   2.900  -1.568  0.0152  1.8012  0.4944
   75SLPC  C216 6740   3.226   2.932  -1.663 -0.0132 -0.0479  0.0053
   75SLPC  H16R 6741   3.275   3.015  -1.718 -0.4786  0.0192 -0.3184
   75SLPC  H16S 6742   3.122   2.956  -1.633 -0.3980  1.9756 -2.5374
   75SLPC  C217 6743   3.219   2.828  -1.780  0.5349  0.3306  0.4137
   75SLPC  H17R 6744   3.153   2.866  -1.861 -0.1830 -1.8996 -0.1062
   75SLPC  H17S 6745   3.169   2.731  -1.759 -2.2768  1.5276 -0.2854
   75SLPC  C218 6746   3.361   2.788  -1.832  0.7033 -0.6052 -0.3723
   75SLPC  H18R 6747   3.436   2.785  -1.750  0.7690  0.0304 -0.4040
   75SLPC  H18S 6748   3.395   2.874  -1.894  1.0469  0.3088  1.0214
   75SLPC  H18T 6749   3.359   2.696  -1.893  0.1492  0.0779 -1.4147
   75SLPC   C33 6750   2.399   2.399  -0.190  0.4774 -0.7725 -0.2468
   75SLPC   H3X 6751   2.315   2.450  -0.140  1.7924  0.7577  0.4907
   75SLPC   H3Y 6752   2.419   2.307  -0.132  0.3553  0.9929  2.7670
   75SLPC   C34 6753   2.361   2.357  -0.333  0.5177  0.5849 -0.9590
   75SLPC   H4X 6754   2.441   2.294  -0.379 -1.9334 -1.6855 -2.3675
   75SLPC   H4Y 6755   2.358   2.450  -0.395  0.8118  0.2205 -1.5332
   75SLPC   C35 6756   2.229   2.277  -0.334  0.3970  0.1472 -0.2124
   75SLPC   H5X 6757   2.159   2.331  -0.266 -0.0135 -0.1123 -0.4265
   75SLPC   H5Y 6758   2.248   2.178  -0.288  1.9375  0.1999 -0.6781
   75SLPC   C36 6759   2.169   2.255  -0.478 -0.3515 -0.4261  0.7847
   75SLPC   H6X 6760   2.144   2.355  -0.520  1.5259  0.0056  0.6053
   75SLPC   H6Y 6761   2.069   2.215  -0.454  0.0182 -0.6158  2.0549
   75SLPC   C37 6762   2.245   2.156  -0.560  0.4993  0.5922 -0.2061
   75SLPC   H7X 6763   2.292   2.083  -0.491  1.3038  0.4837 -0.8537
   75SLPC   H7Y 6764   2.330   2.207  -0.612  1.6664  0.6554  1.6684
   75SLPC   C38 6765   2.158   2.098  -0.671  0.0112  0.4892 -0.2583
   75SLPC   H8X 6766   2.108   2.186  -0.718  0.8403  1.3243  0.3881
   75SLPC   H8Y 6767   2.083   2.029  -0.627  0.1576  0.0957 -0.6169
   75SLPC   C39 6768   2.245   2.022  -0.773 -0.1415  0.0365 -0.4164
   75SLPC   H9X 6769   2.296   1.947  -0.710 -1.2819  1.2978  2.1433
   75SLPC   H9Y 6770   2.321   2.084  -0.825  0.0529  0.8802  0.8483
   75SLPC  C310 6771   2.158   1.958  -0.881  0.6737  0.0624 -0.1530
   75SLPC  H10X 6772   2.097   2.037  -0.930  2.3794  1.1127 -0.6660
   75SLPC  H10Y 6773   2.083   1.888  -0.840 -0.4769  1.9113  1.0443
   75SLPC  C311 6774   2.237   1.892  -0.981 -0.0622  0.1432  0.7164
   75SLPC  H11X 6775   2.298   1.814  -0.930  1.2710  1.4813  1.2428
   75SLPC  H11Y 6776   2.318   1.959  -1.017  0.3831  0.5125  2.3350
   75SLPC  C312 6777   2.167   1.831  -1.103 -0.1045 -0.5889  0.0847
   75SLPC  H12X 6778   2.087   1.896  -1.142  2.4981  0.2928 -4.4912
   75SLPC  H12Y 6779   2.105   1.743  -1.073  0.7339 -1.1652  0.1878
   75SLPC  C313 6780   2.272   1.802  -1.213  0.0600  0.1791  0.4014
   75SLPC  H13X 6781   2.340   1.720  -1.182 -1.1746  0.0613  3.0431
   75SLPC  H13Y 6782   2.339   1.890  -1.211 -0.6499  0.7870 -0.9800
   75SLPC  C314 6783   2.211   1.788  -1.351  0.0456  0.4825  0.1550
   75SLPC  H14X 6784   2.149   1.697  -1.360 -1.3246  1.3412  0.6421
   75SLPC  H14Y 6785   2.296   1.758  -1.417 -0.8870 -1.3726 -0.2810
   75SLPC  C315 6786   2.135   1.915  -1.409  0.2027  0.5789  0.5674
   75SLPC  H15X 6787   2.183   1.999  -1.355  1.1868  0.8164 -0.6548
   75SLPC  H15Y 6788   2.027   1.905  -1.383 -0.3931  0.6780 -1.6886
   75SLPC  C316 6789   2.146   1.944  -1.557 -0.1342 -0.3164  0.0811
   75SLPC  H16X 6790   2.251   1.978  -1.570 -0.4624  0.9003  0.5136
   75SLPC  H16Y 6791   2.101   2.044  -1.572  0.7977  0.3363  1.4694
   75SLPC  C317 6792   2.101   1.849  -1.663  0.1524 -0.0539  0.0353
   75SLPC  H17X 6793   1.995   1.826  -1.637 -0.8849  1.0532 -2.8100
   75SLPC  H17Y 6794   2.174   1.765  -1.667  0.9917  0.5733  1.6714
   75SLPC  C318 6795   2.097   1.924  -1.790 -0.3794 -0.3913 -0.0635
   75SLPC  H18X 6796   2.193   1.976  -1.810 -0.6159 -0.2756 -0.9444
   75SLPC  H18Y 6797   2.028   2.009  -1.776 -0.4806 -0.8220  2.4734
   75SLPC  H18Z 6798   2.069   1.846  -1.865 -0.2832  0.1155 -0.6305
   76SLPC     N 6799   5.809   4.709   0.876 -0.1190  0.4672  0.0908
   76SLPC   C13 6800   5.722   4.722   0.997  0.2254 -0.7404 -0.0582
   76SLPC  H13A 6801   5.768   4.764   1.086 -1.3942 -0.1762  0.5573
   76SLPC  H13B 6802   5.632   4.776   0.974 -1.2887 -2.8086  0.6466
   76SLPC  H13C 6803   5.688   4.626   1.034 -0.4163 -0.0427  1.2501
   76SLPC   C14 6804   5.839   4.847   0.819 -0.6968  0.0740  0.4121
   76SLPC  H14A 6805   5.750   4.908   0.813 -0.6620 -0.0061 -2.3036
   76SLPC  H14B 6806   5.918   4.895   0.875  1.6235 -1.2203 -1.5304
   76SLPC  H14C 6807   5.875   4.839   0.717 -2.0976  0.4780 -0.1451
   76SLPC   C15 6808   5.744   4.636   0.762 -0.1574 -0.1420 -0.1653
   76SLPC  H15A 6809   5.695   4.541   0.781  1.1195 -0.7114  0.3662
   76SLPC  H15B 6810   5.679   4.705   0.711 -0.2343  1.2215  1.6943
   76SLPC  H15C 6811   5.823   4.611   0.693 -0.0352  0.4051 -0.2288
   76SLPC   C12 6812   5.938   4.636   0.913  0.1078 -0.9079  0.7039
   76SLPC  H12A 6813   5.902   4.547   0.962 -0.6618 -0.8133  0.3195
   76SLPC  H12B 6814   5.994   4.685   0.992 -1.2171 -0.8532  1.6238
   76SLPC   C11 6815   6.049   4.603   0.808  0.2550  0.0774 -0.3032
   76SLPC  H11A 6816   6.130   4.554   0.867 -0.4860  0.8951  1.4783
   76SLPC  H11B 6817   6.085   4.699   0.767  1.4250 -0.2155  0.0161
   76SLPC     P 6818   5.978   4.356   0.747  0.2605  0.0885 -0.0088
   76SLPC   O13 6819   6.012   4.315   0.887 -0.3685 -0.1734  0.8629
   76SLPC   O14 6820   5.846   4.312   0.700  0.1083  0.0162 -0.4144
   76SLPC   O12 6821   5.999   4.513   0.705  0.4373  0.1858  0.3743
   76SLPC   O11 6822   6.079   4.283   0.651 -0.4811 -0.0491 -0.4484
   76SLPC    C1 6823   6.212   4.332   0.622 -0.0456 -0.0447 -0.0967
   76SLPC    HA 6824   6.231   4.418   0.690 -1.4440  0.0986  0.1504
   76SLPC    HB 6825   6.291   4.259   0.651 -0.6367 -0.6534  0.0308
   76SLPC    C2 6826   6.233   4.364   0.472  0.1971  0.4497  0.8430
   76SLPC    HS 6827   6.333   4.406   0.450  1.0105 -1.1340  1.3461
   76SLPC   O21 6828   6.124   4.435   0.435 -0.5579 -0.0688 -0.2114
   76SLPC   C21 6829   6.139   4.569   0.458  0.1690  0.1390 -0.6283
   76SLPC   O22 6830   6.239   4.626   0.493 -0.0156 -0.3857  0.6522
   76SLPC   C22 6831   6.004   4.637   0.426  0.2958 -0.6401  0.2858
   76SLPC   H2R 6832   5.934   4.614   0.509 -0.8865  2.0141  0.1221
   76SLPC   H2S 6833   6.012   4.747   0.444 -1.2940 -0.4698  0.0991
   76SLPC    C3 6834   6.237   4.233   0.386  0.4328 -0.7376  0.0060
   76SLPC    HX 6835   6.143   4.173   0.382 -0.5924  0.7354  0.6616
   76SLPC    HY 6836   6.315   4.166   0.428 -2.8927 -3.1366  3.0422
   76SLPC   O31 6837   6.263   4.268   0.250  0.4539 -0.1414  0.5527
   76SLPC   C31 6838   6.276   4.166   0.162 -0.2632 -0.4488  1.2822
   76SLPC   O32 6839   6.303   4.053   0.196 -0.1482 -0.7016  0.5170
   76SLPC   C32 6840   6.242   4.206   0.019 -0.2899 -0.1379  0.2058
   76SLPC   H2X 6841   6.315   4.281  -0.018  1.8307 -1.9443  0.4855
   76SLPC   H2Y 6842   6.143   4.253   0.034 -0.2383  0.5148 -1.3688
   76SLPC   C23 6843   5.948   4.602   0.284  0.1624  0.1054 -0.8643
   76SLPC   H3R 6844   5.862   4.668   0.260  0.5275  0.7522 -0.4073
   76SLPC   H3S 6845   5.922   4.494   0.274  0.3560 -0.0493  0.2145
   76SLPC   C24 6846   6.060   4.628   0.181  0.1373 -0.2900  0.2684
   76SLPC   H4R 6847   6.136   4.548   0.182 -0.4916 -0.9361 -1.1831
   76SLPC   H4S 6848   6.119   4.715   0.218  1.6997 -1.5163  0.7548
   76SLPC   C25 6849   5.993   4.654   0.046 -0.1468 -0.4738 -0.3821
   76SLPC   H5R 6850   5.945   4.753   0.067 -1.8849 -1.2717 -0.4610
   76SLPC   H5S 6851   5.908   4.583   0.040  0.5198 -1.2907 -0.3172
   76SLPC   C26 6852   6.080   4.636  -0.080  0.1103 -0.1578 -0.1170
   76SLPC   H6R 6853   6.094   4.531  -0.111  1.3527  0.4332 -1.7274
   76SLPC   H6S 6854   6.181   4.681  -0.065 -0.3029  0.7107  0.1303
   76SLPC   C27 6855   6.014   4.708  -0.201 -0.8019 -0.2334  0.1001
   76SLPC   H7R 6856   6.085   4.733  -0.282 -2.0120  0.4615 -0.7839
   76SLPC   H7S 6857   5.970   4.804  -0.166 -1.2056  0.0327 -1.1069
   76SLPC   C28 6858   5.894   4.630  -0.263 -0.3169 -0.2534  0.2908
   76SLPC   H8R 6859   5.818   4.623  -0.182  0.0103 -0.9138  0.5528
   76SLPC   H8S 6860   5.929   4.527  -0.284  2.2501  0.5531  0.1818
   76SLPC   C29 6861   5.835   4.681  -0.387 -0.0777 -0.1710  0.1617
   76SLPC   H9R 6862   5.755   4.756  -0.377 -0.3192  0.2335 -3.4848
   76SLPC  C210 6863   5.868   4.660  -0.514  0.2286 -0.7706 -0.2250
   76SLPC  H10R 6864   5.808   4.712  -0.590  0.0792  0.2437  0.5490
   76SLPC  C211 6865   5.978   4.571  -0.564 -0.8114  0.1666  0.4619
   76SLPC  H11R 6866   6.025   4.509  -0.485 -1.3709  1.3420  1.7472
   76SLPC  H11S 6867   6.060   4.640  -0.590  0.9071 -1.1787  2.0834
   76SLPC  C212 6868   5.930   4.495  -0.686 -0.6495  0.1615  0.1314
   76SLPC  H12R 6869   5.920   4.390  -0.656  3.0845  0.0652  1.5440
   76SLPC  C213 6870   5.923   4.536  -0.815 -0.4366  0.7906  0.0575
   76SLPC  H13R 6871   5.904   4.468  -0.898  0.5868  0.7999 -0.1992
   76SLPC  C214 6872   5.958   4.679  -0.860 -0.1177  0.3111 -0.0244
   76SLPC  H14R 6873   6.039   4.676  -0.936 -1.2384  0.0544 -1.2365
   76SLPC  H14S 6874   5.994   4.743  -0.777  0.3567 -0.5044  0.4137
   76SLPC  C215 6875   5.843   4.754  -0.933 -0.2841 -1.3390  0.5748
   76SLPC  H15R 6876   5.882   4.858  -0.937  0.5801 -1.6347  0.9962
   76SLPC  H15S 6877   5.748   4.766  -0.878 -1.3167 -0.4303 -1.3237
   76SLPC  C216 6878   5.819   4.708  -1.080 -0.0614 -0.4965 -0.5758
   76SLPC  H16R 6879   5.774   4.606  -1.071  0.9492 -0.9471 -0.5293
   76SLPC  H16S 6880   5.921   4.689  -1.119  0.2248 -0.0117 -0.0778
   76SLPC  C217 6881   5.731   4.809  -1.152  0.3077 -0.2732  0.6117
   76SLPC  H17R 6882   5.777   4.908  -1.129  0.9224 -0.5960  0.7929
   76SLPC  H17S 6883   5.623   4.802  -1.127 -0.2320 -0.7891 -1.6334
   76SLPC  C218 6884   5.738   4.809  -1.308  0.0658  0.1679  0.2759
   76SLPC  H18R 6885   5.694   4.898  -1.357  0.8040  0.7900  0.7206
   76SLPC  H18S 6886   5.689   4.720  -1.352  0.6485  0.3964 -0.8786
   76SLPC  H18T 6887   5.844   4.808  -1.342  0.4155  3.7914  0.8588
   76SLPC   C33 6888   6.246   4.081  -0.063  0.4779 -0.8409  0.6329
   76SLPC   H3X 6889   6.176   4.005  -0.023 -1.4433  0.2674 -0.4756
   76SLPC   H3Y 6890   6.347   4.035  -0.068  0.0784 -1.6477 -0.1604
   76SLPC   C34 6891   6.196   4.098  -0.211  0.3503 -0.0487 -0.0702
   76SLPC   H4X 6892   6.223   4.202  -0.237 -1.4311  0.9461  1.7954
   76SLPC   H4Y 6893   6.085   4.097  -0.202  0.4569  1.1145  2.1189
   76SLPC   C35 6894   6.244   3.998  -0.322  0.5258 -0.4164 -0.0161
   76SLPC   H5X 6895   6.203   3.897  -0.303 -1.3621  0.2754 -0.2077
   76SLPC   H5Y 6896   6.352   3.973  -0.319  0.3809 -1.0853 -0.2273
   76SLPC   C36 6897   6.204   4.039  -0.468 -0.2862  0.3326  0.0759
   76SLPC   H6X 6898   6.257   4.136  -0.481 -1.2090  0.7095 -1.0254
   76SLPC   H6Y 6899   6.093   4.051  -0.468 -0.6146 -2.0136  2.0948
   76SLPC   C37 6900   6.249   3.938  -0.574  0.8947  0.3792  0.1817
   76SLPC   H7X 6901   6.211   3.837  -0.549 -0.8180  0.5930 -1.3145
   76SLPC   H7Y 6902   6.359   3.929  -0.576  0.9268 -0.3651  2.3567
   76SLPC   C38 6903   6.180   3.952  -0.716  0.1736 -0.2217 -0.0326
   76SLPC   H8X 6904   6.087   4.010  -0.699 -0.8323 -2.1960  1.5449
   76SLPC   H8Y 6905   6.146   3.852  -0.748  0.6811  0.5067 -3.1547
   76SLPC   C39 6906   6.278   4.015  -0.822  0.0771  0.1954 -1.2270
   76SLPC   H9X 6907   6.363   3.943  -0.818 -0.1649 -0.0488  1.1498
   76SLPC   H9Y 6908   6.314   4.107  -0.773 -3.2232 -0.5528  3.2537
   76SLPC  C310 6909   6.228   4.017  -0.968  0.0900  0.1220  0.6924
   76SLPC  H10X 6910   6.143   4.087  -0.984 -1.5089 -2.0136 -0.6681
   76SLPC  H10Y 6911   6.199   3.912  -0.987  1.5178  0.0595 -1.5261
   76SLPC  C311 6912   6.330   4.044  -1.081 -0.1548  0.2587 -0.2985
   76SLPC  H11X 6913   6.413   3.971  -1.079  2.1152  2.7005 -0.6083
   76SLPC  H11Y 6914   6.370   4.143  -1.051  1.3694 -0.8242  1.4090
   76SLPC  C312 6915   6.257   4.048  -1.219 -0.4044  0.0511  0.6582
   76SLPC  H12X 6916   6.183   4.131  -1.214 -1.1074 -0.4777 -0.6546
   76SLPC  H12Y 6917   6.208   3.952  -1.245  0.8846 -0.0222 -1.7595
   76SLPC  C313 6918   6.364   4.100  -1.325  0.8398 -0.4478 -0.3188
   76SLPC  H13X 6919   6.446   4.024  -1.324  0.2329 -1.1793  2.2830
   76SLPC  H13Y 6920   6.405   4.197  -1.291  0.2716 -0.0380 -0.8058
   76SLPC  C314 6921   6.302   4.118  -1.465 -0.1103 -0.1833 -0.2810
   76SLPC  H14X 6922   6.223   4.195  -1.465  0.0788  0.0580  1.5215
   76SLPC  H14Y 6923   6.242   4.027  -1.483 -0.4684 -0.0851  0.4003
   76SLPC  C315 6924   6.402   4.133  -1.582 -0.1640 -0.2856  0.2014
   76SLPC  H15X 6925   6.468   4.044  -1.581  0.8641  0.4643 -0.1887
   76SLPC  H15Y 6926   6.465   4.218  -1.548  1.2681  0.3052 -3.4925
   76SLPC  C316 6927   6.345   4.162  -1.724 -0.5357 -0.3437 -0.2318
   76SLPC  H16X 6928   6.271   4.245  -1.721 -0.2858 -0.0221 -1.8069
   76SLPC  H16Y 6929   6.273   4.079  -1.739 -1.4116 -0.2764  2.9173
   76SLPC  C317 6930   6.437   4.174  -1.839  0.1634 -0.8131 -0.4013
   76SLPC  H17X 6931   6.467   4.281  -1.849  0.2476 -0.1973  4.2030
   76SLPC  H17Y 6932   6.397   4.158  -1.942 -1.6461 -0.2285  0.1694
   76SLPC  C318 6933   6.559   4.084  -1.835 -0.4291 -0.1905  0.1405
   76SLPC  H18X 6934   6.540   3.976  -1.852 -0.5491 -0.0748 -0.4903
   76SLPC  H18Y 6935   6.601   4.086  -1.733 -0.4925 -1.7924  0.2207
   76SLPC  H18Z 6936   6.626   4.121  -1.915 -0.3785  1.4415  0.8898
   77SLPC     N 6937   3.939   3.011   8.847  0.1214 -0.1874  0.4439
   77SLPC   C13 6938   3.796   2.994   8.800 -0.7443  0.0625 -0.4984
   77SLPC  H13A 6939   3.781   3.003   8.693 -0.0275  1.8655 -0.4859
   77SLPC  H13B 6940   3.758   2.896   8.824  1.0288 -0.3890  0.6365
   77SLPC  H13C 6941   3.720   3.058   8.842 -0.9968 -1.4526  1.4941
   77SLPC   C14 6942   3.945   2.968   8.988  0.7800 -0.0191 -0.4131
   77SLPC  H14A 6943   4.045   2.991   9.022  1.4820 -0.0231 -2.3269
   77SLPC  H14B 6944   3.874   3.018   9.051  1.0981 -0.5841  0.4084
   77SLPC  H14C 6945   3.934   2.861   8.999 -1.5011  0.2217  0.1528
   77SLPC   C15 6946   3.980   3.155   8.827 -0.5461 -0.7041 -0.0089
   77SLPC  H15A 6947   3.930   3.212   8.904  0.3575 -0.5746  0.4969
   77SLPC  H15B 6948   4.086   3.171   8.842 -0.2591 -2.4736  0.0372
   77SLPC  H15C 6949   3.949   3.196   8.732  1.1260  0.2243 -0.1975
   77SLPC   C12 6950   4.028   2.930   8.754  0.1189 -0.2951 -0.5901
   77SLPC  H12A 6951   4.003   2.963   8.654 -0.5104  0.1535 -0.2921
   77SLPC  H12B 6952   4.000   2.826   8.761 -2.3790  0.1550 -2.4104
   77SLPC   C11 6953   4.178   2.941   8.773 -0.7885 -0.3006  0.1265
   77SLPC  H11A 6954   4.221   3.040   8.751  2.7389 -1.7930 -0.3857
   77SLPC  H11B 6955   4.220   2.882   8.689 -0.9685  1.3016 -1.1183
   77SLPC     P 6956   4.303   2.969   9.004  0.0276 -0.0135  0.1871
   77SLPC   O13 6957   4.217   3.074   9.070 -0.4601 -0.8561  0.0970
   77SLPC   O14 6958   4.387   2.882   9.082 -0.3305  0.6696  0.2460
   77SLPC   O12 6959   4.211   2.891   8.904  0.6682 -0.5262 -0.2394
   77SLPC   O11 6960   4.404   3.040   8.905  0.1707  0.4751  0.2508
   77SLPC    C1 6961   4.484   3.143   8.942 -0.1223 -0.2880 -0.3188
   77SLPC    HA 6962   4.506   3.135   9.051 -0.5944  0.5652 -0.1584
   77SLPC    HB 6963   4.585   3.132   8.897  0.7828  1.6150  1.1178
   77SLPC    C2 6964   4.439   3.283   8.899  0.1712  0.0202  0.0079
   77SLPC    HS 6965   4.333   3.291   8.934 -0.1894 -0.6009 -0.8932
   77SLPC   O21 6966   4.444   3.283   8.760  0.3249  0.2807  0.2397
   77SLPC   C21 6967   4.356   3.370   8.705  0.7216 -0.2367 -0.2830
   77SLPC   O22 6968   4.290   3.455   8.764 -0.2101 -0.0681 -0.3284
   77SLPC   C22 6969   4.345   3.331   8.554 -0.0592 -0.0546 -0.2683
   77SLPC   H2R 6970   4.442   3.361   8.509 -0.9072  2.2773 -0.6912
   77SLPC   H2S 6971   4.333   3.221   8.548  1.3472 -0.2564  0.2167
   77SLPC    C3 6972   4.534   3.386   8.969  0.4916  0.0291  0.3919
   77SLPC    HX 6973   4.514   3.358   9.075 -3.3988  0.9942  0.0893
   77SLPC    HY 6974   4.502   3.492   8.964  1.3671  0.3316  0.9645
   77SLPC   O31 6975   4.670   3.358   8.922 -0.5019  0.2211 -0.0662
   77SLPC   C31 6976   4.708   3.427   8.812  0.4441 -0.8224  0.2096
   77SLPC   O32 6977   4.629   3.495   8.746 -0.0867  0.2501  0.0156
   77SLPC   C32 6978   4.855   3.413   8.797  1.1458 -0.8575  0.2647
   77SLPC   H2X 6979   4.893   3.333   8.865  0.4683 -1.2713  0.1682
   77SLPC   H2Y 6980   4.891   3.514   8.825 -0.0215 -0.1754 -0.6396
   77SLPC   C23 6981   4.217   3.394   8.482 -0.2706  0.2875 -0.3229
   77SLPC   H3R 6982   4.218   3.502   8.456 -0.0779  0.2134 -0.6360
   77SLPC   H3S 6983   4.141   3.361   8.556  0.8196 -0.3651  0.5255
   77SLPC   C24 6984   4.199   3.320   8.352 -0.5672  0.0687  0.4921
   77SLPC   H4R 6985   4.205   3.209   8.350 -2.1247 -0.0456 -1.4122
   77SLPC   H4S 6986   4.266   3.356   8.271 -0.9354 -0.0725  0.1195
   77SLPC   C25 6987   4.051   3.341   8.312  0.0929  0.3862 -0.1221
   77SLPC   H5R 6988   4.017   3.445   8.329 -0.3512  0.0881  0.9607
   77SLPC   H5S 6989   3.988   3.272   8.373  1.8151 -2.0859 -0.9683
   77SLPC   C26 6990   4.021   3.323   8.156  0.2570  0.6187 -0.0916
   77SLPC   H6R 6991   4.074   3.410   8.111  0.5333  1.4236  1.6883
   77SLPC   H6S 6992   3.911   3.334   8.156  0.0974 -0.8974 -0.0564
   77SLPC   C27 6993   4.067   3.185   8.099 -0.5030 -0.2472 -0.2290
   77SLPC   H7R 6994   4.001   3.107   8.142 -2.2892  0.1105 -2.1110
   77SLPC   H7S 6995   4.172   3.169   8.131  0.2769  1.3942 -1.7416
   77SLPC   C28 6996   4.070   3.177   7.943  0.2646 -0.5382  0.2907
   77SLPC   H8R 6997   4.058   3.070   7.918 -0.5400 -0.8018  1.7289
   77SLPC   H8S 6998   4.168   3.209   7.902 -0.5701  0.3176 -1.1358
   77SLPC   C29 6999   3.961   3.255   7.880 -0.2415 -0.6052  0.2243
   77SLPC   H9R 7000   3.866   3.256   7.936 -0.3436 -0.1218  0.0502
   77SLPC  C210 7001   3.971   3.342   7.777  0.2203  0.6412 -0.1290
   77SLPC  H10R 7002   3.883   3.399   7.744  0.5312  0.2325 -1.7764
   77SLPC  C211 7003   4.089   3.352   7.691  0.0551 -0.3209 -0.1874
   77SLPC  H11R 7004   4.179   3.314   7.744  0.4905  1.9784  0.8375
   77SLPC  H11S 7005   4.100   3.460   7.669  0.3419 -0.1672  0.6618
   77SLPC  C212 7006   4.057   3.288   7.559 -0.0443 -0.4053 -0.3713
   77SLPC  H12R 7007   4.000   3.358   7.496  1.8487  1.0521 -0.5526
   77SLPC  C213 7008   4.098   3.168   7.511  0.0503  0.5619  0.3434
   77SLPC  H13R 7009   4.079   3.131   7.409  1.7166 -2.7726  1.1167
   77SLPC  C214 7010   4.188   3.080   7.597  0.1162 -0.0612  0.1777
   77SLPC  H14R 7011   4.155   3.078   7.703  1.9445  1.4469  0.8297
   77SLPC  H14S 7012   4.296   3.104   7.586 -0.0618  1.0867  0.7318
   77SLPC  C215 7013   4.162   2.930   7.567 -0.7994 -0.4247  0.6358
   77SLPC  H15R 7014   4.139   2.915   7.459  1.1301 -0.5035  0.1956
   77SLPC  H15S 7015   4.070   2.896   7.619 -0.5971 -1.0799  0.5827
   77SLPC  C216 7016   4.261   2.828   7.624  0.1399  0.0628  0.3054
   77SLPC  H16R 7017   4.355   2.853   7.570  1.0701 -2.9677  0.3649
   77SLPC  H16S 7018   4.251   2.719   7.603  2.9193 -0.1703 -0.1402
   77SLPC  C217 7019   4.279   2.849   7.775 -0.3400  0.1849 -0.1899
   77SLPC  H17R 7020   4.178   2.861   7.820 -0.7382  0.2163 -1.0710
   77SLPC  H17S 7021   4.331   2.945   7.794  0.8211 -0.2166 -1.1517
   77SLPC  C218 7022   4.364   2.744   7.845 -0.0677  0.5051 -0.5609
   77SLPC  H18R 7023   4.305   2.652   7.861  3.4693 -1.8299  0.2417
   77SLPC  H18S 7024   4.410   2.762   7.945  0.6459  2.9116 -1.2504
   77SLPC  H18T 7025   4.447   2.715   7.777 -1.0447  2.9634 -2.9630
   77SLPC   C33 7026   4.894   3.365   8.654 -0.2678  0.6014  0.1203
   77SLPC   H3X 7027   4.838   3.273   8.625 -0.3445  1.1280 -1.4440
   77SLPC   H3Y 7028   5.002   3.343   8.642  0.1798  0.4200  3.4120
   77SLPC   C34 7029   4.869   3.473   8.549 -0.8707  0.4909  0.1557
   77SLPC   H4X 7030   4.928   3.561   8.583 -0.4399  0.6234 -0.9130
   77SLPC   H4Y 7031   4.765   3.513   8.541 -0.3924  1.5397 -1.3286
   77SLPC   C35 7032   4.919   3.424   8.416 -0.0868  0.1259  0.1143
   77SLPC   H5X 7033   4.845   3.354   8.370  0.0352 -0.2365  0.4718
   77SLPC   H5Y 7034   5.008   3.363   8.441 -0.1353 -0.8869 -1.9692
   77SLPC   C36 7035   4.945   3.545   8.321  0.2798 -0.4181 -0.2538
   77SLPC   H6X 7036   5.035   3.606   8.346 -0.1214  0.0389  0.1090
   77SLPC   H6Y 7037   4.850   3.602   8.332  0.5474 -0.2677  1.6711
   77SLPC   C37 7038   4.953   3.512   8.174  0.8008 -0.3214 -0.1769
   77SLPC   H7X 7039   4.867   3.448   8.145  1.2613  0.2861 -3.1359
   77SLPC   H7Y 7040   5.049   3.458   8.154 -0.5750 -2.4076 -1.5874
   77SLPC   C38 7041   4.949   3.630   8.085 -0.0997 -0.1456 -0.3310
   77SLPC   H8X 7042   5.024   3.707   8.113 -1.1752  0.5027  0.9481
   77SLPC   H8Y 7043   4.844   3.662   8.106 -0.2510 -1.9670  2.1676
   77SLPC   C39 7044   4.956   3.613   7.932 -0.3203  0.3454  0.0873
   77SLPC   H9X 7045   4.893   3.522   7.916  2.4707 -1.8166  0.6418
   77SLPC   H9Y 7046   5.063   3.591   7.914 -0.1426 -0.5667  2.0392
   77SLPC  C310 7047   4.894   3.738   7.869  0.3710 -0.9212 -0.2792
   77SLPC  H10X 7048   4.905   3.813   7.951 -0.5241 -2.8297  1.6763
   77SLPC  H10Y 7049   4.786   3.712   7.876  0.3314 -0.3925  3.9678
   77SLPC  C311 7050   4.953   3.775   7.738 -0.3335  0.2555  1.0184
   77SLPC  H11X 7051   4.954   3.685   7.674 -2.0476 -0.1077  1.4408
   77SLPC  H11Y 7052   5.052   3.822   7.757  1.4456 -2.4056 -1.0870
   77SLPC  C312 7053   4.864   3.875   7.657 -0.0598  0.1430 -0.7061
   77SLPC  H12X 7054   4.855   3.965   7.721 -3.2755 -0.6405  0.1534
   77SLPC  H12Y 7055   4.762   3.833   7.639 -0.0737  0.4661 -1.3976
   77SLPC  C313 7056   4.937   3.921   7.531 -0.0354 -0.5410  0.3781
   77SLPC  H13X 7057   4.945   3.836   7.460  1.1434  0.1990 -0.4124
   77SLPC  H13Y 7058   5.043   3.948   7.547 -0.0970  0.6221 -0.9473
   77SLPC  C314 7059   4.877   4.039   7.450  0.1636  0.4407  0.3273
   77SLPC  H14X 7060   4.905   4.132   7.504 -0.9502  0.6351  0.6102
   77SLPC  H14Y 7061   4.766   4.039   7.446  0.1835 -0.0570 -0.4450
   77SLPC  C315 7062   4.933   4.044   7.309 -0.0197 -0.5720 -0.2885
   77SLPC  H15X 7063   4.884   3.965   7.248 -1.3732 -0.4941  0.6619
   77SLPC  H15Y 7064   5.042   4.027   7.300  0.5305  2.7693 -0.9442
   77SLPC  C316 7065   4.908   4.180   7.238 -0.6419 -0.2804  0.5226
   77SLPC  H16X 7066   4.900   4.266   7.308 -1.2856  0.2331 -0.1703
   77SLPC  H16Y 7067   4.807   4.168   7.194 -0.5033 -0.7068  0.3135
   77SLPC  C317 7068   5.016   4.205   7.128  0.1896 -0.0438  0.6907
   77SLPC  H17X 7069   5.014   4.117   7.060  0.3152  1.6209 -1.5854
   77SLPC  H17Y 7070   5.111   4.208   7.185 -0.4058  2.1867  1.6797
   77SLPC  C318 7071   4.986   4.331   7.049  0.5412  0.0188  0.4075
   77SLPC  H18X 7072   5.012   4.421   7.109 -2.0594  1.1974 -0.0729
   77SLPC  H18Y 7073   4.878   4.359   7.051  0.6255  0.7970 -1.8823
   77SLPC  H18Z 7074   5.043   4.335   6.954  1.2096  2.4326  0.8309
   78SLPC     N 7075   0.103   0.141   0.333  0.4623 -0.1015  0.0062
   78SLPC   C13 7076  -0.042   0.160   0.363  0.2922 -0.5137 -0.8350
   78SLPC  H13A 7077  -0.107   0.090   0.313 -2.0021 -0.4268  1.8012
   78SLPC  H13B 7078  -0.063   0.175   0.468  2.1086  0.9690 -0.6281
   78SLPC  H13C 7079  -0.068   0.261   0.333  1.6170  1.3659  3.4379
   78SLPC   C14 7080   0.139   0.014   0.400 -0.0425 -0.2980  0.3816
   78SLPC  H14A 7081   0.074  -0.068   0.372  0.6286 -1.1912  1.3642
   78SLPC  H14B 7082   0.241  -0.012   0.375 -0.6512  0.0243 -2.8493
   78SLPC  H14C 7083   0.134   0.015   0.508 -0.6016  0.9596  0.3607
   78SLPC   C15 7084   0.182   0.248   0.393  0.1403 -0.8618 -0.3779
   78SLPC  H15A 7085   0.156   0.248   0.498 -2.5852  0.8969 -0.9379
   78SLPC  H15B 7086   0.287   0.230   0.378  0.0294 -0.1671 -2.1967
   78SLPC  H15C 7087   0.151   0.339   0.344 -1.4513 -2.2417 -2.0907
   78SLPC   C12 7088   0.131   0.136   0.181 -0.1907 -0.4253 -0.1756
   78SLPC  H12A 7089   0.102   0.036   0.153  0.5984 -0.5222 -0.6697
   78SLPC  H12B 7090   0.237   0.138   0.162 -0.0653 -0.2094  0.5185
   78SLPC   C11 7091   0.068   0.243   0.090 -0.4081 -0.3187 -0.5929
   78SLPC  H11A 7092  -0.042   0.243   0.106 -0.3241  0.3251  0.0025
   78SLPC  H11B 7093   0.092   0.205  -0.012  3.7133  0.8038 -0.2296
   78SLPC     P 7094   0.201   0.461   0.023  0.1940 -0.2346  0.2044
   78SLPC   O13 7095   0.160   0.604   0.040 -0.4892 -0.4907 -0.8405
   78SLPC   O14 7096   0.346   0.439   0.034 -0.7094 -0.3032  0.3642
   78SLPC   O12 7097   0.112   0.374   0.120 -0.7866  0.2001  0.0106
   78SLPC   O11 7098   0.156   0.423  -0.125 -0.4267  0.3007  0.0576
   78SLPC    C1 7099   0.250   0.429  -0.230 -0.1799  0.3627 -0.3488
   78SLPC    HA 7100   0.331   0.503  -0.213  0.7575 -1.1602  2.4643
   78SLPC    HB 7101   0.303   0.334  -0.250  0.1861  0.4342  0.2473
   78SLPC    C2 7102   0.174   0.472  -0.365  0.2548 -0.2952  0.2310
   78SLPC    HS 7103   0.252   0.476  -0.443 -1.8100 -0.4694 -1.9603
   78SLPC   O21 7104   0.100   0.594  -0.349 -0.0536 -0.2823  0.0394
   78SLPC   C21 7105   0.125   0.687  -0.437 -0.1087  0.4623  0.4660
   78SLPC   O22 7106   0.204   0.670  -0.530 -0.1829  0.2170 -0.4352
   78SLPC   C22 7107   0.039   0.801  -0.427  0.5305  0.3377 -0.4535
   78SLPC   H2R 7108  -0.065   0.768  -0.447 -0.1497  1.3482  1.1628
   78SLPC   H2S 7109   0.047   0.832  -0.320 -0.9158 -1.3836  0.2029
   78SLPC    C3 7110   0.089   0.350  -0.413  0.5907  0.4000 -0.1819
   78SLPC    HX 7111  -0.003   0.350  -0.351  1.5953 -0.2134  1.3896
   78SLPC    HY 7112   0.149   0.263  -0.378 -0.9246 -0.4569  0.3830
   78SLPC   O31 7113   0.047   0.358  -0.550 -0.0013  0.2828  0.1651
   78SLPC   C31 7114   0.112   0.274  -0.629  0.2843 -0.3403  0.5449
   78SLPC   O32 7115   0.187   0.179  -0.597 -0.1850 -0.5465 -0.3593
   78SLPC   C32 7116   0.060   0.310  -0.774  0.0759  0.0715  0.3024
   78SLPC   H2X 7117   0.080   0.417  -0.796  0.9909  0.1762  1.5199
   78SLPC   H2Y 7118  -0.051   0.310  -0.771  0.0305  2.5012  0.5111
   78SLPC   C23 7119   0.076   0.920  -0.523  0.3050  0.0214 -0.6144
   78SLPC   H3R 7120   0.181   0.950  -0.500  0.9864 -2.3714 -0.2986
   78SLPC   H3S 7121  -0.007   0.986  -0.490 -0.1964 -1.8228  2.1243
   78SLPC   C24 7122   0.080   0.891  -0.673 -0.2700 -0.4926 -1.0308
   78SLPC   H4R 7123  -0.014   0.836  -0.696  0.6172 -1.2345 -3.1422
   78SLPC   H4S 7124   0.164   0.830  -0.712  1.6162  0.6963  0.9751
   78SLPC   C25 7125   0.066   1.011  -0.763  0.8117 -0.2603 -0.3794
   78SLPC   H5R 7126  -0.041   1.040  -0.754  0.4632 -1.3462 -0.8674
   78SLPC   H5S 7127   0.077   0.966  -0.864 -0.3266 -0.7449 -0.3052
   78SLPC   C26 7128   0.169   1.126  -0.747 -0.2237  0.5587 -0.1814
   78SLPC   H6R 7129   0.167   1.167  -0.644  1.0698  1.0145 -0.3143
   78SLPC   H6S 7130   0.137   1.212  -0.810  0.0793  1.2085  0.5349
   78SLPC   C27 7131   0.321   1.091  -0.769 -0.2274 -0.1603  0.2215
   78SLPC   H7R 7132   0.318   1.028  -0.861  0.1967 -0.9943  0.7663
   78SLPC   H7S 7133   0.353   1.031  -0.681 -1.9636 -0.4169  0.7106
   78SLPC   C28 7134   0.417   1.213  -0.798 -0.3316  0.0256 -0.8491
   78SLPC   H8R 7135   0.518   1.168  -0.791  0.2789  1.0772 -2.3049
   78SLPC   H8S 7136   0.405   1.280  -0.710  0.8343  0.3796 -0.9479
   78SLPC   C29 7137   0.393   1.296  -0.925 -1.1699  0.1075  0.0776
   78SLPC   H9R 7138   0.295   1.345  -0.926 -1.5468 -0.5168  1.8819
   78SLPC  C210 7139   0.472   1.298  -1.033 -0.4812  0.3465  0.5520
   78SLPC  H10R 7140   0.454   1.369  -1.115  1.0960  1.2887  0.9787
   78SLPC  C211 7141   0.610   1.239  -1.035  0.9322 -0.1398 -0.0177
   78SLPC  H11R 7142   0.610   1.128  -1.036 -0.3148 -0.2904  3.4347
   78SLPC  H11S 7143   0.659   1.252  -0.936 -1.3052  0.2899  1.0969
   78SLPC  C212 7144   0.697   1.306  -1.140  0.7462 -0.0678  0.4997
   78SLPC  H12R 7145   0.719   1.410  -1.111 -0.9692  0.9816 -1.6527
   78SLPC  C213 7146   0.737   1.256  -1.254 -0.4527  0.6261  0.1128
   78SLPC  H13R 7147   0.796   1.318  -1.323 -0.6435 -0.1023 -0.7219
   78SLPC  C214 7148   0.706   1.117  -1.313  0.0585 -0.2070 -0.2703
   78SLPC  H14R 7149   0.609   1.126  -1.365  1.0886  2.0587 -1.9532
   78SLPC  H14S 7150   0.705   1.045  -1.228  2.0491  1.4118  1.2265
   78SLPC  C215 7151   0.803   1.072  -1.423 -0.2387  0.3878 -0.4666
   78SLPC  H15R 7152   0.780   0.965  -1.441 -0.6710 -0.0578  2.2724
   78SLPC  H15S 7153   0.908   1.086  -1.390 -0.8628  0.6580  1.5723
   78SLPC  C216 7154   0.790   1.156  -1.553  0.3882  0.3410 -0.5788
   78SLPC  H16R 7155   0.874   1.228  -1.547  2.4996 -1.8818 -1.4675
   78SLPC  H16S 7156   0.694   1.210  -1.552  1.2861  2.0066  1.1858
   78SLPC  C217 7157   0.818   1.074  -1.681 -0.1179  0.1203 -0.4022
   78SLPC  H17R 7158   0.822   1.145  -1.766  0.0406  1.1046  0.4182
   78SLPC  H17S 7159   0.729   1.010  -1.700 -0.8702  1.5985 -2.2004
   78SLPC  C218 7160   0.940   0.983  -1.685  0.5345 -0.2639  0.2271
   78SLPC  H18R 7161   1.026   1.049  -1.658  0.3974 -0.0593  0.1695
   78SLPC  H18S 7162   0.956   0.953  -1.791 -2.3694  1.4052 -0.8087
   78SLPC  H18T 7163   0.928   0.898  -1.615  1.8803 -0.8526 -0.2326
   78SLPC   C33 7164   0.122   0.223  -0.891  0.3308 -0.6824  0.5396
   78SLPC   H3X 7165   0.094   0.116  -0.876  0.3619 -0.6918  0.5293
   78SLPC   H3Y 7166   0.231   0.221  -0.873  0.4062  0.0227  0.1764
   78SLPC   C34 7167   0.090   0.260  -1.035  0.4832  0.1017 -0.2781
   78SLPC   H4X 7168   0.128   0.363  -1.048 -1.3611  1.0551  1.4285
   78SLPC   H4Y 7169  -0.018   0.259  -1.060  0.6401  0.6362 -1.0215
   78SLPC   C35 7170   0.157   0.156  -1.121  0.3711  0.0132  0.4872
   78SLPC   H5X 7171   0.100   0.064  -1.098  1.5045 -0.7463  0.3406
   78SLPC   H5Y 7172   0.260   0.129  -1.089  0.3866 -1.3249 -0.6099
   78SLPC   C36 7173   0.162   0.183  -1.274 -0.3566 -0.4995 -0.0963
   78SLPC   H6X 7174   0.204   0.281  -1.306  2.6692 -1.5046  0.4674
   78SLPC   H6Y 7175   0.056   0.174  -1.307 -1.5105  0.8231  2.9127
   78SLPC   C37 7176   0.257   0.085  -1.347 -0.3583 -0.2421  0.8779
   78SLPC   H7X 7177   0.220  -0.015  -1.315 -2.4825  1.2152  3.3412
   78SLPC   H7Y 7178   0.363   0.084  -1.313  0.4357 -0.4665 -1.4107
   78SLPC   C38 7179   0.241   0.105  -1.498  0.7190  0.1835  0.3317
   78SLPC   H8X 7180   0.243   0.215  -1.516  1.1723  0.4128  1.6642
   78SLPC   H8Y 7181   0.140   0.076  -1.533  0.3013  0.8767  0.9443
   78SLPC   C39 7182   0.341   0.039  -1.587  0.6161 -0.7472  0.3248
   78SLPC   H9X 7183   0.298  -0.062  -1.605 -2.3610  0.4570  0.0667
   78SLPC   H9Y 7184   0.440   0.028  -1.536  0.2374 -2.7163  0.7196
   78SLPC  C310 7185   0.362   0.097  -1.724 -0.0683 -0.2957 -0.4749
   78SLPC  H10X 7186   0.442   0.040  -1.777  0.3925  0.9391 -1.1453
   78SLPC  H10Y 7187   0.395   0.201  -1.703 -1.2564  0.4483 -2.0725
   78SLPC  C311 7188   0.244   0.103  -1.817 -0.1680 -0.0365  0.4834
   78SLPC  H11X 7189   0.274   0.170  -1.901 -0.2035  0.0717  0.5567
   78SLPC  H11Y 7190   0.162   0.163  -1.772  0.2021  1.7120 -1.0334
   78SLPC  C312 7191   0.187  -0.035  -1.858  0.3823  0.9828  0.0601
   78SLPC  H12X 7192   0.134  -0.070  -1.767  0.9410 -0.4862 -0.1422
   78SLPC  H12Y 7193   0.270  -0.108  -1.873 -0.0648  0.2364  1.0698
   78SLPC  C313 7194   0.092  -0.038  -1.975  0.6032 -0.1326  1.0650
   78SLPC  H13X 7195   0.142  -0.086  -2.061  0.8823  0.8892  0.6457
   78SLPC  H13Y 7196   0.066   0.059  -2.022 -0.2006 -1.6517 -1.8853
   78SLPC  C314 7197  -0.024  -0.135  -1.946 -0.5235 -0.2922 -0.2434
   78SLPC  H14X 7198  -0.066  -0.095  -1.851 -1.5524  3.0467 -1.9299
   78SLPC  H14Y 7199   0.017  -0.237  -1.927  1.0308  0.2987 -0.3049
   78SLPC  C315 7200  -0.127  -0.164  -2.062 -0.5016 -0.4323 -0.4074
   78SLPC  H15X 7201  -0.061  -0.205  -2.141 -0.0737  3.8082 -2.5131
   78SLPC  H15Y 7202  -0.170  -0.067  -2.094  0.0013 -0.5988 -1.6131
   78SLPC  C316 7203  -0.236  -0.261  -2.019 -0.3479  0.6676 -0.0991
   78SLPC  H16X 7204  -0.251  -0.258  -1.909  2.9545  0.7577  0.4313
   78SLPC  H16Y 7205  -0.183  -0.356  -2.042  2.2615  2.0114  0.0095
   78SLPC  C317 7206  -0.374  -0.241  -2.091 -0.0768  0.4435  0.0688
   78SLPC  H17X 7207  -0.364  -0.268  -2.198 -2.5837  1.8329 -0.6012
   78SLPC  H17Y 7208  -0.391  -0.132  -2.088  0.8499  0.5954  0.0563
   78SLPC  C318 7209  -0.476  -0.326  -2.021  0.3620 -0.3819  0.2591
   78SLPC  H18X 7210  -0.458  -0.434  -2.036  0.6479 -0.0090 -2.6664
   78SLPC  H18Y 7211  -0.580  -0.310  -2.058  0.5732  1.8601  0.4984
   78SLPC  H18Z 7212  -0.474  -0.304  -1.912  0.6882 -2.1279  0.6326
   79SLPC     N 7213   3.671   2.294   0.267 -0.5125 -0.2727  0.5028
   79SLPC   C13 7214   3.703   2.417   0.351 -0.6608 -0.2254  0.9246
   79SLPC  H13A 7215   3.671   2.408   0.454  0.9917  4.3422  2.0914
   79SLPC  H13B 7216   3.810   2.433   0.357 -0.1442 -1.5939 -2.3966
   79SLPC  H13C 7217   3.660   2.511   0.321  0.0985 -0.7567 -2.1278
   79SLPC   C14 7218   3.526   2.270   0.280  0.1325  0.3844 -0.8343
   79SLPC  H14A 7219   3.498   2.204   0.199 -1.9599  1.4540 -1.0648
   79SLPC  H14B 7220   3.494   2.236   0.378 -3.5792  0.2829 -1.9349
   79SLPC  H14C 7221   3.474   2.363   0.261  1.5372  0.6608 -3.8479
   79SLPC   C15 7222   3.755   2.187   0.335 -0.7157 -0.1456 -0.2635
   79SLPC  H15A 7223   3.732   2.182   0.440 -0.9551 -1.3463 -0.3610
   79SLPC  H15B 7224   3.728   2.091   0.294 -0.2348 -0.4691  0.1711
   79SLPC  H15C 7225   3.860   2.207   0.319 -0.8196  2.0206  1.2868
   79SLPC   C12 7226   3.721   2.326   0.122  0.6353  0.2398 -0.1359
   79SLPC  H12A 7227   3.820   2.370   0.129 -0.6382  3.0698  1.8445
   79SLPC  H12B 7228   3.655   2.402   0.084  0.6090 -0.3960 -1.4080
   79SLPC   C11 7229   3.733   2.211   0.015 -0.1057 -0.0719 -0.0911
   79SLPC  H11A 7230   3.813   2.149   0.061  0.1423  2.0184  2.5593
   79SLPC  H11B 7231   3.782   2.244  -0.079 -2.7080  3.0317 -0.5158
   79SLPC     P 7232   3.501   2.207  -0.097  0.0054 -0.4430  0.3458
   79SLPC   O13 7233   3.384   2.120  -0.107  0.2287  1.1463 -0.8792
   79SLPC   O14 7234   3.476   2.351  -0.058 -0.1934 -0.2119 -0.2237
   79SLPC   O12 7235   3.606   2.150   0.001 -0.0494  0.1357 -0.4018
   79SLPC   O11 7236   3.577   2.203  -0.234  0.1913  0.2209 -0.2868
   79SLPC    C1 7237   3.623   2.083  -0.290 -0.1423 -0.6658 -0.5504
   79SLPC    HA 7238   3.720   2.057  -0.243 -0.8739  0.4208  1.7356
   79SLPC    HB 7239   3.560   1.997  -0.256  1.8608 -2.1487 -0.3742
   79SLPC    C2 7240   3.626   2.086  -0.445 -0.5496  1.0342 -0.4743
   79SLPC    HS 7241   3.716   2.143  -0.476 -1.3638  3.3554  1.1335
   79SLPC   O21 7242   3.503   2.134  -0.503  0.2161 -0.3035 -0.0527
   79SLPC   C21 7243   3.517   2.256  -0.561 -0.7339 -0.3268 -0.0848
   79SLPC   O22 7244   3.620   2.318  -0.584 -0.7001 -0.0298  0.0788
   79SLPC   C22 7245   3.374   2.314  -0.580  0.7239 -0.3853  0.8339
   79SLPC   H2R 7246   3.330   2.316  -0.479 -0.5569 -1.0950  0.3032
   79SLPC   H2S 7247   3.393   2.421  -0.605 -1.6876  0.4313  2.2339
   79SLPC    C3 7248   3.645   1.949  -0.515  0.4841  1.4493  0.3074
   79SLPC    HX 7249   3.581   1.872  -0.466  1.5557  0.6642  0.5095
   79SLPC    HY 7250   3.747   1.912  -0.491  0.3189  1.2131  0.6549
   79SLPC   O31 7251   3.629   1.944  -0.659 -0.0817 -0.6373  0.2517
   79SLPC   C31 7252   3.510   1.923  -0.702 -0.3723  0.4546 -0.1200
   79SLPC   O32 7253   3.405   1.928  -0.634  0.3044  0.0509 -0.2760
   79SLPC   C32 7254   3.497   1.917  -0.856 -0.2699 -0.0837  0.7611
   79SLPC   H2X 7255   3.416   1.988  -0.881 -0.7144  0.3457  3.1660
   79SLPC   H2Y 7256   3.467   1.814  -0.885  0.6115 -0.2566  0.4289
   79SLPC   C23 7257   3.281   2.237  -0.681  0.3423  0.0428 -0.2352
   79SLPC   H3R 7258   3.237   2.144  -0.638  0.9553  0.0429  0.4229
   79SLPC   H3S 7259   3.331   2.207  -0.776  0.4718 -1.8827  0.4002
   79SLPC   C24 7260   3.158   2.324  -0.717 -0.2231  0.1283 -0.2363
   79SLPC   H4R 7261   3.084   2.258  -0.767  0.5459  0.2841 -1.6286
   79SLPC   H4S 7262   3.182   2.411  -0.783 -0.4034 -0.3785 -0.9819
   79SLPC   C25 7263   3.082   2.380  -0.592  0.2522 -0.2668 -0.2689
   79SLPC   H5R 7264   3.133   2.471  -0.553 -0.6146 -0.3301  1.0424
   79SLPC   H5S 7265   3.083   2.307  -0.508  1.1958  1.2841  1.1356
   79SLPC   C26 7266   2.941   2.426  -0.622 -0.8195  0.2518  0.1687
   79SLPC   H6R 7267   2.893   2.357  -0.694  1.5392 -0.8262 -0.4525
   79SLPC   H6S 7268   2.949   2.520  -0.681  1.6342  0.1664  0.2726
   79SLPC   C27 7269   2.858   2.459  -0.488  0.2125  1.0633  0.4571
   79SLPC   H7R 7270   2.913   2.539  -0.433 -0.6260 -0.5276  3.9222
   79SLPC   H7S 7271   2.858   2.367  -0.426 -0.8864  0.3238 -0.5912
   79SLPC   C28 7272   2.716   2.521  -0.520  0.2915  0.3682  0.4456
   79SLPC   H8R 7273   2.744   2.607  -0.585  1.0210 -1.3083 -1.5908
   79SLPC   H8S 7274   2.669   2.559  -0.427  1.2530  0.6721  0.8221
   79SLPC   C29 7275   2.623   2.428  -0.597 -0.8693  0.0264  0.0073
   79SLPC   H9R 7276   2.560   2.366  -0.530 -0.9292 -1.2800 -1.2188
   79SLPC  C210 7277   2.601   2.420  -0.733  0.0397 -0.2540  0.0972
   79SLPC  H10R 7278   2.516   2.358  -0.767 -0.9367 -0.5315  2.8074
   79SLPC  C211 7279   2.661   2.510  -0.841  0.6036 -0.2163  0.4504
   79SLPC  H11R 7280   2.713   2.601  -0.806 -1.1435  0.6984  0.7579
   79SLPC  H11S 7281   2.565   2.546  -0.885  0.1660 -1.9760 -0.1406
   79SLPC  C212 7282   2.742   2.427  -0.939 -0.6793 -0.0783 -0.6930
   79SLPC  H12R 7283   2.809   2.351  -0.895  2.6949  2.5569 -0.8558
   79SLPC  C213 7284   2.746   2.436  -1.070 -0.5156  0.1031  0.1652
   79SLPC  H13R 7285   2.826   2.376  -1.116 -0.3368 -0.2209  0.8798
   79SLPC  C214 7286   2.671   2.529  -1.167  0.3285  0.4655 -0.2870
   79SLPC  H14R 7287   2.615   2.606  -1.111 -1.5598 -0.4802 -0.7808
   79SLPC  H14S 7288   2.598   2.462  -1.219  1.0625 -0.6432  0.0778
   79SLPC  C215 7289   2.763   2.597  -1.272  0.3129 -0.4800 -0.4980
   79SLPC  H15R 7290   2.843   2.663  -1.233 -1.2544  0.7466  0.7848
   79SLPC  H15S 7291   2.695   2.660  -1.333  0.1801 -1.4649 -1.3988
   79SLPC  C216 7292   2.821   2.503  -1.371 -0.7758  0.1801 -0.7129
   79SLPC  H16R 7293   2.738   2.431  -1.390 -0.1379 -0.8989  0.4561
   79SLPC  H16S 7294   2.901   2.439  -1.328 -1.9740  0.6098  2.3950
   79SLPC  C217 7295   2.877   2.573  -1.491  0.2389 -0.1254 -0.2962
   79SLPC  H17R 7296   2.951   2.647  -1.455  1.9080 -2.0688  0.4871
   79SLPC  H17S 7297   2.789   2.616  -1.542 -0.1821 -1.4587 -0.7530
   79SLPC  C218 7298   2.948   2.485  -1.595 -0.6829 -0.1952 -0.4202
   79SLPC  H18R 7299   2.873   2.421  -1.647  1.8798 -3.4263 -0.4859
   79SLPC  H18S 7300   3.021   2.416  -1.546  0.6926  1.5275  0.0750
   79SLPC  H18T 7301   3.000   2.550  -1.670  1.6045 -1.3410  0.0621
   79SLPC   C33 7302   3.621   1.949  -0.949  0.9463 -0.1974 -0.0746
   79SLPC   H3X 7303   3.705   1.898  -0.897 -0.1886 -1.8260  0.2568
   79SLPC   H3Y 7304   3.652   2.055  -0.947  3.1533 -0.7977  0.3060
   79SLPC   C34 7305   3.601   1.912  -1.088 -0.5742 -0.0770  0.0437
   79SLPC   H4X 7306   3.694   1.926  -1.147 -1.0910  0.5327 -0.6352
   79SLPC   H4Y 7307   3.532   1.978  -1.144 -0.6362 -0.4235 -0.2908
   79SLPC   C35 7308   3.549   1.775  -1.120  0.7209  0.1434 -0.3302
   79SLPC   H5X 7309   3.441   1.753  -1.108  0.6368  0.3691 -0.6548
   79SLPC   H5Y 7310   3.612   1.704  -1.062  0.7571 -0.2041 -0.7951
   79SLPC   C36 7311   3.583   1.730  -1.263  1.0069 -0.7318 -0.0747
   79SLPC   H6X 7312   3.564   1.621  -1.273 -0.0461 -0.5405 -0.3326
   79SLPC   H6Y 7313   3.693   1.741  -1.273  1.1038  2.5731  2.7163
   79SLPC   C37 7314   3.523   1.813  -1.378  0.2186  0.0872 -0.0887
   79SLPC   H7X 7315   3.565   1.915  -1.370  0.8114 -0.1559 -0.0256
   79SLPC   H7Y 7316   3.414   1.821  -1.357 -0.3687 -2.2498 -1.8525
   79SLPC   C38 7317   3.537   1.755  -1.518 -0.9634  0.4577  0.2987
   79SLPC   H8X 7318   3.482   1.660  -1.535  0.0912  0.1815 -2.0477
   79SLPC   H8Y 7319   3.643   1.723  -1.529 -1.2207  0.0386 -1.2814
   79SLPC   C39 7320   3.483   1.839  -1.633  0.6371 -0.1700  1.1174
   79SLPC   H9X 7321   3.377   1.865  -1.617  0.4541 -1.0362  1.3728
   79SLPC   H9Y 7322   3.489   1.775  -1.723  0.2332 -0.4775  1.3029
   79SLPC  C310 7323   3.551   1.977  -1.650 -0.5258  0.0702 -0.7266
   79SLPC  H10X 7324   3.527   2.037  -1.560 -0.9195 -1.8786  0.5201
   79SLPC  H10Y 7325   3.493   2.035  -1.725 -0.2643 -0.3676 -1.2795
   79SLPC  C311 7326   3.700   1.976  -1.688  0.7121 -0.2752  0.3829
   79SLPC  H11X 7327   3.709   1.925  -1.786  0.1137  0.0633  0.1521
   79SLPC  H11Y 7328   3.751   1.919  -1.607 -0.2225  1.0854  1.9760
   79SLPC  C312 7329   3.741   2.119  -1.700  0.5472  0.4627 -0.5507
   79SLPC  H12X 7330   3.705   2.194  -1.627  1.6860  0.0336  0.4939
   79SLPC  H12Y 7331   3.697   2.159  -1.794 -1.1878  2.1589  0.9109
   79SLPC  C313 7332   3.885   2.140  -1.726 -0.6386 -0.1636 -0.2483
   79SLPC  H13X 7333   3.915   2.230  -1.783  1.0232 -0.0040  0.7932
   79SLPC  H13Y 7334   3.923   2.057  -1.790 -1.4950  0.0261 -1.0128
   79SLPC  C314 7335   3.966   2.149  -1.593 -0.1055 -0.2034  0.2348
   79SLPC  H14X 7336   4.073   2.141  -1.624 -0.2840  1.3013 -0.9182
   79SLPC  H14Y 7337   3.947   2.061  -1.528  2.4223 -0.4470  0.7485
   79SLPC  C315 7338   3.945   2.286  -1.526 -0.2581  0.0209  0.2098
   79SLPC  H15X 7339   3.848   2.282  -1.471  0.2376  0.6619  1.1722
   79SLPC  H15Y 7340   3.931   2.366  -1.602  3.4601  2.3041  1.6153
   79SLPC  C316 7341   4.064   2.333  -1.443  0.1520 -0.4504  0.4175
   79SLPC  H16X 7342   4.156   2.330  -1.506  0.6321 -0.5889  1.1147
   79SLPC  H16Y 7343   4.078   2.261  -1.359 -1.7499 -1.3090  0.0538
   79SLPC  C317 7344   4.045   2.461  -1.369  0.7471 -0.5397 -0.1982
   79SLPC  H17X 7345   4.124   2.486  -1.294  1.6242  0.8023 -1.5031
   79SLPC  H17Y 7346   3.948   2.451  -1.317  0.6558  2.5839  0.4511
   79SLPC  C318 7347   4.025   2.585  -1.459 -0.7475 -0.5486  0.6166
   79SLPC  H18X 7348   3.958   2.567  -1.545  0.0433 -0.4373 -0.0280
   79SLPC  H18Y 7349   4.122   2.602  -1.510 -1.0759 -1.3296 -0.2928
   79SLPC  H18Z 7350   3.995   2.683  -1.416 -2.0856 -0.8564  0.4338
   80SLPC     N 7351   5.165   0.515   0.328 -0.5217 -0.0781 -0.3519
   80SLPC   C13 7352   5.155   0.405   0.430 -0.4085  0.2531  0.2878
   80SLPC  H13A 7353   5.059   0.411   0.479 -1.1450 -0.6975 -0.9870
   80SLPC  H13B 7354   5.160   0.309   0.381 -2.6910  1.7885 -3.3204
   80SLPC  H13C 7355   5.231   0.419   0.506  0.1189  2.0941 -0.5341
   80SLPC   C14 7356   5.295   0.508   0.251 -0.1812  1.0009 -0.5428
   80SLPC  H14A 7357   5.310   0.590   0.182 -0.5371 -1.3489 -3.6469
   80SLPC  H14B 7358   5.379   0.501   0.320 -1.7664  0.6329  1.4375
   80SLPC  H14C 7359   5.294   0.428   0.178 -0.5421  2.0507 -1.7199
   80SLPC   C15 7360   5.159   0.652   0.399 -0.3562 -0.3448  0.4304
   80SLPC  H15A 7361   5.159   0.734   0.329  2.4929  1.0303  1.8577
   80SLPC  H15B 7362   5.069   0.661   0.458 -0.1615  1.3348  0.5374
   80SLPC  H15C 7363   5.245   0.665   0.464 -0.4338  0.0724  0.4553
   80SLPC   C12 7364   5.051   0.510   0.228  0.0574  0.0781  0.3753
   80SLPC  H12A 7365   5.050   0.607   0.182  2.4023  0.4553  1.0198
   80SLPC  H12B 7366   4.964   0.512   0.292 -0.3801  1.2494 -0.2268
   80SLPC   C11 7367   5.051   0.392   0.130  0.1341 -0.9384 -0.6862
   80SLPC  H11A 7368   5.138   0.390   0.061  0.1963 -2.4904 -0.6049
   80SLPC  H11B 7369   4.957   0.404   0.071 -2.1600 -1.7861  2.5118
   80SLPC     P 7370   4.916   0.197   0.240 -0.2536  0.1796 -0.2378
   80SLPC   O13 7371   4.947   0.062   0.270 -0.5159  0.5212 -0.3789
   80SLPC   O14 7372   4.844   0.276   0.345  0.5838 -0.6808  0.4051
   80SLPC   O12 7373   5.049   0.267   0.197 -0.0837 -0.4999  0.3004
   80SLPC   O11 7374   4.821   0.192   0.110 -0.0889 -0.2791 -0.1726
   80SLPC    C1 7375   4.882   0.152  -0.018 -0.3662 -0.0178  0.3184
   80SLPC    HA 7376   4.940   0.227  -0.075  1.6529 -1.8663 -0.1838
   80SLPC    HB 7377   4.947   0.063  -0.004  0.8529  0.6412 -0.9650
   80SLPC    C2 7378   4.772   0.110  -0.121  0.2877  0.0203  0.1683
   80SLPC    HS 7379   4.827   0.058  -0.203  1.1224  0.7905  0.2225
   80SLPC   O21 7380   4.692   0.225  -0.168  0.1082  0.4237 -0.0028
   80SLPC   C21 7381   4.736   0.291  -0.275 -0.2575 -0.4250  0.2678
   80SLPC   O22 7382   4.849   0.268  -0.316 -0.4280 -0.0460 -0.2002
   80SLPC   C22 7383   4.622   0.370  -0.336  0.2222 -0.5043 -0.0644
   80SLPC   H2R 7384   4.524   0.319  -0.322 -0.5653  0.5272 -1.5091
   80SLPC   H2S 7385   4.627   0.466  -0.281  4.1546 -1.7472  2.0770
   80SLPC    C3 7386   4.670   0.005  -0.059 -0.2900 -0.0488 -0.1686
   80SLPC    HX 7387   4.636   0.035   0.042  4.1258  0.9119  1.2459
   80SLPC    HY 7388   4.734  -0.085  -0.048 -0.5302 -0.2197 -0.1596
   80SLPC   O31 7389   4.564  -0.031  -0.146 -0.1953 -0.8064  0.0203
   80SLPC   C31 7390   4.445   0.023  -0.129 -0.4209  0.2508  0.3707
   80SLPC   O32 7391   4.406   0.112  -0.053 -0.0490  0.3337  0.9043
   80SLPC   C32 7392   4.345  -0.044  -0.224  0.4099 -0.2627  0.3312
   80SLPC   H2X 7393   4.247   0.008  -0.214 -0.2672 -0.7548 -2.7751
   80SLPC   H2Y 7394   4.324  -0.140  -0.171 -2.9260 -1.0053 -1.9932
   80SLPC   C23 7395   4.632   0.405  -0.489  0.3055  0.1211  0.1881
   80SLPC   H3R 7396   4.725   0.463  -0.504  0.6124 -0.7309 -1.4096
   80SLPC   H3S 7397   4.547   0.468  -0.522  0.5857 -0.1996 -1.2067
   80SLPC   C24 7398   4.642   0.283  -0.568  0.4282  0.6938 -0.7133
   80SLPC   H4R 7399   4.548   0.223  -0.568  0.9650 -0.1682 -0.5134
   80SLPC   H4S 7400   4.721   0.211  -0.539 -0.1232 -0.2744 -1.5552
   80SLPC   C25 7401   4.685   0.300  -0.717  0.2427  0.0600  0.9523
   80SLPC   H5R 7402   4.715   0.202  -0.758 -0.9521 -0.2539  0.7674
   80SLPC   H5S 7403   4.781   0.356  -0.711  1.6770 -2.3323  1.7236
   80SLPC   C26 7404   4.589   0.377  -0.816  0.4456  0.0711  0.1536
   80SLPC   H6R 7405   4.486   0.345  -0.790  0.4217  1.2155  1.5805
   80SLPC   H6S 7406   4.606   0.339  -0.919  2.4013  0.3027  0.3444
   80SLPC   C27 7407   4.590   0.526  -0.812 -1.0401 -0.2109  0.3997
   80SLPC   H7R 7408   4.623   0.561  -0.711 -2.5558  0.6809  0.6205
   80SLPC   H7S 7409   4.493   0.576  -0.832 -0.8678 -0.3392 -0.7787
   80SLPC   C28 7410   4.702   0.568  -0.922  0.4162  0.0058  0.0092
   80SLPC   H8R 7411   4.804   0.523  -0.917  0.2887 -0.2875  0.0242
   80SLPC   H8S 7412   4.701   0.673  -0.885 -0.0997 -0.4437  1.3655
   80SLPC   C29 7413   4.655   0.576  -1.067 -0.5887 -0.0004 -0.2782
   80SLPC   H9R 7414   4.558   0.627  -1.065 -0.8049 -0.3553 -1.1951
   80SLPC  C210 7415   4.700   0.511  -1.175 -0.4182 -0.1941  0.2272
   80SLPC  H10R 7416   4.650   0.527  -1.272  1.9064 -0.2594 -1.0539
   80SLPC  C211 7417   4.824   0.439  -1.182  0.2398 -0.1663  0.4527
   80SLPC  H11R 7418   4.898   0.464  -1.103 -0.9154 -1.2802  1.9477
   80SLPC  H11S 7419   4.864   0.487  -1.273 -1.0645  1.3858  0.6595
   80SLPC  C212 7420   4.808   0.293  -1.187  0.5258  0.3407  0.1491
   80SLPC  H12R 7421   4.774   0.243  -1.095 -0.9884 -1.0833 -1.1277
   80SLPC  C213 7422   4.835   0.213  -1.294 -0.6241 -0.1848 -0.3209
   80SLPC  H13R 7423   4.824   0.104  -1.279 -0.5520 -0.4761 -2.0983
   80SLPC  C214 7424   4.897   0.254  -1.422 -0.7518 -0.5428  0.0078
   80SLPC  H14R 7425   4.972   0.172  -1.437 -0.9831 -0.8654  0.6008
   80SLPC  H14S 7426   4.950   0.350  -1.410 -2.9187  0.6098  0.8268
   80SLPC  C215 7427   4.814   0.266  -1.552  0.7670  0.1360  0.1709
   80SLPC  H15R 7428   4.756   0.176  -1.581  0.3023  0.5857 -0.3188
   80SLPC  H15S 7429   4.891   0.291  -1.628  0.5187 -0.9912 -0.4903
   80SLPC  C216 7430   4.706   0.374  -1.532 -0.2336 -0.0654 -0.7619
   80SLPC  H16R 7431   4.744   0.464  -1.481  1.4615 -0.4633 -1.2588
   80SLPC  H16S 7432   4.627   0.332  -1.466  0.2024  1.0058  0.4898
   80SLPC  C217 7433   4.632   0.414  -1.665  0.6315  0.4087 -0.1863
   80SLPC  H17R 7434   4.601   0.316  -1.706 -2.6569  1.3167 -0.1558
   80SLPC  H17S 7435   4.708   0.458  -1.733  0.1689  1.5208  0.0015
   80SLPC  C218 7436   4.516   0.510  -1.639  0.8829  0.1798 -0.3802
   80SLPC  H18R 7437   4.456   0.535  -1.729  0.1028  0.1633  0.1211
   80SLPC  H18S 7438   4.547   0.603  -1.586  1.8916  0.9712 -2.2950
   80SLPC  H18T 7439   4.435   0.467  -1.575 -0.8245 -0.1150 -2.6331
   80SLPC   C33 7440   4.383  -0.059  -0.372  0.0384 -0.1320  0.4845
   80SLPC   H3X 7441   4.453  -0.145  -0.381 -0.5858 -0.6363  0.3455
   80SLPC   H3Y 7442   4.445   0.026  -0.408  1.4299 -0.9738  0.8163
   80SLPC   C34 7443   4.254  -0.092  -0.460 -0.0874 -1.2839 -0.6322
   80SLPC   H4X 7444   4.188  -0.003  -0.455  0.6624 -0.7697  3.0739
   80SLPC   H4Y 7445   4.198  -0.177  -0.416 -1.0924 -1.2346 -1.7434
   80SLPC   C35 7446   4.284  -0.158  -0.593 -0.2892 -0.3762  0.3897
   80SLPC   H5X 7447   4.353  -0.240  -0.564 -1.8079 -2.0829 -0.6719
   80SLPC   H5Y 7448   4.342  -0.091  -0.660  0.2616 -0.8143  0.4234
   80SLPC   C36 7449   4.165  -0.211  -0.673 -0.1237 -0.4085 -0.1519
   80SLPC   H6X 7450   4.130  -0.117  -0.721 -1.8571 -0.7224  0.4268
   80SLPC   H6Y 7451   4.080  -0.239  -0.608 -0.8647  1.6159 -0.1617
   80SLPC   C37 7452   4.212  -0.325  -0.764  0.6199  0.3222 -0.2303
   80SLPC   H7X 7453   4.265  -0.401  -0.703  0.0619 -0.4854 -0.7235
   80SLPC   H7Y 7454   4.277  -0.278  -0.840  0.2272  2.2436  0.5686
   80SLPC   C38 7455   4.094  -0.389  -0.841  0.1425 -0.3579  0.1450
   80SLPC   H8X 7456   4.056  -0.321  -0.921  1.3868  0.0796 -0.1008
   80SLPC   H8Y 7457   4.016  -0.400  -0.763  1.4373  0.8838  1.7048
   80SLPC   C39 7458   4.140  -0.526  -0.889  0.3909 -0.0561 -0.3742
   80SLPC   H9X 7459   4.154  -0.589  -0.799 -1.8598 -0.7917 -0.4810
   80SLPC   H9Y 7460   4.232  -0.520  -0.952 -0.4998  1.2816 -1.6287
   80SLPC  C310 7461   4.024  -0.593  -0.973 -0.0216 -0.4324  0.1106
   80SLPC  H10X 7462   3.990  -0.512  -1.041 -0.9366 -0.3248  0.6791
   80SLPC  H10Y 7463   3.938  -0.608  -0.905  0.5329 -0.7482  0.7494
   80SLPC  C311 7464   4.055  -0.725  -1.043 -0.0237 -0.1823  0.7600
   80SLPC  H11X 7465   4.160  -0.723  -1.079 -0.2284  2.1845  0.1609
   80SLPC  H11Y 7466   3.990  -0.723  -1.133 -0.8671 -0.5930  1.3464
   80SLPC  C312 7467   4.031  -0.849  -0.967  0.1641  0.5561 -0.2627
   80SLPC  H12X 7468   3.921  -0.868  -0.972  0.6797 -2.5252 -2.1790
   80SLPC  H12Y 7469   4.055  -0.808  -0.866 -1.8095  2.2153 -0.3985
   80SLPC  C313 7470   4.115  -0.977  -0.995 -0.3305  0.0269 -0.1395
   80SLPC  H13X 7471   4.096  -1.038  -0.904 -0.0834  1.8352  1.1655
   80SLPC  H13Y 7472   4.223  -0.952  -0.990 -0.5471  0.8682  0.7547
   80SLPC  C314 7473   4.080  -1.066  -1.121 -0.3975 -0.8888 -0.4200
   80SLPC  H14X 7474   3.977  -1.108  -1.125 -0.6784 -0.2961  0.3865
   80SLPC  H14Y 7475   4.149  -1.152  -1.105 -0.2366 -0.9421 -1.3250
   80SLPC  C315 7476   4.135  -0.998  -1.249 -0.3199 -0.4704  0.5159
   80SLPC  H15X 7477   4.245  -0.991  -1.237 -0.2193  1.1769 -0.9668
   80SLPC  H15Y 7478   4.089  -0.898  -1.263  0.3692 -0.5573 -3.6126
   80SLPC  C316 7479   4.116  -1.080  -1.383  0.0679  0.2302 -0.6630
   80SLPC  H16X 7480   4.006  -1.096  -1.387  0.3775 -3.4509  1.5674
   80SLPC  H16Y 7481   4.158  -1.183  -1.379 -0.5921 -0.0857 -1.4776
   80SLPC  C317 7482   4.170  -1.003  -1.503  0.4056 -0.1011 -1.0589
   80SLPC  H17X 7483   4.280  -0.992  -1.488 -0.0429 -0.0486  3.9761
   80SLPC  H17Y 7484   4.129  -0.900  -1.507  1.7462  0.5350  0.2790
   80SLPC  C318 7485   4.131  -1.074  -1.632  0.3705  0.3370 -0.0124
   80SLPC  H18X 7486   4.022  -1.074  -1.652  0.3261 -1.7370  0.0578
   80SLPC  H18Y 7487   4.170  -1.177  -1.617 -0.7158  0.0050  0.6496
   80SLPC  H18Z 7488   4.168  -1.029  -1.727 -1.2304 -1.2723 -1.4798
   81SLPC     N 7489   0.830   4.766   4.856 -0.2322 -0.2393 -0.4881
   81SLPC   C13 7490   0.767   4.880   4.780 -0.5386 -0.7827  1.0826
   81SLPC  H13A 7491   0.779   4.975   4.831 -3.4644 -0.7343  1.8906
   81SLPC  H13B 7492   0.808   4.890   4.681  2.0053  1.3135  2.2516
   81SLPC  H13C 7493   0.659   4.876   4.780 -0.5243 -1.2025  1.4239
   81SLPC   C14 7494   0.750   4.742   4.982  0.2046  0.4581 -0.8358
   81SLPC  H14A 7495   0.782   4.651   5.030  0.4314  0.7268 -0.4712
   81SLPC  H14B 7496   0.760   4.820   5.056 -0.6820 -1.9739  2.0403
   81SLPC  H14C 7497   0.645   4.738   4.957  0.0034  5.1730 -1.7048
   81SLPC   C15 7498   0.968   4.821   4.889  0.1671  0.3852 -0.3543
   81SLPC  H15A 7499   1.022   4.815   4.795 -0.1801 -2.2065 -0.4574
   81SLPC  H15B 7500   0.953   4.920   4.930  0.8806  0.1102  0.6005
   81SLPC  H15C 7501   1.016   4.754   4.959 -1.9819 -2.0795 -1.1296
   81SLPC   C12 7502   0.836   4.640   4.766 -0.5760  0.2150 -0.6202
   81SLPC  H12A 7503   0.898   4.675   4.685  2.0512 -4.3510 -0.9160
   81SLPC  H12B 7504   0.740   4.619   4.719 -0.1596 -0.3890 -1.2239
   81SLPC   C11 7505   0.900   4.510   4.819 -0.1207 -1.0495  0.6962
   81SLPC  H11A 7506   0.887   4.436   4.737  1.1897 -0.9160  0.3434
   81SLPC  H11B 7507   0.834   4.472   4.900  1.2513 -1.5334  1.6341
   81SLPC     P 7508   1.157   4.503   4.778  0.1474 -0.1203  0.1241
   81SLPC   O13 7509   1.123   4.455   4.639  0.1483 -0.5902 -0.2488
   81SLPC   O14 7510   1.224   4.637   4.780  0.0270 -0.7373 -0.4480
   81SLPC   O12 7511   1.031   4.516   4.873  0.2547  0.0461 -0.2841
   81SLPC   O11 7512   1.255   4.397   4.844 -0.1063 -0.0335  0.4326
   81SLPC    C1 7513   1.345   4.446   4.944  0.0020 -0.0280  0.3254
   81SLPC    HA 7514   1.411   4.531   4.918  1.1539 -1.4261 -1.5170
   81SLPC    HB 7515   1.286   4.469   5.036 -0.8190 -0.0507 -0.1824
   81SLPC    C2 7516   1.447   4.334   4.987  0.0273  0.4237 -0.0569
   81SLPC    HS 7517   1.504   4.301   4.897  2.2275 -1.1307  1.8112
   81SLPC   O21 7518   1.364   4.227   5.043 -0.0199  0.0503  0.1174
   81SLPC   C21 7519   1.424   4.113   5.037  0.2946  0.8011  0.5580
   81SLPC   O22 7520   1.534   4.086   4.986  0.4598  0.2190  0.0458
   81SLPC   C22 7521   1.338   4.008   5.120 -0.7107 -0.5872 -0.4794
   81SLPC   H2R 7522   1.237   4.040   5.088 -1.2748 -1.4498  0.3625
   81SLPC   H2S 7523   1.353   3.906   5.077 -1.0041 -0.8380  0.0113
   81SLPC    C3 7524   1.551   4.383   5.095  0.0762 -0.3880  0.0468
   81SLPC    HX 7525   1.607   4.470   5.052 -0.9915  1.0925  1.5210
   81SLPC    HY 7526   1.626   4.303   5.108  1.0477  0.1522 -1.8211
   81SLPC   O31 7527   1.483   4.412   5.212 -0.1113 -0.1720  0.3841
   81SLPC   C31 7528   1.448   4.539   5.244  0.5837  0.3200  0.5646
   81SLPC   O32 7529   1.489   4.633   5.182  0.3701  0.1767 -0.2453
   81SLPC   C32 7530   1.365   4.543   5.376  0.2711  0.0843  0.6595
   81SLPC   H2X 7531   1.263   4.505   5.353  0.3849  0.6371 -0.8720
   81SLPC   H2Y 7532   1.359   4.652   5.395 -0.4278  0.3115 -0.7093
   81SLPC   C23 7533   1.340   4.021   5.271 -0.3753  0.2702 -0.1443
   81SLPC   H3R 7534   1.246   3.976   5.310  0.0855 -0.2867  0.3458
   81SLPC   H3S 7535   1.343   4.128   5.300 -1.0374  1.1296 -2.9258
   81SLPC   C24 7536   1.468   3.953   5.329  0.4066 -0.0059 -0.0784
   81SLPC   H4R 7537   1.477   3.861   5.267  1.1918  0.0728 -0.0876
   81SLPC   H4S 7538   1.452   3.932   5.437  0.3187  0.4270 -0.0053
   81SLPC   C25 7539   1.595   4.041   5.326 -0.3262 -0.0695  0.1265
   81SLPC   H5R 7540   1.565   4.137   5.375 -0.6345  0.2871 -0.7538
   81SLPC   H5S 7541   1.621   4.062   5.221 -0.1472 -0.1679  0.1517
   81SLPC   C26 7542   1.717   3.978   5.395 -0.0242  0.4125  0.6661
   81SLPC   H6R 7543   1.801   4.047   5.374  0.1835  0.0282  0.2171
   81SLPC   H6S 7544   1.736   3.879   5.350 -1.9112  0.7424 -1.0058
   81SLPC   C27 7545   1.710   3.978   5.548  0.2107  0.4262  0.0664
   81SLPC   H7R 7546   1.620   3.921   5.580  1.2719 -1.1442  0.3727
   81SLPC   H7S 7547   1.691   4.084   5.575  0.3142 -0.0124  2.0177
   81SLPC   C28 7548   1.830   3.919   5.619  0.2327 -0.2707  0.7215
   81SLPC   H8R 7549   1.831   3.925   5.730 -0.9034  1.5204  0.6702
   81SLPC   H8S 7550   1.909   3.993   5.594  0.3334 -1.3380 -2.7325
   81SLPC   C29 7551   1.868   3.777   5.579  0.1230 -0.4571 -0.7041
   81SLPC   H9R 7552   1.864   3.760   5.470  1.1927  0.5689 -0.9200
   81SLPC  C210 7553   1.922   3.687   5.655  0.5591  0.0145 -0.2033
   81SLPC  H10R 7554   1.945   3.592   5.605 -1.9104 -0.7582  0.0063
   81SLPC  C211 7555   1.943   3.693   5.802 -0.5575 -0.9893  0.0591
   81SLPC  H11R 7556   1.849   3.715   5.857 -0.0806 -0.1606  0.5654
   81SLPC  H11S 7557   2.003   3.785   5.821 -0.2573 -1.3255  0.8000
   81SLPC  C212 7558   2.004   3.568   5.862 -0.4094 -0.0405 -0.5900
   81SLPC  H12R 7559   2.051   3.489   5.802  1.5575  0.0792  0.7033
   81SLPC  C213 7560   2.034   3.561   6.000  0.2337 -0.0219  0.4349
   81SLPC  H13R 7561   2.066   3.465   6.044  1.5754  0.5526  0.7477
   81SLPC  C214 7562   1.996   3.671   6.102  0.0697  0.0771 -0.0887
   81SLPC  H14R 7563   1.969   3.767   6.052 -1.1503  0.1430  0.6475
   81SLPC  H14S 7564   2.079   3.703   6.169  0.9206  1.5178 -1.7415
   81SLPC  C215 7565   1.870   3.622   6.180 -0.7472 -0.4173 -0.1430
   81SLPC  H15R 7566   1.886   3.519   6.219  0.0057 -0.2040  0.1296
   81SLPC  H15S 7567   1.781   3.604   6.116 -0.5446  0.8584 -0.8230
   81SLPC  C216 7568   1.826   3.710   6.298  0.2252 -0.0601 -0.7353
   81SLPC  H16R 7569   1.758   3.788   6.256  0.5333  1.7077  1.7908
   81SLPC  H16S 7570   1.905   3.758   6.359 -1.7596  0.3617  1.6662
   81SLPC  C217 7571   1.747   3.642   6.402  0.3720 -1.0425 -0.0099
   81SLPC  H17R 7572   1.803   3.569   6.464  1.1141  0.8600  1.7034
   81SLPC  H17S 7573   1.665   3.603   6.338  0.4710  0.0006 -0.7938
   81SLPC  C218 7574   1.693   3.742   6.502 -0.5020 -0.2274 -0.5015
   81SLPC  H18R 7575   1.777   3.787   6.559  0.6306  0.4515 -2.5994
   81SLPC  H18S 7576   1.621   3.683   6.562 -2.9262  2.2340 -0.7373
   81SLPC  H18T 7577   1.641   3.830   6.457 -0.1320 -0.2271 -0.9321
   81SLPC   C33 7578   1.429   4.485   5.500  0.2232  0.3165  0.4877
   81SLPC   H3X 7579   1.394   4.545   5.586  0.8992  1.6711 -0.1651
   81SLPC   H3Y 7580   1.539   4.496   5.490  0.4039 -1.6713 -0.2457
   81SLPC   C34 7581   1.384   4.338   5.513 -0.1442 -0.0382 -0.3683
   81SLPC   H4X 7582   1.400   4.289   5.415  0.3905 -1.2647  0.3192
   81SLPC   H4Y 7583   1.277   4.326   5.540 -0.2932  0.8464 -0.5355
   81SLPC   C35 7584   1.447   4.248   5.621  1.2018 -0.0912 -0.3616
   81SLPC   H5X 7585   1.556   4.263   5.607  1.0489 -0.0402 -1.6541
   81SLPC   H5Y 7586   1.419   4.143   5.601  2.1767 -0.1470 -1.5257
   81SLPC   C36 7587   1.399   4.286   5.764  0.4581  0.7226  0.5344
   81SLPC   H6X 7588   1.289   4.269   5.763  0.1908  2.1928  1.2496
   81SLPC   H6Y 7589   1.412   4.394   5.788 -3.6884  1.6962 -0.6837
   81SLPC   C37 7590   1.467   4.206   5.874  0.1081 -0.0683  0.4488
   81SLPC   H7X 7591   1.474   4.107   5.826 -1.5267  0.6233 -1.3383
   81SLPC   H7Y 7592   1.407   4.189   5.966  2.2525 -1.2717  1.7066
   81SLPC   C38 7593   1.613   4.250   5.907  0.1823 -0.0945  0.1474
   81SLPC   H8X 7594   1.609   4.337   5.976  2.0269 -0.8093  1.1909
   81SLPC   H8Y 7595   1.655   4.278   5.808 -2.3106  1.1369 -0.6696
   81SLPC   C39 7596   1.694   4.134   5.957  1.4588 -0.2103 -0.8705
   81SLPC   H9X 7597   1.673   4.052   5.886 -1.9071  0.1167 -0.4221
   81SLPC   H9Y 7598   1.648   4.110   6.055  1.2647 -1.6248 -1.2876
   81SLPC  C310 7599   1.839   4.158   5.996  0.3509 -0.0981 -0.8748
   81SLPC  H10X 7600   1.837   4.236   6.074 -0.7033 -1.4962  0.5638
   81SLPC  H10Y 7601   1.899   4.189   5.908 -0.0467 -1.8593 -1.8179
   81SLPC  C311 7602   1.913   4.031   6.050  0.3121 -0.8205  0.1630
   81SLPC  H11X 7603   1.911   3.955   5.969 -0.3963 -0.7688  0.1327
   81SLPC  H11Y 7604   1.869   3.984   6.140  0.2992 -0.9116  0.1090
   81SLPC  C312 7605   2.058   4.067   6.089  0.5109 -0.1790 -0.8693
   81SLPC  H12X 7606   2.126   4.103   6.009 -0.6438 -0.2316 -1.9124
   81SLPC  H12Y 7607   2.089   3.965   6.121 -2.6758 -1.6968 -2.1738
   81SLPC  C313 7608   2.065   4.155   6.217  0.3109  0.1350 -0.3676
   81SLPC  H13X 7609   2.023   4.254   6.191  1.2181  0.6931  0.2429
   81SLPC  H13Y 7610   2.173   4.178   6.232  0.3405 -0.0655 -0.2610
   81SLPC  C314 7611   2.003   4.088   6.345 -0.1910 -0.1947  0.4986
   81SLPC  H14X 7612   2.046   3.994   6.387  1.4068  1.2242  2.1919
   81SLPC  H14Y 7613   1.894   4.067   6.334 -0.3713  1.2576 -0.7159
   81SLPC  C315 7614   2.029   4.189   6.465 -0.0173 -0.0288  0.9811
   81SLPC  H15X 7615   1.970   4.281   6.448  0.0849 -0.3689 -1.7411
   81SLPC  H15Y 7616   2.136   4.216   6.474  0.3948 -1.5112  0.8092
   81SLPC  C316 7617   1.999   4.135   6.606 -0.1771 -0.9947 -0.4491
   81SLPC  H16X 7618   2.090   4.073   6.620  0.1580 -0.2911  0.6016
   81SLPC  H16Y 7619   1.906   4.075   6.615 -1.0606  0.4947  0.9719
   81SLPC  C317 7620   2.004   4.255   6.713 -0.2541 -0.1255  1.1910
   81SLPC  H17X 7621   1.915   4.319   6.692  0.2235  0.4145  0.7717
   81SLPC  H17Y 7622   2.096   4.314   6.694  1.0090 -1.8104  1.8041
   81SLPC  C318 7623   2.021   4.197   6.847  0.1199  0.1703 -0.2110
   81SLPC  H18X 7624   2.051   4.260   6.934  1.5648 -0.3806 -0.2815
   81SLPC  H18Y 7625   2.115   4.137   6.844  0.9389  1.4106 -0.1658
   81SLPC  H18Z 7626   1.939   4.128   6.875 -0.0726  0.0902 -0.9710
   82SLPC     N 7627   6.750   5.467   4.869  0.3359 -0.0097  0.2427
   82SLPC   C13 7628   6.833   5.461   4.997 -0.2070 -0.1517 -0.3151
   82SLPC  H13A 7629   6.795   5.392   5.070  0.4849  1.1553  1.3564
   82SLPC  H13B 7630   6.935   5.436   4.969  0.4999  1.6540  0.4974
   82SLPC  H13C 7631   6.830   5.558   5.045  2.1869 -1.4916  2.9648
   82SLPC   C14 7632   6.831   5.555   4.779  1.0191 -0.2797  0.8166
   82SLPC  H14A 7633   6.822   5.655   4.817  3.5241 -0.5611  2.3412
   82SLPC  H14B 7634   6.936   5.529   4.775  0.6315 -2.0360  1.1428
   82SLPC  H14C 7635   6.798   5.542   4.677 -0.9843 -0.3944  1.4376
   82SLPC   C15 7636   6.616   5.525   4.917  0.3658  0.5986  0.5281
   82SLPC  H15A 7637   6.572   5.445   4.975 -1.0577  0.3575 -0.7899
   82SLPC  H15B 7638   6.628   5.614   4.977  0.2505  1.7666 -1.1031
   82SLPC  H15C 7639   6.546   5.541   4.836  1.5924 -1.1494 -0.9611
   82SLPC   C12 7640   6.750   5.331   4.811  0.1684  0.1517  0.2578
   82SLPC  H12A 7641   6.844   5.290   4.779 -0.5481  1.5146 -4.3224
   82SLPC  H12B 7642   6.699   5.338   4.716  0.8691 -0.7313 -0.1961
   82SLPC   C11 7643   6.672   5.220   4.885 -0.0101  0.3254 -0.1404
   82SLPC  H11A 7644   6.705   5.218   4.991 -1.9022 -0.4437  0.4699
   82SLPC  H11B 7645   6.701   5.129   4.829  0.1303  0.3928 -0.1784
   82SLPC     P 7646   6.442   5.181   4.990 -0.2212  0.2009 -0.5454
   82SLPC   O13 7647   6.468   5.278   5.098  0.2019  0.1927  0.0630
   82SLPC   O14 7648   6.303   5.173   4.948 -0.6748 -0.4199 -0.3790
   82SLPC   O12 7649   6.532   5.234   4.873  0.5644 -0.1334 -0.1687
   82SLPC   O11 7650   6.492   5.039   5.033 -0.5942 -0.2349  0.1329
   82SLPC    C1 7651   6.479   4.927   4.943  0.4528  0.2451  0.3905
   82SLPC    HA 7652   6.375   4.906   4.909 -0.0725  0.8712  1.5403
   82SLPC    HB 7653   6.536   4.934   4.848 -0.3111  0.4816 -0.0584
   82SLPC    C2 7654   6.530   4.794   5.011  0.1527  0.0680  0.4085
   82SLPC    HS 7655   6.558   4.713   4.940 -0.1900 -1.1421  1.6171
   82SLPC   O21 7656   6.442   4.746   5.113 -0.2941  0.0283  0.4041
   82SLPC   C21 7657   6.353   4.669   5.052  0.0889  0.6851  0.2669
   82SLPC   O22 7658   6.337   4.641   4.933  0.4596 -0.3542 -0.5367
   82SLPC   C22 7659   6.262   4.607   5.160  0.1545 -0.5945 -0.3736
   82SLPC   H2R 7660   6.234   4.689   5.229  0.6110 -1.4924  0.9099
   82SLPC   H2S 7661   6.171   4.582   5.101 -0.8843  2.0321 -0.0090
   82SLPC    C3 7662   6.677   4.823   5.061  0.1195 -0.4634 -0.7698
   82SLPC    HX 7663   6.671   4.919   5.117  1.1443 -1.1850  0.6281
   82SLPC    HY 7664   6.743   4.852   4.977 -1.7548  3.0973 -1.2187
   82SLPC   O31 7665   6.733   4.725   5.146 -0.7242  0.2334 -0.3007
   82SLPC   C31 7666   6.787   4.618   5.094  0.1179 -0.4565  0.1017
   82SLPC   O32 7667   6.777   4.583   4.973 -0.2049  0.6708  0.2901
   82SLPC   C32 7668   6.867   4.547   5.205 -0.7114  0.5673  0.6189
   82SLPC   H2X 7669   6.850   4.602   5.300 -2.0420  1.7460 -0.2572
   82SLPC   H2Y 7670   6.972   4.559   5.169 -1.0002  0.3779 -0.3272
   82SLPC   C23 7671   6.329   4.508   5.255 -0.2265 -0.9846  0.1006
   82SLPC   H3R 7672   6.429   4.548   5.283  0.8736 -1.4126 -2.8212
   82SLPC   H3S 7673   6.347   4.418   5.193 -2.5095 -0.6715 -1.1354
   82SLPC   C24 7674   6.242   4.483   5.379  0.5602 -0.9904 -0.8922
   82SLPC   H4R 7675   6.197   4.577   5.417  2.1094 -0.7810  0.5265
   82SLPC   H4S 7676   6.311   4.450   5.460  1.4242 -0.1992 -1.2924
   82SLPC   C25 7677   6.128   4.376   5.364 -0.4330  0.5803 -0.3873
   82SLPC   H5R 7678   6.181   4.282   5.337  0.6507  1.4163 -1.2832
   82SLPC   H5S 7679   6.060   4.397   5.278 -2.1856 -1.5468  0.3913
   82SLPC   C26 7680   6.035   4.350   5.482 -0.1496  0.4960  0.6402
   82SLPC   H6R 7681   5.981   4.439   5.519 -3.0276 -0.9001  0.0970
   82SLPC   H6S 7682   6.109   4.332   5.563 -0.6249  0.6611  1.1162
   82SLPC   C27 7683   5.938   4.230   5.467 -0.3418  0.6266  0.2195
   82SLPC   H7R 7684   5.999   4.144   5.433 -1.1700  0.0875  0.0724
   82SLPC   H7S 7685   5.873   4.238   5.377 -0.7773 -2.4867  0.1503
   82SLPC   C28 7686   5.856   4.188   5.591 -0.1289  0.0665 -0.4691
   82SLPC   H8R 7687   5.902   4.243   5.676  0.4550 -1.5329  0.2979
   82SLPC   H8S 7688   5.875   4.082   5.619 -1.6284 -0.2670 -0.6386
   82SLPC   C29 7689   5.705   4.197   5.566 -0.5903 -0.8027  0.2819
   82SLPC   H9R 7690   5.672   4.180   5.463  2.6777  0.0928 -1.0084
   82SLPC  C210 7691   5.610   4.226   5.663 -0.0172  0.1941 -1.1229
   82SLPC  H10R 7692   5.506   4.244   5.634  0.4454  2.3783 -1.6044
   82SLPC  C211 7693   5.645   4.254   5.806  0.9095 -0.6985  1.1025
   82SLPC  H11R 7694   5.752   4.284   5.812  0.2166  2.0794  0.9462
   82SLPC  H11S 7695   5.642   4.167   5.875 -2.1587 -2.6714 -1.2503
   82SLPC  C212 7696   5.571   4.377   5.850  1.2013  0.5633  0.1539
   82SLPC  H12R 7697   5.581   4.470   5.791 -2.6448  1.0268 -0.0343
   82SLPC  C213 7698   5.489   4.390   5.959 -0.3671  0.3584 -0.2477
   82SLPC  H13R 7699   5.446   4.490   5.971  0.4985  0.6253  0.7522
   82SLPC  C214 7700   5.451   4.281   6.057 -0.2338  0.0645  0.3371
   82SLPC  H14R 7701   5.469   4.178   6.019  2.2942  0.2369  0.8909
   82SLPC  H14S 7702   5.343   4.279   6.084  0.1950  1.1850  2.3641
   82SLPC  C215 7703   5.544   4.295   6.181  0.4524  0.3517  0.1845
   82SLPC  H15R 7704   5.505   4.371   6.251  0.0789  0.1061  0.2487
   82SLPC  H15S 7705   5.647   4.324   6.154  0.9340 -0.6253  0.9085
   82SLPC  C216 7706   5.531   4.170   6.267 -0.4363 -0.0328 -0.5595
   82SLPC  H16R 7707   5.578   4.083   6.217  0.0332 -0.1196  0.0108
   82SLPC  H16S 7708   5.422   4.163   6.284 -0.1879 -0.7075  0.9216
   82SLPC  C217 7709   5.586   4.176   6.410 -0.3278 -1.1287  0.1223
   82SLPC  H17R 7710   5.697   4.183   6.421 -0.3466 -3.0366  2.3419
   82SLPC  H17S 7711   5.576   4.072   6.449  1.3897 -0.4017  2.7749
   82SLPC  C218 7712   5.512   4.276   6.504  0.3787  0.0617  0.6877
   82SLPC  H18R 7713   5.552   4.261   6.607  2.9537  0.1438 -0.2474
   82SLPC  H18S 7714   5.405   4.250   6.487  0.5213  0.9037 -1.7286
   82SLPC  H18T 7715   5.543   4.377   6.470  1.0368 -0.3715 -0.0108
   82SLPC   C33 7716   6.837   4.392   5.217  0.3426 -0.1421  0.0295
   82SLPC   H3X 7717   6.926   4.344   5.263  1.0731 -0.8343 -2.0169
   82SLPC   H3Y 7718   6.803   4.339   5.126 -1.3443  2.6559 -1.0782
   82SLPC   C34 7719   6.720   4.361   5.315 -0.5846 -0.8396 -0.8308
   82SLPC   H4X 7720   6.712   4.252   5.336  1.8629 -0.9157 -0.1029
   82SLPC   H4Y 7721   6.632   4.389   5.253 -1.8483 -1.5089  0.5725
   82SLPC   C35 7722   6.727   4.435   5.448 -0.2360  0.0133 -0.1490
   82SLPC   H5X 7723   6.693   4.540   5.432  1.2689  0.8189  1.4917
   82SLPC   H5Y 7724   6.827   4.433   5.497  0.4514  2.3519 -1.2904
   82SLPC   C36 7725   6.623   4.379   5.542  0.8278 -0.2756  0.4319
   82SLPC   H6X 7726   6.631   4.272   5.572 -3.0338 -0.1262  2.7694
   82SLPC   H6Y 7727   6.529   4.385   5.483  0.9578  1.7974  0.3814
   82SLPC   C37 7728   6.604   4.463   5.661  0.3593 -0.0468  0.3535
   82SLPC   H7X 7729   6.495   4.460   5.683  0.6301 -0.6495  1.7643
   82SLPC   H7Y 7730   6.626   4.570   5.642  1.6545  0.0124  1.9498
   82SLPC   C38 7731   6.673   4.418   5.796 -0.2217 -0.1388  0.0997
   82SLPC   H8X 7732   6.780   4.444   5.786  0.0244 -0.8607  0.7641
   82SLPC   H8Y 7733   6.658   4.309   5.811 -1.0320 -0.5365 -2.8229
   82SLPC   C39 7734   6.603   4.481   5.916  0.2122  0.3860 -0.3594
   82SLPC   H9X 7735   6.493   4.472   5.915  0.1094  1.1445 -2.5631
   82SLPC   H9Y 7736   6.620   4.590   5.929  0.4707  0.1702  1.2991
   82SLPC  C310 7737   6.640   4.435   6.054 -0.2679  0.4043 -0.8985
   82SLPC  H10X 7738   6.743   4.464   6.084  0.1328 -1.3072 -0.5407
   82SLPC  H10Y 7739   6.644   4.325   6.048  1.6125  0.4642 -1.5434
   82SLPC  C311 7740   6.531   4.467   6.161 -0.3167 -0.2991 -0.4162
   82SLPC  H11X 7741   6.427   4.446   6.128 -0.6734  2.0448 -0.9377
   82SLPC  H11Y 7742   6.547   4.576   6.177  0.2254 -0.2758 -1.0469
   82SLPC  C312 7743   6.555   4.375   6.284 -0.6042 -0.8492 -0.3296
   82SLPC  H12X 7744   6.657   4.384   6.326 -1.0444  0.6058  0.5203
   82SLPC  H12Y 7745   6.534   4.272   6.248  2.4142 -0.7739 -2.6855
   82SLPC  C313 7746   6.466   4.431   6.393  0.2050  0.6600 -0.4643
   82SLPC  H13X 7747   6.360   4.410   6.370 -0.2948  2.7220 -0.2886
   82SLPC  H13Y 7748   6.481   4.540   6.409 -0.7706  0.7259  0.0902
   82SLPC  C314 7749   6.490   4.370   6.532 -0.5580 -1.0513  0.3667
   82SLPC  H14X 7750   6.564   4.430   6.589  0.2572 -1.6867 -0.0004
   82SLPC  H14Y 7751   6.524   4.265   6.517 -2.7842 -1.5738 -1.6172
   82SLPC  C315 7752   6.363   4.352   6.622  0.4822  0.4518 -0.1580
   82SLPC  H15X 7753   6.395   4.286   6.706  2.5923  0.3007 -1.0219
   82SLPC  H15Y 7754   6.281   4.306   6.562 -1.1838  2.3514  0.5299
   82SLPC  C316 7755   6.311   4.482   6.689  0.0357  0.9082 -0.3988
   82SLPC  H16X 7756   6.293   4.549   6.602 -0.2549 -0.0658 -1.1116
   82SLPC  H16Y 7757   6.398   4.511   6.751 -0.9624 -1.8850  2.6406
   82SLPC  C317 7758   6.183   4.471   6.768 -0.3382 -0.3192 -0.5735
   82SLPC  H17X 7759   6.214   4.411   6.856  2.5346  0.5553 -0.8628
   82SLPC  H17Y 7760   6.103   4.431   6.702 -0.4845 -0.3690 -0.3674
   82SLPC  C318 7761   6.141   4.613   6.815 -0.3037  0.2357 -0.4170
   82SLPC  H18X 7762   6.103   4.669   6.727  0.2815  0.8885 -0.2645
   82SLPC  H18Y 7763   6.233   4.659   6.856  0.2625  0.6686 -2.0945
   82SLPC  H18Z 7764   6.060   4.608   6.890 -2.0564  1.1970 -2.1453
   83SLPC     N 7765   4.227   4.239   4.539 -0.6307 -0.2456 -0.2089
   83SLPC   C13 7766   4.352   4.268   4.615  0.3252 -0.4489 -0.5649
   83SLPC  H13A 7767   4.408   4.338   4.554 -0.3943 -0.2402 -0.9976
   83SLPC  H13B 7768   4.329   4.303   4.715 -2.2841 -0.4871 -1.0835
   83SLPC  H13C 7769   4.412   4.182   4.639  0.9105  0.3231  0.9244
   83SLPC   C14 7770   4.158   4.123   4.605 -0.3997 -0.4851 -0.0972
   83SLPC  H14A 7771   4.225   4.047   4.641  0.0190  0.8648  2.1759
   83SLPC  H14B 7772   4.116   4.172   4.692  1.5648  1.2563 -0.0552
   83SLPC  H14C 7773   4.074   4.083   4.549  0.4120  1.0462 -2.5712
   83SLPC   C15 7774   4.276   4.192   4.404  0.5266  0.6569  0.3089
   83SLPC  H15A 7775   4.329   4.269   4.350  1.8030 -0.4817 -0.1205
   83SLPC  H15B 7776   4.333   4.100   4.409  0.0686  0.3570  0.1052
   83SLPC  H15C 7777   4.185   4.170   4.351 -0.9658  2.2463  2.0596
   83SLPC   C12 7778   4.140   4.364   4.524  0.3112 -0.3705  0.5758
   83SLPC  H12A 7779   4.059   4.361   4.452 -0.0654 -1.3287  1.0219
   83SLPC  H12B 7780   4.202   4.445   4.488  1.4532 -1.2731  0.4610
   83SLPC   C11 7781   4.083   4.422   4.661 -0.0697  0.1215 -0.1648
   83SLPC  H11A 7782   3.996   4.360   4.692 -1.1391  0.6817 -1.8957
   83SLPC  H11B 7783   4.037   4.517   4.626 -2.7408 -2.1028 -3.3626
   83SLPC     P 7784   4.172   4.401   4.907  0.1252  0.1845 -0.2401
   83SLPC   O13 7785   4.313   4.415   4.958  0.2674  0.0929  0.1888
   83SLPC   O14 7786   4.075   4.484   4.975 -0.0751 -0.4059 -0.4140
   83SLPC   O12 7787   4.180   4.446   4.760 -0.3457  0.2275 -0.2802
   83SLPC   O11 7788   4.128   4.255   4.901  0.4604  0.4624  0.3154
   83SLPC    C1 7789   4.002   4.199   4.959  0.1336 -0.2845  0.3418
   83SLPC    HA 7790   3.912   4.243   4.912  1.6555  0.3067 -2.1952
   83SLPC    HB 7791   3.990   4.092   4.932  0.5614  0.2735 -2.2627
   83SLPC    C2 7792   3.989   4.209   5.110 -0.3456 -0.1695 -0.0089
   83SLPC    HS 7793   3.969   4.314   5.140  0.9502  0.1200 -0.0934
   83SLPC   O21 7794   4.119   4.172   5.152  0.3889  0.2487  0.2207
   83SLPC   C21 7795   4.172   4.236   5.257  0.6008  0.1156  0.4089
   83SLPC   O22 7796   4.118   4.325   5.318 -0.0517  0.3947 -0.1365
   83SLPC   C22 7797   4.317   4.184   5.272  0.4267  0.2706 -0.5564
   83SLPC   H2R 7798   4.311   4.073   5.274  0.3935  0.2747  0.5359
   83SLPC   H2S 7799   4.371   4.219   5.181  1.1448  0.0191 -0.2364
   83SLPC    C3 7800   3.891   4.106   5.163 -0.3644  0.0990 -0.6587
   83SLPC    HX 7801   3.928   4.002   5.147 -0.0140  0.2227 -0.6517
   83SLPC    HY 7802   3.804   4.114   5.094 -0.4879 -0.0998 -0.5298
   83SLPC   O31 7803   3.869   4.125   5.303 -0.0526 -0.0592  0.0808
   83SLPC   C31 7804   3.792   4.228   5.327 -0.4392  0.0513  0.2765
   83SLPC   O32 7805   3.726   4.283   5.242  0.0831 -0.7430 -0.8388
   83SLPC   C32 7806   3.800   4.276   5.466  0.0774  0.7037 -0.5534
   83SLPC   H2X 7807   3.756   4.377   5.478  0.4212  0.5859  2.5189
   83SLPC   H2Y 7808   3.904   4.305   5.490  0.0661  1.3145 -1.2247
   83SLPC   C23 7809   4.380   4.251   5.397  0.2099 -0.2718 -0.0381
   83SLPC   H3R 7810   4.359   4.359   5.388 -0.4709 -0.1375  2.4515
   83SLPC   H3S 7811   4.488   4.230   5.411 -0.1864 -1.6820  1.3502
   83SLPC   C24 7812   4.325   4.201   5.538  0.0492  0.0234  0.2380
   83SLPC   H4R 7813   4.351   4.094   5.549 -0.4642 -0.2160 -0.7748
   83SLPC   H4S 7814   4.214   4.210   5.543  0.0774  0.0077  1.1632
   83SLPC   C25 7815   4.393   4.267   5.657 -0.1174 -0.6603 -1.1298
   83SLPC   H5R 7816   4.419   4.375   5.652 -2.0571  0.0139  1.2547
   83SLPC   H5S 7817   4.497   4.229   5.673  0.8426  2.7973  2.5297
   83SLPC   C26 7818   4.321   4.251   5.788 -0.7871  0.6665 -0.6903
   83SLPC   H6R 7819   4.329   4.144   5.817  0.1556  0.5810 -1.2200
   83SLPC   H6S 7820   4.217   4.285   5.767 -1.9744 -1.7369  0.8574
   83SLPC   C27 7821   4.377   4.340   5.899  0.2508 -0.4895 -0.2880
   83SLPC   H7R 7822   4.383   4.441   5.854  1.5221 -1.3509 -2.2186
   83SLPC   H7S 7823   4.482   4.314   5.923  1.0206  0.0416 -2.8088
   83SLPC   C28 7824   4.284   4.344   6.027  0.0189  0.0312 -0.1020
   83SLPC   H8R 7825   4.184   4.350   5.979  0.4034  0.7067 -0.8322
   83SLPC   H8S 7826   4.307   4.442   6.073 -3.8515  1.2406 -0.3528
   83SLPC   C29 7827   4.310   4.221   6.112  0.1226 -0.5270  0.4449
   83SLPC   H9R 7828   4.294   4.121   6.067  2.0250 -3.1104  4.8358
   83SLPC  C210 7829   4.356   4.215   6.241 -0.1640 -0.4961 -0.4677
   83SLPC  H10R 7830   4.363   4.118   6.292  0.3869  0.4104  1.2678
   83SLPC  C211 7831   4.367   4.343   6.326  0.2398 -0.0195 -0.2176
   83SLPC  H11R 7832   4.283   4.411   6.301  0.0633 -0.9819 -2.5629
   83SLPC  H11S 7833   4.466   4.382   6.295  0.3410 -0.1997 -0.1213
   83SLPC  C212 7834   4.374   4.312   6.470  0.3090  0.1436  0.2663
   83SLPC  H12R 7835   4.478   4.289   6.500 -0.3345 -0.1573  2.4546
   83SLPC  C213 7836   4.281   4.335   6.562  0.3761  0.5782 -0.0446
   83SLPC  H13R 7837   4.314   4.314   6.665 -0.3224 -1.5398 -0.2089
   83SLPC  C214 7838   4.133   4.354   6.543 -1.0063 -0.1639  0.3627
   83SLPC  H14R 7839   4.078   4.265   6.504 -0.9302 -0.6882  1.4102
   83SLPC  H14S 7840   4.123   4.433   6.466  1.9848  0.7274  0.7966
   83SLPC  C215 7841   4.059   4.390   6.675 -0.0997  1.1127  0.2893
   83SLPC  H15R 7842   4.062   4.301   6.741  0.1475 -0.6011 -1.8961
   83SLPC  H15S 7843   3.953   4.392   6.642  0.2696 -1.0825 -1.2993
   83SLPC  C216 7844   4.107   4.517   6.742 -0.0107  0.4242 -0.5480
   83SLPC  H16R 7845   4.048   4.594   6.689  0.0931  0.7388 -0.2079
   83SLPC  H16S 7846   4.212   4.547   6.718 -0.2352  0.8510 -1.0102
   83SLPC  C217 7847   4.090   4.516   6.896  0.1014 -0.5343  0.4175
   83SLPC  H17R 7848   3.980   4.519   6.917 -0.0387  0.3007 -0.3479
   83SLPC  H17S 7849   4.133   4.609   6.941 -2.5550  0.1612  1.7527
   83SLPC  C218 7850   4.155   4.397   6.970  0.5680  0.0212  0.1130
   83SLPC  H18R 7851   4.260   4.370   6.946 -0.4469 -3.1119 -1.3757
   83SLPC  H18S 7852   4.102   4.301   6.952  0.2199  0.6576 -2.6900
   83SLPC  H18T 7853   4.156   4.427   7.077 -0.3561 -1.6464  0.6338
   83SLPC   C33 7854   3.746   4.177   5.571 -0.0460  0.1899 -0.7530
   83SLPC   H3X 7855   3.791   4.077   5.552 -1.0547 -0.9303  2.1793
   83SLPC   H3Y 7856   3.636   4.166   5.562  0.0454 -0.1211 -1.5639
   83SLPC   C34 7857   3.779   4.219   5.711  0.0219  1.0646  0.1022
   83SLPC   H4X 7858   3.724   4.306   5.753 -0.1983 -0.2538  2.7467
   83SLPC   H4Y 7859   3.884   4.253   5.723  0.4793 -0.7481  1.5816
   83SLPC   C35 7860   3.767   4.113   5.830 -0.0103  0.0203  0.2322
   83SLPC   H5X 7861   3.837   4.030   5.808  0.4440  0.3107  0.5527
   83SLPC   H5Y 7862   3.659   4.088   5.820 -0.4323  1.2892  1.3258
   83SLPC   C36 7863   3.806   4.176   5.966 -0.7824  0.0712  0.5490
   83SLPC   H6X 7864   3.780   4.284   5.965 -0.0985  0.2384 -0.0721
   83SLPC   H6Y 7865   3.917   4.171   5.963 -0.6319  1.9256 -3.1426
   83SLPC   C37 7866   3.740   4.107   6.080  0.2978  0.3950  0.0426
   83SLPC   H7X 7867   3.770   4.002   6.058 -1.2265 -0.3378  1.2130
   83SLPC   H7Y 7868   3.630   4.120   6.085 -0.0257 -2.1162  0.9674
   83SLPC   C38 7869   3.786   4.154   6.217 -0.0415  0.0111 -0.7880
   83SLPC   H8X 7870   3.755   4.259   6.231 -1.0284 -0.2428 -0.9608
   83SLPC   H8Y 7871   3.895   4.143   6.232 -0.1263  1.8474  1.9104
   83SLPC   C39 7872   3.712   4.083   6.333 -0.0832 -0.3813 -0.4977
   83SLPC   H9X 7873   3.723   3.975   6.310 -0.5878 -0.3668 -0.8253
   83SLPC   H9Y 7874   3.604   4.112   6.335 -0.2273 -0.8614 -0.9509
   83SLPC  C310 7875   3.787   4.114   6.467  0.6486  0.0661 -0.5865
   83SLPC  H10X 7876   3.770   4.218   6.502  0.1563 -0.3251  0.3745
   83SLPC  H10Y 7877   3.896   4.117   6.446  0.6278  1.0209 -0.5964
   83SLPC  C311 7878   3.744   4.025   6.579  0.0650 -0.0675 -0.4855
   83SLPC  H11X 7879   3.767   3.922   6.545  2.8450  0.7361 -1.2977
   83SLPC  H11Y 7880   3.634   4.036   6.596 -0.1980 -0.4429 -1.8535
   83SLPC  C312 7881   3.816   4.063   6.707  0.1687  0.1451  0.9641
   83SLPC  H12X 7882   3.823   4.174   6.703 -3.0679  0.5081  2.3291
   83SLPC  H12Y 7883   3.922   4.030   6.707 -0.5648 -2.4334  0.8072
   83SLPC  C313 7884   3.737   4.021   6.830 -0.8918  0.4452 -0.5680
   83SLPC  H13X 7885   3.630   4.049   6.825 -1.1457  0.5440  3.0336
   83SLPC  H13Y 7886   3.785   4.065   6.920 -0.7244 -1.6522  0.4454
   83SLPC  C314 7887   3.721   3.873   6.844 -0.5119  0.3778  0.6152
   83SLPC  H14X 7888   3.823   3.839   6.817  0.2538  2.9967 -0.0750
   83SLPC  H14Y 7889   3.645   3.834   6.772  1.6893 -1.3252 -0.9306
   83SLPC  C315 7890   3.675   3.825   6.986 -0.6556 -0.0958  0.1875
   83SLPC  H15X 7891   3.590   3.892   7.013 -0.8940 -0.0489 -0.6573
   83SLPC  H15Y 7892   3.763   3.858   7.046  0.6856  0.3617 -1.9219
   83SLPC  C316 7893   3.622   3.679   6.989 -0.3158  0.2986 -1.1564
   83SLPC  H16X 7894   3.712   3.620   7.017  0.3122  1.8381  0.2559
   83SLPC  H16Y 7895   3.574   3.648   6.893  0.1152 -0.3455 -1.1723
   83SLPC  C317 7896   3.523   3.653   7.106  0.0321  0.1400  0.0380
   83SLPC  H17X 7897   3.495   3.546   7.099 -0.2625  0.1302  1.0710
   83SLPC  H17Y 7898   3.431   3.712   7.089 -0.9652 -1.4733 -0.3725
   83SLPC  C318 7899   3.578   3.686   7.249 -0.1144 -0.5873 -0.3520
   83SLPC  H18X 7900   3.511   3.657   7.332  2.3281 -0.3371  1.8435
   83SLPC  H18Y 7901   3.618   3.790   7.256 -0.5157 -0.5015  0.7498
   83SLPC  H18Z 7902   3.668   3.621   7.246  0.8814  0.7339  0.0428
   84SLPC     N 7903   2.770   1.261   4.124  0.4934  0.6847 -0.1285
   84SLPC   C13 7904   2.922   1.265   4.127 -0.6163  0.0135 -0.3957
   84SLPC  H13A 7905   2.964   1.334   4.199  0.2977 -0.0625 -0.8420
   84SLPC  H13B 7906   2.955   1.168   4.161 -0.7162  0.3009  0.5807
   84SLPC  H13C 7907   2.960   1.292   4.030 -0.0381 -0.4460 -0.3038
   84SLPC   C14 7908   2.726   1.159   4.021  0.3573  0.0245 -0.3200
   84SLPC  H14A 7909   2.622   1.168   3.991  0.3834 -0.6594 -0.6540
   84SLPC  H14B 7910   2.777   1.158   3.926  0.6436 -1.9051 -0.1819
   84SLPC  H14C 7911   2.740   1.057   4.053  1.7009  0.1307 -0.5085
   84SLPC   C15 7912   2.713   1.394   4.078 -0.1260  0.1888  0.9215
   84SLPC  H15A 7913   2.762   1.436   3.992 -0.0397  0.1353  0.9440
   84SLPC  H15B 7914   2.612   1.368   4.051 -0.0139  0.2785  0.4185
   84SLPC  H15C 7915   2.707   1.455   4.167 -0.1304  0.3582  0.8056
   84SLPC   C12 7916   2.714   1.216   4.257  0.0285  0.2513 -0.1095
   84SLPC  H12A 7917   2.606   1.225   4.248  0.0570  0.5934 -0.1269
   84SLPC  H12B 7918   2.756   1.284   4.330  0.9252  0.5687 -0.9046
   84SLPC   C11 7919   2.752   1.075   4.312 -0.7296 -0.1452 -0.1576
   84SLPC  H11A 7920   2.724   1.071   4.420 -1.6635 -0.1347 -0.3872
   84SLPC  H11B 7921   2.862   1.061   4.317 -0.6780  0.4573  0.5594
   84SLPC     P 7922   2.531   0.927   4.292  0.1586 -0.3612 -0.1813
   84SLPC   O13 7923   2.463   1.055   4.328 -1.0059 -0.1853 -0.3760
   84SLPC   O14 7924   2.470   0.837   4.193  0.0913  0.4810 -0.2160
   84SLPC   O12 7925   2.681   0.966   4.248 -0.5863 -0.2425  0.0821
   84SLPC   O11 7926   2.561   0.847   4.426 -0.2975 -0.2061 -0.1127
   84SLPC    C1 7927   2.633   0.722   4.415 -0.0185 -0.5986  0.6556
   84SLPC    HA 7928   2.559   0.649   4.375 -0.7422 -0.1463  1.1357
   84SLPC    HB 7929   2.720   0.731   4.347  0.4749 -0.0392  1.3532
   84SLPC    C2 7930   2.682   0.673   4.555 -0.4641  0.4399 -0.6470
   84SLPC    HS 7931   2.704   0.564   4.551  0.6808  0.5687  0.9122
   84SLPC   O21 7932   2.581   0.708   4.660 -0.1400 -0.2418  0.2913
   84SLPC   C21 7933   2.480   0.621   4.673 -0.7803 -0.2665  0.0376
   84SLPC   O22 7934   2.454   0.528   4.592  0.4090 -0.0612 -0.0111
   84SLPC   C22 7935   2.399   0.652   4.797 -0.1100 -0.1278 -0.1133
   84SLPC   H2R 7936   2.464   0.713   4.864 -1.0429 -0.2879  0.9687
   84SLPC   H2S 7937   2.319   0.709   4.745  0.8339  0.5811 -0.8105
   84SLPC    C3 7938   2.814   0.740   4.602  0.9654  0.9117 -0.1036
   84SLPC    HX 7939   2.803   0.849   4.583 -1.1745  0.2733 -3.3512
   84SLPC    HY 7940   2.903   0.714   4.541  0.8117 -0.1621  0.1140
   84SLPC   O31 7941   2.850   0.722   4.743  0.0839 -0.3764 -0.0491
   84SLPC   C31 7942   2.898   0.609   4.783  0.0995 -0.3184 -0.1079
   84SLPC   O32 7943   2.933   0.517   4.717 -0.3471  0.3697  0.1988
   84SLPC   C32 7944   2.923   0.625   4.933  0.3751  0.4829 -0.1268
   84SLPC   H2X 7945   2.892   0.721   4.979  0.6188  0.1595  0.7334
   84SLPC   H2Y 7946   3.032   0.628   4.957  0.0160  1.1784  1.5676
   84SLPC   C23 7947   2.338   0.523   4.857  0.8131 -0.6539  0.1691
   84SLPC   H3R 7948   2.417   0.449   4.884  1.6977  1.3579  3.7340
   84SLPC   H3S 7949   2.264   0.487   4.782 -0.5903  0.9145  0.7379
   84SLPC   C24 7950   2.264   0.542   4.990 -0.5079  0.2262  0.3673
   84SLPC   H4R 7951   2.209   0.451   5.021 -1.1363  0.2623 -0.5821
   84SLPC   H4S 7952   2.192   0.623   4.965  1.5587  1.4673 -2.1359
   84SLPC   C25 7953   2.364   0.597   5.101  0.6841  0.7111 -0.1093
   84SLPC   H5R 7954   2.417   0.687   5.061  0.1683  1.3521  0.6307
   84SLPC   H5S 7955   2.439   0.516   5.113  0.3412  0.3856 -0.1473
   84SLPC   C26 7956   2.303   0.630   5.238 -0.4702  0.4842  0.2071
   84SLPC   H6R 7957   2.263   0.535   5.277  3.1386 -0.8572  0.9877
   84SLPC   H6S 7958   2.226   0.711   5.234  0.1979  1.2250  1.7199
   84SLPC   C27 7959   2.406   0.681   5.337  0.1387  0.0882 -0.8737
   84SLPC   H7R 7960   2.470   0.758   5.288  1.2589 -0.4483 -0.2732
   84SLPC   H7S 7961   2.473   0.597   5.364 -0.3877  0.3590  1.4037
   84SLPC   C28 7962   2.346   0.739   5.468 -0.1411 -0.0362  0.1678
   84SLPC   H8R 7963   2.276   0.821   5.443 -1.2360 -0.8773  0.3796
   84SLPC   H8S 7964   2.428   0.787   5.525 -0.4585  0.1099  0.5068
   84SLPC   C29 7965   2.293   0.626   5.554 -0.5151  0.1725 -0.1237
   84SLPC   H9R 7966   2.202   0.573   5.522  1.4339 -2.6123 -1.5592
   84SLPC  C210 7967   2.338   0.574   5.662 -0.3351  0.0054  0.0073
   84SLPC  H10R 7968   2.287   0.492   5.713  2.0906 -0.5781  1.6247
   84SLPC  C211 7969   2.474   0.595   5.727  0.3151 -0.2475 -0.0664
   84SLPC  H11R 7970   2.555   0.602   5.652  2.3396 -1.9887  1.8289
   84SLPC  H11S 7971   2.507   0.500   5.775  0.6775  0.0106  0.1968
   84SLPC  C212 7972   2.473   0.714   5.824  0.2093  0.1127  0.0288
   84SLPC  H12R 7973   2.456   0.815   5.785  0.2090  0.5802  1.1938
   84SLPC  C213 7974   2.526   0.708   5.949 -0.8041 -0.1895 -0.2960
   84SLPC  H13R 7975   2.519   0.801   6.007 -0.5949  1.4799 -2.7667
   84SLPC  C214 7976   2.574   0.579   6.014  0.1361  0.3807 -0.3957
   84SLPC  H14R 7977   2.685   0.576   6.007  0.3638  0.5691  2.1423
   84SLPC  H14S 7978   2.531   0.486   5.970 -1.0864  0.6039  0.2873
   84SLPC  C215 7979   2.543   0.575   6.163 -0.0017 -0.6529 -0.0472
   84SLPC  H15R 7980   2.433   0.587   6.173  0.3213  1.5644  1.8606
   84SLPC  H15S 7981   2.590   0.668   6.203 -0.2468 -1.1982  1.5490
   84SLPC  C216 7982   2.597   0.465   6.253 -0.2097  0.0220  0.0642
   84SLPC  H16R 7983   2.706   0.468   6.231 -0.6916  0.4469 -2.6663
   84SLPC  H16S 7984   2.558   0.366   6.219 -1.3944  0.0401  1.3081
   84SLPC  C217 7985   2.560   0.502   6.392 -0.0888 -0.1564 -0.6985
   84SLPC  H17R 7986   2.454   0.534   6.389 -0.0298  0.0950 -0.2852
   84SLPC  H17S 7987   2.611   0.592   6.434  0.8805 -1.3092  0.7058
   84SLPC  C218 7988   2.572   0.382   6.485 -0.5955 -0.4722 -0.8075
   84SLPC  H18R 7989   2.541   0.406   6.589 -0.6900 -2.5660 -0.3130
   84SLPC  H18S 7990   2.675   0.340   6.491 -0.3911 -0.0103 -0.9799
   84SLPC  H18T 7991   2.501   0.302   6.454 -0.6362 -0.5718 -0.4620
   84SLPC   C33 7992   2.871   0.502   5.011  0.3014 -0.1255  0.0304
   84SLPC   H3X 7993   2.915   0.406   4.975  2.2915  0.1381  1.5521
   84SLPC   H3Y 7994   2.765   0.492   4.979  0.9757  2.3248 -3.6729
   84SLPC   C34 7995   2.883   0.514   5.169 -0.9395 -0.1671  0.6481
   84SLPC   H4X 7996   2.830   0.428   5.215  1.3308 -1.5206  0.8759
   84SLPC   H4Y 7997   2.833   0.611   5.191  0.7005  0.6066  1.0748
   84SLPC   C35 7998   3.026   0.518   5.225 -0.0376  0.7517  0.8674
   84SLPC   H5X 7999   3.077   0.616   5.215  1.2763  0.0181  0.0608
   84SLPC   H5Y 8000   3.096   0.456   5.165  0.3849  2.2393 -0.2226
   84SLPC   C36 8001   3.049   0.494   5.374 -0.4139  0.9615  0.0758
   84SLPC   H6X 8002   3.156   0.516   5.391 -0.3627  1.8397 -1.2493
   84SLPC   H6Y 8003   3.026   0.388   5.399 -0.1453  0.6636 -0.9031
   84SLPC   C37 8004   2.964   0.594   5.451  0.7600  0.5516 -0.2514
   84SLPC   H7X 8005   2.856   0.566   5.450  0.5782  1.2426 -0.5580
   84SLPC   H7Y 8006   2.974   0.695   5.404  0.2543 -0.0197 -1.6500
   84SLPC   C38 8007   2.989   0.599   5.608 -0.0923  0.7304  0.5478
   84SLPC   H8X 8008   3.098   0.623   5.611  0.7190 -2.2882 -0.9613
   84SLPC   H8Y 8009   2.969   0.503   5.660 -1.7402  1.1178  0.6687
   84SLPC   C39 8010   2.894   0.703   5.673 -0.9008  0.4994 -0.7318
   84SLPC   H9X 8011   2.791   0.672   5.645 -0.0382 -2.0427 -1.3196
   84SLPC   H9Y 8012   2.917   0.808   5.643  1.3995  0.1845 -0.2656
   84SLPC  C310 8013   2.911   0.676   5.830  0.3840 -0.4217 -0.0604
   84SLPC  H10X 8014   2.910   0.566   5.846  3.2649 -0.9835 -2.7449
   84SLPC  H10Y 8015   2.826   0.718   5.888  0.8270  0.3530  0.0379
   84SLPC  C311 8016   3.038   0.743   5.891  0.0234  0.4374  0.2040
   84SLPC  H11X 8017   3.044   0.845   5.849  1.1754 -0.0362 -0.8355
   84SLPC  H11Y 8018   3.130   0.702   5.845  0.4301  1.1766  0.3419
   84SLPC  C312 8019   3.050   0.743   6.045  0.5324 -0.0217 -0.0323
   84SLPC  H12X 8020   3.087   0.641   6.068  2.3875  0.5402 -0.3326
   84SLPC  H12Y 8021   2.951   0.758   6.092  0.4093 -0.1856 -0.2395
   84SLPC  C313 8022   3.163   0.830   6.103  0.0663 -0.4007 -0.7413
   84SLPC  H13X 8023   3.262   0.802   6.062  0.2722  0.5557 -0.9151
   84SLPC  H13Y 8024   3.165   0.820   6.213 -0.0635  5.5256  0.1349
   84SLPC  C314 8025   3.153   0.986   6.087  0.1635 -0.0101 -1.0538
   84SLPC  H14X 8026   3.049   1.021   6.101  0.6385  0.2583  2.9132
   84SLPC  H14Y 8027   3.181   0.993   5.980 -0.6716 -1.8337 -1.4291
   84SLPC  C315 8028   3.252   1.043   6.184 -0.5641  0.1908  0.1749
   84SLPC  H15X 8029   3.333   0.968   6.195 -0.6284  0.2499  1.1190
   84SLPC  H15Y 8030   3.204   1.052   6.284 -1.2304 -0.1050 -0.1141
   84SLPC  C316 8031   3.304   1.181   6.142 -0.3481 -0.5708  0.0393
   84SLPC  H16X 8032   3.225   1.256   6.164 -0.5578 -0.3880 -1.2073
   84SLPC  H16Y 8033   3.315   1.175   6.031  0.1483 -0.1210  0.0589
   84SLPC  C317 8034   3.443   1.218   6.197  0.0189  0.5370 -0.4623
   84SLPC  H17X 8035   3.469   1.326   6.189  2.0257  0.2312  1.0598
   84SLPC  H17Y 8036   3.525   1.159   6.149  1.3050 -0.0600  2.2647
   84SLPC  C318 8037   3.464   1.181   6.351 -0.0617 -0.1358 -0.2920
   84SLPC  H18X 8038   3.382   1.246   6.387 -0.0604  0.1520 -0.7992
   84SLPC  H18Y 8039   3.559   1.222   6.390  0.9486 -0.8514 -1.8650
   84SLPC  H18Z 8040   3.446   1.076   6.383  0.6435  0.0032  0.5790
   85SLPC     N 8041   4.049   0.225   4.482  0.4747 -0.1750 -0.1999
   85SLPC   C13 8042   4.194   0.218   4.438  0.2147 -0.7494 -0.5754
   85SLPC  H13A 8043   4.216   0.132   4.376 -2.9716 -1.4722 -0.8499
   85SLPC  H13B 8044   4.212   0.309   4.383  1.5055 -1.4088 -1.2901
   85SLPC  H13C 8045   4.269   0.204   4.515  0.8685  0.6474 -0.9263
   85SLPC   C14 8046   3.982   0.304   4.369  0.1414  0.4817 -0.1067
   85SLPC  H14A 8047   3.876   0.288   4.385  0.8843 -3.3042  2.5266
   85SLPC  H14B 8048   4.000   0.409   4.355 -0.0810  0.6792  0.9914
   85SLPC  H14C 8049   4.023   0.255   4.282  1.7357  3.3367 -1.0573
   85SLPC   C15 8050   4.044   0.290   4.618 -0.4186 -0.5686  0.2968
   85SLPC  H15A 8051   4.107   0.377   4.620  0.4055 -1.1268 -0.4618
   85SLPC  H15B 8052   3.945   0.331   4.629 -0.2740 -0.2832  0.5457
   85SLPC  H15C 8053   4.061   0.232   4.707 -1.7920  0.6733  1.4263
   85SLPC   C12 8054   3.986   0.090   4.490 -0.7911 -0.4951 -0.3815
   85SLPC  H12A 8055   4.029   0.029   4.568  1.4757 -0.5501 -1.6003
   85SLPC  H12B 8056   4.006   0.036   4.399 -1.1701 -0.7424 -0.3216
   85SLPC   C11 8057   3.831   0.086   4.508 -0.5188 -0.2450  0.1004
   85SLPC  H11A 8058   3.824  -0.025   4.513  1.8569 -0.5425 -1.4241
   85SLPC  H11B 8059   3.783   0.108   4.411  0.3158 -1.3196 -0.5842
   85SLPC     P 8060   3.665   0.249   4.619 -0.4832 -0.0287  0.0362
   85SLPC   O13 8061   3.678   0.355   4.717  0.2045  0.0137 -0.7638
   85SLPC   O14 8062   3.650   0.283   4.483 -0.4281 -0.6138  0.6684
   85SLPC   O12 8063   3.790   0.163   4.631  0.1343  0.3358 -0.1720
   85SLPC   O11 8064   3.552   0.152   4.666  0.0750  0.1062  0.2358
   85SLPC    C1 8065   3.564   0.048   4.764  0.3463  0.0804 -0.2995
   85SLPC    HA 8066   3.472  -0.016   4.762  0.1205  0.3563  0.9304
   85SLPC    HB 8067   3.654  -0.013   4.742  0.0272 -0.0390 -1.3317
   85SLPC    C2 8068   3.571   0.105   4.906 -0.0261  0.3420 -0.6501
   85SLPC    HS 8069   3.667   0.158   4.926 -0.6592  1.0149  0.7514
   85SLPC   O21 8070   3.555   0.003   5.004  0.3899  0.3752 -0.2975
   85SLPC   C21 8071   3.664  -0.044   5.056 -1.1724  0.6055 -0.5226
   85SLPC   O22 8072   3.777  -0.006   5.030  0.0175  0.2014  0.3251
   85SLPC   C22 8073   3.630  -0.171   5.139  0.3855  0.6552 -0.6137
   85SLPC   H2R 8074   3.524  -0.173   5.173  0.3331 -0.2545 -0.7931
   85SLPC   H2S 8075   3.663  -0.255   5.073  0.4304 -0.0857  0.3381
   85SLPC    C3 8076   3.451   0.201   4.931  0.1127 -0.8834 -0.1352
   85SLPC    HX 8077   3.358   0.147   4.905 -0.6053  0.4457 -0.4079
   85SLPC    HY 8078   3.458   0.281   4.854  0.9573 -1.3259 -0.5311
   85SLPC   O31 8079   3.453   0.255   5.069 -0.4992  0.7385  0.4547
   85SLPC   C31 8080   3.371   0.191   5.154  0.7473  0.1489 -0.4540
   85SLPC   O32 8081   3.299   0.094   5.125  0.2594  0.3541  0.3466
   85SLPC   C32 8082   3.396   0.248   5.296  0.1740 -0.1013  0.9839
   85SLPC   H2X 8083   3.343   0.344   5.310 -1.0105 -0.6804  0.5436
   85SLPC   H2Y 8084   3.503   0.272   5.317  0.6216 -1.1191 -0.0271
   85SLPC   C23 8085   3.710  -0.174   5.262 -0.7869  0.6860 -0.4836
   85SLPC   H3R 8086   3.819  -0.176   5.240 -0.4155 -3.9089  0.6718
   85SLPC   H3S 8087   3.683  -0.269   5.314 -0.3287  1.7691  1.8554
   85SLPC   C24 8088   3.678  -0.069   5.367 -0.3873 -0.3973 -0.6412
   85SLPC   H4R 8089   3.574  -0.070   5.406 -0.3374 -0.7911 -0.5166
   85SLPC   H4S 8090   3.695   0.035   5.332 -0.0066 -0.9624 -2.2268
   85SLPC   C25 8091   3.781  -0.082   5.483  0.4647 -0.3406  0.1828
   85SLPC   H5R 8092   3.888  -0.097   5.456  0.8372 -1.8545  2.2399
   85SLPC   H5S 8093   3.772   0.012   5.541  0.7830  0.0055 -0.3257
   85SLPC   C26 8094   3.755  -0.192   5.591 -0.4828  0.3025  0.0958
   85SLPC   H6R 8095   3.779  -0.287   5.538  0.1181  1.4553 -1.8023
   85SLPC   H6S 8096   3.649  -0.198   5.623 -0.5462 -0.1946 -0.1952
   85SLPC   C27 8097   3.852  -0.173   5.719  0.2816 -0.0765  0.0826
   85SLPC   H7R 8098   3.816  -0.078   5.765 -1.8319 -0.0985 -1.3804
   85SLPC   H7S 8099   3.959  -0.158   5.689  1.3577 -3.1061  2.0172
   85SLPC   C28 8100   3.831  -0.284   5.823 -0.2328 -0.6006  0.1599
   85SLPC   H8R 8101   3.899  -0.363   5.785  1.7206  0.8039  0.6005
   85SLPC   H8S 8102   3.728  -0.325   5.814 -0.2624 -0.2365 -1.7853
   85SLPC   C29 8103   3.881  -0.244   5.961  0.0189 -1.2624  0.5929
   85SLPC   H9R 8104   3.968  -0.177   5.967 -2.7663  2.7774  0.2262
   85SLPC  C210 8105   3.807  -0.266   6.075  0.1049  0.2275 -0.6066
   85SLPC  H10R 8106   3.842  -0.220   6.169 -0.3767 -2.5773  1.0697
   85SLPC  C211 8107   3.688  -0.368   6.084 -0.1067 -0.2592 -0.1422
   85SLPC  H11R 8108   3.685  -0.422   6.181 -0.3693  1.3197  0.7605
   85SLPC  H11S 8109   3.695  -0.452   6.011 -0.0925  0.3303 -0.8266
   85SLPC  C212 8110   3.550  -0.311   6.064 -0.0779  0.0484  0.1005
   85SLPC  H12R 8111   3.558  -0.222   6.001  2.8105  0.0775  0.3765
   85SLPC  C213 8112   3.437  -0.354   6.119  0.4135  0.0744 -0.3780
   85SLPC  H13R 8113   3.342  -0.300   6.104  0.7844  0.9447  0.3596
   85SLPC  C214 8114   3.412  -0.474   6.210  0.7474 -0.3009  0.6481
   85SLPC  H14R 8115   3.321  -0.446   6.267  0.5417  0.2788  0.0465
   85SLPC  H14S 8116   3.488  -0.485   6.290  0.5786 -0.7540  0.7531
   85SLPC  C215 8117   3.405  -0.613   6.139  0.5918 -0.0730 -0.4501
   85SLPC  H15R 8118   3.479  -0.608   6.056 -0.0649  0.9668 -1.0068
   85SLPC  H15S 8119   3.306  -0.609   6.089  0.0927  0.7056  0.5662
   85SLPC  C216 8120   3.416  -0.745   6.215 -0.7619  0.2653  1.1613
   85SLPC  H16R 8121   3.523  -0.755   6.242  0.6587 -0.9679 -3.8448
   85SLPC  H16S 8122   3.385  -0.829   6.149 -0.8808  1.9869 -1.1109
   85SLPC  C217 8123   3.316  -0.750   6.327  0.1821  1.0098 -0.6720
   85SLPC  H17R 8124   3.207  -0.741   6.306 -0.1996 -0.1503  0.6433
   85SLPC  H17S 8125   3.336  -0.668   6.400  1.2803  3.0086 -3.0523
   85SLPC  C218 8126   3.306  -0.894   6.390 -0.0959  0.3290 -0.7923
   85SLPC  H18R 8127   3.264  -0.968   6.319 -1.4869  1.0182 -0.7319
   85SLPC  H18S 8128   3.232  -0.884   6.473  0.5508  0.9983 -0.2826
   85SLPC  H18T 8129   3.403  -0.923   6.434 -1.1510  0.3181  1.7247
   85SLPC   C33 8130   3.348   0.154   5.414 -0.4377 -0.1633  0.8672
   85SLPC   H3X 8131   3.386   0.050   5.404  0.7995 -0.0149  3.3153
   85SLPC   H3Y 8132   3.237   0.148   5.404 -0.3044 -3.5142  0.2339
   85SLPC   C34 8133   3.383   0.207   5.550  0.1915  0.0334  0.5104
   85SLPC   H4X 8134   3.488   0.242   5.555 -0.3263  2.1254 -1.6054
   85SLPC   H4Y 8135   3.372   0.123   5.622  0.9378  0.5695  1.2691
   85SLPC   C35 8136   3.291   0.322   5.613  0.2006  0.3607  0.3354
   85SLPC   H5X 8137   3.187   0.281   5.613  0.6597 -0.8716 -1.1675
   85SLPC   H5Y 8138   3.292   0.412   5.548 -0.6678 -0.3981 -0.7685
   85SLPC   C36 8139   3.333   0.359   5.754  0.0090  0.6298 -0.0416
   85SLPC   H6X 8140   3.442   0.346   5.772 -0.0341 -0.4032 -0.4463
   85SLPC   H6Y 8141   3.277   0.296   5.827  1.0662  1.4305  1.5058
   85SLPC   C37 8142   3.296   0.500   5.783  0.3483 -0.2834  0.0048
   85SLPC   H7X 8143   3.186   0.505   5.796  0.3629 -1.4265  0.7036
   85SLPC   H7Y 8144   3.312   0.572   5.700 -0.8505  1.0428  0.8887
   85SLPC   C38 8145   3.371   0.564   5.904 -0.4798 -0.6615  0.6347
   85SLPC   H8X 8146   3.349   0.673   5.908  0.9806 -0.3115  0.1391
   85SLPC   H8Y 8147   3.479   0.555   5.879 -1.0114  0.1198 -2.3332
   85SLPC   C39 8148   3.351   0.499   6.043 -0.6558  0.6088  0.3144
   85SLPC   H9X 8149   3.386   0.394   6.028 -0.9859  0.2030  2.1221
   85SLPC   H9Y 8150   3.240   0.487   6.044 -0.6786 -0.6306 -2.8942
   85SLPC  C310 8151   3.406   0.569   6.163 -0.3587 -0.1193 -0.3500
   85SLPC  H10X 8152   3.326   0.586   6.238  0.6092 -0.3468  0.7470
   85SLPC  H10Y 8153   3.466   0.654   6.124  1.2924 -1.3352 -0.5831
   85SLPC  C311 8154   3.507   0.484   6.244  0.7697 -0.3902  0.5041
   85SLPC  H11X 8155   3.594   0.463   6.179  1.0157  1.4344  0.1897
   85SLPC  H11Y 8156   3.471   0.381   6.264  2.5988 -1.3116 -0.6660
   85SLPC  C312 8157   3.564   0.556   6.368 -0.1427  0.2949 -0.5223
   85SLPC  H12X 8158   3.478   0.576   6.436 -0.5088  0.3461 -0.9950
   85SLPC  H12Y 8159   3.600   0.653   6.327  0.1660  0.0926 -0.7356
   85SLPC  C313 8160   3.685   0.496   6.441  0.6031 -0.5006 -1.2952
   85SLPC  H13X 8161   3.648   0.398   6.480 -0.1713  0.4537  0.4968
   85SLPC  H13Y 8162   3.719   0.562   6.524 -1.3692  1.7051 -2.1306
   85SLPC  C314 8163   3.811   0.492   6.358  0.3770  0.7463 -0.2717
   85SLPC  H14X 8164   3.845   0.587   6.312  0.8912  0.2133 -1.0316
   85SLPC  H14Y 8165   3.787   0.432   6.267 -2.8285  0.6350  0.5134
   85SLPC  C315 8166   3.919   0.432   6.440  0.1177 -0.4438 -0.0365
   85SLPC  H15X 8167   3.878   0.335   6.476  1.5091 -0.9852  0.1558
   85SLPC  H15Y 8168   3.932   0.484   6.537  0.7774 -0.7617  0.0527
   85SLPC  C316 8169   4.058   0.420   6.367 -1.3777 -0.0051 -0.6160
   85SLPC  H16X 8170   4.075   0.525   6.335  0.1280 -0.0819 -0.1012
   85SLPC  H16Y 8171   4.050   0.353   6.278  2.3732  1.3169 -2.1226
   85SLPC  C317 8172   4.171   0.380   6.458 -0.1457 -0.7995  0.2512
   85SLPC  H17X 8173   4.174   0.273   6.487  0.2508 -0.9698 -0.3861
   85SLPC  H17Y 8174   4.156   0.434   6.554 -2.4723 -0.4054 -0.2884
   85SLPC  C318 8175   4.312   0.422   6.409 -0.6761 -1.6245 -0.1477
   85SLPC  H18X 8176   4.364   0.356   6.337  1.3403  0.4214 -0.6796
   85SLPC  H18Y 8177   4.379   0.431   6.497  0.7955 -1.8228 -1.2143
   85SLPC  H18Z 8178   4.312   0.524   6.365 -0.2756 -0.4073  2.4983
   86SLPC     N 8179   6.412   1.729   4.837  0.4621  0.3546 -0.3988
   86SLPC   C13 8180   6.387   1.870   4.794 -0.4179  0.1958 -0.0713
   86SLPC  H13A 8181   6.309   1.876   4.720  0.8618  2.1331 -1.3512
   86SLPC  H13B 8182   6.344   1.918   4.881  2.2560  0.8136  0.9902
   86SLPC  H13C 8183   6.473   1.927   4.763 -1.7487  2.0580 -0.5450
   86SLPC   C14 8184   6.497   1.656   4.734 -0.2273  0.0329 -0.6039
   86SLPC  H14A 8185   6.461   1.667   4.633 -0.3591  0.8136 -0.4744
   86SLPC  H14B 8186   6.604   1.668   4.735 -0.0490 -1.3659 -0.3763
   86SLPC  H14C 8187   6.476   1.551   4.751 -0.2746 -0.2096 -2.0280
   86SLPC   C15 8188   6.284   1.650   4.844  0.1218 -1.1020  0.0428
   86SLPC  H15A 8189   6.234   1.645   4.748 -0.5248 -0.3129  0.3297
   86SLPC  H15B 8190   6.307   1.551   4.879 -1.9181 -1.6360 -0.0406
   86SLPC  H15C 8191   6.221   1.692   4.921 -0.4902 -0.2805 -0.8758
   86SLPC   C12 8192   6.493   1.730   4.970  0.4161  0.1533  0.0299
   86SLPC  H12A 8193   6.572   1.802   4.958  0.2071  0.4814  0.5892
   86SLPC  H12B 8194   6.532   1.629   4.977 -2.0635 -0.9388 -0.7301
   86SLPC   C11 8195   6.412   1.754   5.101  0.1730  0.4539  1.2556
   86SLPC  H11A 8196   6.484   1.762   5.185  2.6588 -1.2053 -0.5664
   86SLPC  H11B 8197   6.351   1.661   5.106  0.6420  0.0311 -0.2409
   86SLPC     P 8198   6.197   1.891   5.144 -0.2402  0.1946  0.2607
   86SLPC   O13 8199   6.173   2.033   5.180  0.5750  0.5007 -0.7092
   86SLPC   O14 8200   6.101   1.834   5.042  0.4676  0.2429 -0.6643
   86SLPC   O12 8201   6.341   1.866   5.087 -0.5923  0.0803  0.2842
   86SLPC   O11 8202   6.189   1.807   5.279 -0.1959 -0.6025  0.1193
   86SLPC    C1 8203   6.262   1.859   5.390 -0.0989  0.1035 -0.4351
   86SLPC    HA 8204   6.366   1.885   5.363 -0.2645  0.5414 -0.6549
   86SLPC    HB 8205   6.217   1.952   5.431 -0.1870 -0.6907  1.3664
   86SLPC    C2 8206   6.242   1.759   5.508  0.3652 -0.7392  0.5325
   86SLPC    HS 8207   6.132   1.756   5.525  0.0716  3.9528  0.9050
   86SLPC   O21 8208   6.312   1.807   5.625  0.2359 -0.4880 -0.2969
   86SLPC   C21 8209   6.240   1.908   5.683 -0.1588  0.1866 -0.1578
   86SLPC   O22 8210   6.138   1.955   5.645  0.7982 -0.7241  0.3562
   86SLPC   C22 8211   6.329   1.972   5.794 -0.2477  0.1397 -0.0595
   86SLPC   H2R 8212   6.422   2.007   5.744  1.4544 -0.9553  2.1719
   86SLPC   H2S 8213   6.271   2.063   5.824  0.0551  1.1105 -2.2338
   86SLPC    C3 8214   6.300   1.625   5.470 -0.0913  0.8807  0.1572
   86SLPC    HX 8215   6.410   1.630   5.484 -0.0300  1.3082 -0.3921
   86SLPC    HY 8216   6.273   1.605   5.364 -3.6524 -1.2128  1.2881
   86SLPC   O31 8217   6.238   1.517   5.545  0.1440  0.2862 -0.5811
   86SLPC   C31 8218   6.324   1.414   5.546  0.6136 -0.3203 -0.5680
   86SLPC   O32 8219   6.429   1.401   5.483 -0.4441 -0.1840  0.2907
   86SLPC   C32 8220   6.275   1.304   5.644  0.8101  0.4599 -0.2453
   86SLPC   H2X 8221   6.263   1.215   5.578 -1.3842  1.6657 -1.5877
   86SLPC   H2Y 8222   6.181   1.337   5.693 -0.9657 -1.2925 -2.2989
   86SLPC   C23 8223   6.361   1.888   5.919  0.0387 -0.1571 -0.4038
   86SLPC   H3R 8224   6.434   1.814   5.880 -0.9521 -0.7155 -1.2479
   86SLPC   H3S 8225   6.266   1.835   5.941  1.5859 -3.7959 -1.7186
   86SLPC   C24 8226   6.430   1.967   6.033  1.1668  0.1918 -0.2134
   86SLPC   H4R 8227   6.364   2.041   6.084  1.0728 -0.2369  0.3028
   86SLPC   H4S 8228   6.513   2.031   5.999  0.6942  0.2953 -1.2232
   86SLPC   C25 8229   6.479   1.866   6.147 -0.1832 -0.7162 -0.0882
   86SLPC   H5R 8230   6.508   1.773   6.093  0.9591 -0.0969 -0.5918
   86SLPC   H5S 8231   6.389   1.839   6.206  1.3027 -1.8891  1.7478
   86SLPC   C26 8232   6.596   1.913   6.237 -0.0113  0.4452  0.0989
   86SLPC   H6R 8233   6.564   1.999   6.299 -1.6770  1.9178 -2.5963
   86SLPC   H6S 8234   6.672   1.949   6.164  0.9770 -1.2145  0.2576
   86SLPC   C27 8235   6.647   1.799   6.323  0.0513  0.1115 -0.3175
   86SLPC   H7R 8236   6.564   1.737   6.364  1.3996 -1.8514 -0.4174
   86SLPC   H7S 8237   6.686   1.834   6.421  0.9557 -1.5520 -0.0447
   86SLPC   C28 8238   6.742   1.706   6.253 -0.2101 -0.1470 -0.3907
   86SLPC   H8R 8239   6.688   1.643   6.179 -2.2523 -2.6361  2.9327
   86SLPC   H8S 8240   6.766   1.635   6.334 -1.1173  0.9012  0.8497
   86SLPC   C29 8241   6.858   1.779   6.192 -0.4333 -0.1595  0.8931
   86SLPC   H9R 8242   6.930   1.815   6.266  0.4267 -0.8094  0.3979
   86SLPC  C210 8243   6.889   1.785   6.058 -0.5601  0.0908 -0.4720
   86SLPC  H10R 8244   6.966   1.860   6.035  0.1415 -0.4509  0.0621
   86SLPC  C211 8245   6.819   1.731   5.937 -0.4897  0.4911 -0.4890
   86SLPC  H11R 8246   6.759   1.641   5.963 -0.0260  0.3649  0.1749
   86SLPC  H11S 8247   6.896   1.687   5.871  1.2032 -0.9205  2.2127
   86SLPC  C212 8248   6.730   1.824   5.859  0.2495  0.4012 -0.0651
   86SLPC  H12R 8249   6.696   1.908   5.921 -1.1021  1.4096 -2.0404
   86SLPC  C213 8250   6.682   1.813   5.733 -0.1289 -0.1537  0.4140
   86SLPC  H13R 8251   6.618   1.889   5.685  0.9020 -0.1948 -1.0979
   86SLPC  C214 8252   6.726   1.693   5.640 -0.5439 -0.3939  0.1995
   86SLPC  H14R 8253   6.664   1.602   5.649  0.8293 -1.5280 -1.2451
   86SLPC  H14S 8254   6.830   1.679   5.678 -1.5115 -1.0327  2.8356
   86SLPC  C215 8255   6.723   1.727   5.489 -0.0898  0.1031 -0.1921
   86SLPC  H15R 8256   6.747   1.830   5.456 -0.6791 -0.6043 -3.1608
   86SLPC  H15S 8257   6.617   1.729   5.455  0.5761  0.8398 -2.4494
   86SLPC  C216 8258   6.801   1.625   5.412  0.4283  0.4796 -0.6660
   86SLPC  H16R 8259   6.776   1.524   5.449  1.4143  0.7249  0.7269
   86SLPC  H16S 8260   6.910   1.628   5.431  0.2267 -1.5170  1.1505
   86SLPC  C217 8261   6.770   1.626   5.261 -0.2967  0.3709 -0.0652
   86SLPC  H17R 8262   6.659   1.629   5.253 -0.5728 -1.6990  1.9932
   86SLPC  H17S 8263   6.812   1.537   5.210  0.5967  0.5324  0.3753
   86SLPC  C218 8264   6.829   1.757   5.190 -0.7181  0.8237 -1.0094
   86SLPC  H18R 8265   6.939   1.750   5.182 -0.6406 -1.2147  0.8358
   86SLPC  H18S 8266   6.798   1.845   5.250  2.8377  0.2238  2.0164
   86SLPC  H18T 8267   6.784   1.754   5.088  0.6374 -2.1918 -1.6163
   86SLPC   C33 8268   6.372   1.282   5.764  0.0691 -0.2658  0.0535
   86SLPC   H3X 8269   6.479   1.306   5.746  0.0479 -1.2571 -1.6063
   86SLPC   H3Y 8270   6.370   1.177   5.800 -2.0809 -0.4790 -0.5786
   86SLPC   C34 8271   6.336   1.343   5.900  0.2583 -0.7065 -0.0389
   86SLPC   H4X 8272   6.232   1.313   5.925 -0.5120 -0.9937 -3.0920
   86SLPC   H4Y 8273   6.320   1.453   5.902  0.4328 -0.6707 -0.5201
   86SLPC   C35 8274   6.418   1.306   6.017  0.5278  0.5707  0.1247
   86SLPC   H5X 8275   6.521   1.346   6.008  1.0385 -0.8132 -0.4026
   86SLPC   H5Y 8276   6.412   1.196   6.015 -2.4977  0.6276  1.1342
   86SLPC   C36 8277   6.364   1.332   6.158  0.1277 -0.0194 -0.1880
   86SLPC   H6X 8278   6.407   1.251   6.221  1.3933 -1.0106 -2.2207
   86SLPC   H6Y 8279   6.254   1.318   6.149  0.0272  0.5442  0.0895
   86SLPC   C37 8280   6.407   1.463   6.224  0.6156  0.3920  0.0309
   86SLPC   H7X 8281   6.351   1.550   6.184 -0.5767 -0.2251  0.3238
   86SLPC   H7Y 8282   6.517   1.476   6.214  0.6687 -0.0249  0.0619
   86SLPC   C38 8283   6.362   1.463   6.372 -0.8779 -0.1590 -0.3986
   86SLPC   H8X 8284   6.261   1.420   6.391 -1.3787  0.7146 -1.0215
   86SLPC   H8Y 8285   6.364   1.566   6.411  0.0931  0.0271 -0.9298
   86SLPC   C39 8286   6.455   1.378   6.459  1.1464 -0.1529 -0.0123
   86SLPC   H9X 8287   6.562   1.407   6.460  1.5810 -1.6749  1.0077
   86SLPC   H9Y 8288   6.455   1.272   6.426  1.1281 -0.0134 -0.4637
   86SLPC  C310 8289   6.409   1.386   6.603 -0.2240  0.4636  0.0067
   86SLPC  H10X 8290   6.299   1.371   6.603 -0.5338  2.4802  0.6355
   86SLPC  H10Y 8291   6.430   1.483   6.653  0.7854  0.9395 -1.2650
   86SLPC  C311 8292   6.484   1.287   6.695  0.0371 -0.5291  0.4725
   86SLPC  H11X 8293   6.591   1.312   6.709 -0.4466  0.9069  1.9094
   86SLPC  H11Y 8294   6.470   1.183   6.660  0.3633 -1.0374  1.7904
   86SLPC  C312 8295   6.427   1.276   6.838 -0.0303 -0.4116 -0.0855
   86SLPC  H12X 8296   6.318   1.261   6.828  0.0372  0.1186 -1.8247
   86SLPC  H12Y 8297   6.441   1.372   6.893 -0.0294 -0.5980  0.2427
   86SLPC  C313 8298   6.480   1.160   6.916  0.3439  0.0117  1.1454
   86SLPC  H13X 8299   6.591   1.172   6.915  0.2989  0.6477 -0.7483
   86SLPC  H13Y 8300   6.477   1.066   6.858  0.9238 -0.5600  2.0150
   86SLPC  C314 8301   6.435   1.138   7.057 -0.0213  0.1745  0.7747
   86SLPC  H14X 8302   6.328   1.112   7.057 -0.3133  1.3170  0.3988
   86SLPC  H14Y 8303   6.443   1.226   7.124  0.5341 -0.5055  1.6294
   86SLPC  C315 8304   6.507   1.012   7.126  0.4717 -0.0161  0.0790
   86SLPC  H15X 8305   6.501   0.921   7.062  0.3094  0.0725 -0.0317
   86SLPC  H15Y 8306   6.465   1.001   7.228 -0.3370  5.2089  0.5752
   86SLPC  C316 8307   6.664   1.030   7.147  0.0452 -0.2706  0.5212
   86SLPC  H16X 8308   6.724   1.023   7.054  2.1721  0.6187  1.7572
   86SLPC  H16Y 8309   6.698   0.939   7.202 -0.2226  0.3936  1.8197
   86SLPC  C317 8310   6.707   1.152   7.229 -0.2538  0.0400  0.0492
   86SLPC  H17X 8311   6.793   1.121   7.292 -0.4766  0.7439  0.7093
   86SLPC  H17Y 8312   6.633   1.178   7.308  1.2347 -0.3379  1.6304
   86SLPC  C318 8313   6.757   1.282   7.165  0.1458  0.5258  0.3822
   86SLPC  H18X 8314   6.691   1.329   7.090  0.7584 -1.3896 -1.4318
   86SLPC  H18Y 8315   6.846   1.256   7.104 -0.2735  2.7652 -1.3044
   86SLPC  H18Z 8316   6.801   1.355   7.237  0.7366 -0.1254  0.6936
   87SLPC     N 8317   3.451   2.444   4.231 -0.4896 -0.4813 -0.1335
   87SLPC   C13 8318   3.465   2.346   4.123 -0.1797  0.0773 -0.3574
   87SLPC  H13A 8319   3.492   2.392   4.029 -0.6713 -1.4237 -1.2671
   87SLPC  H13B 8320   3.534   2.271   4.158 -1.6810 -0.5536  1.3864
   87SLPC  H13C 8321   3.365   2.309   4.107 -1.2802  2.2041  0.9924
   87SLPC   C14 8322   3.396   2.573   4.170 -0.6842 -0.0828  0.4232
   87SLPC  H14A 8323   3.396   2.652   4.244 -2.5526  0.1692  0.2021
   87SLPC  H14B 8324   3.467   2.601   4.093 -0.2134 -0.4208  0.7261
   87SLPC  H14C 8325   3.292   2.581   4.143 -0.6246  1.5883  0.5344
   87SLPC   C15 8326   3.585   2.476   4.295  0.6477  0.1040  0.6101
   87SLPC  H15A 8327   3.580   2.550   4.373  0.5971 -0.1005  0.8008
   87SLPC  H15B 8328   3.631   2.387   4.334 -1.2335 -1.3864 -0.4015
   87SLPC  H15C 8329   3.651   2.519   4.222 -0.2191  2.1878  0.9863
   87SLPC   C12 8330   3.360   2.405   4.342 -0.3127 -0.3839  0.0813
   87SLPC  H12A 8331   3.401   2.312   4.380  1.5806  0.8059  1.0813
   87SLPC  H12B 8332   3.259   2.377   4.314 -0.8576 -1.5629  2.8969
   87SLPC   C11 8333   3.333   2.504   4.469  0.0205 -0.3247  0.1885
   87SLPC  H11A 8334   3.425   2.551   4.510 -1.1616  1.2933  1.1517
   87SLPC  H11B 8335   3.297   2.426   4.540  0.5731  0.1061  0.9580
   87SLPC     P 8336   3.085   2.576   4.449 -0.2771  0.1322 -0.2615
   87SLPC   O13 8337   3.017   2.707   4.437  0.4422 -0.5255 -0.1368
   87SLPC   O14 8338   3.060   2.466   4.348  0.2123 -0.1645 -0.1324
   87SLPC   O12 8339   3.240   2.610   4.447  0.2525  0.3754  0.2919
   87SLPC   O11 8340   3.052   2.525   4.594  0.4720 -0.1715  0.2942
   87SLPC    C1 8341   2.950   2.434   4.622  0.6673  0.2229  0.3314
   87SLPC    HA 8342   2.854   2.474   4.583  1.0208  0.1426 -0.6447
   87SLPC    HB 8343   2.969   2.339   4.569  1.6112  0.2985  0.5171
   87SLPC    C2 8344   2.937   2.407   4.776 -0.4361  0.7976 -0.2959
   87SLPC    HS 8345   2.905   2.303   4.795 -2.7132  1.5265  0.1041
   87SLPC   O21 8346   2.846   2.500   4.827  0.9538 -0.1443 -0.1985
   87SLPC   C21 8347   2.751   2.459   4.914 -0.4688  0.2023 -0.3055
   87SLPC   O22 8348   2.749   2.351   4.966 -0.4134 -0.1261  0.4619
   87SLPC   C22 8349   2.656   2.581   4.938 -0.2037  0.0712 -0.0042
   87SLPC   H2R 8350   2.730   2.663   4.941  0.1484 -0.2130 -0.5656
   87SLPC   H2S 8351   2.587   2.594   4.852  1.8645 -1.6455 -2.0646
   87SLPC    C3 8352   3.080   2.411   4.844 -0.1059 -0.3421 -0.8594
   87SLPC    HX 8353   3.135   2.502   4.811 -1.0050  0.9968  1.1422
   87SLPC    HY 8354   3.152   2.336   4.806 -0.6195 -1.9928  1.1995
   87SLPC   O31 8355   3.069   2.404   4.993  0.1437  0.1410  0.2025
   87SLPC   C31 8356   3.057   2.273   5.032  0.1572  0.3398  0.0725
   87SLPC   O32 8357   3.060   2.176   4.957 -0.0222  0.4039  0.2073
   87SLPC   C32 8358   3.033   2.259   5.187 -0.1158  0.5859  0.1220
   87SLPC   H2X 8359   3.015   2.361   5.228  0.6371 -0.8424  4.5111
   87SLPC   H2Y 8360   3.125   2.226   5.239 -1.5779 -1.0377  1.7965
   87SLPC   C23 8361   2.573   2.570   5.067 -0.8406  0.0554  0.2493
   87SLPC   H3R 8362   2.540   2.464   5.071 -0.4060 -0.0719  0.5227
   87SLPC   H3S 8363   2.482   2.634   5.059  0.0080  1.3529  0.6301
   87SLPC   C24 8364   2.645   2.600   5.198  0.1057 -0.2349  0.7599
   87SLPC   H4R 8365   2.681   2.704   5.208 -2.0323  0.4978  1.1352
   87SLPC   H4S 8366   2.732   2.530   5.200  0.8578  0.5815 -0.9118
   87SLPC   C25 8367   2.549   2.572   5.316 -0.0013 -0.3800  0.0403
   87SLPC   H5R 8368   2.502   2.476   5.287 -0.2249 -1.1018  2.5623
   87SLPC   H5S 8369   2.467   2.647   5.313 -0.7100 -1.0947  1.0350
   87SLPC   C26 8370   2.606   2.551   5.456 -0.8351 -1.0378  0.2745
   87SLPC   H6R 8371   2.711   2.517   5.447 -0.7472 -0.6381 -0.2571
   87SLPC   H6S 8372   2.548   2.472   5.508 -2.4574  1.3460  2.3726
   87SLPC   C27 8373   2.593   2.678   5.547 -0.7908  0.2497  0.3474
   87SLPC   H7R 8374   2.485   2.686   5.575 -1.4508 -1.7541 -1.3191
   87SLPC   H7S 8375   2.637   2.759   5.485 -0.7639 -1.3148 -1.8002
   87SLPC   C28 8376   2.670   2.657   5.675  0.0897 -0.8736 -0.1364
   87SLPC   H8R 8377   2.777   2.633   5.656  0.4315  0.5523 -0.1456
   87SLPC   H8S 8378   2.639   2.564   5.727 -0.8617 -1.6229 -1.9729
   87SLPC   C29 8379   2.653   2.775   5.772  0.0970 -0.1369  0.8123
   87SLPC   H9R 8380   2.718   2.863   5.757  1.0653 -1.0083 -0.3608
   87SLPC  C210 8381   2.578   2.772   5.885 -0.2624 -0.1566  0.4917
   87SLPC  H10R 8382   2.566   2.868   5.937 -1.4563 -0.5532  1.0105
   87SLPC  C211 8383   2.495   2.659   5.934  0.2996 -0.0639 -0.3424
   87SLPC  H11R 8384   2.528   2.601   6.022 -1.0028 -1.1382 -0.5142
   87SLPC  H11S 8385   2.474   2.584   5.854 -0.0622  0.5259 -0.8139
   87SLPC  C212 8386   2.354   2.710   5.946 -0.4664  0.1988 -0.0974
   87SLPC  H12R 8387   2.308   2.742   5.851 -3.2309  1.9825  1.7060
   87SLPC  C213 8388   2.282   2.733   6.060 -0.1036 -0.4902 -0.2772
   87SLPC  H13R 8389   2.180   2.771   6.041  1.0883  1.7379 -2.8093
   87SLPC  C214 8390   2.308   2.711   6.210 -0.1010 -0.5797  0.0507
   87SLPC  H14R 8391   2.391   2.640   6.227  1.6482  1.8764  2.6245
   87SLPC  H14S 8392   2.222   2.665   6.263 -0.3003  1.2931  1.4348
   87SLPC  C215 8393   2.346   2.845   6.273  0.0627 -0.0634  0.8193
   87SLPC  H15R 8394   2.269   2.924   6.260  0.9438  0.7126  0.1433
   87SLPC  H15S 8395   2.442   2.877   6.226  1.4599 -4.3537  0.3113
   87SLPC  C216 8396   2.385   2.854   6.425  0.3300  0.8059 -0.1682
   87SLPC  H16R 8397   2.446   2.944   6.447  1.1457 -0.1831  1.8701
   87SLPC  H16S 8398   2.435   2.764   6.467 -0.8020  1.6100  3.2386
   87SLPC  C217 8399   2.259   2.876   6.509  0.7097 -0.2549 -0.0014
   87SLPC  H17R 8400   2.268   2.834   6.611  0.1763  1.7838  0.9501
   87SLPC  H17S 8401   2.175   2.832   6.451  0.6099  0.3881 -0.3615
   87SLPC  C218 8402   2.228   3.024   6.529 -0.3876 -0.0253  0.4239
   87SLPC  H18R 8403   2.129   3.042   6.575 -1.1336  1.8487 -1.7317
   87SLPC  H18S 8404   2.238   3.068   6.427  1.1756 -1.4446 -0.0928
   87SLPC  H18T 8405   2.308   3.063   6.595 -1.7508  1.7369  1.0956
   87SLPC   C33 8406   2.911   2.165   5.229 -0.2141 -0.1784 -0.2422
   87SLPC   H3X 8407   2.939   2.079   5.164 -2.8236 -0.3445 -1.2485
   87SLPC   H3Y 8408   2.811   2.202   5.196 -1.6401 -3.1108  0.5211
   87SLPC   C34 8409   2.917   2.149   5.376  0.6755 -0.3458 -0.3925
   87SLPC   H4X 8410   3.023   2.161   5.409  0.8372 -0.8342 -0.7177
   87SLPC   H4Y 8411   2.870   2.051   5.400  4.2801 -2.4115 -0.8689
   87SLPC   C35 8412   2.834   2.262   5.447 -0.1444 -0.0626 -0.4466
   87SLPC   H5X 8413   2.726   2.256   5.423 -0.3009  1.7603 -0.3883
   87SLPC   H5Y 8414   2.864   2.362   5.407 -1.1338  0.0983 -0.7993
   87SLPC   C36 8415   2.842   2.268   5.600  0.1021  0.0495  0.7990
   87SLPC   H6X 8416   2.784   2.360   5.622 -0.4836 -0.3540  0.9358
   87SLPC   H6Y 8417   2.948   2.284   5.633  0.5779 -1.2104 -0.0386
   87SLPC   C37 8418   2.773   2.157   5.675 -0.3860  0.0494 -0.4669
   87SLPC   H7X 8419   2.814   2.058   5.644  1.0759 -0.2887  2.2724
   87SLPC   H7Y 8420   2.675   2.145   5.624  0.7584  0.5760 -2.9844
   87SLPC   C38 8421   2.773   2.179   5.820 -0.0721 -0.2314 -0.5695
   87SLPC   H8X 8422   2.713   2.268   5.848  0.2175 -0.7648  1.9048
   87SLPC   H8Y 8423   2.880   2.197   5.844  0.6758 -2.2933 -2.0591
   87SLPC   C39 8424   2.729   2.059   5.894 -0.3536 -0.3095  0.2690
   87SLPC   H9X 8425   2.790   1.969   5.873 -0.8016 -0.4421 -0.5293
   87SLPC   H9Y 8426   2.623   2.028   5.881 -0.5524 -1.2336  3.2715
   87SLPC  C310 8427   2.735   2.069   6.050  0.3852 -0.2498  0.8205
   87SLPC  H10X 8428   2.682   2.161   6.082 -1.2264  0.2481 -2.8032
   87SLPC  H10Y 8429   2.840   2.086   6.083  1.0106  1.5762 -1.7735
   87SLPC  C311 8430   2.671   1.952   6.117 -0.0182 -0.5100  0.4281
   87SLPC  H11X 8431   2.734   1.861   6.104 -0.6462 -0.8432 -0.3907
   87SLPC  H11Y 8432   2.576   1.938   6.061  0.2379  1.0737 -0.4586
   87SLPC  C312 8433   2.633   1.967   6.263 -0.3534  0.2938  0.9184
   87SLPC  H12X 8434   2.568   1.880   6.286 -1.7962  0.2486 -2.6744
   87SLPC  H12Y 8435   2.572   2.060   6.267 -1.9419 -0.6381 -0.6700
   87SLPC  C313 8436   2.756   1.970   6.361  0.0005 -0.1855  0.1795
   87SLPC  H13X 8437   2.731   2.032   6.450  0.3038  1.2781 -0.7091
   87SLPC  H13Y 8438   2.832   2.024   6.300 -0.7980 -1.9092 -2.5405
   87SLPC  C314 8439   2.807   1.834   6.398 -0.5036  0.0604  0.1104
   87SLPC  H14X 8440   2.908   1.850   6.443 -1.4299 -0.3993  2.4979
   87SLPC  H14Y 8441   2.807   1.770   6.307 -0.2210 -1.3109  1.0464
   87SLPC  C315 8442   2.724   1.762   6.506 -1.0783 -0.0919 -0.8480
   87SLPC  H15X 8443   2.616   1.771   6.479 -0.8015  2.8885 -1.3601
   87SLPC  H15Y 8444   2.737   1.813   6.604  0.3474  0.5543 -1.3433
   87SLPC  C316 8445   2.746   1.609   6.530  0.0802 -0.5066  0.0858
   87SLPC  H16X 8446   2.729   1.583   6.637 -3.7632  1.1018  0.0026
   87SLPC  H16Y 8447   2.854   1.593   6.508  0.6883  1.1158  1.6652
   87SLPC  C317 8448   2.665   1.508   6.444 -0.2342  0.4067  0.3626
   87SLPC  H17X 8449   2.735   1.439   6.391  0.5328  2.5371 -1.5582
   87SLPC  H17Y 8450   2.604   1.553   6.363  0.5315 -0.3208 -0.6465
   87SLPC  C318 8451   2.573   1.426   6.538 -0.2748 -0.3135  0.5870
   87SLPC  H18X 8452   2.498   1.492   6.587  1.7626  2.9935 -0.3878
   87SLPC  H18Y 8453   2.644   1.376   6.607  1.9604  1.2253 -0.4680
   87SLPC  H18Z 8454   2.522   1.345   6.482 -0.5521 -0.6469  1.3167
   88SLPC     N 8455   5.191   0.697   4.721 -0.4199 -0.5062 -0.5116
   88SLPC   C13 8456   5.174   0.567   4.663 -0.3011 -0.4525  0.3154
   88SLPC  H13A 8457   5.077   0.563   4.615 -0.5815  4.6848 -0.0603
   88SLPC  H13B 8458   5.249   0.559   4.586  0.4703  2.3584  0.6577
   88SLPC  H13C 8459   5.183   0.487   4.736 -0.3048 -1.4861 -0.7803
   88SLPC   C14 8460   5.333   0.709   4.777  0.0966 -0.7308  0.1971
   88SLPC  H14A 8461   5.357   0.806   4.818 -1.9721 -0.5517  1.0953
   88SLPC  H14B 8462   5.345   0.659   4.872  0.8778 -0.4756  0.2392
   88SLPC  H14C 8463   5.404   0.675   4.703 -1.5196 -1.5248 -1.0462
   88SLPC   C15 8464   5.087   0.725   4.826  0.0523 -0.0106  0.6962
   88SLPC  H15A 8465   4.991   0.740   4.779  0.2733 -0.7181 -0.0066
   88SLPC  H15B 8466   5.076   0.639   4.890 -0.4107 -0.9737 -0.6335
   88SLPC  H15C 8467   5.113   0.810   4.889  1.0520 -0.8764  1.5027
   88SLPC   C12 8468   5.179   0.799   4.617  0.1630 -0.5076 -0.0865
   88SLPC  H12A 8469   5.262   0.807   4.550  0.0963 -0.0344 -0.1170
   88SLPC  H12B 8470   5.177   0.899   4.657  0.2460 -0.8264  0.7437
   88SLPC   C11 8471   5.053   0.802   4.532  0.3803  0.2817  0.4536
   88SLPC  H11A 8472   5.042   0.711   4.469 -1.7649  1.2187 -0.6438
   88SLPC  H11B 8473   5.069   0.884   4.459 -1.2314  1.3635  1.2441
   88SLPC     P 8474   4.911   0.988   4.637  0.0711 -0.5239 -0.1333
   88SLPC   O13 8475   5.036   1.061   4.625  0.0714  0.4144  0.0085
   88SLPC   O14 8476   4.800   1.035   4.551  0.5053 -0.8014 -0.3963
   88SLPC   O12 8477   4.930   0.834   4.600 -0.1448 -0.4964 -0.1748
   88SLPC   O11 8478   4.873   0.973   4.787  0.1701  0.2860 -0.0041
   88SLPC    C1 8479   4.769   0.888   4.839 -0.3284 -0.3357 -0.0720
   88SLPC    HA 8480   4.720   0.821   4.764 -2.7333 -1.0776  2.0294
   88SLPC    HB 8481   4.802   0.820   4.920 -3.3161 -1.7052  0.1386
   88SLPC    C2 8482   4.651   0.982   4.906 -0.3113 -0.1821 -0.5174
   88SLPC    HS 8483   4.625   1.070   4.844  1.0531  2.6925  2.6828
   88SLPC   O21 8484   4.696   1.020   5.038 -0.6741 -0.2154 -0.0242
   88SLPC   C21 8485   4.772   1.120   5.046 -0.2048  0.1868  1.1498
   88SLPC   O22 8486   4.796   1.197   4.954 -0.0010 -0.1767  0.2203
   88SLPC   C22 8487   4.848   1.123   5.182  0.0855 -0.6100 -0.3533
   88SLPC   H2R 8488   4.767   1.113   5.257 -0.2760  1.7605 -0.3584
   88SLPC   H2S 8489   4.911   1.031   5.188  1.8361  0.5868  0.7436
   88SLPC    C3 8490   4.521   0.901   4.919 -0.6177 -0.0826 -1.0572
   88SLPC    HX 8491   4.478   0.874   4.820  1.3377 -2.0381 -1.4685
   88SLPC    HY 8492   4.445   0.969   4.962 -1.5420 -0.2065 -2.4245
   88SLPC   O31 8493   4.540   0.792   5.001  0.2570  0.2712 -0.3995
   88SLPC   C31 8494   4.519   0.795   5.135 -0.0610  0.0950 -0.1128
   88SLPC   O32 8495   4.471   0.883   5.201 -0.4283  0.3220  0.3391
   88SLPC   C32 8496   4.568   0.665   5.189  0.0066  0.1117 -0.0087
   88SLPC   H2X 8497   4.677   0.686   5.200 -0.4185  1.4174  2.4204
   88SLPC   H2Y 8498   4.556   0.590   5.108  0.3846 -2.4259  2.1367
   88SLPC   C23 8499   4.935   1.247   5.204  0.3495 -0.2353  0.3198
   88SLPC   H3R 8500   4.871   1.324   5.251 -0.1017 -0.4149  0.0110
   88SLPC   H3S 8501   4.968   1.291   5.107 -2.3564 -0.2987 -0.7128
   88SLPC   C24 8502   5.059   1.214   5.293  0.2256 -0.3724  0.0009
   88SLPC   H4R 8503   5.135   1.157   5.235 -0.2505 -0.5796 -0.4232
   88SLPC   H4S 8504   5.024   1.146   5.374 -0.3113  2.2160  2.0489
   88SLPC   C25 8505   5.145   1.329   5.359 -0.1633  0.1700 -0.3269
   88SLPC   H5R 8506   5.172   1.395   5.274  0.1869  0.2242 -0.1784
   88SLPC   H5S 8507   5.239   1.283   5.396 -0.5822 -1.0937 -0.7783
   88SLPC   C26 8508   5.078   1.411   5.467  0.4363 -0.0976 -0.1509
   88SLPC   H6R 8509   4.982   1.445   5.424  0.5374  1.9318  1.1332
   88SLPC   H6S 8510   5.138   1.501   5.489 -1.1522  0.5372  1.8468
   88SLPC   C27 8511   5.055   1.333   5.600  0.1229 -1.0500  0.2195
   88SLPC   H7R 8512   5.143   1.275   5.632 -0.9791 -1.8949  1.8517
   88SLPC   H7S 8513   4.983   1.254   5.569  1.7190 -1.9777 -1.2873
   88SLPC   C28 8514   5.014   1.434   5.708 -0.0418 -0.3355  0.0201
   88SLPC   H8R 8515   4.986   1.363   5.788  2.2741 -1.3422  0.0183
   88SLPC   H8S 8516   4.928   1.496   5.676  0.5045  1.4774  1.8009
   88SLPC   C29 8517   5.121   1.528   5.755  0.4611 -0.5267 -0.6231
   88SLPC   H9R 8518   5.171   1.585   5.676 -1.3710  2.0730 -0.0770
   88SLPC  C210 8519   5.145   1.546   5.887 -0.1820 -0.3056  1.1455
   88SLPC  H10R 8520   5.226   1.617   5.908 -0.7258 -0.1905  3.0451
   88SLPC  C211 8521   5.068   1.499   6.005  0.7382  0.2322 -0.1617
   88SLPC  H11R 8522   5.080   1.389   6.009  1.2499  0.2186 -1.5018
   88SLPC  H11S 8523   4.958   1.518   6.002  0.4986 -0.9773  0.6408
   88SLPC  C212 8524   5.133   1.561   6.131 -0.0814  0.1755 -0.5073
   88SLPC  H12R 8525   5.237   1.598   6.127 -0.4410  1.1284 -2.8086
   88SLPC  C213 8526   5.074   1.555   6.252 -0.5825  0.6839 -0.2062
   88SLPC  H13R 8527   5.117   1.617   6.332  0.7269 -0.8498  0.3418
   88SLPC  C214 8528   4.934   1.504   6.284  0.0953  0.7691  0.3419
   88SLPC  H14R 8529   4.933   1.394   6.271  0.3979  0.9346 -1.1764
   88SLPC  H14S 8530   4.860   1.540   6.210 -0.5803 -1.0864  0.0601
   88SLPC  C215 8531   4.870   1.546   6.416  0.3821 -0.4160  0.5440
   88SLPC  H15R 8532   4.771   1.496   6.425 -0.0230  0.3088  0.1570
   88SLPC  H15S 8533   4.861   1.656   6.402  0.3335 -0.6576 -1.7631
   88SLPC  C216 8534   4.941   1.489   6.539  0.6516 -0.1449  0.2323
   88SLPC  H16R 8535   5.051   1.496   6.523  0.7426  0.9331  1.2643
   88SLPC  H16S 8536   4.916   1.381   6.532 -2.2959  0.4299  0.5913
   88SLPC  C217 8537   4.913   1.553   6.670 -0.6780  0.6082  0.0789
   88SLPC  H17R 8538   4.805   1.566   6.691 -1.2786 -2.6218 -0.5392
   88SLPC  H17S 8539   4.947   1.658   6.654 -0.3117  0.3695 -0.7665
   88SLPC  C218 8540   4.986   1.506   6.797  0.0005 -0.1243  0.1572
   88SLPC  H18R 8541   4.949   1.403   6.818 -0.0591 -0.4528 -1.4361
   88SLPC  H18S 8542   4.968   1.585   6.873 -0.0299 -1.0937  1.1785
   88SLPC  H18T 8543   5.095   1.498   6.775  0.0506 -1.5186  0.7804
   88SLPC   C33 8544   4.517   0.633   5.329  0.0059  0.4533  0.0740
   88SLPC   H3X 8545   4.406   0.629   5.339 -0.0139  0.3989 -0.1641
   88SLPC   H3Y 8546   4.548   0.711   5.402  0.1892 -1.0441  1.6525
   88SLPC   C34 8547   4.580   0.509   5.390 -0.5270  0.8081  0.0474
   88SLPC   H4X 8548   4.691   0.518   5.390 -0.5630  1.3450  0.6758
   88SLPC   H4Y 8549   4.553   0.424   5.323 -0.4047 -0.7618  1.8998
   88SLPC   C35 8550   4.514   0.473   5.534 -1.0028  0.4184  0.2782
   88SLPC   H5X 8551   4.405   0.463   5.519 -1.2526  3.1771 -0.3231
   88SLPC   H5Y 8552   4.522   0.557   5.606  1.2398 -0.5939  1.3313
   88SLPC   C36 8553   4.566   0.349   5.602 -0.9844 -0.1303 -0.4522
   88SLPC   H6X 8554   4.676   0.351   5.586 -0.9632 -3.1265 -1.2197
   88SLPC   H6Y 8555   4.536   0.261   5.542 -1.1933 -0.3770  0.0121
   88SLPC   C37 8556   4.536   0.326   5.754 -0.1421  0.3471 -0.6222
   88SLPC   H7X 8557   4.585   0.228   5.774  0.1757  0.7724  0.7737
   88SLPC   H7Y 8558   4.429   0.306   5.775 -0.4492 -0.5508 -2.7540
   88SLPC   C38 8559   4.595   0.435   5.841 -0.8880 -0.0482 -0.3903
   88SLPC   H8X 8560   4.550   0.530   5.803  1.4260  0.3573 -2.3881
   88SLPC   H8Y 8561   4.704   0.447   5.829 -1.0629  1.4832 -0.6711
   88SLPC   C39 8562   4.566   0.419   5.998 -0.1778 -0.3452  1.1029
   88SLPC   H9X 8563   4.459   0.402   6.021 -0.7464  0.6243 -0.5928
   88SLPC   H9Y 8564   4.595   0.517   6.043  0.3925  0.0172 -0.0183
   88SLPC  C310 8565   4.644   0.296   6.056  0.1272 -0.1112 -0.9551
   88SLPC  H10X 8566   4.751   0.299   6.027  0.9542  0.6668  1.8494
   88SLPC  H10Y 8567   4.597   0.202   6.020 -0.7477 -0.4745  0.9682
   88SLPC  C311 8568   4.624   0.287   6.206 -0.5451 -0.0843 -0.5548
   88SLPC  H11X 8569   4.513   0.281   6.207 -0.5844  0.5664 -0.5507
   88SLPC  H11Y 8570   4.664   0.383   6.246  1.5139 -1.4574  0.8828
   88SLPC  C312 8571   4.711   0.178   6.272  0.3581 -0.6260 -0.4251
   88SLPC  H12X 8572   4.814   0.191   6.233  0.5532  0.3795  0.3899
   88SLPC  H12Y 8573   4.666   0.078   6.252  1.5447 -1.3586  0.4644
   88SLPC  C313 8574   4.732   0.187   6.425 -0.2588 -0.3250 -0.1992
   88SLPC  H13X 8575   4.766   0.288   6.457 -2.9178  1.1000 -1.5623
   88SLPC  H13Y 8576   4.817   0.130   6.468 -0.5505 -0.7758 -0.2073
   88SLPC  C314 8577   4.603   0.159   6.505  0.0596  0.4258 -0.0479
   88SLPC  H14X 8578   4.579   0.050   6.511  3.5429 -0.5517 -1.4177
   88SLPC  H14Y 8579   4.520   0.216   6.459  1.3140  0.5325 -2.2978
   88SLPC  C315 8580   4.599   0.220   6.652  0.7722  0.5490  0.0188
   88SLPC  H15X 8581   4.496   0.227   6.693  1.0335 -0.5161  0.8975
   88SLPC  H15Y 8582   4.636   0.325   6.655  1.5493  0.3646 -1.6552
   88SLPC  C316 8583   4.672   0.131   6.759  0.3162  0.2369  0.4414
   88SLPC  H16X 8584   4.776   0.123   6.720  0.6359 -1.5468  1.5648
   88SLPC  H16Y 8585   4.650   0.022   6.762  1.9136 -0.0851  1.6956
   88SLPC  C317 8586   4.690   0.188   6.899 -0.1502  0.1122 -0.1250
   88SLPC  H17X 8587   4.595   0.192   6.957 -0.1961 -2.4727  0.1298
   88SLPC  H17Y 8588   4.717   0.295   6.894 -0.6714  0.2005 -1.2367
   88SLPC  C318 8589   4.793   0.117   6.996  0.0423 -0.0537  0.3710
   88SLPC  H18X 8590   4.878   0.083   6.933 -0.9003  0.6706 -1.3446
   88SLPC  H18Y 8591   4.751   0.030   7.051  1.3346 -2.0321 -1.6269
   88SLPC  H18Z 8592   4.837   0.186   7.071 -0.8218  0.7053  0.1944
   89SAPE     N 8593   2.895   4.335   0.529  0.6320 -0.1960  0.1739
   89SAPE   HN1 8594   2.917   4.436   0.538 -0.7150 -0.0090  1.8836
   89SAPE   HN2 8595   2.819   4.324   0.599  0.8165  0.9849  0.5755
   89SAPE   HN3 8596   2.981   4.278   0.549 -1.4116 -3.6307  0.0613
   89SAPE   C12 8597   2.843   4.307   0.392  0.6328 -0.0066  0.1280
   89SAPE  H12A 8598   2.747   4.360   0.380  0.6570 -0.0447 -0.2580
   89SAPE  H12B 8599   2.840   4.196   0.383  1.9780 -0.0631  0.1455
   89SAPE   C11 8600   2.935   4.361   0.282  0.1545  0.0855 -0.4175
   89SAPE  H11A 8601   2.946   4.471   0.288  1.6999 -0.0816  0.4731
   89SAPE  H11B 8602   2.896   4.329   0.184 -2.7371  4.0932 -0.7995
   89SAPE     P 8603   3.107   4.162   0.258 -0.0792 -0.2092  0.0076
   89SAPE   O13 8604   3.246   4.162   0.208 -0.2459  0.1594 -0.4228
   89SAPE   O14 8605   3.081   4.078   0.371 -0.4777  0.1620 -0.4651
   89SAPE   O12 8606   3.069   4.311   0.286  0.7931 -0.6503 -0.4222
   89SAPE   O11 8607   3.013   4.126   0.144 -0.1855 -0.4549  0.5230
   89SAPE    C1 8608   3.027   4.166   0.001 -0.7568  0.5872 -0.5330
   89SAPE    HA 8609   2.937   4.124  -0.049  0.0310 -0.5076 -1.0475
   89SAPE    HB 8610   3.023   4.277  -0.003  2.2835  0.7515 -1.3588
   89SAPE    C2 8611   3.141   4.104  -0.083 -0.0513  0.7060 -0.5543
   89SAPE    HS 8612   3.237   4.146  -0.044  0.2212 -1.8593  1.8727
   89SAPE   O21 8613   3.114   4.127  -0.224 -0.7966 -0.3840 -0.5296
   89SAPE   C21 8614   3.156   4.248  -0.273  0.3595  0.4017 -0.0395
   89SAPE   O22 8615   3.206   4.334  -0.206 -0.2193 -0.2156 -0.0839
   89SAPE   C22 8616   3.131   4.256  -0.421  0.8562 -0.7640 -0.3259
   89SAPE   H2R 8617   3.195   4.186  -0.480  0.7696 -1.1343  0.0202
   89SAPE   H2S 8618   3.029   4.214  -0.434  1.4535 -2.1154 -0.8166
   89SAPE    C3 8619   3.142   3.951  -0.043 -0.5198 -0.1243  0.6833
   89SAPE    HX 8620   3.045   3.906  -0.075 -1.2649  0.9693  1.3260
   89SAPE    HY 8621   3.150   3.939   0.067  1.3111 -0.2083  0.5691
   89SAPE   O31 8622   3.248   3.890  -0.113 -0.1605 -0.5037 -0.5851
   89SAPE   C31 8623   3.364   3.857  -0.054 -0.8313 -0.2434 -0.4707
   89SAPE   O32 8624   3.381   3.877   0.065 -0.5033 -0.3584  0.0155
   89SAPE   C32 8625   3.467   3.795  -0.150 -0.3539  0.3067  0.8121
   89SAPE   H2X 8626   3.419   3.707  -0.198 -0.1368  0.8092 -0.3380
   89SAPE   H2Y 8627   3.545   3.753  -0.082  1.2781  0.2842 -0.9899
   89SAPE   C23 8628   3.140   4.398  -0.482 -0.0748 -1.3145 -0.0934
   89SAPE   H3R 8629   3.236   4.446  -0.451 -0.7663  0.7229 -0.9545
   89SAPE   H3S 8630   3.062   4.463  -0.437  2.4839 -0.4545  3.6452
   89SAPE   C24 8631   3.138   4.383  -0.630 -0.2647  0.5898 -0.0145
   89SAPE   H4R 8632   3.235   4.351  -0.673  0.1199 -1.5967  2.2462
   89SAPE   H4S 8633   3.127   4.484  -0.675 -0.4270 -0.2230 -1.9118
   89SAPE   C25 8634   3.028   4.296  -0.687 -0.4577 -0.0308  0.2025
   89SAPE   H5R 8635   2.943   4.280  -0.618  1.1970  3.0779  3.3353
   89SAPE   C26 8636   3.027   4.242  -0.814 -0.6294 -0.3385 -0.2930
   89SAPE   H6R 8637   2.934   4.202  -0.856 -0.8925  0.3728 -0.4038
   89SAPE   C27 8638   3.145   4.251  -0.912 -0.5268 -0.8370 -0.8555
   89SAPE   H7R 8639   3.146   4.159  -0.974 -0.8373 -2.0564  0.8631
   89SAPE   H7S 8640   3.243   4.263  -0.861 -0.7014  1.4070 -0.9434
   89SAPE   C28 8641   3.135   4.386  -0.982 -0.0270  1.4253  0.4701
   89SAPE   H8R 8642   3.157   4.469  -0.913 -1.3406  0.7235  1.7967
   89SAPE   C29 8643   3.121   4.416  -1.108  0.5055 -0.0878 -0.0872
   89SAPE   H9R 8644   3.101   4.520  -1.138  1.6887  0.6201  1.4828
   89SAPE  C210 8645   3.110   4.333  -1.231 -0.1410  0.4392  0.0553
   89SAPE  H10R 8646   3.159   4.234  -1.219  1.8604  1.3540 -0.2116
   89SAPE  H10S 8647   3.172   4.374  -1.314  1.7888 -0.6342  0.9125
   89SAPE  C211 8648   2.969   4.320  -1.279  0.3600  0.2600  0.0850
   89SAPE  H11R 8649   2.893   4.261  -1.226  0.5482 -1.0182 -0.9916
   89SAPE  C212 8650   2.926   4.368  -1.396  0.6095 -0.2186 -0.7901
   89SAPE  H12R 8651   2.819   4.349  -1.417  0.1232 -0.2912  1.5238
   89SAPE  C213 8652   3.001   4.439  -1.500  0.2819  0.3184 -0.3868
   89SAPE  H13R 8653   3.046   4.528  -1.450  1.3601 -1.9811  3.0488
   89SAPE  H13S 8654   2.920   4.472  -1.568  2.8660  3.4029 -2.3092
   89SAPE  C214 8655   3.101   4.370  -1.585 -0.0462 -0.8211 -0.6099
   89SAPE  H14R 8656   3.133   4.271  -1.549 -0.8873 -1.2613 -1.0396
   89SAPE  C215 8657   3.174   4.413  -1.682 -0.7090 -0.0442 -0.3593
   89SAPE  H15R 8658   3.238   4.344  -1.738 -0.7538 -2.0159  1.8725
   89SAPE  C216 8659   3.161   4.552  -1.741  0.6555 -0.2570  0.0245
   89SAPE  H16R 8660   3.260   4.600  -1.757  0.9676 -1.1981 -1.0162
   89SAPE  H16S 8661   3.105   4.623  -1.676 -0.1082  1.0959 -1.9994
   89SAPE  C217 8662   3.073   4.548  -1.860  0.2457 -0.0522  0.2425
   89SAPE  H17R 8663   3.042   4.651  -1.889 -0.8419 -0.2752  0.5768
   89SAPE  H17S 8664   2.978   4.504  -1.822  0.8464 -2.0716 -0.4632
   89SAPE  C218 8665   3.141   4.478  -1.981  0.8593 -0.3046  0.1502
   89SAPE  H18R 8666   3.152   4.368  -1.972  3.7512 -0.2991 -1.8451
   89SAPE  H18S 8667   3.238   4.526  -2.005  0.2923  0.3445 -0.9344
   89SAPE  C219 8668   3.059   4.494  -2.108  0.3962  0.2721 -0.3055
   89SAPE  H19R 8669   3.041   4.603  -2.125  0.8415  0.1611 -1.5531
   89SAPE  H19S 8670   2.965   4.435  -2.104  0.2835  0.4966  1.9275
   89SAPE  C220 8671   3.136   4.467  -2.237  0.2053 -0.1929  0.4137
   89SAPE  H20R 8672   3.067   4.468  -2.325 -1.1788  0.6718  1.4605
   89SAPE  H20S 8673   3.204   4.379  -2.239  1.5859  0.8589 -0.0560
   89SAPE  H20T 8674   3.212   4.545  -2.257  0.3439 -0.4472 -0.0637
   89SAPE   C33 8675   3.521   3.884  -0.266  0.0885 -0.6747 -0.1491
   89SAPE   H3X 8676   3.623   3.848  -0.292  0.9879  0.9374  0.9755
   89SAPE   H3Y 8677   3.531   3.982  -0.215  1.1375  0.0468 -1.6519
   89SAPE   C34 8678   3.424   3.882  -0.384  0.0350 -0.2292  0.1970
   89SAPE   H4X 8679   3.333   3.940  -0.358  0.9165  0.2427  2.4806
   89SAPE   H4Y 8680   3.390   3.778  -0.401 -1.8081  0.5692 -1.4585
   89SAPE   C35 8681   3.488   3.931  -0.511 -0.2593  0.4922  0.0338
   89SAPE   H5X 8682   3.584   3.877  -0.520 -0.3958  0.2530  0.0106
   89SAPE   H5Y 8683   3.501   4.040  -0.494 -2.0178  0.7134  0.1303
   89SAPE   C36 8684   3.391   3.905  -0.629  0.2229  0.5826 -0.1994
   89SAPE   H6X 8685   3.303   3.962  -0.591  0.3369 -0.5539  1.8946
   89SAPE   H6Y 8686   3.360   3.799  -0.641  0.4380  0.1072  2.7482
   89SAPE   C37 8687   3.437   3.960  -0.762  0.0641  0.1002  0.2391
   89SAPE   H7X 8688   3.542   3.928  -0.781  0.9043  0.2043  4.0176
   89SAPE   H7Y 8689   3.431   4.071  -0.761  0.6160  0.1285  0.9070
   89SAPE   C38 8690   3.350   3.913  -0.883  0.4777  0.2147  0.5359
   89SAPE   H8X 8691   3.254   3.966  -0.865  1.5063  1.8626  1.4617
   89SAPE   H8Y 8692   3.327   3.805  -0.879 -0.3361  0.4082  1.4438
   89SAPE   C39 8693   3.412   3.955  -1.013  0.0868 -1.2992 -0.1785
   89SAPE   H9X 8694   3.523   3.948  -1.002  0.0192 -1.3956  0.4646
   89SAPE   H9Y 8695   3.399   4.064  -1.032  0.8549 -1.3345 -0.9743
   89SAPE  C310 8696   3.360   3.886  -1.140  0.1200 -0.0029 -0.2614
   89SAPE  H10X 8697   3.260   3.929  -1.159  0.7492  2.0501  0.8452
   89SAPE  H10Y 8698   3.346   3.776  -1.126 -0.7015 -0.2529 -2.6319
   89SAPE  C311 8699   3.457   3.912  -1.255  0.0257  0.1393  1.3306
   89SAPE  H11X 8700   3.540   3.839  -1.246 -1.9748 -2.5438 -0.5195
   89SAPE  H11Y 8701   3.496   4.016  -1.267 -1.8996  0.5795 -2.8596
   89SAPE  C312 8702   3.391   3.891  -1.393  0.1549  0.0555  0.1738
   89SAPE  H12X 8703   3.340   3.792  -1.401 -2.2765  1.2394 -0.0645
   89SAPE  H12Y 8704   3.467   3.890  -1.474 -0.0876  2.1724 -0.1211
   89SAPE  C313 8705   3.283   3.989  -1.433  0.0655  0.4313  0.4611
   89SAPE  H13X 8706   3.319   4.091  -1.409  3.0190 -0.4886  0.2845
   89SAPE  H13Y 8707   3.197   3.962  -1.369 -0.9130 -0.8499 -1.3046
   89SAPE  C314 8708   3.227   3.976  -1.581 -0.4323 -0.1494 -0.0681
   89SAPE  H14X 8709   3.125   4.016  -1.570 -0.2870  0.2964 -0.3328
   89SAPE  H14Y 8710   3.219   3.870  -1.615  1.2971  0.0696 -1.3096
   89SAPE  C315 8711   3.313   4.063  -1.680 -0.2172 -0.2641  0.4118
   89SAPE  H15X 8712   3.418   4.036  -1.655  0.3384 -0.0899 -1.5823
   89SAPE  H15Y 8713   3.308   4.170  -1.651  3.3485 -0.2346  1.4139
   89SAPE  C316 8714   3.291   4.038  -1.827 -0.6229 -0.0320 -0.0505
   89SAPE  H16X 8715   3.184   4.052  -1.853 -0.9872  0.5383  1.5862
   89SAPE  H16Y 8716   3.329   3.936  -1.850 -0.1985  0.3719 -1.1825
   89SAPE  C317 8717   3.386   4.136  -1.894  0.3995  0.3992 -0.9740
   89SAPE  H17X 8718   3.490   4.123  -1.858  0.0943 -0.3420 -0.3391
   89SAPE  H17Y 8719   3.349   4.236  -1.863  1.0458  0.4190 -0.2479
   89SAPE  C318 8720   3.381   4.115  -2.046  0.0473 -0.9892 -0.3750
   89SAPE  H18X 8721   3.402   4.010  -2.079  2.0814 -0.1603 -1.9747
   89SAPE  H18Y 8722   3.439   4.187  -2.108 -1.3785  0.2859 -0.2806
   89SAPE  H18Z 8723   3.274   4.131  -2.071  0.3383 -0.4151 -1.3093
   90SAPE     N 8724   1.617   3.715   0.119 -0.6411  0.1080 -0.0397
   90SAPE   HN1 8725   1.660   3.658   0.044 -0.4699 -0.1135  0.2252
   90SAPE   HN2 8726   1.584   3.642   0.184  1.0950  0.1868  0.9934
   90SAPE   HN3 8727   1.536   3.776   0.094 -0.2554  0.8047  0.3904
   90SAPE   C12 8728   1.725   3.800   0.181  0.6336 -0.9809 -0.0708
   90SAPE  H12A 8729   1.689   3.832   0.281 -1.7029  0.9731 -1.4293
   90SAPE  H12B 8730   1.745   3.887   0.115 -0.6194  0.5109  1.4337
   90SAPE   C11 8731   1.851   3.713   0.204  0.1731 -0.4302 -0.3685
   90SAPE  H11A 8732   1.937   3.782   0.221 -0.8782  1.3573 -1.8849
   90SAPE  H11B 8733   1.880   3.666   0.108  1.0125 -1.9279  0.5794
   90SAPE     P 8734   1.927   3.599   0.425  0.3637  0.0028  0.0967
   90SAPE   O13 8735   1.978   3.721   0.483 -0.4589 -0.0403 -0.1712
   90SAPE   O14 8736   1.867   3.499   0.520 -0.0607 -0.2349 -0.5916
   90SAPE   O12 8737   1.826   3.618   0.305  0.0121 -0.7388 -0.3151
   90SAPE   O11 8738   2.045   3.538   0.337 -0.0309 -0.3800 -0.2353
   90SAPE    C1 8739   2.026   3.417   0.262 -0.2058  0.1315  0.0694
   90SAPE    HA 8740   1.996   3.328   0.322 -2.4018 -0.2302 -1.4491
   90SAPE    HB 8741   1.937   3.424   0.196  1.2870 -0.3596 -2.1058
   90SAPE    C2 8742   2.128   3.392   0.151  0.1283 -0.0853 -0.1273
   90SAPE    HS 8743   2.231   3.404   0.190  0.2350  1.2074 -0.7646
   90SAPE   O21 8744   2.114   3.488   0.045  0.2826  0.1107  0.0108
   90SAPE   C21 8745   2.151   3.606   0.058  0.0808 -0.1750  0.3253
   90SAPE   O22 8746   2.198   3.665   0.152 -0.2610  0.4678  0.1725
   90SAPE   C22 8747   2.142   3.681  -0.078  0.1107 -0.0076  0.3814
   90SAPE   H2R 8748   2.201   3.616  -0.146  0.7761  0.7264  0.2427
   90SAPE   H2S 8749   2.040   3.671  -0.121  0.1489 -0.7343  0.4437
   90SAPE    C3 8750   2.112   3.248   0.089 -0.1961 -0.2987  0.3170
   90SAPE    HX 8751   2.005   3.230   0.064 -0.1782 -1.5296  1.0630
   90SAPE    HY 8752   2.141   3.173   0.166 -0.4701 -0.3085  0.4152
   90SAPE   O31 8753   2.194   3.228  -0.029 -0.4274  0.0566  0.0631
   90SAPE   C31 8754   2.125   3.193  -0.136 -0.2582 -0.1026  0.6647
   90SAPE   O32 8755   2.012   3.153  -0.138 -0.0593  0.4491 -0.7466
   90SAPE   C32 8756   2.221   3.208  -0.258  0.5817 -0.4001  0.4930
   90SAPE   H2X 8757   2.319   3.159  -0.241 -0.3192 -2.4960 -0.1065
   90SAPE   H2Y 8758   2.229   3.318  -0.273 -1.0125 -0.5943 -2.3149
   90SAPE   C23 8759   2.194   3.819  -0.087  0.4936 -0.9314 -0.5676
   90SAPE   H3R 8760   2.299   3.812  -0.051  0.7882  1.1743 -0.9060
   90SAPE   H3S 8761   2.148   3.880  -0.006  3.3772 -0.6741  1.0207
   90SAPE   C24 8762   2.189   3.880  -0.226 -0.4038  0.0001  1.0200
   90SAPE   H4R 8763   2.082   3.903  -0.243 -0.6507 -1.0241  1.1191
   90SAPE   H4S 8764   2.212   3.797  -0.297  1.2263 -0.4559  2.0343
   90SAPE   C25 8765   2.262   4.014  -0.229 -0.1188 -0.2841 -0.4114
   90SAPE   H5R 8766   2.263   4.072  -0.136  1.2608 -0.6703 -0.1661
   90SAPE   C26 8767   2.313   4.072  -0.336  0.2018  0.5166 -0.2391
   90SAPE   H6R 8768   2.358   4.172  -0.333  1.2125  0.1085 -0.9790
   90SAPE   C27 8769   2.301   3.995  -0.468  0.1517  0.6122  0.0924
   90SAPE   H7R 8770   2.198   3.963  -0.495 -1.5499  4.4130  1.3041
   90SAPE   H7S 8771   2.363   3.904  -0.456 -0.8652  0.0210  1.1939
   90SAPE   C28 8772   2.357   4.071  -0.587 -0.1000  0.4837  0.4004
   90SAPE   H8R 8773   2.423   4.158  -0.579 -0.3144  0.5079  2.4523
   90SAPE   C29 8774   2.353   4.020  -0.715 -0.3109 -0.0061  0.0119
   90SAPE   H9R 8775   2.390   4.079  -0.800 -0.1695  0.3988  0.3479
   90SAPE  C210 8776   2.259   3.905  -0.750 -0.0685  0.2096  0.2725
   90SAPE  H10R 8777   2.158   3.952  -0.748  0.7998  2.1729  0.4444
   90SAPE  H10S 8778   2.263   3.825  -0.674  0.4611 -0.1143 -0.0870
   90SAPE  C211 8779   2.277   3.833  -0.880  0.2328 -0.5388  0.3337
   90SAPE  H11R 8780   2.313   3.730  -0.869  0.0961 -0.8784 -1.9510
   90SAPE  C212 8781   2.255   3.877  -1.003 -0.5501  0.8917  0.0950
   90SAPE  H12R 8782   2.249   3.803  -1.084 -0.1049  0.0731  0.7847
   90SAPE  C213 8783   2.211   4.011  -1.049  0.6290 -0.2902  0.3589
   90SAPE  H13R 8784   2.251   4.019  -1.152 -0.3696  1.7407  0.0752
   90SAPE  H13S 8785   2.255   4.095  -0.992 -1.6211 -0.1572  2.0673
   90SAPE  C214 8786   2.056   4.036  -1.060 -0.8831  0.1782  0.3979
   90SAPE  H14R 8787   1.997   4.040  -0.968  0.9054  0.2819  1.5922
   90SAPE  C215 8788   1.992   4.065  -1.174  0.0562  0.2922  0.4464
   90SAPE  H15R 8789   1.882   4.059  -1.165 -0.0343  0.3575 -0.5081
   90SAPE  C216 8790   2.039   4.086  -1.316 -0.4448 -0.0767 -1.1968
   90SAPE  H16R 8791   2.145   4.118  -1.320  0.2096 -2.2180 -1.8527
   90SAPE  H16S 8792   1.980   4.171  -1.357 -0.0985  1.2068  0.7979
   90SAPE  C217 8793   2.024   3.968  -1.413  0.4262  0.2374 -0.3764
   90SAPE  H17R 8794   1.915   3.946  -1.417  0.2632  0.4764  1.6075
   90SAPE  H17S 8795   2.073   3.877  -1.370 -1.5252 -0.7776 -0.1880
   90SAPE  C218 8796   2.066   4.000  -1.560 -0.7639 -0.0187  0.3962
   90SAPE  H18R 8797   2.159   4.061  -1.560 -0.9738  0.3426 -1.2102
   90SAPE  H18S 8798   1.984   4.061  -1.603 -0.1545  0.1137 -0.6222
   90SAPE  C219 8799   2.088   3.878  -1.653 -0.1956 -0.0422  0.4099
   90SAPE  H19R 8800   1.999   3.813  -1.664  0.1655 -0.2566 -1.7516
   90SAPE  H19S 8801   2.162   3.822  -1.593 -0.3843 -0.6023  0.1245
   90SAPE  C220 8802   2.136   3.915  -1.797  0.0734 -0.4170  0.0762
   90SAPE  H20R 8803   2.234   3.966  -1.789 -0.3839  0.4903  0.0082
   90SAPE  H20S 8804   2.070   3.991  -1.845 -0.0738 -0.3258  0.4195
   90SAPE  H20T 8805   2.168   3.835  -1.866  1.1671  0.6635 -0.7122
   90SAPE   C33 8806   2.154   3.152  -0.387 -0.3222 -1.0307  0.0315
   90SAPE   H3X 8807   2.053   3.199  -0.388  0.2602  0.3959  1.5186
   90SAPE   H3Y 8808   2.126   3.045  -0.376 -4.3665 -0.0763  0.7148
   90SAPE   C34 8809   2.229   3.179  -0.511  1.0684  0.1951  0.2908
   90SAPE   H4X 8810   2.335   3.148  -0.494  1.7327  1.2218 -1.6905
   90SAPE   H4Y 8811   2.231   3.283  -0.551  1.9957 -1.1859 -3.7107
   90SAPE   C35 8812   2.170   3.098  -0.627 -0.4004 -0.1130  0.0945
   90SAPE   H5X 8813   2.074   3.143  -0.661  1.1325  3.4186  0.0110
   90SAPE   H5Y 8814   2.160   2.991  -0.598  1.9114 -0.5746 -0.5743
   90SAPE   C36 8815   2.262   3.093  -0.749 -0.0126 -0.2821 -0.2496
   90SAPE   H6X 8816   2.351   3.034  -0.719 -1.6431 -2.9169 -0.2789
   90SAPE   H6Y 8817   2.295   3.198  -0.765 -0.4906  0.2217  1.7217
   90SAPE   C37 8818   2.218   3.042  -0.884  0.4368  0.6148  0.8398
   90SAPE   H7X 8819   2.124   3.081  -0.930 -1.1130 -0.2435  3.0911
   90SAPE   H7Y 8820   2.190   2.935  -0.881 -2.9699  1.3707  0.3167
   90SAPE   C38 8821   2.333   3.056  -0.987  0.5397  0.2525  0.0634
   90SAPE   H8X 8822   2.425   3.018  -0.938  0.8084 -1.1959 -1.4946
   90SAPE   H8Y 8823   2.350   3.165  -1.002 -1.5590  0.6550  0.3462
   90SAPE   C39 8824   2.296   2.996  -1.118 -0.3692  0.1202  0.3963
   90SAPE   H9X 8825   2.208   3.048  -1.161  1.7330  2.8463 -0.8913
   90SAPE   H9Y 8826   2.288   2.885  -1.111 -1.3271  0.2347  1.3923
   90SAPE  C310 8827   2.404   3.026  -1.224  0.6139 -0.3245 -0.3676
   90SAPE  H10X 8828   2.500   2.974  -1.204 -0.7924 -2.6541  0.7221
   90SAPE  H10Y 8829   2.427   3.133  -1.206  1.4935 -0.2700 -1.6683
   90SAPE  C311 8830   2.380   3.003  -1.372  1.1491  0.1237  0.4386
   90SAPE  H11X 8831   2.377   3.106  -1.415 -0.2574  0.0751  0.4037
   90SAPE  H11Y 8832   2.272   2.981  -1.375  0.9213  1.0634  1.2931
   90SAPE  C312 8833   2.474   2.924  -1.453 -0.4355  0.1161  0.0685
   90SAPE  H12X 8834   2.470   2.821  -1.413  1.4979 -0.4374 -1.0004
   90SAPE  H12Y 8835   2.579   2.956  -1.437 -0.2703 -0.4895  0.2057
   90SAPE  C313 8836   2.450   2.924  -1.608 -0.8268  0.2505  0.1384
   90SAPE  H13X 8837   2.439   3.033  -1.626 -0.5926  0.0140 -1.5503
   90SAPE  H13Y 8838   2.357   2.871  -1.637 -0.6102  0.2796 -0.6321
   90SAPE  C314 8839   2.558   2.862  -1.685 -0.1849 -0.1311  0.3542
   90SAPE  H14X 8840   2.567   2.755  -1.655  2.6024 -0.5424 -1.4936
   90SAPE  H14Y 8841   2.655   2.907  -1.655  0.2855 -1.3342  0.7297
   90SAPE  C315 8842   2.556   2.884  -1.838 -0.4629 -0.6570 -0.0728
   90SAPE  H15X 8843   2.533   2.991  -1.856 -0.0221  0.0625  3.0774
   90SAPE  H15Y 8844   2.482   2.817  -1.888 -2.4907  0.4041  1.3431
   90SAPE  C316 8845   2.701   2.870  -1.887 -0.1441 -0.5647 -0.5230
   90SAPE  H16X 8846   2.759   2.954  -1.844 -1.1955 -0.1053  0.0266
   90SAPE  H16Y 8847   2.688   2.887  -1.996  2.2574 -0.3897 -0.8314
   90SAPE  C317 8848   2.763   2.734  -1.861  0.1777  0.0538 -0.4190
   90SAPE  H17X 8849   2.680   2.662  -1.878  0.5935  0.1793 -3.5546
   90SAPE  H17Y 8850   2.794   2.733  -1.755 -2.4520  0.3831  0.4322
   90SAPE  C318 8851   2.893   2.705  -1.938 -0.2084  0.2650 -0.2748
   90SAPE  H18X 8852   2.868   2.697  -2.046 -1.0023 -0.3046 -0.0606
   90SAPE  H18Y 8853   2.954   2.619  -1.903  3.7206  3.3245  1.2465
   90SAPE  H18Z 8854   2.952   2.798  -1.925 -0.1677  0.6324 -2.7124
   91SAPE     N 8855   2.914   6.427   0.382  0.4792 -0.6415  0.2015
   91SAPE   HN1 8856   2.895   6.456   0.480  1.7337 -3.8567  1.5250
   91SAPE   HN2 8857   2.837   6.375   0.335 -0.3631 -0.3090  1.1714
   91SAPE   HN3 8858   2.975   6.346   0.404 -1.1126 -1.9665 -0.0501
   91SAPE   C12 8859   2.975   6.531   0.283 -0.0184 -0.0465  0.0209
   91SAPE  H12A 8860   3.052   6.585   0.342 -0.8016 -0.3880  1.4157
   91SAPE  H12B 8861   2.883   6.587   0.257 -1.6438 -1.6404  1.9715
   91SAPE   C11 8862   3.028   6.466   0.154  0.2332 -0.2207 -1.0448
   91SAPE  H11A 8863   2.944   6.452   0.083 -0.9742  1.0173  0.0673
   91SAPE  H11B 8864   3.082   6.375   0.187 -0.7763 -0.6053 -0.4119
   91SAPE     P 8865   3.266   6.562   0.082  0.1146  0.2423 -0.3761
   91SAPE   O13 8866   3.315   6.689   0.138 -0.1185  0.3597  0.1933
   91SAPE   O14 8867   3.322   6.436   0.138 -0.2949  0.7580  0.0547
   91SAPE   O12 8868   3.109   6.561   0.089 -0.1100  0.4087  0.3743
   91SAPE   O11 8869   3.299   6.565  -0.068 -0.3178  0.6870  0.5881
   91SAPE    C1 8870   3.240   6.656  -0.159  0.1919 -0.9861 -0.4106
   91SAPE    HA 8871   3.168   6.594  -0.216 -1.7056 -0.0279  0.8681
   91SAPE    HB 8872   3.183   6.736  -0.108  0.7598  0.3997 -1.8468
   91SAPE    C2 8873   3.350   6.728  -0.240 -0.1026  0.4030  0.4388
   91SAPE    HS 8874   3.299   6.817  -0.282  1.0839  0.3010 -1.3199
   91SAPE   O21 8875   3.413   6.632  -0.327  0.3823 -0.1795  0.0638
   91SAPE   C21 8876   3.358   6.618  -0.442  0.4442 -0.6604  0.6609
   91SAPE   O22 8877   3.262   6.678  -0.485 -0.1258  0.8342 -0.0469
   91SAPE   C22 8878   3.423   6.501  -0.527 -0.1423 -0.0221  0.6156
   91SAPE   H2R 8879   3.430   6.414  -0.458 -4.0666 -1.1116 -0.1133
   91SAPE   H2S 8880   3.349   6.480  -0.606  0.1515 -0.3241  0.4182
   91SAPE    C3 8881   3.457   6.783  -0.148 -0.3474  0.8004  0.0930
   91SAPE    HX 8882   3.494   6.694  -0.093 -1.3826  0.8380  0.8916
   91SAPE    HY 8883   3.413   6.843  -0.065 -0.6978 -1.5274  1.6677
   91SAPE   O31 8884   3.554   6.862  -0.222  0.0463  0.3235 -0.5212
   91SAPE   C31 8885   3.678   6.856  -0.174  0.4176 -0.6563  0.2112
   91SAPE   O32 8886   3.717   6.798  -0.078  0.1695  0.4457  0.2005
   91SAPE   C32 8887   3.756   6.963  -0.255  0.1379 -0.4950  0.4763
   91SAPE   H2X 8888   3.862   6.952  -0.223  0.4063 -2.7953 -1.0148
   91SAPE   H2Y 8889   3.723   7.062  -0.217 -0.3975 -1.1799  1.8640
   91SAPE   C23 8890   3.559   6.525  -0.595  0.2645 -0.6978  0.0442
   91SAPE   H3R 8891   3.643   6.546  -0.525  1.8088 -1.5732 -1.4834
   91SAPE   H3S 8892   3.540   6.607  -0.667 -0.1851 -0.7539  0.0913
   91SAPE   C24 8893   3.606   6.396  -0.674 -0.2637  0.0518 -0.1206
   91SAPE   H4R 8894   3.522   6.335  -0.713  0.9808 -2.1702  0.4974
   91SAPE   H4S 8895   3.660   6.331  -0.602  3.0678  1.2224 -1.3516
   91SAPE   C25 8896   3.713   6.438  -0.774 -0.3791 -0.2183  0.7282
   91SAPE   H5R 8897   3.783   6.519  -0.747 -0.6832  0.9590 -1.6632
   91SAPE   C26 8898   3.715   6.403  -0.910  0.2273  0.1488 -0.2007
   91SAPE   H6R 8899   3.799   6.441  -0.971  0.3639  1.6387  0.8363
   91SAPE   C27 8900   3.619   6.306  -0.972 -0.2433 -0.8456 -0.4941
   91SAPE   H7R 8901   3.529   6.360  -1.007 -0.0562  0.4729  0.9399
   91SAPE   H7S 8902   3.577   6.231  -0.902 -1.4516  0.3030  0.0700
   91SAPE   C28 8903   3.692   6.231  -1.086 -0.5103 -0.5425  0.1430
   91SAPE   H8R 8904   3.700   6.124  -1.065  0.3134 -0.1126  2.2043
   91SAPE   C29 8905   3.713   6.276  -1.218  0.2564  0.1748  0.1677
   91SAPE   H9R 8906   3.784   6.217  -1.278  1.7130  1.6196  0.3910
   91SAPE  C210 8907   3.695   6.415  -1.269  0.4939  0.8023  0.6439
   91SAPE  H10R 8908   3.624   6.471  -1.205  0.2778  0.2119  0.9282
   91SAPE  H10S 8909   3.663   6.410  -1.375 -2.0969  2.8132  1.2309
   91SAPE  C211 8910   3.827   6.491  -1.257  0.4145  0.0518 -0.5432
   91SAPE  H11R 8911   3.880   6.476  -1.162  0.1814 -0.8380 -0.5461
   91SAPE  C212 8912   3.886   6.579  -1.348  0.2409  0.1737  0.2943
   91SAPE  H12R 8913   3.979   6.625  -1.313 -1.4332  2.4645  2.0068
   91SAPE  C213 8914   3.838   6.619  -1.484  0.6790 -0.2330 -0.3443
   91SAPE  H13R 8915   3.843   6.530  -1.549  0.3708 -1.8159  1.6903
   91SAPE  H13S 8916   3.917   6.685  -1.525  0.5959 -0.8349 -1.4954
   91SAPE  C214 8917   3.701   6.681  -1.492 -0.0406 -0.5155 -0.1418
   91SAPE  H14R 8918   3.639   6.662  -1.403  0.3929  0.4075  0.3692
   91SAPE  C215 8919   3.644   6.736  -1.602  0.4044  0.4303  0.1385
   91SAPE  H15R 8920   3.536   6.758  -1.599  0.4774  0.7738  0.3006
   91SAPE  C216 8921   3.707   6.748  -1.743  0.3655 -0.4467 -0.6898
   91SAPE  H16R 8922   3.640   6.690  -1.810  0.7554  1.0573 -2.4966
   91SAPE  H16S 8923   3.809   6.705  -1.752  0.4624 -0.6492  1.1242
   91SAPE  C217 8924   3.703   6.894  -1.789 -0.9140 -0.1189 -0.6211
   91SAPE  H17R 8925   3.758   6.948  -1.709  0.3132 -1.4788 -0.4833
   91SAPE  H17S 8926   3.599   6.933  -1.794 -1.5585 -0.7582  3.5817
   91SAPE  C218 8927   3.758   6.913  -1.931  0.2847  0.6981  0.4422
   91SAPE  H18R 8928   3.703   6.848  -2.002  0.5562  0.5777  0.3386
   91SAPE  H18S 8929   3.865   6.883  -1.930  0.6354  1.7860 -0.9556
   91SAPE  C219 8930   3.745   7.054  -1.980  0.1616 -0.0913  0.2755
   91SAPE  H19R 8931   3.784   7.129  -1.908  1.3224  1.6063 -1.9948
   91SAPE  H19S 8932   3.637   7.074  -1.991  0.2298  0.3816  0.4542
   91SAPE  C220 8933   3.809   7.073  -2.114 -0.5184 -0.0022 -0.1816
   91SAPE  H20R 8934   3.791   7.172  -2.162 -0.7036 -0.0580 -0.2282
   91SAPE  H20S 8935   3.781   6.991  -2.183  1.2749 -1.2076  0.4433
   91SAPE  H20T 8936   3.918   7.052  -2.114 -0.7022 -1.0076 -0.5377
   91SAPE   C33 8937   3.726   6.971  -0.407 -0.3975 -0.5488  0.0319
   91SAPE   H3X 8938   3.766   7.068  -0.444  1.8047 -1.5988 -0.5342
   91SAPE   H3Y 8939   3.617   6.966  -0.423 -0.7020  1.2082  1.2722
   91SAPE   C34 8940   3.788   6.858  -0.475 -0.5731  0.4640  0.6410
   91SAPE   H4X 8941   3.762   6.765  -0.420 -0.1151 -0.2634 -0.3307
   91SAPE   H4Y 8942   3.899   6.861  -0.474 -0.3709 -2.6911 -0.0617
   91SAPE   C35 8943   3.735   6.843  -0.621 -0.1790  0.1171  0.0213
   91SAPE   H5X 8944   3.624   6.855  -0.618 -0.4479 -1.3863 -1.9555
   91SAPE   H5Y 8945   3.755   6.736  -0.643  2.3802  0.0417  2.2421
   91SAPE   C36 8946   3.794   6.946  -0.721 -0.3155  0.4228 -0.2510
   91SAPE   H6X 8947   3.903   6.959  -0.702  0.4880 -3.0502 -1.5973
   91SAPE   H6Y 8948   3.753   7.046  -0.694 -0.3906  0.4866 -0.5884
   91SAPE   C37 8949   3.770   6.901  -0.867  0.3713 -0.0317  0.0001
   91SAPE   H7X 8950   3.669   6.856  -0.882  0.6488 -0.2747 -1.3078
   91SAPE   H7Y 8951   3.852   6.827  -0.883  1.7402  1.4921 -0.2584
   91SAPE   C38 8952   3.785   7.006  -0.980 -0.2516 -0.0960 -0.5473
   91SAPE   H8X 8953   3.894   7.026  -0.973 -0.0545 -1.2382 -0.1945
   91SAPE   H8Y 8954   3.718   7.092  -0.963  1.6683  0.9518  2.6010
   91SAPE   C39 8955   3.764   6.952  -1.121  0.1015  0.9217  0.0821
   91SAPE   H9X 8956   3.656   6.939  -1.142  0.1166  2.5296 -1.1423
   91SAPE   H9Y 8957   3.810   6.852  -1.134  1.2452  1.3227  0.8931
   91SAPE  C310 8958   3.829   7.043  -1.226  0.5842  0.6379 -0.3274
   91SAPE  H10X 8959   3.915   7.092  -1.175  0.4939  0.5300 -0.0690
   91SAPE  H10Y 8960   3.750   7.120  -1.235  0.7549  0.7689 -0.7407
   91SAPE  C311 8961   3.865   6.990  -1.367  0.3363  0.2304  0.3567
   91SAPE  H11X 8962   3.780   6.966  -1.434  0.7257  1.1204 -0.4708
   91SAPE  H11Y 8963   3.925   6.898  -1.349 -0.1798 -0.0715  0.5530
   91SAPE  C312 8964   3.938   7.092  -1.460  0.0034  0.0314 -0.6131
   91SAPE  H12X 8965   4.028   7.123  -1.402 -0.7739  0.7661  0.2317
   91SAPE  H12Y 8966   3.876   7.178  -1.492  1.6121  1.6054  0.3003
   91SAPE  C313 8967   3.997   7.018  -1.580 -0.8644  0.5809  0.4017
   91SAPE  H13X 8968   3.935   6.942  -1.633 -0.3223 -0.9247  1.8588
   91SAPE  H13Y 8969   4.089   6.970  -1.540 -3.3398 -2.2272  3.2802
   91SAPE  C314 8970   4.042   7.124  -1.686 -0.4070  0.3939  0.4561
   91SAPE  H14X 8971   4.097   7.196  -1.622 -0.7769 -0.1113  1.3803
   91SAPE  H14Y 8972   3.957   7.177  -1.735  0.4354  1.1307 -0.2248
   91SAPE  C315 8973   4.144   7.078  -1.797  0.4653  0.7596 -0.1925
   91SAPE  H15X 8974   4.089   7.001  -1.855  2.2809 -2.9544  2.5577
   91SAPE  H15Y 8975   4.221   7.013  -1.750  0.3901 -1.0500 -2.4268
   91SAPE  C316 8976   4.208   7.199  -1.862  0.4552 -0.0031 -0.1233
   91SAPE  H16X 8977   4.273   7.248  -1.786 -1.4263  0.6146  1.1444
   91SAPE  H16Y 8978   4.137   7.277  -1.895  0.2595  0.8068  2.0970
   91SAPE  C317 8979   4.294   7.158  -1.987  0.1193  0.0705  0.3607
   91SAPE  H17X 8980   4.238   7.095  -2.060  0.4592  0.9203 -0.6471
   91SAPE  H17Y 8981   4.371   7.082  -1.961 -2.2325 -3.0234 -1.0520
   91SAPE  C318 8982   4.359   7.280  -2.049  0.1342  0.2933  0.3066
   91SAPE  H18X 8983   4.445   7.252  -2.113 -1.2099 -0.1181 -1.4076
   91SAPE  H18Y 8984   4.395   7.350  -1.971 -1.3295  0.6758  0.6708
   91SAPE  H18Z 8985   4.284   7.332  -2.112 -0.0787  0.8835  1.0402
   92SAPE     N 8986   3.331   6.169   0.085  0.2680 -1.1624  0.6093
   92SAPE   HN1 8987   3.388   6.153  -0.000  0.6877  0.5960  0.5372
   92SAPE   HN2 8988   3.241   6.120   0.068 -0.0479 -0.3982  0.0357
   92SAPE   HN3 8989   3.323   6.272   0.098  3.2684 -0.6404 -0.9729
   92SAPE   C12 8990   3.398   6.116   0.209 -0.9103 -0.4762  0.0358
   92SAPE  H12A 8991   3.349   6.156   0.300 -0.8186 -0.2437 -0.0169
   92SAPE  H12B 8992   3.501   6.158   0.221 -2.0654  2.0564  2.0446
   92SAPE   C11 8993   3.402   5.967   0.192  0.6110 -0.0939 -0.7223
   92SAPE  H11A 8994   3.300   5.932   0.165  0.8248 -0.7189 -0.7541
   92SAPE  H11B 8995   3.433   5.923   0.290  0.4701 -0.0042 -0.6388
   92SAPE     P 8996   3.638   5.895   0.077 -0.5636  0.0484 -0.2978
   92SAPE   O13 8997   3.709   6.017   0.122 -0.1261  1.1242  0.0302
   92SAPE   O14 8998   3.679   5.766   0.139  0.2476 -0.4727 -0.1920
   92SAPE   O12 8999   3.482   5.912   0.085 -0.5893 -0.0716  0.1104
   92SAPE   O11 9000   3.670   5.890  -0.076 -0.7044 -0.3979 -0.2706
   92SAPE    C1 9001   3.792   5.939  -0.133  0.3429 -0.1293  0.3791
   92SAPE    HA 9002   3.783   5.948  -0.244 -0.2168  0.1515  0.4427
   92SAPE    HB 9003   3.816   6.040  -0.095  0.0969 -0.9433  2.8375
   92SAPE    C2 9004   3.920   5.855  -0.091 -0.7171 -0.0864 -0.8549
   92SAPE    HS 9005   3.913   5.844   0.020 -0.3146 -0.0688 -0.8272
   92SAPE   O21 9006   4.043   5.917  -0.131  0.0542 -0.1557  0.3680
   92SAPE   C21 9007   4.134   5.933  -0.031  0.1773  0.2095 -0.2546
   92SAPE   O22 9008   4.128   5.872   0.076 -0.2782  0.3808  0.4565
   92SAPE   C22 9009   4.240   6.037  -0.082  0.7933  0.3514 -0.2484
   92SAPE   H2R 9010   4.309   5.985  -0.151  2.0565  1.3613  0.2116
   92SAPE   H2S 9011   4.186   6.118  -0.137  1.4596  0.9424 -0.0394
   92SAPE    C3 9012   3.911   5.710  -0.149 -0.7488 -0.0717 -0.5836
   92SAPE    HX 9013   3.841   5.653  -0.084  0.9187 -1.5514 -0.0022
   92SAPE    HY 9014   4.011   5.664  -0.136 -0.9600  0.1622  2.7453
   92SAPE   O31 9015   3.863   5.710  -0.289 -0.2597  0.0293  0.1296
   92SAPE   C31 9016   3.863   5.583  -0.335  0.6084 -0.3069 -0.4906
   92SAPE   O32 9017   3.909   5.484  -0.277  0.3960  0.0401  0.3881
   92SAPE   C32 9018   3.817   5.585  -0.480  0.2446  0.1868  0.7731
   92SAPE   H2X 9019   3.851   5.682  -0.522  1.7861  0.9323  3.5235
   92SAPE   H2Y 9020   3.706   5.595  -0.477  0.2996  0.4990  2.5395
   92SAPE   C23 9021   4.329   6.095   0.025 -0.5759  0.3239  0.2716
   92SAPE   H3R 9022   4.392   6.016   0.072 -0.7589 -1.2950 -2.0720
   92SAPE   H3S 9023   4.272   6.135   0.112 -0.9668  0.8733 -0.2322
   92SAPE   C24 9024   4.417   6.211  -0.024  0.0974  0.0893  0.2892
   92SAPE   H4R 9025   4.478   6.179  -0.111  1.4558  0.4900  1.0721
   92SAPE   H4S 9026   4.492   6.231   0.055  2.1188 -0.0627 -1.4873
   92SAPE   C25 9027   4.334   6.334  -0.056  0.4732 -0.4863 -0.0357
   92SAPE   H5R 9028   4.279   6.377   0.028  1.4530  0.1596  0.2901
   92SAPE   C26 9029   4.318   6.386  -0.181  0.3276  1.4031  0.3191
   92SAPE   H6R 9030   4.252   6.473  -0.190 -0.2933  0.9130  0.1244
   92SAPE   C27 9031   4.386   6.339  -0.308 -0.1250 -0.0884 -0.0228
   92SAPE   H7R 9032   4.317   6.369  -0.390 -0.6949  0.9068  0.7961
   92SAPE   H7S 9033   4.395   6.228  -0.314 -1.2800 -0.3944  2.6711
   92SAPE   C28 9034   4.527   6.398  -0.320  0.2762  0.2378  0.6587
   92SAPE   H8R 9035   4.561   6.448  -0.228 -0.6212  1.0139  0.5815
   92SAPE   C29 9036   4.597   6.380  -0.431  0.5950 -1.1165  0.9054
   92SAPE   H9R 9037   4.698   6.423  -0.420  0.2689 -0.6174  2.0665
   92SAPE  C210 9038   4.561   6.324  -0.568 -1.1981 -0.8034 -0.2200
   92SAPE  H10R 9039   4.536   6.409  -0.636 -1.6105 -2.2129 -1.8923
   92SAPE  H10S 9040   4.470   6.263  -0.549 -1.9299  0.9947  2.6253
   92SAPE  C211 9041   4.666   6.230  -0.623 -0.0936  0.3312 -0.1106
   92SAPE  H11R 9042   4.748   6.207  -0.553  1.7621  0.6447 -2.0912
   92SAPE  C212 9043   4.661   6.185  -0.747 -0.0747 -0.5059  0.0178
   92SAPE  H12R 9044   4.741   6.116  -0.778  0.7481 -1.0637  3.0291
   92SAPE  C213 9045   4.559   6.213  -0.857 -0.4613 -0.3452  0.3051
   92SAPE  H13R 9046   4.615   6.256  -0.942 -3.8877  1.1935 -1.3972
   92SAPE  H13S 9047   4.488   6.293  -0.828 -0.3914  0.1024 -0.7261
   92SAPE  C214 9048   4.484   6.082  -0.875  0.0490  0.3035  0.6382
   92SAPE  H14R 9049   4.410   6.051  -0.800  1.3812 -1.6610  1.2119
   92SAPE  C215 9050   4.502   6.003  -0.980  0.0570  0.5171  0.1613
   92SAPE  H15R 9051   4.472   5.897  -0.983  1.5668  0.0277  1.2480
   92SAPE  C216 9052   4.599   6.042  -1.090  0.6048  0.1396 -0.1572
   92SAPE  H16R 9053   4.690   5.981  -1.070 -1.2329 -2.2771  1.3418
   92SAPE  H16S 9054   4.627   6.149  -1.100 -0.8259  0.4767 -0.7852
   92SAPE  C217 9055   4.556   6.018  -1.235  0.5923  0.0402  0.5872
   92SAPE  H17R 9056   4.499   6.104  -1.277  0.8542 -0.3191 -0.5646
   92SAPE  H17S 9057   4.494   5.926  -1.236  0.3366  0.2126  0.4024
   92SAPE  C218 9058   4.656   5.982  -1.339  0.0423  0.4197 -0.4069
   92SAPE  H18R 9059   4.722   5.898  -1.306 -0.8893  0.0197  0.4930
   92SAPE  H18S 9060   4.726   6.063  -1.369  1.3374 -0.0997  1.0725
   92SAPE  C219 9061   4.591   5.934  -1.471 -0.6873 -0.3841 -0.1329
   92SAPE  H19R 9062   4.663   5.951  -1.554 -0.5029  0.6306  0.2167
   92SAPE  H19S 9063   4.507   6.006  -1.485  1.4090  1.8948 -1.6418
   92SAPE  C220 9064   4.544   5.795  -1.478  0.2066  0.0335 -0.1430
   92SAPE  H20R 9065   4.632   5.733  -1.452 -0.3561 -1.0921 -0.8309
   92SAPE  H20S 9066   4.511   5.762  -1.579  1.7404 -0.4749 -0.5164
   92SAPE  H20T 9067   4.464   5.779  -1.404  2.1431 -2.7980  1.5136
   92SAPE   C33 9068   3.882   5.485  -0.581  0.6805  0.1415  0.4417
   92SAPE   H3X 9069   3.839   5.384  -0.561  0.3202  0.5929  2.1748
   92SAPE   H3Y 9070   3.990   5.479  -0.556  0.8500 -2.4780 -0.5966
   92SAPE   C34 9071   3.847   5.529  -0.724  0.1303  0.2624  0.4787
   92SAPE   H4X 9072   3.892   5.631  -0.732  0.3276  0.1514  0.1858
   92SAPE   H4Y 9073   3.737   5.537  -0.730  0.1594 -0.0158 -0.6273
   92SAPE   C35 9074   3.914   5.426  -0.818 -0.3378  0.3309 -0.6033
   92SAPE   H5X 9075   3.851   5.335  -0.805  0.3249 -0.0910 -0.3110
   92SAPE   H5Y 9076   4.014   5.394  -0.780 -0.4669  0.1340 -0.4210
   92SAPE   C36 9077   3.908   5.466  -0.966 -0.4965 -0.2791 -0.3306
   92SAPE   H6X 9078   3.964   5.561  -0.980  1.4593 -0.9498  2.2753
   92SAPE   H6Y 9079   3.800   5.481  -0.987 -0.0745 -1.0847 -3.7523
   92SAPE   C37 9080   3.960   5.352  -1.055  0.2105  0.1654  0.5494
   92SAPE   H7X 9081   3.896   5.262  -1.040 -1.3017  1.3582  1.7296
   92SAPE   H7Y 9082   4.063   5.326  -1.025 -0.1013 -1.1404  0.5596
   92SAPE   C38 9083   3.974   5.399  -1.202  0.2532 -0.0494 -0.8983
   92SAPE   H8X 9084   4.055   5.472  -1.222 -1.5058  2.8003  1.5385
   92SAPE   H8Y 9085   3.883   5.458  -1.228 -0.6199  0.0335  1.9702
   92SAPE   C39 9086   3.993   5.296  -1.305  0.7244  0.3849 -0.2600
   92SAPE   H9X 9087   3.908   5.225  -1.311  2.6733 -2.0087 -1.2389
   92SAPE   H9Y 9088   4.086   5.245  -1.272  0.7319  0.3631 -0.3133
   92SAPE  C310 9089   4.017   5.353  -1.446  0.0315  0.4135 -0.1633
   92SAPE  H10X 9090   4.111   5.412  -1.444  0.3578  0.0002 -1.6709
   92SAPE  H10Y 9091   3.940   5.425  -1.481 -0.8206  0.2403  1.2686
   92SAPE  C311 9092   4.030   5.240  -1.551  0.5373 -0.5840  0.8201
   92SAPE  H11X 9093   3.927   5.213  -1.582 -0.1491  2.9031 -0.4208
   92SAPE  H11Y 9094   4.091   5.161  -1.502  2.8855  2.2618  2.7730
   92SAPE  C312 9095   4.102   5.285  -1.676 -0.4587  0.3635 -0.3738
   92SAPE  H12X 9096   4.097   5.198  -1.744 -0.2085 -0.3736  0.5360
   92SAPE  H12Y 9097   4.209   5.305  -1.654 -0.2193 -0.8314 -0.3916
   92SAPE  C313 9098   4.024   5.389  -1.764  0.0717  0.0032  0.5797
   92SAPE  H13X 9099   4.017   5.475  -1.695 -0.3402 -0.7569  1.5126
   92SAPE  H13Y 9100   3.927   5.344  -1.795  0.2942 -0.5868  0.7183
   92SAPE  C314 9101   4.123   5.427  -1.879  0.5231  0.3832  0.0418
   92SAPE  H14X 9102   4.176   5.334  -1.911 -1.7582 -1.4787  1.3312
   92SAPE  H14Y 9103   4.192   5.509  -1.850 -0.3000  1.0994  0.0301
   92SAPE  C315 9104   4.040   5.468  -2.005  0.1645 -0.2215 -0.5902
   92SAPE  H15X 9105   3.977   5.558  -1.989 -0.5139 -0.9693  1.1566
   92SAPE  H15Y 9106   3.968   5.392  -2.042  0.5656 -0.3573 -1.0997
   92SAPE  C316 9107   4.135   5.517  -2.122  0.0557  0.3913  0.4377
   92SAPE  H16X 9108   4.214   5.574  -2.069 -0.8099 -0.4689  2.7962
   92SAPE  H16Y 9109   4.077   5.591  -2.180 -0.8603  1.0327  2.0939
   92SAPE  C317 9110   4.193   5.401  -2.205 -0.2136 -0.4956 -0.2465
   92SAPE  H17X 9111   4.107   5.377  -2.271 -1.3249 -1.2344  1.3922
   92SAPE  H17Y 9112   4.211   5.313  -2.139 -0.9057  1.2336  2.3997
   92SAPE  C318 9113   4.315   5.423  -2.291  0.7105 -0.6706  0.2046
   92SAPE  H18X 9114   4.400   5.465  -2.234  1.7513 -0.8016 -1.2225
   92SAPE  H18Y 9115   4.295   5.488  -2.379  1.0641  0.0521  0.6463
   92SAPE  H18Z 9116   4.356   5.327  -2.329  1.3628 -0.1909 -0.3195
   93SAPE     N 9117   3.891   4.034   0.648 -0.1724  0.5004 -0.1655
   93SAPE   HN1 9118   3.912   4.135   0.645  2.2817  0.2016  2.4996
   93SAPE   HN2 9119   3.813   4.008   0.585  0.4208 -1.2071 -0.2479
   93SAPE   HN3 9120   3.857   4.017   0.745 -0.3570  0.7952 -0.1772
   93SAPE   C12 9121   4.000   3.937   0.596  0.8221 -0.2903 -0.6515
   93SAPE  H12A 9122   3.957   3.836   0.579 -1.0537  0.7433 -2.5177
   93SAPE  H12B 9123   4.073   3.928   0.680  1.4199 -1.2494 -1.2547
   93SAPE   C11 9124   4.068   3.994   0.475  0.8436 -0.2277  0.2472
   93SAPE  H11A 9125   4.172   3.954   0.468  0.4903 -1.3794  1.2603
   93SAPE  H11B 9126   4.069   4.105   0.478 -1.2882 -0.1604  0.0330
   93SAPE     P 9127   3.986   3.827   0.285 -0.8604 -0.3829 -0.4192
   93SAPE   O13 9128   3.944   3.711   0.364  0.1306  0.2886  0.3151
   93SAPE   O14 9129   3.909   3.846   0.161  0.4496 -0.3317  0.2924
   93SAPE   O12 9130   3.974   3.967   0.364 -1.1229 -0.4709  0.6171
   93SAPE   O11 9131   4.136   3.810   0.243  0.2222  0.2394 -0.3333
   93SAPE    C1 9132   4.209   3.908   0.180 -0.2309  0.8228  0.2573
   93SAPE    HA 9133   4.153   3.942   0.090 -1.2066  1.0167  0.9171
   93SAPE    HB 9134   4.209   3.999   0.242  0.3399 -0.6192  2.4929
   93SAPE    C2 9135   4.358   3.858   0.155  0.1654  0.4957  0.2700
   93SAPE    HS 9136   4.408   3.956   0.138 -0.6684  0.8786 -0.0568
   93SAPE   O21 9137   4.356   3.769   0.037  0.4408  0.2720  0.3278
   93SAPE   C21 9138   4.378   3.835  -0.078  0.1589  0.0056  0.2060
   93SAPE   O22 9139   4.379   3.959  -0.084  0.0372  1.2483  0.5913
   93SAPE   C22 9140   4.386   3.745  -0.206  1.0114  0.3863 -0.6336
   93SAPE   H2R 9141   4.421   3.645  -0.173 -1.8402 -0.3823  0.3286
   93SAPE   H2S 9142   4.290   3.750  -0.261 -0.0290  2.0769  1.2112
   93SAPE    C3 9143   4.406   3.793   0.285  0.5994  0.1785  0.7486
   93SAPE    HX 9144   4.345   3.702   0.303  0.6165 -0.0770 -0.4327
   93SAPE    HY 9145   4.402   3.859   0.375  2.2325  0.3049  0.7660
   93SAPE   O31 9146   4.540   3.745   0.275 -0.1132  0.3242 -0.1661
   93SAPE   C31 9147   4.635   3.831   0.289  0.1668  0.3104  0.3610
   93SAPE   O32 9148   4.627   3.953   0.307 -0.1610 -0.2664  0.1194
   93SAPE   C32 9149   4.761   3.758   0.260  0.1580  0.2022  0.1778
   93SAPE   H2X 9150   4.751   3.662   0.315  0.6405 -0.6373 -1.1610
   93SAPE   H2Y 9151   4.849   3.813   0.300  0.0801  1.9262 -1.8551
   93SAPE   C23 9152   4.490   3.806  -0.297 -0.2272  0.3068 -0.0122
   93SAPE   H3R 9153   4.584   3.809  -0.237 -0.9479  2.2744  1.1208
   93SAPE   H3S 9154   4.462   3.907  -0.336  0.1160  0.3819 -0.0655
   93SAPE   C24 9155   4.516   3.714  -0.416 -0.8473 -0.2931 -0.2506
   93SAPE   H4R 9156   4.540   3.612  -0.380 -0.1002 -0.1125 -0.2413
   93SAPE   H4S 9157   4.606   3.762  -0.458 -2.1798  2.0442 -0.6352
   93SAPE   C25 9158   4.407   3.698  -0.520  0.1582  0.5910  0.4381
   93SAPE   H5R 9159   4.308   3.739  -0.495  0.5522  2.7016 -1.1653
   93SAPE   C26 9160   4.426   3.637  -0.640  0.4453 -0.5015  0.5157
   93SAPE   H6R 9161   4.340   3.627  -0.707  0.8361 -0.3303 -0.0116
   93SAPE   C27 9162   4.555   3.572  -0.688  0.3456  0.0356  0.0750
   93SAPE   H7R 9163   4.639   3.565  -0.615  0.5586  2.1390  0.1099
   93SAPE   H7S 9164   4.603   3.630  -0.770  1.1598  0.1653  0.6310
   93SAPE   C28 9165   4.526   3.433  -0.739 -0.2705  0.0448  1.0665
   93SAPE   H8R 9166   4.536   3.344  -0.675  0.0771 -1.7734 -1.3726
   93SAPE   C29 9167   4.469   3.406  -0.860  0.8167 -0.1762  0.6720
   93SAPE   H9R 9168   4.463   3.298  -0.882  0.3595  0.6569 -4.2727
   93SAPE  C210 9169   4.437   3.498  -0.969 -0.7397  0.2961  0.1841
   93SAPE  H10R 9170   4.394   3.587  -0.919 -1.0492  0.0805  0.3041
   93SAPE  H10S 9171   4.370   3.452  -1.045  0.5303 -0.6631 -0.4021
   93SAPE  C211 9172   4.561   3.539  -1.039 -0.0157 -0.4075  0.0217
   93SAPE  H11R 9173   4.630   3.575  -0.962 -0.3545 -1.1349  0.6770
   93SAPE  C212 9174   4.603   3.545  -1.165  0.0031 -0.5389 -0.3236
   93SAPE  H12R 9175   4.700   3.594  -1.180  0.3645 -0.8992  0.7595
   93SAPE  C213 9176   4.522   3.520  -1.287  0.4038  0.5171  0.5880
   93SAPE  H13R 9177   4.462   3.609  -1.317  0.4654  1.1902  2.3625
   93SAPE  H13S 9178   4.454   3.436  -1.264  1.5729 -0.0963  1.9521
   93SAPE  C214 9179   4.616   3.491  -1.408 -0.1965  0.7446 -0.0948
   93SAPE  H14R 9180   4.693   3.566  -1.434  0.6336 -0.3580 -0.8816
   93SAPE  C215 9181   4.602   3.391  -1.498 -0.4495  0.7490 -0.9614
   93SAPE  H15R 9182   4.670   3.379  -1.583  1.0442  0.4889  0.2158
   93SAPE  C216 9183   4.497   3.284  -1.475 -0.6806 -0.2827 -0.2461
   93SAPE  H16R 9184   4.396   3.330  -1.459  0.0943  1.0754  1.0460
   93SAPE  H16S 9185   4.520   3.227  -1.382  0.9872 -1.3343 -1.2681
   93SAPE  C217 9186   4.497   3.186  -1.588  0.7770  0.1702 -0.4789
   93SAPE  H17R 9187   4.598   3.146  -1.609  0.5463 -0.8694  0.3168
   93SAPE  H17S 9188   4.471   3.234  -1.684 -0.9909 -2.2420 -1.3166
   93SAPE  C218 9189   4.413   3.060  -1.548  0.0220 -0.0547  0.0438
   93SAPE  H18R 9190   4.305   3.085  -1.553 -0.3290 -1.2199  1.1118
   93SAPE  H18S 9191   4.440   3.016  -1.450  1.4985 -2.5221 -1.3605
   93SAPE  C219 9192   4.435   2.952  -1.655 -0.3360  0.0738 -0.7063
   93SAPE  H19R 9193   4.545   2.938  -1.651 -0.4688 -0.8113  0.0240
   93SAPE  H19S 9194   4.406   2.991  -1.755 -0.2895  1.2940 -0.2584
   93SAPE  C220 9195   4.357   2.823  -1.628 -0.0332  0.8800 -0.2153
   93SAPE  H20R 9196   4.250   2.821  -1.657 -0.6694  0.5326  1.9874
   93SAPE  H20S 9197   4.357   2.797  -1.520  1.1715  3.6006  0.5309
   93SAPE  H20T 9198   4.412   2.743  -1.683  3.0913  2.3924  0.4598
   93SAPE   C33 9199   4.780   3.724   0.114 -0.1586  0.0737  0.5404
   93SAPE   H3X 9200   4.685   3.682   0.075  0.6765 -0.2527 -1.2227
   93SAPE   H3Y 9201   4.844   3.636   0.098 -2.1950 -1.2393 -0.9189
   93SAPE   C34 9202   4.843   3.830   0.031  0.8712 -0.7475  0.4706
   93SAPE   H4X 9203   4.941   3.862   0.074  0.6251 -1.3457  1.5156
   93SAPE   H4Y 9204   4.768   3.912   0.027  1.8397  0.1346 -0.1398
   93SAPE   C35 9205   4.878   3.795  -0.114  0.0418  0.8205 -0.6602
   93SAPE   H5X 9206   4.794   3.739  -0.160  0.8710 -0.5704 -0.5134
   93SAPE   H5Y 9207   4.963   3.726  -0.101 -2.0444 -1.4108  3.1919
   93SAPE   C36 9208   4.918   3.913  -0.201  0.6226  0.1290 -0.0923
   93SAPE   H6X 9209   5.012   3.958  -0.163  1.7793 -0.9809 -1.5022
   93SAPE   H6Y 9210   4.835   3.987  -0.192 -0.9024 -1.5655  0.3989
   93SAPE   C37 9211   4.937   3.883  -0.352  0.2440  0.0388  0.2693
   93SAPE   H7X 9212   4.837   3.847  -0.384  1.0395  0.4345 -2.9939
   93SAPE   H7Y 9213   5.010   3.800  -0.362 -0.0679 -0.5226  2.2463
   93SAPE   C38 9214   4.975   4.008  -0.429 -0.3781 -0.3999 -0.0611
   93SAPE   H8X 9215   5.082   4.022  -0.402  0.4829 -2.2977 -2.0933
   93SAPE   H8Y 9216   4.916   4.097  -0.397  2.8928  2.5727 -1.5643
   93SAPE   C39 9217   4.983   3.990  -0.583  0.4212  0.6251  0.2417
   93SAPE   H9X 9218   4.883   3.961  -0.622 -0.2709  1.8913  0.9863
   93SAPE   H9Y 9219   5.061   3.914  -0.604  0.4561  0.3519  1.3342
   93SAPE  C310 9220   5.044   4.118  -0.645 -0.5518 -0.0375 -0.4975
   93SAPE  H10X 9221   5.151   4.126  -0.617 -0.1208  1.5808 -2.3862
   93SAPE  H10Y 9222   4.986   4.200  -0.598 -0.3087 -0.4810  0.6034
   93SAPE  C311 9223   5.029   4.114  -0.796  0.7355  0.4020 -0.1855
   93SAPE  H11X 9224   4.920   4.103  -0.818  0.5415  0.3389  0.7323
   93SAPE  H11Y 9225   5.072   4.021  -0.839  0.2774  0.7933 -1.5391
   93SAPE  C312 9226   5.079   4.240  -0.861  0.3972 -0.7004  0.7126
   93SAPE  H12X 9227   5.186   4.258  -0.838  0.8364  2.6617 -2.8958
   93SAPE  H12Y 9228   5.020   4.322  -0.815  0.7414  0.2953 -0.5822
   93SAPE  C313 9229   5.049   4.240  -1.006 -0.6159 -0.5914  0.8340
   93SAPE  H13X 9230   4.945   4.208  -1.025 -0.6644 -0.3243  0.6381
   93SAPE  H13Y 9231   5.120   4.173  -1.058 -2.0270 -0.9651 -0.6859
   93SAPE  C314 9232   5.059   4.380  -1.075  0.3565 -0.1461 -0.4567
   93SAPE  H14X 9233   5.164   4.413  -1.062  0.4742 -0.0633 -1.5279
   93SAPE  H14Y 9234   4.983   4.455  -1.042  0.6553  0.2491 -0.6490
   93SAPE  C315 9235   5.041   4.372  -1.225  0.4210  0.1866  0.0120
   93SAPE  H15X 9236   4.937   4.336  -1.235  0.8429 -0.4110 -3.9111
   93SAPE  H15Y 9237   5.109   4.298  -1.273  0.1219  0.8817 -1.5473
   93SAPE  C316 9238   5.063   4.502  -1.300  0.4735  0.3455 -0.0661
   93SAPE  H16X 9239   5.169   4.536  -1.306 -0.0827  2.8503  2.4529
   93SAPE  H16Y 9240   5.006   4.583  -1.250  0.5448 -0.5227  1.4952
   93SAPE  C317 9241   5.025   4.489  -1.445 -0.4108  0.0483 -0.1269
   93SAPE  H17X 9242   4.923   4.444  -1.447  0.0282 -0.9475 -1.6218
   93SAPE  H17Y 9243   5.100   4.424  -1.495 -1.5095 -1.2262 -0.1763
   93SAPE  C318 9244   5.014   4.625  -1.508  0.3034 -0.2184  0.2967
   93SAPE  H18X 9245   5.114   4.671  -1.498 -1.2911  3.2329  2.1586
   93SAPE  H18Y 9246   4.935   4.689  -1.462  1.0348  1.3924 -0.6312
   93SAPE  H18Z 9247   4.999   4.616  -1.618 -0.1847  0.0938  0.3325
   94SAPE     N 9248   0.784   6.338   0.570  0.2994 -0.4860 -0.0950
   94SAPE   HN1 9249   0.711   6.278   0.615  0.5066 -1.3575 -0.8741
   94SAPE   HN2 9250   0.842   6.379   0.645 -0.6694 -2.0161  1.5670
   94SAPE   HN3 9251   0.732   6.415   0.523  0.5838  0.8854  1.7568
   94SAPE   C12 9252   0.866   6.282   0.458  0.1355 -0.1929 -0.3372
   94SAPE  H12A 9253   0.938   6.222   0.518 -0.2839 -0.9340 -0.5633
   94SAPE  H12B 9254   0.930   6.361   0.412 -1.0942  0.7493 -0.4905
   94SAPE   C11 9255   0.773   6.229   0.353 -0.0089  0.3163  0.3939
   94SAPE  H11A 9256   0.824   6.250   0.257  0.0210  0.3554  0.4186
   94SAPE  H11B 9257   0.682   6.292   0.356 -1.0390 -1.0830 -0.3723
   94SAPE     P 9258   0.820   5.981   0.302  0.0298 -0.5624  0.0346
   94SAPE   O13 9259   0.963   6.009   0.327 -0.4817 -0.2580 -0.1840
   94SAPE   O14 9260   0.776   5.845   0.341  0.1214 -0.0796 -0.0597
   94SAPE   O12 9261   0.735   6.091   0.377 -0.1406  0.0972 -0.0527
   94SAPE   O11 9262   0.801   6.003   0.146 -0.0282  0.3789 -0.6866
   94SAPE    C1 9263   0.670   6.037   0.095 -0.6678  0.0386 -0.4073
   94SAPE    HA 9264   0.622   6.111   0.161  1.7017  0.4611  0.9534
   94SAPE    HB 9265   0.680   6.093  -0.001 -0.8328  2.4339  0.8939
   94SAPE    C2 9266   0.580   5.918   0.057 -0.0734 -0.1695 -0.4211
   94SAPE    HS 9267   0.581   5.838   0.134  0.4207 -0.5789 -0.8409
   94SAPE   O21 9268   0.638   5.858  -0.061 -0.0741  0.2915  0.0989
   94SAPE   C21 9269   0.674   5.733  -0.060 -0.1911  1.0407  0.1118
   94SAPE   O22 9270   0.663   5.655   0.034  0.4712 -0.2132  0.2150
   94SAPE   C22 9271   0.722   5.696  -0.204  0.3251  1.1119  0.2520
   94SAPE   H2R 9272   0.679   5.775  -0.271 -0.7701 -1.0027 -1.6805
   94SAPE   H2S 9273   0.832   5.705  -0.209  0.3393  0.7704 -0.0428
   94SAPE    C3 9274   0.431   5.957   0.033  0.0701  0.4667 -0.1838
   94SAPE    HX 9275   0.426   6.026  -0.054  0.3966  0.3680 -0.2833
   94SAPE    HY 9276   0.388   6.025   0.111 -1.9270  1.3331 -1.9394
   94SAPE   O31 9277   0.354   5.840   0.017 -0.2264 -0.0470 -0.4571
   94SAPE   C31 9278   0.306   5.798  -0.098  0.7669 -0.3201 -0.2287
   94SAPE   O32 9279   0.290   5.875  -0.195  0.0924 -0.3985 -0.1359
   94SAPE   C32 9280   0.285   5.644  -0.107  0.4729 -0.4756 -1.2183
   94SAPE   H2X 9281   0.238   5.621  -0.009  2.6346  0.0612 -0.0187
   94SAPE   H2Y 9282   0.379   5.586  -0.109 -0.1370 -1.6141  0.7238
   94SAPE   C23 9283   0.669   5.558  -0.256  0.3000  0.0365  0.4479
   94SAPE   H3R 9284   0.558   5.550  -0.245  0.1724 -0.6360 -0.9964
   94SAPE   H3S 9285   0.711   5.476  -0.195 -0.1579 -0.3217  0.2964
   94SAPE   C24 9286   0.711   5.528  -0.407 -0.9055  0.4291 -0.0303
   94SAPE   H4R 9287   0.818   5.499  -0.407 -0.5887  1.5706  0.3105
   94SAPE   H4S 9288   0.686   5.619  -0.465  1.9382  0.1615 -1.8686
   94SAPE   C25 9289   0.636   5.405  -0.455  0.5340  1.1869  0.5262
   94SAPE   H5R 9290   0.634   5.324  -0.381 -0.6987  1.5608  0.9303
   94SAPE   C26 9291   0.577   5.386  -0.580 -0.2148  0.0711 -0.4771
   94SAPE   H6R 9292   0.515   5.295  -0.586  2.2839 -1.9007  1.4537
   94SAPE   C27 9293   0.580   5.481  -0.698 -0.0916  0.4809 -0.3023
   94SAPE   H7R 9294   0.613   5.416  -0.782  1.3343 -0.9479  1.2900
   94SAPE   H7S 9295   0.657   5.558  -0.679 -1.2194  1.3095  1.1215
   94SAPE   C28 9296   0.448   5.553  -0.723 -0.9036  0.0794 -0.1336
   94SAPE   H8R 9297   0.368   5.485  -0.755 -3.5266  1.8402  2.1897
   94SAPE   C29 9298   0.418   5.684  -0.699  0.7036 -0.2565 -0.5725
   94SAPE   H9R 9299   0.315   5.719  -0.718  0.7078  0.4939  0.6731
   94SAPE  C210 9300   0.494   5.803  -0.648  0.2232 -0.9990 -0.5162
   94SAPE  H10R 9301   0.604   5.792  -0.642  0.6870  2.7901  1.3162
   94SAPE  H10S 9302   0.482   5.803  -0.538  2.3992 -0.8855 -0.2295
   94SAPE  C211 9303   0.461   5.935  -0.714  0.2992  0.1147 -0.2070
   94SAPE  H11R 9304   0.426   6.018  -0.650 -1.3049 -0.2353 -0.5893
   94SAPE  C212 9305   0.485   5.965  -0.845 -0.2899  0.6747 -0.1018
   94SAPE  H12R 9306   0.455   6.061  -0.889  0.1398  0.9838  0.2763
   94SAPE  C213 9307   0.554   5.863  -0.936  1.3052  1.1544  0.7787
   94SAPE  H13R 9308   0.471   5.822  -0.997  0.8040  2.5365  0.4930
   94SAPE  H13S 9309   0.595   5.776  -0.882 -0.3782 -0.9784 -1.1776
   94SAPE  C214 9310   0.658   5.924  -1.030  0.0222 -0.2085 -0.1664
   94SAPE  H14R 9311   0.721   5.996  -0.976 -0.3543  0.2299 -0.3066
   94SAPE  C215 9312   0.662   5.921  -1.170  0.6001  0.1610 -0.0851
   94SAPE  H15R 9313   0.730   5.995  -1.214 -0.6154  0.8915 -0.7872
   94SAPE  C216 9314   0.577   5.850  -1.274  0.2148  0.3864 -0.0066
   94SAPE  H16R 9315   0.518   5.770  -1.225  1.0410 -1.1198 -1.3624
   94SAPE  H16S 9316   0.636   5.810  -1.359 -0.4077 -0.7083  0.0615
   94SAPE  C217 9317   0.480   5.944  -1.347  0.2984 -1.2717  0.2607
   94SAPE  H17R 9318   0.418   5.878  -1.411 -2.6126  1.0413  0.4664
   94SAPE  H17S 9319   0.528   6.019  -1.413 -2.4900  1.1658  0.7888
   94SAPE  C218 9320   0.376   6.013  -1.260  0.8815 -0.2517 -0.0544
   94SAPE  H18R 9321   0.426   6.084  -1.191  1.9589 -1.0467  0.0161
   94SAPE  H18S 9322   0.316   5.943  -1.198  0.4663  1.4123  1.4999
   94SAPE  C219 9323   0.275   6.101  -1.340  0.0554  0.3822 -0.2768
   94SAPE  H19R 9324   0.192   6.142  -1.279 -0.9474 -0.1096 -1.2838
   94SAPE  H19S 9325   0.221   6.039  -1.415 -0.3697  0.2315  0.1519
   94SAPE  C220 9326   0.330   6.223  -1.408 -0.2249 -0.0463  0.4234
   94SAPE  H20R 9327   0.393   6.194  -1.495 -1.7260  0.1750 -0.7768
   94SAPE  H20S 9328   0.388   6.280  -1.332  1.1371 -1.2229  0.3182
   94SAPE  H20T 9329   0.252   6.289  -1.451 -0.7699 -3.6004 -4.9034
   94SAPE   C33 9330   0.178   5.588  -0.202  0.6497 -0.1888  0.1072
   94SAPE   H3X 9331   0.095   5.661  -0.204  2.3744  1.9118  1.2701
   94SAPE   H3Y 9332   0.149   5.490  -0.157  0.1583 -1.4197 -2.6832
   94SAPE   C34 9333   0.245   5.555  -0.338  0.1553 -0.0825  0.1590
   94SAPE   H4X 9334   0.333   5.492  -0.313 -0.2623 -0.6937  0.1316
   94SAPE   H4Y 9335   0.285   5.651  -0.376  0.5528 -0.0180  0.7336
   94SAPE   C35 9336   0.149   5.507  -0.447  0.2744 -0.7997 -0.3172
   94SAPE   H5X 9337   0.199   5.513  -0.546  0.0224  0.8386 -0.3773
   94SAPE   H5Y 9338   0.067   5.582  -0.457  0.0628 -1.1379 -1.2701
   94SAPE   C36 9339   0.103   5.364  -0.437 -0.0677  0.3608  0.3819
   94SAPE   H6X 9340   0.033   5.349  -0.351 -0.7308 -2.7718 -0.5970
   94SAPE   H6Y 9341   0.195   5.308  -0.412  0.1319  0.1220 -0.8462
   94SAPE   C37 9342   0.030   5.321  -0.562 -1.0934  0.7605  0.0950
   94SAPE   H7X 9343  -0.019   5.416  -0.594  0.2174  0.7935 -2.0452
   94SAPE   H7Y 9344  -0.047   5.250  -0.526 -1.8488  2.5349  2.1747
   94SAPE   C38 9345   0.114   5.260  -0.676 -0.8839  0.3820  0.2906
   94SAPE   H8X 9346   0.151   5.157  -0.656  0.7575  0.8346 -0.2361
   94SAPE   H8Y 9347   0.196   5.333  -0.694 -2.4858  2.5039  1.0220
   94SAPE   C39 9348   0.044   5.260  -0.811  1.1780  0.0171  0.2491
   94SAPE   H9X 9349  -0.008   5.355  -0.834  1.2600 -0.5007 -2.4428
   94SAPE   H9Y 9350  -0.035   5.183  -0.800 -1.6172  2.5975 -0.3231
   94SAPE  C310 9351   0.137   5.221  -0.926  0.2999 -0.3119 -0.1634
   94SAPE  H10X 9352   0.193   5.130  -0.894 -1.4984 -1.2755  0.3585
   94SAPE  H10Y 9353   0.211   5.303  -0.934 -0.8201  0.9679  1.6360
   94SAPE  C311 9354   0.068   5.189  -1.063  0.2358  0.0745  0.0256
   94SAPE  H11X 9355   0.006   5.277  -1.092 -0.2192  0.2799  1.5197
   94SAPE  H11Y 9356  -0.006   5.109  -1.045  1.1979 -0.5948  1.1410
   94SAPE  C312 9357   0.161   5.128  -1.161  0.5551  0.0698  0.7787
   94SAPE  H12X 9358   0.200   5.040  -1.107  0.2591  0.1205  1.0792
   94SAPE  H12Y 9359   0.246   5.199  -1.179 -0.8319  1.4816 -0.5282
   94SAPE  C313 9360   0.092   5.096  -1.299  0.4043  0.2052 -0.3366
   94SAPE  H13X 9361   0.063   5.187  -1.354 -2.2589 -0.3225  0.0694
   94SAPE  H13Y 9362  -0.003   5.040  -1.285  1.0300 -0.3599  2.1450
   94SAPE  C314 9363   0.193   5.009  -1.379 -0.1156  0.0802 -0.7957
   94SAPE  H14X 9364   0.230   4.929  -1.311  0.5549  1.9761  1.1723
   94SAPE  H14Y 9365   0.274   5.084  -1.391 -1.1176  2.0358  2.9718
   94SAPE  C315 9366   0.147   4.946  -1.509  0.4897  0.4555  0.5199
   94SAPE  H15X 9367   0.065   4.873  -1.492  1.0733 -0.3147  0.0551
   94SAPE  H15Y 9368   0.231   4.895  -1.560 -0.7953 -1.3938  0.1431
   94SAPE  C316 9369   0.088   5.040  -1.620 -0.1474 -0.5218  0.4875
   94SAPE  H16X 9370   0.151   5.131  -1.634 -2.8761  1.1615 -2.1297
   94SAPE  H16Y 9371  -0.015   5.069  -1.589 -0.6580 -2.1360  0.3935
   94SAPE  C317 9372   0.073   4.975  -1.760  0.4224 -0.0615  0.3209
   94SAPE  H17X 9373   0.161   4.912  -1.788  1.8714  0.1400  3.8492
   94SAPE  H17Y 9374   0.055   5.056  -1.834 -3.3223 -0.2805  0.8284
   94SAPE  C318 9375  -0.052   4.890  -1.764  0.8412 -0.3163  0.3074
   94SAPE  H18X 9376  -0.117   4.916  -1.678  1.6908  3.7433 -0.0658
   94SAPE  H18Y 9377  -0.015   4.787  -1.781  0.3026  0.0078 -3.6027
   94SAPE  H18Z 9378  -0.107   4.930  -1.852  1.3237 -1.8972 -0.7451
   95SAPE     N 9379   2.395   4.655   0.533 -0.0431 -0.6125 -0.0641
   95SAPE   HN1 9380   2.295   4.650   0.502 -0.2410  0.3114  0.3635
   95SAPE   HN2 9381   2.414   4.569   0.588 -2.5347 -1.7896 -0.8961
   95SAPE   HN3 9382   2.395   4.735   0.600  0.9062  0.0382 -0.8233
   95SAPE   C12 9383   2.484   4.689   0.419 -0.5652  0.5070 -0.8136
   95SAPE  H12A 9384   2.470   4.798   0.407 -0.9244  0.6718  0.9662
   95SAPE  H12B 9385   2.447   4.624   0.337  1.4011 -3.1571  0.9635
   95SAPE   C11 9386   2.633   4.658   0.439  1.1151 -0.2495 -0.0541
   95SAPE  H11A 9387   2.682   4.668   0.340  1.7056  0.0456  0.2639
   95SAPE  H11B 9388   2.635   4.549   0.462  1.2200 -0.1354  0.4749
   95SAPE     P 9389   2.854   4.744   0.550  0.6758 -0.6775  0.0650
   95SAPE   O13 9390   2.889   4.837   0.657 -0.0415 -0.3258  0.4205
   95SAPE   O14 9391   2.903   4.608   0.554 -0.2892  0.3819  0.2590
   95SAPE   O12 9392   2.694   4.739   0.537 -0.5262  0.3136 -0.2832
   95SAPE   O11 9393   2.890   4.804   0.417 -0.4985 -0.4084 -1.0484
   95SAPE    C1 9394   2.854   4.929   0.369 -0.2492  0.1104 -0.4235
   95SAPE    HA 9395   2.796   4.987   0.443 -1.1909  0.3034 -1.3050
   95SAPE    HB 9396   2.949   4.984   0.350  1.8008 -2.8531  0.3342
   95SAPE    C2 9397   2.776   4.919   0.233 -0.1834  0.4443 -0.2895
   95SAPE    HS 9398   2.679   4.880   0.271  0.7311  0.4243  2.1851
   95SAPE   O21 9399   2.840   4.826   0.146 -0.4044 -0.1013 -0.2581
   95SAPE   C21 9400   2.762   4.736   0.083 -0.6040 -0.3608 -0.2207
   95SAPE   O22 9401   2.642   4.725   0.099 -0.6819  0.1978 -0.0762
   95SAPE   C22 9402   2.839   4.654  -0.024 -0.1010 -0.5389 -0.1843
   95SAPE   H2R 9403   2.919   4.719  -0.064  0.8771 -1.5538  0.0820
   95SAPE   H2S 9404   2.909   4.591   0.035  1.5258  0.3323 -1.1166
   95SAPE    C3 9405   2.754   5.058   0.165 -1.0336 -0.1032  0.4366
   95SAPE    HX 9406   2.849   5.114   0.175  0.4005 -1.7663 -2.4448
   95SAPE    HY 9407   2.667   5.099   0.220 -0.9332  1.5086 -0.5542
   95SAPE   O31 9408   2.734   5.047   0.021 -0.1946  0.5297 -0.0144
   95SAPE   C31 9409   2.631   5.124  -0.033 -0.9347 -0.1747 -0.5521
   95SAPE   O32 9410   2.603   5.235   0.010 -0.2607  0.0569 -0.0800
   95SAPE   C32 9411   2.566   5.057  -0.151 -0.5597  0.0083 -0.4316
   95SAPE   H2X 9412   2.476   5.007  -0.109 -2.0126  3.3044  0.7460
   95SAPE   H2Y 9413   2.629   4.984  -0.205  0.1414  1.4667 -1.6684
   95SAPE   C23 9414   2.754   4.581  -0.124 -0.8210 -0.1158  0.3658
   95SAPE   H3R 9415   2.705   4.653  -0.192 -0.0365 -0.2892 -0.4060
   95SAPE   H3S 9416   2.685   4.520  -0.061 -1.0815 -1.1431 -0.8802
   95SAPE   C24 9417   2.842   4.490  -0.221 -0.3028 -0.8289 -0.2925
   95SAPE   H4R 9418   2.922   4.439  -0.162  0.0964 -1.9335 -1.7479
   95SAPE   H4S 9419   2.890   4.546  -0.304 -0.3475 -3.0734 -1.9185
   95SAPE   C25 9420   2.778   4.374  -0.289  0.4523  0.0100 -0.4805
   95SAPE   H5R 9421   2.808   4.275  -0.251 -0.5747  0.5172  1.8731
   95SAPE   C26 9422   2.679   4.374  -0.384  0.3864 -0.3031 -0.2270
   95SAPE   H6R 9423   2.636   4.275  -0.405 -0.2678 -0.2594  0.8128
   95SAPE   C27 9424   2.631   4.503  -0.448  0.5313  0.2521  0.1655
   95SAPE   H7R 9425   2.694   4.533  -0.534 -1.0691  2.6322 -0.2696
   95SAPE   H7S 9426   2.650   4.596  -0.389  2.5122  0.2651 -0.4282
   95SAPE   C28 9427   2.490   4.502  -0.501  0.2042  0.6243  0.6470
   95SAPE   H8R 9428   2.414   4.470  -0.427  0.8587  2.3647  2.1588
   95SAPE   C29 9429   2.448   4.519  -0.631 -0.1534  0.2224  0.2382
   95SAPE   H9R 9430   2.341   4.519  -0.655 -0.1264  1.0643  0.0835
   95SAPE  C210 9431   2.515   4.535  -0.761  0.2011 -0.1715 -0.2856
   95SAPE  H10R 9432   2.561   4.636  -0.762 -0.3918  0.1099  0.1559
   95SAPE  H10S 9433   2.435   4.533  -0.838  1.6262  0.4941 -1.8515
   95SAPE  C211 9434   2.606   4.414  -0.789  0.5732 -0.5147 -0.0238
   95SAPE  H11R 9435   2.693   4.407  -0.722 -0.0234  2.1040  1.1298
   95SAPE  C212 9436   2.606   4.324  -0.893 -0.1621 -0.0575 -0.4744
   95SAPE  H12R 9437   2.684   4.248  -0.906  0.5535  0.7651 -1.0607
   95SAPE  C213 9438   2.503   4.326  -1.002  0.5978  0.4401 -0.1940
   95SAPE  H13R 9439   2.409   4.371  -0.962  0.2348  1.4326 -2.0505
   95SAPE  H13S 9440   2.471   4.220  -1.012 -0.8358  0.8762 -0.4669
   95SAPE  C214 9441   2.538   4.404  -1.128 -0.7522 -0.3618 -0.4412
   95SAPE  H14R 9442   2.561   4.509  -1.107  3.3695 -0.7661 -2.0970
   95SAPE  C215 9443   2.553   4.351  -1.255 -1.3878 -0.7312 -0.9847
   95SAPE  H15R 9444   2.579   4.425  -1.332  1.1977 -0.5686 -0.0617
   95SAPE  C216 9445   2.514   4.212  -1.305 -0.1339 -0.3801 -0.0004
   95SAPE  H16R 9446   2.479   4.139  -1.228  1.6237 -1.9085 -0.5786
   95SAPE  H16S 9447   2.606   4.174  -1.353  0.7343 -0.0420  1.3268
   95SAPE  C217 9448   2.404   4.212  -1.416  0.0047  0.6218  0.5318
   95SAPE  H17R 9449   2.328   4.278  -1.369 -2.2864 -1.0297 -0.6568
   95SAPE  H17S 9450   2.363   4.113  -1.444 -0.8756  0.5217  2.0649
   95SAPE  C218 9451   2.446   4.286  -1.549 -0.6696  1.0349  0.5162
   95SAPE  H18R 9452   2.545   4.248  -1.585 -1.4532  1.9251 -2.9068
   95SAPE  H18S 9453   2.462   4.394  -1.530  1.2161  1.2994 -2.0003
   95SAPE  C219 9454   2.340   4.268  -1.663 -0.8201 -0.6195 -0.6350
   95SAPE  H19R 9455   2.250   4.317  -1.620 -1.2610 -2.4698  0.6589
   95SAPE  H19S 9456   2.311   4.163  -1.684 -0.8812 -0.7887  0.2622
   95SAPE  C220 9457   2.369   4.316  -1.804 -0.2998  0.1133  0.0164
   95SAPE  H20R 9458   2.284   4.310  -1.875  0.3609  0.3869 -0.8168
   95SAPE  H20S 9459   2.450   4.257  -1.852  1.3015 -0.8991  3.6649
   95SAPE  H20T 9460   2.402   4.422  -1.814  0.0633 -0.1721 -2.4258
   95SAPE   C33 9461   2.526   5.159  -0.265 -0.0151 -0.5143 -0.6571
   95SAPE   H3X 9462   2.616   5.185  -0.326 -1.0051  1.2415 -1.4172
   95SAPE   H3Y 9463   2.506   5.251  -0.206  0.9733 -1.8628  1.9652
   95SAPE   C34 9464   2.416   5.092  -0.346 -0.1035  0.3902  0.2267
   95SAPE   H4X 9465   2.331   5.164  -0.350 -0.1279  0.5621  2.3682
   95SAPE   H4Y 9466   2.372   5.001  -0.301  0.5972  0.7559  1.7300
   95SAPE   C35 9467   2.461   5.060  -0.488 -0.4599  0.3860  0.9657
   95SAPE   H5X 9468   2.544   4.985  -0.488 -2.1432 -1.5731  0.6209
   95SAPE   H5Y 9469   2.485   5.159  -0.532 -2.4104  0.7165  0.5502
   95SAPE   C36 9470   2.344   4.982  -0.565 -0.4856 -0.3675 -0.3763
   95SAPE   H6X 9471   2.255   5.045  -0.543 -0.8333 -1.5359  1.7702
   95SAPE   H6Y 9472   2.333   4.892  -0.502 -3.8516  0.7714  0.8683
   95SAPE   C37 9473   2.367   4.939  -0.708  0.0477  0.2318  0.5062
   95SAPE   H7X 9474   2.270   4.903  -0.750  0.0242 -0.7022  1.3258
   95SAPE   H7Y 9475   2.438   4.855  -0.695  1.8829  1.8579  1.7175
   95SAPE   C38 9476   2.430   5.042  -0.806 -0.7804  0.5389 -0.1310
   95SAPE   H8X 9477   2.535   5.050  -0.769 -0.1128  0.8389 -1.9920
   95SAPE   H8Y 9478   2.392   5.145  -0.820 -0.4827  0.8137  0.9422
   95SAPE   C39 9479   2.432   4.980  -0.944  0.2699 -0.6249 -0.5083
   95SAPE   H9X 9480   2.324   4.972  -0.969  0.4791 -0.5121 -1.4947
   95SAPE   H9Y 9481   2.474   4.877  -0.936  0.3057 -0.5713  0.0620
   95SAPE  C310 9482   2.509   5.062  -1.056  0.3273  0.0993 -0.7989
   95SAPE  H10X 9483   2.599   5.107  -1.009  0.8455  1.1507 -2.7195
   95SAPE  H10Y 9484   2.441   5.144  -1.086  0.4439 -0.0816 -1.5840
   95SAPE  C311 9485   2.528   4.980  -1.181  0.4427  0.0963  0.0382
   95SAPE  H11X 9486   2.435   4.937  -1.224  0.0790  0.1552  0.7584
   95SAPE  H11Y 9487   2.590   4.895  -1.145 -0.2926 -0.8238 -0.7974
   95SAPE  C312 9488   2.605   5.048  -1.286 -0.2328  0.7256  0.3622
   95SAPE  H12X 9489   2.700   5.094  -1.250  1.0327 -0.5975 -1.1175
   95SAPE  H12Y 9490   2.533   5.119  -1.332 -2.9679 -2.9633 -1.5881
   95SAPE  C313 9491   2.647   4.938  -1.379  0.6153  0.3604 -0.1057
   95SAPE  H13X 9492   2.567   4.861  -1.387  0.3292  0.3511  2.1254
   95SAPE  H13Y 9493   2.729   4.889  -1.322  0.3196  0.9595  0.8720
   95SAPE  C314 9494   2.678   4.989  -1.517  0.4571 -0.2892 -0.1567
   95SAPE  H14X 9495   2.746   5.077  -1.522  0.7707 -0.3480  2.2711
   95SAPE  H14Y 9496   2.588   5.038  -1.560  1.1090  0.3887 -0.7745
   95SAPE  C315 9497   2.715   4.872  -1.605 -0.2306  0.5018  0.5792
   95SAPE  H15X 9498   2.645   4.787  -1.590 -0.1724  0.5300  1.0180
   95SAPE  H15Y 9499   2.819   4.840  -1.582 -1.4592 -2.6506  2.4218
   95SAPE  C316 9500   2.685   4.895  -1.751  0.2008 -0.0151 -0.3279
   95SAPE  H16X 9501   2.740   4.982  -1.793 -0.6506  1.0126  0.6259
   95SAPE  H16Y 9502   2.577   4.921  -1.756  0.1146 -0.0697  0.9885
   95SAPE  C317 9503   2.701   4.770  -1.847 -0.7094  0.3442  0.3506
   95SAPE  H17X 9504   2.668   4.684  -1.785  1.8199 -0.6730  0.3991
   95SAPE  H17Y 9505   2.809   4.750  -1.868 -0.4847 -0.7005  2.3048
   95SAPE  C318 9506   2.616   4.776  -1.973  0.1685  0.5759 -0.5272
   95SAPE  H18X 9507   2.646   4.691  -2.039 -0.4226  0.0167 -0.0858
   95SAPE  H18Y 9508   2.629   4.872  -2.029 -1.0896  1.0192 -0.1077
   95SAPE  H18Z 9509   2.509   4.768  -1.942  0.6835 -3.4265  0.8160
   96SAPE     N 9510   5.146   5.776   0.924 -0.5411  0.4284 -0.6391
   96SAPE   HN1 9511   5.156   5.776   1.028  0.5002  1.5344 -0.7241
   96SAPE   HN2 9512   5.242   5.757   0.889 -0.9688 -0.3012 -1.4694
   96SAPE   HN3 9513   5.120   5.867   0.882 -1.1113  0.7575  0.3899
   96SAPE   C12 9514   5.061   5.670   0.871  0.2973  0.1454  0.5428
   96SAPE  H12A 9515   4.971   5.657   0.934  0.6351  0.1466  1.0325
   96SAPE  H12B 9516   5.129   5.582   0.880  2.5649  1.8349  0.9380
   96SAPE   C11 9517   5.011   5.706   0.733  0.4289 -0.4496  0.3657
   96SAPE  H11A 9518   4.933   5.785   0.732  0.5274 -0.3471 -1.0558
   96SAPE  H11B 9519   4.962   5.621   0.683  1.1861  0.4748 -2.0773
   96SAPE     P 9520   5.172   5.694   0.521  0.2415 -0.1082 -0.1964
   96SAPE   O13 9521   5.317   5.719   0.520 -1.4949  0.7186 -0.9245
   96SAPE   O14 9522   5.131   5.548   0.516 -0.2956 -0.2779 -0.2175
   96SAPE   O12 9523   5.109   5.763   0.648  0.3674  0.0740 -0.3061
   96SAPE   O11 9524   5.112   5.768   0.395  0.3856  0.1725 -0.7078
   96SAPE    C1 9525   4.972   5.801   0.371  0.0576 -0.1882 -0.1000
   96SAPE    HA 9526   4.902   5.715   0.378 -0.4797  0.3625  1.9295
   96SAPE    HB 9527   4.941   5.865   0.457 -0.6266 -2.0523  1.0842
   96SAPE    C2 9528   4.941   5.853   0.231  1.1389 -0.9138 -0.0180
   96SAPE    HS 9529   4.832   5.844   0.213  0.7748 -0.4789  1.7329
   96SAPE   O21 9530   5.010   5.773   0.142 -0.7134  0.5168  0.3331
   96SAPE   C21 9531   4.960   5.645   0.116 -0.3291  0.2502 -0.2596
   96SAPE   O22 9532   4.850   5.603   0.139 -0.2716 -0.3351 -0.0967
   96SAPE   C22 9533   5.070   5.571   0.037 -0.7006 -0.1107  0.5933
   96SAPE   H2R 9534   5.166   5.627   0.044 -1.1423  0.7118  0.2999
   96SAPE   H2S 9535   5.093   5.488   0.107  0.9952  0.5339  0.8422
   96SAPE    C3 9536   4.985   5.998   0.201 -0.2413  0.0644  0.2641
   96SAPE    HX 9537   5.079   6.005   0.260 -0.6934 -0.1175  1.0296
   96SAPE    HY 9538   4.907   6.065   0.245  0.9988  1.0710  1.0319
   96SAPE   O31 9539   5.004   6.026   0.056  0.2490  0.2317 -0.3738
   96SAPE   C31 9540   5.025   6.153   0.021  0.4581 -0.7402 -0.0624
   96SAPE   O32 9541   5.038   6.240   0.102 -0.5377 -0.5003  0.3528
   96SAPE   C32 9542   5.033   6.167  -0.128  0.0762 -1.1636  0.2859
   96SAPE   H2X 9543   4.991   6.083  -0.187  2.4091 -1.0904 -1.6519
   96SAPE   H2Y 9544   5.138   6.148  -0.159  0.2513  0.1260  0.0178
   96SAPE   C23 9545   5.043   5.533  -0.113  0.3626  0.0444 -0.6095
   96SAPE   H3R 9546   4.950   5.472  -0.114  1.0385 -1.0221 -0.5406
   96SAPE   H3S 9547   5.125   5.473  -0.158  0.3545 -0.7081  0.3303
   96SAPE   C24 9548   5.027   5.659  -0.199  0.8433  0.1985  0.3082
   96SAPE   H4R 9549   4.933   5.708  -0.168 -0.0914 -0.9616 -0.6182
   96SAPE   H4S 9550   5.011   5.630  -0.304 -0.4150 -0.7455  0.7458
   96SAPE   C25 9551   5.146   5.759  -0.187 -0.6081  1.0547  0.4355
   96SAPE   H5R 9552   5.170   5.787  -0.084 -2.1520  2.2105  0.5125
   96SAPE   C26 9553   5.221   5.803  -0.287  0.4790 -0.0956 -0.0030
   96SAPE   H6R 9554   5.306   5.867  -0.260  0.0821 -0.3341  2.0250
   96SAPE   C27 9555   5.206   5.776  -0.439  0.3860  0.3784 -0.3400
   96SAPE   H7R 9556   5.244   5.866  -0.492 -1.2198  1.4779  0.2848
   96SAPE   H7S 9557   5.099   5.778  -0.469  0.4161 -1.4333 -0.6644
   96SAPE   C28 9558   5.275   5.642  -0.472 -0.2607 -0.1710  0.5135
   96SAPE   H8R 9559   5.262   5.557  -0.404 -0.9919 -0.8411 -0.4548
   96SAPE   C29 9560   5.373   5.619  -0.560 -0.6795  0.4448  0.2939
   96SAPE   H9R 9561   5.419   5.518  -0.558 -0.4658  0.5466  1.6967
   96SAPE  C210 9562   5.432   5.708  -0.672  0.3679 -0.4340 -0.0461
   96SAPE  H10R 9563   5.504   5.654  -0.736  0.7334  1.3728 -1.2441
   96SAPE  H10S 9564   5.496   5.790  -0.633  0.2892 -1.1335  1.6435
   96SAPE  C211 9565   5.327   5.769  -0.762  0.2373 -0.2750  0.1338
   96SAPE  H11R 9566   5.239   5.806  -0.708 -0.9263 -0.4543 -1.5726
   96SAPE  C212 9567   5.336   5.761  -0.892 -0.5323 -0.4530  0.4134
   96SAPE  H12R 9568   5.265   5.814  -0.958 -0.3112 -0.2238  0.3617
   96SAPE  C213 9569   5.448   5.703  -0.978  0.4871  0.4461  0.5562
   96SAPE  H13R 9570   5.478   5.605  -0.935  0.1001 -0.2306 -0.6574
   96SAPE  H13S 9571   5.541   5.763  -0.976  0.5433  0.3802  0.0407
   96SAPE  C214 9572   5.403   5.683  -1.124  0.4260 -0.2675  0.2630
   96SAPE  H14R 9573   5.364   5.768  -1.181 -1.9134 -2.3987 -1.5416
   96SAPE  C215 9574   5.389   5.565  -1.189  0.2208  0.2442  0.0693
   96SAPE  H15R 9575   5.349   5.566  -1.292 -0.3673 -1.5473  0.2588
   96SAPE  C216 9576   5.410   5.426  -1.128  0.8032  0.5163 -0.4584
   96SAPE  H16R 9577   5.492   5.431  -1.054  0.4068  0.3789 -0.0112
   96SAPE  H16S 9578   5.448   5.367  -1.214  1.0533  1.8646 -1.3109
   96SAPE  C217 9579   5.295   5.332  -1.070 -0.3215  0.0243  0.1236
   96SAPE  H17R 9580   5.325   5.228  -1.047 -0.9325  0.2620  2.2080
   96SAPE  H17S 9581   5.213   5.334  -1.145  1.1582 -1.2513 -1.6423
   96SAPE  C218 9582   5.263   5.391  -0.926  0.7892  0.0311  0.2429
   96SAPE  H18R 9583   5.249   5.500  -0.942  2.3226 -0.1171 -2.7180
   96SAPE  H18S 9584   5.353   5.380  -0.862  0.5923  2.9054  1.1345
   96SAPE  C219 9585   5.140   5.333  -0.862  1.0136  0.3071  0.1971
   96SAPE  H19R 9586   5.062   5.333  -0.941  0.6613  1.0896  0.5435
   96SAPE  H19S 9587   5.108   5.388  -0.771 -0.7394 -1.0971  0.4805
   96SAPE  C220 9588   5.169   5.192  -0.820  0.9891 -0.4536  0.7913
   96SAPE  H20R 9589   5.092   5.161  -0.746  0.3642  2.4080  1.4692
   96SAPE  H20S 9590   5.264   5.204  -0.764  0.5006  1.7355  1.2310
   96SAPE  H20T 9591   5.172   5.123  -0.907  0.6963 -0.8959  1.1265
   96SAPE   C33 9592   4.966   6.299  -0.173 -0.0887  0.1322 -0.0361
   96SAPE   H3X 9593   5.021   6.374  -0.111 -1.9295  0.4316  1.3451
   96SAPE   H3Y 9594   4.860   6.326  -0.151 -0.4651 -0.5863 -0.8910
   96SAPE   C34 9595   4.992   6.333  -0.326  0.0001  0.0143 -0.0721
   96SAPE   H4X 9596   4.978   6.443  -0.335  1.3447  0.2075  0.0266
   96SAPE   H4Y 9597   4.921   6.281  -0.394  2.2976 -1.6099 -1.3752
   96SAPE   C35 9598   5.135   6.308  -0.371 -0.2965 -0.2092 -0.0446
   96SAPE   H5X 9599   5.164   6.201  -0.360  3.5156  0.6688  0.0562
   96SAPE   H5Y 9600   5.199   6.356  -0.294  0.0359 -0.1489 -0.3513
   96SAPE   C36 9601   5.174   6.367  -0.514 -0.4132  0.0490 -1.2697
   96SAPE   H6X 9602   5.283   6.361  -0.533 -0.2401 -0.7056 -0.1509
   96SAPE   H6Y 9603   5.137   6.472  -0.520  0.9432  0.5405 -1.4236
   96SAPE   C37 9604   5.108   6.298  -0.627  0.3540 -0.3667  0.4964
   96SAPE   H7X 9605   5.130   6.358  -0.718 -1.6464 -0.1107  0.1299
   96SAPE   H7Y 9606   5.001   6.323  -0.611 -0.0835 -0.2836 -2.1063
   96SAPE   C38 9607   5.130   6.149  -0.640 -0.2186 -0.1437  0.4504
   96SAPE   H8X 9608   5.100   6.099  -0.545  0.0283  0.0353  0.6217
   96SAPE   H8Y 9609   5.240   6.138  -0.649 -0.2669 -2.7413  2.0275
   96SAPE   C39 9610   5.064   6.082  -0.758  0.1817  0.0603  0.3204
   96SAPE   H9X 9611   4.957   6.056  -0.744 -0.1370  1.4228  0.5424
   96SAPE   H9Y 9612   5.126   5.991  -0.767 -0.3112 -0.1355 -1.3585
   96SAPE  C310 9613   5.069   6.155  -0.888  0.0902 -1.0432 -0.4032
   96SAPE  H10X 9614   5.171   6.198  -0.903 -0.8995  1.8473  0.4949
   96SAPE  H10Y 9615   5.008   6.248  -0.878 -1.3714 -1.8979 -1.0247
   96SAPE  C311 9616   5.040   6.076  -1.012 -0.0624 -0.0548 -0.4184
   96SAPE  H11X 9617   4.937   6.035  -1.006 -0.7132  1.1820 -2.3108
   96SAPE  H11Y 9618   5.113   5.993  -1.018 -0.8766 -0.6632 -2.8117
   96SAPE  C312 9619   5.022   6.160  -1.141  0.5338  0.2447  0.2264
   96SAPE  H12X 9620   5.107   6.232  -1.132  0.8881 -0.2463  0.9434
   96SAPE  H12Y 9621   4.922   6.209  -1.143 -0.6769 -2.0760  0.8672
   96SAPE  C313 9622   5.048   6.081  -1.265  0.9667  0.8291  0.4378
   96SAPE  H13X 9623   4.966   6.006  -1.273  3.7646 -2.4524  0.6147
   96SAPE  H13Y 9624   5.135   6.012  -1.267  1.8930  1.9599  0.4192
   96SAPE  C314 9625   5.053   6.169  -1.389 -0.2121  0.5857  0.2618
   96SAPE  H14X 9626   5.122   6.252  -1.364  1.0638  0.9605 -3.8230
   96SAPE  H14Y 9627   4.951   6.211  -1.399  0.2680  1.5715 -0.5663
   96SAPE  C315 9628   5.100   6.095  -1.520 -0.3703 -0.8564 -0.0422
   96SAPE  H15X 9629   5.181   6.023  -1.492  0.9908  0.7401  0.2381
   96SAPE  H15Y 9630   5.161   6.159  -1.587  1.3002 -0.4361  1.7668
   96SAPE  C316 9631   4.988   6.020  -1.591 -0.2033 -0.3397 -0.0737
   96SAPE  H16X 9632   4.903   6.079  -1.634 -1.5108 -1.6582  0.6088
   96SAPE  H16Y 9633   4.931   5.972  -1.509  0.4562  0.3659  0.8207
   96SAPE  C317 9634   5.034   5.914  -1.680  0.5417  0.0564 -0.1435
   96SAPE  H17X 9635   5.117   5.854  -1.637  1.6949  1.6042 -0.1334
   96SAPE  H17Y 9636   5.078   5.976  -1.761 -0.6935 -0.0550 -0.9302
   96SAPE  C318 9637   4.923   5.828  -1.740 -0.1917 -0.1006 -0.1508
   96SAPE  H18X 9638   4.832   5.893  -1.740  0.3964  0.7570  0.5686
   96SAPE  H18Y 9639   4.907   5.739  -1.677  4.3586  0.0861  1.6711
   96SAPE  H18Z 9640   4.940   5.801  -1.847  0.3895  0.4083 -0.1938
   97SAPE     N 9641   3.265   1.974   8.475 -0.1251  0.6984 -0.6416
   97SAPE   HN1 9642   3.253   2.063   8.528  2.1021  0.8681 -0.2913
   97SAPE   HN2 9643   3.306   1.902   8.538 -0.4948 -0.5094 -1.7443
   97SAPE   HN3 9644   3.330   1.993   8.395  0.9923 -1.0682 -0.2016
   97SAPE   C12 9645   3.129   1.928   8.427 -0.5051 -0.5025  0.0454
   97SAPE  H12A 9646   3.130   1.962   8.321  1.7393 -0.3773  0.0578
   97SAPE  H12B 9647   3.050   1.972   8.492  0.1441  0.3572  0.2810
   97SAPE   C11 9648   3.125   1.778   8.419 -1.0178 -0.0491 -1.0507
   97SAPE  H11A 9649   3.207   1.730   8.362 -0.0525  0.4036 -0.0720
   97SAPE  H11B 9650   3.042   1.760   8.347  0.3527 -0.8589 -2.4832
   97SAPE     P 9651   3.220   1.655   8.624  0.1733  0.0937  0.5988
   97SAPE   O13 9652   3.316   1.763   8.646 -0.3042  0.6123 -0.3954
   97SAPE   O14 9653   3.165   1.594   8.747  0.5131 -0.2185  0.5756
   97SAPE   O12 9654   3.101   1.717   8.544 -0.4083  0.4466  0.8219
   97SAPE   O11 9655   3.275   1.545   8.519  0.2984  0.4835 -0.5877
   97SAPE    C1 9656   3.399   1.476   8.530 -0.4103  0.0215 -0.2102
   97SAPE    HA 9657   3.447   1.493   8.628 -1.5072 -1.1376  0.5609
   97SAPE    HB 9658   3.372   1.368   8.522 -0.8287 -0.0060  1.3074
   97SAPE    C2 9659   3.494   1.509   8.417 -0.0561  0.4669 -0.4708
   97SAPE    HS 9660   3.509   1.619   8.412  0.5083  0.4070 -0.2255
   97SAPE   O21 9661   3.424   1.462   8.297  0.6423 -0.6963  0.0111
   97SAPE   C21 9662   3.433   1.541   8.194 -0.1658 -0.2255 -0.2757
   97SAPE   O22 9663   3.488   1.649   8.183 -0.3667  0.0431  0.1807
   97SAPE   C22 9664   3.375   1.463   8.082 -0.1530  0.0249 -0.0697
   97SAPE   H2R 9665   3.404   1.356   8.082 -1.8836 -0.5301 -2.3427
   97SAPE   H2S 9666   3.265   1.458   8.099  0.0801 -0.2131  1.5566
   97SAPE    C3 9667   3.627   1.435   8.434  0.5528  0.3153  0.4691
   97SAPE    HX 9668   3.597   1.330   8.451  0.6054  0.4634  1.5546
   97SAPE    HY 9669   3.679   1.482   8.520  1.4373 -0.2435  0.2520
   97SAPE   O31 9670   3.715   1.430   8.320 -0.1319 -0.7381  0.6753
   97SAPE   C31 9671   3.788   1.537   8.297 -0.3087 -0.0205  1.2572
   97SAPE   O32 9672   3.822   1.624   8.372 -0.3728  0.1262 -0.4268
   97SAPE   C32 9673   3.849   1.524   8.155  0.5865  0.1034 -0.4421
   97SAPE   H2X 9674   3.827   1.428   8.104 -0.4532  0.7056 -1.1651
   97SAPE   H2Y 9675   3.958   1.538   8.166  0.8749 -1.5177 -0.9487
   97SAPE   C23 9676   3.416   1.513   7.942 -0.0011  0.1152 -0.4345
   97SAPE   H3R 9677   3.526   1.518   7.937  0.3443 -1.1119  3.0526
   97SAPE   H3S 9678   3.393   1.618   7.914  1.1783  0.6784  0.6642
   97SAPE   C24 9679   3.365   1.434   7.822  0.2690 -0.4804 -0.0347
   97SAPE   H4R 9680   3.415   1.336   7.811  1.6897  0.1256  0.6703
   97SAPE   H4S 9681   3.392   1.495   7.732 -1.7609  2.1843  1.0396
   97SAPE   C25 9682   3.217   1.412   7.827 -0.0761  0.6865  0.6542
   97SAPE   H5R 9683   3.183   1.336   7.899  1.6827  1.0670  1.9560
   97SAPE   C26 9684   3.130   1.487   7.762 -0.0681  0.5047 -0.7321
   97SAPE   H6R 9685   3.022   1.470   7.764 -0.1328  0.7114 -1.8631
   97SAPE   C27 9686   3.156   1.603   7.676 -0.1171  0.6722  0.0906
   97SAPE   H7R 9687   3.216   1.678   7.733  1.1340  0.4918 -0.9333
   97SAPE   H7S 9688   3.065   1.664   7.662 -0.3193 -0.1124 -2.3663
   97SAPE   C28 9689   3.216   1.575   7.538 -0.3712  0.6066 -0.9500
   97SAPE   H8R 9690   3.307   1.634   7.518 -0.2779  0.2017 -1.7562
   97SAPE   C29 9691   3.162   1.492   7.447  0.5009 -0.1804  0.8973
   97SAPE   H9R 9692   3.211   1.485   7.349  0.4336 -3.3368  0.9795
   97SAPE  C210 9693   3.028   1.422   7.443  0.2856 -0.6049 -0.2354
   97SAPE  H10R 9694   2.961   1.483   7.379 -0.0186 -0.4070  0.2659
   97SAPE  H10S 9695   2.980   1.424   7.543  0.9066 -1.1106  0.0842
   97SAPE  C211 9696   3.036   1.280   7.397 -0.0230  0.1513  0.2854
   97SAPE  H11R 9697   3.069   1.202   7.467 -1.1309 -2.0779 -1.5155
   97SAPE  C212 9698   3.011   1.242   7.274  0.4258 -0.1258  0.0787
   97SAPE  H12R 9699   3.014   1.136   7.246 -0.4788  0.2634 -1.6146
   97SAPE  C213 9700   2.980   1.341   7.157 -0.7155  0.4394 -0.6599
   97SAPE  H13R 9701   3.067   1.345   7.088  1.1621 -1.4675  1.4193
   97SAPE  H13S 9702   2.967   1.448   7.184  1.2613  0.5036  0.2087
   97SAPE  C214 9703   2.851   1.300   7.091 -0.5945 -0.6098 -0.1455
   97SAPE  H14R 9704   2.763   1.266   7.148 -0.9413  1.0876  0.3916
   97SAPE  C215 9705   2.828   1.322   6.962 -0.0798  0.8504  0.3523
   97SAPE  H15R 9706   2.727   1.305   6.922  1.5248 -1.3966 -3.1491
   97SAPE  C216 9707   2.932   1.366   6.856  0.3210 -0.1248 -0.2561
   97SAPE  H16R 9708   3.027   1.400   6.904  0.3935 -1.6432  0.7409
   97SAPE  H16S 9709   2.889   1.449   6.797 -0.5977 -0.3730  0.0453
   97SAPE  C217 9710   2.983   1.250   6.770  0.5021 -0.2906  0.3984
   97SAPE  H17R 9711   2.898   1.191   6.732  0.0138  0.5410  0.1694
   97SAPE  H17S 9712   3.056   1.190   6.830  1.1414  0.9949  0.9565
   97SAPE  C218 9713   3.062   1.302   6.646  0.2415  0.2942  0.1348
   97SAPE  H18R 9714   3.134   1.378   6.684 -0.2644  0.9405 -0.1730
   97SAPE  H18S 9715   2.992   1.354   6.578 -0.5673 -0.5198  0.3217
   97SAPE  C219 9716   3.138   1.190   6.568 -0.0288 -0.9298  0.1407
   97SAPE  H19R 9717   3.184   1.242   6.481 -0.3976  1.6498  1.4043
   97SAPE  H19S 9718   3.060   1.117   6.536 -2.6787  0.9648  1.8241
   97SAPE  C220 9719   3.245   1.115   6.653  0.0905 -0.4869  0.3276
   97SAPE  H20R 9720   3.194   1.052   6.729  1.4868 -0.5577  1.2438
   97SAPE  H20S 9721   3.310   1.189   6.704 -1.6310  0.5770  1.0660
   97SAPE  H20T 9722   3.313   1.054   6.590  0.8919  0.7245 -0.0098
   97SAPE   C33 9723   3.791   1.634   8.067 -1.1747 -0.2045  0.1856
   97SAPE   H3X 9724   3.779   1.727   8.127 -1.0896 -0.7190  1.0244
   97SAPE   H3Y 9725   3.689   1.599   8.040 -1.4447  0.8843 -0.2731
   97SAPE   C34 9726   3.871   1.657   7.935 -0.2712 -0.4850  1.1855
   97SAPE   H4X 9727   3.967   1.713   7.939 -1.4264  1.7434 -0.0931
   97SAPE   H4Y 9728   3.808   1.726   7.875  1.2623 -0.0462  0.0194
   97SAPE   C35 9729   3.890   1.530   7.848  0.4097 -0.1582  0.4758
   97SAPE   H5X 9730   3.797   1.469   7.845 -0.3672  0.9372  1.1739
   97SAPE   H5Y 9731   3.979   1.469   7.873  0.7371 -1.7295 -3.7967
   97SAPE   C36 9732   3.919   1.573   7.704 -0.1755 -0.6435 -0.1571
   97SAPE   H6X 9733   4.018   1.624   7.712 -0.5542  0.0196  0.4304
   97SAPE   H6Y 9734   3.850   1.657   7.684  1.0789  0.5819  0.4695
   97SAPE   C37 9735   3.912   1.471   7.595  0.1453  0.5142  0.0713
   97SAPE   H7X 9736   3.803   1.450   7.597  0.7361 -3.6455 -1.3454
   97SAPE   H7Y 9737   3.971   1.381   7.623 -0.2884  0.3322  0.4340
   97SAPE   C38 9738   3.934   1.512   7.453 -0.1453 -0.1217  0.0691
   97SAPE   H8X 9739   4.030   1.564   7.431  0.0315 -0.1130  0.8480
   97SAPE   H8Y 9740   3.861   1.593   7.429  1.1645  0.9074 -0.6317
   97SAPE   C39 9741   3.922   1.398   7.346  0.6291 -0.9620  0.5722
   97SAPE   H9X 9742   3.821   1.353   7.357 -0.1884  0.8532  0.7494
   97SAPE   H9Y 9743   4.006   1.330   7.371  1.6453 -0.1087 -0.4433
   97SAPE  C310 9744   3.939   1.460   7.199 -0.5493  0.1124  0.0745
   97SAPE  H10X 9745   4.038   1.508   7.185 -0.3409 -0.0374  0.9586
   97SAPE  H10Y 9746   3.867   1.543   7.190 -0.2591  0.4697  0.9498
   97SAPE  C311 9747   3.930   1.358   7.088 -0.4757  0.2034  0.0723
   97SAPE  H11X 9748   3.994   1.271   7.112 -1.1446 -0.3714 -0.2001
   97SAPE  H11Y 9749   3.966   1.404   6.994 -0.1365 -0.9555 -0.3836
   97SAPE  C312 9750   3.782   1.311   7.064 -0.1880  0.3396 -0.3136
   97SAPE  H12X 9751   3.716   1.398   7.045 -0.2977 -0.0031 -1.6269
   97SAPE  H12Y 9752   3.758   1.278   7.168 -0.1551  1.6674  0.1307
   97SAPE  C313 9753   3.761   1.188   6.970  0.3184 -0.8054 -0.0721
   97SAPE  H13X 9754   3.658   1.150   6.986 -1.1213  2.3476 -1.1844
   97SAPE  H13Y 9755   3.844   1.115   6.985  0.3960 -0.8812 -0.8040
   97SAPE  C314 9756   3.775   1.226   6.821 -0.6538 -0.1954 -0.4972
   97SAPE  H14X 9757   3.867   1.287   6.806  0.2870 -1.7645 -1.3266
   97SAPE  H14Y 9758   3.687   1.279   6.778 -0.1985  0.4172 -0.6791
   97SAPE  C315 9759   3.777   1.098   6.734 -0.6676 -0.7325 -0.1737
   97SAPE  H15X 9760   3.851   1.026   6.775  0.9503  1.6351  1.2744
   97SAPE  H15Y 9761   3.823   1.126   6.637  1.6383 -0.9722  0.7782
   97SAPE  C316 9762   3.637   1.036   6.715  0.0105  0.2894 -0.2814
   97SAPE  H16X 9763   3.573   1.118   6.677 -1.6623 -0.6855  0.3019
   97SAPE  H16Y 9764   3.587   1.013   6.812 -0.5990  1.8885 -0.1892
   97SAPE  C317 9765   3.627   0.907   6.639  0.5458  0.8846  0.2902
   97SAPE  H17X 9766   3.693   0.822   6.669 -0.6705 -0.0022  0.5133
   97SAPE  H17Y 9767   3.677   0.924   6.541 -0.9578 -1.1818 -0.9076
   97SAPE  C318 9768   3.490   0.843   6.621  0.5545  0.2918 -0.5387
   97SAPE  H18X 9769   3.496   0.739   6.584  0.1130  0.4861 -1.1688
   97SAPE  H18Y 9770   3.432   0.902   6.547 -0.8056 -0.2082  0.0916
   97SAPE  H18Z 9771   3.427   0.846   6.713  1.2886  0.7503 -0.0387
   98SAPE     N 9772   2.014   3.831   0.719 -1.2624 -0.9313 -0.1087
   98SAPE   HN1 9773   2.114   3.854   0.737 -1.4411 -2.7368  4.7331
   98SAPE   HN2 9774   1.999   3.800   0.621  0.5403  1.0275 -1.1084
   98SAPE   HN3 9775   1.957   3.916   0.737 -1.4373 -1.4907  2.3504
   98SAPE   C12 9776   1.981   3.726   0.816 -0.0840 -0.1228 -0.6631
   98SAPE  H12A 9777   1.879   3.689   0.793 -0.4602  0.7399 -0.4318
   98SAPE  H12B 9778   1.970   3.764   0.920  0.2219 -1.4092 -0.1502
   98SAPE   C11 9779   2.079   3.610   0.812  0.6839 -0.0132  0.7418
   98SAPE  H11A 9780   2.047   3.557   0.720 -0.6092  1.4690  0.3118
   98SAPE  H11B 9781   2.061   3.539   0.896  1.1213 -1.7203 -0.5616
   98SAPE     P 9782   2.332   3.554   0.770 -0.3190  0.4168 -0.1539
   98SAPE   O13 9783   2.422   3.622   0.670  0.6837  0.3816  0.5550
   98SAPE   O14 9784   2.385   3.517   0.903 -0.4942 -0.4761 -0.2721
   98SAPE   O12 9785   2.211   3.646   0.798 -0.5040  0.1361 -0.6083
   98SAPE   O11 9786   2.268   3.421   0.713 -0.6092  0.2040 -0.1665
   98SAPE    C1 9787   2.222   3.397   0.578  0.8271  0.5246 -0.5404
   98SAPE    HA 9788   2.125   3.342   0.587  0.2555  1.7891  2.0183
   98SAPE    HB 9789   2.199   3.493   0.527  2.5145  1.1781 -0.1301
   98SAPE    C2 9790   2.332   3.326   0.489 -0.5930 -0.6118  0.1172
   98SAPE    HS 9791   2.279   3.282   0.402 -0.2395 -2.2408  0.6918
   98SAPE   O21 9792   2.398   3.210   0.555 -0.2218 -0.2335  0.4339
   98SAPE   C21 9793   2.340   3.090   0.534  0.6171 -0.9593 -0.3717
   98SAPE   O22 9794   2.225   3.069   0.499 -0.3347  0.2935 -0.2046
   98SAPE   C22 9795   2.439   2.986   0.589  0.9025  0.0589  0.2054
   98SAPE   H2R 9796   2.541   3.031   0.599 -0.6945  4.1154  0.2171
   98SAPE   H2S 9797   2.414   2.967   0.696 -0.6507 -1.6807 -0.4214
   98SAPE    C3 9798   2.439   3.418   0.428  0.1362  0.2086 -0.5742
   98SAPE    HX 9799   2.538   3.399   0.475 -0.5583 -0.1352  0.7975
   98SAPE    HY 9800   2.415   3.523   0.455 -1.7136 -0.3285 -0.0138
   98SAPE   O31 9801   2.446   3.408   0.288 -0.4011  0.3076  0.3201
   98SAPE   C31 9802   2.524   3.497   0.228  0.1372 -0.6355  0.2770
   98SAPE   O32 9803   2.576   3.594   0.284  0.0890 -0.2168  0.3423
   98SAPE   C32 9804   2.509   3.475   0.080  0.2780 -0.3322 -0.3569
   98SAPE   H2X 9805   2.414   3.420   0.063 -0.4375  1.1926 -1.4921
   98SAPE   H2Y 9806   2.582   3.395   0.051 -0.8525 -1.1916 -0.8948
   98SAPE   C23 9807   2.440   2.845   0.520 -0.6896  0.2135 -0.5945
   98SAPE   H3R 9808   2.335   2.809   0.524 -0.6667  0.1701 -0.4138
   98SAPE   H3S 9809   2.505   2.783   0.585  2.1993  2.7099 -0.8522
   98SAPE   C24 9810   2.489   2.855   0.376 -0.1636 -0.6668  0.0434
   98SAPE   H4R 9811   2.426   2.925   0.318  0.0053 -0.0605  0.5900
   98SAPE   H4S 9812   2.470   2.751   0.341 -0.6974  0.0063 -1.7930
   98SAPE   C25 9813   2.638   2.873   0.376 -0.0328 -0.8474  0.3780
   98SAPE   H5R 9814   2.685   2.859   0.474 -1.8240 -0.3519  1.3432
   98SAPE   C26 9815   2.706   2.935   0.273  0.7256  0.1363 -0.0060
   98SAPE   H6R 9816   2.810   2.954   0.301  0.4744  0.6631  0.5976
   98SAPE   C27 9817   2.650   2.985   0.139  0.0915 -0.5966 -0.1353
   98SAPE   H7R 9818   2.577   3.068   0.151 -0.6057 -1.2428  0.1273
   98SAPE   H7S 9819   2.588   2.904   0.095 -1.5268 -0.0143  0.9490
   98SAPE   C28 9820   2.761   3.034   0.045 -0.3385  0.3538  0.8549
   98SAPE   H8R 9821   2.862   3.021   0.086  0.5897 -3.8087 -2.1378
   98SAPE   C29 9822   2.754   3.056  -0.087  0.5043  0.0075 -0.1119
   98SAPE   H9R 9823   2.844   3.095  -0.136 -0.1239  1.2774 -0.3190
   98SAPE  C210 9824   2.625   3.045  -0.178 -0.2994 -0.3945 -0.7987
   98SAPE  H10R 9825   2.532   3.039  -0.117  0.9027  0.4548  1.2356
   98SAPE  H10S 9826   2.635   2.947  -0.229  0.9033 -0.8128  0.1972
   98SAPE  C211 9827   2.590   3.153  -0.282  0.4735  0.1579  0.1979
   98SAPE  H11R 9828   2.566   3.253  -0.242 -1.1234 -0.1493  0.0603
   98SAPE  C212 9829   2.612   3.139  -0.417 -0.1275 -0.6269  0.8881
   98SAPE  H12R 9830   2.569   3.212  -0.487  0.3702  1.6884  2.8643
   98SAPE  C213 9831   2.693   3.030  -0.488 -0.3724 -0.8990  0.7076
   98SAPE  H13R 9832   2.772   2.991  -0.422 -0.4416 -0.1479  1.2505
   98SAPE  H13S 9833   2.753   3.075  -0.570 -0.8344  0.1226  0.9041
   98SAPE  C214 9834   2.596   2.919  -0.540  0.0257 -0.4791  0.5595
   98SAPE  H14R 9835   2.534   2.867  -0.466  0.4275 -1.0485  0.5055
   98SAPE  C215 9836   2.600   2.869  -0.667 -0.3377 -0.0116  0.0430
   98SAPE  H15R 9837   2.535   2.786  -0.696 -0.0403 -0.7040  1.3185
   98SAPE  C216 9838   2.696   2.931  -0.767  0.5239  0.0419 -0.0294
   98SAPE  H16R 9839   2.801   2.920  -0.732  0.2957 -2.3473  0.1045
   98SAPE  H16S 9840   2.673   3.039  -0.764 -0.2501 -0.1369  0.8354
   98SAPE  C217 9841   2.686   2.884  -0.914  0.4575 -0.1403 -0.5319
   98SAPE  H17R 9842   2.578   2.864  -0.935 -0.6681  2.8626  1.6199
   98SAPE  H17S 9843   2.743   2.789  -0.922 -0.4484 -0.6442 -1.3737
   98SAPE  C218 9844   2.739   2.987  -1.017  0.9070  0.9113  0.0584
   98SAPE  H18R 9845   2.818   3.047  -0.967  1.7202  0.9058 -1.1743
   98SAPE  H18S 9846   2.645   3.044  -1.030 -0.5419 -1.3463  0.2075
   98SAPE  C219 9847   2.770   2.927  -1.161  0.3815 -0.7857  0.2029
   98SAPE  H19R 9848   2.677   2.877  -1.193 -0.8993 -0.2074  2.7807
   98SAPE  H19S 9849   2.854   2.858  -1.138 -0.6012 -1.7180  1.0762
   98SAPE  C220 9850   2.819   3.031  -1.260  0.3672  0.1353  0.0836
   98SAPE  H20R 9851   2.729   3.095  -1.266 -0.4779 -1.0037  0.3082
   98SAPE  H20S 9852   2.827   2.976  -1.356 -2.0111 -0.8740  0.3968
   98SAPE  H20T 9853   2.905   3.088  -1.218  1.3431 -0.3599 -1.1905
   98SAPE   C33 9854   2.530   3.599  -0.001  0.4065 -0.1523 -0.2068
   98SAPE   H3X 9855   2.613   3.652   0.050 -0.3432  0.2680  0.6029
   98SAPE   H3Y 9856   2.443   3.669   0.001  1.4063  1.1208  2.5687
   98SAPE   C34 9857   2.579   3.558  -0.141 -0.0291 -0.4068  0.4616
   98SAPE   H4X 9858   2.622   3.456  -0.137 -1.9083 -1.3640 -1.4233
   98SAPE   H4Y 9859   2.662   3.620  -0.181 -0.3548  0.3752  0.9731
   98SAPE   C35 9860   2.478   3.584  -0.252 -0.0656  0.1478  0.4848
   98SAPE   H5X 9861   2.452   3.692  -0.251 -0.3412  0.0876  1.5374
   98SAPE   H5Y 9862   2.388   3.526  -0.223 -0.0394  1.2198  3.0277
   98SAPE   C36 9863   2.521   3.552  -0.397 -0.6128 -0.7813 -0.4429
   98SAPE   H6X 9864   2.565   3.450  -0.394 -0.7709 -0.8360  0.3400
   98SAPE   H6Y 9865   2.582   3.640  -0.427  0.3778 -1.1102  0.5120
   98SAPE   C37 9866   2.400   3.550  -0.501 -0.6638 -0.0609 -0.7494
   98SAPE   H7X 9867   2.349   3.647  -0.482  1.1316  1.0116 -1.1526
   98SAPE   H7Y 9868   2.332   3.465  -0.479 -0.1296 -0.0653  1.0431
   98SAPE   C38 9869   2.445   3.557  -0.645  0.3266 -0.0547 -0.5901
   98SAPE   H8X 9870   2.497   3.654  -0.664  2.0559 -0.6522  0.8130
   98SAPE   H8Y 9871   2.357   3.560  -0.712 -0.4469 -2.4040  0.2225
   98SAPE   C39 9872   2.538   3.444  -0.686  0.3456 -0.3847  0.5596
   98SAPE   H9X 9873   2.484   3.352  -0.657 -0.3256  0.0938  0.8442
   98SAPE   H9Y 9874   2.632   3.461  -0.628  0.2061  1.2867  0.3277
   98SAPE  C310 9875   2.572   3.435  -0.834 -0.0441  0.8855 -0.3236
   98SAPE  H10X 9876   2.488   3.389  -0.891  0.0536 -1.0756  0.9879
   98SAPE  H10Y 9877   2.658   3.365  -0.846 -2.1377 -2.4996  2.3781
   98SAPE  C311 9878   2.609   3.563  -0.898 -0.5602  0.1657  1.2024
   98SAPE  H11X 9879   2.714   3.582  -0.865 -0.3911 -0.2479  0.9181
   98SAPE  H11Y 9880   2.541   3.648  -0.878 -1.1865  0.7855 -2.6923
   98SAPE  C312 9881   2.600   3.541  -1.055  0.4653  0.1395 -0.1669
   98SAPE  H12X 9882   2.652   3.629  -1.100  0.3959 -0.1291 -0.7745
   98SAPE  H12Y 9883   2.498   3.537  -1.098  1.0101 -1.5142 -1.3768
   98SAPE  C313 9884   2.677   3.411  -1.110  0.2760  0.1849  0.0574
   98SAPE  H13X 9885   2.625   3.319  -1.076 -1.7756  1.3126  0.1982
   98SAPE  H13Y 9886   2.771   3.400  -1.053 -0.8580 -1.9974  1.6539
   98SAPE  C314 9887   2.698   3.427  -1.263 -0.2957  0.4679 -0.2866
   98SAPE  H14X 9888   2.794   3.373  -1.281 -1.9767 -2.0741 -2.2971
   98SAPE  H14Y 9889   2.705   3.536  -1.283 -0.4768  0.6226  0.4772
   98SAPE  C315 9890   2.588   3.366  -1.359  0.2871 -1.0230  0.5763
   98SAPE  H15X 9891   2.507   3.442  -1.355  2.8978  2.0227 -0.2040
   98SAPE  H15Y 9892   2.546   3.278  -1.306 -1.8181 -0.1868  0.3849
   98SAPE  C316 9893   2.611   3.338  -1.504  1.0374 -0.4247  0.0774
   98SAPE  H16X 9894   2.635   3.428  -1.564 -1.8196 -0.0815 -0.6833
   98SAPE  H16Y 9895   2.522   3.293  -1.553  0.2067  1.8816 -0.6799
   98SAPE  C317 9896   2.725   3.241  -1.524  0.0711  0.7579 -0.1257
   98SAPE  H17X 9897   2.695   3.143  -1.479  1.3879  0.6330  0.5429
   98SAPE  H17Y 9898   2.806   3.288  -1.464  1.2465 -0.0948 -0.9968
   98SAPE  C318 9899   2.784   3.207  -1.660  0.1800  0.4127  0.2302
   98SAPE  H18X 9900   2.701   3.188  -1.731 -0.6455  2.7598  0.4783
   98SAPE  H18Y 9901   2.834   3.110  -1.644 -0.4021 -0.4557 -2.6710
   98SAPE  H18Z 9902   2.859   3.283  -1.693  1.9460 -1.1872  0.3785
   99SAPE     N 9903   4.185   1.635   0.350  0.5538  0.5257 -0.1991
   99SAPE   HN1 9904   4.187   1.726   0.401  1.3384  0.6507 -0.4379
   99SAPE   HN2 9905   4.109   1.578   0.391 -1.9343  2.0070 -2.4434
   99SAPE   HN3 9906   4.275   1.584   0.342 -0.8175 -1.8533 -1.4480
   99SAPE   C12 9907   4.139   1.658   0.214  0.0803  0.3448  1.1060
   99SAPE  H12A 9908   4.204   1.729   0.158 -0.5749 -0.2789 -0.4791
   99SAPE  H12B 9909   4.034   1.692   0.224 -1.1242 -1.9814 -1.9844
   99SAPE   C11 9910   4.111   1.524   0.145  0.3291 -0.8017 -0.0505
   99SAPE  H11A 9911   4.206   1.467   0.133  0.4821 -0.0512 -3.1524
   99SAPE  H11B 9912   4.077   1.544   0.041 -1.1327  1.2799  0.7738
   99SAPE     P 9913   3.906   1.346   0.151 -0.1013 -0.0802 -0.2526
   99SAPE   O13 9914   3.892   1.239   0.251  0.5415 -0.3281 -0.1343
   99SAPE   O14 9915   3.790   1.424   0.115 -1.0658  0.1587  0.5625
   99SAPE   O12 9916   4.011   1.451   0.218 -0.0756 -0.3820 -0.3116
   99SAPE   O11 9917   3.984   1.309   0.017 -0.0442  0.0076 -0.0362
   99SAPE    C1 9918   3.981   1.180  -0.032 -0.2518  0.6246 -0.1441
   99SAPE    HA 9919   4.000   1.103   0.046  0.4723  0.0874 -0.8289
   99SAPE    HB 9920   3.887   1.158  -0.086 -0.8768  0.6928  0.9085
   99SAPE    C2 9921   4.105   1.162  -0.124  0.3405  0.3943  0.4020
   99SAPE    HS 9922   4.183   1.232  -0.087  1.7809 -0.5251 -0.7733
   99SAPE   O21 9923   4.060   1.187  -0.255  0.5443 -0.6634  0.2371
   99SAPE   C21 9924   4.143   1.271  -0.326  0.0974 -0.0452 -0.2270
   99SAPE   O22 9925   4.246   1.320  -0.282 -0.2726  1.0343 -0.7945
   99SAPE   C22 9926   4.088   1.307  -0.462 -0.3527  0.1587  0.2292
   99SAPE   H2R 9927   3.983   1.274  -0.473  0.2027 -1.3184 -0.8863
   99SAPE   H2S 9928   4.092   1.418  -0.472  1.9927  0.0463 -0.5638
   99SAPE    C3 9929   4.154   1.014  -0.123  1.1518  0.4794  0.0688
   99SAPE    HX 9930   4.078   0.964  -0.187 -0.4096  2.5482  0.2260
   99SAPE    HY 9931   4.158   0.960  -0.025  0.0404  0.8058  0.3104
   99SAPE   O31 9932   4.291   0.996  -0.169 -0.7289  0.2599  0.2577
   99SAPE   C31 9933   4.307   0.950  -0.294  0.3722 -1.0040 -0.0609
   99SAPE   O32 9934   4.221   0.941  -0.380  0.2220  0.7848 -0.3939
   99SAPE   C32 9935   4.444   0.890  -0.311  0.4090 -0.4814 -0.4537
   99SAPE   H2X 9936   4.461   0.805  -0.241  2.0996 -0.5032 -0.8528
   99SAPE   H2Y 9937   4.515   0.972  -0.287  2.4350 -2.1760 -0.3838
   99SAPE   C23 9938   4.160   1.232  -0.581  0.3608 -0.0783 -0.0444
   99SAPE   H3R 9939   4.096   1.229  -0.672  0.8006 -2.6059 -0.3601
   99SAPE   H3S 9940   4.165   1.124  -0.556  2.9113  0.3826  1.8003
   99SAPE   C24 9941   4.289   1.288  -0.626  0.0959 -0.0659 -0.8906
   99SAPE   H4R 9942   4.341   1.212  -0.688 -0.0291 -1.7717  1.0070
   99SAPE   H4S 9943   4.357   1.303  -0.540 -2.2042  2.8239  0.5947
   99SAPE   C25 9944   4.277   1.421  -0.690 -0.7865  0.4830 -0.2232
   99SAPE   H5R 9945   4.238   1.498  -0.621 -1.2939  0.1515 -0.1382
   99SAPE   C26 9946   4.299   1.458  -0.812  0.8353 -0.2804  0.3312
   99SAPE   H6R 9947   4.275   1.563  -0.836 -1.2607 -0.8272 -0.1653
   99SAPE   C27 9948   4.358   1.376  -0.921 -0.4217 -0.4826  1.0941
   99SAPE   H7R 9949   4.444   1.314  -0.886  0.9038 -0.6481 -2.1038
   99SAPE   H7S 9950   4.402   1.445  -0.995  0.2335 -2.2950 -0.2954
   99SAPE   C28 9951   4.270   1.265  -0.982  0.4146  0.1827 -0.2379
   99SAPE   H8R 9952   4.191   1.234  -0.911  0.1274  1.3581 -0.0246
   99SAPE   C29 9953   4.251   1.232  -1.113  0.6838  0.5132 -0.5312
   99SAPE   H9R 9954   4.185   1.146  -1.130  1.9679 -0.6496  0.2135
   99SAPE  C210 9955   4.331   1.286  -1.232  0.0610 -0.3997  0.7386
   99SAPE  H10R 9956   4.362   1.205  -1.303 -0.6699  0.2738 -0.3907
   99SAPE  H10S 9957   4.428   1.319  -1.190  0.5681  2.0250 -2.0400
   99SAPE  C211 9958   4.271   1.394  -1.320  0.6719 -0.1568 -0.3857
   99SAPE  H11R 9959   4.227   1.478  -1.264  1.8781  1.7025 -2.0732
   99SAPE  C212 9960   4.289   1.401  -1.453 -0.3846 -0.3285 -0.3226
   99SAPE  H12R 9961   4.259   1.494  -1.505  0.6733 -0.3158 -0.9384
   99SAPE  C213 9962   4.357   1.299  -1.542 -0.1565  0.0479  0.4629
   99SAPE  H13R 9963   4.442   1.241  -1.500  2.2049  1.7468 -1.6402
   99SAPE  H13S 9964   4.396   1.367  -1.622 -0.3777  1.0203  1.1655
   99SAPE  C214 9965   4.263   1.196  -1.600 -0.3335  0.0986  0.4354
   99SAPE  H14R 9966   4.172   1.188  -1.539  0.2799  2.1630  1.7564
   99SAPE  C215 9967   4.271   1.127  -1.715 -0.9858 -0.9796 -0.2114
   99SAPE  H15R 9968   4.199   1.048  -1.741  0.0463 -1.5541 -1.4358
   99SAPE  C216 9969   4.372   1.137  -1.822  0.3219 -0.2034 -0.2833
   99SAPE  H16R 9970   4.430   1.042  -1.824  0.7420  0.0702 -1.8201
   99SAPE  H16S 9971   4.452   1.212  -1.805  0.6199 -0.3195 -1.1341
   99SAPE  C217 9972   4.306   1.145  -1.959  0.3713  0.4633  0.0489
   99SAPE  H17R 9973   4.245   1.238  -1.963  0.3309  0.4602  0.5064
   99SAPE  H17S 9974   4.233   1.063  -1.976  0.0661  0.2571  2.1461
   99SAPE  C218 9975   4.404   1.172  -2.079 -0.0805  0.8933  0.1203
   99SAPE  H18R 9976   4.349   1.215  -2.165  0.5995  0.0822 -0.7384
   99SAPE  H18S 9977   4.438   1.070  -2.106 -1.1091  0.0962  1.6668
   99SAPE  C219 9978   4.505   1.279  -2.065 -0.5780  0.4736  0.2276
   99SAPE  H19R 9979   4.595   1.248  -2.008  0.4065 -0.0614 -1.5402
   99SAPE  H19S 9980   4.444   1.356  -2.012 -3.0581 -2.6661  2.2792
   99SAPE  C220 9981   4.575   1.347  -2.188 -0.1836 -0.2944 -0.1602
   99SAPE  H20R 9982   4.500   1.385  -2.260  1.5824  0.0197 -1.9260
   99SAPE  H20S 9983   4.626   1.264  -2.241 -2.8461 -0.7787 -2.1642
   99SAPE  H20T 9984   4.646   1.428  -2.161  0.7878 -1.4538  0.9165
   99SAPE   C33 9985   4.476   0.838  -0.457 -0.0651 -0.8308  0.0464
   99SAPE   H3X 9986   4.389   0.772  -0.480  0.9481 -1.7393 -1.4355
   99SAPE   H3Y 9987   4.570   0.777  -0.463  0.5026 -0.0253  0.6412
   99SAPE   C34 9988   4.496   0.948  -0.563  1.0601  0.2686  0.1776
   99SAPE   H4X 9989   4.573   1.024  -0.535  3.3297 -1.0040 -2.1313
   99SAPE   H4Y 9990   4.404   1.007  -0.578  1.3752  0.5133 -0.8541
   99SAPE   C35 9991   4.551   0.905  -0.701  0.8543  1.0595  0.2648
   99SAPE   H5X 9992   4.480   0.838  -0.754  0.8193  1.2499  0.0735
   99SAPE   H5Y 9993   4.627   0.828  -0.676 -0.3428 -0.0016  0.7358
   99SAPE   C36 9994   4.609   1.018  -0.784 -0.3631 -1.1869  0.0767
   99SAPE   H6X 9995   4.705   1.057  -0.745 -0.9820  0.7413 -0.2222
   99SAPE   H6Y 9996   4.537   1.102  -0.785  0.3794 -0.5357 -1.3704
   99SAPE   C37 9997   4.631   0.981  -0.933  0.7823 -0.4526 -0.1134
   99SAPE   H7X 9998   4.529   0.964  -0.973  0.6732 -0.5659  0.2092
   99SAPE   H7Y 9999   4.696   0.892  -0.945  0.8266 -0.2076 -1.9084
   99SAPE   C3810000   4.682   1.102  -1.014 -0.5478  0.0128  0.1907
   99SAPE   H8X10001   4.781   1.138  -0.977 -0.0813 -0.1148 -0.8760
   99SAPE   H8Y10002   4.616   1.192  -1.012 -4.7799 -2.8406  0.8122
   99SAPE   C3910003   4.704   1.054  -1.160 -0.0419  0.4023  0.1625
   99SAPE   H9X10004   4.787   0.980  -1.158  1.0374  1.5951  0.8373
   99SAPE   H9Y10005   4.743   1.138  -1.221  0.3238  0.8541  1.0073
   99SAPE  C31010006   4.581   0.994  -1.232 -0.4244  0.0686 -0.5759
   99SAPE  H10X10007   4.499   1.064  -1.209 -0.8544 -0.4917 -0.3756
   99SAPE  H10Y10008   4.548   0.898  -1.186 -0.1670  0.4881  0.4880
   99SAPE  C31110009   4.610   0.966  -1.379  0.7941 -1.0923  0.2479
   99SAPE  H11X10010   4.633   1.066  -1.422 -0.6735 -0.5013  0.7375
   99SAPE  H11Y10011   4.514   0.944  -1.430 -1.3611 -0.5109  3.6729
   99SAPE  C31210012   4.712   0.858  -1.400 -0.3086 -0.3435 -0.2714
   99SAPE  H12X10013   4.661   0.760  -1.415 -0.7471  0.2239 -2.9216
   99SAPE  H12Y10014   4.772   0.847  -1.307 -0.7035 -2.7132 -0.2159
   99SAPE  C31310015   4.797   0.898  -1.522 -0.0296  0.4212 -0.5285
   99SAPE  H13X10016   4.896   0.848  -1.519 -0.4441 -0.6815 -2.7714
   99SAPE  H13Y10017   4.817   1.006  -1.537  0.7184  0.4665  0.6516
   99SAPE  C31410018   4.738   0.843  -1.659 -0.5781 -0.8755 -0.1792
   99SAPE  H14X10019   4.645   0.902  -1.676 -1.6114 -1.9850  1.3658
   99SAPE  H14Y10020   4.703   0.738  -1.658  1.7381 -1.6906  0.0446
   99SAPE  C31510021   4.836   0.867  -1.780 -0.4181 -0.2926 -0.4349
   99SAPE  H15X10022   4.932   0.816  -1.758  0.2246  0.8310 -0.5292
   99SAPE  H15Y10023   4.851   0.977  -1.787 -1.7846 -0.0574  0.0693
   99SAPE  C31610024   4.774   0.827  -1.923 -0.1245  0.8584  0.7099
   99SAPE  H16X10025   4.860   0.844  -1.992 -0.9666 -0.5211 -0.7596
   99SAPE  H16Y10026   4.693   0.898  -1.950 -1.7395 -1.1610 -0.0954
   99SAPE  C31710027   4.748   0.677  -1.951  1.3279  0.1224  0.3453
   99SAPE  H17X10028   4.693   0.669  -2.047  2.0784 -0.6107 -0.0352
   99SAPE  H17Y10029   4.677   0.642  -1.872 -0.3611  0.7842 -0.8202
   99SAPE  C31810030   4.879   0.589  -1.972 -0.1878  0.6356 -0.2423
   99SAPE  H18X10031   4.947   0.579  -1.885  0.6126 -0.1631 -0.9372
   99SAPE  H18Y10032   4.941   0.606  -2.063 -0.2320  0.6879 -0.2621
   99SAPE  H18Z10033   4.841   0.485  -1.987  0.3340  0.2473  1.0167
  100SAPE     N10034   0.789   3.712   0.067 -0.3315  0.3728  0.8056
  100SAPE   HN110035   0.715   3.640   0.055 -0.4359  0.5705  0.2507
  100SAPE   HN210036   0.873   3.668   0.111 -0.8575 -1.6346 -0.0890
  100SAPE   HN310037   0.748   3.782   0.131 -1.1720  1.8270 -1.2389
  100SAPE   C1210038   0.830   3.771  -0.069  0.5136  0.0816  0.0928
  100SAPE  H12A10039   0.734   3.788  -0.123  1.2617  1.4634 -0.8417
  100SAPE  H12B10040   0.899   3.705  -0.127  0.8921  1.5947 -1.2498
  100SAPE   C1110041   0.910   3.897  -0.034  0.4758  0.3011 -0.6596
  100SAPE  H11A10042   0.844   3.974   0.012  1.7107  1.9586 -1.5567
  100SAPE  H11B10043   0.947   3.948  -0.126 -0.9019 -1.0371 -2.0048
  100SAPE     P10044   1.069   3.995   0.149  0.3833 -0.2888 -0.2814
  100SAPE   O1310045   0.981   4.023   0.261 -0.2987 -0.3688 -0.5213
  100SAPE   O1410046   1.208   3.961   0.185 -0.6295 -0.8056  0.5217
  100SAPE   O1210047   1.019   3.875   0.059  0.1262  0.3578  0.5288
  100SAPE   O1110048   1.077   4.119   0.054  0.1661  0.3694 -0.0007
  100SAPE    C110049   0.981   4.223   0.078  0.7346  0.2862  0.3233
  100SAPE    HA10050   0.877   4.185   0.073  0.4401  1.0931  0.2054
  100SAPE    HB10051   0.993   4.264   0.181 -2.2719 -1.0301  1.3097
  100SAPE    C210052   1.000   4.349  -0.020  0.7551 -0.1141  0.5149
  100SAPE    HS10053   0.915   4.421  -0.024 -0.3240 -1.4000 -1.2826
  100SAPE   O2110054   1.040   4.322  -0.157  0.0707  0.0409  0.1366
  100SAPE   C2110055   0.953   4.241  -0.223  0.4989 -0.5666  0.3974
  100SAPE   O2210056   0.852   4.191  -0.177 -0.2042 -0.4768 -0.4020
  100SAPE   C2210057   0.991   4.245  -0.372 -0.0606 -0.5869  0.0455
  100SAPE   H2R10058   0.972   4.349  -0.408  2.3299  0.0186  0.3939
  100SAPE   H2S10059   1.099   4.229  -0.393 -0.1239 -0.5844 -0.2983
  100SAPE    C310060   1.122   4.434   0.037 -0.5927  0.7653 -0.5947
  100SAPE    HX10061   1.219   4.379   0.035 -1.3273 -0.5543 -0.7073
  100SAPE    HY10062   1.093   4.440   0.144  0.6683  0.3519 -0.2100
  100SAPE   O3110063   1.129   4.557  -0.035  0.1461  0.2264  0.1193
  100SAPE   C3110064   1.100   4.670   0.032 -0.3482 -0.4243  0.8275
  100SAPE   O3210065   1.065   4.669   0.149  0.4751  0.0951 -0.3193
  100SAPE   C3210066   1.115   4.787  -0.057 -0.1323 -1.2659 -0.2798
  100SAPE   H2X10067   1.221   4.811  -0.081 -0.4242  1.0375  0.4118
  100SAPE   H2Y10068   1.076   4.880  -0.009  0.1592  0.4820 -3.2217
  100SAPE   C2310069   0.917   4.136  -0.445 -0.4354 -0.3521 -0.5619
  100SAPE   H3R10070   0.807   4.147  -0.452 -0.6836 -2.1227  0.2037
  100SAPE   H3S10071   0.941   4.038  -0.400 -1.3702 -0.2007  0.3151
  100SAPE   C2410072   0.964   4.122  -0.596  0.5978  0.0801 -0.5633
  100SAPE   H4R10073   0.919   4.032  -0.645 -1.3886  0.1924  0.9445
  100SAPE   H4S10074   1.071   4.102  -0.574 -0.2407 -2.3593  1.9099
  100SAPE   C2510075   0.951   4.247  -0.675 -0.4820 -0.7791 -0.2967
  100SAPE   H5R10076   1.047   4.298  -0.688 -0.3047 -0.7758  0.9009
  100SAPE   C2610077   0.855   4.292  -0.743  0.8818  0.2041  0.0162
  100SAPE   H6R10078   0.866   4.389  -0.794  1.8512  0.2687  0.3260
  100SAPE   C2710079   0.720   4.219  -0.768 -0.7116 -0.0583  0.0453
  100SAPE   H7R10080   0.703   4.152  -0.682 -0.2250 -0.9971 -0.5667
  100SAPE   H7S10081   0.729   4.153  -0.857  1.3894  1.6505 -1.1230
  100SAPE   C2810082   0.614   4.314  -0.799 -1.2560 -0.9320 -0.0200
  100SAPE   H8R10083   0.545   4.334  -0.716  1.1696 -1.5669  2.2863
  100SAPE   C2910084   0.593   4.371  -0.921  0.2340  0.0622 -0.2242
  100SAPE   H9R10085   0.509   4.441  -0.929  1.6498  1.6440 -3.0276
  100SAPE  C21010086   0.670   4.363  -1.052  0.1027 -0.0079  0.0859
  100SAPE  H10R10087   0.767   4.309  -1.047  0.5102  0.7461  0.5812
  100SAPE  H10S10088   0.699   4.467  -1.078  0.8267 -0.1909  0.1492
  100SAPE  C21110089   0.582   4.305  -1.162  0.5919 -0.1391  0.5725
  100SAPE  H11R10090   0.496   4.245  -1.131  2.1461 -2.0256  1.4769
  100SAPE  C21210091   0.589   4.327  -1.294 -0.1957  0.1679 -0.3093
  100SAPE  H12R10092   0.525   4.277  -1.368 -2.1201  0.5920  1.0075
  100SAPE  C21310093   0.682   4.423  -1.359  0.1423 -0.4704 -1.0457
  100SAPE  H13R10094   0.744   4.483  -1.289  1.0841 -1.6408 -0.8561
  100SAPE  H13S10095   0.630   4.502  -1.419 -0.8650  1.8355  2.5373
  100SAPE  C21410096   0.797   4.361  -1.421  0.0093  0.0416  0.0057
  100SAPE  H14R10097   0.869   4.316  -1.351  0.5560 -0.0404 -0.6014
  100SAPE  C21510098   0.816   4.315  -1.547  0.7013  0.4078 -0.7295
  100SAPE  H15R10099   0.915   4.277  -1.577 -0.1085 -2.2020 -0.3626
  100SAPE  C21610100   0.721   4.353  -1.650  0.4482 -1.3484 -0.0502
  100SAPE  H16R10101   0.636   4.401  -1.598  0.9349 -1.0282  0.4666
  100SAPE  H16S10102   0.667   4.267  -1.694 -3.1044  0.4766  0.4324
  100SAPE  C21710103   0.781   4.449  -1.760 -0.5124 -0.0911  0.2630
  100SAPE  H17R10104   0.869   4.405  -1.810  1.0067  2.9871 -0.0014
  100SAPE  H17S10105   0.814   4.542  -1.709 -1.9180  0.4890  0.1450
  100SAPE  C21810106   0.659   4.490  -1.848  0.6931 -0.0930 -0.1840
  100SAPE  H18R10107   0.597   4.569  -1.800  1.0487  0.6207 -0.8753
  100SAPE  H18S10108   0.589   4.405  -1.866  2.1257 -1.1802 -0.7820
  100SAPE  C21910109   0.697   4.533  -1.985 -0.2571 -0.2083  0.3917
  100SAPE  H19R10110   0.786   4.598  -1.992  0.0807 -0.3984  2.4269
  100SAPE  H19S10111   0.603   4.581  -2.022 -0.2740  0.2218  0.9943
  100SAPE  C22010112   0.723   4.417  -2.086 -0.3422 -0.1513 -0.4490
  100SAPE  H20R10113   0.635   4.350  -2.095  0.2369 -0.7422 -1.9117
  100SAPE  H20S10114   0.813   4.359  -2.058 -0.0792 -0.0226 -1.0230
  100SAPE  H20T10115   0.741   4.452  -2.189  0.2703  2.0641  0.3485
  100SAPE   C3310116   1.031   4.797  -0.184  0.1192 -0.0962 -1.2937
  100SAPE   H3X10117   0.927   4.777  -0.152  0.7823  1.0393  1.8946
  100SAPE   H3Y10118   1.077   4.716  -0.246  0.8873 -0.7118  0.0359
  100SAPE   C3410119   1.041   4.934  -0.253 -0.1644  0.3453  1.0137
  100SAPE   H4X10120   1.150   4.955  -0.263 -0.3296  1.5111  1.5255
  100SAPE   H4Y10121   1.001   5.006  -0.179  0.3319 -0.0259  1.6496
  100SAPE   C3510122   0.970   4.947  -0.383  0.1880  0.5492 -1.1696
  100SAPE   H5X10123   0.866   4.922  -0.353  0.8852 -0.1159  0.8483
  100SAPE   H5Y10124   1.008   4.872  -0.456 -2.4502 -1.5022 -0.5789
  100SAPE   C3610125   0.980   5.085  -0.447  0.6142 -0.8343  0.1321
  100SAPE   H6X10126   1.078   5.132  -0.424 -0.2566  2.3911 -2.1189
  100SAPE   H6Y10127   0.907   5.161  -0.413  3.2053  1.6087  0.6070
  100SAPE   C3710128   0.962   5.092  -0.596  0.6602 -0.0104  0.7365
  100SAPE   H7X10129   0.875   5.039  -0.640  0.9722  0.8173 -0.9890
  100SAPE   H7Y10130   1.050   5.047  -0.646 -1.0263 -2.3053 -0.3622
  100SAPE   C3810131   0.946   5.240  -0.646  0.3916  0.2836  0.7042
  100SAPE   H8X10132   1.053   5.270  -0.644  0.1882  1.0494  3.1893
  100SAPE   H8Y10133   0.891   5.297  -0.568 -0.9390 -0.3488  0.2634
  100SAPE   C3910134   0.881   5.243  -0.779  0.4001 -0.6806  0.3486
  100SAPE   H9X10135   0.866   5.350  -0.802  0.6192 -0.0362  2.8742
  100SAPE   H9Y10136   0.785   5.187  -0.779 -0.6886  1.1113 -0.3435
  100SAPE  C31010137   0.969   5.182  -0.891  0.0311 -0.0456  0.0938
  100SAPE  H10X10138   0.965   5.071  -0.894 -1.1812  0.0105 -2.4896
  100SAPE  H10Y10139   1.075   5.215  -0.880 -0.0089 -0.4946  2.1624
  100SAPE  C31110140   0.915   5.236  -1.023  0.3670  0.0844  0.2467
  100SAPE  H11X10141   0.878   5.338  -0.998 -2.3300 -0.8465  0.4036
  100SAPE  H11Y10142   0.819   5.184  -1.045 -0.4488  0.8492  1.8163
  100SAPE  C31210143   1.018   5.225  -1.146  0.0233  0.3176 -0.4625
  100SAPE  H12X10144   1.040   5.120  -1.173 -1.4561  0.0515 -0.7145
  100SAPE  H12Y10145   1.112   5.265  -1.103 -0.5232 -0.9682  2.1408
  100SAPE  C31310146   0.970   5.308  -1.264 -0.0591  0.1088  1.0065
  100SAPE  H13X10147   1.065   5.328  -1.318  0.5399  0.5581  2.2012
  100SAPE  H13Y10148   0.935   5.408  -1.233  0.3003  1.0317 -1.3257
  100SAPE  C31410149   0.871   5.241  -1.358  0.5682 -0.5530 -0.2156
  100SAPE  H14X10150   0.789   5.212  -1.290  1.4517 -0.6025  0.8558
  100SAPE  H14Y10151   0.910   5.155  -1.416 -1.1866  0.6667 -3.4674
  100SAPE  C31510152   0.800   5.340  -1.455 -0.0758 -0.2191 -0.6804
  100SAPE  H15X10153   0.867   5.351  -1.543 -0.6325  1.5096 -0.9332
  100SAPE  H15Y10154   0.786   5.440  -1.407  0.3708 -0.7591  0.6266
  100SAPE  C31610155   0.661   5.292  -1.497 -0.3717  0.1033 -0.1499
  100SAPE  H16X10156   0.593   5.294  -1.409 -1.6023  0.1245 -1.0704
  100SAPE  H16Y10157   0.664   5.183  -1.519  0.5392 -0.4611  2.4030
  100SAPE  C31710158   0.582   5.369  -1.603 -0.3315 -0.0547 -0.8544
  100SAPE  H17X10159   0.582   5.478  -1.581 -1.2524 -0.5929  2.3415
  100SAPE  H17Y10160   0.479   5.330  -1.585  0.2481 -1.0214  0.5196
  100SAPE  C31810161   0.619   5.342  -1.755  0.6055  0.3041  0.3019
  100SAPE  H18X10162   0.593   5.235  -1.772  2.5076 -0.3769  1.3797
  100SAPE  H18Y10163   0.717   5.380  -1.791 -0.4143  3.2113  0.2840
  100SAPE  H18Z10164   0.547   5.407  -1.809 -1.9410 -1.2253  1.6312
  101SAPE     N10165   6.320   6.737   0.561  0.7131  0.2051 -0.5537
  101SAPE   HN110166   6.234   6.782   0.524  0.2182  1.1664  1.5917
  101SAPE   HN210167   6.382   6.702   0.486  2.0420  0.1343  0.5263
  101SAPE   HN310168   6.300   6.656   0.624  1.7237  0.0757 -0.3903
  101SAPE   C1210169   6.406   6.827   0.638  0.3194  0.4594 -0.5569
  101SAPE  H12A10170   6.511   6.794   0.627 -0.2589 -2.1638  1.0855
  101SAPE  H12B10171   6.386   6.813   0.746 -0.3517 -0.3476 -0.7729
  101SAPE   C1110172   6.391   6.970   0.596  0.2492 -0.0076 -0.0374
  101SAPE  H11A10173   6.463   7.020   0.664  0.3047  0.4571 -0.4362
  101SAPE  H11B10174   6.285   7.002   0.593  0.2722  0.1681  0.8772
  101SAPE     P10175   6.459   7.140   0.413  0.0428 -0.2647 -0.3419
  101SAPE   O1310176   6.328   7.204   0.408  0.4560  0.4896 -0.4839
  101SAPE   O1410177   6.575   7.192   0.491  0.3439 -0.1821 -0.2085
  101SAPE   O1210178   6.442   6.988   0.465  0.4134  0.3249  0.2242
  101SAPE   O1110179   6.508   7.113   0.268 -0.2396 -0.3203 -0.4803
  101SAPE    C110180   6.453   7.009   0.180 -0.2531 -0.0154 -0.2293
  101SAPE    HA10181   6.536   6.946   0.142  1.7483  1.4188  1.4518
  101SAPE    HB10182   6.378   6.936   0.216  3.1760 -4.1446 -0.6310
  101SAPE    C210183   6.394   7.077   0.052  0.1091 -0.3911  0.1871
  101SAPE    HS10184   6.375   7.003  -0.029  1.9061  0.3957 -1.0151
  101SAPE   O2110185   6.480   7.179   0.002  0.6683 -0.0254  0.1781
  101SAPE   C2110186   6.583   7.143  -0.069 -0.4641 -0.1583  0.0059
  101SAPE   O2210187   6.599   7.026  -0.109 -0.0911 -0.0617 -0.3439
  101SAPE   C2210188   6.676   7.264  -0.113  0.1094  1.2783  0.1450
  101SAPE   H2R10189   6.722   7.300  -0.018  2.1041 -0.7898  0.0458
  101SAPE   H2S10190   6.763   7.225  -0.169 -0.8655 -0.0783 -0.4851
  101SAPE    C310191   6.259   7.150   0.085 -0.2796 -0.0978  0.1037
  101SAPE    HX10192   6.270   7.233   0.158 -2.0704 -0.9483  1.4081
  101SAPE    HY10193   6.192   7.084   0.143 -0.2305 -2.7246 -2.5751
  101SAPE   O3110194   6.189   7.200  -0.032 -0.2505  0.3474  0.2161
  101SAPE   C3110195   6.196   7.332  -0.057  0.3319 -0.5579  0.2959
  101SAPE   O3210196   6.248   7.413   0.017 -1.1860 -0.1788 -0.0886
  101SAPE   C3210197   6.119   7.378  -0.175  0.4850 -0.2458 -0.6229
  101SAPE   H2X10198   6.039   7.302  -0.184 -0.2482  0.1968  1.5200
  101SAPE   H2Y10199   6.181   7.358  -0.265  2.2562  1.1549  0.2034
  101SAPE   C2310200   6.602   7.382  -0.178 -1.2410 -0.4286  0.0137
  101SAPE   H3R10201   6.677   7.464  -0.187  0.2435 -1.8827 -1.5955
  101SAPE   H3S10202   6.529   7.407  -0.098 -0.7047 -0.4651  0.5302
  101SAPE   C2410203   6.540   7.351  -0.311  0.0600  0.2549  0.2380
  101SAPE   H4R10204   6.473   7.262  -0.309 -1.5387  1.4159  2.0811
  101SAPE   H4S10205   6.625   7.334  -0.381  2.3277  2.2083  2.3120
  101SAPE   C2510206   6.468   7.477  -0.355  0.0172 -0.5710 -0.6739
  101SAPE   H5R10207   6.468   7.563  -0.286 -3.1996 -1.3093  0.4033
  101SAPE   C2610208   6.389   7.491  -0.462  0.4649 -0.7198 -0.6235
  101SAPE   H6R10209   6.329   7.583  -0.471  0.4008 -0.6869  0.0904
  101SAPE   C2710210   6.357   7.376  -0.549 -0.0545  0.0037  0.1267
  101SAPE   H7R10211   6.276   7.314  -0.505  0.1222 -0.0034  0.4452
  101SAPE   H7S10212   6.447   7.311  -0.542 -0.0262 -0.0653 -0.8000
  101SAPE   C2810213   6.336   7.426  -0.690  0.4958 -0.2042  0.4698
  101SAPE   H8R10214   6.231   7.447  -0.713 -0.5918  0.0006  4.8530
  101SAPE   C2910215   6.420   7.450  -0.791  0.2845 -0.3599 -0.7445
  101SAPE   H9R10216   6.394   7.514  -0.876  0.3476 -0.9769 -1.2273
  101SAPE  C21010217   6.569   7.422  -0.798 -0.1916 -0.2943 -0.6595
  101SAPE  H10R10218   6.587   7.328  -0.741 -0.5617 -0.6100 -1.0596
  101SAPE  H10S10219   6.626   7.504  -0.750  1.5659 -0.9010 -1.6437
  101SAPE  C21110220   6.629   7.391  -0.931 -0.0576  0.0149  0.4829
  101SAPE  H11R10221   6.657   7.285  -0.940  1.0161  0.3039  0.2354
  101SAPE  C21210222   6.665   7.488  -1.022 -0.6648  0.1662  0.2118
  101SAPE  H12R10223   6.715   7.452  -1.113 -0.1134 -0.0710  0.5990
  101SAPE  C21310224   6.659   7.642  -1.004  0.0066  0.8405 -0.3062
  101SAPE  H13R10225   6.764   7.678  -0.994  0.1096  0.0244  2.3758
  101SAPE  H13S10226   6.615   7.650  -0.902 -1.0825 -1.8281 -0.4834
  101SAPE  C21410227   6.575   7.721  -1.103  0.2150 -0.1199 -0.2405
  101SAPE  H14R10228   6.471   7.687  -1.117 -1.2019  2.3800  3.0651
  101SAPE  C21510229   6.614   7.838  -1.164 -0.6082 -0.5464  0.2658
  101SAPE  H15R10230   6.542   7.885  -1.231 -1.4369 -0.7100  1.0225
  101SAPE  C21610231   6.748   7.913  -1.145 -0.3328 -0.1672  0.6443
  101SAPE  H16R10232   6.814   7.874  -1.065  0.1399 -0.5898  0.0512
  101SAPE  H16S10233   6.700   8.013  -1.136 -0.5488  0.1315 -2.8228
  101SAPE  C21710234   6.844   7.917  -1.270 -0.0160  0.0861  0.0920
  101SAPE  H17R10235   6.894   8.015  -1.259  0.8126 -0.1495 -1.2926
  101SAPE  H17S10236   6.784   7.929  -1.363  1.9333  1.0896 -1.1090
  101SAPE  C21810237   6.949   7.806  -1.268 -0.3703  0.3878  0.0678
  101SAPE  H18R10238   6.903   7.712  -1.306 -0.5896  0.3990  0.3046
  101SAPE  H18S10239   6.989   7.784  -1.167  2.1020  2.8642 -0.2440
  101SAPE  C21910240   7.066   7.835  -1.363 -0.3466 -1.0791 -0.0335
  101SAPE  H19R10241   7.113   7.927  -1.321  0.5764 -0.9108 -1.3836
  101SAPE  H19S10242   7.026   7.851  -1.465  2.7221 -1.1181 -1.3392
  101SAPE  C22010243   7.181   7.734  -1.349 -0.2550  0.5541 -0.5599
  101SAPE  H20R10244   7.269   7.732  -1.416 -1.8061 -3.9850 -2.8756
  101SAPE  H20S10245   7.129   7.639  -1.375 -0.3238  0.5417 -0.3779
  101SAPE  H20T10246   7.213   7.726  -1.243 -0.3797  0.3654 -0.5354
  101SAPE   C3310247   6.068   7.522  -0.166 -0.2472  0.2282  0.2325
  101SAPE   H3X10248   6.139   7.602  -0.199 -1.9966  2.0193  0.6020
  101SAPE   H3Y10249   6.041   7.556  -0.064  0.6799  2.8402 -0.3122
  101SAPE   C3410250   5.943   7.529  -0.263 -0.5343 -0.0226 -0.0516
  101SAPE   H4X10251   5.897   7.628  -0.244 -0.2831 -0.2917  2.2398
  101SAPE   H4Y10252   5.868   7.447  -0.256 -2.0596  1.4124  1.5753
  101SAPE   C3510253   5.986   7.538  -0.414  0.1728 -0.3812 -0.3834
  101SAPE   H5X10254   6.038   7.445  -0.444  1.9830  0.9986 -1.7856
  101SAPE   H5Y10255   6.069   7.613  -0.419  0.1781 -0.4071 -0.6840
  101SAPE   C3610256   5.879   7.564  -0.513 -0.1734 -0.3433  0.0894
  101SAPE   H6X10257   5.819   7.648  -0.474 -1.5920  0.2700 -3.0755
  101SAPE   H6Y10258   5.811   7.476  -0.516  2.3422 -2.4380  0.2892
  101SAPE   C3710259   5.922   7.600  -0.650 -0.1759 -0.2765  0.6730
  101SAPE   H7X10260   5.996   7.531  -0.696 -0.6907 -0.3508 -0.0655
  101SAPE   H7Y10261   5.983   7.692  -0.643  2.3886 -1.7434 -0.8837
  101SAPE   C3810262   5.806   7.628  -0.745  0.0803  0.3277  0.4465
  101SAPE   H8X10263   5.733   7.701  -0.703 -1.7712 -0.5998 -0.9582
  101SAPE   H8Y10264   5.752   7.531  -0.752  0.6088  0.1197 -1.1692
  101SAPE   C3910265   5.843   7.662  -0.882 -0.1847  0.3013  0.2897
  101SAPE   H9X10266   5.897   7.579  -0.932 -1.4356 -0.1733 -0.3218
  101SAPE   H9Y10267   5.899   7.758  -0.885 -2.8147  1.9474  0.4408
  101SAPE  C31010268   5.717   7.693  -0.968  0.0115  0.4934 -0.2423
  101SAPE  H10X10269   5.666   7.783  -0.927 -0.3637 -0.3574  1.2481
  101SAPE  H10Y10270   5.651   7.605  -0.954 -0.2415  0.7110 -0.0605
  101SAPE  C31110271   5.758   7.689  -1.119 -0.3266  0.3459 -0.6383
  101SAPE  H11X10272   5.830   7.608  -1.143 -0.7503 -0.0730 -0.4951
  101SAPE  H11Y10273   5.820   7.781  -1.128 -1.3818  1.1770  0.3803
  101SAPE  C31210274   5.642   7.659  -1.198  0.0296 -0.0631  0.8575
  101SAPE  H12X10275   5.555   7.727  -1.201 -1.4849 -1.9053  0.9219
  101SAPE  H12Y10276   5.598   7.561  -1.168  1.2068 -0.9694 -0.2825
  101SAPE  C31310277   5.683   7.637  -1.346  0.1985  0.4011  0.2776
  101SAPE  H13X10278   5.758   7.556  -1.335  0.9061  1.0417  0.2861
  101SAPE  H13Y10279   5.743   7.727  -1.373  2.1452 -0.2249  2.2744
  101SAPE  C31410280   5.572   7.598  -1.444 -0.6064 -0.3686 -0.6978
  101SAPE  H14X10281   5.487   7.665  -1.419 -0.6224  0.0673 -1.8373
  101SAPE  H14Y10282   5.546   7.491  -1.431  0.4336 -0.6974 -1.1904
  101SAPE  C31510283   5.620   7.634  -1.585  0.1072 -0.1096  0.5919
  101SAPE  H15X10284   5.712   7.579  -1.614 -0.7450 -0.2869 -2.0053
  101SAPE  H15Y10285   5.647   7.742  -1.582 -0.4645  0.1070 -1.1225
  101SAPE  C31610286   5.507   7.594  -1.688  0.2659 -0.3034 -0.5742
  101SAPE  H16X10287   5.406   7.635  -1.667  1.0522  1.0160  0.8096
  101SAPE  H16Y10288   5.498   7.483  -1.691  0.2130 -0.2908 -2.4459
  101SAPE  C31710289   5.551   7.640  -1.826 -0.2682  0.3022  0.1705
  101SAPE  H17X10290   5.493   7.601  -1.913 -0.9871  2.9266 -0.6115
  101SAPE  H17Y10291   5.660   7.622  -1.834 -0.3563  0.4543 -1.9398
  101SAPE  C31810292   5.531   7.789  -1.854 -0.2927  0.6489  0.6501
  101SAPE  H18X10293   5.422   7.811  -1.845 -1.0597 -2.1002 -0.8866
  101SAPE  H18Y10294   5.571   7.822  -1.952  2.6275  0.1825  1.5811
  101SAPE  H18Z10295   5.591   7.844  -1.779 -0.5326  2.6991 -0.5798
  102SAPE     N10296   1.969   0.159   0.066 -0.5779 -0.7471  0.1845
  102SAPE   HN110297   1.884   0.103   0.089 -0.3217 -0.5736  1.6283
  102SAPE   HN210298   2.021   0.161   0.156 -1.6484 -0.6281  0.8145
  102SAPE   HN310299   1.936   0.253   0.035 -1.4857 -1.0612  0.1602
  102SAPE   C1210300   2.045   0.084  -0.040  0.1707 -0.0601 -0.0541
  102SAPE  H12A10301   2.042   0.143  -0.134  0.4760 -0.4676 -0.3256
  102SAPE  H12B10302   1.988  -0.011  -0.044 -1.4472  0.6995  2.3839
  102SAPE   C1110303   2.192   0.053  -0.004 -0.5549  0.1088 -0.0411
  102SAPE  H11A10304   2.239   0.139   0.048 -0.3550 -0.1057  0.1381
  102SAPE  H11B10305   2.250   0.045  -0.098  0.1043  0.0192  0.3638
  102SAPE     P10306   2.315  -0.148   0.109 -0.0015  0.2751 -0.4791
  102SAPE   O1310307   2.408  -0.064   0.176 -0.0788  0.3860  0.0123
  102SAPE   O1410308   2.276  -0.274   0.180 -0.0267  0.1740  0.4479
  102SAPE   O1210309   2.186  -0.066   0.080  0.2922 -0.6158  0.8362
  102SAPE   O1110310   2.374  -0.183  -0.028 -0.0366  0.0437  0.4061
  102SAPE    C110311   2.329  -0.303  -0.095 -0.8827  0.0458 -0.1689
  102SAPE    HA10312   2.238  -0.347  -0.049 -0.7714 -0.5477 -0.5137
  102SAPE    HB10313   2.297  -0.272  -0.197 -0.9872  1.4417  0.2629
  102SAPE    C210314   2.437  -0.409  -0.103 -0.6431  0.7638 -0.1158
  102SAPE    HS10315   2.478  -0.422  -0.001  0.0861  0.8488 -0.3909
  102SAPE   O2110316   2.545  -0.371  -0.189  0.7728  0.4612  0.2652
  102SAPE   C2110317   2.632  -0.300  -0.140 -0.6189  0.1258  0.1153
  102SAPE   O2210318   2.662  -0.285  -0.022  0.5887 -0.0686  0.6033
  102SAPE   C2210319   2.726  -0.251  -0.253  0.4751  0.3145  0.7345
  102SAPE   H2R10320   2.772  -0.335  -0.308  0.2322  1.3874 -1.1917
  102SAPE   H2S10321   2.662  -0.196  -0.326 -0.8489 -0.7582  1.0514
  102SAPE    C310322   2.377  -0.545  -0.140  0.3959 -0.4408 -0.1461
  102SAPE    HX10323   2.307  -0.569  -0.057  1.5034  1.9159  1.5738
  102SAPE    HY10324   2.458  -0.621  -0.138 -0.5533 -1.4889  0.8296
  102SAPE   O3110325   2.318  -0.535  -0.272 -0.1482  0.4202 -0.2223
  102SAPE   C3110326   2.180  -0.541  -0.280  0.5673  0.2191  0.5937
  102SAPE   O3210327   2.100  -0.541  -0.187 -0.1534 -0.1481  0.0102
  102SAPE   C3210328   2.140  -0.546  -0.429 -0.5659 -0.1467 -0.2228
  102SAPE   H2X10329   2.133  -0.442  -0.466  0.5272  0.2895  0.7338
  102SAPE   H2Y10330   2.041  -0.596  -0.436 -1.9329  2.1193  1.4832
  102SAPE   C2310331   2.831  -0.140  -0.210 -0.0843  0.1513 -0.7303
  102SAPE   H3R10332   2.913  -0.194  -0.157  0.8316  1.9683 -0.2263
  102SAPE   H3S10333   2.787  -0.062  -0.145  1.7653  0.7945 -0.1835
  102SAPE   C2410334   2.907  -0.067  -0.324  0.3737  0.3824 -0.4262
  102SAPE   H4R10335   2.949  -0.158  -0.371  0.1215  0.0037  0.0638
  102SAPE   H4S10336   2.989  -0.007  -0.281 -0.7459  1.6506  0.0161
  102SAPE   C2510337   2.828   0.016  -0.417  0.0064  0.2569  0.3162
  102SAPE   H5R10338   2.802   0.118  -0.385  1.5663  0.9829 -0.6158
  102SAPE   C2610339   2.789  -0.025  -0.546 -0.0694  0.0519 -0.6317
  102SAPE   H6R10340   2.735   0.052  -0.603 -0.0240  1.5975  1.2957
  102SAPE   C2710341   2.796  -0.163  -0.610  0.7650 -0.2599  0.0735
  102SAPE   H7R10342   2.700  -0.200  -0.653 -0.2190  0.3373  1.6744
  102SAPE   H7S10343   2.815  -0.239  -0.531 -0.5235 -1.7092 -0.9436
  102SAPE   C2810344   2.911  -0.150  -0.704  0.2073  0.3668 -0.3205
  102SAPE   H8R10345   2.996  -0.102  -0.653 -1.4466  3.0897  0.0757
  102SAPE   C2910346   2.922  -0.185  -0.833 -0.1541  0.2957  0.0380
  102SAPE   H9R10347   3.025  -0.184  -0.871  0.3904  0.1950  1.4438
  102SAPE  C21010348   2.824  -0.254  -0.922  0.3101 -0.5478 -0.0779
  102SAPE  H10R10349   2.729  -0.199  -0.907  1.6905  2.0082 -0.1714
  102SAPE  H10S10350   2.816  -0.359  -0.887 -0.3659 -0.4059  0.2022
  102SAPE  C21110351   2.872  -0.245  -1.067 -0.4904  1.4200  0.0255
  102SAPE  H11R10352   2.916  -0.339  -1.105 -2.9611 -0.9884  2.6259
  102SAPE  C21210353   2.842  -0.147  -1.155 -0.4505 -0.0440 -0.4709
  102SAPE  H12R10354   2.872  -0.165  -1.259 -1.0402 -1.8969 -0.3507
  102SAPE  C21310355   2.786  -0.013  -1.113 -0.0615 -0.6523 -0.4060
  102SAPE  H13R10356   2.840   0.071  -1.163 -1.0676  0.2085 -0.0643
  102SAPE  H13S10357   2.793   0.003  -1.003  1.0068 -0.3410 -0.5037
  102SAPE  C21410358   2.643  -0.011  -1.151  0.0897  0.6057 -0.2831
  102SAPE  H14R10359   2.573  -0.051  -1.076  0.5385 -1.6165 -0.9693
  102SAPE  C21510360   2.592   0.006  -1.277 -0.2002  0.6988 -0.2946
  102SAPE  H15R10361   2.483   0.020  -1.280 -0.2296  0.4446 -0.5370
  102SAPE  C21610362   2.675   0.053  -1.395  0.0025 -0.0528  0.0168
  102SAPE  H16R10363   2.768   0.099  -1.356 -0.0501 -0.4364  0.6129
  102SAPE  H16S10364   2.613   0.130  -1.445 -0.7706  0.3703  1.5451
  102SAPE  C21710365   2.696  -0.055  -1.499  0.2173  0.4869  0.5771
  102SAPE  H17R10366   2.711  -0.160  -1.467 -1.7355 -0.5478 -1.5585
  102SAPE  H17S10367   2.786  -0.023  -1.555 -1.0044  0.2068 -1.6872
  102SAPE  C21810368   2.590  -0.054  -1.616  0.3008 -0.1833 -0.4180
  102SAPE  H18R10369   2.490  -0.067  -1.568  1.3132  0.5422  2.0738
  102SAPE  H18S10370   2.601  -0.145  -1.678 -2.3745 -1.1786  0.4110
  102SAPE  C21910371   2.591   0.077  -1.701  0.2815 -0.5244  0.3781
  102SAPE  H19R10372   2.694   0.092  -1.741 -0.4955  1.1431 -1.1687
  102SAPE  H19S10373   2.549   0.167  -1.652 -0.8860  0.1897 -1.7789
  102SAPE  C22010374   2.485   0.050  -1.812  0.4633  0.4177  0.6514
  102SAPE  H20R10375   2.488   0.129  -1.889  0.5606 -1.6027 -1.5354
  102SAPE  H20S10376   2.383   0.051  -1.768 -0.5353  0.5887 -1.5618
  102SAPE  H20T10377   2.495  -0.046  -1.867  2.5145  0.3151  1.1063
  102SAPE   C3310378   2.246  -0.610  -0.531  0.3358 -0.3190 -0.4098
  102SAPE   H3X10379   2.290  -0.699  -0.481  1.2069  0.9733  1.2173
  102SAPE   H3Y10380   2.330  -0.537  -0.542  2.0054 -2.2912 -1.4483
  102SAPE   C3410381   2.173  -0.648  -0.653 -0.2204 -0.9980  0.3425
  102SAPE   H4X10382   2.147  -0.547  -0.692  1.8598  0.5629  2.6839
  102SAPE   H4Y10383   2.076  -0.693  -0.624 -1.3771  1.0247 -0.2443
  102SAPE   C3510384   2.266  -0.733  -0.752 -0.0089  0.2188 -0.0215
  102SAPE   H5X10385   2.260  -0.836  -0.710 -1.4226 -0.0520 -0.7995
  102SAPE   H5Y10386   2.373  -0.703  -0.748  0.3324 -0.1070 -3.4567
  102SAPE   C3610387   2.220  -0.718  -0.892 -0.7225 -0.4801  0.8163
  102SAPE   H6X10388   2.206  -0.612  -0.920  1.4993 -0.1135  0.8741
  102SAPE   H6Y10389   2.120  -0.765  -0.898 -0.7039 -0.3483 -1.0582
  102SAPE   C3710390   2.324  -0.769  -1.000  0.2213 -1.1671 -0.1513
  102SAPE   H7X10391   2.359  -0.873  -0.980  1.2050 -0.7239  0.4895
  102SAPE   H7Y10392   2.409  -0.699  -1.011  0.3498 -1.2595  0.2597
  102SAPE   C3810393   2.259  -0.768  -1.136 -0.2552  0.0297 -0.1119
  102SAPE   H8X10394   2.239  -0.661  -1.157  1.6455  0.3281 -0.6264
  102SAPE   H8Y10395   2.164  -0.823  -1.149 -1.3735  2.1867 -1.8599
  102SAPE   C3910396   2.346  -0.814  -1.248 -0.3402  0.4591 -0.2894
  102SAPE   H9X10397   2.372  -0.919  -1.227 -1.0789  0.4390  0.5882
  102SAPE   H9Y10398   2.440  -0.754  -1.254  0.7514 -1.1936 -0.1710
  102SAPE  C31010399   2.280  -0.821  -1.386 -0.5367 -0.0269  0.0359
  102SAPE  H10X10400   2.232  -0.723  -1.409  0.7059  0.6956  0.4592
  102SAPE  H10Y10401   2.199  -0.897  -1.385 -0.7626  0.2094 -0.2421
  102SAPE  C31110402   2.379  -0.833  -1.507 -0.3589 -0.3284  0.6223
  102SAPE  H11X10403   2.431  -0.931  -1.494 -0.5548 -0.3466  1.3127
  102SAPE  H11Y10404   2.451  -0.751  -1.488 -0.3434 -0.0739 -0.4670
  102SAPE  C31210405   2.326  -0.826  -1.650 -0.7353 -0.0294 -0.4692
  102SAPE  H12X10406   2.402  -0.771  -1.709 -1.3470  0.0924 -1.1687
  102SAPE  H12Y10407   2.229  -0.772  -1.659 -2.1504 -2.1999  0.9109
  102SAPE  C31310408   2.313  -0.966  -1.711  0.3205 -0.3948 -0.1801
  102SAPE  H13X10409   2.255  -1.028  -1.639  0.9578 -0.7135  0.0602
  102SAPE  H13Y10410   2.412  -1.015  -1.720  0.0604 -1.0144  0.2762
  102SAPE  C31410411   2.240  -0.956  -1.842 -0.4967 -0.3120  0.2582
  102SAPE  H14X10412   2.282  -0.871  -1.900  0.5955 -1.6246 -0.9614
  102SAPE  H14Y10413   2.135  -0.925  -1.826 -0.6987 -1.4360  1.2841
  102SAPE  C31510414   2.245  -1.088  -1.925 -0.7650  0.4482  0.1242
  102SAPE  H15X10415   2.180  -1.067  -2.012 -0.5636  0.1825 -0.0905
  102SAPE  H15Y10416   2.189  -1.162  -1.863  1.0194 -0.0572  1.1997
  102SAPE  C31610417   2.380  -1.140  -1.966 -0.5771  0.2967  0.1142
  102SAPE  H16X10418   2.457  -1.152  -1.887  1.0311  3.7782 -0.7162
  102SAPE  H16Y10419   2.442  -1.066  -2.020 -0.2670  0.6881  0.9909
  102SAPE  C31710420   2.381  -1.271  -2.047 -0.3444 -0.2363  0.4146
  102SAPE  H17X10421   2.321  -1.254  -2.139  0.1212  1.2099  0.3552
  102SAPE  H17Y10422   2.343  -1.351  -1.980 -0.1681  1.0452  2.1246
  102SAPE  C31810423   2.512  -1.328  -2.099 -0.0420 -0.2853  0.5167
  102SAPE  H18X10424   2.573  -1.254  -2.156  1.6567 -0.8965  1.4551
  102SAPE  H18Y10425   2.487  -1.403  -2.177  2.3728 -0.9540  0.2923
  102SAPE  H18Z10426   2.572  -1.360  -2.011 -1.9353  0.5674  2.1869
  103SAPE     N10427   6.231   5.394   5.190  0.1854  0.7621 -0.0695
  103SAPE   HN110428   6.189   5.312   5.239  0.6105 -1.2894 -2.8599
  103SAPE   HN210429   6.313   5.368   5.132  0.1095  1.1521 -0.3574
  103SAPE   HN310430   6.265   5.450   5.271  0.4374  0.7703 -0.1809
  103SAPE   C1210431   6.116   5.458   5.125  0.1421 -0.4554  0.4224
  103SAPE  H12A10432   6.078   5.389   5.046  0.1175 -0.6658  0.6148
  103SAPE  H12B10433   6.153   5.547   5.069 -2.4478 -0.5853 -1.7234
  103SAPE   C1110434   6.001   5.505   5.214  0.0942 -0.2717  0.0895
  103SAPE  H11A10435   5.956   5.420   5.270 -0.1194  2.0761  3.8312
  103SAPE  H11B10436   5.932   5.545   5.136  0.6233 -0.7723 -0.6560
  103SAPE     P10437   6.084   5.742   5.298  0.2203  0.2439  0.0434
  103SAPE   O1310438   6.208   5.742   5.219  0.4300  0.2444  0.2693
  103SAPE   O1410439   5.965   5.807   5.238 -0.3026 -0.0069 -0.2373
  103SAPE   O1210440   6.037   5.594   5.316  0.1569  0.0172  0.0248
  103SAPE   O1110441   6.100   5.795   5.445 -0.2771  0.2031 -0.8286
  103SAPE    C110442   6.047   5.728   5.561  0.1616  0.4514 -0.1631
  103SAPE    HA10443   6.033   5.803   5.642 -0.4097 -2.1894  2.3247
  103SAPE    HB10444   5.945   5.689   5.542  1.0876 -1.9192 -0.5984
  103SAPE    C210445   6.132   5.610   5.620  0.2487  0.9353  0.2094
  103SAPE    HS10446   6.109   5.524   5.553  0.3476  0.9028  0.2171
  103SAPE   O2110447   6.094   5.582   5.759  0.2581 -0.9153 -0.2009
  103SAPE   C2110448   6.094   5.460   5.797 -0.5274 -0.2926  0.4870
  103SAPE   O2210449   6.122   5.363   5.734 -0.3639 -0.4889  0.5872
  103SAPE   C2210450   6.063   5.455   5.942  0.6209 -0.8923  0.1874
  103SAPE   H2R10451   6.140   5.512   5.999  0.3938 -0.4420  0.0430
  103SAPE   H2S10452   5.961   5.493   5.962 -0.1640 -2.0117 -1.5301
  103SAPE    C310453   6.280   5.645   5.613  0.0949 -0.1350 -0.2565
  103SAPE    HX10454   6.298   5.722   5.692 -1.2864  0.3992 -0.4284
  103SAPE    HY10455   6.304   5.698   5.518  1.1527  0.8661  0.5298
  103SAPE   O3110456   6.368   5.538   5.644  0.4241 -0.2702 -0.2147
  103SAPE   C3110457   6.381   5.458   5.538  0.3243 -0.0293  0.3373
  103SAPE   O3210458   6.316   5.473   5.433 -0.3838  0.3130 -0.1800
  103SAPE   C3210459   6.482   5.347   5.554 -0.5773 -0.0375  0.6176
  103SAPE   H2X10460   6.587   5.384   5.558  0.0440 -1.7114  0.8212
  103SAPE   H2Y10461   6.469   5.287   5.462 -0.3669 -1.8140  1.6932
  103SAPE   C2310462   6.070   5.309   5.999  0.1324  0.5644 -0.4258
  103SAPE   H3R10463   6.167   5.273   5.960  0.2676 -0.3486  0.7086
  103SAPE   H3S10464   5.990   5.241   5.963  2.2805 -1.3005 -1.9478
  103SAPE   C2410465   6.074   5.298   6.144 -0.0600 -0.3572  0.0475
  103SAPE   H4R10466   6.157   5.358   6.190 -0.3300  0.6985 -0.7894
  103SAPE   H4S10467   6.091   5.193   6.176  0.1177 -0.4625 -0.3909
  103SAPE   C2510468   5.944   5.325   6.213 -0.4473 -0.1934 -0.9459
  103SAPE   H5R10469   5.863   5.261   6.174  1.1663 -2.4241 -0.8190
  103SAPE   C2610470   5.927   5.392   6.324 -0.3541 -0.8191  0.4930
  103SAPE   H6R10471   5.824   5.404   6.361 -0.1492 -0.8712  1.0963
  103SAPE   C2710472   6.040   5.471   6.393 -0.0177  0.3685  0.4515
  103SAPE   H7R10473   6.102   5.533   6.325 -0.9061  0.7471 -0.0233
  103SAPE   H7S10474   6.112   5.394   6.428 -1.7156 -2.0636 -1.0554
  103SAPE   C2810475   5.985   5.543   6.506 -1.0232 -0.4726 -0.3913
  103SAPE   H8R10476   5.987   5.651   6.482  0.6351 -0.9905 -2.8834
  103SAPE   C2910477   5.949   5.492   6.631  0.6315 -0.1798  0.8175
  103SAPE   H9R10478   5.902   5.547   6.714 -1.0303 -1.4682  0.7718
  103SAPE  C21010479   5.952   5.341   6.659  0.6539 -0.7734 -0.2596
  103SAPE  H10R10480   6.017   5.325   6.748 -1.0172 -0.1789  1.1157
  103SAPE  H10S10481   6.005   5.294   6.573  0.4037 -0.0728 -0.8054
  103SAPE  C21110482   5.811   5.296   6.694 -0.5761 -0.4311 -0.2003
  103SAPE  H11R10483   5.748   5.307   6.605 -0.7144 -0.6739 -0.1337
  103SAPE  C21210484   5.758   5.249   6.814  0.1267  1.0631 -0.3796
  103SAPE  H12R10485   5.652   5.222   6.812 -0.2921  2.5036  0.5874
  103SAPE  C21310486   5.829   5.233   6.948 -0.2076 -0.6225 -0.4495
  103SAPE  H13R10487   5.904   5.315   6.951 -1.4189  0.5140 -0.2351
  103SAPE  H13S10488   5.875   5.132   6.939 -1.8925 -1.3256 -1.9457
  103SAPE  C21410489   5.741   5.237   7.076 -0.7985 -0.5227 -0.2913
  103SAPE  H14R10490   5.717   5.338   7.112 -0.5073 -1.2964  2.2477
  103SAPE  C21510491   5.684   5.136   7.138 -0.2303  0.5783 -0.5957
  103SAPE  H15R10492   5.604   5.159   7.209 -1.4760 -5.3390  0.4147
  103SAPE  C21610493   5.674   4.992   7.096  0.2447 -0.9563 -0.2324
  103SAPE  H16R10494   5.682   4.986   6.985  2.3088 -1.2552 -0.1041
  103SAPE  H16S10495   5.571   4.955   7.119 -0.3825  2.7636  4.4666
  103SAPE  C21710496   5.777   4.903   7.155 -0.0587  0.2450  0.7295
  103SAPE  H17R10497   5.782   4.906   7.266  4.6338  1.5105  0.7212
  103SAPE  H17S10498   5.878   4.947   7.139 -0.1185  1.0017  2.2055
  103SAPE  C21810499   5.768   4.753   7.107 -0.4192 -0.7089 -0.4048
  103SAPE  H18R10500   5.807   4.748   7.003  0.8742  0.2039  0.0080
  103SAPE  H18S10501   5.667   4.706   7.100 -0.2207 -1.5314  1.5384
  103SAPE  C21910502   5.847   4.655   7.196 -0.2492  0.4850  0.1547
  103SAPE  H19R10503   5.801   4.666   7.296  3.2622 -0.1542  2.0035
  103SAPE  H19S10504   5.954   4.685   7.200  0.6321 -1.6813 -2.9789
  103SAPE  C22010505   5.834   4.509   7.150 -0.1291 -0.0781 -0.0628
  103SAPE  H20R10506   5.901   4.432   7.194 -1.0995 -1.1583 -0.4276
  103SAPE  H20S10507   5.837   4.503   7.039  1.7090  1.7683 -0.1659
  103SAPE  H20T10508   5.729   4.480   7.173  0.4493 -1.1273  1.4562
  103SAPE   C3310509   6.463   5.255   5.678 -0.0707 -0.1943 -0.3037
  103SAPE   H3X10510   6.514   5.156   5.672  0.1931 -0.1855  1.3586
  103SAPE   H3Y10511   6.353   5.242   5.689  0.1352 -1.0169  1.0582
  103SAPE   C3410512   6.522   5.317   5.799  0.5277  0.5435  1.0025
  103SAPE   H4X10513   6.488   5.422   5.807  0.8764  0.7444 -0.0882
  103SAPE   H4Y10514   6.632   5.320   5.782  0.4708  0.4059  0.6039
  103SAPE   C3510515   6.499   5.237   5.928  0.2474 -0.2258 -0.0977
  103SAPE   H5X10516   6.541   5.134   5.919  1.9739  0.5044 -1.0023
  103SAPE   H5Y10517   6.389   5.230   5.941  0.3312  0.0337  0.7944
  103SAPE   C3610518   6.542   5.308   6.060 -0.2883 -0.1846  0.2985
  103SAPE   H6X10519   6.651   5.294   6.079 -0.1824 -0.4103 -0.4606
  103SAPE   H6Y10520   6.483   5.260   6.141 -2.1016 -3.0046 -2.4755
  103SAPE   C3710521   6.517   5.462   6.064 -0.0028 -0.0673  0.4778
  103SAPE   H7X10522   6.411   5.473   6.032 -0.1062  0.2013  0.9161
  103SAPE   H7Y10523   6.581   5.509   5.986  0.7306 -0.4363  0.8530
  103SAPE   C3810524   6.546   5.528   6.199 -0.6387  0.0694 -0.1338
  103SAPE   H8X10525   6.504   5.630   6.212 -0.8174 -0.1316  1.0091
  103SAPE   H8Y10526   6.657   5.534   6.203 -0.6662  1.0777 -0.7114
  103SAPE   C3910527   6.489   5.453   6.317  0.0893  0.0033  0.2116
  103SAPE   H9X10528   6.548   5.359   6.328 -0.0389 -0.2523 -1.1157
  103SAPE   H9Y10529   6.386   5.427   6.286  1.1184 -2.1961 -1.7326
  103SAPE  C31010530   6.490   5.528   6.448 -0.1577 -0.3880  0.0984
  103SAPE  H10X10531   6.466   5.634   6.425 -0.2793 -0.5990 -0.7883
  103SAPE  H10Y10532   6.596   5.526   6.481 -0.1639  1.2309  0.2693
  103SAPE  C31110533   6.390   5.468   6.553 -0.4596 -0.2141 -0.2598
  103SAPE  H11X10534   6.376   5.358   6.546  2.3384 -0.6398 -0.2496
  103SAPE  H11Y10535   6.292   5.517   6.535  0.0012  1.7925  2.2847
  103SAPE  C31210536   6.441   5.494   6.699 -0.6631  0.0444  0.7282
  103SAPE  H12X10537   6.448   5.604   6.712 -0.0844  0.1178 -0.1350
  103SAPE  H12Y10538   6.539   5.441   6.686 -1.3909 -1.3226  0.5894
  103SAPE  C31310539   6.355   5.416   6.795 -0.6614  0.0118 -0.1307
  103SAPE  H13X10540   6.420   5.379   6.878  1.3385 -0.7062 -1.9078
  103SAPE  H13Y10541   6.314   5.322   6.753  0.1235 -0.4506  0.1165
  103SAPE  C31410542   6.245   5.505   6.842 -0.5076  0.4672 -0.1035
  103SAPE  H14X10543   6.167   5.441   6.888  0.0123  0.3712  0.6609
  103SAPE  H14Y10544   6.207   5.562   6.754  1.9444 -0.1823 -1.6751
  103SAPE  C31510545   6.295   5.595   6.959 -0.2200  0.5666  0.4067
  103SAPE  H15X10546   6.295   5.698   6.919 -0.5012  2.3590  4.5815
  103SAPE  H15Y10547   6.399   5.568   6.987 -0.1180 -1.4379 -1.5528
  103SAPE  C31610548   6.209   5.589   7.085  0.4738  0.0215  0.6124
  103SAPE  H16X10549   6.219   5.492   7.138 -0.2212 -0.2842  0.1986
  103SAPE  H16Y10550   6.104   5.592   7.047  0.4999 -1.8291  0.2851
  103SAPE  C31710551   6.241   5.696   7.183  0.1701 -0.3123  0.2036
  103SAPE  H17X10552   6.172   5.682   7.269  0.4639 -0.2463  0.4490
  103SAPE  H17Y10553   6.222   5.795   7.136 -0.4330 -0.0525  0.9706
  103SAPE  C31810554   6.388   5.702   7.231  0.3555  0.3045 -0.2992
  103SAPE  H18X10555   6.423   5.598   7.244 -2.8186 -0.8476 -0.1335
  103SAPE  H18Y10556   6.392   5.748   7.332 -1.0098 -0.0575 -0.0588
  103SAPE  H18Z10557   6.441   5.760   7.153 -0.0095 -2.7012 -2.9822
  104SAPE     N10558   5.394   5.306   4.899  0.0971  0.0555 -0.1241
  104SAPE   HN110559   5.318   5.252   4.853  0.4123 -1.3811  0.9771
  104SAPE   HN210560   5.361   5.395   4.943 -0.5668  0.1471 -0.7923
  104SAPE   HN310561   5.450   5.337   4.817  0.3828  3.5331  1.2080
  104SAPE   C1210562   5.480   5.221   4.996 -0.2223 -0.1733  1.1132
  104SAPE  H12A10563   5.522   5.139   4.934  0.7402  0.8793  0.3261
  104SAPE  H12B10564   5.407   5.176   5.066 -0.9528 -1.2329 -0.2825
  104SAPE   C1110565   5.598   5.299   5.059 -0.1823  0.0229 -0.9897
  104SAPE  H11A10566   5.640   5.230   5.134 -2.2157 -0.5729 -0.3429
  104SAPE  H11B10567   5.549   5.379   5.119  0.3815 -0.8378  0.6684
  104SAPE     P10568   5.804   5.254   4.898  0.3039 -0.5086  0.1605
  104SAPE   O1310569   5.745   5.152   4.816 -0.2795 -0.0899  0.1952
  104SAPE   O1410570   5.904   5.349   4.840  0.5473 -0.0802 -0.2357
  104SAPE   O1210571   5.686   5.346   4.957 -0.0195  0.0225  0.0246
  104SAPE   O1110572   5.876   5.193   5.026  0.4244  0.0525  0.0115
  104SAPE    C110573   5.844   5.059   5.065  0.1690  0.4450 -0.1106
  104SAPE    HA10574   5.738   5.042   5.095  0.1691  1.1164  0.2672
  104SAPE    HB10575   5.861   4.986   4.983  2.4735 -1.1773  1.6672
  104SAPE    C210576   5.945   5.026   5.187 -0.0484  0.4114  0.1433
  104SAPE    HS10577   5.926   4.922   5.223 -0.6335  0.1799 -0.7926
  104SAPE   O2110578   5.936   5.107   5.305  0.5226 -0.5136 -0.0580
  104SAPE   C2110579   5.813   5.117   5.362  0.5819 -0.0000 -0.6035
  104SAPE   O2210580   5.719   5.048   5.339  0.6802 -0.7958 -0.0127
  104SAPE   C2210581   5.837   5.212   5.485  0.1973 -0.0327 -0.9315
  104SAPE   H2R10582   5.905   5.167   5.561 -0.0311  3.9198  1.9358
  104SAPE   H2S10583   5.892   5.299   5.443  2.8282 -1.7009 -1.1396
  104SAPE    C310584   6.093   5.025   5.132  0.2226  0.0268  0.6708
  104SAPE    HX10585   6.135   5.124   5.103 -0.3851  0.4574  1.2268
  104SAPE    HY10586   6.092   4.966   5.039  1.5361  3.0661 -1.4407
  104SAPE   O3110587   6.186   4.956   5.223 -0.2649 -0.5675  0.2866
  104SAPE   C3110588   6.247   5.039   5.303  0.2252 -0.3352 -0.0893
  104SAPE   O3210589   6.221   5.157   5.317  0.1737  0.6058  0.0367
  104SAPE   C3210590   6.359   4.959   5.365  0.1085 -0.5364  0.1544
  104SAPE   H2X10591   6.454   5.010   5.338 -1.1672  1.6133 -0.5259
  104SAPE   H2Y10592   6.371   4.862   5.312 -0.5775 -0.0164 -0.9719
  104SAPE   C2310593   5.698   5.251   5.552  0.2150 -0.4808  0.1845
  104SAPE   H3R10594   5.653   5.160   5.598  0.0867 -0.1840  0.6446
  104SAPE   H3S10595   5.619   5.298   5.489 -0.5646 -0.8112  0.8912
  104SAPE   C2410596   5.714   5.339   5.679  0.3085  0.0031 -0.1647
  104SAPE   H4R10597   5.785   5.281   5.742 -0.2115 -1.4639 -0.8780
  104SAPE   H4S10598   5.617   5.346   5.732 -0.2744  0.6623 -1.2901
  104SAPE   C2510599   5.759   5.477   5.640  0.0796 -0.0852  0.4422
  104SAPE   H5R10600   5.831   5.482   5.557  1.6166  0.4818  1.7462
  104SAPE   C2610601   5.706   5.591   5.692 -0.4059  0.2135  0.8694
  104SAPE   H6R10602   5.734   5.685   5.641 -0.1806 -0.8762 -1.0793
  104SAPE   C2710603   5.620   5.600   5.822  0.7566  0.7963  0.1599
  104SAPE   H7R10604   5.521   5.555   5.798  0.5548  0.7462  1.0639
  104SAPE   H7S10605   5.589   5.707   5.830 -0.4361  0.4801 -0.0774
  104SAPE   C2810606   5.676   5.544   5.949 -0.4281  0.3576 -0.5037
  104SAPE   H8R10607   5.657   5.436   5.951 -0.5814  0.3895 -0.2321
  104SAPE   C2910608   5.740   5.608   6.048  0.0494  0.7262 -0.2218
  104SAPE   H9R10609   5.776   5.544   6.130  2.6427  2.9079  0.4993
  104SAPE  C21010610   5.762   5.752   6.064 -0.4426 -0.4735 -0.5588
  104SAPE  H10R10611   5.665   5.799   6.092  0.6930  0.7542  1.6311
  104SAPE  H10S10612   5.781   5.802   5.967 -1.1978 -0.2685 -0.6029
  104SAPE  C21110613   5.874   5.784   6.163  0.0845 -0.2239 -0.3223
  104SAPE  H11R10614   5.967   5.821   6.118 -0.5831  2.9857  0.6931
  104SAPE  C21210615   5.857   5.832   6.289  0.2514  0.0952  0.6932
  104SAPE  H12R10616   5.951   5.862   6.338  1.5348  0.1567 -1.6441
  104SAPE  C21310617   5.726   5.841   6.361 -0.1560  0.1116 -0.3050
  104SAPE  H13R10618   5.636   5.838   6.296  1.4227  0.2951 -2.6425
  104SAPE  H13S10619   5.735   5.935   6.420  0.9460  0.5798 -1.1716
  104SAPE  C21410620   5.702   5.728   6.458 -0.1950  0.5781 -0.2917
  104SAPE  H14R10621   5.720   5.629   6.414 -3.0388  0.0291 -0.4552
  104SAPE  C21510622   5.673   5.730   6.589 -0.6262  0.3406 -0.4093
  104SAPE  H15R10623   5.644   5.633   6.634  0.1771  0.8294  1.2778
  104SAPE  C21610624   5.649   5.853   6.677  0.0262 -0.1197 -0.1721
  104SAPE  H16R10625   5.551   5.839   6.726  0.2517 -0.8310  0.0863
  104SAPE  H16S10626   5.659   5.940   6.608 -0.6224  0.9073  1.0074
  104SAPE  C21710627   5.751   5.880   6.789 -0.2395  0.0821  0.3369
  104SAPE  H17R10628   5.758   5.806   6.872  0.5174  0.8963  1.0177
  104SAPE  H17S10629   5.722   5.971   6.846  4.3478  1.1604  1.3914
  104SAPE  C21810630   5.903   5.892   6.748  0.1911  0.1292 -0.5320
  104SAPE  H18R10631   5.898   5.978   6.677  2.0630  1.1498  0.5101
  104SAPE  H18S10632   5.933   5.802   6.691  0.9627  0.7527 -1.1293
  104SAPE  C21910633   5.994   5.925   6.867  0.6356 -0.3427 -0.2042
  104SAPE  H19R10634   6.099   5.943   6.834  0.5845  0.6447  0.1360
  104SAPE  H19S10635   5.995   5.846   6.945 -0.5804  1.3578  1.6371
  104SAPE  C22010636   5.963   6.062   6.935 -0.0922 -0.5485  0.0272
  104SAPE  H20R10637   5.863   6.066   6.982 -0.0392  1.4208  0.0406
  104SAPE  H20S10638   5.963   6.150   6.867 -1.0510 -1.3086 -0.9904
  104SAPE  H20T10639   6.047   6.076   7.006  0.1176  3.0286 -0.7565
  104SAPE   C3310640   6.345   4.933   5.521 -0.2090 -0.0138  0.5835
  104SAPE   H3X10641   6.246   4.889   5.544  0.5487 -1.4332  1.2967
  104SAPE   H3Y10642   6.346   5.030   5.574 -1.1112  1.2909 -1.6476
  104SAPE   C3410643   6.444   4.826   5.573  0.2230 -0.4663 -0.0219
  104SAPE   H4X10644   6.545   4.872   5.582 -0.3175  1.3684 -2.4762
  104SAPE   H4Y10645   6.443   4.745   5.497 -1.3741 -0.5338  0.0452
  104SAPE   C3510646   6.401   4.769   5.709  0.0461  0.1447 -0.5863
  104SAPE   H5X10647   6.488   4.717   5.754 -0.1649  0.4467  0.1884
  104SAPE   H5Y10648   6.325   4.689   5.700 -1.6073  0.8743  3.9912
  104SAPE   C3610649   6.350   4.873   5.811  0.1772 -0.2400  0.6838
  104SAPE   H6X10650   6.255   4.911   5.770  1.2207 -0.8090 -2.5470
  104SAPE   H6Y10651   6.420   4.959   5.817  0.3499 -0.0861 -2.0590
  104SAPE   C3710652   6.316   4.808   5.948  0.0684  0.0834  0.3910
  104SAPE   H7X10653   6.406   4.748   5.974  0.1833 -0.2936 -0.8326
  104SAPE   H7Y10654   6.230   4.738   5.934  0.3550  0.1064 -1.7514
  104SAPE   C3810655   6.280   4.906   6.059  0.3857  0.0024  0.4010
  104SAPE   H8X10656   6.192   4.963   6.023  0.9749  0.0781 -1.0169
  104SAPE   H8Y10657   6.368   4.974   6.066 -1.2666  2.2895 -0.0632
  104SAPE   C3910658   6.251   4.835   6.195  0.0148 -0.3238  0.4750
  104SAPE   H9X10659   6.328   4.755   6.208 -0.1028 -0.5421 -0.1455
  104SAPE   H9Y10660   6.150   4.789   6.204 -0.7914  0.5943 -2.8218
  104SAPE  C31010661   6.276   4.940   6.307  0.3602  0.8362 -0.7893
  104SAPE  H10X10662   6.210   5.029   6.313 -0.1607  0.3970  0.4881
  104SAPE  H10Y10663   6.378   4.979   6.286 -0.0511  1.6818 -1.2913
  104SAPE  C31110664   6.267   4.873   6.451  0.3669 -0.7009 -0.1601
  104SAPE  H11X10665   6.327   4.782   6.469  1.8640  0.5818  1.7130
  104SAPE  H11Y10666   6.158   4.852   6.458 -0.3502  2.5503  0.1247
  104SAPE  C31210667   6.309   4.986   6.552  0.4116  0.2629 -0.1412
  104SAPE  H12X10668   6.249   5.079   6.543 -3.0974 -1.9633 -2.3358
  104SAPE  H12Y10669   6.411   5.027   6.543  0.4731 -0.2109 -1.9519
  104SAPE  C31310670   6.297   4.927   6.697  0.8492  0.0583  0.0349
  104SAPE  H13X10671   6.371   4.844   6.693 -0.6871 -1.5738  2.5452
  104SAPE  H13Y10672   6.199   4.877   6.716  1.7446 -1.6129  0.4652
  104SAPE  C31410673   6.333   5.030   6.803 -0.0632  0.7788 -0.0644
  104SAPE  H14X10674   6.254   5.108   6.804  1.0380  1.9297  1.2291
  104SAPE  H14Y10675   6.418   5.091   6.767 -0.7593  0.3830 -2.5513
  104SAPE  C31510676   6.340   4.974   6.945 -0.2068 -0.5062 -0.0414
  104SAPE  H15X10677   6.437   4.919   6.947  0.6734  0.9792  1.4831
  104SAPE  H15Y10678   6.256   4.905   6.964 -0.8935  0.1858 -0.4941
  104SAPE  C31610679   6.344   5.078   7.055 -0.1028 -0.2870  0.3063
  104SAPE  H16X10680   6.419   5.156   7.028 -0.7724  0.7196  1.2432
  104SAPE  H16Y10681   6.383   5.046   7.154  0.8200 -0.9481 -0.2547
  104SAPE  C31710682   6.206   5.148   7.059 -0.6135 -0.4864  0.1891
  104SAPE  H17X10683   6.126   5.076   7.031  0.1781 -1.3638  0.1582
  104SAPE  H17Y10684   6.207   5.231   6.984  2.0953  1.3876  2.1024
  104SAPE  C31810685   6.171   5.204   7.196 -0.2372 -0.0412 -1.1270
  104SAPE  H18X10686   6.234   5.293   7.221  0.0385 -0.3394 -0.7463
  104SAPE  H18Y10687   6.192   5.125   7.271 -0.8136  1.0472  0.2184
  104SAPE  H18Z10688   6.062   5.214   7.214  0.0195  2.1249 -0.5097
  105SAPE     N10689   1.591   2.535   4.325 -0.1484  0.0447 -0.0469
  105SAPE   HN110690   1.508   2.575   4.371 -0.9547 -0.1210 -1.3071
  105SAPE   HN210691   1.658   2.614   4.330  1.0169 -0.8243 -1.1301
  105SAPE   HN310692   1.568   2.512   4.226  0.2862  1.5045 -0.5118
  105SAPE   C1210693   1.637   2.420   4.406 -0.2856 -0.4588  0.9468
  105SAPE  H12A10694   1.687   2.463   4.496 -0.0899 -0.6617  0.9339
  105SAPE  H12B10695   1.705   2.349   4.354 -1.6134 -0.9624 -0.1667
  105SAPE   C1110696   1.515   2.340   4.446  0.5979 -0.3283 -0.0715
  105SAPE  H11A10697   1.438   2.412   4.480  1.4590  1.0186 -0.8699
  105SAPE  H11B10698   1.532   2.278   4.536 -1.0686 -2.4469 -1.1244
  105SAPE     P10699   1.512   2.110   4.333  0.0486  0.0592 -0.0645
  105SAPE   O1310700   1.412   2.040   4.249 -0.5220 -0.1285  0.0491
  105SAPE   O1410701   1.655   2.113   4.289 -0.1353  1.1252  0.0497
  105SAPE   O1210702   1.458   2.259   4.345 -1.8227  0.2568  0.4011
  105SAPE   O1110703   1.506   2.059   4.486 -0.1029  0.3762  0.6151
  105SAPE    C110704   1.383   2.012   4.542 -0.1357  0.0961  0.2706
  105SAPE    HA10705   1.294   2.059   4.494 -0.3233  0.2194  0.7305
  105SAPE    HB10706   1.367   1.904   4.522 -0.0407 -0.3480  2.3823
  105SAPE    C210707   1.384   2.036   4.694  0.9240 -0.6918 -0.4357
  105SAPE    HS10708   1.289   1.999   4.739  1.9850 -2.0728  0.7906
  105SAPE   O2110709   1.413   2.170   4.731 -0.3463  0.3990 -0.9009
  105SAPE   C2110710   1.318   2.260   4.700 -0.0733 -0.8057 -0.4119
  105SAPE   O2210711   1.223   2.249   4.619 -0.0579  0.5850  0.4773
  105SAPE   C2210712   1.330   2.381   4.783  0.2997 -0.3062  0.3285
  105SAPE   H2R10713   1.435   2.408   4.803  0.5391  0.1217 -1.3778
  105SAPE   H2S10714   1.293   2.462   4.717  1.0107 -2.3265 -2.7242
  105SAPE    C310715   1.491   1.936   4.761 -0.6019 -0.3643  0.1731
  105SAPE    HX10716   1.576   1.928   4.690 -1.3853 -1.5581 -0.6512
  105SAPE    HY10717   1.449   1.835   4.777 -1.3354 -0.0319  0.3892
  105SAPE   O3110718   1.537   1.979   4.892 -0.8036 -0.0628 -0.1032
  105SAPE   C3110719   1.651   2.049   4.895  0.4834 -0.4602  0.0203
  105SAPE   O3210720   1.718   2.082   4.799 -0.1252  0.4990  0.8250
  105SAPE   C3210721   1.688   2.086   5.042  0.1948  0.5603 -0.5174
  105SAPE   H2X10722   1.730   1.994   5.088 -2.3293 -0.4989 -0.1852
  105SAPE   H2Y10723   1.601   2.116   5.104  1.5142  2.9077  0.3283
  105SAPE   C2310724   1.246   2.378   4.919 -0.1193 -0.5945  0.3740
  105SAPE   H3R10725   1.141   2.347   4.900 -0.4428  0.2575  0.7139
  105SAPE   H3S10726   1.246   2.477   4.969 -2.2623 -0.7731  0.8019
  105SAPE   C2410727   1.300   2.265   5.009 -0.5065 -0.0164 -0.6161
  105SAPE   H4R10728   1.405   2.285   5.037 -0.2605  0.1122 -1.5833
  105SAPE   H4S10729   1.298   2.168   4.955 -2.2067 -1.9784  2.6127
  105SAPE   C2510730   1.220   2.243   5.136  0.1090  0.5004  0.2056
  105SAPE   H5R10731   1.225   2.320   5.214  3.1005  0.8228 -0.1794
  105SAPE   C2610732   1.154   2.134   5.172  0.7232  0.1685  1.1164
  105SAPE   H6R10733   1.091   2.134   5.262 -0.5169 -1.1357  0.2989
  105SAPE   C2710734   1.143   2.011   5.085 -0.9564 -1.0734 -0.0101
  105SAPE   H7R10735   1.125   1.918   5.143  1.1357  0.2035  2.9555
  105SAPE   H7S10736   1.239   1.983   5.036  0.3863 -0.7408  2.2691
  105SAPE   C2810737   1.031   2.008   4.986  0.2671 -0.6019  0.5136
  105SAPE   H8R10738   1.043   2.089   4.912 -2.2421 -2.2202 -1.8566
  105SAPE   C2910739   0.912   1.938   4.978  0.0533  0.1194  0.4208
  105SAPE   H9R10740   0.846   1.966   4.895  1.5533  2.1490 -0.1830
  105SAPE  C21010741   0.861   1.822   5.070 -0.0532  0.6030  0.0058
  105SAPE  H10R10742   0.758   1.801   5.033 -1.9983  2.4736  3.6784
  105SAPE  H10S10743   0.841   1.859   5.173 -0.3887 -0.2473  0.2476
  105SAPE  C21110744   0.942   1.698   5.059  0.2659 -0.2038  0.2873
  105SAPE  H11R10745   0.978   1.660   4.962 -0.7267  1.0071 -0.5919
  105SAPE  C21210746   0.971   1.631   5.170 -0.1964  0.1265  0.8452
  105SAPE  H12R10747   1.020   1.533   5.157 -1.6835 -0.3252 -2.0089
  105SAPE  C21310748   0.939   1.660   5.314 -0.0477 -0.2608 -0.4108
  105SAPE  H13R10749   0.977   1.568   5.363  0.5467 -0.7891 -1.8219
  105SAPE  H13S10750   0.829   1.669   5.329 -0.0427 -2.7147  1.8494
  105SAPE  C21410751   1.004   1.779   5.387 -0.0195  0.6468 -0.2016
  105SAPE  H14R10752   1.075   1.830   5.320  4.2289 -3.7519  0.3989
  105SAPE  C21510753   0.983   1.813   5.513  0.4004 -0.6663 -0.8409
  105SAPE  H15R10754   1.040   1.893   5.563 -2.0104  0.6843 -0.0709
  105SAPE  C21610755   0.896   1.750   5.611 -0.5280 -0.0648 -0.1306
  105SAPE  H16R10756   0.834   1.677   5.555  0.4319  0.4255 -1.9122
  105SAPE  H16S10757   0.829   1.822   5.662 -2.0702 -0.5942 -1.3317
  105SAPE  C21710758   0.980   1.692   5.716  0.6602  0.4240 -0.2684
  105SAPE  H17R10759   1.034   1.764   5.781 -0.4893 -0.1618  1.3967
  105SAPE  H17S10760   1.047   1.621   5.663 -0.5178 -0.9047 -0.0304
  105SAPE  C21810761   0.912   1.598   5.820  0.0369  0.0291 -0.3872
  105SAPE  H18R10762   0.999   1.540   5.857  0.7205 -0.0473 -2.0607
  105SAPE  H18S10763   0.843   1.527   5.770  1.6581 -1.9251  0.0469
  105SAPE  C21910764   0.836   1.669   5.935 -0.2629  0.1861 -1.6038
  105SAPE  H19R10765   0.729   1.664   5.907 -0.4804 -2.0083 -0.6408
  105SAPE  H19S10766   0.870   1.774   5.943 -0.7087  0.2223  0.5674
  105SAPE  C22010767   0.859   1.607   6.077  0.0383 -0.5587  0.0303
  105SAPE  H20R10768   0.783   1.529   6.103  0.9726 -1.2288  0.8213
  105SAPE  H20S10769   0.849   1.697   6.142 -2.0776 -1.4603  1.0730
  105SAPE  H20T10770   0.963   1.569   6.090  0.3722  0.6456  1.0437
  105SAPE   C3310771   1.798   2.191   5.048 -0.4874  0.3671  0.5053
  105SAPE   H3X10772   1.757   2.293   5.062 -1.8279 -0.1845  0.7382
  105SAPE   H3Y10773   1.869   2.194   4.963 -1.7281  0.6801 -0.5403
  105SAPE   C3410774   1.895   2.171   5.166  0.2129  0.9048 -0.3967
  105SAPE   H4X10775   1.975   2.248   5.162 -0.1429  1.3427  0.5178
  105SAPE   H4Y10776   1.942   2.070   5.174 -3.2187 -0.7281  1.6082
  105SAPE   C3510777   1.820   2.207   5.296  0.1502 -0.1583  0.1263
  105SAPE   H5X10778   1.741   2.131   5.318 -0.5753  0.1468 -1.3095
  105SAPE   H5Y10779   1.768   2.304   5.288  0.7885  0.2042  0.3362
  105SAPE   C3610780   1.908   2.208   5.417 -0.8058  0.0882 -0.2443
  105SAPE   H6X10781   1.962   2.302   5.393 -0.3627 -0.5129 -1.6864
  105SAPE   H6Y10782   1.974   2.119   5.409 -1.3433 -0.3133 -0.2410
  105SAPE   C3710783   1.845   2.207   5.554  0.4533  0.8112 -0.5037
  105SAPE   H7X10784   1.778   2.119   5.563 -2.7020  2.7749 -2.4354
  105SAPE   H7Y10785   1.769   2.287   5.567  0.2721  0.2952  2.1944
  105SAPE   C3810786   1.942   2.224   5.677 -0.1188 -0.5081 -0.1644
  105SAPE   H8X10787   1.992   2.318   5.646 -4.4552  1.4299 -2.1382
  105SAPE   H8Y10788   2.016   2.142   5.686  0.0939 -0.4872 -1.4488
  105SAPE   C3910789   1.863   2.235   5.806  0.6677 -0.8088  0.4215
  105SAPE   H9X10790   1.788   2.152   5.812 -1.8025  1.2708  0.1880
  105SAPE   H9Y10791   1.806   2.328   5.787  1.5739 -0.2191  0.5655
  105SAPE  C31010792   1.942   2.246   5.943  0.0220 -0.3859 -0.0738
  105SAPE  H10X10793   2.001   2.340   5.946 -1.2980  0.4564  0.3669
  105SAPE  H10Y10794   2.014   2.162   5.940 -1.2480 -1.6752  2.7009
  105SAPE  C31110795   1.847   2.231   6.063  0.1819  0.1339  0.5846
  105SAPE  H11X10796   1.824   2.124   6.078  1.1872 -0.1230  0.3551
  105SAPE  H11Y10797   1.754   2.291   6.052  0.6673  1.1081  1.5354
  105SAPE  C31210798   1.911   2.289   6.188  1.0940 -0.3574  0.0931
  105SAPE  H12X10799   1.915   2.400   6.183 -1.4501 -0.1270  1.4718
  105SAPE  H12Y10800   2.010   2.242   6.202  2.2351  1.6058 -0.8870
  105SAPE  C31310801   1.819   2.251   6.308  0.7409  0.4977  0.4044
  105SAPE  H13X10802   1.823   2.141   6.323 -1.1383  0.3442  0.0120
  105SAPE  H13Y10803   1.711   2.275   6.294  0.2402 -0.9335  1.6061
  105SAPE  C31410804   1.848   2.313   6.442  0.9337 -0.2267 -0.2016
  105SAPE  H14X10805   1.785   2.265   6.520  1.1015 -0.0617  0.0359
  105SAPE  H14Y10806   1.822   2.421   6.448 -2.1014 -0.6545 -2.9738
  105SAPE  C31510807   1.991   2.289   6.481 -0.1772 -0.4965 -0.1159
  105SAPE  H15X10808   2.071   2.342   6.424  1.2579 -1.1181  1.2591
  105SAPE  H15Y10809   2.015   2.181   6.480 -0.7235 -0.6966  2.3836
  105SAPE  C31610810   2.016   2.326   6.634 -0.0242 -0.8449  0.4322
  105SAPE  H16X10811   1.996   2.434   6.654 -0.8855 -0.5400 -1.7691
  105SAPE  H16Y10812   2.124   2.315   6.653 -0.0119 -0.8946  0.3344
  105SAPE  C31710813   1.955   2.222   6.728 -0.1985  0.4792  0.2302
  105SAPE  H17X10814   1.990   2.122   6.696 -0.1101  0.1126  1.4194
  105SAPE  H17Y10815   1.844   2.233   6.736 -0.2087  0.0067  0.8763
  105SAPE  C31810816   2.001   2.230   6.874  0.5049  0.0912 -0.7974
  105SAPE  H18X10817   2.100   2.183   6.891  0.3655  0.3031  0.7471
  105SAPE  H18Y10818   1.927   2.174   6.935  1.5713 -0.5157 -0.0141
  105SAPE  H18Z10819   2.003   2.338   6.902 -0.4684 -0.0031 -0.3292
  106SAPE     N10820   2.623   5.761   3.752  0.4948 -0.8714  0.1463
  106SAPE   HN110821   2.658   5.666   3.729  0.4748 -0.5481 -1.3138
  106SAPE   HN210822   2.534   5.782   3.704  0.5742  0.2692  0.4826
  106SAPE   HN310823   2.682   5.835   3.708  0.5992 -1.5915 -0.9693
  106SAPE   C1210824   2.604   5.790   3.902  0.2228 -0.5776 -0.4029
  106SAPE  H12A10825   2.501   5.771   3.937  1.4505 -0.6704  3.6357
  106SAPE  H12B10826   2.619   5.899   3.912 -1.5848  0.1444 -3.8869
  106SAPE   C1110827   2.705   5.716   3.987  0.0742  0.0751 -0.3223
  106SAPE  H11A10828   2.685   5.736   4.095  2.1549  2.9198 -0.3408
  106SAPE  H11B10829   2.801   5.761   3.956 -0.9307  1.5189 -1.5142
  106SAPE     P10830   2.617   5.469   4.024 -0.1190  0.1466  0.0598
  106SAPE   O1310831   2.493   5.463   3.941 -0.3628 -0.2822 -0.8372
  106SAPE   O1410832   2.688   5.337   4.042  0.8398  0.2318 -0.7195
  106SAPE   O1210833   2.719   5.573   3.964 -0.0437 -0.1866  0.3290
  106SAPE   O1110834   2.576   5.523   4.161  0.0126 -0.6725 -0.3466
  106SAPE    C110835   2.652   5.549   4.270  0.0720 -0.0490  1.2014
  106SAPE    HA10836   2.760   5.568   4.251 -0.0485  1.6737  2.0412
  106SAPE    HB10837   2.627   5.644   4.321 -1.0985  0.0300  0.5042
  106SAPE    C210838   2.644   5.437   4.371 -0.4425  0.8840 -0.0695
  106SAPE    HS10839   2.646   5.338   4.320  0.4158 -0.2428  2.0264
  106SAPE   O2110840   2.529   5.450   4.450  0.1561 -0.2933 -0.1217
  106SAPE   C2110841   2.490   5.343   4.507  0.0076  0.5843  0.2141
  106SAPE   O2210842   2.549   5.232   4.502 -0.8713 -0.3629  0.4842
  106SAPE   C2210843   2.356   5.363   4.575  0.6763  0.2228  0.5885
  106SAPE   H2R10844   2.335   5.472   4.578 -0.7302  0.0620 -1.3223
  106SAPE   H2S10845   2.276   5.310   4.519  0.0238 -1.0752  2.6333
  106SAPE    C310846   2.770   5.446   4.456 -0.4158  0.8354 -0.6522
  106SAPE    HX10847   2.858   5.440   4.387  0.2624  2.9981 -0.0590
  106SAPE    HY10848   2.778   5.354   4.518  0.9596  1.3703  0.0051
  106SAPE   O3110849   2.783   5.574   4.523 -0.8476  0.7657  0.1559
  106SAPE   C3110850   2.759   5.563   4.656  0.1525  0.5238  0.1194
  106SAPE   O3210851   2.728   5.458   4.709  0.1557 -0.4387  0.1632
  106SAPE   C3210852   2.789   5.702   4.720 -0.1861 -0.6861 -0.3385
  106SAPE   H2X10853   2.697   5.758   4.691 -0.2591  0.5178  1.9636
  106SAPE   H2Y10854   2.877   5.746   4.669  0.1303 -1.6652 -0.6602
  106SAPE   C2310855   2.364   5.312   4.722 -0.3722  0.3630  0.5407
  106SAPE   H3R10856   2.436   5.377   4.777 -1.5158  2.8600 -0.7737
  106SAPE   H3S10857   2.412   5.211   4.724 -0.0023  0.4954 -0.8943
  106SAPE   C2410858   2.233   5.298   4.788 -0.9259 -0.7528 -0.0629
  106SAPE   H4R10859   2.243   5.262   4.892 -2.0388  0.8561  0.6398
  106SAPE   H4S10860   2.172   5.227   4.729 -0.8323  1.0052 -2.4290
  106SAPE   C2510861   2.165   5.432   4.785  0.4965  0.1781 -0.7023
  106SAPE   H5R10862   2.084   5.427   4.711  0.6919 -1.4509 -0.8508
  106SAPE   C2610863   2.173   5.532   4.874 -0.2861 -0.8049 -0.1712
  106SAPE   H6R10864   2.111   5.622   4.859 -0.1458 -0.2871  2.0265
  106SAPE   C2710865   2.240   5.545   5.008 -0.0405 -0.1470 -0.7544
  106SAPE   H7R10866   2.208   5.460   5.072 -2.9858 -0.7491 -2.8327
  106SAPE   H7S10867   2.190   5.632   5.056  0.7315  1.1088 -2.1140
  106SAPE   C2810868   2.388   5.560   4.997 -0.3253  0.1834  0.2367
  106SAPE   H8R10869   2.433   5.527   4.902  0.6893  1.3390  0.2905
  106SAPE   C2910870   2.462   5.634   5.083 -0.4366 -0.9787  0.6082
  106SAPE   H9R10871   2.570   5.615   5.085  0.0446  1.5412  1.3145
  106SAPE  C21010872   2.402   5.705   5.208 -0.7709  0.4268  0.5710
  106SAPE  H10R10873   2.468   5.711   5.297 -0.6136 -0.0295  0.4885
  106SAPE  H10S10874   2.316   5.638   5.231 -0.7756 -0.2109 -1.1759
  106SAPE  C21110875   2.336   5.834   5.203  0.2569 -0.4976 -0.2954
  106SAPE  H11R10876   2.282   5.844   5.107  2.2325 -2.5796 -1.7269
  106SAPE  C21210877   2.331   5.921   5.301 -0.3220  0.2624 -0.0718
  106SAPE  H12R10878   2.269   6.010   5.280 -0.2833  0.0939 -0.9337
  106SAPE  C21310879   2.395   5.901   5.436  0.2902 -0.1576  0.2607
  106SAPE  H13R10880   2.499   5.865   5.421  0.3941  0.6770 -1.2562
  106SAPE  H13S10881   2.344   5.823   5.496  0.8596 -1.4524 -0.8918
  106SAPE  C21410882   2.399   6.026   5.528 -0.1131  0.1963  0.1835
  106SAPE  H14R10883   2.366   6.116   5.473  2.9770  0.7686 -0.9196
  106SAPE  C21510884   2.412   6.029   5.663  1.1470  0.3265  0.1457
  106SAPE  H15R10885   2.400   6.126   5.713  0.1000  0.9874 -1.3310
  106SAPE  C21610886   2.445   5.911   5.753  0.0065 -0.0247 -0.0377
  106SAPE  H16R10887   2.466   5.820   5.693 -0.2421 -0.1254  0.0291
  106SAPE  H16S10888   2.354   5.893   5.813 -0.6733  4.2259  0.5639
  106SAPE  C21710889   2.570   5.942   5.836 -0.1282 -0.3375 -0.1058
  106SAPE  H17R10890   2.656   5.956   5.767 -1.1109 -1.7782 -1.7189
  106SAPE  H17S10891   2.604   5.855   5.896  1.2138  0.3795  0.2020
  106SAPE  C21810892   2.554   6.064   5.933  0.2915 -0.1188  0.6514
  106SAPE  H18R10893   2.444   6.066   5.948  0.3733  3.9994  1.9525
  106SAPE  H18S10894   2.573   6.164   5.890 -2.8343 -0.4154 -1.7323
  106SAPE  C21910895   2.610   6.043   6.072  0.5399 -0.2635 -0.5226
  106SAPE  H19R10896   2.718   6.069   6.071  0.6049 -0.4985  0.0779
  106SAPE  H19S10897   2.608   5.936   6.100 -0.8040  0.3472  2.0362
  106SAPE  C22010898   2.529   6.131   6.174 -0.0879 -0.0256 -0.8822
  106SAPE  H20R10899   2.555   6.237   6.153 -0.9903  0.5354  0.6718
  106SAPE  H20S10900   2.557   6.100   6.277  3.1146 -1.2980 -2.0154
  106SAPE  H20T10901   2.419   6.139   6.163 -0.2139  0.3301  0.4345
  106SAPE   C3310902   2.812   5.660   4.872  0.3528 -0.0026  0.6357
  106SAPE   H3X10903   2.876   5.569   4.876 -2.1165 -2.0113 -1.6451
  106SAPE   H3Y10904   2.710   5.637   4.912 -0.1249  0.5832 -0.2116
  106SAPE   C3410905   2.867   5.781   4.946 -0.0227 -0.6783 -0.3057
  106SAPE   H4X10906   2.780   5.850   4.949 -0.8040 -1.6759  0.8136
  106SAPE   H4Y10907   2.952   5.825   4.889  0.9721  1.2876  2.5188
  106SAPE   C3510908   2.924   5.761   5.094  0.0048 -0.3664 -0.3962
  106SAPE   H5X10909   2.960   5.858   5.132 -0.6812  0.1140 -0.9300
  106SAPE   H5Y10910   3.009   5.691   5.088 -0.7957 -1.3085 -1.1709
  106SAPE   C3610911   2.816   5.713   5.190 -1.1700 -0.0682 -0.4918
  106SAPE   H6X10912   2.808   5.603   5.190 -1.7331 -0.0909  2.0552
  106SAPE   H6Y10913   2.719   5.757   5.157 -0.2309  1.7735 -0.9396
  106SAPE   C3710914   2.839   5.760   5.334 -0.1532 -0.5630 -0.6376
  106SAPE   H7X10915   2.783   5.856   5.326  0.2341 -0.3549 -0.8840
  106SAPE   H7Y10916   2.943   5.782   5.364  0.9243 -0.8753 -3.7488
  106SAPE   C3810917   2.764   5.679   5.439 -0.1653  0.1116  0.4849
  106SAPE   H8X10918   2.804   5.576   5.428  0.5375  0.4719 -0.4679
  106SAPE   H8Y10919   2.659   5.661   5.410  0.0832 -2.7204  1.0362
  106SAPE   C3910920   2.775   5.734   5.587 -0.0088 -0.5966  0.3373
  106SAPE   H9X10921   2.707   5.672   5.649  0.3698 -0.2692  1.1014
  106SAPE   H9Y10922   2.738   5.839   5.592  1.0148 -0.2662  2.0002
  106SAPE  C31010923   2.922   5.723   5.653 -0.2656  0.8033  0.4328
  106SAPE  H10X10924   3.002   5.774   5.595 -1.0588 -1.8287 -3.2746
  106SAPE  H10Y10925   2.940   5.617   5.626  3.7155  1.7345 -1.4210
  106SAPE  C31110926   2.914   5.748   5.807  0.6779 -0.1709  0.4126
  106SAPE  H11X10927   2.842   5.674   5.848  0.3526  0.2676  0.6447
  106SAPE  H11Y10928   2.863   5.845   5.827  1.8741  1.0332 -1.9232
  106SAPE  C31210929   3.038   5.730   5.892  0.4194  0.2682 -0.3480
  106SAPE  H12X10930   3.121   5.801   5.876  2.3250 -2.1018 -1.6350
  106SAPE  H12Y10931   3.093   5.640   5.856  1.2645  0.6292  0.0205
  106SAPE  C31310932   2.995   5.715   6.042 -0.3147  0.3690  0.4223
  106SAPE  H13X10933   3.081   5.677   6.100 -0.8798 -0.0124  1.0242
  106SAPE  H13Y10934   2.920   5.634   6.048 -0.8357  0.7696 -0.3850
  106SAPE  C31410935   2.949   5.844   6.113 -0.5685  0.2984  0.5594
  106SAPE  H14X10936   2.857   5.884   6.063 -2.4140 -1.1543  2.6028
  106SAPE  H14Y10937   3.035   5.914   6.116  1.7288 -2.3268  4.3703
  106SAPE  C31510938   2.901   5.816   6.254  0.3119  0.4876  0.2589
  106SAPE  H15X10939   2.980   5.763   6.311 -1.6050 -0.2942  2.3266
  106SAPE  H15Y10940   2.813   5.750   6.259  2.1737 -2.1272  0.3296
  106SAPE  C31610941   2.873   5.944   6.337  0.7124 -0.3091  0.4481
  106SAPE  H16X10942   2.819   6.029   6.289 -0.3882 -0.6850  0.9808
  106SAPE  H16Y10943   2.968   5.990   6.371  1.3417 -0.1154 -1.4357
  106SAPE  C31710944   2.794   5.903   6.464 -0.3814  0.0881  0.1458
  106SAPE  H17X10945   2.870   5.850   6.526 -0.8873 -0.0837  0.6287
  106SAPE  H17Y10946   2.713   5.835   6.429  1.1534 -0.7694 -1.9508
  106SAPE  C31810947   2.744   6.022   6.542 -0.0624 -0.0962  0.3927
  106SAPE  H18X10948   2.721   6.105   6.473  1.3581 -0.6913 -0.8419
  106SAPE  H18Y10949   2.817   6.068   6.612  0.7270  1.1464 -1.1942
  106SAPE  H18Z10950   2.653   6.003   6.603 -0.4996  2.0281  0.4530
  107SAPE     N10951   4.593   4.809   4.545 -0.1911 -0.2304 -0.8961
  107SAPE   HN110952   4.581   4.909   4.570  1.2494 -0.6678  2.0173
  107SAPE   HN210953   4.648   4.808   4.457 -0.6210  0.4017 -1.1808
  107SAPE   HN310954   4.496   4.776   4.532 -1.0741  1.7924  0.1572
  107SAPE   C1210955   4.685   4.729   4.640  0.2826 -0.7204  1.2362
  107SAPE  H12A10956   4.684   4.624   4.604  0.8121 -1.2865  2.7422
  107SAPE  H12B10957   4.635   4.733   4.739  1.7605 -4.2240  2.2861
  107SAPE   C1110958   4.828   4.795   4.648 -0.3294  0.1628  0.1958
  107SAPE  H11A10959   4.890   4.770   4.737 -1.5193  1.6251  1.4894
  107SAPE  H11B10960   4.816   4.903   4.667 -0.9182  0.0679  0.3716
  107SAPE     P10961   4.973   4.649   4.481 -0.0131  0.0897  0.1252
  107SAPE   O1310962   4.910   4.570   4.372  0.3598 -0.2205 -0.7696
  107SAPE   O1410963   5.107   4.702   4.449  0.2656 -0.4443 -0.0704
  107SAPE   O1210964   4.878   4.773   4.519  0.1027 -0.3318  0.4371
  107SAPE   O1110965   4.969   4.571   4.617  0.0593  0.5314  0.4004
  107SAPE    C110966   5.031   4.446   4.643  0.3061  0.0482 -0.3020
  107SAPE    HA10967   5.064   4.395   4.550 -1.9459 -2.3161  0.0978
  107SAPE    HB10968   5.123   4.441   4.706 -0.0196 -3.5698  0.0661
  107SAPE    C210969   4.920   4.356   4.708 -0.3994 -0.6390  0.3669
  107SAPE    HS10970   4.841   4.350   4.630  0.2791  0.4606 -0.4251
  107SAPE   O2110971   4.866   4.431   4.820  0.2034 -0.3158  0.0688
  107SAPE   C2110972   4.754   4.392   4.875 -0.1174 -0.2388 -0.1028
  107SAPE   O2210973   4.677   4.306   4.829  0.1137 -0.2957  0.3346
  107SAPE   C2210974   4.725   4.472   5.000  0.6374 -0.8861 -1.0624
  107SAPE   H2R10975   4.707   4.579   4.977  1.7759 -0.4339  0.0633
  107SAPE   H2S10976   4.638   4.432   5.057 -0.2579  1.3092 -0.8013
  107SAPE    C310977   4.979   4.216   4.740  0.2302 -0.8001 -0.4986
  107SAPE    HX10978   5.019   4.186   4.641  3.1472  0.8060  0.0577
  107SAPE    HY10979   4.893   4.159   4.779 -1.4586  1.8867 -0.0041
  107SAPE   O3110980   5.088   4.224   4.844 -0.0758  0.2646  0.2742
  107SAPE   C3110981   5.123   4.113   4.901  0.0648  0.3822 -0.3916
  107SAPE   O3210982   5.085   3.999   4.863 -0.5103 -0.4825  0.1339
  107SAPE   C3210983   5.216   4.146   5.016  0.4006  0.2572  0.2654
  107SAPE   H2X10984   5.258   4.247   4.999  0.6826  0.2356  0.8151
  107SAPE   H2Y10985   5.295   4.068   5.015  0.0292 -0.1424  1.0391
  107SAPE   C2310986   4.851   4.464   5.090  0.2975 -0.0117  0.5534
  107SAPE   H3R10987   4.946   4.491   5.038  0.5046  0.8205  1.3326
  107SAPE   H3S10988   4.882   4.366   5.129 -0.1544 -0.0893  0.7191
  107SAPE   C2410989   4.837   4.556   5.208  0.4246 -0.2804 -0.2224
  107SAPE   H4R10990   4.809   4.656   5.168 -1.6911 -2.1030 -3.6827
  107SAPE   H4S10991   4.935   4.567   5.260 -0.3789 -0.2736  1.3518
  107SAPE   C2510992   4.729   4.506   5.303 -0.0005 -0.5389  0.0633
  107SAPE   H5R10993   4.625   4.526   5.273  0.1892  1.5630  0.6482
  107SAPE   C2610994   4.746   4.451   5.426  0.2338 -0.2641  0.3626
  107SAPE   H6R10995   4.654   4.420   5.479  0.4034  1.5202  1.8171
  107SAPE   C2710996   4.879   4.411   5.485  0.1057  0.2320 -0.7469
  107SAPE   H7R10997   4.953   4.405   5.402 -1.6671  1.5871 -2.5385
  107SAPE   H7S10998   4.865   4.311   5.531 -0.0581 -0.6035 -2.5226
  107SAPE   C2810999   4.928   4.503   5.595 -0.3280  0.0483  0.1287
  107SAPE   H8R11000   4.984   4.594   5.567 -1.1535  1.1332  1.8390
  107SAPE   C2911001   4.891   4.481   5.722  0.0410 -1.0584  0.3899
  107SAPE   H9R11002   4.920   4.551   5.801  0.6739 -0.9423  0.0592
  107SAPE  C21011003   4.800   4.371   5.781  0.1957 -0.5660 -0.5375
  107SAPE  H10R11004   4.856   4.276   5.795 -0.8395 -0.8642  2.2358
  107SAPE  H10S11005   4.724   4.359   5.701  0.7970 -0.0269 -1.2034
  107SAPE  C21111006   4.740   4.411   5.911 -0.0992 -0.0776  1.2264
  107SAPE  H11R11007   4.647   4.470   5.905 -0.3608 -0.6217 -0.3846
  107SAPE  C21211008   4.790   4.407   6.034 -0.3779  0.5634 -1.0360
  107SAPE  H12R11009   4.730   4.451   6.114 -1.3852  1.6283 -2.3396
  107SAPE  C21311010   4.916   4.348   6.074 -0.2204  0.1998 -0.6571
  107SAPE  H13R11011   4.976   4.310   5.988  0.5008  2.6951 -1.3409
  107SAPE  H13S11012   4.893   4.256   6.132  4.0000 -1.0414 -0.5681
  107SAPE  C21411013   5.009   4.451   6.137  0.5442  0.3680 -0.5156
  107SAPE  H14R11014   5.052   4.528   6.072  1.4743  0.9289  0.7017
  107SAPE  C21511015   5.046   4.464   6.265  0.5283  0.3483 -0.1205
  107SAPE  H15R11016   5.114   4.541   6.305  1.2717 -0.4020  0.0749
  107SAPE  C21611017   4.984   4.367   6.371 -0.3915 -0.3069 -0.3764
  107SAPE  H16R11018   5.070   4.315   6.418 -0.8515  0.1230  0.9777
  107SAPE  H16S11019   4.922   4.291   6.319  1.4388 -0.6557 -2.2150
  107SAPE  C21711020   4.898   4.438   6.476 -0.3985  0.5271 -0.1769
  107SAPE  H17R11021   4.939   4.527   6.528 -2.3493  1.6853 -0.5112
  107SAPE  H17S11022   4.870   4.364   6.554 -2.7613 -0.8026 -2.1398
  107SAPE  C21811023   4.753   4.463   6.427  0.0678  0.0443 -0.2568
  107SAPE  H18R11024   4.695   4.369   6.414 -0.1032  0.1095  0.0287
  107SAPE  H18S11025   4.766   4.515   6.330  0.3902 -2.4043 -1.6132
  107SAPE  C21911026   4.663   4.539   6.528 -0.7150 -0.2687 -1.0580
  107SAPE  H19R11027   4.560   4.543   6.488 -1.5672 -0.4602  1.0343
  107SAPE  H19S11028   4.707   4.640   6.543 -0.6938 -0.1717 -1.7098
  107SAPE  C22011029   4.662   4.466   6.666  0.6138 -0.5868  1.3179
  107SAPE  H20R11030   4.602   4.372   6.666  0.5375 -0.5416  0.4981
  107SAPE  H20S11031   4.606   4.533   6.735 -1.4457 -1.0879  0.2087
  107SAPE  H20T11032   4.759   4.449   6.718  1.0004  3.0652  2.0697
  107SAPE   C3311033   5.138   4.120   5.151 -0.2623  0.5286  0.0445
  107SAPE   H3X11034   5.122   4.010   5.160  1.1277  0.3509  0.6206
  107SAPE   H3Y11035   5.044   4.180   5.159 -0.9283 -0.4396 -0.2690
  107SAPE   C3411036   5.216   4.168   5.270 -0.0689  0.2578 -0.0029
  107SAPE   H4X11037   5.220   4.279   5.268 -2.3692  0.4031  0.5340
  107SAPE   H4Y11038   5.320   4.130   5.275  0.4727  1.5436 -1.0213
  107SAPE   C3511039   5.147   4.129   5.401  0.3754 -0.5780  0.4702
  107SAPE   H5X11040   5.113   4.024   5.407 -0.3286 -0.4060 -0.2530
  107SAPE   H5Y11041   5.051   4.185   5.392  0.3996 -0.5597  0.3178
  107SAPE   C3611042   5.214   4.170   5.533  0.1086 -0.4763 -0.3839
  107SAPE   H6X11043   5.248   4.276   5.531 -2.1015  0.3440 -4.1634
  107SAPE   H6Y11044   5.304   4.105   5.544  1.2092  1.0784  0.2843
  107SAPE   C3711045   5.121   4.150   5.655 -0.1518 -0.1861 -0.4546
  107SAPE   H7X11046   5.113   4.039   5.654 -0.3559 -0.1672 -1.3261
  107SAPE   H7Y11047   5.024   4.203   5.649 -0.6230 -0.8429  0.8315
  107SAPE   C3811048   5.177   4.186   5.796  0.0469  0.1470  0.2768
  107SAPE   H8X11049   5.129   4.280   5.827  0.9571  0.5805  0.4061
  107SAPE   H8Y11050   5.287   4.202   5.792  0.2625 -1.2997 -3.4438
  107SAPE   C3911051   5.127   4.085   5.899 -0.3901  0.1156  0.1284
  107SAPE   H9X11052   5.018   4.067   5.888 -0.0519 -1.0434 -1.5582
  107SAPE   H9Y11053   5.147   4.138   5.995  0.5515  0.3745 -0.2056
  107SAPE  C31011054   5.191   3.946   5.909 -0.5826 -0.1436 -0.1953
  107SAPE  H10X11055   5.293   3.960   5.867  0.0523 -1.3826  0.8353
  107SAPE  H10Y11056   5.141   3.887   5.829 -0.6675 -0.2155 -0.0897
  107SAPE  C31111057   5.192   3.888   6.057 -0.5735  0.4295 -0.3402
  107SAPE  H11X11058   5.217   3.971   6.127 -0.8589  0.2605 -0.0373
  107SAPE  H11Y11059   5.268   3.807   6.062  0.8651  1.7135 -0.7337
  107SAPE  C31211060   5.059   3.827   6.103 -0.4064 -0.3632  0.5852
  107SAPE  H12X11061   5.032   3.749   6.028  1.2579 -1.5142  1.1074
  107SAPE  H12Y11062   4.978   3.903   6.110  0.1412  0.3211 -0.3563
  107SAPE  C31311063   5.051   3.754   6.238  0.2811  0.5141  0.8796
  107SAPE  H13X11064   5.123   3.670   6.237 -0.8156 -0.4475  0.1427
  107SAPE  H13Y11065   4.946   3.721   6.252  0.5941 -0.0160  2.0595
  107SAPE  C31411066   5.091   3.853   6.349  0.3440  0.2386  0.8796
  107SAPE  H14X11067   5.024   3.942   6.347  0.8614  0.6317 -0.8171
  107SAPE  H14Y11068   5.195   3.885   6.327 -0.0278  0.7531 -0.2037
  107SAPE  C31511069   5.096   3.792   6.486 -0.9886  0.3770  0.2521
  107SAPE  H15X11070   5.156   3.699   6.491  0.7779  1.4824  0.2392
  107SAPE  H15Y11071   4.993   3.761   6.515 -0.4777  0.4977  2.4175
  107SAPE  C31611072   5.156   3.886   6.588 -0.3435  0.1089 -0.2231
  107SAPE  H16X11073   5.253   3.928   6.555 -0.9556  1.3278 -0.4953
  107SAPE  H16Y11074   5.173   3.839   6.687 -1.1332 -2.0074 -1.0239
  107SAPE  C31711075   5.061   4.006   6.609  0.2153  0.4578  0.3912
  107SAPE  H17X11076   4.957   3.968   6.602  0.8060 -1.5270  1.7609
  107SAPE  H17Y11077   5.096   4.071   6.525  2.0600  0.3623  1.0402
  107SAPE  C31811078   5.072   4.078   6.745 -0.3040  0.1766 -0.9032
  107SAPE  H18X11079   5.006   4.166   6.756  0.2256  0.7816 -2.3373
  107SAPE  H18Y11080   5.168   4.133   6.747  1.4129 -2.3592 -3.8704
  107SAPE  H18Z11081   5.072   4.005   6.829 -0.8976 -0.7043 -1.6534
  108SAPE     N11082   3.726   1.516   4.644 -0.4695  0.5551  0.0364
  108SAPE   HN111083   3.675   1.480   4.561  0.6372  0.6971 -0.7326
  108SAPE   HN211084   3.771   1.608   4.625 -0.7411  0.9117  1.0323
  108SAPE   HN311085   3.797   1.441   4.652  0.3211  1.2753 -0.0695
  108SAPE   C1211086   3.639   1.523   4.762  0.4550 -0.2028  0.8273
  108SAPE  H12A11087   3.683   1.590   4.838 -1.6958  1.5607  0.6112
  108SAPE  H12B11088   3.635   1.421   4.807 -0.4321  0.8323  3.2554
  108SAPE   C1111089   3.507   1.588   4.726  0.0330  0.3119  0.1210
  108SAPE  H11A11090   3.432   1.594   4.808 -1.0336 -3.1718 -0.4459
  108SAPE  H11B11091   3.459   1.521   4.651 -0.3793 -0.3288  0.9407
  108SAPE     P11092   3.435   1.839   4.654  0.0251  0.2743  0.5485
  108SAPE   O1311093   3.512   1.952   4.594  0.7623  0.2536 -0.0386
  108SAPE   O1411094   3.305   1.800   4.586 -0.1484  0.3428 -0.2686
  108SAPE   O1211095   3.525   1.712   4.663 -0.4379 -0.1827 -0.0163
  108SAPE   O1111096   3.405   1.870   4.806  0.1007 -0.3244  0.1675
  108SAPE    C111097   3.511   1.880   4.899  0.1848  0.7772 -0.0483
  108SAPE    HA11098   3.547   1.781   4.933 -1.9247  0.5265  1.7071
  108SAPE    HB11099   3.594   1.940   4.856 -1.3874  2.6009 -0.7051
  108SAPE    C211100   3.464   1.965   5.027  0.1769 -0.9034  0.1045
  108SAPE    HS11101   3.552   1.982   5.093  1.3674  1.3935 -1.9098
  108SAPE   O2111102   3.347   1.906   5.093  0.2693  0.5878 -0.3293
  108SAPE   C2111103   3.377   1.789   5.148 -0.0552 -0.3899 -0.3454
  108SAPE   O2211104   3.492   1.755   5.175  0.2744  0.1845  0.2931
  108SAPE   C2211105   3.245   1.721   5.186 -0.9374 -0.2172  0.1116
  108SAPE   H2R11106   3.200   1.690   5.090  0.0471  0.5085 -0.6002
  108SAPE   H2S11107   3.272   1.635   5.252 -1.5703 -2.4014 -2.3307
  108SAPE    C311108   3.426   2.112   4.990 -0.4425  0.0289  0.0261
  108SAPE    HX11109   3.340   2.099   4.921 -1.0816 -1.3660  1.0216
  108SAPE    HY11110   3.506   2.160   4.930 -0.5829  0.1251 -0.0819
  108SAPE   O3111111   3.370   2.183   5.109 -0.5822  0.2673 -0.1147
  108SAPE   C3111112   3.473   2.261   5.162 -0.4601 -0.0995  0.5357
  108SAPE   O3211113   3.586   2.267   5.126  0.1198 -0.3280 -0.4790
  108SAPE   C3211114   3.411   2.317   5.290  0.1186 -0.1785  0.2339
  108SAPE   H2X11115   3.332   2.390   5.260  0.9975  0.7244  0.0480
  108SAPE   H2Y11116   3.496   2.377   5.330 -0.1930  0.4701 -0.0648
  108SAPE   C2311117   3.151   1.822   5.260  0.0037 -0.0042  0.2201
  108SAPE   H3R11118   3.134   1.918   5.208  0.5644 -0.4925 -0.8875
  108SAPE   H3S11119   3.200   1.859   5.353  0.0002 -0.5445  0.4419
  108SAPE   C2411120   3.020   1.748   5.291 -0.3672  0.0557 -0.7738
  108SAPE   H4R11121   2.960   1.810   5.360 -0.9619 -0.3989 -0.8757
  108SAPE   H4S11122   3.051   1.655   5.344  2.3456  0.1219 -2.0399
  108SAPE   C2511123   2.943   1.719   5.165 -0.4521  0.0409 -0.6001
  108SAPE   H5R11124   2.944   1.790   5.081  0.7726  3.9521  2.4331
  108SAPE   C2611125   2.870   1.603   5.139  0.7416  0.5462 -0.6901
  108SAPE   H6R11126   2.816   1.592   5.044  0.0586  1.2386 -0.3900
  108SAPE   C2711127   2.846   1.481   5.227 -0.4095 -0.5406  0.3614
  108SAPE   H7R11128   2.741   1.485   5.265 -1.1288 -0.1177 -1.5475
  108SAPE   H7S11129   2.906   1.493   5.320 -0.1231  0.3794  0.0646
  108SAPE   C2811130   2.878   1.348   5.165 -0.7572 -0.0592  0.4281
  108SAPE   H8R11131   2.794   1.306   5.109 -1.1653 -0.2529  1.1759
  108SAPE   C2911132   2.993   1.274   5.182  0.4740  0.6016 -0.0422
  108SAPE   H9R11133   2.989   1.173   5.138 -1.7116  0.1000  1.1251
  108SAPE  C21011134   3.112   1.326   5.251 -0.7301  0.7226 -0.2038
  108SAPE  H10R11135   3.087   1.351   5.356  0.6958 -0.0972  0.3604
  108SAPE  H10S11136   3.145   1.422   5.206 -1.2541  0.6861 -0.6821
  108SAPE  C21111137   3.220   1.218   5.235  0.0236  0.1413  0.6985
  108SAPE  H11R11138   3.276   1.214   5.140  0.8030 -1.9420  1.1939
  108SAPE  C21211139   3.248   1.121   5.318 -0.1709  0.4238 -0.3331
  108SAPE  H12R11140   3.317   1.053   5.267  1.4474  1.7792 -0.0368
  108SAPE  C21311141   3.196   1.083   5.454  0.0495 -0.4371 -0.4067
  108SAPE  H13R11142   3.090   1.114   5.467  0.0312 -0.6329 -0.0840
  108SAPE  H13S11143   3.255   1.141   5.529  1.5140 -2.5720  0.1996
  108SAPE  C21411144   3.203   0.938   5.485  0.6214  0.4642 -0.3554
  108SAPE  H14R11145   3.115   0.883   5.448 -0.1422  1.1417  0.3980
  108SAPE  C21511146   3.301   0.868   5.556 -0.2055  0.2332 -0.0629
  108SAPE  H15R11147   3.281   0.760   5.552  0.0927  0.2058 -1.0784
  108SAPE  C21611148   3.431   0.909   5.611 -0.1458 -0.0563 -1.1733
  108SAPE  H16R11149   3.458   1.013   5.583  1.4230  0.3562  1.5156
  108SAPE  H16S11150   3.519   0.843   5.595 -0.3743 -0.3199 -1.3531
  108SAPE  C21711151   3.432   0.948   5.761 -0.1046  0.1089  0.3243
  108SAPE  H17R11152   3.376   0.866   5.811 -0.3308  0.0232 -0.0669
  108SAPE  H17S11153   3.386   1.048   5.777 -2.4784 -0.9315  0.4341
  108SAPE  C21811154   3.571   0.948   5.829 -0.1096 -0.0128 -0.2475
  108SAPE  H18R11155   3.608   0.843   5.832  0.3965  0.1402 -0.8668
  108SAPE  H18S11156   3.558   0.973   5.936  0.8619 -2.0180  0.3762
  108SAPE  C21911157   3.672   1.045   5.768 -0.7525 -0.2731  0.0285
  108SAPE  H19R11158   3.698   1.015   5.664  3.7058  0.6457  0.6761
  108SAPE  H19S11159   3.763   1.064   5.829  0.8487  1.7046 -2.7812
  108SAPE  C22011160   3.628   1.194   5.774  0.1315 -0.7160  0.1899
  108SAPE  H20R11161   3.588   1.227   5.873 -2.6164  0.3582 -1.1670
  108SAPE  H20S11162   3.549   1.218   5.700  0.1867  1.6821  0.8056
  108SAPE  H20T11163   3.707   1.268   5.747 -1.7544  1.2134 -0.3724
  108SAPE   C3311164   3.368   2.213   5.400  0.1127 -0.1425 -0.3088
  108SAPE   H3X11165   3.442   2.134   5.424 -0.7044 -0.9190 -0.2900
  108SAPE   H3Y11166   3.278   2.157   5.368 -0.8441  1.4263 -0.4805
  108SAPE   C3411167   3.319   2.278   5.530 -0.3457 -0.2093 -0.5206
  108SAPE   H4X11168   3.239   2.351   5.506  0.7319  2.3591  2.9049
  108SAPE   H4Y11169   3.409   2.327   5.574  0.5399 -0.4482 -1.9735
  108SAPE   C3511170   3.265   2.173   5.632 -0.6239 -0.1617  0.1606
  108SAPE   H5X11171   3.182   2.119   5.581 -1.2574 -1.3629  2.3369
  108SAPE   H5Y11172   3.345   2.098   5.648 -0.1479 -0.1186 -1.7331
  108SAPE   C3611173   3.226   2.231   5.775 -0.3126  0.8067  0.9644
  108SAPE   H6X11174   3.131   2.289   5.766 -0.0276  0.9629 -1.4751
  108SAPE   H6Y11175   3.312   2.293   5.809 -0.2696  1.4640 -0.3021
  108SAPE   C3711176   3.196   2.112   5.873 -0.2620  0.9329 -0.3343
  108SAPE   H7X11177   3.288   2.052   5.884 -0.4526  0.6062 -0.5274
  108SAPE   H7Y11178   3.117   2.045   5.833 -0.8792  2.0703 -1.0807
  108SAPE   C3811179   3.149   2.163   6.013 -0.0723  0.1219  0.2945
  108SAPE   H8X11180   3.041   2.188   6.017 -0.5896 -1.8969 -0.1342
  108SAPE   H8Y11181   3.217   2.249   6.034  1.4699 -0.8241 -0.6535
  108SAPE   C3911182   3.166   2.055   6.116  0.7437  0.0765 -0.6652
  108SAPE   H9X11183   3.260   2.000   6.097 -0.0964 -1.1509 -1.4128
  108SAPE   H9Y11184   3.082   1.983   6.112 -1.2930  2.3179 -0.4293
  108SAPE  C31011185   3.159   2.105   6.263  0.3442 -0.4529 -0.4413
  108SAPE  H10X11186   3.057   2.147   6.276  0.2958 -0.5602 -0.4726
  108SAPE  H10Y11187   3.227   2.191   6.275 -4.0510  3.1584  1.5654
  108SAPE  C31111188   3.185   1.994   6.365 -0.0314 -0.1187 -0.1713
  108SAPE  H11X11189   3.289   1.955   6.364  0.5043  1.2502 -0.0662
  108SAPE  H11Y11190   3.118   1.914   6.329 -2.8975  2.2840 -0.5684
  108SAPE  C31211191   3.173   2.033   6.511 -0.4225  0.6152 -0.3486
  108SAPE  H12X11192   3.080   2.091   6.532  0.4927  1.2523  2.2967
  108SAPE  H12Y11193   3.259   2.100   6.532 -1.3677  1.6365  0.3569
  108SAPE  C31311194   3.161   1.913   6.614  0.1614  0.2511 -0.4340
  108SAPE  H13X11195   3.261   1.903   6.661 -0.0416  1.0505  0.2049
  108SAPE  H13Y11196   3.119   1.823   6.565  3.6113  0.2732 -3.9727
  108SAPE  C31411197   3.062   1.955   6.720 -0.2124 -0.0537  0.0017
  108SAPE  H14X11198   2.962   1.972   6.674 -0.1246 -2.9502 -1.4800
  108SAPE  H14Y11199   3.097   2.051   6.764  0.4203  0.1071 -0.8271
  108SAPE  C31511200   3.049   1.857   6.840  0.4570 -0.1604  0.8255
  108SAPE  H15X11201   3.136   1.842   6.908  0.8832 -0.6680  0.1789
  108SAPE  H15Y11202   3.034   1.767   6.777 -0.1128  0.1930  0.4402
  108SAPE  C31611203   2.922   1.880   6.934 -1.0225  0.6413  0.1353
  108SAPE  H16X11204   2.833   1.899   6.872 -0.7520 -1.8217 -1.1445
  108SAPE  H16Y11205   2.943   1.962   7.005 -0.4416  0.5469  0.0793
  108SAPE  C31711206   2.907   1.757   7.025 -0.8956  0.2570 -0.2493
  108SAPE  H17X11207   2.932   1.674   6.955  0.1101  0.9418 -0.7388
  108SAPE  H17Y11208   2.804   1.739   7.060 -0.6449 -0.6076  0.0719
  108SAPE  C31811209   2.989   1.780   7.153 -0.0830 -0.1176 -0.3961
  108SAPE  H18X11210   2.996   1.684   7.210  0.8817  0.4708  0.5031
  108SAPE  H18Y11211   2.944   1.869   7.202 -2.0136  1.2464 -4.2814
  108SAPE  H18Z11212   3.095   1.791   7.122 -0.3064 -2.0845 -2.1667
  109SAPE     N11213   5.269   2.208   4.571 -0.5633  0.8309 -0.2189
  109SAPE   HN111214   5.368   2.226   4.546 -0.9615  0.0066 -2.6852
  109SAPE   HN211215   5.259   2.214   4.674  1.7777 -1.8272  0.2866
  109SAPE   HN311216   5.259   2.109   4.539 -0.4938  0.9585 -0.6359
  109SAPE   C1211217   5.159   2.277   4.493  0.9055 -0.0430 -0.1742
  109SAPE  H12A11218   5.169   2.245   4.387 -2.0453 -1.2201 -0.1892
  109SAPE  H12B11219   5.190   2.383   4.506 -0.9704  0.3184  1.8290
  109SAPE   C1111220   5.025   2.251   4.563  0.4795 -0.4772  0.3324
  109SAPE  H11A11221   4.948   2.304   4.502  0.6910 -0.7178 -0.1482
  109SAPE  H11B11222   5.024   2.305   4.660 -1.5650  1.2512 -0.5757
  109SAPE     P11223   4.853   2.070   4.605 -0.0053 -0.6851  0.0984
  109SAPE   O1311224   4.769   2.138   4.501  0.5298  0.1296 -0.2791
  109SAPE   O1411225   4.840   1.920   4.608  0.6471  0.4173 -0.1869
  109SAPE   O1211226   5.001   2.118   4.576  0.1179  0.0331 -0.1773
  109SAPE   O1111227   4.820   2.141   4.743  0.0542  0.0360  0.4086
  109SAPE    C111228   4.920   2.137   4.853 -0.3287 -0.6389 -0.2689
  109SAPE    HA11229   5.008   2.201   4.828 -2.4661  1.8909 -1.8804
  109SAPE    HB11230   4.862   2.173   4.940 -0.2103 -0.4781 -0.2555
  109SAPE    C211231   4.968   1.994   4.885  0.8414  0.1143 -0.4152
  109SAPE    HS11232   5.017   1.945   4.799 -1.9355 -1.5036 -1.1674
  109SAPE   O2111233   4.844   1.924   4.911  0.4606 -0.0550  0.3458
  109SAPE   C2111234   4.859   1.800   4.954  0.7802 -0.5405 -0.0693
  109SAPE   O2211235   4.956   1.729   4.932 -0.1083 -0.3940 -0.5206
  109SAPE   C2211236   4.729   1.756   5.025 -0.9028  0.2075 -0.2133
  109SAPE   H2R11237   4.666   1.848   5.038 -1.7601 -0.5362  1.1263
  109SAPE   H2S11238   4.678   1.676   4.967  0.4349 -1.5990  1.0232
  109SAPE    C311239   5.069   1.990   5.001 -0.9258 -0.4668 -0.2473
  109SAPE    HX11240   5.150   2.053   4.959 -1.6447  0.2870 -0.5043
  109SAPE    HY11241   5.124   1.894   5.015  0.4663  0.4843  1.2367
  109SAPE   O3111242   5.012   2.038   5.124  0.1268  0.0063 -0.1549
  109SAPE   C3111243   5.019   1.969   5.230  0.2671  0.2739 -0.8138
  109SAPE   O3211244   5.067   1.857   5.240  0.6259 -0.3826 -0.3290
  109SAPE   C3211245   4.960   2.051   5.344  0.8387 -0.0933  0.0958
  109SAPE   H2X11246   4.860   2.084   5.309  0.7759 -1.8335 -1.5773
  109SAPE   H2Y11247   5.028   2.134   5.373 -1.5483  1.6159  1.0618
  109SAPE   C2311248   4.753   1.704   5.172 -0.3000  0.0840  0.2840
  109SAPE   H3R11249   4.752   1.789   5.244 -0.7234  0.8863 -0.6404
  109SAPE   H3S11250   4.854   1.659   5.173 -0.8301 -1.1412  0.6486
  109SAPE   C2411251   4.643   1.604   5.215  0.8048 -0.4001  0.0393
  109SAPE   H4R11252   4.675   1.551   5.307 -4.0523  0.1931  2.3658
  109SAPE   H4S11253   4.645   1.530   5.131 -0.9176  0.2154 -0.5961
  109SAPE   C2511254   4.503   1.659   5.228 -0.4228  0.0309  0.3302
  109SAPE   H5R11255   4.447   1.638   5.136 -0.0905  0.2271  0.0818
  109SAPE   C2611256   4.460   1.760   5.309 -0.4493  0.1908 -0.5812
  109SAPE   H6R11257   4.355   1.791   5.302 -0.8073 -0.6274  0.7439
  109SAPE   C2711258   4.530   1.823   5.428  0.2290  0.2379 -0.3907
  109SAPE   H7R11259   4.627   1.859   5.389  2.7655 -3.4107  1.9047
  109SAPE   H7S11260   4.547   1.745   5.506 -0.7591 -0.1204 -0.5215
  109SAPE   C2811261   4.460   1.943   5.495 -0.7155 -0.0536 -0.2766
  109SAPE   H8R11262   4.432   2.026   5.430  0.9085 -0.3545 -1.4515
  109SAPE   C2911263   4.414   1.953   5.624  0.8352  0.6215 -0.2781
  109SAPE   H9R11264   4.383   2.051   5.663 -2.3840 -0.6792  0.7239
  109SAPE  C21011265   4.437   1.838   5.728 -0.7172  0.0892  0.4244
  109SAPE  H10R11266   4.459   1.894   5.822 -4.3966  0.1342  1.4082
  109SAPE  H10S11267   4.530   1.780   5.710 -1.3771 -1.1674  0.9299
  109SAPE  C21111268   4.332   1.729   5.752 -0.3039 -0.2158  0.2175
  109SAPE  H11R11269   4.254   1.716   5.676 -2.4907  2.7177  1.7510
  109SAPE  C21211270   4.328   1.655   5.868 -0.2299 -0.1235  0.0178
  109SAPE  H12R11271   4.255   1.575   5.888  2.4252 -2.4140  1.2539
  109SAPE  C21311272   4.417   1.660   5.990  0.0873  0.2220  0.3519
  109SAPE  H13R11273   4.493   1.739   5.978 -0.0918  0.1761 -1.3232
  109SAPE  H13S11274   4.467   1.560   5.991 -1.7237 -0.7347  1.6399
  109SAPE  C21411275   4.343   1.680   6.117  0.0798 -0.2252  0.3013
  109SAPE  H14R11276   4.283   1.772   6.116  1.2027  0.5248 -0.2084
  109SAPE  C21511277   4.335   1.589   6.214  0.0530  0.4118  0.5988
  109SAPE  H15R11278   4.276   1.606   6.306  0.3365  0.2813  0.8041
  109SAPE  C21611279   4.404   1.452   6.214 -1.2279 -0.8907  0.4015
  109SAPE  H16R11280   4.506   1.462   6.169 -1.1684 -0.5945  0.5992
  109SAPE  H16S11281   4.360   1.366   6.159  0.6577 -2.1123  0.6683
  109SAPE  C21711282   4.419   1.387   6.348  0.0311  0.5022 -0.2501
  109SAPE  H17R11283   4.457   1.468   6.414  0.1542  0.7358 -0.6043
  109SAPE  H17S11284   4.495   1.306   6.354 -0.4691  0.0990  1.4702
  109SAPE  C21811285   4.283   1.317   6.397 -0.8166 -0.6098  0.2783
  109SAPE  H18R11286   4.205   1.353   6.326 -0.0837 -0.4316 -0.4432
  109SAPE  H18S11287   4.277   1.362   6.499  1.9930 -0.6606  0.5240
  109SAPE  C21911288   4.289   1.165   6.396  0.5416 -0.4224  0.7217
  109SAPE  H19R11289   4.362   1.139   6.476 -0.8027  0.3491  2.2424
  109SAPE  H19S11290   4.333   1.134   6.298  3.0425  0.8703  1.3406
  109SAPE  C22011291   4.150   1.104   6.414  0.6294 -0.4439  0.7554
  109SAPE  H20R11292   4.093   1.115   6.320 -0.3855 -1.5121  1.2176
  109SAPE  H20S11293   4.094   1.149   6.499  2.7636  1.3232  1.3138
  109SAPE  H20T11294   4.172   0.998   6.440 -0.2712 -0.2586  2.4470
  109SAPE   C3311295   4.932   1.961   5.463  0.4842  0.1125 -0.4877
  109SAPE   H3X11296   5.024   1.910   5.500 -0.2137 -0.3545  0.6755
  109SAPE   H3Y11297   4.864   1.884   5.422  0.9746  1.0163 -3.1596
  109SAPE   C3411298   4.868   2.040   5.581  0.5260 -0.0306  0.2427
  109SAPE   H4X11299   4.778   2.091   5.539  2.3896  1.7943 -1.8310
  109SAPE   H4Y11300   4.927   2.128   5.615 -0.7403  1.3058 -0.8568
  109SAPE   C3511301   4.835   1.958   5.711  0.2688 -0.6600 -0.3062
  109SAPE   H5X11302   4.747   1.889   5.713  1.0297 -1.6319  1.3291
  109SAPE   H5Y11303   4.818   2.034   5.789  0.1306 -0.6999 -0.2977
  109SAPE   C3611304   4.954   1.886   5.765 -0.2280  0.5815 -0.4207
  109SAPE   H6X11305   5.037   1.956   5.790 -0.4546  0.1709  1.6509
  109SAPE   H6Y11306   4.994   1.815   5.690 -0.9357  1.5561 -1.7788
  109SAPE   C3711307   4.931   1.812   5.896 -0.5901 -0.5992 -0.5038
  109SAPE   H7X11308   5.037   1.787   5.920  0.3037  1.0077 -2.4724
  109SAPE   H7Y11309   4.871   1.723   5.868  0.2803 -1.2292 -0.4049
  109SAPE   C3811310   4.855   1.891   6.003 -0.4059  0.0540 -0.3404
  109SAPE   H8X11311   4.749   1.864   5.985  0.0600 -1.9352 -0.3141
  109SAPE   H8Y11312   4.863   2.001   5.991 -0.4977 -0.0096 -1.0209
  109SAPE   C3911313   4.905   1.857   6.142  0.7028  0.2840  0.2354
  109SAPE   H9X11314   5.007   1.899   6.152  1.6195 -1.9037  0.6467
  109SAPE   H9Y11315   4.928   1.751   6.167  0.4668  0.7823  2.8640
  109SAPE  C31011316   4.828   1.918   6.262  0.1035  0.3999  0.0175
  109SAPE  H10X11317   4.833   2.028   6.253 -0.2190  0.5167  1.1317
  109SAPE  H10Y11318   4.885   1.893   6.354 -1.0922 -0.0119  0.6719
  109SAPE  C31111319   4.681   1.872   6.267  0.5835  0.4029 -0.2926
  109SAPE  H11X11320   4.657   1.769   6.232 -1.6646  0.6059  0.4765
  109SAPE  H11Y11321   4.625   1.936   6.195 -0.2562  0.7730  0.6668
  109SAPE  C31211322   4.632   1.884   6.407  0.3084  0.4126 -0.2799
  109SAPE  H12X11323   4.625   1.993   6.427 -1.9936 -0.0343  1.7468
  109SAPE  H12Y11324   4.711   1.843   6.475  1.0835  1.5183 -0.4765
  109SAPE  C31311325   4.506   1.813   6.434  0.8529 -0.1416 -0.5385
  109SAPE  H13X11326   4.515   1.702   6.436  0.4371 -0.1953 -1.1880
  109SAPE  H13Y11327   4.440   1.835   6.347 -0.2024  0.3499  0.3643
  109SAPE  C31411328   4.434   1.866   6.565  0.6652  0.2940  0.3426
  109SAPE  H14X11329   4.424   1.976   6.566  0.6366  0.3019 -0.3827
  109SAPE  H14Y11330   4.499   1.831   6.649  1.2489 -0.4901 -0.4203
  109SAPE  C31511331   4.295   1.803   6.575  0.4749 -0.5387 -0.0643
  109SAPE  H15X11332   4.244   1.809   6.476 -3.1357 -1.3025  1.5929
  109SAPE  H15Y11333   4.228   1.862   6.640  1.9110  0.4280  0.5913
  109SAPE  C31611334   4.295   1.663   6.620  0.3851  0.3216 -0.2093
  109SAPE  H16X11335   4.358   1.662   6.711  1.1317 -0.1246 -0.7114
  109SAPE  H16Y11336   4.342   1.617   6.530 -0.3982  2.4997 -1.8000
  109SAPE  C31711337   4.153   1.608   6.647 -0.0561  0.4638  0.2591
  109SAPE  H17X11338   4.097   1.582   6.555  0.7483 -1.5711  0.2931
  109SAPE  H17Y11339   4.091   1.679   6.706  0.9209  1.7759 -0.2438
  109SAPE  C31811340   4.149   1.484   6.743  0.6055 -0.1501 -0.7291
  109SAPE  H18X11341   4.238   1.421   6.723  0.2266  0.0028 -3.2284
  109SAPE  H18Y11342   4.059   1.421   6.728 -0.7285  1.1828  1.1335
  109SAPE  H18Z11343   4.145   1.523   6.847 -1.9453 -1.0044 -0.4190
  110SAPE     N11344   0.697   3.334   4.672  0.1569 -0.0116 -0.5772
  110SAPE   HN111345   0.709   3.345   4.774  1.6488 -2.0985 -0.4611
  110SAPE   HN211346   0.610   3.379   4.636  0.5730  1.1179 -0.2346
  110SAPE   HN311347   0.695   3.231   4.662 -0.6625 -0.6039  3.9869
  110SAPE   C1211348   0.808   3.402   4.604 -0.2857  1.1301 -0.8887
  110SAPE  H12A11349   0.862   3.329   4.540  1.7455  0.3335  1.5633
  110SAPE  H12B11350   0.885   3.424   4.682  0.2242 -0.8529 -0.7826
  110SAPE   C1111351   0.753   3.520   4.529  0.4184  0.0709  0.1520
  110SAPE  H11A11352   0.688   3.578   4.597 -0.1872 -1.4041  0.8812
  110SAPE  H11B11353   0.701   3.500   4.433  0.4551  2.4217 -0.4173
  110SAPE     P11354   0.855   3.735   4.450 -0.2182  0.1307 -0.0655
  110SAPE   O1311355   0.988   3.796   4.414  0.1844  0.2842  0.3287
  110SAPE   O1411356   0.761   3.728   4.336  0.0290  0.4183 -0.2419
  110SAPE   O1211357   0.869   3.597   4.511  0.2098  0.2049  0.3735
  110SAPE   O1111358   0.790   3.828   4.560  0.0558 -0.1402 -0.3465
  110SAPE    C111359   0.873   3.862   4.675  0.3041 -0.3666  0.5078
  110SAPE    HA11360   0.977   3.882   4.644 -0.0644  2.0075  0.6080
  110SAPE    HB11361   0.833   3.959   4.712  2.0541  0.5729  0.0444
  110SAPE    C211362   0.877   3.762   4.794 -0.2358  0.4734  0.1052
  110SAPE    HS11363   0.889   3.660   4.752 -0.3469  0.4940  0.0211
  110SAPE   O2111364   0.765   3.787   4.879  0.2482 -0.0757  0.2953
  110SAPE   C2111365   0.688   3.685   4.906  0.4412  0.6992 -0.3430
  110SAPE   O2211366   0.697   3.569   4.863  0.0815 -0.2071 -0.4274
  110SAPE   C2211367   0.580   3.725   4.999  0.3800 -0.0361  0.0331
  110SAPE   H2R11368   0.576   3.836   4.993 -0.9893 -0.0645  0.0879
  110SAPE   H2S11369   0.489   3.683   4.952  1.0227 -0.9190 -0.4525
  110SAPE    C311370   1.005   3.792   4.876 -0.1664 -0.2796 -0.3533
  110SAPE    HX11371   1.099   3.764   4.822  0.0601  1.2595 -0.7901
  110SAPE    HY11372   1.003   3.900   4.898 -1.4137 -0.7485  2.2041
  110SAPE   O3111373   1.006   3.733   5.009 -0.4452  0.1010  0.4197
  110SAPE   C3111374   1.040   3.612   5.012  0.2663  1.0837 -0.3558
  110SAPE   O3211375   1.070   3.535   4.919  0.1143 -0.5085 -0.0808
  110SAPE   C3211376   1.034   3.568   5.158 -0.1068  0.5533  0.1269
  110SAPE   H2X11377   0.934   3.583   5.202  0.9184  2.2123  2.0752
  110SAPE   H2Y11378   1.100   3.637   5.215 -2.1324  2.1175  0.6767
  110SAPE   C2311379   0.588   3.678   5.146 -0.9437  0.0124 -0.0764
  110SAPE   H3R11380   0.623   3.573   5.157 -1.8861 -0.3604 -0.5409
  110SAPE   H3S11381   0.484   3.677   5.186 -1.2025 -0.5300 -0.7437
  110SAPE   C2411382   0.686   3.767   5.226 -0.6255 -0.0383 -0.2197
  110SAPE   H4R11383   0.666   3.877   5.227 -0.0028  0.0803 -0.2989
  110SAPE   H4S11384   0.780   3.763   5.168 -1.0645  0.9528 -1.0241
  110SAPE   C2511385   0.708   3.716   5.367 -0.2060 -0.2501 -0.1515
  110SAPE   H5R11386   0.775   3.631   5.382  1.0386  0.8478  0.7821
  110SAPE   C2611387   0.654   3.767   5.473 -0.4868 -0.8671 -0.7576
  110SAPE   H6R11388   0.689   3.724   5.568  1.5626 -2.7958 -2.2790
  110SAPE   C2711389   0.553   3.870   5.486 -0.0772  0.1901  0.5217
  110SAPE   H7R11390   0.482   3.827   5.560 -0.8583 -1.6148 -1.1750
  110SAPE   H7S11391   0.500   3.877   5.389  0.8904 -0.7926 -0.1065
  110SAPE   C2811392   0.621   4.000   5.519  0.5741 -0.9032 -0.3644
  110SAPE   H8R11393   0.673   4.041   5.431 -0.7494 -1.6141 -1.5228
  110SAPE   C2911394   0.605   4.074   5.632  0.5130 -0.4992  0.0983
  110SAPE   H9R11395   0.654   4.173   5.624 -1.8687  0.6756 -1.0839
  110SAPE  C21011396   0.526   4.037   5.754 -0.1985 -0.1205  0.7605
  110SAPE  H10R11397   0.583   3.955   5.803  0.3184 -0.2254  0.0075
  110SAPE  H10S11398   0.423   4.004   5.731 -0.1696  0.2823  0.0533
  110SAPE  C21111399   0.528   4.151   5.854  0.5799  0.5299  0.0996
  110SAPE  H11R11400   0.481   4.242   5.813 -0.9108 -1.0515 -1.9032
  110SAPE  C21211401   0.580   4.161   5.976  0.1845  0.1060 -0.6546
  110SAPE  H12R11402   0.567   4.258   6.028  0.4014  0.5672 -1.4416
  110SAPE  C21311403   0.660   4.051   6.038  0.4196  0.6315 -0.0232
  110SAPE  H13R11404   0.748   4.095   6.088 -1.0342  2.2602  1.1949
  110SAPE  H13S11405   0.694   3.985   5.955 -1.2145  1.2295 -1.2280
  110SAPE  C21411406   0.584   3.973   6.141 -0.0040 -0.3592  0.6005
  110SAPE  H14R11407   0.475   3.987   6.130  0.3649  4.2136  0.9052
  110SAPE  C21511408   0.633   3.908   6.243 -0.7199  0.5495  0.0553
  110SAPE  H15R11409   0.566   3.840   6.296  1.7224 -1.6116  0.5751
  110SAPE  C21611410   0.777   3.895   6.280 -0.3411 -0.4910 -0.0716
  110SAPE  H16R11411   0.846   3.944   6.208 -1.7764 -1.9004 -2.5610
  110SAPE  H16S11412   0.799   3.786   6.280  0.7417 -0.2905  0.8013
  110SAPE  C21711413   0.806   3.943   6.421 -0.1058 -0.5331  0.2482
  110SAPE  H17R11414   0.752   3.879   6.494 -0.1876 -0.7315  0.0156
  110SAPE  H17S11415   0.769   4.047   6.435 -0.3462 -0.6192  0.2413
  110SAPE  C21811416   0.950   3.950   6.467 -0.1507 -0.2948  0.1803
  110SAPE  H18R11417   0.993   4.036   6.411 -2.1412 -0.9146 -2.5134
  110SAPE  H18S11418   0.986   3.853   6.427 -1.3814 -0.9201  0.5188
  110SAPE  C21911419   0.967   3.952   6.617 -0.4444 -0.2327 -1.0006
  110SAPE  H19R11420   1.063   3.913   6.656 -1.2229 -1.1480  0.0606
  110SAPE  H19S11421   0.896   3.877   6.658  0.4222 -2.1377 -2.7962
  110SAPE  C22011422   0.973   4.094   6.681 -0.1831  0.0395  0.2322
  110SAPE  H20R11423   0.876   4.147   6.676 -0.9358 -1.3268 -3.7811
  110SAPE  H20S11424   1.059   4.157   6.650  0.2427  0.0265  1.3550
  110SAPE  H20T11425   0.983   4.069   6.788 -1.6298 -0.6008  0.2396
  110SAPE   C3311426   1.082   3.417   5.187  0.1038  0.8080  0.0076
  110SAPE   H3X11427   1.173   3.386   5.131 -0.9804 -1.3489 -0.6746
  110SAPE   H3Y11428   1.000   3.348   5.160  1.0273 -0.1336 -0.4791
  110SAPE   C3411429   1.084   3.382   5.337 -0.6436  0.4647  0.0709
  110SAPE   H4X11430   1.191   3.384   5.365 -0.7755  1.5843  0.5338
  110SAPE   H4Y11431   1.041   3.280   5.349 -0.6407  0.6043  1.5043
  110SAPE   C3511432   1.000   3.476   5.420  0.5639 -0.2258  0.0315
  110SAPE   H5X11433   0.899   3.459   5.377  0.7102  0.4246 -0.6004
  110SAPE   H5Y11434   1.033   3.582   5.407 -0.5064 -0.1856 -3.8163
  110SAPE   C3611435   1.005   3.454   5.574 -0.0871 -0.3048  0.1341
  110SAPE   H6X11436   0.933   3.518   5.629  0.5329  1.4660 -1.0345
  110SAPE   H6Y11437   1.108   3.469   5.614 -0.4675 -0.8844  1.4139
  110SAPE   C3711438   0.967   3.311   5.616  0.0677  1.6609 -0.6519
  110SAPE   H7X11439   1.045   3.242   5.577 -1.2461 -0.8636  0.9639
  110SAPE   H7Y11440   0.877   3.292   5.555  1.0624  0.1943 -1.7358
  110SAPE   C3811441   0.955   3.303   5.765 -0.1171  0.0240 -0.6272
  110SAPE   H8X11442   0.873   3.364   5.809 -1.3258 -1.0791 -1.2609
  110SAPE   H8Y11443   1.049   3.337   5.814 -0.0368  0.6000 -1.1600
  110SAPE   C3911444   0.937   3.159   5.821  0.0386 -0.3834 -0.3661
  110SAPE   H9X11445   1.002   3.081   5.775  0.8261  0.6895 -1.1230
  110SAPE   H9Y11446   0.832   3.129   5.799 -0.7467  3.1275 -2.1801
  110SAPE  C31011447   0.970   3.158   5.974 -0.0063  0.0502 -0.0389
  110SAPE  H10X11448   0.898   3.224   6.025  0.7711 -1.0140  2.6057
  110SAPE  H10Y11449   1.073   3.194   5.998  0.3698 -0.7359 -0.4010
  110SAPE  C31111450   0.949   3.020   6.033  0.9298  0.1992  0.6961
  110SAPE  H11X11451   1.004   2.939   5.982 -0.0481  0.3584 -0.6668
  110SAPE  H11Y11452   0.842   2.991   6.021  1.2309 -0.7847  0.3119
  110SAPE  C31211453   0.991   3.020   6.179 -0.5542  0.9472  0.1102
  110SAPE  H12X11454   1.079   3.085   6.197  1.5707 -1.4005 -1.1509
  110SAPE  H12Y11455   1.032   2.920   6.207  1.3287  1.8485  0.7471
  110SAPE  C31311456   0.878   3.067   6.262 -0.5127  0.7997 -0.0966
  110SAPE  H13X11457   0.793   2.996   6.271  0.4656 -0.5266 -0.9804
  110SAPE  H13Y11458   0.836   3.162   6.222  1.5225  1.8629  0.1771
  110SAPE  C31411459   0.934   3.093   6.406  0.7469 -0.1825  0.3076
  110SAPE  H14X11460   1.022   3.160   6.402  1.8698 -1.6283 -2.7649
  110SAPE  H14Y11461   0.998   3.003   6.426  0.4582 -0.4156  0.1928
  110SAPE  C31511462   0.831   3.122   6.504 -0.3820 -0.2788 -0.6541
  110SAPE  H15X11463   0.881   3.119   6.603  0.7281  0.2064 -1.1845
  110SAPE  H15Y11464   0.753   3.042   6.503 -0.3641 -0.2976 -0.5798
  110SAPE  C31611465   0.762   3.256   6.488 -0.1965 -0.1931 -0.2078
  110SAPE  H16X11466   0.673   3.263   6.554  0.4270 -1.7814  0.8548
  110SAPE  H16Y11467   0.729   3.273   6.384  0.5497  1.3695 -0.2199
  110SAPE  C31711468   0.851   3.372   6.516  0.0649  0.3132 -0.2106
  110SAPE  H17X11469   0.936   3.365   6.445  0.3746  2.3289 -0.0883
  110SAPE  H17Y11470   0.890   3.372   6.620  1.1155  0.8061 -0.5970
  110SAPE  C31811471   0.784   3.511   6.490 -0.3673  0.4685  0.1196
  110SAPE  H18X11472   0.751   3.525   6.385 -2.3246 -2.3717  0.2216
  110SAPE  H18Y11473   0.844   3.599   6.522 -1.1481  1.0532  0.0224
  110SAPE  H18Z11474   0.688   3.525   6.546 -0.5838  0.9498 -0.3539
  111SAPE     N11475   0.237   4.216   4.194  0.0313 -0.2355 -0.4137
  111SAPE   HN111476   0.273   4.153   4.269  2.5926 -0.9428 -2.0905
  111SAPE   HN211477   0.207   4.168   4.108 -0.7393  0.4906 -0.5627
  111SAPE   HN311478   0.325   4.272   4.183 -2.2848  3.9017 -0.0026
  111SAPE   C1211479   0.124   4.304   4.240 -0.0943  0.7158  0.2000
  111SAPE  H12A11480   0.030   4.276   4.189 -0.5384 -0.8029  1.7481
  111SAPE  H12B11481   0.142   4.408   4.207 -2.4472  0.8318 -0.9039
  111SAPE   C1111482   0.094   4.282   4.389  0.0098  1.1364 -0.1296
  111SAPE  H11A11483   0.060   4.176   4.380 -3.0976  2.0198  0.1468
  111SAPE  H11B11484   0.008   4.340   4.429 -0.1138  0.0193  1.3244
  111SAPE     P11485   0.258   4.406   4.557 -0.2021 -0.5055 -0.3649
  111SAPE   O1311486   0.322   4.502   4.469 -0.0246  0.0100 -0.1906
  111SAPE   O1411487   0.154   4.449   4.645 -0.0613  0.0577 -0.6061
  111SAPE   O1211488   0.209   4.279   4.469 -0.0872 -0.1999 -0.4530
  111SAPE   O1111489   0.374   4.353   4.645 -0.2534  0.5851 -0.1125
  111SAPE    C111490   0.391   4.210   4.656  0.5226  0.0355  0.1379
  111SAPE    HA11491   0.295   4.155   4.660 -0.2489  1.2313 -1.0196
  111SAPE    HB11492   0.456   4.174   4.573  1.1829  2.4355 -0.4792
  111SAPE    C211493   0.459   4.173   4.790 -0.7555 -0.2098 -0.0213
  111SAPE    HS11494   0.460   4.062   4.793  0.1589 -0.1910  1.8800
  111SAPE   O2111495   0.397   4.228   4.907  0.2632 -0.4429  0.0416
  111SAPE   C2111496   0.400   4.147   5.017  0.7660 -0.0346 -0.7657
  111SAPE   O2211497   0.440   4.032   5.018  0.2508  0.4966  0.4374
  111SAPE   C2211498   0.354   4.233   5.138  0.4444  0.6741  0.0847
  111SAPE   H2R11499   0.381   4.335   5.104  1.1351  0.1076 -1.1189
  111SAPE   H2S11500   0.245   4.214   5.146  0.8774 -2.3293  0.1153
  111SAPE    C311501   0.610   4.218   4.774 -0.9286  0.2833 -0.3463
  111SAPE    HX11502   0.613   4.328   4.788  1.5048  0.3955 -1.3120
  111SAPE    HY11503   0.640   4.202   4.668 -0.9869  0.7613 -0.4374
  111SAPE   O3111504   0.702   4.143   4.857 -0.0017  0.0413 -0.3971
  111SAPE   C3111505   0.722   4.201   4.971 -0.4806  0.1708  0.6866
  111SAPE   O3211506   0.676   4.302   5.016 -0.5670  0.1158 -0.2413
  111SAPE   C3211507   0.828   4.116   5.035  0.9248  0.6099  0.0218
  111SAPE   H2X11508   0.910   4.086   4.967  1.4817  2.1905 -0.0586
  111SAPE   H2Y11509   0.775   4.025   5.070 -0.3696  0.9732 -0.8805
  111SAPE   C2311510   0.422   4.221   5.273  0.2927  0.4129 -0.4567
  111SAPE   H3R11511   0.518   4.275   5.278  0.8539 -0.5215 -0.8913
  111SAPE   H3S11512   0.451   4.116   5.297 -1.5380 -0.2114 -0.8116
  111SAPE   C2411513   0.326   4.267   5.382  0.2917 -0.6430  0.0790
  111SAPE   H4R11514   0.366   4.229   5.478 -2.0595 -0.6147  1.1463
  111SAPE   H4S11515   0.223   4.225   5.377  0.1926 -0.2922 -1.2768
  111SAPE   C2511516   0.311   4.420   5.377  0.4480  0.0958 -0.9363
  111SAPE   H5R11517   0.325   4.459   5.275  1.5533  0.1506 -0.7674
  111SAPE   C2611518   0.325   4.509   5.480  0.3156 -0.4426  0.6472
  111SAPE   H6R11519   0.339   4.616   5.458 -4.2319 -0.0766 -1.6999
  111SAPE   C2711520   0.345   4.493   5.626 -0.2500 -0.5288 -0.0924
  111SAPE   H7R11521   0.346   4.589   5.681 -0.7034 -0.9573  0.6948
  111SAPE   H7S11522   0.446   4.448   5.637  0.6668  1.2797 -0.7452
  111SAPE   C2811523   0.240   4.408   5.680  0.0366  0.1240 -0.2613
  111SAPE   H8R11524   0.174   4.361   5.605 -0.3862 -1.0092  0.7788
  111SAPE   C2911525   0.206   4.387   5.806  0.2035 -0.2288  0.1499
  111SAPE   H9R11526   0.124   4.316   5.824 -0.4359 -0.0621 -1.8646
  111SAPE  C21011527   0.277   4.449   5.922  0.3951 -0.2250  0.1951
  111SAPE  H10R11528   0.382   4.461   5.888 -0.5489  0.4376 -2.7472
  111SAPE  H10S11529   0.296   4.384   6.010 -0.1587 -1.0600 -0.2888
  111SAPE  C21111530   0.212   4.582   5.953 -0.8852 -0.0018  0.2217
  111SAPE  H11R11531   0.103   4.575   5.959 -0.9288 -3.1880 -1.8582
  111SAPE  C21211532   0.259   4.706   5.971  0.1508  0.2731  0.1879
  111SAPE  H12R11533   0.189   4.788   5.987  1.2431  1.5610 -1.2730
  111SAPE  C21311534   0.410   4.734   5.973  0.3712 -0.0711  0.4839
  111SAPE  H13R11535   0.429   4.829   5.919 -0.1424  1.3640  2.6939
  111SAPE  H13S11536   0.470   4.656   5.923  1.0606  0.2304  0.8352
  111SAPE  C21411537   0.475   4.762   6.106  0.1903 -0.0121 -0.0270
  111SAPE  H14R11538   0.524   4.859   6.124  3.4410 -1.3540 -0.9781
  111SAPE  C21511539   0.522   4.670   6.189  0.9077 -0.1588 -0.2804
  111SAPE  H15R11540   0.567   4.706   6.283  0.4411 -2.2320  0.7831
  111SAPE  C21611541   0.505   4.523   6.184 -0.1317  0.1444  0.3641
  111SAPE  H16R11542   0.596   4.478   6.229  0.4072 -0.5905 -1.3582
  111SAPE  H16S11543   0.499   4.476   6.083  0.6982  0.8953 -0.0416
  111SAPE  C21711544   0.380   4.478   6.265  0.0348 -0.2591  0.6753
  111SAPE  H17R11545   0.294   4.521   6.208  1.6817  1.9937 -0.2438
  111SAPE  H17S11546   0.387   4.525   6.365 -0.1911  1.5516 -0.1297
  111SAPE  C21811547   0.373   4.321   6.288  0.2931 -0.2758 -0.5283
  111SAPE  H18R11548   0.394   4.276   6.189 -0.6566 -2.0224  0.0254
  111SAPE  H18S11549   0.276   4.288   6.332 -0.1687  1.5842 -0.0346
  111SAPE  C21911550   0.472   4.264   6.384 -0.0749 -0.0606  0.0816
  111SAPE  H19R11551   0.573   4.292   6.348  0.2566  1.9286  2.3091
  111SAPE  H19S11552   0.462   4.155   6.368  1.8192 -0.0454 -1.5871
  111SAPE  C22011553   0.447   4.314   6.526 -0.1057  0.3711  0.4686
  111SAPE  H20R11554   0.488   4.418   6.532 -0.6048  0.6599 -0.8729
  111SAPE  H20S11555   0.494   4.247   6.601 -1.9102  0.3961  1.7119
  111SAPE  H20T11556   0.340   4.312   6.557  0.0579 -2.2758  1.0483
  111SAPE   C3311557   0.885   4.184   5.164 -0.0230  0.0040  0.7014
  111SAPE   H3X11558   0.798   4.222   5.221 -1.8171 -1.0703 -1.1735
  111SAPE   H3Y11559   0.951   4.268   5.134 -0.3272 -0.1600 -0.4934
  111SAPE   C3411560   0.947   4.079   5.265 -0.1699  0.3616  1.0113
  111SAPE   H4X11561   1.042   4.039   5.222  0.5757  1.4366  1.6224
  111SAPE   H4Y11562   0.878   3.992   5.264 -1.7538  1.4303 -2.8473
  111SAPE   C3511563   0.965   4.135   5.410 -0.2898  0.7524 -0.1950
  111SAPE   H5X11564   0.868   4.168   5.453  0.5615  0.4514  2.0863
  111SAPE   H5Y11565   1.043   4.212   5.428  2.3492 -1.7965  0.0063
  111SAPE   C3611566   1.012   4.023   5.507  0.2462 -0.0337 -0.6650
  111SAPE   H6X11567   1.112   3.992   5.469  0.6159 -0.2302  0.4368
  111SAPE   H6Y11568   0.944   3.935   5.503 -1.3598  1.1636 -1.0327
  111SAPE   C3711569   1.019   4.074   5.659 -0.3822 -0.9467 -0.2433
  111SAPE   H7X11570   0.918   4.106   5.692  0.0651  2.2042 -1.5876
  111SAPE   H7Y11571   1.078   4.167   5.675 -3.0078  0.5684  1.2812
  111SAPE   C3811572   1.077   3.973   5.757  0.2243  0.4834  0.4887
  111SAPE   H8X11573   1.104   4.036   5.845  1.2478  2.9214 -1.4411
  111SAPE   H8Y11574   1.172   3.933   5.715 -0.2677  0.3598 -0.5335
  111SAPE   C3911575   0.981   3.866   5.789  0.5054 -0.2946 -0.9863
  111SAPE   H9X11576   0.962   3.784   5.716  0.0932 -0.5671 -0.5805
  111SAPE   H9Y11577   0.880   3.903   5.818  1.0991 -0.3579  1.3541
  111SAPE  C31011578   1.027   3.780   5.909  0.3007  0.5805 -0.0322
  111SAPE  H10X11579   1.045   3.844   5.998 -0.2665  0.6925  0.0033
  111SAPE  H10Y11580   1.126   3.732   5.891  0.4554  0.5115  0.9915
  111SAPE  C31111581   0.928   3.677   5.954 -0.5018  0.1013  0.2936
  111SAPE  H11X11582   0.922   3.593   5.881  2.3611  0.3323 -0.3322
  111SAPE  H11Y11583   0.825   3.716   5.969  0.4425  2.2574  1.5791
  111SAPE  C31211584   0.969   3.610   6.086  0.0785  0.1339 -0.4434
  111SAPE  H12X11585   0.891   3.538   6.118  0.0471  0.6704  0.7669
  111SAPE  H12Y11586   0.980   3.698   6.154  0.0546 -1.0402  1.1380
  111SAPE  C31311587   1.097   3.528   6.082 -0.2998  0.2810 -0.4374
  111SAPE  H13X11588   1.182   3.595   6.060  0.6036 -0.5127  0.5644
  111SAPE  H13Y11589   1.083   3.446   6.008  0.9257  0.1425 -0.5358
  111SAPE  C31411590   1.127   3.468   6.219 -0.4548 -0.1315  0.2353
  111SAPE  H14X11591   1.208   3.394   6.203 -0.4143  0.1948 -1.2545
  111SAPE  H14Y11592   1.042   3.407   6.256 -0.0468 -1.3839 -0.8091
  111SAPE  C31511593   1.160   3.583   6.321 -0.2119  0.2452  0.6900
  111SAPE  H15X11594   1.079   3.656   6.342  0.0430  0.0312  2.5356
  111SAPE  H15Y11595   1.232   3.655   6.277 -2.4911  3.5446  1.9675
  111SAPE  C31611596   1.219   3.531   6.452  0.2979 -0.1673 -0.5718
  111SAPE  H16X11597   1.288   3.446   6.432  1.3863  0.2231  1.3405
  111SAPE  H16Y11598   1.145   3.499   6.528 -0.0745 -0.8045 -1.1967
  111SAPE  C31711599   1.301   3.643   6.526 -0.2611 -0.0549  0.6451
  111SAPE  H17X11600   1.233   3.730   6.543 -0.2938 -0.1462  1.0009
  111SAPE  H17Y11601   1.383   3.693   6.470 -0.9417  2.7836  1.9583
  111SAPE  C31811602   1.353   3.593   6.660 -0.2924 -0.2490  0.2285
  111SAPE  H18X11603   1.266   3.552   6.716 -0.0624  0.1096  0.8545
  111SAPE  H18Y11604   1.405   3.674   6.715 -0.9482  0.2272  0.1565
  111SAPE  H18Z11605   1.421   3.511   6.630  0.8398  0.7232  0.0675
  112SAPE     N11606   2.204   6.356   4.713  0.0349  0.0420  0.2457
  112SAPE   HN111607   2.120   6.373   4.772 -1.2578  2.0856 -1.9637
  112SAPE   HN211608   2.288   6.342   4.772 -0.2556  0.5305  0.7791
  112SAPE   HN311609   2.213   6.434   4.644 -1.0750 -0.0929 -0.0783
  112SAPE   C1211610   2.166   6.230   4.639  0.2149  0.0467 -0.3895
  112SAPE  H12A11611   2.085   6.264   4.570 -0.0086  0.3636  0.0265
  112SAPE  H12B11612   2.112   6.155   4.702 -2.8041  1.6316 -0.8801
  112SAPE   C1111613   2.291   6.170   4.567 -0.3274  0.3765 -0.6523
  112SAPE  H11A11614   2.257   6.082   4.509  0.4144 -1.1730  1.1379
  112SAPE  H11B11615   2.372   6.140   4.638  0.2351  1.0529 -0.9903
  112SAPE     P11616   2.446   6.230   4.362  0.0452  0.2259 -0.5996
  112SAPE   O1311617   2.401   6.111   4.295 -0.4804 -0.5765  0.2875
  112SAPE   O1411618   2.464   6.347   4.278  0.2440 -0.1400  0.2879
  112SAPE   O1211619   2.343   6.267   4.481 -0.5055 -0.0168 -0.1202
  112SAPE   O1111620   2.579   6.207   4.446  0.2260  0.4952 -0.2129
  112SAPE    C111621   2.643   6.321   4.506  0.3729 -0.2639 -0.3736
  112SAPE    HA11622   2.681   6.395   4.432 -0.6798 -0.0267 -0.6866
  112SAPE    HB11623   2.572   6.375   4.572  1.4918  0.2948  0.4038
  112SAPE    C211624   2.754   6.254   4.595 -0.3817  0.1976  0.7201
  112SAPE    HS11625   2.787   6.337   4.661 -1.6159  0.5678  0.8949
  112SAPE   O2111626   2.871   6.205   4.520  0.5316 -0.6332  0.1185
  112SAPE   C2111627   2.963   6.296   4.492  0.1013  0.3099 -1.1709
  112SAPE   O2211628   2.966   6.413   4.535 -0.2015  0.6135 -0.2980
  112SAPE   C2211629   3.064   6.236   4.399 -0.5271  0.6619  0.0010
  112SAPE   H2R11630   3.029   6.135   4.370  0.3468 -0.6106  2.9940
  112SAPE   H2S11631   3.070   6.294   4.305 -0.7004 -1.0631 -1.1171
  112SAPE    C311632   2.710   6.128   4.674 -0.3417  0.3924 -0.0168
  112SAPE    HX11633   2.716   6.036   4.613 -1.3041  0.6818 -0.5714
  112SAPE    HY11634   2.602   6.148   4.689 -0.3960 -0.6148  1.1371
  112SAPE   O3111635   2.785   6.112   4.794  0.7345  0.2045 -0.6580
  112SAPE   C3111636   2.731   6.179   4.903 -0.3264  0.0426  0.3098
  112SAPE   O3211637   2.618   6.224   4.908  0.1144  0.8330  0.1407
  112SAPE   C3211638   2.837   6.184   5.010 -0.4282 -0.3621 -0.6119
  112SAPE   H2X11639   2.915   6.253   4.971 -1.4662  0.6608 -0.9052
  112SAPE   H2Y11640   2.876   6.080   5.018  0.8205  0.1220 -0.1574
  112SAPE   C2311641   3.203   6.213   4.460  0.0122  0.1867 -0.1065
  112SAPE   H3R11642   3.238   6.307   4.508 -0.2865  0.8843 -1.2288
  112SAPE   H3S11643   3.267   6.191   4.373 -1.1461  0.9655 -1.1952
  112SAPE   C2411644   3.202   6.093   4.555  0.4965  0.2705  0.5047
  112SAPE   H4R11645   3.217   6.009   4.484 -0.0064  0.1767  0.5038
  112SAPE   H4S11646   3.113   6.090   4.621  1.9426  0.8425  2.5890
  112SAPE   C2511647   3.318   6.102   4.649 -0.6612 -0.0948 -0.0455
  112SAPE   H5R11648   3.398   6.170   4.614  0.0461 -0.4251  0.8920
  112SAPE   C2611649   3.324   6.064   4.783  0.0344 -1.1068  1.0628
  112SAPE   H6R11650   3.423   6.078   4.829  0.9212  0.5134 -1.1544
  112SAPE   C2711651   3.227   5.975   4.857  0.5301  0.3349 -0.2359
  112SAPE   H7R11652   3.165   5.914   4.788 -0.9734  1.7759 -0.2345
  112SAPE   H7S11653   3.148   6.040   4.901  0.0979  1.3406 -2.3673
  112SAPE   C2811654   3.282   5.882   4.961  0.4075 -0.4596 -0.3979
  112SAPE   H8R11655   3.297   5.778   4.930  1.7538 -0.0680 -1.1208
  112SAPE   C2911656   3.300   5.910   5.093 -0.6494  0.1053  0.6454
  112SAPE   H9R11657   3.356   5.835   5.151 -1.0826 -0.2901  0.5638
  112SAPE  C21011658   3.275   6.040   5.167  0.3759 -0.1955  0.1276
  112SAPE  H10R11659   3.250   6.121   5.095  2.0088 -0.5864 -0.9359
  112SAPE  H10S11660   3.365   6.065   5.226 -0.4325  0.1963  1.2234
  112SAPE  C21111661   3.162   6.024   5.268  0.1705  0.1868  0.3225
  112SAPE  H11R11662   3.062   6.055   5.235  0.1467 -1.2360 -1.0494
  112SAPE  C21211663   3.175   5.962   5.386  0.5810 -0.0923 -0.6043
  112SAPE  H12R11664   3.091   5.961   5.456  1.5684  1.2185  0.6451
  112SAPE  C21311665   3.314   5.914   5.435  0.3483  0.0841  0.7358
  112SAPE  H13R11666   3.405   5.974   5.410  1.7040 -2.3453 -0.5334
  112SAPE  H13S11667   3.332   5.808   5.408  1.8291  0.5383 -0.1737
  112SAPE  C21411668   3.311   5.920   5.589 -0.3146  0.0751  0.4036
  112SAPE  H14R11669   3.300   5.820   5.633  0.4183 -0.2382 -0.0916
  112SAPE  C21511670   3.321   6.019   5.671  0.0960  0.1693 -1.0759
  112SAPE  H15R11671   3.325   5.991   5.777  0.7440 -0.1266 -1.1784
  112SAPE  C21611672   3.344   6.164   5.623 -0.1062 -0.0814  0.3559
  112SAPE  H16R11673   3.411   6.170   5.534 -0.5997  2.7747  0.0854
  112SAPE  H16S11674   3.409   6.214   5.698  2.1842 -1.1457 -0.8034
  112SAPE  C21711675   3.217   6.246   5.587 -0.3398  0.0734 -0.2074
  112SAPE  H17R11676   3.138   6.218   5.661  1.0486 -2.0001  0.5827
  112SAPE  H17S11677   3.184   6.239   5.481  0.5661  1.4027 -0.6066
  112SAPE  C21811678   3.253   6.393   5.595  0.2625 -0.1687 -0.8866
  112SAPE  H18R11679   3.299   6.403   5.696 -0.5569 -2.0178 -0.2903
  112SAPE  H18S11680   3.163   6.456   5.580  1.4437  1.9221  0.3374
  112SAPE  C21911681   3.356   6.448   5.498 -0.3469  0.2066 -0.4433
  112SAPE  H19R11682   3.446   6.384   5.511 -1.0233 -0.7651 -0.4058
  112SAPE  H19S11683   3.388   6.550   5.528 -0.7620  0.4663 -0.8853
  112SAPE  C22011684   3.298   6.439   5.351 -0.7157  0.7276  0.1674
  112SAPE  H20R11685   3.219   6.363   5.329  0.4035  0.1378 -2.1137
  112SAPE  H20S11686   3.382   6.429   5.279  0.5151 -0.3895  1.6743
  112SAPE  H20T11687   3.251   6.538   5.332 -0.1301  0.8926 -0.4480
  112SAPE   C3311688   2.776   6.228   5.141  1.1136 -0.3595 -0.3237
  112SAPE   H3X11689   2.668   6.202   5.153  1.1218  0.1287  0.9688
  112SAPE   H3Y11690   2.787   6.338   5.144  2.0548 -0.4474 -0.4584
  112SAPE   C3411691   2.831   6.184   5.275 -0.1317  0.1095  0.4481
  112SAPE   H4X11692   2.926   6.241   5.283 -0.5507  1.5895 -3.0902
  112SAPE   H4Y11693   2.856   6.076   5.268 -0.3710  0.0437  0.5954
  112SAPE   C3511694   2.745   6.209   5.397  0.0582  0.3008 -0.2357
  112SAPE   H5X11695   2.646   6.160   5.385  1.3496 -2.4836 -0.1718
  112SAPE   H5Y11696   2.733   6.319   5.398 -0.6568  0.2308 -0.8055
  112SAPE   C3611697   2.803   6.162   5.537 -0.2216 -0.0438  0.1059
  112SAPE   H6X11698   2.913   6.147   5.523  0.3281  1.0710  2.6376
  112SAPE   H6Y11699   2.752   6.069   5.569 -0.4004  0.1271  0.3185
  112SAPE   C3711700   2.785   6.266   5.641 -0.8517  0.5007  0.1192
  112SAPE   H7X11701   2.680   6.295   5.666 -1.3494 -0.5060 -0.7120
  112SAPE   H7Y11702   2.825   6.364   5.610  0.7032  0.3222  1.4485
  112SAPE   C3811703   2.866   6.228   5.768 -0.3461  0.5754 -0.5397
  112SAPE   H8X11704   2.967   6.196   5.737 -0.2140 -0.4232  0.8375
  112SAPE   H8Y11705   2.817   6.144   5.821 -2.1605  1.2966 -0.9719
  112SAPE   C3911706   2.863   6.333   5.880 -0.2560 -0.5477  0.1293
  112SAPE   H9X11707   2.757   6.354   5.904 -0.1104 -1.0045  1.2634
  112SAPE   H9Y11708   2.913   6.424   5.841 -2.2051  0.1077 -0.9560
  112SAPE  C31011709   2.936   6.290   6.010  0.8642 -0.0468  0.0317
  112SAPE  H10X11710   3.045   6.274   5.996  0.5558 -1.6840 -0.7602
  112SAPE  H10Y11711   2.899   6.189   6.037  0.3176 -0.0921 -0.8731
  112SAPE  C31111712   2.917   6.389   6.135 -0.3531  0.2428  0.1465
  112SAPE  H11X11713   2.809   6.404   6.153 -1.2002 -1.6205 -2.6049
  112SAPE  H11Y11714   2.965   6.488   6.120 -2.5221  1.4419  0.6817
  112SAPE  C31211715   2.965   6.323   6.264  0.4064 -0.0067  0.3936
  112SAPE  H12X11716   3.073   6.308   6.247  0.6204  1.4361  0.3610
  112SAPE  H12Y11717   2.907   6.229   6.274 -1.4531  1.1229  0.9517
  112SAPE  C31311718   2.952   6.419   6.384 -0.3802  0.4221  0.6449
  112SAPE  H13X11719   2.843   6.442   6.387 -0.8716 -1.6410  0.3677
  112SAPE  H13Y11720   3.003   6.516   6.363  4.2753 -1.8067  0.3386
  112SAPE  C31411721   3.000   6.369   6.522 -0.5189 -0.1964 -0.2572
  112SAPE  H14X11722   2.934   6.285   6.554 -0.7652 -0.5551 -1.6393
  112SAPE  H14Y11723   2.986   6.449   6.598 -0.2531  0.0702 -0.4882
  112SAPE  C31511724   3.149   6.314   6.527 -0.5766 -0.5899 -0.4795
  112SAPE  H15X11725   3.221   6.373   6.467 -1.0192 -0.5762 -1.0043
  112SAPE  H15Y11726   3.151   6.209   6.493  1.0372 -0.3338 -1.2924
  112SAPE  C31611727   3.189   6.317   6.672 -0.4132 -0.3368  0.5579
  112SAPE  H16X11728   3.132   6.239   6.726 -1.6977  0.2167  0.0340
  112SAPE  H16Y11729   3.166   6.416   6.715  1.7520  0.4890 -0.0428
  112SAPE  C31711730   3.338   6.279   6.692  0.8707  0.7907 -0.1364
  112SAPE  H17X11731   3.353   6.178   6.649  0.9704  1.2072 -1.1224
  112SAPE  H17Y11732   3.344   6.263   6.802  0.7530  1.4958 -0.0220
  112SAPE  C31811733   3.451   6.375   6.657 -0.3016 -0.4266 -0.4581
  112SAPE  H18X11734   3.535   6.365   6.729 -0.8779 -0.3821  0.2368
  112SAPE  H18Y11735   3.412   6.480   6.661 -0.0103 -0.3423  0.5351
  112SAPE  H18Z11736   3.484   6.358   6.552 -0.8482 -0.9377 -0.5486
  113SAPE     N11737   5.159   4.911   4.269  0.3564  0.0271  0.2445
  113SAPE   HN111738   5.159   4.838   4.344  2.6563 -1.0775 -0.7198
  113SAPE   HN211739   5.091   4.888   4.194 -2.0680  0.9689  2.0394
  113SAPE   HN311740   5.254   4.930   4.231 -0.2415  0.9212 -0.8357
  113SAPE   C1211741   5.120   5.041   4.327  0.6539 -0.6295  0.0384
  113SAPE  H12A11742   5.029   5.068   4.269  0.1322 -1.9126  0.2113
  113SAPE  H12B11743   5.206   5.105   4.299  1.2534 -0.4441  2.1117
  113SAPE   C1111744   5.102   5.032   4.475  0.2179  0.1865  0.0020
  113SAPE  H11A11745   5.006   4.978   4.493  0.1946  0.7457  1.7838
  113SAPE  H11B11746   5.074   5.133   4.513 -2.2664 -0.1594 -0.7083
  113SAPE     P11747   5.318   5.049   4.633  0.0790 -0.1941  0.1440
  113SAPE   O1311748   5.433   5.086   4.550 -0.2812 -0.0190  0.2558
  113SAPE   O1411749   5.253   5.158   4.705  0.0698  0.4770  0.0560
  113SAPE   O1211750   5.208   4.971   4.541 -0.2447 -0.2414  0.1808
  113SAPE   O1111751   5.365   4.933   4.730  0.0577 -0.1077  0.3509
  113SAPE    C111752   5.274   4.825   4.753 -0.0440  0.6784  1.2181
  113SAPE    HA11753   5.166   4.846   4.738 -0.4484 -0.9961  1.6181
  113SAPE    HB11754   5.306   4.739   4.690  1.0465  1.7395  0.2843
  113SAPE    C211755   5.294   4.764   4.894 -0.3958  0.2115  0.3379
  113SAPE    HS11756   5.279   4.850   4.964  1.4580  0.1862  0.8012
  113SAPE   O2111757   5.427   4.708   4.896 -0.2010  0.4057  0.0072
  113SAPE   C2111758   5.518   4.778   4.968  0.2706 -0.5417  0.7971
  113SAPE   O2211759   5.487   4.878   5.032 -0.6695  0.8298  0.2060
  113SAPE   C2211760   5.648   4.699   4.959 -0.0566 -0.4508 -0.1639
  113SAPE   H2R11761   5.643   4.643   4.863  1.3669 -0.1326 -0.4516
  113SAPE   H2S11762   5.736   4.767   4.953 -0.1242 -0.4739 -2.0384
  113SAPE    C311763   5.194   4.651   4.936  0.2243  0.2832  0.3656
  113SAPE    HX11764   5.200   4.568   4.862  0.6179 -0.3086  1.0543
  113SAPE    HY11765   5.088   4.687   4.939  0.3347  0.5533  1.8606
  113SAPE   O3111766   5.225   4.582   5.061  0.2968  0.5856 -0.7795
  113SAPE   C3111767   5.217   4.661   5.172 -0.1439 -0.5023 -0.2274
  113SAPE   O3211768   5.165   4.770   5.178 -0.3035  0.5571 -0.4074
  113SAPE   C3211769   5.295   4.597   5.290 -0.1160  0.4609  0.1162
  113SAPE   H2X11770   5.392   4.554   5.256  0.7869  0.6953  2.2427
  113SAPE   H2Y11771   5.229   4.518   5.331  2.1633 -1.3329  0.5062
  113SAPE   C2311772   5.657   4.606   5.081 -0.4964  0.5173 -0.3230
  113SAPE   H3R11773   5.739   4.536   5.053  1.1278  2.5250 -0.7639
  113SAPE   H3S11774   5.565   4.548   5.104 -0.2486  0.6360  1.0428
  113SAPE   C2411775   5.698   4.668   5.220  0.7001 -0.0829 -0.1109
  113SAPE   H4R11776   5.661   4.773   5.215 -0.4211 -0.5320 -2.0969
  113SAPE   H4S11777   5.808   4.680   5.214  0.4708  2.2880 -0.4548
  113SAPE   C2511778   5.663   4.586   5.342 -0.1452 -0.4457  0.4257
  113SAPE   H5R11779   5.643   4.482   5.313  2.0807 -0.9156  0.3665
  113SAPE   C2611780   5.671   4.617   5.474 -0.8318 -0.2876  0.2211
  113SAPE   H6R11781   5.632   4.542   5.543  0.2518  0.2887  1.5089
  113SAPE   C2711782   5.717   4.749   5.528 -0.2018 -0.5497 -0.3575
  113SAPE   H7R11783   5.682   4.765   5.632 -0.4285 -0.3010 -0.4717
  113SAPE   H7S11784   5.667   4.829   5.470  0.7446  1.4799  1.4937
  113SAPE   C2811785   5.863   4.772   5.522  0.0157  0.0725 -0.1871
  113SAPE   H8R11786   5.907   4.821   5.434  2.4703  0.7007  1.3240
  113SAPE   C2911787   5.950   4.751   5.626  0.1931  1.4522 -0.0853
  113SAPE   H9R11788   6.058   4.770   5.617  0.0349  3.4256  1.4328
  113SAPE  C21011789   5.916   4.686   5.763 -0.3594 -0.3649  0.0208
  113SAPE  H10R11790   5.989   4.606   5.786 -1.6877 -2.1646 -1.6849
  113SAPE  H10S11791   5.817   4.635   5.758  0.3273 -1.5667 -2.4394
  113SAPE  C21111792   5.910   4.773   5.886  0.3031 -0.5087 -0.9649
  113SAPE  H11R11793   5.927   4.882   5.881  1.7388 -0.5897  0.8328
  113SAPE  C21211794   5.883   4.726   6.009  0.1265  0.2221 -0.7249
  113SAPE  H12R11795   5.860   4.797   6.090  0.7455  0.9866 -1.2079
  113SAPE  C21311796   5.873   4.581   6.057 -0.6308  0.7577 -0.3867
  113SAPE  H13R11797   5.869   4.507   5.974  2.2252 -0.7697  0.6967
  113SAPE  H13S11798   5.773   4.560   6.101 -0.2550  1.4530  0.8479
  113SAPE  C21411799   5.998   4.534   6.126 -0.7189 -0.1160 -0.2185
  113SAPE  H14R11800   6.086   4.532   6.059 -1.0974 -1.6870 -0.7020
  113SAPE  C21511801   6.006   4.509   6.257 -0.4934 -0.2485 -0.0765
  113SAPE  H15R11802   6.104   4.487   6.301 -0.8899 -0.8312  0.5382
  113SAPE  C21611803   5.897   4.531   6.360  0.0570  0.1855  0.1848
  113SAPE  H16R11804   5.872   4.437   6.414 -1.0442  0.3251 -0.0594
  113SAPE  H16S11805   5.806   4.567   6.307 -0.5070  0.5616  1.3733
  113SAPE  C21711806   5.929   4.632   6.473 -0.7736  0.3978 -0.0922
  113SAPE  H17R11807   6.003   4.707   6.436 -0.2267 -0.1624 -0.1570
  113SAPE  H17S11808   5.965   4.570   6.557 -1.6954 -1.7892 -1.2117
  113SAPE  C21811809   5.812   4.720   6.526 -0.2662  0.2377 -0.2234
  113SAPE  H18R11810   5.730   4.652   6.560 -1.0939  0.2634 -2.0402
  113SAPE  H18S11811   5.767   4.785   6.448  0.8386  1.8530  0.4356
  113SAPE  C21911812   5.847   4.802   6.648 -0.1503 -0.0155  0.9857
  113SAPE  H19R11813   5.928   4.870   6.614  0.4214 -0.5765  1.2037
  113SAPE  H19S11814   5.899   4.737   6.721 -1.5962 -1.8449  0.4632
  113SAPE  C22011815   5.734   4.885   6.702  0.1171  1.0441  0.3858
  113SAPE  H20R11816   5.682   4.942   6.621 -0.9698 -1.1234 -0.5184
  113SAPE  H20S11817   5.775   4.959   6.774  1.8402 -0.0762  0.6300
  113SAPE  H20T11818   5.657   4.824   6.752  0.1799 -0.0502 -0.7845
  113SAPE   C3311819   5.322   4.698   5.404 -0.2913  0.2399 -0.2790
  113SAPE   H3X11820   5.282   4.801   5.391  1.3361  1.1308  1.2656
  113SAPE   H3Y11821   5.430   4.725   5.414 -0.8871  2.1388  2.0793
  113SAPE   C3411822   5.289   4.650   5.552 -0.2121  0.2812  0.4966
  113SAPE   H4X11823   5.336   4.550   5.566 -0.7984 -0.1351 -0.4432
  113SAPE   H4Y11824   5.181   4.624   5.555  0.0153 -1.5710 -2.8081
  113SAPE   C3511825   5.347   4.745   5.652  0.4062 -0.0393 -0.4370
  113SAPE   H5X11826   5.336   4.843   5.600 -1.2662 -0.1995 -0.4422
  113SAPE   H5Y11827   5.455   4.727   5.668  0.4756 -0.9243 -1.7828
  113SAPE   C3611828   5.272   4.753   5.788  0.4417  0.0424 -0.3672
  113SAPE   H6X11829   5.213   4.660   5.805  1.9509 -1.0970 -1.0413
  113SAPE   H6Y11830   5.202   4.838   5.774 -0.0479 -0.1812  0.6673
  113SAPE   C3711831   5.373   4.790   5.902 -0.1931  0.3631 -0.4626
  113SAPE   H7X11832   5.419   4.889   5.880  0.7742  0.0464  0.0919
  113SAPE   H7Y11833   5.458   4.721   5.884 -0.6143 -0.1583 -0.4888
  113SAPE   C3811834   5.301   4.791   6.039  0.6096  0.1261  0.5191
  113SAPE   H8X11835   5.231   4.876   6.045  1.1088  0.5968 -0.2092
  113SAPE   H8Y11836   5.244   4.696   6.030 -0.9173  1.2352 -3.1998
  113SAPE   C3911837   5.400   4.786   6.153  0.4612 -0.1830  0.6522
  113SAPE   H9X11838   5.450   4.885   6.162  1.3829 -0.6272  0.5397
  113SAPE   H9Y11839   5.478   4.708   6.139  1.0342  0.0091  2.4574
  113SAPE  C31011840   5.329   4.746   6.284  0.2352 -0.2991 -0.4759
  113SAPE  H10X11841   5.295   4.641   6.267  1.6780 -0.7809 -0.4995
  113SAPE  H10Y11842   5.240   4.813   6.283  0.8818  0.5770 -1.3914
  113SAPE  C31111843   5.423   4.747   6.408 -0.2639 -0.1499  0.6624
  113SAPE  H11X11844   5.456   4.848   6.440  1.9778 -0.5232 -0.3038
  113SAPE  H11Y11845   5.510   4.681   6.388  2.3349  3.0234  0.6099
  113SAPE  C31211846   5.350   4.687   6.529  0.3221  0.2297 -0.9995
  113SAPE  H12X11847   5.322   4.585   6.494 -0.4411  0.2188 -0.3855
  113SAPE  H12Y11848   5.250   4.733   6.542  1.7063  3.0153  0.5884
  113SAPE  C31311849   5.429   4.684   6.657  0.0083 -0.3488  0.3003
  113SAPE  H13X11850   5.418   4.784   6.705  2.9359  0.5374 -0.6903
  113SAPE  H13Y11851   5.535   4.667   6.630 -0.2224 -2.0704  0.3854
  113SAPE  C31411852   5.377   4.572   6.750  0.0777  0.2353  0.0681
  113SAPE  H14X11853   5.400   4.482   6.688  0.2243 -0.3345  0.9345
  113SAPE  H14Y11854   5.270   4.587   6.776  0.0100 -2.2107  1.4897
  113SAPE  C31511855   5.473   4.566   6.872  0.3245  0.3965 -0.6596
  113SAPE  H15X11856   5.459   4.663   6.924  1.0141 -0.6171  1.5224
  113SAPE  H15Y11857   5.575   4.557   6.827 -0.0388 -0.3409 -1.3610
  113SAPE  C31611858   5.434   4.454   6.963  0.0600 -0.1242  0.1497
  113SAPE  H16X11859   5.329   4.472   6.995  0.3160  0.2180  0.8243
  113SAPE  H16Y11860   5.497   4.467   7.054  0.8298  1.5569 -0.5845
  113SAPE  C31711861   5.461   4.309   6.918 -0.5615  0.3369  0.1316
  113SAPE  H17X11862   5.567   4.290   6.893 -0.0734 -0.3487  2.4844
  113SAPE  H17Y11863   5.400   4.296   6.826 -0.2350 -0.4277  0.0167
  113SAPE  C31811864   5.419   4.202   7.010 -0.1319  0.5958  0.1833
  113SAPE  H18X11865   5.450   4.103   6.970 -0.7441  1.0943 -1.6644
  113SAPE  H18Y11866   5.311   4.212   7.032 -0.4644  0.2711 -1.2050
  113SAPE  H18Z11867   5.470   4.220   7.106  0.7806 -2.0996  0.3012
  114SAPE     N11868   0.034   6.293   4.991 -0.2564  0.4388  0.2879
  114SAPE   HN111869   0.122   6.248   4.961 -0.8220 -0.7441  0.3560
  114SAPE   HN211870  -0.036   6.263   4.920  0.3518 -1.4315  0.4378
  114SAPE   HN311871   0.049   6.396   4.987  0.9710  0.2395 -0.9159
  114SAPE   C1211872  -0.021   6.235   5.119  0.6480  0.0790 -0.5317
  114SAPE  H12A11873  -0.067   6.325   5.167  1.4702 -0.3354  1.1225
  114SAPE  H12B11874   0.071   6.215   5.178 -0.5122 -1.5610  0.7970
  114SAPE   C1111875  -0.124   6.118   5.107 -0.3540 -0.5463  0.1008
  114SAPE  H11A11876  -0.222   6.162   5.076  0.4113  0.6335 -0.7343
  114SAPE  H11B11877  -0.144   6.083   5.210  0.7157  1.2300  0.9558
  114SAPE     P11878  -0.141   5.871   5.035 -0.1597  0.2752  0.1674
  114SAPE   O1311879  -0.243   5.869   5.133  1.0860 -0.2781  0.1297
  114SAPE   O1411880  -0.186   5.856   4.893 -0.3591  0.3699  0.4816
  114SAPE   O1211881  -0.068   6.012   5.028 -0.0226 -0.4105  0.7187
  114SAPE   O1111882  -0.035   5.762   5.069  0.1854 -0.3828 -0.2063
  114SAPE    C111883   0.100   5.797   5.083  0.4895 -0.6438  0.3838
  114SAPE    HA11884   0.163   5.740   5.012  0.8170  0.6152 -0.3636
  114SAPE    HB11885   0.133   5.898   5.050  1.8212 -1.0607  0.3815
  114SAPE    C211886   0.135   5.778   5.231 -0.0350 -0.0208 -0.2339
  114SAPE    HS11887   0.123   5.669   5.245  2.7131 -0.3097  0.4638
  114SAPE   O2111888   0.042   5.858   5.303  0.5167 -0.3722 -0.4937
  114SAPE   C2111889  -0.044   5.795   5.376 -0.8207  0.4081 -0.1556
  114SAPE   O2211890  -0.053   5.671   5.373 -0.1137 -0.1571 -0.1002
  114SAPE   C2211891  -0.150   5.872   5.452 -0.5129 -0.2897 -0.0951
  114SAPE   H2R11892  -0.119   5.976   5.475 -0.4199 -0.7036  1.7924
  114SAPE   H2S11893  -0.240   5.864   5.388 -0.5119 -0.0914 -0.1224
  114SAPE    C311894   0.283   5.810   5.256  0.0769 -0.5266 -0.5220
  114SAPE    HX11895   0.302   5.914   5.222  0.8921 -0.6132 -0.3526
  114SAPE    HY11896   0.330   5.740   5.183 -1.1771  0.7098 -2.6487
  114SAPE   O3111897   0.331   5.777   5.386 -0.2939 -0.6272  0.0487
  114SAPE   C3111898   0.348   5.875   5.475  0.8086  0.4220 -0.2559
  114SAPE   O3211899   0.331   5.993   5.448  0.5372  0.2195 -0.3967
  114SAPE   C3211900   0.348   5.810   5.614  0.4750  0.0600 -0.2813
  114SAPE   H2X11901   0.454   5.780   5.628  0.1317 -0.1300  2.5217
  114SAPE   H2Y11902   0.281   5.722   5.615 -1.4396  1.4445  0.6655
  114SAPE   C2311903  -0.202   5.794   5.584  0.2203 -0.9340  0.1471
  114SAPE   H3R11904  -0.226   5.690   5.552 -0.7882 -0.0007 -2.3460
  114SAPE   H3S11905  -0.293   5.843   5.624 -0.0316 -0.2244 -1.2347
  114SAPE   C2411906  -0.089   5.800   5.692 -0.0599 -0.5095  0.3233
  114SAPE   H4R11907  -0.069   5.904   5.728  1.6230  0.2465 -2.5052
  114SAPE   H4S11908   0.001   5.763   5.638  0.2068  1.1683 -0.4479
  114SAPE   C2511909  -0.125   5.714   5.814 -0.2956  0.2140 -0.7071
  114SAPE   H5R11910  -0.135   5.607   5.792  0.0247  0.0499 -0.0852
  114SAPE   C2611911  -0.145   5.767   5.939 -0.7183  0.0066 -0.2491
  114SAPE   H6R11912  -0.167   5.699   6.022  0.6742  0.8537  0.8539
  114SAPE   C2711913  -0.154   5.911   5.980  0.1687 -0.5177 -0.3080
  114SAPE   H7R11914  -0.218   5.912   6.071  2.3372 -0.1971  1.2959
  114SAPE   H7S11915  -0.209   5.972   5.905 -0.3999  0.3176  0.7577
  114SAPE   C2811916  -0.018   5.955   6.012  0.9430 -0.2391 -0.0485
  114SAPE   H8R11917   0.045   5.974   5.924  1.0547 -1.1812 -0.1755
  114SAPE   C2911918   0.043   5.970   6.134 -0.4368 -0.1420  0.8378
  114SAPE   H9R11919   0.147   6.001   6.153 -0.5247  1.2865 -0.8204
  114SAPE  C21011920  -0.027   5.952   6.262 -0.5928 -0.6671  0.0305
  114SAPE  H10R11921  -0.131   5.991   6.250 -1.5087 -1.9477  2.9199
  114SAPE  H10S11922   0.025   6.016   6.337 -2.3641 -0.5733  1.2611
  114SAPE  C21111923  -0.034   5.809   6.307  0.8242 -0.1764 -0.4289
  114SAPE  H11R11924  -0.045   5.741   6.220  0.3417 -0.6666  0.0051
  114SAPE  C21211925  -0.021   5.764   6.430  0.3907  0.0522  0.3344
  114SAPE  H12R11926  -0.040   5.656   6.441 -0.4427  0.0859 -0.6138
  114SAPE  C21311927  -0.010   5.842   6.560 -0.6649 -0.5045  0.2684
  114SAPE  H13R11928   0.009   5.948   6.532  0.0414 -0.6883  0.0442
  114SAPE  H13S11929   0.089   5.816   6.603  0.1768 -0.5884 -1.6468
  114SAPE  C21411930  -0.116   5.822   6.663 -0.7136 -0.6713 -0.4029
  114SAPE  H14R11931  -0.211   5.866   6.630 -0.6799 -0.0516  0.2954
  114SAPE  C21511932  -0.121   5.741   6.774  0.4967  0.2392  0.1315
  114SAPE  H15R11933  -0.209   5.738   6.839 -0.4853  1.6931 -1.0377
  114SAPE  C21611934  -0.008   5.656   6.821 -0.4082 -0.2605  0.0380
  114SAPE  H16R11935   0.076   5.664   6.749  1.8141  0.8388  2.5613
  114SAPE  H16S11936  -0.039   5.550   6.830 -2.7459  0.2918 -0.8363
  114SAPE  C21711937   0.055   5.708   6.953 -0.2822 -0.0281  0.0494
  114SAPE  H17R11938   0.119   5.625   6.989 -1.1102  0.8005  3.7948
  114SAPE  H17S11939  -0.028   5.718   7.026 -0.3664  0.2590 -0.0876
  114SAPE  C21811940   0.148   5.838   6.932 -0.0800  1.2660  0.2928
  114SAPE  H18R11941   0.096   5.906   6.862 -1.1773 -0.6373 -0.8245
  114SAPE  H18S11942   0.236   5.799   6.876  0.1248 -0.0090  1.4553
  114SAPE  C21911943   0.174   5.910   7.064 -0.0110 -0.1277 -0.1674
  114SAPE  H19R11944   0.084   5.903   7.129 -0.0681 -0.4441 -0.2788
  114SAPE  H19S11945   0.189   6.017   7.035  0.5351  0.1106  0.9515
  114SAPE  C22011946   0.294   5.860   7.144 -0.0500 -0.7804  0.0381
  114SAPE  H20R11947   0.392   5.879   7.096  1.6645 -1.8326  2.8528
  114SAPE  H20S11948   0.290   5.749   7.153  1.4249 -0.9149 -0.6383
  114SAPE  H20T11949   0.299   5.896   7.249  1.5145  0.2291 -0.3502
  114SAPE   C3311950   0.307   5.908   5.724  0.4335 -0.6045  0.3172
  114SAPE   H3X11951   0.210   5.959   5.707  0.6058 -0.3643  0.0510
  114SAPE   H3Y11952   0.390   5.980   5.742 -0.1531 -0.3890  2.3467
  114SAPE   C3411953   0.303   5.845   5.867 -0.1162  0.0775  0.2327
  114SAPE   H4X11954   0.355   5.747   5.860 -1.0772 -0.3102 -3.8385
  114SAPE   H4Y11955   0.199   5.817   5.896  0.3375 -1.1637  0.7116
  114SAPE   C3511956   0.379   5.931   5.970 -0.2377  0.5092  0.5466
  114SAPE   H5X11957   0.325   6.028   5.963 -0.2184  0.4157 -1.5280
  114SAPE   H5Y11958   0.477   5.963   5.926 -0.5768  2.2639  0.9769
  114SAPE   C3611959   0.403   5.862   6.103 -0.7397  0.4357 -0.1858
  114SAPE   H6X11960   0.475   5.779   6.085 -1.0998 -0.1040  0.8362
  114SAPE   H6Y11961   0.320   5.806   6.150  0.8683 -1.2108  0.8231
  114SAPE   C3711962   0.458   5.956   6.205  0.7516  0.6920 -0.2464
  114SAPE   H7X11963   0.389   6.043   6.215 -1.0895 -0.7862  0.6308
  114SAPE   H7Y11964   0.558   5.992   6.172  1.0639 -0.8292 -1.0312
  114SAPE   C3811965   0.476   5.881   6.338 -0.0012 -0.3565  0.7627
  114SAPE   H8X11966   0.571   5.823   6.335 -0.4096 -1.1652  2.0725
  114SAPE   H8Y11967   0.392   5.809   6.349 -3.2141  2.6273 -1.9592
  114SAPE   C3911968   0.483   5.967   6.467 -0.3879 -0.4101 -0.0242
  114SAPE   H9X11969   0.392   6.028   6.482 -0.0976  0.8106 -2.6156
  114SAPE   H9Y11970   0.570   6.035   6.456 -1.4343  0.9972  0.1249
  114SAPE  C31011971   0.507   5.884   6.593 -0.1743 -0.2099  0.4274
  114SAPE  H10X11972   0.594   5.816   6.583 -0.5066 -0.6735  0.7107
  114SAPE  H10Y11973   0.427   5.813   6.623 -0.1724  0.5927  2.5242
  114SAPE  C31111974   0.543   5.974   6.709 -0.1647  0.0084  0.5032
  114SAPE  H11X11975   0.474   6.060   6.722  0.8063  0.9347 -0.2004
  114SAPE  H11Y11976   0.639   6.028   6.690 -1.2139  1.8341  0.0910
  114SAPE  C31211977   0.562   5.904   6.846 -0.3416  0.3135  0.2781
  114SAPE  H12X11978   0.642   5.827   6.845 -0.0083  0.6130 -1.9207
  114SAPE  H12Y11979   0.464   5.859   6.872 -0.5486  0.5124 -0.1437
  114SAPE  C31311980   0.606   6.001   6.960  0.6279 -0.1927 -0.1882
  114SAPE  H13X11981   0.713   6.029   6.946  1.4569 -3.5629 -1.4765
  114SAPE  H13Y11982   0.609   5.946   7.056  1.9068 -1.6013 -0.9906
  114SAPE  C31411983   0.522   6.137   6.963 -0.4360 -0.4022 -0.0828
  114SAPE  H14X11984   0.412   6.122   6.956 -0.8924  2.2398  0.1760
  114SAPE  H14Y11985   0.551   6.188   6.868  0.3630 -1.5172 -0.4489
  114SAPE  C31511986   0.563   6.225   7.082 -0.2017  0.1756 -0.2245
  114SAPE  H15X11987   0.670   6.215   7.108 -0.7972 -3.1585  1.5144
  114SAPE  H15Y11988   0.493   6.187   7.159 -1.9484  1.6517 -1.0109
  114SAPE  C31611989   0.525   6.371   7.068 -0.2707 -0.3640 -0.4590
  114SAPE  H16X11990   0.414   6.372   7.063 -0.4454  0.8561  2.3275
  114SAPE  H16Y11991   0.576   6.424   6.984  0.2435 -2.6599 -1.7013
  114SAPE  C31711992   0.569   6.450   7.188  0.0088  0.4637  0.4911
  114SAPE  H17X11993   0.678   6.445   7.207  0.0518 -0.2467  0.0867
  114SAPE  H17Y11994   0.527   6.410   7.282  0.3490 -0.6498  0.1831
  114SAPE  C31811995   0.549   6.599   7.178  0.1865 -0.9738  0.2288
  114SAPE  H18X11996   0.589   6.636   7.275 -1.5367 -2.4150  1.5466
  114SAPE  H18Y11997   0.441   6.619   7.165  0.2889 -1.4592 -1.5477
  114SAPE  H18Z11998   0.602   6.630   7.086  1.1855 -0.8053  0.8421
  115SAPE     N11999   4.729   0.526   4.440 -0.1287 -0.4885  0.5405
  115SAPE   HN112000   4.748   0.580   4.353 -2.4095 -1.7387 -0.8568
  115SAPE   HN212001   4.804   0.463   4.473  1.3208  0.7003 -0.3603
  115SAPE   HN312002   4.645   0.469   4.416 -0.8692  0.0608  1.7151
  115SAPE   C1212003   4.690   0.623   4.552  0.5728 -0.0107  0.5595
  115SAPE  H12A12004   4.669   0.722   4.508  1.0485 -0.4467 -0.7130
  115SAPE  H12B12005   4.782   0.619   4.614  0.9156 -1.7759  0.0122
  115SAPE   C1112006   4.571   0.560   4.631  0.1903  0.3845  0.1173
  115SAPE  H11A12007   4.482   0.563   4.564 -1.0740  1.8323  1.7715
  115SAPE  H11B12008   4.548   0.624   4.719 -0.4158 -0.7135  0.7850
  115SAPE     P12009   4.501   0.305   4.686  0.1252  0.0847  0.3016
  115SAPE   O1312010   4.465   0.254   4.557  0.1667 -0.4218  0.0119
  115SAPE   O1412011   4.542   0.204   4.790 -0.5566  0.0480 -0.0015
  115SAPE   O1212012   4.602   0.426   4.676  0.1682  0.3847 -0.0525
  115SAPE   O1112013   4.367   0.372   4.743  0.1131  0.3752  0.3498
  115SAPE    C112014   4.375   0.437   4.872  0.6309 -0.0404 -0.1096
  115SAPE    HA12015   4.478   0.446   4.913  0.3830  0.9131  0.3328
  115SAPE    HB12016   4.333   0.539   4.868  0.5089 -0.0861 -0.0020
  115SAPE    C212017   4.289   0.357   4.969  0.3898 -0.0661 -0.7443
  115SAPE    HS12018   4.315   0.252   4.946  3.8380  0.4119  0.3496
  115SAPE   O2112019   4.146   0.385   4.946 -0.3308  0.0403  0.0369
  115SAPE   C2112020   4.059   0.307   4.998  0.2481 -0.6095  0.1016
  115SAPE   O2212021   4.079   0.193   5.044 -0.4548 -0.5731 -0.6069
  115SAPE   C2212022   3.918   0.362   4.976 -0.0292 -0.6870  0.0825
  115SAPE   H2R12023   3.930   0.471   4.957  1.9543 -0.6940  1.1022
  115SAPE   H2S12024   3.873   0.310   4.889  0.2701  0.0359 -0.5157
  115SAPE    C312025   4.320   0.398   5.117  0.2542 -0.0424  0.1383
  115SAPE    HX12026   4.293   0.506   5.118 -2.1145 -0.5454 -0.9323
  115SAPE    HY12027   4.430   0.390   5.128  0.0195 -2.4118  1.2450
  115SAPE   O3112028   4.255   0.327   5.222 -0.1774 -0.2023  0.5702
  115SAPE   C3112029   4.319   0.218   5.260  0.1774 -0.0626 -0.5929
  115SAPE   O3212030   4.410   0.167   5.202 -0.2395  0.0005  0.0531
  115SAPE   C3212031   4.243   0.168   5.384 -0.4861  0.1534  0.3241
  115SAPE   H2X12032   4.138   0.153   5.352  0.3074 -0.9298 -1.9935
  115SAPE   H2Y12033   4.256   0.249   5.459 -0.4006  1.0312 -0.6252
  115SAPE   C2312034   3.826   0.351   5.099 -0.4125  0.4330  0.5946
  115SAPE   H3R12035   3.878   0.361   5.196 -0.9940 -0.3345  0.9980
  115SAPE   H3S12036   3.793   0.245   5.106 -1.0057  0.5302 -0.4789
  115SAPE   C2412037   3.702   0.438   5.099  0.5035  0.2600 -0.2689
  115SAPE   H4R12038   3.644   0.417   5.191 -0.4249 -0.2994 -0.9635
  115SAPE   H4S12039   3.640   0.410   5.011  0.7915 -1.8482  0.1294
  115SAPE   C2512040   3.733   0.588   5.089  0.2679 -0.0683 -0.1196
  115SAPE   H5R12041   3.728   0.626   4.986 -1.4841  1.0839  0.3467
  115SAPE   C2612042   3.750   0.676   5.189 -0.2202  0.2845 -0.1067
  115SAPE   H6R12043   3.763   0.782   5.161  1.5698  0.6272  1.7867
  115SAPE   C2712044   3.772   0.644   5.340 -0.0263 -0.2271 -0.0624
  115SAPE   H7R12045   3.827   0.731   5.381 -3.1081  1.9356 -0.1242
  115SAPE   H7S12046   3.827   0.549   5.359  0.1813  0.1264  1.1873
  115SAPE   C2812047   3.634   0.611   5.407  0.2744 -0.6217  0.4531
  115SAPE   H8R12048   3.551   0.626   5.337  2.0185 -0.5873 -1.6995
  115SAPE   C2912049   3.615   0.568   5.535  0.2669  0.1705 -0.2328
  115SAPE   H9R12050   3.513   0.555   5.575  0.9315 -0.6686  1.2655
  115SAPE  C21012051   3.718   0.543   5.642  0.1715 -0.7466  0.1554
  115SAPE  H10R12052   3.797   0.471   5.611  1.1391  1.0957 -1.9293
  115SAPE  H10S12053   3.672   0.498   5.732  1.2814  0.7839  1.5423
  115SAPE  C21112054   3.794   0.663   5.694  0.0676  0.2600 -0.9377
  115SAPE  H11R12055   3.800   0.738   5.613  3.4853  0.1326 -0.9467
  115SAPE  C21212056   3.856   0.669   5.813  0.6710 -0.5192 -0.1072
  115SAPE  H12R12057   3.895   0.770   5.834 -1.2900  0.9243 -2.7880
  115SAPE  C21312058   3.848   0.565   5.923 -0.2266 -0.0571 -0.2074
  115SAPE  H13R12059   3.745   0.530   5.942 -0.4302 -0.0084 -1.1866
  115SAPE  H13S12060   3.883   0.614   6.016  0.1839  0.8861 -0.8406
  115SAPE  C21412061   3.939   0.449   5.899 -0.0142  0.5020 -0.1294
  115SAPE  H14R12062   4.044   0.469   5.871 -0.6413 -0.1701 -3.2343
  115SAPE  C21512063   3.914   0.320   5.903  0.3216  0.6782  0.5222
  115SAPE  H15R12064   3.993   0.246   5.883 -0.1782  0.1964  0.2884
  115SAPE  C21612065   3.783   0.249   5.930 -0.5024 -0.2108  0.8229
  115SAPE  H16R12066   3.748   0.194   5.839  1.3582 -0.4781  0.2247
  115SAPE  H16S12067   3.701   0.324   5.940 -0.1460  0.3368 -0.1887
  115SAPE  C21712068   3.778   0.163   6.052  0.2753 -0.2196 -0.5101
  115SAPE  H17R12069   3.824   0.219   6.136 -2.5605  2.0080 -0.2915
  115SAPE  H17S12070   3.831   0.066   6.048 -0.5600 -0.6461 -1.4501
  115SAPE  C21812071   3.640   0.110   6.091  0.5574 -0.3350  0.1367
  115SAPE  H18R12072   3.599   0.035   6.021  0.8643  0.1081 -0.5262
  115SAPE  H18S12073   3.561   0.188   6.089  0.4925 -0.4134 -1.1090
  115SAPE  C21912074   3.635   0.042   6.220  0.0530 -0.1229 -0.0915
  115SAPE  H19R12075   3.715  -0.035   6.215  0.9254  0.6876  0.8756
  115SAPE  H19S12076   3.544  -0.022   6.220  1.3590 -2.1006  1.2169
  115SAPE  C22012077   3.666   0.130   6.340 -0.6733 -0.2415  0.0952
  115SAPE  H20R12078   3.581   0.196   6.369 -0.0487  0.3683  0.5677
  115SAPE  H20S12079   3.749   0.203   6.331 -3.1398  2.7676 -0.0459
  115SAPE  H20T12080   3.690   0.075   6.434 -2.1286  0.3603  0.8581
  115SAPE   C3312081   4.305   0.037   5.445 -0.1601  0.2264  0.6871
  115SAPE   H3X12082   4.405   0.066   5.482 -0.6080  0.5801  1.6528
  115SAPE   H3Y12083   4.318  -0.039   5.365  0.0694  1.9390 -0.9600
  115SAPE   C3412084   4.237  -0.018   5.567  0.4867  0.0144  0.2435
  115SAPE   H4X12085   4.264  -0.122   5.593  0.5580 -0.4934 -1.7586
  115SAPE   H4Y12086   4.127  -0.020   5.552  0.4286 -0.9958  0.7493
  115SAPE   C3512087   4.270   0.061   5.689  0.3539  0.0395 -1.3825
  115SAPE   H5X12088   4.263   0.171   5.679  1.1100  0.3475  0.7710
  115SAPE   H5Y12089   4.376   0.052   5.722 -0.2105  0.3484  0.6385
  115SAPE   C3612090   4.187   0.014   5.811 -0.2025 -0.3032 -0.3679
  115SAPE   H6X12091   4.189  -0.094   5.839 -1.1058 -0.0421  0.7633
  115SAPE   H6Y12092   4.085   0.037   5.776 -1.1383 -1.3831  1.4820
  115SAPE   C3712093   4.214   0.096   5.942 -0.6331  0.2871 -0.1814
  115SAPE   H7X12094   4.129   0.090   6.013 -0.1149  0.7027  0.4812
  115SAPE   H7Y12095   4.235   0.199   5.906  1.7791 -0.1169 -0.0896
  115SAPE   C3812096   4.324   0.042   6.024  0.7209 -0.0857  0.1587
  115SAPE   H8X12097   4.345   0.133   6.085 -2.0297  0.5828  0.2251
  115SAPE   H8Y12098   4.417   0.016   5.969  0.4842  0.3541 -0.4601
  115SAPE   C3912099   4.284  -0.076   6.114 -0.8366  0.2399 -0.4667
  115SAPE   H9X12100   4.378  -0.130   6.136 -0.1258  1.9143  0.7410
  115SAPE   H9Y12101   4.221  -0.154   6.065  1.3055 -1.4608 -0.6974
  115SAPE  C31012102   4.225  -0.020   6.246  0.4336  0.7991  0.1192
  115SAPE  H10X12103   4.197   0.086   6.228  2.0860  1.0089 -1.4820
  115SAPE  H10Y12104   4.301  -0.016   6.327  0.6729  1.0027 -0.1158
  115SAPE  C31112105   4.118  -0.115   6.301 -0.3547  0.2283 -0.1996
  115SAPE  H11X12106   4.151  -0.221   6.306  0.7618  0.5906  0.9355
  115SAPE  H11Y12107   4.032  -0.115   6.232 -0.2970  0.5333 -0.2717
  115SAPE  C31212108   4.047  -0.070   6.432  0.2253  0.1450 -0.1672
  115SAPE  H12X12109   4.018   0.038   6.432  1.6770  0.6380  2.3549
  115SAPE  H12Y12110   4.116  -0.076   6.519  0.5528 -0.7521 -0.4774
  115SAPE  C31312111   3.928  -0.155   6.461 -0.3467  0.5968  0.5224
  115SAPE  H13X12112   3.974  -0.256   6.456  0.1268  0.6849  2.4051
  115SAPE  H13Y12113   3.848  -0.164   6.384 -1.7502 -0.3047  2.0260
  115SAPE  C31412114   3.871  -0.136   6.606 -0.1096 -0.4342 -0.2748
  115SAPE  H14X12115   3.771  -0.179   6.631 -0.0419 -0.3491  0.1573
  115SAPE  H14Y12116   3.867  -0.025   6.608  0.8436 -0.3936 -0.3904
  115SAPE  C31512117   3.967  -0.177   6.723 -0.0776  0.3715  0.0056
  115SAPE  H15X12118   3.923  -0.144   6.819 -3.1399 -2.5102 -0.2223
  115SAPE  H15Y12119   4.060  -0.116   6.725  0.3165 -0.2489  0.8481
  115SAPE  C31612120   4.004  -0.329   6.727  0.1732  0.2864  0.8940
  115SAPE  H16X12121   4.069  -0.355   6.813 -0.5729 -2.3194  0.7654
  115SAPE  H16Y12122   4.053  -0.361   6.632 -0.5041 -0.0568  0.6531
  115SAPE  C31712123   3.886  -0.431   6.755 -0.0690 -0.3813 -0.1176
  115SAPE  H17X12124   3.915  -0.535   6.728 -0.6417  0.0445 -2.6852
  115SAPE  H17Y12125   3.801  -0.398   6.692  0.5071 -1.3620 -1.4531
  115SAPE  C31812126   3.854  -0.423   6.905  0.2642  0.5140 -0.1636
  115SAPE  H18X12127   3.812  -0.322   6.925  1.7207  0.7474  2.0580
  115SAPE  H18Y12128   3.944  -0.439   6.969 -1.2179  1.4035  2.2385
  115SAPE  H18Z12129   3.769  -0.491   6.925  0.2433  1.0566  1.7496
  116SAPE     N12130   3.044   1.703   4.658  0.0909  0.0899 -0.0684
  116SAPE   HN112131   2.974   1.740   4.589 -0.7620 -0.2056  0.6269
  116SAPE   HN212132   3.096   1.787   4.691  1.3711 -0.8837  0.4713
  116SAPE   HN312133   3.115   1.658   4.597  0.9811  1.5715 -0.1891
  116SAPE   C1212134   3.008   1.616   4.773 -0.8252 -0.6680 -0.3053
  116SAPE  H12A12135   2.922   1.661   4.826 -0.9616  0.9954 -1.8185
  116SAPE  H12B12136   3.096   1.622   4.841 -0.9290  0.1476 -0.2229
  116SAPE   C1112137   2.999   1.471   4.729 -0.1408 -0.1833 -0.2984
  116SAPE  H11A12138   2.990   1.410   4.821  0.2256  1.9591  1.2539
  116SAPE  H11B12139   3.101   1.447   4.691 -0.1255 -0.3915 -0.1267
  116SAPE     P12140   2.867   1.298   4.607 -0.0822 -0.1307  0.6645
  116SAPE   O1312141   2.736   1.286   4.543 -1.3151  0.2422 -0.6967
  116SAPE   O1412142   2.983   1.227   4.539  0.1728 -0.0604  0.0330
  116SAPE   O1212143   2.903   1.447   4.631  0.2374 -0.1803  0.5891
  116SAPE   O1112144   2.853   1.228   4.744  0.2271  0.0694  0.3142
  116SAPE    C112145   2.725   1.240   4.812 -0.3100 -0.2447  0.4013
  116SAPE    HA12146   2.746   1.279   4.914  1.3823 -1.6259  0.6157
  116SAPE    HB12147   2.642   1.293   4.760  0.6319 -0.7528 -1.6960
  116SAPE    C212148   2.657   1.098   4.835  0.5564 -0.6112 -0.7137
  116SAPE    HS12149   2.606   1.074   4.739  0.1914  1.0777 -0.9756
  116SAPE   O2112150   2.559   1.122   4.945  0.1286 -0.2240 -0.3351
  116SAPE   C2112151   2.446   1.060   4.922 -0.3107  0.6495 -0.2594
  116SAPE   O2212152   2.416   0.992   4.825  0.3502 -0.4786 -0.9190
  116SAPE   C2212153   2.350   1.089   5.039  0.2902 -1.0029 -0.1545
  116SAPE   H2R12154   2.246   1.077   5.000 -0.7051  0.6507  1.8010
  116SAPE   H2S12155   2.363   1.003   5.108  0.0137  1.2290  2.8844
  116SAPE    C312156   2.755   0.987   4.887  0.4824 -0.9054  0.3144
  116SAPE    HX12157   2.845   0.977   4.822  1.8071  1.3395  1.6999
  116SAPE    HY12158   2.703   0.890   4.869 -1.7359  0.1518  0.6648
  116SAPE   O3112159   2.792   1.002   5.027 -0.0363 -0.0260 -0.0239
  116SAPE   C3112160   2.722   0.931   5.118 -0.1466 -1.1225  0.1792
  116SAPE   O3212161   2.619   0.870   5.096 -0.4680 -0.0268 -0.4440
  116SAPE   C3212162   2.798   0.926   5.255  0.0157  0.1225 -0.7085
  116SAPE   H2X12163   2.906   0.952   5.249 -0.1681  1.2018  0.2616
  116SAPE   H2Y12164   2.782   0.824   5.296 -2.4288  0.8576  0.3838
  116SAPE   C2312165   2.368   1.221   5.117 -0.9924  0.2308  0.2476
  116SAPE   H3R12166   2.343   1.309   5.053 -1.6481  3.0947  4.0227
  116SAPE   H3S12167   2.473   1.241   5.145 -0.6482  0.3211 -1.0481
  116SAPE   C2412168   2.270   1.221   5.234 -0.2356  0.8238 -0.4379
  116SAPE   H4R12169   2.171   1.172   5.220  0.3099 -1.2268  2.0892
  116SAPE   H4S12170   2.240   1.328   5.235  2.9135  1.7968 -0.9325
  116SAPE   C2512171   2.327   1.155   5.359  0.6380 -0.6736  0.9821
  116SAPE   H5R12172   2.377   1.059   5.337  1.2790  0.5548 -4.2038
  116SAPE   C2612173   2.316   1.201   5.485  0.8194 -0.0419  0.1491
  116SAPE   H6R12174   2.361   1.146   5.568  0.1738 -2.0460 -0.7765
  116SAPE   C2712175   2.249   1.331   5.524 -0.5991  0.3438 -0.3066
  116SAPE   H7R12176   2.143   1.305   5.549 -0.8225  2.5453  1.2564
  116SAPE   H7S12177   2.243   1.397   5.435 -2.1933  1.0054  0.2466
  116SAPE   C2812178   2.314   1.408   5.638  0.1327  0.2733  0.3802
  116SAPE   H8R12179   2.240   1.428   5.716 -2.4733 -0.2928 -1.7849
  116SAPE   C2912180   2.433   1.465   5.628  1.3679 -0.9381 -0.1212
  116SAPE   H9R12181   2.460   1.529   5.713 -0.4110 -1.2090  0.7115
  116SAPE  C21012182   2.530   1.450   5.515 -0.4398  0.0241  0.2502
  116SAPE  H10R12183   2.483   1.401   5.427 -2.8666  0.4004  1.2529
  116SAPE  H10S12184   2.610   1.381   5.548  0.9606  0.7472 -1.5080
  116SAPE  C21112185   2.589   1.587   5.478 -0.4917 -0.4342 -0.0280
  116SAPE  H11R12186   2.523   1.668   5.444  1.6432  1.8477  0.9401
  116SAPE  C21212187   2.715   1.624   5.505 -0.0007  0.0227  0.2202
  116SAPE  H12R12188   2.742   1.715   5.450 -0.0837  0.5433  1.0417
  116SAPE  C21312189   2.819   1.536   5.579  0.4079  0.3403 -0.2185
  116SAPE  H13R12190   2.865   1.463   5.509  2.4816  1.0414  0.3384
  116SAPE  H13S12191   2.770   1.469   5.653 -0.3007  2.2308  1.1149
  116SAPE  C21412192   2.934   1.602   5.648  0.4657  0.1584  0.4658
  116SAPE  H14R12193   2.945   1.706   5.616  0.2433 -0.3871 -1.4914
  116SAPE  C21512194   3.016   1.537   5.737  0.6602 -0.6841  0.5949
  116SAPE  H15R12195   3.094   1.599   5.783 -0.1485  1.8613 -1.2661
  116SAPE  C21612196   3.005   1.397   5.777 -0.6602  0.0155 -0.7258
  116SAPE  H16R12197   3.109   1.357   5.778 -1.7595 -3.1102 -0.5962
  116SAPE  H16S12198   2.944   1.337   5.706 -1.8623  0.0053  0.2845
  116SAPE  C21712199   2.938   1.382   5.912 -0.4793 -0.3857  0.0965
  116SAPE  H17R12200   2.960   1.281   5.953 -1.7532  0.2158  2.4492
  116SAPE  H17S12201   2.828   1.386   5.899 -0.5573 -0.1618  0.7735
  116SAPE  C21812202   2.967   1.487   6.023 -0.5848 -0.4088 -0.6007
  116SAPE  H18R12203   2.929   1.585   5.988  0.4393 -0.0071 -0.6146
  116SAPE  H18S12204   3.075   1.500   6.041 -1.0762 -0.1049  2.8267
  116SAPE  C21912205   2.902   1.457   6.156  0.3046  0.3260  0.7528
  116SAPE  H19R12206   2.857   1.356   6.146  1.1964  0.0273 -0.3713
  116SAPE  H19S12207   2.820   1.530   6.176 -2.7202 -2.3440 -1.0307
  116SAPE  C22012208   2.998   1.468   6.270  0.5530 -0.3696  0.2646
  116SAPE  H20R12209   2.960   1.450   6.373  1.6193 -0.6072  0.6313
  116SAPE  H20S12210   3.048   1.567   6.278  0.0280 -0.0411 -0.3747
  116SAPE  H20T12211   3.077   1.392   6.252  1.0583  0.1173  0.4185
  116SAPE   C3312212   2.735   1.013   5.367  0.2332 -0.3662  0.5638
  116SAPE   H3X12213   2.626   1.002   5.351 -0.1985  0.3828  2.6084
  116SAPE   H3Y12214   2.748   1.122   5.348  0.5209 -0.1130  2.0886
  116SAPE   C3412215   2.769   0.992   5.509 -0.8382 -0.1245  1.1750
  116SAPE   H4X12216   2.877   1.009   5.529 -0.4712  0.1777 -0.9015
  116SAPE   H4Y12217   2.741   0.886   5.529 -2.0138 -0.0682 -0.0575
  116SAPE   C3512218   2.693   1.076   5.613  0.1071 -0.3305 -0.7578
  116SAPE   H5X12219   2.582   1.075   5.612 -0.0832 -3.5403  1.7870
  116SAPE   H5Y12220   2.717   1.183   5.600  0.8406 -0.1197  1.6833
  116SAPE   C3612221   2.724   1.036   5.757  0.5030 -0.0743 -0.3230
  116SAPE   H6X12222   2.828   1.065   5.784  0.4324  0.0051 -0.1374
  116SAPE   H6Y12223   2.696   0.932   5.782 -0.0777  0.3276  0.7609
  116SAPE   C3712224   2.634   1.107   5.860  0.2377 -0.0214  1.0150
  116SAPE   H7X12225   2.532   1.066   5.842  0.5981 -0.8243  0.7336
  116SAPE   H7Y12226   2.631   1.212   5.825  0.7204 -0.0553  0.8589
  116SAPE   C3812227   2.684   1.092   5.995  0.0313  0.0834  0.1348
  116SAPE   H8X12228   2.785   1.137   6.006  0.7830 -1.9115  2.2992
  116SAPE   H8Y12229   2.708   0.990   6.032  3.3367  0.7925  0.2285
  116SAPE   C3912230   2.612   1.176   6.109  0.8374  0.4076  1.0951
  116SAPE   H9X12231   2.502   1.162   6.111  0.6499  1.1408 -1.3547
  116SAPE   H9Y12232   2.624   1.286   6.104 -1.3140  0.6923  1.2463
  116SAPE  C31012233   2.660   1.130   6.253 -0.9199  0.3204 -0.3636
  116SAPE  H10X12234   2.630   1.208   6.326 -1.8588 -1.2325  0.9920
  116SAPE  H10Y12235   2.769   1.110   6.249 -1.2797 -1.6356 -2.8993
  116SAPE  C31112236   2.591   0.996   6.301  0.5573  0.2962 -0.2763
  116SAPE  H11X12237   2.585   0.918   6.221 -2.0142 -0.2747  0.3890
  116SAPE  H11Y12238   2.486   1.016   6.330 -0.0671 -1.3948 -1.2539
  116SAPE  C31212239   2.656   0.930   6.419 -0.2525 -0.0743 -0.4083
  116SAPE  H12X12240   2.600   0.846   6.465  2.7350 -1.6419  0.6547
  116SAPE  H12Y12241   2.662   1.015   6.491 -1.0522 -0.3617  0.0106
  116SAPE  C31312242   2.801   0.877   6.393 -0.0123 -0.0243  1.1226
  116SAPE  H13X12243   2.872   0.960   6.373  1.9870 -2.0617 -0.9036
  116SAPE  H13Y12244   2.797   0.805   6.309 -0.5857 -0.2306  1.3269
  116SAPE  C31412245   2.858   0.795   6.504  0.3063  0.5840 -0.0065
  116SAPE  H14X12246   2.795   0.704   6.513 -0.0492  0.7721 -0.6300
  116SAPE  H14Y12247   2.866   0.852   6.599 -1.4689 -2.2561  2.0077
  116SAPE  C31512248   2.994   0.738   6.457 -0.5097 -0.9430 -0.4260
  116SAPE  H15X12249   3.063   0.823   6.438 -1.0575 -0.7743 -1.7826
  116SAPE  H15Y12250   2.975   0.670   6.372  0.2042  0.3102 -1.6317
  116SAPE  C31612251   3.059   0.650   6.568  0.5806 -0.0198  0.3259
  116SAPE  H16X12252   2.990   0.563   6.576  0.8200 -0.3835 -1.2612
  116SAPE  H16Y12253   3.048   0.701   6.665  1.4743  1.5533 -0.3671
  116SAPE  C31712254   3.205   0.597   6.534  0.0129 -1.1237  0.4261
  116SAPE  H17X12255   3.269   0.684   6.510  1.0847 -1.7970  0.7654
  116SAPE  H17Y12256   3.203   0.537   6.440  2.5781  0.2583 -0.6294
  116SAPE  C31812257   3.276   0.515   6.648  0.1954  0.1429 -0.0884
  116SAPE  H18X12258   3.229   0.414   6.660  0.4826 -0.2680 -2.1177
  116SAPE  H18Y12259   3.275   0.565   6.747 -0.2232  1.0430 -0.5407
  116SAPE  H18Z12260   3.379   0.499   6.609  0.6673  2.2971  0.1930
  117SOPE     N12261   3.618   5.487   0.092  0.5409  0.0832  0.1456
  117SOPE   HN112262   3.574   5.454   0.004  0.5319 -0.8190  0.4778
  117SOPE   HN212263   3.619   5.591   0.094  1.6807  0.0733  0.6066
  117SOPE   HN312264   3.716   5.454   0.084  0.7127  0.7527 -0.7138
  117SOPE   C1212265   3.551   5.412   0.203 -0.0210 -0.2211  0.1625
  117SOPE  H12A12266   3.542   5.303   0.184  0.6451 -0.5351  1.4884
  117SOPE  H12B12267   3.443   5.435   0.197 -0.1997 -1.4209 -3.3043
  117SOPE   C1112268   3.620   5.452   0.339 -0.0638 -0.0265  0.3822
  117SOPE  H11A12269   3.584   5.555   0.358  0.6939  0.2238  0.5071
  117SOPE  H11B12270   3.730   5.454   0.322  0.5856 -1.3986  3.7455
  117SOPE     P12271   3.420   5.337   0.464  0.1888  0.6670  0.1273
  117SOPE   O1312272   3.393   5.326   0.608  0.2362 -0.3660 -0.2969
  117SOPE   O1412273   3.388   5.217   0.378  0.1167  0.3232  0.0816
  117SOPE   O1212274   3.578   5.371   0.444 -0.0318  0.3341  0.8642
  117SOPE   O1112275   3.344   5.470   0.419 -0.2678 -0.9073  0.0734
  117SOPE    C112276   3.204   5.484   0.416 -0.1464  0.4469 -0.3194
  117SOPE    HA12277   3.169   5.561   0.488 -1.8451  0.1388 -0.7720
  117SOPE    HB12278   3.150   5.394   0.450  2.1116 -0.7295  0.3577
  117SOPE    C212279   3.151   5.521   0.279 -0.2921  0.0689  0.1481
  117SOPE    HS12280   3.040   5.512   0.289 -0.0127 -1.6340  2.7014
  117SOPE   O2112281   3.199   5.431   0.180 -0.2866  0.4193  0.1337
  117SOPE   C2112282   3.129   5.320   0.163 -0.3698  0.2148 -0.7031
  117SOPE   O2212283   3.045   5.275   0.243 -0.6101 -0.1530 -0.8093
  117SOPE   C2212284   3.174   5.265   0.030  0.3546 -0.1755  0.3303
  117SOPE   H2R12285   3.275   5.220   0.040  2.0130  2.9612 -0.9626
  117SOPE   H2S12286   3.182   5.351  -0.039 -0.9694 -1.4676 -1.5563
  117SOPE    C312287   3.195   5.661   0.236  0.1050 -0.0813  0.1950
  117SOPE    HX12288   3.306   5.662   0.236  0.1885 -2.3215 -1.2952
  117SOPE    HY12289   3.166   5.723   0.323  0.1909 -2.5181  2.0441
  117SOPE   O3112290   3.135   5.706   0.115  0.5653 -0.0309  0.2349
  117SOPE   C3112291   3.212   5.683   0.002  0.4238 -0.0984  0.0339
  117SOPE   O3212292   3.312   5.616  -0.003  0.0926  0.6679  0.3480
  117SOPE   C3212293   3.143   5.750  -0.115  0.2205  0.1105  0.2003
  117SOPE   H2X12294   3.164   5.858  -0.104 -0.1152  0.0703  1.2743
  117SOPE   H2Y12295   3.033   5.738  -0.103  0.1488  1.5313  1.1886
  117SOPE   C2312296   3.065   5.169  -0.018  0.0887 -0.0878  0.0390
  117SOPE   H3R12297   2.962   5.206   0.001 -0.2569 -1.5362  1.2561
  117SOPE   H3S12298   3.069   5.075   0.042  1.7038  0.9117  1.6108
  117SOPE   C2412299   3.093   5.120  -0.161  0.0188 -0.1229 -0.4857
  117SOPE   H4R12300   3.089   5.211  -0.226 -0.2475  1.6696  1.9163
  117SOPE   H4S12301   3.191   5.070  -0.173 -0.3907 -1.8087  2.3650
  117SOPE   C2512302   2.977   5.026  -0.202  0.1626  0.7741  0.4358
  117SOPE   H5R12303   2.971   4.939  -0.134  0.2032  1.6746  1.6194
  117SOPE   H5S12304   2.889   5.091  -0.181  0.4586  2.3162 -2.5695
  117SOPE   C2612305   2.985   4.966  -0.346 -0.0823  0.0843  0.2168
  117SOPE   H6R12306   2.893   4.911  -0.375 -0.3630  0.2933  0.7111
  117SOPE   H6S12307   3.010   5.037  -0.428  0.4902 -1.6342 -1.1731
  117SOPE   C2712308   3.094   4.857  -0.343 -0.0861  0.6960 -0.7752
  117SOPE   H7R12309   3.193   4.908  -0.335  0.3824 -0.3086  0.1691
  117SOPE   H7S12310   3.081   4.790  -0.255 -0.2680  2.4708  0.5881
  117SOPE   C2812311   3.089   4.769  -0.472 -0.8761 -0.6647 -0.3251
  117SOPE   H8R12312   3.178   4.704  -0.461  0.6331  1.3307 -0.2740
  117SOPE   H8S12313   3.000   4.702  -0.470 -0.3575 -1.3511  0.1969
  117SOPE   C2912314   3.122   4.840  -0.601  0.2766 -0.3172  0.0807
  117SOPE   H9112315   3.193   4.923  -0.593  1.5392 -1.4048  0.4379
  117SOPE  C21012316   3.062   4.818  -0.726  0.2126 -0.0507 -0.3375
  117SOPE  H10112317   3.105   4.878  -0.808  2.5360 -0.5945  0.4157
  117SOPE  C21112318   2.956   4.715  -0.759 -0.4394  1.1644 -0.3505
  117SOPE  H11R12319   2.890   4.700  -0.670 -0.2539 -0.1932 -0.4211
  117SOPE  H11S12320   2.989   4.616  -0.794 -2.8068  0.6607 -1.3654
  117SOPE  C21212321   2.851   4.759  -0.874 -0.3462  0.4302  0.3905
  117SOPE  H12R12322   2.816   4.862  -0.855  0.3614  1.3341 -2.7253
  117SOPE  H12S12323   2.770   4.684  -0.860 -0.6909  0.1763 -2.3936
  117SOPE  C21312324   2.910   4.743  -1.012  0.4208 -0.4505  0.2062
  117SOPE  H13R12325   2.825   4.748  -1.084 -0.4615 -2.9929  0.9415
  117SOPE  H13S12326   2.947   4.640  -1.032  0.6891 -0.0358 -1.6671
  117SOPE  C21412327   3.018   4.843  -1.059 -0.1894 -0.0853 -0.8357
  117SOPE  H14R12328   3.114   4.830  -1.005 -0.4431  3.4147  0.7294
  117SOPE  H14S12329   2.980   4.945  -1.037 -3.5397 -1.5088  0.6373
  117SOPE  C21512330   3.040   4.809  -1.205  0.0308 -0.4634 -0.5126
  117SOPE  H15R12331   2.954   4.851  -1.262 -0.6219  0.7291  1.2545
  117SOPE  H15S12332   3.030   4.699  -1.217 -1.1800 -0.6198  1.3891
  117SOPE  C21612333   3.170   4.856  -1.266  0.1791 -0.9971 -0.2689
  117SOPE  H16R12334   3.261   4.813  -1.218 -0.3175 -1.4093  0.3168
  117SOPE  H16S12335   3.173   4.964  -1.241 -1.9573 -0.8475 -0.5208
  117SOPE  C21712336   3.173   4.839  -1.419  0.2748  0.5668 -0.0105
  117SOPE  H17R12337   3.065   4.847  -1.444  0.0844  0.7669  0.8490
  117SOPE  H17S12338   3.194   4.733  -1.445 -0.3955  0.2475  0.7037
  117SOPE  C21812339   3.267   4.925  -1.496 -0.1900 -0.1440 -0.1566
  117SOPE  H18R12340   3.239   4.912  -1.603 -1.4504 -0.5910  0.2007
  117SOPE  H18S12341   3.373   4.898  -1.478 -0.3985 -1.9325 -1.2859
  117SOPE  H18T12342   3.237   5.029  -1.475  0.1329  0.1123 -0.9183
  117SOPE   C3312343   3.180   5.723  -0.265 -0.6715  0.7833  0.3353
  117SOPE   H3X12344   3.154   5.617  -0.288  0.0100  0.6053  0.3529
  117SOPE   H3Y12345   3.289   5.737  -0.279 -0.7738  0.6739 -0.6648
  117SOPE   C3412346   3.098   5.814  -0.357 -0.2185  0.2975  0.1363
  117SOPE   H4X12347   3.110   5.919  -0.320 -0.7947  0.4960 -0.2246
  117SOPE   H4Y12348   2.998   5.770  -0.339 -0.0386  0.0933  0.6339
  117SOPE   C3512349   3.144   5.811  -0.512 -0.1675  0.2923 -0.1999
  117SOPE   H5X12350   3.140   5.704  -0.541  0.1391  0.6825 -1.7822
  117SOPE   H5Y12351   3.251   5.843  -0.516 -0.8103  2.4990 -1.8258
  117SOPE   C3612352   3.057   5.899  -0.599  0.0812 -0.1804 -0.6635
  117SOPE   H6X12353   3.046   5.995  -0.544  1.1942 -0.8991  0.8735
  117SOPE   H6Y12354   2.951   5.865  -0.592 -0.5514  1.9827  2.6709
  117SOPE   C3712355   3.102   5.920  -0.741 -0.8182  0.2593  0.5003
  117SOPE   H7X12356   3.208   5.953  -0.750 -0.7539  0.1024  0.6878
  117SOPE   H7Y12357   3.044   6.003  -0.787 -2.8749 -1.6081 -0.4543
  117SOPE   C3812358   3.075   5.797  -0.827  0.0085  0.0731  0.4972
  117SOPE   H8X12359   2.966   5.776  -0.831  0.3478 -1.6135 -1.3855
  117SOPE   H8Y12360   3.134   5.713  -0.786  1.0198  0.9921  0.9587
  117SOPE   C3912361   3.112   5.829  -0.975  0.4815  0.7063 -0.7802
  117SOPE   H9X12362   3.220   5.853  -0.986  1.2180 -0.9092  1.9035
  117SOPE   H9Y12363   3.054   5.910  -1.023 -1.3760 -1.3952 -2.2939
  117SOPE  C31012364   3.109   5.707  -1.064 -0.2005 -0.3850  0.2664
  117SOPE  H10X12365   3.024   5.640  -1.038 -1.6073  0.8260 -0.9641
  117SOPE  H10Y12366   3.200   5.647  -1.043  0.2082 -0.1359 -0.7435
  117SOPE  C31112367   3.133   5.756  -1.205  0.1720 -0.5265  0.1634
  117SOPE  H11X12368   3.231   5.808  -1.211 -0.4456  0.7277  0.6776
  117SOPE  H11Y12369   3.047   5.826  -1.218  1.1548  0.4351 -1.5269
  117SOPE  C31212370   3.125   5.642  -1.303  0.8329  0.4098 -0.0173
  117SOPE  H12X12371   3.039   5.574  -1.288 -0.6312  1.8811 -1.4524
  117SOPE  H12Y12372   3.209   5.571  -1.287 -1.4583 -2.0231  2.2531
  117SOPE  C31312373   3.106   5.693  -1.442 -0.4192  0.4032  0.5524
  117SOPE  H13X12374   3.013   5.755  -1.444 -0.9499 -0.3728  0.9520
  117SOPE  H13Y12375   3.082   5.601  -1.499 -1.5850 -0.2945  2.1120
  117SOPE  C31412376   3.234   5.769  -1.505  0.8982 -0.3334  0.0676
  117SOPE  H14X12377   3.324   5.709  -1.481  0.8318  0.0703  1.4139
  117SOPE  H14Y12378   3.246   5.871  -1.461 -0.6643 -0.0313 -0.1177
  117SOPE  C31512379   3.202   5.797  -1.649 -0.0384  0.1097  0.5516
  117SOPE  H15X12380   3.102   5.846  -1.646 -1.1833 -1.8454 -2.0730
  117SOPE  H15Y12381   3.187   5.702  -1.705 -0.5275  1.7142 -2.2189
  117SOPE  C31612382   3.310   5.874  -1.731 -0.1083 -0.1777 -0.1246
  117SOPE  H16X12383   3.396   5.805  -1.734  1.0079  1.0983  0.9239
  117SOPE  H16Y12384   3.338   5.965  -1.672  1.1930 -1.5427  1.4516
  117SOPE  C31712385   3.270   5.921  -1.866 -0.7802  0.7184  0.0488
  117SOPE  H17X12386   3.344   5.994  -1.907 -1.3525  1.4094  0.2071
  117SOPE  H17Y12387   3.169   5.965  -1.848 -1.8020 -1.5090 -0.0118
  117SOPE  C31812388   3.251   5.815  -1.980 -0.3335  0.0669 -0.5127
  117SOPE  H18X12389   3.154   5.764  -1.962 -0.8430  1.1605 -0.1114
  117SOPE  H18Y12390   3.333   5.740  -1.980 -2.7156 -2.7170  0.3101
  117SOPE  H18Z12391   3.232   5.867  -2.076 -1.9907  1.4634  0.5155
  118SOPE     N12392   1.022   1.304   8.814 -0.5032  0.8132 -1.0503
  118SOPE   HN112393   1.056   1.330   8.909 -1.2211 -0.1959 -0.4930
  118SOPE   HN212394   1.087   1.228   8.783 -1.1066  0.0770 -0.5548
  118SOPE   HN312395   1.025   1.382   8.746 -0.8851 -0.3162 -2.3967
  118SOPE   C1212396   0.882   1.238   8.835 -0.0396  0.1002  0.5746
  118SOPE  H12A12397   0.845   1.236   8.730  1.4219  1.6200 -0.0327
  118SOPE  H12B12398   0.811   1.303   8.889 -1.5481 -1.0245  0.0231
  118SOPE   C1112399   0.889   1.106   8.915 -1.1783 -0.1320  0.1425
  118SOPE  H11A12400   0.938   1.129   9.012 -0.9977  0.6010 -0.1235
  118SOPE  H11B12401   0.950   1.029   8.862 -1.9396 -0.4422 -0.3044
  118SOPE     P12402   0.685   0.958   8.860  0.1013  0.0747 -0.4773
  118SOPE   O1312403   0.544   0.989   8.871 -0.1106 -0.6713  0.0147
  118SOPE   O1412404   0.719   0.821   8.905 -0.0537  0.8207 -0.1327
  118SOPE   O1212405   0.766   1.054   8.953  0.1953  0.1144 -0.5813
  118SOPE   O1112406   0.733   0.972   8.707 -0.4347  0.5437 -0.3989
  118SOPE    C112407   0.642   1.038   8.613 -0.3054  0.2253  0.0446
  118SOPE    HA12408   0.701   1.074   8.526  0.0867  0.9416  0.5937
  118SOPE    HB12409   0.594   1.124   8.663 -1.6047 -0.8790  0.7560
  118SOPE    C212410   0.537   0.944   8.547 -0.7343 -0.9349  0.0977
  118SOPE    HS12411   0.450   0.935   8.615 -1.4825 -1.5967 -0.9175
  118SOPE   O2112412   0.598   0.824   8.509 -0.6183  0.2604 -0.4839
  118SOPE   C2112413   0.516   0.718   8.514  0.0630 -0.6836  0.6305
  118SOPE   O2212414   0.400   0.723   8.544  0.7231 -0.1414  0.3655
  118SOPE   C2212415   0.597   0.601   8.459  0.2795  0.2924 -0.4560
  118SOPE   H2R12416   0.555   0.584   8.358  0.1164 -2.8055  0.0432
  118SOPE   H2S12417   0.569   0.509   8.514  4.6811 -1.0515 -0.0860
  118SOPE    C312418   0.484   1.011   8.423  0.1450  0.4348 -0.4515
  118SOPE    HX12419   0.434   0.928   8.368 -1.1384 -0.2142  1.5948
  118SOPE    HY12420   0.568   1.037   8.354  0.2953  2.9630  0.5957
  118SOPE   O3112421   0.388   1.118   8.442 -0.7243 -0.3728 -0.4441
  118SOPE   C3112422   0.440   1.243   8.445 -0.5504 -0.1949  0.3037
  118SOPE   O3212423   0.557   1.272   8.419 -0.2612 -0.4036 -0.2230
  118SOPE   C3212424   0.333   1.348   8.468 -0.0861  0.2916  0.1760
  118SOPE   H2X12425   0.290   1.330   8.569 -1.9973  0.0080 -0.6410
  118SOPE   H2Y12426   0.251   1.343   8.393  1.7783  0.9842 -2.0468
  118SOPE   C2312427   0.754   0.624   8.452  0.3790  0.4020 -0.4105
  118SOPE   H3R12428   0.789   0.622   8.557 -0.8726 -0.5587  0.0132
  118SOPE   H3S12429   0.789   0.716   8.401  1.1771 -0.2182 -0.9968
  118SOPE   C2412430   0.820   0.511   8.372 -0.3031 -0.1105  0.3201
  118SOPE   H4R12431   0.764   0.419   8.398 -1.1772  0.3602  0.1298
  118SOPE   H4S12432   0.798   0.538   8.266  1.7440 -0.4278 -0.2301
  118SOPE   C2512433   0.969   0.524   8.397 -0.2989  0.0917  0.0787
  118SOPE   H5R12434   0.998   0.628   8.420 -1.4368  0.8388 -1.6224
  118SOPE   H5S12435   1.004   0.455   8.477  0.5352  0.9020  0.4264
  118SOPE   C2612436   1.041   0.498   8.260 -0.0758 -0.0530 -0.1189
  118SOPE   H6R12437   1.018   0.392   8.237 -5.2084  0.7412  0.1107
  118SOPE   H6S12438   0.996   0.552   8.174 -0.1921 -0.8842 -0.5834
  118SOPE   C2712439   1.191   0.527   8.253 -0.6519  0.3196 -0.0216
  118SOPE   H7R12440   1.209   0.635   8.272 -2.7454  1.0018 -1.5288
  118SOPE   H7S12441   1.257   0.475   8.326  2.2294  1.8309 -1.3986
  118SOPE   C2812442   1.253   0.517   8.111 -0.2548 -0.4636 -0.2013
  118SOPE   H8R12443   1.232   0.604   8.045  1.0210 -0.5260 -0.7190
  118SOPE   H8S12444   1.364   0.515   8.118 -0.3105 -0.9931  0.7076
  118SOPE   C2912445   1.226   0.391   8.043  0.5501  0.5853  0.9818
  118SOPE   H9112446   1.231   0.305   8.111  0.6651 -1.5985 -1.6247
  118SOPE  C21012447   1.178   0.378   7.918 -0.6341 -0.8463  0.5396
  118SOPE  H10112448   1.163   0.282   7.867  0.1361 -0.1763 -1.0273
  118SOPE  C21112449   1.145   0.489   7.825 -0.6548 -0.0900  0.1728
  118SOPE  H11R12450   1.226   0.563   7.812 -0.1429 -0.6742  0.0052
  118SOPE  H11S12451   1.065   0.561   7.855 -0.8327  0.7673 -2.1714
  118SOPE  C21212452   1.104   0.425   7.693 -0.6675 -0.3993  0.4225
  118SOPE  H12R12453   1.050   0.496   7.626  0.0443  0.6437  0.9244
  118SOPE  H12S12454   1.034   0.340   7.704 -2.3504  0.8169 -0.4836
  118SOPE  C21312455   1.228   0.387   7.605 -0.1321 -0.3295  0.3022
  118SOPE  H13R12456   1.296   0.327   7.669  0.6063 -1.2223 -1.2609
  118SOPE  H13S12457   1.290   0.467   7.557  0.5212 -1.2130 -0.3556
  118SOPE  C21412458   1.186   0.305   7.489 -0.1692  0.5409  0.1858
  118SOPE  H14R12459   1.095   0.348   7.443 -1.1331  1.0419  2.4363
  118SOPE  H14S12460   1.155   0.202   7.519  0.0502  0.9773  2.0031
  118SOPE  C21512461   1.303   0.297   7.390 -0.9107 -0.6884 -0.0520
  118SOPE  H15R12462   1.400   0.273   7.439  1.8392 -0.8386 -4.9642
  118SOPE  H15S12463   1.324   0.402   7.361  1.3256 -0.2862  2.5824
  118SOPE  C21612464   1.287   0.205   7.274  0.0421  0.0756  0.1544
  118SOPE  H16R12465   1.207   0.248   7.210  1.6819 -0.8934 -2.7275
  118SOPE  H16S12466   1.249   0.105   7.301  1.7603 -1.6523 -3.1950
  118SOPE  C21712467   1.423   0.205   7.197 -0.1787 -0.2304 -0.1598
  118SOPE  H17R12468   1.498   0.150   7.259 -1.8357  1.9124  4.1719
  118SOPE  H17S12469   1.461   0.307   7.178  1.2449 -0.8498 -0.7525
  118SOPE  C21812470   1.391   0.132   7.061  0.5318  0.7619 -0.2489
  118SOPE  H18R12471   1.334   0.037   7.073  1.8432 -0.0218  0.0686
  118SOPE  H18S12472   1.492   0.102   7.026  0.0021 -1.6551  0.0675
  118SOPE  H18T12473   1.345   0.197   6.984 -0.2032 -0.1069 -0.5748
  118SOPE   C3312474   0.384   1.487   8.463  0.3253 -0.4810 -0.9361
  118SOPE   H3X12475   0.469   1.502   8.533  1.1187 -0.5354 -1.8582
  118SOPE   H3Y12476   0.302   1.557   8.489  0.5579 -0.8765  0.9895
  118SOPE   C3412477   0.438   1.532   8.323  0.3253 -0.4176  1.0465
  118SOPE   H4X12478   0.366   1.505   8.243  1.1752 -0.9386  0.4423
  118SOPE   H4Y12479   0.533   1.483   8.297  0.8121  1.2097 -0.4716
  118SOPE   C3512480   0.462   1.686   8.319  0.1828  0.8108 -0.1846
  118SOPE   H5X12481   0.569   1.706   8.342 -0.2510  1.3771  1.5194
  118SOPE   H5Y12482   0.413   1.740   8.403  2.4678  2.6741  0.0568
  118SOPE   C3612483   0.413   1.739   8.181 -0.1541 -0.0302 -0.1550
  118SOPE   H6X12484   0.428   1.848   8.168  0.8824 -0.1162  0.1913
  118SOPE   H6Y12485   0.304   1.719   8.178 -0.6330  1.6356  2.4697
  118SOPE   C3712486   0.489   1.677   8.065  0.2574 -0.0770  0.4758
  118SOPE   H7X12487   0.428   1.585   8.053  1.1468 -0.5451 -0.7535
  118SOPE   H7Y12488   0.594   1.655   8.096 -0.4138 -0.8501  2.3283
  118SOPE   C3812489   0.500   1.751   7.930  0.5517 -0.1025  0.2526
  118SOPE   H8X12490   0.555   1.848   7.937 -2.1428  1.5174  0.2073
  118SOPE   H8Y12491   0.395   1.773   7.902 -0.1332  0.3999  3.0088
  118SOPE   C3912492   0.569   1.653   7.827  0.7241  0.2641  0.3361
  118SOPE   H9X12493   0.489   1.581   7.799  1.3705  1.0775 -4.3504
  118SOPE   H9Y12494   0.659   1.597   7.862  1.5975  0.4740 -1.4816
  118SOPE  C31012495   0.607   1.737   7.705 -0.3106 -0.2301  0.1624
  118SOPE  H10X12496   0.696   1.801   7.721  0.3303 -1.3913  1.3467
  118SOPE  H10Y12497   0.525   1.804   7.671  0.1067  0.2709  0.1264
  118SOPE  C31112498   0.638   1.638   7.592 -0.1622  0.1396  0.0902
  118SOPE  H11X12499   0.544   1.590   7.556 -0.4056 -1.0897  2.1916
  118SOPE  H11Y12500   0.692   1.550   7.636  1.7387  0.9846 -0.4354
  118SOPE  C31212501   0.721   1.702   7.481  0.5066  0.0400 -0.0954
  118SOPE  H12X12502   0.817   1.735   7.528  0.5576 -1.5049  0.9898
  118SOPE  H12Y12503   0.671   1.788   7.432 -0.6454 -0.9901 -0.7614
  118SOPE  C31312504   0.761   1.595   7.372 -0.1710 -0.7945  0.7627
  118SOPE  H13X12505   0.675   1.539   7.331 -1.0358  0.3104  1.0194
  118SOPE  H13Y12506   0.826   1.517   7.417  2.6216  0.7247 -0.3296
  118SOPE  C31412507   0.858   1.663   7.269 -0.9668 -0.4063 -0.1631
  118SOPE  H14X12508   0.928   1.718   7.335 -1.6824  0.6494 -0.2753
  118SOPE  H14Y12509   0.803   1.737   7.207  1.6772  2.3595  0.5508
  118SOPE  C31512510   0.932   1.559   7.183  0.5637  0.4385 -0.7980
  118SOPE  H15X12511   0.962   1.474   7.249  0.6350  0.2949 -1.0153
  118SOPE  H15Y12512   1.029   1.598   7.148  1.2642  1.1253  1.6923
  118SOPE  C31612513   0.836   1.507   7.083  0.5067  0.0709  0.0501
  118SOPE  H16X12514   0.782   1.589   7.030  1.3981  0.2302 -0.6348
  118SOPE  H16Y12515   0.751   1.449   7.127 -0.3249  0.0568 -1.5153
  118SOPE  C31712516   0.897   1.405   6.988 -0.1081  0.2965  0.2672
  118SOPE  H17X12517   0.954   1.323   7.037  1.3621  1.5868  0.7822
  118SOPE  H17Y12518   0.981   1.449   6.930 -1.0434  0.8608 -0.7163
  118SOPE  C31812519   0.802   1.352   6.875  0.5689  0.1959 -0.1259
  118SOPE  H18X12520   0.706   1.309   6.911  0.2198  0.9900 -0.1013
  118SOPE  H18Y12521   0.852   1.262   6.831  0.3435 -0.5136  1.0220
  118SOPE  H18Z12522   0.790   1.436   6.804  0.9867  1.6625  1.4847
  119SOPE     N12523   6.362   2.934   0.418  0.1009  0.1195  0.4321
  119SOPE   HN112524   6.450   2.981   0.389 -1.4512  3.5080  0.6784
  119SOPE   HN212525   6.307   3.020   0.437  2.2516  1.1743  2.4806
  119SOPE   HN312526   6.374   2.881   0.507  0.9034  0.3473  0.4729
  119SOPE   C1212527   6.305   2.846   0.312 -0.9053  0.7765  0.5080
  119SOPE  H12A12528   6.223   2.783   0.352 -0.5139 -0.4458 -0.5293
  119SOPE  H12B12529   6.389   2.775   0.298 -0.5351  1.1658  0.7720
  119SOPE   C1112530   6.266   2.919   0.187  0.2771 -0.1883 -0.4966
  119SOPE  H11A12531   6.192   2.997   0.218 -0.6668 -0.2675 -2.3879
  119SOPE  H11B12532   6.217   2.861   0.107  0.4056  0.1315 -0.8115
  119SOPE     P12533   6.489   2.924   0.038  0.1687  0.3388 -0.2710
  119SOPE   O1312534   6.438   2.806  -0.037  0.0703  0.5440 -0.2535
  119SOPE   O1412535   6.606   2.908   0.126 -0.1111 -0.2022  0.1800
  119SOPE   O1212536   6.374   2.988   0.122 -0.3161 -0.5953  0.4541
  119SOPE   O1112537   6.520   3.037  -0.064  0.1189 -0.6306  0.2251
  119SOPE    C112538   6.457   3.163  -0.073  0.7271 -0.3665 -0.0114
  119SOPE    HA12539   6.514   3.230  -0.140 -1.6265 -0.0511 -1.8113
  119SOPE    HB12540   6.449   3.218   0.024  0.0411 -0.8207  0.1969
  119SOPE    C212541   6.324   3.154  -0.147  0.0833 -0.3312 -0.0858
  119SOPE    HS12542   6.255   3.110  -0.071 -0.6982  0.2643 -0.4361
  119SOPE   O2112543   6.328   3.070  -0.263 -0.0444 -0.3593  0.2741
  119SOPE   C2112544   6.224   3.048  -0.331  0.2195 -0.3033 -0.3441
  119SOPE   O2212545   6.108   3.055  -0.292  0.4360  0.0163 -0.8396
  119SOPE   C2212546   6.264   3.014  -0.477  0.2984 -0.8718  1.0200
  119SOPE   H2R12547   6.176   2.959  -0.518 -0.7241  0.3563  1.4672
  119SOPE   H2S12548   6.352   2.947  -0.476  0.8307 -0.2461 -0.4116
  119SOPE    C312549   6.259   3.292  -0.172 -0.2501 -0.4120  0.3106
  119SOPE    HX12550   6.258   3.361  -0.084  0.4071  0.5858 -0.4430
  119SOPE    HY12551   6.157   3.274  -0.209 -0.6285  2.1125 -0.0703
  119SOPE   O3112552   6.332   3.363  -0.272 -0.7357 -0.1828  0.3975
  119SOPE   C3112553   6.256   3.442  -0.357 -0.6480  0.8887 -0.0836
  119SOPE   O3212554   6.141   3.464  -0.331  0.6676  0.1486  0.3570
  119SOPE   C3212555   6.331   3.501  -0.481 -0.0233  0.5611  0.1260
  119SOPE   H2X12556   6.421   3.443  -0.512 -0.6563  0.8902 -2.5397
  119SOPE   H2Y12557   6.380   3.595  -0.449 -0.0698  1.1297 -1.3910
  119SOPE   C2312558   6.281   3.145  -0.561 -0.3134 -0.2101 -0.0827
  119SOPE   H3R12559   6.352   3.207  -0.502 -1.8545  1.2218  0.3719
  119SOPE   H3S12560   6.185   3.200  -0.576 -1.7452 -2.1904  1.2528
  119SOPE   C2412561   6.346   3.124  -0.700  0.2733 -0.1555  0.1328
  119SOPE   H4R12562   6.406   3.214  -0.724  0.9827 -1.1900 -2.2985
  119SOPE   H4S12563   6.405   3.030  -0.708 -0.9876 -1.0382  0.7599
  119SOPE   C2512564   6.240   3.127  -0.809  0.0847  0.2276 -0.5356
  119SOPE   H5R12565   6.194   3.026  -0.799  2.1347 -0.6651  0.5660
  119SOPE   H5S12566   6.158   3.201  -0.798 -2.3915 -2.3458 -0.5370
  119SOPE   C2612567   6.307   3.143  -0.944 -0.2573  0.0191 -0.1062
  119SOPE   H6R12568   6.365   3.238  -0.948  0.9107 -0.7094 -0.8872
  119SOPE   H6S12569   6.378   3.059  -0.951 -0.9159 -0.6290  0.7104
  119SOPE   C2712570   6.204   3.138  -1.056 -0.4997 -0.3523  0.1191
  119SOPE   H7R12571   6.152   3.040  -1.068 -0.8855 -0.4227  1.9588
  119SOPE   H7S12572   6.124   3.207  -1.022 -2.1307 -1.3804 -1.4326
  119SOPE   C2812573   6.261   3.188  -1.191 -0.2191  0.4126 -0.8572
  119SOPE   H8R12574   6.331   3.273  -1.181  0.2469 -0.1207  0.7995
  119SOPE   H8S12575   6.336   3.108  -1.212 -0.2024 -0.0768  0.8752
  119SOPE   C2912576   6.152   3.202  -1.290  0.1157 -0.4097 -0.0412
  119SOPE   H9112577   6.053   3.244  -1.268 -0.3184 -1.7873  0.7822
  119SOPE  C21012578   6.168   3.149  -1.412  0.4775  0.1012 -0.4557
  119SOPE  H10112579   6.090   3.165  -1.487 -0.5712 -0.2728  0.5180
  119SOPE  C21112580   6.280   3.064  -1.471  0.2418 -0.0844  0.5299
  119SOPE  H11R12581   6.250   2.957  -1.484  4.2455 -1.3694  0.5548
  119SOPE  H11S12582   6.371   3.052  -1.409 -0.1032  1.3055  1.3361
  119SOPE  C21212583   6.324   3.103  -1.612 -0.1283 -0.2269 -0.0951
  119SOPE  H12R12584   6.239   3.138  -1.675 -1.7279 -1.6163  1.2032
  119SOPE  H12S12585   6.350   3.008  -1.663 -1.1626 -0.0344 -1.0210
  119SOPE  C21312586   6.414   3.220  -1.604  0.0085  0.1269  0.5539
  119SOPE  H13R12587   6.507   3.215  -1.543  0.8373 -0.3682 -0.7057
  119SOPE  H13S12588   6.349   3.300  -1.563 -1.8679 -1.3194  0.4982
  119SOPE  C21412589   6.450   3.274  -1.746 -0.2770 -0.2036 -0.0769
  119SOPE  H14R12590   6.516   3.363  -1.740  0.9267 -1.0475 -0.3985
  119SOPE  H14S12591   6.359   3.304  -1.802 -0.3834  0.0245  0.2187
  119SOPE  C21512592   6.514   3.169  -1.840 -0.1541 -0.0835 -0.8135
  119SOPE  H15R12593   6.453   3.076  -1.844  1.1781 -1.1967  1.9575
  119SOPE  H15S12594   6.608   3.134  -1.792 -1.0445 -1.0354  0.2863
  119SOPE  C21612595   6.559   3.218  -1.981 -0.0221 -0.5859 -0.6380
  119SOPE  H16R12596   6.646   3.287  -1.974  1.2385 -2.1794  0.0518
  119SOPE  H16S12597   6.475   3.281  -2.017 -0.3504 -0.5272  0.2002
  119SOPE  C21712598   6.598   3.111  -2.080  0.1936  0.1495  0.3495
  119SOPE  H17R12599   6.516   3.036  -2.084 -2.0674  2.5691 -0.6718
  119SOPE  H17S12600   6.689   3.059  -2.042  0.2935 -0.6863 -0.9494
  119SOPE  C21812601   6.623   3.162  -2.223  0.5105  0.0360 -0.2301
  119SOPE  H18R12602   6.709   3.232  -2.217 -0.3663  1.2861 -1.4646
  119SOPE  H18S12603   6.539   3.228  -2.254  0.9072  1.0591  0.7864
  119SOPE  H18T12604   6.639   3.082  -2.298  0.6803 -1.0259  0.9078
  119SOPE   C3312605   6.246   3.504  -0.602 -0.2512  0.5874  0.4354
  119SOPE   H3X12606   6.155   3.566  -0.584 -1.1240  0.1381 -1.9582
  119SOPE   H3Y12607   6.211   3.400  -0.621 -1.2119  0.5739  2.0869
  119SOPE   C3412608   6.308   3.582  -0.720 -1.1878  0.6193 -0.2508
  119SOPE   H4X12609   6.383   3.658  -0.689  0.4494 -0.4017 -1.5045
  119SOPE   H4Y12610   6.229   3.643  -0.769  0.3052  0.9961 -2.3340
  119SOPE   C3512611   6.374   3.500  -0.837 -0.1802 -0.3359  0.3961
  119SOPE   H5X12612   6.302   3.420  -0.862  0.1587 -1.2525  2.1694
  119SOPE   H5Y12613   6.464   3.450  -0.795 -0.6475 -1.9257 -0.3998
  119SOPE   C3612614   6.411   3.594  -0.947 -0.2748 -0.7521  0.1106
  119SOPE   H6X12615   6.503   3.640  -0.906 -1.4555  0.5309  1.4340
  119SOPE   H6Y12616   6.337   3.675  -0.964  0.0543 -0.6760 -1.1178
  119SOPE   C3712617   6.425   3.537  -1.086 -0.1786  0.6221  0.0911
  119SOPE   H7X12618   6.327   3.500  -1.122 -0.0455  1.4506 -1.1968
  119SOPE   H7Y12619   6.497   3.453  -1.080 -0.1431  0.7204  1.3715
  119SOPE   C3812620   6.487   3.634  -1.186 -0.3302 -0.4954 -0.4450
  119SOPE   H8X12621   6.591   3.660  -1.155  0.1337 -1.5680 -1.0617
  119SOPE   H8Y12622   6.428   3.728  -1.195 -0.0631 -0.1388  1.1798
  119SOPE   C3912623   6.493   3.579  -1.323 -0.3439  0.4970 -0.2493
  119SOPE   H9X12624   6.390   3.577  -1.364 -0.6788 -0.2602  0.5859
  119SOPE   H9Y12625   6.520   3.472  -1.309 -0.3399  0.6580  1.0681
  119SOPE  C31012626   6.586   3.654  -1.421 -0.6727 -0.5124  0.0325
  119SOPE  H10X12627   6.689   3.620  -1.398  0.4099  1.8487 -0.9646
  119SOPE  H10Y12628   6.582   3.764  -1.406 -0.7196 -0.5135  0.0284
  119SOPE  C31112629   6.556   3.625  -1.571  0.2123  0.6091 -0.2057
  119SOPE  H11X12630   6.532   3.517  -1.578  0.3097  0.4649  1.4124
  119SOPE  H11Y12631   6.646   3.646  -1.633  0.0070  2.2249 -0.0179
  119SOPE  C31212632   6.429   3.696  -1.617  0.4501  0.1673 -0.5760
  119SOPE  H12X12633   6.441   3.807  -1.612 -1.7984  0.4312 -0.0203
  119SOPE  H12Y12634   6.349   3.676  -1.543  0.6207 -0.1696 -0.4824
  119SOPE  C31312635   6.379   3.653  -1.749  0.1491  0.0967  0.0407
  119SOPE  H13X12636   6.353   3.545  -1.757 -0.0008  0.1937 -0.8691
  119SOPE  H13Y12637   6.460   3.674  -1.822 -0.5378 -1.2852 -1.1837
  119SOPE  C31412638   6.245   3.719  -1.783 -0.5330 -0.3385  0.4397
  119SOPE  H14X12639   6.245   3.823  -1.742  0.0611 -0.4440  0.7262
  119SOPE  H14Y12640   6.173   3.664  -1.719 -2.2560  0.0824 -1.0678
  119SOPE  C31512641   6.202   3.719  -1.928  0.1064  0.4825 -0.3846
  119SOPE  H15X12642   6.252   3.796  -1.990 -0.4856 -0.5078 -2.1620
  119SOPE  H15Y12643   6.095   3.749  -1.916 -0.0715 -0.8176  1.9578
  119SOPE  C31612644   6.218   3.584  -1.995 -0.3694  0.4476 -0.2297
  119SOPE  H16X12645   6.120   3.531  -1.988  0.7634 -1.5122  2.5709
  119SOPE  H16Y12646   6.299   3.523  -1.950 -2.2157 -0.9091  1.3914
  119SOPE  C31712647   6.222   3.602  -2.138 -0.5422 -0.0578 -0.8165
  119SOPE  H17X12648   6.316   3.660  -2.149 -1.3776  1.2970 -1.0678
  119SOPE  H17Y12649   6.139   3.654  -2.190  2.1220  2.8809 -2.4613
  119SOPE  C31812650   6.245   3.466  -2.206  0.2967 -0.8300  0.1283
  119SOPE  H18X12651   6.313   3.402  -2.146 -1.1825 -0.6501  2.0876
  119SOPE  H18Y12652   6.300   3.477  -2.302  1.8214 -0.3397  1.0164
  119SOPE  H18Z12653   6.142   3.426  -2.210 -0.2342 -0.1824  3.6261
  120SOPE     N12654   2.002   2.024   0.169 -0.1005 -0.7175  0.3909
  120SOPE   HN112655   2.000   2.025   0.273 -0.3542 -1.4595  0.4006
  120SOPE   HN212656   1.987   1.925   0.140  0.8580 -0.3142 -1.6250
  120SOPE   HN312657   2.100   2.057   0.159 -0.7455  0.8294 -1.5260
  120SOPE   C1212658   1.908   2.126   0.114  0.3548  0.3134 -0.8189
  120SOPE  H12A12659   1.874   2.090   0.014  0.9963 -0.5206 -0.7536
  120SOPE  H12B12660   1.969   2.217   0.099  0.5589  0.5395  1.0888
  120SOPE   C1112661   1.800   2.165   0.221 -0.5473 -0.4771  0.2226
  120SOPE  H11A12662   1.733   2.245   0.183  0.3727  0.7034  1.0515
  120SOPE  H11B12663   1.863   2.221   0.293 -0.0558 -0.5453 -0.1446
  120SOPE     P12664   1.613   1.987   0.196  0.1738  0.5543  0.3035
  120SOPE   O1312665   1.500   1.982   0.286  0.2970  0.3832 -0.7362
  120SOPE   O1412666   1.659   1.860   0.131 -0.4190  0.8231  0.0131
  120SOPE   O1212667   1.738   2.052   0.276  0.1578  0.7272 -0.2008
  120SOPE   O1112668   1.583   2.087   0.082  0.0380 -0.4891  0.5134
  120SOPE    C112669   1.465   2.078   0.000 -0.2578  0.0700  0.0524
  120SOPE    HA12670   1.386   2.144   0.043  0.1190 -0.4310  1.5945
  120SOPE    HB12671   1.443   1.971  -0.018 -0.4424  0.3425 -1.4616
  120SOPE    C212672   1.484   2.141  -0.151  0.1155 -0.0479  0.1490
  120SOPE    HS12673   1.390   2.104  -0.197 -0.5409  1.8585 -0.1122
  120SOPE   O2112674   1.610   2.107  -0.227  0.3980  0.0551  0.2031
  120SOPE   C2112675   1.620   1.976  -0.251 -0.2662 -0.1748 -0.7862
  120SOPE   O2212676   1.528   1.893  -0.244  0.2166 -0.0700  0.6772
  120SOPE   C2212677   1.764   1.949  -0.283 -0.6082 -0.7532 -0.5969
  120SOPE   H2R12678   1.800   1.847  -0.255  2.3023 -0.4250 -2.6831
  120SOPE   H2S12679   1.817   2.018  -0.214 -0.9644 -0.2713 -0.8061
  120SOPE    C312680   1.470   2.294  -0.156 -0.2014 -0.1009  0.1154
  120SOPE    HX12681   1.542   2.344  -0.089  1.2485 -1.2982 -0.4919
  120SOPE    HY12682   1.373   2.326  -0.113 -1.1523 -1.1506 -1.1555
  120SOPE   O3112683   1.469   2.343  -0.294  0.1278 -0.4186 -0.4946
  120SOPE   C3112684   1.431   2.467  -0.314  0.5339  0.2577 -0.2011
  120SOPE   O3212685   1.414   2.550  -0.225  0.3026  0.4015  0.0059
  120SOPE   C3212686   1.403   2.498  -0.459  0.2714 -0.0002 -0.6804
  120SOPE   H2X12687   1.501   2.505  -0.512 -0.2461  1.1486 -1.4969
  120SOPE   H2Y12688   1.363   2.601  -0.465  1.3725  0.4930  0.0930
  120SOPE   C2312689   1.812   1.969  -0.423 -0.0093  0.2670  0.3115
  120SOPE   H3R12690   1.923   1.964  -0.422 -0.0349 -0.3974  0.7264
  120SOPE   H3S12691   1.785   2.075  -0.443 -0.7094 -0.3315 -2.3884
  120SOPE   C2412692   1.767   1.863  -0.526 -0.3328 -0.5442 -0.2078
  120SOPE   H4R12693   1.836   1.776  -0.520  0.3006 -0.0961 -0.8864
  120SOPE   H4S12694   1.659   1.840  -0.510 -0.2114  0.1654  1.8756
  120SOPE   C2512695   1.775   1.908  -0.679 -0.5888  0.2935 -0.4055
  120SOPE   H5R12696   1.708   1.993  -0.704 -1.5968 -0.3717 -0.0458
  120SOPE   H5S12697   1.881   1.938  -0.692  0.1463 -2.2430 -0.9059
  120SOPE   C2612698   1.738   1.795  -0.778  0.5396 -0.0012 -0.7244
  120SOPE   H6R12699   1.794   1.703  -0.751  2.2232  1.5475  1.3599
  120SOPE   H6S12700   1.629   1.774  -0.776  1.2089 -4.5732 -1.4026
  120SOPE   C2712701   1.775   1.836  -0.920  0.5168  0.0209  0.3629
  120SOPE   H7R12702   1.720   1.928  -0.948 -1.9026 -1.5425 -0.2852
  120SOPE   H7S12703   1.882   1.866  -0.910  1.4541 -2.5336 -0.9671
  120SOPE   C2812704   1.747   1.718  -1.006 -0.2243  0.4175  1.0469
  120SOPE   H8R12705   1.784   1.633  -0.945  0.0762  1.0547  1.7623
  120SOPE   H8S12706   1.637   1.712  -1.021 -0.2455  2.7371 -0.2245
  120SOPE   C2912707   1.824   1.688  -1.131 -0.1724 -0.9215  0.4535
  120SOPE   H9112708   1.909   1.618  -1.123 -1.2830 -2.2462  1.1799
  120SOPE  C21012709   1.795   1.736  -1.255  0.3578  0.2633  0.2594
  120SOPE  H10112710   1.857   1.704  -1.339 -1.2830  0.8464 -1.2524
  120SOPE  C21112711   1.684   1.834  -1.293 -0.0876 -0.9621 -0.2394
  120SOPE  H11R12712   1.726   1.936  -1.307  0.1533 -0.7639  1.6449
  120SOPE  H11S12713   1.606   1.833  -1.213  0.6450  0.7440  0.5455
  120SOPE  C21212714   1.630   1.790  -1.425 -0.2138 -0.4152 -0.6008
  120SOPE  H12R12715   1.532   1.837  -1.443  0.5469  2.0227  1.1830
  120SOPE  H12S12716   1.617   1.680  -1.412 -1.4089 -0.2585 -0.3657
  120SOPE  C21312717   1.719   1.835  -1.544 -0.1645  0.3107  0.6106
  120SOPE  H13R12718   1.819   1.793  -1.523 -0.7748 -1.7398 -0.2643
  120SOPE  H13S12719   1.743   1.943  -1.546 -0.6816  0.4536 -2.3073
  120SOPE  C21412720   1.659   1.803  -1.684 -0.0133  0.8962 -0.0640
  120SOPE  H14R12721   1.549   1.813  -1.680  0.0116  0.9343  0.5648
  120SOPE  H14S12722   1.698   1.701  -1.707  0.7920  0.7362  1.8340
  120SOPE  C21512723   1.686   1.899  -1.799  0.5948 -0.3056 -0.3089
  120SOPE  H15R12724   1.796   1.895  -1.812  0.6767 -4.4383  0.2279
  120SOPE  H15S12725   1.663   2.005  -1.773  1.0962 -0.2949  0.1192
  120SOPE  C21612726   1.634   1.861  -1.940  0.1955 -0.2164 -0.6218
  120SOPE  H16R12727   1.535   1.910  -1.955  0.6323  1.1309  0.6361
  120SOPE  H16S12728   1.631   1.751  -1.952  3.3867 -0.5632  0.8622
  120SOPE  C21712729   1.732   1.912  -2.035 -0.6527 -0.6268  0.0336
  120SOPE  H17R12730   1.830   1.867  -2.009 -0.9017 -0.0459  2.2080
  120SOPE  H17S12731   1.733   2.023  -2.035  0.1914 -0.6278  0.6382
  120SOPE  C21812732   1.703   1.865  -2.183 -1.1598 -0.4828 -0.3394
  120SOPE  H18R12733   1.720   1.756  -2.196 -1.2991 -0.8322  1.9065
  120SOPE  H18S12734   1.766   1.923  -2.253 -2.2319  2.5758  1.0769
  120SOPE  H18T12735   1.600   1.901  -2.202 -0.4529  2.0894  0.3180
  120SOPE   C3312736   1.319   2.393  -0.528  0.3611 -0.4331 -0.7302
  120SOPE   H3X12737   1.231   2.371  -0.464  1.2044  0.3348  0.7381
  120SOPE   H3Y12738   1.387   2.305  -0.538 -0.0359 -0.8772  0.3799
  120SOPE   C3412739   1.248   2.429  -0.664 -0.0173 -0.0319  0.8597
  120SOPE   H4X12740   1.167   2.503  -0.647  0.1888  0.7176 -1.1314
  120SOPE   H4Y12741   1.212   2.335  -0.711  0.0262  0.3565  0.0319
  120SOPE   C3512742   1.351   2.481  -0.769 -0.4209 -0.6275  1.0626
  120SOPE   H5X12743   1.428   2.402  -0.765  0.2466  0.0534  2.0883
  120SOPE   H5Y12744   1.399   2.575  -0.734  0.6363 -0.6589 -0.2288
  120SOPE   C3612745   1.290   2.495  -0.906 -0.1378  0.4198 -0.0863
  120SOPE   H6X12746   1.197   2.556  -0.909 -0.2388  0.4427  1.9389
  120SOPE   H6Y12747   1.263   2.394  -0.944 -1.5345  0.7035  0.0739
  120SOPE   C3712748   1.398   2.555  -1.001  0.7716  0.6016 -0.2195
  120SOPE   H7X12749   1.496   2.504  -0.985 -0.5175 -1.4776  1.7831
  120SOPE   H7Y12750   1.411   2.662  -0.974  1.4230  0.6573 -0.7256
  120SOPE   C3812751   1.337   2.547  -1.138 -1.0892  0.3020 -0.0077
  120SOPE   H8X12752   1.244   2.608  -1.139 -1.8877 -0.8871 -0.6447
  120SOPE   H8Y12753   1.297   2.445  -1.156  0.3710 -0.4161  0.6806
  120SOPE   C3912754   1.430   2.580  -1.266 -0.0787 -0.9886 -0.5633
  120SOPE   H9X12755   1.531   2.535  -1.263  0.8261  0.9239 -1.1569
  120SOPE   H9Y12756   1.438   2.690  -1.255  0.3038 -1.1516  0.9046
  120SOPE  C31012757   1.358   2.547  -1.397 -0.3108 -0.1408 -0.2138
  120SOPE  H10X12758   1.256   2.590  -1.398 -0.0531  0.4782 -0.5326
  120SOPE  H10Y12759   1.348   2.437  -1.391 -1.9707  0.0023  0.0208
  120SOPE  C31112760   1.435   2.593  -1.523  0.4392  0.3600  0.2854
  120SOPE  H11X12761   1.540   2.556  -1.518  0.8893  1.5706  0.1642
  120SOPE  H11Y12762   1.432   2.703  -1.534 -0.6891  0.3873  0.7425
  120SOPE  C31212763   1.375   2.535  -1.653  0.3090 -0.2544 -0.3620
  120SOPE  H12X12764   1.274   2.500  -1.624  1.2509 -2.0887  0.8347
  120SOPE  H12Y12765   1.420   2.440  -1.688  0.0842 -0.5496  0.1471
  120SOPE  C31312766   1.382   2.636  -1.770  0.4689 -0.0053 -0.3125
  120SOPE  H13X12767   1.332   2.735  -1.758 -0.6483 -0.3467 -1.8683
  120SOPE  H13Y12768   1.317   2.596  -1.850 -0.5898  1.4981 -0.2577
  120SOPE  C31412769   1.521   2.634  -1.823 -0.6996 -0.4498  0.3162
  120SOPE  H14X12770   1.538   2.534  -1.868 -1.5872 -0.0263 -1.0187
  120SOPE  H14Y12771   1.590   2.661  -1.740  1.3814  1.2928 -1.8394
  120SOPE  C31512772   1.545   2.732  -1.943  0.3707 -0.2251  0.0257
  120SOPE  H15X12773   1.481   2.710  -2.031  2.9394 -2.3809 -1.4802
  120SOPE  H15Y12774   1.649   2.714  -1.978  0.5804 -2.2865  1.5315
  120SOPE  C31612775   1.526   2.883  -1.914  0.1525  0.5861 -0.0420
  120SOPE  H16X12776   1.420   2.901  -1.885  0.5754  1.1509  1.1966
  120SOPE  H16Y12777   1.544   2.933  -2.011 -4.7861 -0.4812 -1.8403
  120SOPE  C31712778   1.631   2.943  -1.816 -0.7725 -0.2156  0.1554
  120SOPE  H17X12779   1.714   2.870  -1.825 -2.0868 -1.7871  0.4452
  120SOPE  H17Y12780   1.596   2.939  -1.711  0.2509  0.9744  0.5634
  120SOPE  C31812781   1.673   3.087  -1.859 -0.3188  0.0297 -0.2326
  120SOPE  H18X12782   1.580   3.146  -1.872  0.1112  0.7142 -0.2157
  120SOPE  H18Y12783   1.738   3.104  -1.947  0.8181  0.0184  0.5814
  120SOPE  H18Z12784   1.729   3.130  -1.773 -3.7392  2.9982  0.7698
  121SOPE     N12785   1.180   5.892   0.220 -0.0052  0.7115  0.1863
  121SOPE   HN112786   1.164   5.883   0.118 -1.3412  0.1363  0.4282
  121SOPE   HN212787   1.179   5.794   0.252 -1.4980  0.4509 -0.5712
  121SOPE   HN312788   1.102   5.940   0.270 -0.0939  0.2121  0.5231
  121SOPE   C1212789   1.303   5.983   0.239  0.0732  0.3596  0.4415
  121SOPE  H12A12790   1.388   5.911   0.234 -1.2668 -1.2176 -0.6210
  121SOPE  H12B12791   1.311   6.030   0.339  1.7377 -0.9211  0.9754
  121SOPE   C1112792   1.308   6.087   0.131  0.3066 -0.0524 -0.5977
  121SOPE  H11A12793   1.412   6.126   0.131  0.2880  0.0039 -0.9645
  121SOPE  H11B12794   1.248   6.173   0.165  0.4518 -0.9392  2.1047
  121SOPE     P12795   1.390   5.980  -0.096 -0.2378  0.0713  0.3167
  121SOPE   O1312796   1.475   5.882  -0.028  1.0988 -0.1979 -0.2836
  121SOPE   O1412797   1.462   6.096  -0.151  0.3318  0.9609 -0.0976
  121SOPE   O1212798   1.276   6.030   0.001  0.0235  0.2474 -0.2967
  121SOPE   O1112799   1.303   5.923  -0.210  0.1877  0.4396  0.3647
  121SOPE    C112800   1.361   5.827  -0.309  1.2624  0.1358  0.3998
  121SOPE    HA12801   1.278   5.766  -0.351  1.9416 -2.2029  2.2930
  121SOPE    HB12802   1.431   5.760  -0.256 -0.5957 -1.0461  1.4519
  121SOPE    C212803   1.433   5.908  -0.425  0.5208 -0.2401  0.0258
  121SOPE    HS12804   1.500   5.977  -0.369 -0.7018  0.8375  0.2189
  121SOPE   O2112805   1.326   5.970  -0.497 -0.2126 -0.0028 -0.3157
  121SOPE   C2112806   1.344   6.083  -0.561  0.4651 -0.0695 -0.3517
  121SOPE   O2212807   1.437   6.159  -0.557 -0.0076 -0.4164  0.0748
  121SOPE   C2212808   1.226   6.100  -0.654 -0.1709  0.6129 -0.0535
  121SOPE   H2R12809   1.221   6.210  -0.669 -0.9296  0.8403  1.7143
  121SOPE   H2S12810   1.134   6.056  -0.611  0.0511 -0.0589 -0.2405
  121SOPE    C312811   1.513   5.815  -0.519  0.9765  0.0351 -0.1756
  121SOPE    HX12812   1.447   5.732  -0.550 -0.7409  1.5468 -0.7838
  121SOPE    HY12813   1.591   5.761  -0.462 -0.9922 -1.3558  1.3273
  121SOPE   O3112814   1.564   5.887  -0.637 -0.3203  0.3695 -0.3320
  121SOPE   C3112815   1.666   5.969  -0.612  0.7888  0.2465  0.7674
  121SOPE   O3212816   1.723   5.973  -0.506  0.3489  0.3404  0.0348
  121SOPE   C3212817   1.708   6.046  -0.741  0.6986 -0.0186 -0.4796
  121SOPE   H2X12818   1.760   6.138  -0.708 -1.5472  1.3234 -0.4051
  121SOPE   H2Y12819   1.622   6.058  -0.811 -1.4701  1.3653  2.2427
  121SOPE   C2312820   1.269   6.046  -0.799 -0.1755 -0.0100  0.3042
  121SOPE   H3R12821   1.308   5.942  -0.800  1.4555  0.5458  1.3344
  121SOPE   H3S12822   1.368   6.092  -0.822  0.5115  0.3111  3.4789
  121SOPE   C2412823   1.154   6.063  -0.896 -0.6120  0.2194 -0.4081
  121SOPE   H4R12824   1.180   5.997  -0.981  0.6305  0.5316 -0.2867
  121SOPE   H4S12825   1.058   6.015  -0.865  0.5455 -0.7771  1.8397
  121SOPE   C2512826   1.126   6.215  -0.925 -0.2429  0.8043 -0.2820
  121SOPE   H5R12827   1.036   6.203  -0.989  0.3957  1.6565 -1.3863
  121SOPE   H5S12828   1.097   6.267  -0.831 -0.7107 -0.6301  0.4007
  121SOPE   C2612829   1.248   6.287  -0.977  0.1166 -0.8030  0.0696
  121SOPE   H6R12830   1.304   6.307  -0.883 -0.8665  3.0524 -0.0001
  121SOPE   H6S12831   1.318   6.229  -1.041 -0.6192 -0.1148 -1.3963
  121SOPE   C2712832   1.214   6.420  -1.043  0.2722 -0.4864  0.1648
  121SOPE   H7R12833   1.121   6.459  -0.997  1.1392  0.9266  0.7911
  121SOPE   H7S12834   1.297   6.493  -1.032  0.9560 -0.4984 -3.4663
  121SOPE   C2812835   1.196   6.401  -1.195  0.5131 -0.2228  0.5604
  121SOPE   H8R12836   1.275   6.336  -1.240 -0.2830  0.6317 -2.3150
  121SOPE   H8S12837   1.105   6.342  -1.219  0.4224  0.7791 -1.8587
  121SOPE   C2912838   1.193   6.533  -1.273  0.1268  0.8667 -0.3513
  121SOPE   H9112839   1.092   6.563  -1.306 -0.2543 -2.0218 -2.1323
  121SOPE  C21012840   1.298   6.608  -1.311 -0.2413  0.6284  0.2307
  121SOPE  H10112841   1.271   6.699  -1.368 -0.0481  1.1724  0.9982
  121SOPE  C21112842   1.440   6.560  -1.287 -0.2644  0.3298  0.0186
  121SOPE  H11R12843   1.461   6.467  -1.345  2.3238 -0.0833  1.4747
  121SOPE  H11S12844   1.459   6.545  -1.179  0.8211  1.5609  0.0100
  121SOPE  C21212845   1.542   6.659  -1.340  0.3780  0.4956  0.0339
  121SOPE  H12R12846   1.533   6.665  -1.451  0.9982  0.2509 -0.0344
  121SOPE  H12S12847   1.637   6.604  -1.319  0.1009 -0.5169 -1.2502
  121SOPE  C21312848   1.529   6.802  -1.280 -0.3292 -0.2516  0.1876
  121SOPE  H13R12849   1.454   6.858  -1.340 -1.2561  1.1465  2.5020
  121SOPE  H13S12850   1.627   6.840  -1.314  0.2375  0.3101  2.2894
  121SOPE  C21412851   1.521   6.802  -1.129  0.3893  0.0156 -0.6616
  121SOPE  H14R12852   1.619   6.763  -1.092  0.3191 -0.6949 -1.2014
  121SOPE  H14S12853   1.438   6.736  -1.097 -0.1700  1.4672  1.0533
  121SOPE  C21512854   1.490   6.942  -1.063 -0.2025  0.5464  0.2048
  121SOPE  H15R12855   1.396   6.970  -1.116 -0.6108 -1.3157 -0.1364
  121SOPE  H15S12856   1.572   7.010  -1.093 -0.1942  0.4571  0.0206
  121SOPE  C21612857   1.483   6.931  -0.910 -0.1577 -0.1134  0.6717
  121SOPE  H16R12858   1.457   7.034  -0.876 -2.2467 -0.6524  0.8397
  121SOPE  H16S12859   1.575   6.894  -0.859  0.6671 -1.2653 -1.5251
  121SOPE  C21712860   1.366   6.853  -0.850  0.4127  0.0473 -0.1297
  121SOPE  H17R12861   1.285   6.841  -0.925 -0.8968  0.7505  1.1188
  121SOPE  H17S12862   1.340   6.922  -0.767 -0.9912  0.8511 -1.1683
  121SOPE  C21812863   1.398   6.709  -0.799 -0.2127 -0.0276  0.1168
  121SOPE  H18R12864   1.477   6.725  -0.723  2.1897 -3.5095 -1.3639
  121SOPE  H18S12865   1.429   6.645  -0.884  0.4954  1.4044 -0.7349
  121SOPE  H18T12866   1.311   6.669  -0.743  0.6261 -0.4771  1.1291
  121SOPE   C3312867   1.807   5.963  -0.833 -0.1113  0.0907 -0.3746
  121SOPE   H3X12868   1.894   5.935  -0.770  0.4716  0.9436 -0.7824
  121SOPE   H3Y12869   1.850   6.036  -0.905 -0.3204  2.0450  1.4040
  121SOPE   C3412870   1.734   5.847  -0.899  0.3074 -0.0798  0.2669
  121SOPE   H4X12871   1.640   5.882  -0.947  0.1097  1.0779  1.4405
  121SOPE   H4Y12872   1.698   5.771  -0.826  0.1218  0.4140  0.6987
  121SOPE   C3512873   1.820   5.779  -1.002 -0.2777 -0.0080  0.4634
  121SOPE   H5X12874   1.924   5.766  -0.966  0.6409  3.0370 -0.7290
  121SOPE   H5Y12875   1.834   5.851  -1.086 -0.6734  0.7141  0.9949
  121SOPE   C3612876   1.769   5.639  -1.046 -0.0483 -0.7093 -0.1264
  121SOPE   H6X12877   1.669   5.648  -1.095 -0.4299 -0.7423  0.6402
  121SOPE   H6Y12878   1.744   5.567  -0.966 -0.8608 -0.8516 -0.4954
  121SOPE   C3712879   1.859   5.553  -1.140 -0.1514 -0.5188 -0.5992
  121SOPE   H7X12880   1.795   5.475  -1.186  0.7756 -2.6792  1.5873
  121SOPE   H7Y12881   1.944   5.506  -1.086  0.4935  2.8412  1.6457
  121SOPE   C3812882   1.918   5.638  -1.255 -0.2898  0.0846 -0.0870
  121SOPE   H8X12883   2.001   5.573  -1.290 -0.2056  0.0548  0.1677
  121SOPE   H8Y12884   1.967   5.730  -1.217  0.4700  0.4132 -1.7886
  121SOPE   C3912885   1.819   5.661  -1.373  0.1428 -0.1974  0.3124
  121SOPE   H9X12886   1.732   5.713  -1.328  0.4236  1.7160 -1.2163
  121SOPE   H9Y12887   1.784   5.559  -1.398  0.7122 -0.1892 -0.5473
  121SOPE  C31012888   1.871   5.749  -1.490  0.1820  0.6305  0.6781
  121SOPE  H10X12889   1.972   5.705  -1.504 -0.5826 -0.7231 -0.9157
  121SOPE  H10Y12890   1.876   5.857  -1.464  0.9066  1.0050 -0.8719
  121SOPE  C31112891   1.803   5.727  -1.624  0.0926 -0.1366 -0.2048
  121SOPE  H11X12892   1.695   5.749  -1.617  0.2320  0.0700  1.7290
  121SOPE  H11Y12893   1.814   5.617  -1.631 -0.7786 -0.1695 -1.3494
  121SOPE  C31212894   1.871   5.791  -1.745 -0.2569 -0.2276  0.1447
  121SOPE  H12X12895   1.980   5.769  -1.746 -0.5867 -2.2784 -2.7199
  121SOPE  H12Y12896   1.853   5.899  -1.727 -0.6973  0.1810 -2.4121
  121SOPE  C31312897   1.802   5.743  -1.875 -0.0797 -0.0620 -0.0791
  121SOPE  H13X12898   1.692   5.756  -1.866 -0.3169 -0.9847 -1.3137
  121SOPE  H13Y12899   1.822   5.636  -1.899  1.1588  0.2753 -0.6568
  121SOPE  C31412900   1.835   5.827  -1.994  0.1210 -0.1968 -0.3348
  121SOPE  H14X12901   1.907   5.904  -1.960  2.5644 -2.3377 -0.2552
  121SOPE  H14Y12902   1.743   5.875  -2.033  0.0457  1.2108  1.4293
  121SOPE  C31512903   1.899   5.748  -2.105 -0.1966 -0.1594  0.3833
  121SOPE  H15X12904   1.830   5.673  -2.149  0.4202 -1.2504  1.2144
  121SOPE  H15Y12905   1.981   5.688  -2.061 -0.4923 -1.6428 -1.0035
  121SOPE  C31612906   1.967   5.830  -2.211  0.6080 -0.1129  0.4877
  121SOPE  H16X12907   2.011   5.767  -2.291 -1.1548  0.7381 -1.2428
  121SOPE  H16Y12908   2.050   5.892  -2.171  1.3864 -0.5185 -0.4726
  121SOPE  C31712909   1.875   5.931  -2.285 -0.5347 -0.3485 -0.3075
  121SOPE  H17X12910   1.944   5.978  -2.358  1.7229 -0.1685  1.8193
  121SOPE  H17Y12911   1.851   6.013  -2.213 -2.0669  0.2725 -1.4622
  121SOPE  C31812912   1.751   5.867  -2.357 -0.5253  0.2310  0.7002
  121SOPE  H18X12913   1.791   5.790  -2.426 -0.6486  1.7656 -1.1774
  121SOPE  H18Y12914   1.693   5.945  -2.413 -0.3484  0.8519  1.3613
  121SOPE  H18Z12915   1.674   5.839  -2.282 -1.5038 -0.7391 -0.6111
  122SOPE     N12916   6.403   4.569   1.150  0.1232 -0.1266 -0.0596
  122SOPE   HN112917   6.335   4.492   1.137 -0.0433  0.1344 -0.7779
  122SOPE   HN212918   6.498   4.527   1.153 -0.0231 -0.4589 -0.0535
  122SOPE   HN312919   6.387   4.618   1.240 -1.8529 -0.3354 -0.2643
  122SOPE   C1212920   6.384   4.652   1.029 -0.3299 -0.0628 -0.1062
  122SOPE  H12A12921   6.288   4.707   1.027  0.1805  1.0074  2.0032
  122SOPE  H12B12922   6.396   4.580   0.946 -0.5843 -2.0904  1.5344
  122SOPE   C1112923   6.492   4.762   1.027  0.2710 -0.5637 -0.0276
  122SOPE  H11A12924   6.464   4.843   1.098  1.2657  0.8017 -1.1385
  122SOPE  H11B12925   6.490   4.805   0.925  0.5200 -2.0462 -0.6959
  122SOPE     P12926   6.731   4.682   0.948  0.0351  0.4079  0.1933
  122SOPE   O1312927   6.824   4.583   1.013  0.2327  0.4256  0.4265
  122SOPE   O1412928   6.789   4.809   0.894 -0.1617  0.0210 -0.2003
  122SOPE   O1212929   6.629   4.719   1.063  0.0671 -0.1031 -0.7997
  122SOPE   O1112930   6.641   4.616   0.832 -0.3290 -0.5594  0.1254
  122SOPE    C112931   6.615   4.472   0.831  0.5311  0.8309  0.8540
  122SOPE    HA12932   6.506   4.454   0.843  0.3442  0.2480 -1.2817
  122SOPE    HB12933   6.675   4.413   0.903  0.9133 -1.3105 -1.0890
  122SOPE    C212934   6.658   4.421   0.689  0.9326 -0.5272 -0.0064
  122SOPE    HS12935   6.765   4.448   0.687  0.4970  1.4559  1.1662
  122SOPE   O2112936   6.580   4.502   0.590  0.1613  0.0675  0.2111
  122SOPE   C2112937   6.648   4.539   0.484 -0.9908 -0.4787  0.0850
  122SOPE   O2212938   6.771   4.534   0.474 -0.1244 -0.3554 -0.5894
  122SOPE   C2212939   6.553   4.592   0.387  0.4969 -0.3589  0.8090
  122SOPE   H2R12940   6.544   4.699   0.413 -1.6303 -0.4860  0.7948
  122SOPE   H2S12941   6.451   4.551   0.401  0.7067 -1.1829  0.0110
  122SOPE    C312942   6.634   4.269   0.666 -0.5575 -0.0568 -0.0249
  122SOPE    HX12943   6.533   4.251   0.709 -0.6849  1.2294  0.2679
  122SOPE    HY12944   6.712   4.215   0.725 -0.1350 -0.7122 -1.1633
  122SOPE   O3112945   6.631   4.237   0.527 -0.3238  0.4408 -0.3136
  122SOPE   C3112946   6.757   4.230   0.474  0.2951 -0.2544 -0.5884
  122SOPE   O3212947   6.858   4.260   0.531 -0.1219 -0.0859 -0.6865
  122SOPE   C3212948   6.752   4.157   0.338 -0.1068 -0.5762  0.4854
  122SOPE   H2X12949   6.646   4.142   0.309 -0.1995 -0.6017  0.8231
  122SOPE   H2Y12950   6.803   4.059   0.349 -1.2243 -1.0233  2.2055
  122SOPE   C2312951   6.600   4.571   0.244  0.1426 -0.1989  1.0302
  122SOPE   H3R12952   6.606   4.465   0.212  0.9798 -0.4812  2.0520
  122SOPE   H3S12953   6.707   4.600   0.231 -0.1786  0.2548 -0.9593
  122SOPE   C2412954   6.530   4.659   0.138 -0.1612  0.6421 -0.4431
  122SOPE   H4R12955   6.420   4.643   0.142 -0.1794  0.7057 -0.6631
  122SOPE   H4S12956   6.536   4.765   0.170  1.4231  0.1427  1.0589
  122SOPE   C2512957   6.583   4.649  -0.005  0.8427  0.2985  0.1530
  122SOPE   H5R12958   6.575   4.746  -0.059 -0.7860  1.0277  1.6267
  122SOPE   H5S12959   6.690   4.617  -0.004  0.8195 -0.0435 -2.2942
  122SOPE   C2612960   6.513   4.546  -0.097  0.1556 -0.4679 -0.3710
  122SOPE   H6R12961   6.534   4.446  -0.054  3.3579 -0.7479 -2.2350
  122SOPE   H6S12962   6.403   4.551  -0.088  0.2444 -0.2518  0.7792
  122SOPE   C2712963   6.575   4.533  -0.234  0.1072  0.1321 -0.0203
  122SOPE   H7R12964   6.604   4.629  -0.281  1.6504 -0.4007 -0.2134
  122SOPE   H7S12965   6.668   4.472  -0.230 -0.8585 -1.3314  1.0576
  122SOPE   C2812966   6.482   4.442  -0.327  0.1125  0.1413  0.3908
  122SOPE   H8R12967   6.553   4.423  -0.411 -1.1141 -0.3484 -0.5574
  122SOPE   H8S12968   6.447   4.351  -0.274 -3.0406  1.2736  0.4524
  122SOPE   C2912969   6.370   4.537  -0.371  0.6445  0.4613 -0.1061
  122SOPE   H9112970   6.324   4.593  -0.289  0.6106  1.3029 -0.6836
  122SOPE  C21012971   6.333   4.551  -0.501  0.3261  0.3426 -0.0985
  122SOPE  H10112972   6.254   4.619  -0.535  0.8741  1.6831  1.2067
  122SOPE  C21112973   6.396   4.460  -0.604  0.5135 -0.4930 -0.1083
  122SOPE  H11R12974   6.364   4.355  -0.592 -1.8570 -0.4178 -4.0421
  122SOPE  H11S12975   6.508   4.464  -0.605  0.5345 -0.0891 -2.5620
  122SOPE  C21212976   6.356   4.504  -0.747 -0.5646  0.4244 -0.4541
  122SOPE  H12R12977   6.422   4.593  -0.753 -0.3310  0.3699  0.9138
  122SOPE  H12S12978   6.247   4.521  -0.760 -1.0732 -1.9075  0.4483
  122SOPE  C21312979   6.412   4.411  -0.854 -0.2646  0.1367 -0.4273
  122SOPE  H13R12980   6.396   4.305  -0.824 -0.8785  0.1809 -0.5711
  122SOPE  H13S12981   6.522   4.420  -0.854 -0.3894  2.3949 -1.5962
  122SOPE  C21412982   6.364   4.446  -0.993  0.7596 -0.1379  0.0245
  122SOPE  H14R12983   6.430   4.400  -1.070 -0.0537 -1.2111 -0.0392
  122SOPE  H14S12984   6.368   4.555  -1.015  2.6226 -0.0858  0.3898
  122SOPE  C21512985   6.213   4.404  -1.015 -0.3368  0.7973 -0.0947
  122SOPE  H15R12986   6.161   4.427  -0.920 -0.1483 -2.1731  0.8302
  122SOPE  H15S12987   6.202   4.294  -1.021 -0.4200  0.6933  1.5776
  122SOPE  C21612988   6.142   4.484  -1.128 -0.7273  0.5949  0.5326
  122SOPE  H16R12989   6.163   4.593  -1.117  2.3139  0.2422 -0.6602
  122SOPE  H16S12990   6.031   4.482  -1.124 -1.0487 -0.3303 -3.7316
  122SOPE  C21712991   6.193   4.436  -1.262  0.2864 -0.2846  0.2668
  122SOPE  H17R12992   6.175   4.326  -1.268  2.6659 -0.7677  0.8260
  122SOPE  H17S12993   6.303   4.448  -1.275  0.2638 -0.1280  0.2207
  122SOPE  C21812994   6.119   4.505  -1.377  1.3273  0.1908  0.1957
  122SOPE  H18R12995   6.129   4.615  -1.386  0.3945  0.2994  0.3878
  122SOPE  H18S12996   6.010   4.482  -1.373  1.7587 -2.0961  0.5615
  122SOPE  H18T12997   6.151   4.459  -1.473 -2.1550  1.4072 -1.7209
  122SOPE   C3312998   6.820   4.231   0.224 -0.6900  0.6007 -0.4679
  122SOPE   H3X12999   6.930   4.223   0.238 -0.9483 -1.3112  0.7517
  122SOPE   H3Y13000   6.808   4.342   0.225  3.0574  1.1836  1.9859
  122SOPE   C3413001   6.795   4.164   0.084 -0.7076  0.3062 -0.0950
  122SOPE   H4X13002   6.810   4.054   0.087 -1.3803  0.1756 -1.1892
  122SOPE   H4Y13003   6.872   4.198   0.012 -0.3166 -1.3801 -0.5184
  122SOPE   C3513004   6.652   4.192   0.028  0.1134  0.1453 -0.6086
  122SOPE   H5X13005   6.643   4.303   0.022 -1.1000  0.3101  2.4304
  122SOPE   H5Y13006   6.567   4.159   0.092  2.0672  0.5707  2.4202
  122SOPE   C3613007   6.622   4.127  -0.107  0.4052  0.8655 -0.2022
  122SOPE   H6X13008   6.522   4.160  -0.142  0.0552  0.6112  0.5459
  122SOPE   H6Y13009   6.616   4.016  -0.105  0.3588  0.7626 -2.6107
  122SOPE   C3713010   6.717   4.167  -0.226 -0.2358  0.4672  0.1216
  122SOPE   H7X13011   6.817   4.120  -0.217 -0.3045  0.3813  0.4480
  122SOPE   H7Y13012   6.741   4.275  -0.233  1.1738  0.2602  1.3674
  122SOPE   C3813013   6.657   4.101  -0.357  0.8542 -0.2151  0.2912
  122SOPE   H8X13014   6.566   4.163  -0.376  0.1827 -1.4310 -0.6059
  122SOPE   H8Y13015   6.634   3.993  -0.345  3.1947 -0.9345 -1.0801
  122SOPE   C3913016   6.739   4.114  -0.483  0.3157  0.3893 -0.0535
  122SOPE   H9X13017   6.830   4.053  -0.467  0.2612  0.4427  0.4939
  122SOPE   H9Y13018   6.782   4.216  -0.494  0.4073  1.1159  4.7463
  122SOPE  C31013019   6.654   4.075  -0.598  0.8744 -0.5021 -0.4252
  122SOPE  H10X13020   6.557   4.129  -0.602  1.9141  1.5571  0.7374
  122SOPE  H10Y13021   6.635   3.965  -0.596  0.9247 -0.5002  0.0995
  122SOPE  C31113022   6.711   4.096  -0.735  0.6130 -0.0113  0.9874
  122SOPE  H11X13023   6.809   4.044  -0.731  0.2428 -0.7007  1.1907
  122SOPE  H11Y13024   6.732   4.203  -0.755  1.7595 -0.6377 -1.4328
  122SOPE  C31213025   6.629   4.033  -0.849 -0.0426 -0.9488  0.6010
  122SOPE  H12X13026   6.536   4.089  -0.870  1.2291 -0.0307 -3.3638
  122SOPE  H12Y13027   6.609   3.925  -0.829  0.5139 -0.8470  1.8244
  122SOPE  C31313028   6.697   4.047  -0.990 -0.0883  0.3367 -0.5316
  122SOPE  H13X13029   6.629   4.009  -1.069  1.0494 -1.0671 -0.8905
  122SOPE  H13Y13030   6.778   3.970  -0.992 -0.1050  0.1769  2.1739
  122SOPE  C31413031   6.739   4.192  -1.032  0.0989 -0.2986 -0.3032
  122SOPE  H14X13032   6.784   4.246  -0.946 -3.1676  2.1554  0.0300
  122SOPE  H14Y13033   6.648   4.253  -1.047  0.6529  1.6011  3.0185
  122SOPE  C31513034   6.829   4.200  -1.155 -0.2222 -0.2925 -0.4777
  122SOPE  H15X13035   6.919   4.137  -1.141 -0.9816 -1.0036  1.5001
  122SOPE  H15Y13036   6.861   4.307  -1.152 -0.4001 -0.2419  2.7057
  122SOPE  C31613037   6.756   4.163  -1.287  0.4267  0.2245  0.0008
  122SOPE  H16X13038   6.669   4.232  -1.295  0.1918 -0.2245 -2.0629
  122SOPE  H16Y13039   6.722   4.058  -1.283 -0.3692  0.3893 -1.4327
  122SOPE  C31713040   6.839   4.178  -1.419  0.0903  0.0566  0.2057
  122SOPE  H17X13041   6.888   4.277  -1.401  0.6742 -0.3300  0.8227
  122SOPE  H17Y13042   6.762   4.179  -1.499  2.0437 -3.6523 -1.9935
  122SOPE  C31813043   6.935   4.071  -1.444 -0.4572  0.5126 -0.7909
  122SOPE  H18X13044   6.993   4.053  -1.351 -2.4529  1.2253  0.6553
  122SOPE  H18Y13045   6.998   4.086  -1.534  0.4516  0.9720 -0.0934
  122SOPE  H18Z13046   6.887   3.972  -1.462 -1.1017  0.6706  0.0172
  123SOPE     N13047   6.730   0.804   4.331  0.4323  0.0926 -0.2617
  123SOPE   HN113048   6.701   0.708   4.304 -0.5197 -0.6907  3.0705
  123SOPE   HN213049   6.694   0.875   4.264 -0.5180  0.6397  0.7923
  123SOPE   HN313050   6.833   0.814   4.321  0.0646  1.4149 -4.4973
  123SOPE   C1213051   6.674   0.857   4.468  0.5801  0.1205  0.3207
  123SOPE  H12A13052   6.706   0.964   4.472  1.4402 -0.1513  1.0800
  123SOPE  H12B13053   6.717   0.802   4.555 -1.9458 -0.4943  1.2659
  123SOPE   C1113054   6.525   0.841   4.480  0.9758  0.4087  0.0229
  123SOPE  H11A13055   6.485   0.902   4.395  3.2625  0.9465 -0.7370
  123SOPE  H11B13056   6.471   0.884   4.567 -1.4914  0.8926 -1.6247
  123SOPE     P13057   6.454   0.607   4.562 -0.0613  0.1617 -0.2824
  123SOPE   O1313058   6.490   0.474   4.506 -0.1695 -0.1033 -0.3361
  123SOPE   O1413059   6.315   0.624   4.613 -0.5338  0.1537 -0.1692
  123SOPE   O1213060   6.483   0.711   4.447  0.1028 -0.4172 -0.3400
  123SOPE   O1113061   6.548   0.642   4.682  0.0466 -0.2191 -0.1233
  123SOPE    C113062   6.525   0.579   4.807 -0.3999 -0.4349 -0.2029
  123SOPE    HA13063   6.521   0.468   4.800  1.5618 -0.4745 -1.1975
  123SOPE    HB13064   6.431   0.610   4.857 -1.0075  1.1535 -2.2147
  123SOPE    C213065   6.644   0.609   4.903 -0.4492 -0.3690 -0.2896
  123SOPE    HS13066   6.733   0.566   4.853 -0.5526 -1.3896  0.3548
  123SOPE   O2113067   6.613   0.557   5.035 -0.1654 -0.1470  0.3615
  123SOPE   C2113068   6.711   0.539   5.122 -0.4559  0.1013  0.2613
  123SOPE   O2213069   6.831   0.550   5.097 -0.1024 -0.3954  0.2951
  123SOPE   C2213070   6.656   0.517   5.261  0.5957  0.1908  0.7695
  123SOPE   H2R13071   6.602   0.419   5.260  0.5044  0.2331  1.3827
  123SOPE   H2S13072   6.584   0.600   5.279  1.6439  1.8138 -1.9227
  123SOPE    C313073   6.656   0.760   4.910  0.6415  0.7725 -0.1380
  123SOPE    HX13074   6.556   0.799   4.940  1.2296  2.1902  0.0470
  123SOPE    HY13075   6.684   0.798   4.810 -1.1833  3.1099  0.1311
  123SOPE   O3113076   6.752   0.812   5.007 -0.2956 -0.4295  0.4487
  123SOPE   C3113077   6.725   0.939   5.019  0.1405 -0.4446  0.0911
  123SOPE   O3213078   6.647   1.001   4.949  1.1206 -0.1256 -0.2269
  123SOPE   C3213079   6.827   0.996   5.119  0.4247 -0.3464  0.7977
  123SOPE   H2X13080   6.933   0.973   5.094  0.8818  0.8767  1.5051
  123SOPE   H2Y13081   6.817   0.938   5.213  0.4423 -1.5791  0.0635
  123SOPE   C2313082   6.768   0.507   5.363 -0.3135 -0.7106 -0.8587
  123SOPE   H3R13083   6.833   0.597   5.365  0.2694 -1.1336  0.3218
  123SOPE   H3S13084   6.838   0.422   5.346  2.3154  0.5840  2.4859
  123SOPE   C2413085   6.708   0.486   5.505  0.1842 -0.1478  0.3342
  123SOPE   H4R13086   6.633   0.561   5.538 -0.4261 -0.5762 -0.0568
  123SOPE   H4S13087   6.666   0.383   5.504 -0.5110  0.0644 -2.5243
  123SOPE   C2513088   6.819   0.477   5.605  0.0298 -0.6372 -0.1442
  123SOPE   H5R13089   6.899   0.408   5.571  0.9914 -0.3360  1.4212
  123SOPE   H5S13090   6.864   0.577   5.625  2.4357 -1.8013  0.6797
  123SOPE   C2613091   6.760   0.424   5.738  0.0061 -0.3411 -0.0141
  123SOPE   H6R13092   6.665   0.475   5.763 -0.8057 -2.2485  1.0567
  123SOPE   H6S13093   6.742   0.314   5.731  0.6931 -0.5187  0.7413
  123SOPE   C2713094   6.853   0.442   5.863  0.2955  0.4427  0.5786
  123SOPE   H7R13095   6.956   0.411   5.838  1.6159  3.7302  1.5240
  123SOPE   H7S13096   6.849   0.547   5.898  2.6185  0.0623  2.1642
  123SOPE   C2813097   6.809   0.347   5.978 -0.1185  0.1670  0.7693
  123SOPE   H8R13098   6.800   0.248   5.928 -2.8544 -0.1401  1.6985
  123SOPE   H8S13099   6.898   0.351   6.044  0.9548 -0.9322 -0.5253
  123SOPE   C2913100   6.675   0.392   6.042 -0.0024 -0.6302  0.2572
  123SOPE   H9113101   6.589   0.359   5.983  1.3389  0.6922 -2.6072
  123SOPE  C21013102   6.665   0.464   6.153  0.7539 -0.3528  0.5579
  123SOPE  H10113103   6.563   0.484   6.189  0.5340 -2.7594  1.4671
  123SOPE  C21113104   6.781   0.511   6.241 -0.0164  0.2634  0.2041
  123SOPE  H11R13105   6.811   0.612   6.205 -2.0224  0.7825 -0.1112
  123SOPE  H11S13106   6.869   0.447   6.215 -1.1016 -0.2484 -2.4521
  123SOPE  C21213107   6.731   0.507   6.379 -0.3462  0.4422  0.3006
  123SOPE  H12R13108   6.725   0.399   6.405 -1.9266  0.3711 -0.2906
  123SOPE  H12S13109   6.633   0.559   6.387 -1.2391 -1.4360  2.6680
  123SOPE  C21313110   6.829   0.572   6.478  0.3103  0.0813  0.4584
  123SOPE  H13R13111   6.814   0.681   6.459  0.2603 -0.0556 -0.3109
  123SOPE  H13S13112   6.930   0.541   6.445 -0.7042 -2.0210 -0.8676
  123SOPE  C21413113   6.791   0.546   6.615  0.2482 -0.0652  0.2826
  123SOPE  H14R13114   6.798   0.437   6.635  1.1138  0.2646  1.9489
  123SOPE  H14S13115   6.689   0.587   6.632  1.1566  1.6118  2.0962
  123SOPE  C21513116   6.882   0.613   6.711  0.3777 -0.2266 -0.5381
  123SOPE  H15R13117   6.889   0.722   6.691  0.1277  0.2302  1.5829
  123SOPE  H15S13118   6.981   0.564   6.697  0.6081  0.1696 -0.3283
  123SOPE  C21613119   6.837   0.598   6.861  0.0996 -0.5745  0.3009
  123SOPE  H16R13120   6.800   0.497   6.889  0.5955 -0.7955  0.1524
  123SOPE  H16S13121   6.745   0.661   6.872  1.3684  1.7025 -1.2642
  123SOPE  C21713122   6.938   0.649   6.964 -0.1517  0.4011 -0.3985
  123SOPE  H17R13123   6.977   0.745   6.924  1.5134 -0.8454 -1.8755
  123SOPE  H17S13124   7.027   0.584   6.973 -0.0408  0.3060 -2.0160
  123SOPE  C21813125   6.862   0.676   7.100  1.4086  0.0108  0.2480
  123SOPE  H18R13126   6.862   0.580   7.157 -1.7990  0.4636  1.1895
  123SOPE  H18S13127   6.762   0.722   7.088  1.2730 -0.5782 -1.0838
  123SOPE  H18T13128   6.925   0.750   7.153  0.3777  0.4602  0.8752
  123SOPE   C3313129   6.802   1.149   5.126 -0.1579  0.6652  0.2687
  123SOPE   H3X13130   6.692   1.165   5.135 -0.2178  1.9345 -1.9665
  123SOPE   H3Y13131   6.836   1.196   5.030  0.0977  0.8479  0.4465
  123SOPE   C3413132   6.877   1.205   5.245  0.2326  0.2474  0.3951
  123SOPE   H4X13133   6.896   1.314   5.238  0.6703  0.1274 -0.4557
  123SOPE   H4Y13134   6.978   1.158   5.245  0.6588  1.0528 -1.8326
  123SOPE   C3513135   6.805   1.185   5.384 -0.2297  0.2529  0.1706
  123SOPE   H5X13136   6.792   1.076   5.397 -0.9942  0.2704 -0.3404
  123SOPE   H5Y13137   6.698   1.218   5.379 -0.0914  0.5753 -1.4441
  123SOPE   C3613138   6.879   1.248   5.499  0.2913  0.2377  0.0337
  123SOPE   H6X13139   6.875   1.357   5.477 -0.2341  0.5020  1.3583
  123SOPE   H6Y13140   6.982   1.210   5.513  0.1401  0.3495  1.6618
  123SOPE   C3713141   6.809   1.230   5.640 -0.1613 -0.0748  0.8908
  123SOPE   H7X13142   6.785   1.127   5.673  1.1487 -0.1646  1.5949
  123SOPE   H7Y13143   6.718   1.294   5.637 -0.4517 -0.5196 -1.1535
  123SOPE   C3813144   6.894   1.284   5.756  1.3200  0.7418 -0.5612
  123SOPE   H8X13145   6.927   1.388   5.737  2.8263  0.2504 -0.7483
  123SOPE   H8Y13146   6.980   1.214   5.761  0.0919 -1.1760 -3.6741
  123SOPE   C3913147   6.812   1.280   5.891 -0.2855  0.2529  0.1681
  123SOPE   H9X13148   6.788   1.172   5.900  0.8644 -0.1601 -1.2600
  123SOPE   H9Y13149   6.720   1.342   5.890 -0.3184  0.1993 -0.4388
  123SOPE  C31013150   6.900   1.323   6.004  0.4282 -0.2184  0.0615
  123SOPE  H10X13151   6.915   1.432   5.985  0.8061 -0.3121 -0.1745
  123SOPE  H10Y13152   7.002   1.280   6.002  1.6209  2.0681  3.1469
  123SOPE  C31113153   6.859   1.297   6.146  0.0710 -0.1680 -0.5848
  123SOPE  H11X13154   6.850   1.187   6.158 -0.5081  0.0177  0.8900
  123SOPE  H11Y13155   6.754   1.327   6.170  0.1477 -0.7459  0.5368
  123SOPE  C31213156   6.962   1.352   6.244  0.1684 -0.3746 -0.5468
  123SOPE  H12X13157   6.989   1.455   6.211  1.4518 -0.8699 -1.1374
  123SOPE  H12Y13158   7.057   1.297   6.227  0.0732 -0.5618 -0.4728
  123SOPE  C31313159   6.923   1.354   6.389  0.0912 -0.4899 -0.7909
  123SOPE  H13X13160   6.940   1.253   6.431 -3.0419 -0.1636  1.6084
  123SOPE  H13Y13161   6.816   1.381   6.401  0.2212 -0.7262  1.1888
  123SOPE  C31413162   7.017   1.454   6.463  0.4442  0.4418  0.2498
  123SOPE  H14X13163   6.994   1.560   6.439  1.9840  1.4012  2.6640
  123SOPE  H14Y13164   7.121   1.433   6.432  0.1959 -0.5873  0.0722
  123SOPE  C31513165   7.023   1.423   6.620  0.0644  0.2103  1.0601
  123SOPE  H15X13166   7.101   1.493   6.657  0.6705  0.3208 -0.3542
  123SOPE  H15Y13167   7.062   1.320   6.635 -0.7888 -0.6365 -1.7988
  123SOPE  C31613168   6.891   1.428   6.689  0.9113  0.2366 -0.3874
  123SOPE  H16X13169   6.835   1.341   6.648  3.4155 -1.6011 -0.1410
  123SOPE  H16Y13170   6.826   1.514   6.663  1.0312  0.1643 -0.9178
  123SOPE  C31713171   6.899   1.414   6.841 -0.4736 -0.0978 -0.0213
  123SOPE  H17X13172   6.940   1.312   6.861  1.3094  0.4556 -0.7650
  123SOPE  H17Y13173   6.796   1.402   6.884 -1.0261 -0.0715 -1.3088
  123SOPE  C31813174   6.977   1.527   6.896 -0.1554 -0.2226 -0.1200
  123SOPE  H18X13175   6.935   1.624   6.863 -1.2211 -0.6071  0.0559
  123SOPE  H18Y13176   7.079   1.524   6.852 -0.4987  0.7995 -1.0066
  123SOPE  H18Z13177   6.972   1.514   7.007  0.7051 -2.1519 -0.2687
  124SOPE     N13178   2.606   4.994   4.383  0.6389  0.1241 -0.0803
  124SOPE   HN113179   2.519   4.947   4.349  0.3255  0.2297  0.5649
  124SOPE   HN213180   2.575   5.077   4.438 -0.1940 -0.4932  0.4158
  124SOPE   HN313181   2.657   5.041   4.306  0.2008 -0.0852 -0.5021
  124SOPE   C1213182   2.699   4.913   4.465  0.3529 -0.4822  0.1584
  124SOPE  H12A13183   2.753   4.843   4.399 -0.4754 -0.1936 -0.8471
  124SOPE  H12B13184   2.650   4.857   4.547  0.5176  1.6447  1.8125
  124SOPE   C1113185   2.786   5.015   4.540  0.0412  0.9729 -0.5445
  124SOPE  H11A13186   2.846   4.952   4.609 -0.1444 -0.3417 -1.5261
  124SOPE  H11B13187   2.713   5.069   4.604  1.3042  0.8852  1.0409
  124SOPE     P13188   2.999   5.102   4.420  0.2084  0.3328 -0.1999
  124SOPE   O1313189   3.012   5.188   4.289 -0.3020  0.3816 -0.5974
  124SOPE   O1413190   3.028   4.958   4.402  0.5429 -0.2335 -0.2394
  124SOPE   O1213191   2.843   5.114   4.453  0.2165  0.0097  0.5527
  124SOPE   O1113192   3.075   5.160   4.549  0.0373 -0.2381 -0.1149
  124SOPE    C113193   3.005   5.261   4.626 -0.0677  0.1411  0.4573
  124SOPE    HA13194   2.895   5.245   4.636 -0.0939 -2.7255 -2.6606
  124SOPE    HB13195   3.032   5.361   4.586  1.8380  0.3212  2.0650
  124SOPE    C213196   3.067   5.275   4.775 -0.7205 -0.1570  0.1838
  124SOPE    HS13197   3.007   5.345   4.837 -0.7752 -1.0188  1.1204
  124SOPE   O2113198   3.205   5.321   4.771  0.6037 -0.1145 -0.2463
  124SOPE   C2113199   3.219   5.452   4.750 -0.0506 -0.1114  0.1097
  124SOPE   O2213200   3.126   5.531   4.738 -0.0214 -0.0163  0.4559
  124SOPE   C2213201   3.366   5.480   4.728  0.1229 -0.3922 -0.2426
  124SOPE   H2R13202   3.374   5.567   4.659  1.4548 -0.3731 -0.0952
  124SOPE   H2S13203   3.405   5.392   4.673  0.9068  0.3608 -0.9315
  124SOPE    C313204   3.073   5.142   4.845  0.0247 -0.1854 -0.0817
  124SOPE    HX13205   3.150   5.085   4.788 -1.8678 -2.4854 -0.4827
  124SOPE    HY13206   2.983   5.077   4.838  0.2120 -0.2711 -2.5347
  124SOPE   O3113207   3.109   5.163   4.982 -0.4923 -0.6726  0.0779
  124SOPE   C3113208   3.162   5.060   5.039 -0.6078 -0.3972  0.5022
  124SOPE   O3213209   3.141   4.945   5.008 -0.5644  0.9803 -0.5573
  124SOPE   C3213210   3.261   5.089   5.150  0.3167  0.4776 -0.8534
  124SOPE   H2X13211   3.322   5.179   5.132  0.5394  0.6613  0.6717
  124SOPE   H2Y13212   3.319   4.994   5.159 -2.8881 -1.5048  0.9759
  124SOPE   C2313213   3.448   5.505   4.860  0.1123 -0.2565 -0.1724
  124SOPE   H3R13214   3.410   5.596   4.910  0.3701 -0.1391 -0.1895
  124SOPE   H3S13215   3.550   5.529   4.824 -0.0519  0.0028 -0.4765
  124SOPE   C2413216   3.456   5.390   4.959  0.6179 -0.4972 -0.4167
  124SOPE   H4R13217   3.355   5.367   4.999 -0.4821  2.5493 -1.1532
  124SOPE   H4S13218   3.489   5.302   4.899  0.4720 -0.5537 -0.4152
  124SOPE   C2513219   3.562   5.395   5.063 -0.7390 -0.2025 -0.5452
  124SOPE   H5R13220   3.569   5.292   5.104 -1.9189 -0.5275 -1.1077
  124SOPE   H5S13221   3.663   5.416   5.021 -1.6958 -0.7274 -3.3003
  124SOPE   C2613222   3.516   5.487   5.179 -0.0603  0.9816 -0.0030
  124SOPE   H6R13223   3.515   5.595   5.152 -1.6095  0.9403 -0.1744
  124SOPE   H6S13224   3.412   5.456   5.201  0.5369 -1.8212 -0.6851
  124SOPE   C2713225   3.605   5.471   5.308 -0.1378 -0.6808 -0.8273
  124SOPE   H7R13226   3.595   5.365   5.338 -0.5639 -0.5108 -0.3455
  124SOPE   H7S13227   3.707   5.494   5.270 -0.0707 -0.0628 -0.2982
  124SOPE   C2813228   3.560   5.559   5.425 -0.0538 -0.1472 -0.0956
  124SOPE   H8R13229   3.641   5.537   5.498  0.6921  0.4972 -0.7089
  124SOPE   H8S13230   3.549   5.666   5.397 -1.0145 -0.1824  0.1293
  124SOPE   C2913231   3.433   5.516   5.484  0.5377  0.6665 -0.0460
  124SOPE   H9113232   3.345   5.542   5.423  0.0392  0.8077  0.7259
  124SOPE  C21013233   3.413   5.458   5.606  0.2316  0.1212  0.5090
  124SOPE  H10113234   3.310   5.429   5.631  0.6216 -0.6629  1.3101
  124SOPE  C21113235   3.505   5.441   5.720  0.5233 -0.8650 -0.1031
  124SOPE  H11R13236   3.578   5.524   5.707 -1.3923  1.0162  0.5716
  124SOPE  H11S13237   3.553   5.344   5.742  0.2303 -0.6539  1.6702
  124SOPE  C21213238   3.443   5.461   5.859  0.7348 -0.3591  0.1295
  124SOPE  H12R13239   3.361   5.388   5.877  0.6525 -0.7084 -1.5017
  124SOPE  H12S13240   3.392   5.559   5.863 -0.9801 -1.2664  2.5143
  124SOPE  C21313241   3.553   5.464   5.974 -0.3466 -0.6468  0.2220
  124SOPE  H13R13242   3.645   5.520   5.951 -1.5102  1.2874  0.0742
  124SOPE  H13S13243   3.585   5.359   5.994 -2.0254 -1.3948 -0.7489
  124SOPE  C21413244   3.500   5.530   6.104  0.1651  0.5427  0.4436
  124SOPE  H14R13245   3.469   5.635   6.088  1.0484  0.6767 -0.4599
  124SOPE  H14S13246   3.595   5.529   6.162  2.1079 -2.3719 -2.4103
  124SOPE  C21513247   3.379   5.461   6.173 -0.2331 -0.0815 -0.1911
  124SOPE  H15R13248   3.411   5.356   6.191  0.0999  0.0856  0.2163
  124SOPE  H15S13249   3.294   5.460   6.102 -0.7387  0.0965  0.4050
  124SOPE  C21613250   3.347   5.531   6.303 -0.4509 -0.3779 -0.2432
  124SOPE  H16R13251   3.335   5.641   6.292  0.7068 -0.2832 -0.6714
  124SOPE  H16S13252   3.429   5.507   6.374 -1.2459 -1.0581  0.4672
  124SOPE  C21713253   3.217   5.485   6.373  1.0248 -0.3489 -0.3118
  124SOPE  H17R13254   3.236   5.380   6.406 -0.1303 -0.3239  0.4732
  124SOPE  H17S13255   3.134   5.481   6.299  0.4992 -1.3419  0.3108
  124SOPE  C21813256   3.173   5.550   6.509  0.5750  0.1125  0.2932
  124SOPE  H18R13257   3.153   5.658   6.498  1.2248  0.0133 -2.3734
  124SOPE  H18S13258   3.256   5.529   6.580 -0.1772 -0.3076  1.0748
  124SOPE  H18T13259   3.086   5.493   6.550  0.1318 -0.0044 -0.7659
  124SOPE   C3313260   3.194   5.115   5.291 -0.6272 -0.5551  0.3083
  124SOPE   H3X13261   3.123   5.037   5.326 -1.5342  0.5511  0.9833
  124SOPE   H3Y13262   3.141   5.211   5.275 -0.2799 -0.3760  0.2071
  124SOPE   C3413263   3.304   5.131   5.392  0.1649 -0.0796 -0.4769
  124SOPE   H4X13264   3.247   5.149   5.486 -0.6398 -1.1279 -0.7477
  124SOPE   H4Y13265   3.357   5.225   5.364  0.5374  0.1120  0.7684
  124SOPE   C3513266   3.411   5.023   5.412 -0.0310 -0.2150  0.9271
  124SOPE   H5X13267   3.458   5.014   5.311 -2.2508  0.8058 -0.2717
  124SOPE   H5Y13268   3.364   4.923   5.426  0.0509 -0.2007  1.3193
  124SOPE   C3613269   3.504   5.052   5.528 -0.4475 -0.1491  1.3010
  124SOPE   H6X13270   3.555   5.150   5.522 -0.9549  0.0155 -1.5134
  124SOPE   H6Y13271   3.578   4.970   5.530 -0.5971 -0.2794  1.5321
  124SOPE   C3713272   3.439   5.048   5.672 -0.5717 -0.2469 -0.2690
  124SOPE   H7X13273   3.370   4.961   5.670  0.3368 -0.9763 -1.6322
  124SOPE   H7Y13274   3.391   5.146   5.691  1.9077  0.5583  2.5370
  124SOPE   C3813275   3.535   5.028   5.793 -0.0504  0.7862 -0.1095
  124SOPE   H8X13276   3.583   5.126   5.819  0.0471  1.0396 -1.2118
  124SOPE   H8Y13277   3.606   4.948   5.764 -1.5753 -0.1494 -1.3995
  124SOPE   C3913278   3.449   4.976   5.907 -0.6979  0.2258  0.6352
  124SOPE   H9X13279   3.372   4.907   5.866 -0.7747  1.2617 -1.0575
  124SOPE   H9Y13280   3.389   5.062   5.943 -0.3698  0.7371 -0.0182
  124SOPE  C31013281   3.529   4.920   6.023  0.3698 -0.3524  0.1513
  124SOPE  H10X13282   3.589   4.834   5.987  1.4042  0.3790  0.1070
  124SOPE  H10Y13283   3.453   4.884   6.096  0.5714 -0.5601  0.2605
  124SOPE  C31113284   3.612   5.025   6.085 -0.0445  0.4175 -0.4854
  124SOPE  H11X13285   3.674   5.088   6.019 -0.5655  0.3085 -1.0865
  124SOPE  H11Y13286   3.688   4.978   6.151 -1.6258  0.5220  1.5330
  124SOPE  C31213287   3.555   5.119   6.194  0.5463  0.4482 -1.2142
  124SOPE  H12X13288   3.454   5.150   6.160  0.4764 -0.5384 -1.9398
  124SOPE  H12Y13289   3.623   5.206   6.208  0.5374  0.5509 -1.8022
  124SOPE  C31313290   3.532   5.046   6.328  0.0055 -0.9731 -0.4060
  124SOPE  H13X13291   3.628   5.003   6.364  0.9593  0.8777 -0.6551
  124SOPE  H13Y13292   3.461   4.963   6.306 -1.7725  0.2737  0.3847
  124SOPE  C31413293   3.468   5.139   6.437  0.0562 -0.9141 -0.7605
  124SOPE  H14X13294   3.377   5.193   6.403  0.5115  2.5223  2.7382
  124SOPE  H14Y13295   3.542   5.211   6.478 -0.6615  0.6036 -2.0104
  124SOPE  C31513296   3.440   5.045   6.560  0.5927 -0.2826  0.0190
  124SOPE  H15X13297   3.536   4.995   6.586  1.1410  1.0432  0.6462
  124SOPE  H15Y13298   3.364   4.975   6.519  0.8458 -0.4580 -0.1538
  124SOPE  C31613299   3.381   5.117   6.676  0.6543  0.1401 -0.1941
  124SOPE  H16X13300   3.283   5.161   6.646 -0.0903 -0.7132  0.8944
  124SOPE  H16Y13301   3.434   5.207   6.712  1.0239 -0.0613 -0.2329
  124SOPE  C31713302   3.362   5.022   6.799  0.7483 -0.2463  0.5281
  124SOPE  H17X13303   3.461   4.983   6.828  1.1625 -0.2328 -0.8107
  124SOPE  H17Y13304   3.299   4.932   6.786  0.8178 -0.5488  2.0741
  124SOPE  C31813305   3.300   5.094   6.919 -0.3398 -0.3795  0.8306
  124SOPE  H18X13306   3.300   5.025   7.006  2.0584 -0.5261  0.7833
  124SOPE  H18Y13307   3.191   5.111   6.902 -0.2346 -0.4412  0.0284
  124SOPE  H18Z13308   3.358   5.185   6.945  2.6994 -1.3558 -1.8311
  125SOPE     N13309   1.235   6.518   4.501 -0.0498  0.0165 -0.4849
  125SOPE   HN113310   1.175   6.567   4.570 -1.5158 -0.7791 -1.1527
  125SOPE   HN213311   1.221   6.415   4.502 -1.2191  0.1201 -2.3352
  125SOPE   HN313312   1.336   6.540   4.513  0.0998 -0.7527 -0.2576
  125SOPE   C1213313   1.186   6.540   4.355  0.1415 -0.2395 -0.6864
  125SOPE  H12A13314   1.154   6.645   4.342 -0.7273 -0.4443 -0.2886
  125SOPE  H12B13315   1.103   6.470   4.332  0.1477 -0.6494  0.4514
  125SOPE   C1113316   1.302   6.493   4.263 -0.6272  0.0823  0.1899
  125SOPE  H11A13317   1.258   6.504   4.162 -0.6010 -0.4377  0.1203
  125SOPE  H11B13318   1.329   6.386   4.280  1.1797  0.2563 -1.2818
  125SOPE     P13319   1.543   6.547   4.343 -0.1276 -0.2033 -0.3157
  125SOPE   O1313320   1.630   6.657   4.306  0.6208 -0.1546  0.9813
  125SOPE   O1413321   1.590   6.413   4.304  0.2082 -0.0595 -0.1073
  125SOPE   O1213322   1.412   6.577   4.272 -0.4864  0.0191 -0.3125
  125SOPE   O1113323   1.496   6.557   4.496  0.4610  0.4153 -0.0188
  125SOPE    C113324   1.495   6.680   4.561 -0.3565 -0.3042 -0.0896
  125SOPE    HA13325   1.408   6.738   4.524 -0.7826 -1.3669 -0.7952
  125SOPE    HB13326   1.574   6.754   4.533 -1.1716  0.2610 -0.9598
  125SOPE    C213327   1.491   6.682   4.714 -0.5535 -0.6265 -0.3482
  125SOPE    HS13328   1.574   6.628   4.764 -1.3088 -2.2934 -0.8173
  125SOPE   O2113329   1.364   6.624   4.746 -0.3426  0.0734 -0.1301
  125SOPE   C2113330   1.351   6.568   4.873  0.0531 -0.1486 -1.1370
  125SOPE   O2213331   1.445   6.551   4.949  0.0613 -0.0177 -0.3704
  125SOPE   C2213332   1.202   6.544   4.904 -0.4325  0.3619  0.0873
  125SOPE   H2R13333   1.158   6.480   4.825  3.3027 -0.9926 -1.0973
  125SOPE   H2S13334   1.149   6.642   4.900 -1.0300  0.0956  1.2435
  125SOPE    C313335   1.475   6.827   4.778 -0.3260  0.7720 -0.0539
  125SOPE    HX13336   1.384   6.872   4.735 -0.2952  0.2623 -0.6631
  125SOPE    HY13337   1.564   6.891   4.763  0.3476  0.4858  2.2811
  125SOPE   O3113338   1.458   6.828   4.919 -0.4751  0.2830 -0.4362
  125SOPE   C3113339   1.564   6.823   5.001 -0.5410 -0.0418  0.1206
  125SOPE   O3213340   1.680   6.808   4.966  0.0964 -0.0768 -0.6052
  125SOPE   C3213341   1.517   6.856   5.148  0.7032  0.1117  1.2780
  125SOPE   H2X13342   1.455   6.774   5.191  1.4586  0.1008  2.3835
  125SOPE   H2Y13343   1.460   6.951   5.143  0.3150 -0.1284  1.0576
  125SOPE   C2313344   1.186   6.477   5.047 -0.4946 -0.2227 -0.5141
  125SOPE   H3R13345   1.251   6.388   5.065  0.4496  0.5260 -0.1400
  125SOPE   H3S13346   1.079   6.450   5.065 -0.7413  1.8271  1.6408
  125SOPE   C2413347   1.210   6.560   5.173  0.0120 -0.3078  0.0021
  125SOPE   H4R13348   1.315   6.595   5.173  0.2027 -0.7753 -1.7136
  125SOPE   H4S13349   1.155   6.655   5.154 -0.0712 -0.2719  0.4208
  125SOPE   C2513350   1.150   6.499   5.302 -0.2662  0.5509  0.6368
  125SOPE   H5R13351   1.045   6.466   5.287  0.0799  0.2989 -1.5999
  125SOPE   H5S13352   1.202   6.402   5.322 -0.2168  0.7538  1.5226
  125SOPE   C2613353   1.166   6.603   5.416 -0.2268 -1.0755 -0.1151
  125SOPE   H6R13354   1.252   6.673   5.407 -1.2870  0.5926  1.9006
  125SOPE   H6S13355   1.074   6.664   5.413  0.0946 -0.6244 -1.2114
  125SOPE   C2713356   1.184   6.533   5.549 -0.8203  0.6314 -0.8053
  125SOPE   H7R13357   1.089   6.480   5.573 -0.9232  0.7239 -1.0064
  125SOPE   H7S13358   1.255   6.448   5.554 -0.8834  0.6416  1.5132
  125SOPE   C2813359   1.213   6.634   5.667  0.5193  0.5143 -0.3993
  125SOPE   H8R13360   1.313   6.680   5.652  1.4744 -1.3274  0.0388
  125SOPE   H8S13361   1.132   6.710   5.656  0.4193  1.0035  2.8032
  125SOPE   C2913362   1.186   6.576   5.808 -0.2806  0.8466  0.4508
  125SOPE   H9113363   1.105   6.632   5.858  0.5109  1.0256  1.5843
  125SOPE  C21013364   1.262   6.491   5.883  0.1133  0.3031 -0.1199
  125SOPE  H10113365   1.235   6.452   5.982 -1.9182 -1.4060 -1.2434
  125SOPE  C21113366   1.398   6.451   5.844  0.2852  0.3644 -0.3260
  125SOPE  H11R13367   1.420   6.488   5.742 -2.7643 -1.6870 -1.8544
  125SOPE  H11S13368   1.408   6.341   5.835 -0.0969  0.0228  2.3459
  125SOPE  C21213369   1.498   6.519   5.954  0.0106  0.0845  0.1699
  125SOPE  H12R13370   1.512   6.628   5.940  1.4276 -0.1179 -0.1786
  125SOPE  H12S13371   1.597   6.473   5.932 -0.2989 -0.0494 -0.9798
  125SOPE  C21313372   1.478   6.489   6.101  0.3077  0.3237 -0.6192
  125SOPE  H13R13373   1.457   6.383   6.126 -0.9430  1.0022  1.5298
  125SOPE  H13S13374   1.387   6.543   6.134 -1.5983 -2.3941 -1.0839
  125SOPE  C21413375   1.582   6.542   6.203  0.4091  0.5397  0.9267
  125SOPE  H14R13376   1.587   6.649   6.172 -0.8578  0.4323  0.2853
  125SOPE  H14S13377   1.679   6.495   6.176 -0.4739 -2.1868  2.1333
  125SOPE  C21513378   1.539   6.530   6.347  0.6961 -0.3391  0.0322
  125SOPE  H15R13379   1.521   6.426   6.379  1.1068 -0.0208  1.3582
  125SOPE  H15S13380   1.446   6.590   6.360 -0.2101 -2.0055  1.6319
  125SOPE  C21613381   1.656   6.592   6.427 -0.0230 -0.4749  0.4793
  125SOPE  H16R13382   1.745   6.526   6.432 -0.6086 -1.3707 -0.5105
  125SOPE  H16S13383   1.614   6.596   6.530 -0.8518 -0.5802  0.1493
  125SOPE  C21713384   1.697   6.741   6.403  0.4175 -0.3438 -0.4924
  125SOPE  H17R13385   1.614   6.812   6.428  0.0549 -0.6014 -0.9456
  125SOPE  H17S13386   1.708   6.755   6.293 -1.4975  2.4298 -0.4357
  125SOPE  C21813387   1.825   6.785   6.480  0.2221 -0.3412 -0.5404
  125SOPE  H18R13388   1.832   6.895   6.465  1.3428 -0.4064 -0.6092
  125SOPE  H18S13389   1.920   6.738   6.446  2.9021  1.5299  3.5812
  125SOPE  H18T13390   1.823   6.769   6.589  2.6369  0.8579 -0.2518
  125SOPE   C3313391   1.634   6.874   5.239 -0.2456  0.8574  0.2551
  125SOPE   H3X13392   1.696   6.946   5.182 -1.3483  1.0437 -0.7518
  125SOPE   H3Y13393   1.697   6.783   5.254  0.8040  1.6885  1.0232
  125SOPE   C3413394   1.606   6.939   5.378  0.4931  0.0672 -0.0862
  125SOPE   H4X13395   1.543   7.030   5.369 -0.8658 -0.6402  1.7130
  125SOPE   H4Y13396   1.702   6.985   5.411 -0.5081  1.7960  0.5247
  125SOPE   C3513397   1.552   6.845   5.483  0.4964 -0.0216  0.0014
  125SOPE   H5X13398   1.628   6.765   5.497 -0.0680 -0.7518 -1.0442
  125SOPE   H5Y13399   1.466   6.784   5.449  0.1415 -0.8418  2.2017
  125SOPE   C3613400   1.535   6.910   5.620  0.2212 -0.5706 -0.1956
  125SOPE   H6X13401   1.619   6.980   5.644  0.3547 -1.4121  2.0594
  125SOPE   H6Y13402   1.536   6.832   5.699  0.0642  0.3260  0.7081
  125SOPE   C3713403   1.403   6.991   5.628  0.2391  0.5731  0.4101
  125SOPE   H7X13404   1.316   6.924   5.613 -0.2188  0.6803  2.3452
  125SOPE   H7Y13405   1.383   7.065   5.548  1.0495  1.6592  1.1937
  125SOPE   C3813406   1.375   7.058   5.766 -0.8351  0.6559  0.2318
  125SOPE   H8X13407   1.280   7.113   5.749 -0.5235  1.6051  1.3802
  125SOPE   H8Y13408   1.448   7.141   5.781  0.6568  0.1714 -3.4078
  125SOPE   C3913409   1.356   6.966   5.889  1.2364  0.0287 -0.1880
  125SOPE   H9X13410   1.447   6.904   5.903  1.3585  0.0225 -0.9418
  125SOPE   H9Y13411   1.266   6.906   5.865  1.5985 -0.6157  0.0560
  125SOPE  C31013412   1.327   7.047   6.016  0.2915  0.4432  0.5371
  125SOPE  H10X13413   1.269   7.136   5.984  0.2438  0.4235  0.5705
  125SOPE  H10Y13414   1.424   7.075   6.062  0.3715  1.6627 -0.3318
  125SOPE  C31113415   1.229   6.973   6.107 -0.1008  0.4684 -0.3391
  125SOPE  H11X13416   1.145   6.920   6.058 -0.3195  0.6499 -0.1589
  125SOPE  H11Y13417   1.192   7.058   6.167 -1.1337 -0.3013  0.1423
  125SOPE  C31213418   1.298   6.860   6.199 -0.5014  0.0321  0.2095
  125SOPE  H12X13419   1.392   6.839   6.144 -2.2190 -1.0825 -2.5382
  125SOPE  H12Y13420   1.242   6.765   6.187  1.1864 -0.8707 -1.0169
  125SOPE  C31313421   1.328   6.901   6.344  0.4137 -1.3503  0.7281
  125SOPE  H13X13422   1.388   6.994   6.337 -0.1744 -1.0097  0.0389
  125SOPE  H13Y13423   1.384   6.825   6.402  2.9576  0.8978  1.4402
  125SOPE  C31413424   1.211   6.948   6.429 -0.3794 -0.3281 -0.3067
  125SOPE  H14X13425   1.148   7.026   6.381  0.8773  0.1569 -1.2252
  125SOPE  H14Y13426   1.259   6.982   6.523 -0.9228 -2.3176  0.7492
  125SOPE  C31513427   1.136   6.827   6.479 -0.5826 -0.0889 -0.4448
  125SOPE  H15X13428   1.189   6.783   6.567 -2.4980 -0.3388  0.6430
  125SOPE  H15Y13429   1.123   6.760   6.391 -0.5610 -0.4124 -0.2057
  125SOPE  C31613430   1.000   6.843   6.540  0.2103 -0.7300 -0.6432
  125SOPE  H16X13431   0.940   6.752   6.562  0.0893 -0.7730 -1.1437
  125SOPE  H16Y13432   0.934   6.905   6.477  1.1710  1.4914  0.4393
  125SOPE  C31713433   0.983   6.919   6.674 -0.0518  0.0342 -0.4329
  125SOPE  H17X13434   1.065   6.993   6.681  1.0814 -0.9807 -2.2726
  125SOPE  H17Y13435   0.997   6.848   6.758 -2.5741 -0.9139 -0.7350
  125SOPE  C31813436   0.840   6.971   6.691 -0.0368  0.0950  0.4899
  125SOPE  H18X13437   0.845   7.071   6.740 -0.0540  0.5213 -0.3526
  125SOPE  H18Y13438   0.779   6.902   6.752  2.0412 -1.5267  0.8617
  125SOPE  H18Z13439   0.791   6.986   6.592 -0.8286  0.8688  0.9812
  126SOPE     N13440   0.211   2.998   4.680 -0.2170 -0.5299  0.2058
  126SOPE   HN113441   0.111   3.005   4.652  0.2338  1.4300 -1.1955
  126SOPE   HN213442   0.247   2.904   4.656  0.2183  0.2639 -2.5731
  126SOPE   HN313443   0.228   3.007   4.782 -2.9176 -3.3874  1.0550
  126SOPE   C1213444   0.282   3.104   4.604  0.0764 -0.9556  0.1534
  126SOPE  H12A13445   0.238   3.204   4.625 -0.8251 -1.2969 -0.0741
  126SOPE  H12B13446   0.281   3.086   4.494 -1.6111 -0.8494  0.1355
  126SOPE   C1113447   0.432   3.095   4.631 -0.4891 -0.8905 -0.2877
  126SOPE  H11A13448   0.438   3.129   4.737 -1.2603  1.5427 -0.9596
  126SOPE  H11B13449   0.484   3.171   4.568 -1.7248 -0.9033 -1.3552
  126SOPE     P13450   0.632   2.954   4.544  0.1369  0.1055 -0.2051
  126SOPE   O1313451   0.709   3.078   4.572  0.6027  0.1800  0.3177
  126SOPE   O1413452   0.625   2.908   4.406  0.4647 -0.1438  0.5292
  126SOPE   O1213453   0.484   2.968   4.601 -0.0550  0.1311  0.3229
  126SOPE   O1113454   0.699   2.839   4.643  0.4970  0.0444  0.1774
  126SOPE    C113455   0.609   2.751   4.719 -0.1584  0.0245  0.4933
  126SOPE    HA13456   0.659   2.652   4.720  3.0891  1.5567  1.4042
  126SOPE    HB13457   0.518   2.742   4.655  0.9985 -0.6402 -1.1347
  126SOPE    C213458   0.570   2.811   4.857  0.1661 -0.3992  0.3425
  126SOPE    HS13459   0.518   2.906   4.831 -0.7945 -0.7917  0.7551
  126SOPE   O2113460   0.694   2.827   4.929  0.4226 -0.0814 -0.1384
  126SOPE   C2113461   0.706   2.948   4.984 -0.1324 -0.3811 -0.3622
  126SOPE   O2213462   0.628   3.042   4.974  0.2453 -0.1798 -0.2230
  126SOPE   C2213463   0.844   2.970   5.061  0.4085  0.8865  0.3956
  126SOPE   H2R13464   0.898   3.045   4.999 -0.1542 -0.5684 -1.9772
  126SOPE   H2S13465   0.902   2.875   5.067  0.0394  0.6865  0.9981
  126SOPE    C313466   0.477   2.719   4.939  0.0494 -1.2013  0.0141
  126SOPE    HX13467   0.529   2.621   4.945 -1.0770 -1.9239 -1.5509
  126SOPE    HY13468   0.383   2.691   4.887 -2.1498  0.5150  2.7449
  126SOPE   O3113469   0.444   2.779   5.064  0.1430 -0.6765 -0.3624
  126SOPE   C3113470   0.347   2.867   5.054  0.6604  0.2665  0.3690
  126SOPE   O3213471   0.278   2.886   4.955  0.1161  0.1923 -0.7500
  126SOPE   C3213472   0.324   2.945   5.186  0.6289  0.1271  0.4529
  126SOPE   H2X13473   0.422   2.985   5.220  0.6200  0.2117  0.3796
  126SOPE   H2Y13474   0.276   2.875   5.257  0.1116 -2.6022 -2.3763
  126SOPE   C2313475   0.825   3.046   5.193  0.4146  0.7993  0.1654
  126SOPE   H3R13476   0.784   3.148   5.174 -1.1930  0.0115 -0.7268
  126SOPE   H3S13477   0.926   3.057   5.239  0.4378 -0.4914  0.4537
  126SOPE   C2413478   0.742   2.976   5.306 -0.4041  0.1752  0.9596
  126SOPE   H4R13479   0.638   2.981   5.266 -0.1290 -0.9175  0.0390
  126SOPE   H4S13480   0.771   2.869   5.307 -0.9269 -0.0029 -0.2386
  126SOPE   C2513481   0.735   3.051   5.437 -0.2860 -0.4170  1.1149
  126SOPE   H5R13482   0.831   3.079   5.486 -0.4736  1.7810  0.3559
  126SOPE   H5S13483   0.680   3.146   5.420  0.7865  0.0015 -0.1980
  126SOPE   C2613484   0.657   2.975   5.541  0.2114 -0.6239 -0.0669
  126SOPE   H6R13485   0.710   2.878   5.558  1.2941 -0.0996 -0.3736
  126SOPE   H6S13486   0.663   3.033   5.635 -0.9922 -0.6103  0.0163
  126SOPE   C2713487   0.505   2.949   5.523 -0.3211  0.2376 -0.5186
  126SOPE   H7R13488   0.454   3.040   5.485  1.1127  0.5701 -1.7211
  126SOPE   H7S13489   0.477   2.865   5.456  0.2774 -0.5378  0.1699
  126SOPE   C2813490   0.437   2.904   5.652 -0.3593 -0.8478 -0.2049
  126SOPE   H8R13491   0.343   2.850   5.626 -1.1121 -0.6480  1.9050
  126SOPE   H8S13492   0.501   2.838   5.714 -2.2889 -2.0143  0.6591
  126SOPE   C2913493   0.391   3.017   5.748 -0.1748 -0.5132 -0.4232
  126SOPE   H9113494   0.305   3.075   5.709  0.7957 -0.4429 -2.6249
  126SOPE  C21013495   0.454   3.058   5.867  0.1762  0.5920 -0.2990
  126SOPE  H10113496   0.418   3.140   5.930  2.6094  2.3233 -1.0064
  126SOPE  C21113497   0.571   2.987   5.932  0.0639  0.0846 -0.5677
  126SOPE  H11R13498   0.634   3.058   5.989  1.0411 -0.8751 -0.4300
  126SOPE  H11S13499   0.641   2.941   5.860  0.0912  0.4138 -0.7552
  126SOPE  C21213500   0.546   2.883   6.040 -0.1182  0.4094  0.0388
  126SOPE  H12R13501   0.635   2.818   6.058 -0.3946 -0.6486 -2.0488
  126SOPE  H12S13502   0.469   2.819   5.993 -0.8679  0.2827  1.3916
  126SOPE  C21313503   0.493   2.945   6.167  0.2138 -0.7486  0.1882
  126SOPE  H13R13504   0.390   2.974   6.137  0.1592 -0.7747  0.3514
  126SOPE  H13S13505   0.543   3.040   6.195 -1.8739  0.5581 -0.3050
  126SOPE  C21413506   0.501   2.861   6.293  0.1717 -0.0717  0.4754
  126SOPE  H14R13507   0.603   2.818   6.306  0.8238  0.6583 -1.7836
  126SOPE  H14S13508   0.437   2.773   6.269 -2.6096  1.8979  0.1903
  126SOPE  C21513509   0.441   2.927   6.415 -1.2609  0.1731  0.1708
  126SOPE  H15R13510   0.353   2.988   6.386 -1.0739  0.6905  0.6748
  126SOPE  H15S13511   0.513   3.001   6.455 -0.0746 -1.3846  1.0232
  126SOPE  C21613512   0.403   2.831   6.532 -0.0921  0.3172 -0.2108
  126SOPE  H16R13513   0.329   2.756   6.495  0.1507 -1.1496  2.0885
  126SOPE  H16S13514   0.346   2.894   6.604  2.0382 -0.6231  2.4944
  126SOPE  C21713515   0.529   2.778   6.600  0.2349  0.4286 -0.1343
  126SOPE  H17R13516   0.587   2.871   6.610 -0.4114  0.7858  0.3797
  126SOPE  H17S13517   0.579   2.710   6.528  1.1450  0.7850  0.1463
  126SOPE  C21813518   0.507   2.703   6.735  0.4095 -0.3338  0.6986
  126SOPE  H18R13519   0.464   2.770   6.813 -0.7149  0.8545 -0.8704
  126SOPE  H18S13520   0.600   2.658   6.775  1.1883  1.1053  0.5952
  126SOPE  H18T13521   0.432   2.624   6.717 -1.7909  1.8036 -0.1764
  126SOPE   C3313522   0.231   3.069   5.165  0.2781  1.1129 -0.1340
  126SOPE   H3X13523   0.207   3.103   5.268  3.5387 -1.8328  1.8243
  126SOPE   H3Y13524   0.139   3.036   5.113  1.3975 -1.8971 -0.4098
  126SOPE   C3413525   0.306   3.180   5.089 -0.1629  0.3674 -0.0922
  126SOPE   H4X13526   0.254   3.222   5.000 -0.2759 -1.7146 -1.0444
  126SOPE   H4Y13527   0.398   3.141   5.041 -0.0832  0.6800 -0.2017
  126SOPE   C3513528   0.337   3.301   5.178  0.0068  0.4070  0.0810
  126SOPE   H5X13529   0.249   3.345   5.229  3.0979  3.4651  3.3121
  126SOPE   H5Y13530   0.384   3.380   5.116 -0.5406  0.0658 -0.7853
  126SOPE   C3613531   0.444   3.277   5.286 -0.3499 -0.1283 -0.5770
  126SOPE   H6X13532   0.545   3.287   5.240 -0.6952  2.1594 -0.9510
  126SOPE   H6Y13533   0.432   3.173   5.324  1.9513 -0.0541  0.5025
  126SOPE   C3713534   0.423   3.363   5.411  0.3376  0.4793 -0.4116
  126SOPE   H7X13535   0.317   3.348   5.442  0.3323  3.5440  1.4611
  126SOPE   H7Y13536   0.424   3.463   5.362  0.7927  0.4367 -0.4930
  126SOPE   C3813537   0.523   3.349   5.527  0.1050 -0.0852  0.2997
  126SOPE   H8X13538   0.624   3.378   5.491  0.9702  0.3321  2.8747
  126SOPE   H8Y13539   0.533   3.253   5.582  2.3283  0.9145  1.7629
  126SOPE   C3913540   0.497   3.456   5.645 -0.2767 -0.2838  0.2762
  126SOPE   H9X13541   0.398   3.428   5.688  0.4050 -1.7926  0.9341
  126SOPE   H9Y13542   0.507   3.557   5.600 -2.5707  0.5158  1.3992
  126SOPE  C31013543   0.604   3.438   5.756  0.1880 -0.1290 -0.4518
  126SOPE  H10X13544   0.673   3.524   5.744 -0.4703  0.3803 -0.6056
  126SOPE  H10Y13545   0.657   3.340   5.748  0.1683 -0.1207 -0.6878
  126SOPE  C31113546   0.545   3.467   5.897 -0.6639 -0.5014 -0.2309
  126SOPE  H11X13547   0.460   3.396   5.913 -0.8749  0.0563  1.3194
  126SOPE  H11Y13548   0.504   3.570   5.905  0.1128 -0.3080  1.9198
  126SOPE  C31213549   0.641   3.444   6.024 -0.3751  0.1171 -0.0955
  126SOPE  H12X13550   0.691   3.544   6.023  0.4900 -0.3109 -0.4666
  126SOPE  H12Y13551   0.704   3.358   5.992  1.1835  0.8267  0.9329
  126SOPE  C31313552   0.560   3.398   6.145 -0.4804 -0.3798  0.7173
  126SOPE  H13X13553   0.631   3.402   6.230 -0.6410 -1.0326  0.8858
  126SOPE  H13Y13554   0.516   3.302   6.112 -1.7539  0.5543 -0.3967
  126SOPE  C31413555   0.446   3.487   6.178  0.3250 -0.4294 -0.1809
  126SOPE  H14X13556   0.358   3.474   6.111 -0.0477 -1.8698  0.5663
  126SOPE  H14Y13557   0.475   3.591   6.150  0.0541 -0.5453 -0.9181
  126SOPE  C31513558   0.413   3.492   6.330  0.3749  0.2264  0.2220
  126SOPE  H15X13559   0.351   3.583   6.340  1.3674  0.6699  4.4016
  126SOPE  H15Y13560   0.496   3.512   6.402  0.7332  0.4729 -0.2547
  126SOPE  C31613561   0.350   3.356   6.379  0.8352 -0.3654  0.1602
  126SOPE  H16X13562   0.407   3.264   6.356 -1.0005 -1.1625 -1.4611
  126SOPE  H16Y13563   0.255   3.361   6.322 -1.4996 -1.5826  3.6107
  126SOPE  C31713564   0.317   3.364   6.527  0.1438  0.9281 -0.5063
  126SOPE  H17X13565   0.301   3.466   6.566 -1.3926  0.5242 -0.0055
  126SOPE  H17Y13566   0.408   3.328   6.579 -1.8725 -1.4477  1.6499
  126SOPE  C31813567   0.215   3.256   6.570 -0.7317  0.6986  0.3869
  126SOPE  H18X13568   0.261   3.156   6.556  1.7569  1.8930 -0.6325
  126SOPE  H18Y13569   0.124   3.259   6.507 -1.2551 -0.6008  1.0611
  126SOPE  H18Z13570   0.186   3.253   6.677 -2.8824 -2.4758 -0.1549
  127SOPE     N13571   6.290   2.451   4.982  1.1056  0.6699 -0.7509
  127SOPE   HN113572   6.245   2.361   4.956 -0.1511  0.2114  2.5302
  127SOPE   HN213573   6.334   2.485   4.894  2.3155  1.8226  0.2596
  127SOPE   HN313574   6.356   2.414   5.054 -0.7949 -1.3895  0.0624
  127SOPE   C1213575   6.202   2.558   5.044 -0.6545  0.6885 -0.0231
  127SOPE  H12A13576   6.178   2.543   5.151  0.9763  2.4616  0.6352
  127SOPE  H12B13577   6.103   2.549   4.993 -0.5606  1.1970 -0.3027
  127SOPE   C1113578   6.274   2.695   5.008  0.0086 -0.0350 -0.6898
  127SOPE  H11A13579   6.372   2.689   5.061  0.5539  1.5155 -1.4638
  127SOPE  H11B13580   6.211   2.781   5.040 -0.2151  0.0350 -1.3129
  127SOPE     P13581   6.166   2.763   4.782 -0.4972  0.0107 -0.1027
  127SOPE   O1313582   6.046   2.688   4.828  0.0884 -0.2606  1.0795
  127SOPE   O1413583   6.194   2.760   4.644  0.2368  0.5610  0.4453
  127SOPE   O1213584   6.290   2.702   4.863 -0.2709  0.4590  0.1499
  127SOPE   O1113585   6.162   2.918   4.834  0.1626 -0.4759 -0.4881
  127SOPE    C113586   6.279   2.999   4.835 -0.0052 -0.2909 -0.1391
  127SOPE    HA13587   6.275   3.062   4.743 -0.1933 -0.9365 -0.5810
  127SOPE    HB13588   6.372   2.938   4.834  0.0537 -0.3503  2.5249
  127SOPE    C213589   6.268   3.104   4.950 -0.3312  0.1574  0.0775
  127SOPE    HS13590   6.363   3.162   4.949  0.0126 -0.4096 -1.2360
  127SOPE   O2113591   6.239   3.042   5.081  0.1365  0.6955 -0.0352
  127SOPE   C2113592   6.343   2.997   5.153  0.2702  0.8471  1.0775
  127SOPE   O2213593   6.453   2.970   5.108 -0.1437  0.2658 -0.5875
  127SOPE   C2213594   6.303   2.988   5.294  0.2220 -0.2017  0.2405
  127SOPE   H2R13595   6.194   2.993   5.315 -0.4287 -2.0289 -2.2784
  127SOPE   H2S13596   6.358   3.068   5.349  0.1719  1.3126 -1.8041
  127SOPE    C313597   6.155   3.206   4.915 -0.5873  0.3262  0.2357
  127SOPE    HX13598   6.054   3.163   4.929 -1.0457  1.4496  0.4916
  127SOPE    HY13599   6.151   3.225   4.805 -3.1278 -0.6853  0.0823
  127SOPE   O3113600   6.157   3.324   4.998  0.1076 -0.2468 -0.1656
  127SOPE   C3113601   6.259   3.413   4.969  0.6296  0.9109 -0.2811
  127SOPE   O3213602   6.308   3.416   4.856 -0.0105  0.0370  0.0272
  127SOPE   C3213603   6.297   3.501   5.090  0.3612 -0.1078 -0.1377
  127SOPE   H2X13604   6.226   3.586   5.081  0.9535  0.5239  1.0364
  127SOPE   H2Y13605   6.399   3.537   5.068  0.5048 -1.6440 -2.3047
  127SOPE   C2313606   6.352   2.855   5.352  0.4709  0.0306 -1.0435
  127SOPE   H3R13607   6.461   2.847   5.334  0.3116 -1.0124 -1.6901
  127SOPE   H3S13608   6.290   2.778   5.300 -0.1711 -0.2568  0.1226
  127SOPE   C2413609   6.327   2.841   5.502 -0.4135  0.4496 -0.5649
  127SOPE   H4R13610   6.220   2.867   5.519 -0.1710  0.7081  0.6012
  127SOPE   H4S13611   6.330   2.734   5.531  0.5164  0.3438 -1.0140
  127SOPE   C2513612   6.407   2.931   5.596 -0.6837  0.5305 -0.6352
  127SOPE   H5R13613   6.512   2.898   5.580 -1.6352 -2.8278 -0.5480
  127SOPE   H5S13614   6.389   3.037   5.565 -2.1544  1.4908  2.9758
  127SOPE   C2613615   6.375   2.921   5.747 -0.4919  0.0694  0.1590
  127SOPE   H6R13616   6.267   2.933   5.772  0.2708 -0.2084  4.2474
  127SOPE   H6S13617   6.405   2.816   5.765  0.6506  0.3759  0.1018
  127SOPE   C2713618   6.467   3.000   5.834  0.8776  0.0239 -0.2273
  127SOPE   H7R13619   6.545   2.926   5.859 -0.7338 -1.5222  0.4655
  127SOPE   H7S13620   6.503   3.085   5.772 -1.4559  0.3360 -1.2820
  127SOPE   C2813621   6.395   3.047   5.964  0.3628  0.0937 -0.3356
  127SOPE   H8R13622   6.312   3.111   5.929 -3.9051 -4.6299  0.0402
  127SOPE   H8S13623   6.344   2.955   6.000 -1.3246  0.9977 -0.3478
  127SOPE   C2913624   6.486   3.109   6.062 -0.2613  0.2082 -0.6230
  127SOPE   H9113625   6.575   3.149   6.010  0.8981  1.2882  1.9916
  127SOPE  C21013626   6.504   3.082   6.187 -0.5314 -0.0742 -0.2325
  127SOPE  H10113627   6.587   3.132   6.239 -0.8802 -1.3477  1.6525
  127SOPE  C21113628   6.413   2.996   6.266 -0.1835  0.4929 -0.0297
  127SOPE  H11R13629   6.459   2.899   6.293 -0.6856 -0.3737 -2.0878
  127SOPE  H11S13630   6.336   2.948   6.202  0.1642 -1.5676  1.0334
  127SOPE  C21213631   6.350   3.068   6.382 -0.7212  0.1361 -0.3287
  127SOPE  H12R13632   6.293   3.147   6.330  0.8642  0.5279 -1.5567
  127SOPE  H12S13633   6.438   3.107   6.439  0.7128  1.1102 -3.0089
  127SOPE  C21313634   6.267   2.979   6.471  0.5291  0.0724 -0.1870
  127SOPE  H13R13635   6.331   2.892   6.499 -1.3728 -0.9451  1.2691
  127SOPE  H13S13636   6.180   2.938   6.415  0.4320 -1.3969  0.9815
  127SOPE  C21413637   6.220   3.060   6.587 -0.1414 -0.0840  0.2135
  127SOPE  H14R13638   6.142   3.136   6.566 -0.6232  0.1346  2.5557
  127SOPE  H14S13639   6.302   3.121   6.632  0.2566 -0.7578  0.4075
  127SOPE  C21513640   6.160   2.970   6.699  1.3130 -0.7815 -0.0177
  127SOPE  H15R13641   6.223   2.879   6.710  3.2146  0.4153 -0.6176
  127SOPE  H15S13642   6.059   2.942   6.664  1.6512 -2.6175  0.3569
  127SOPE  C21613643   6.151   3.037   6.831 -0.6303 -1.2220  0.1522
  127SOPE  H16R13644   6.255   3.045   6.868 -0.6890  2.9029 -0.0426
  127SOPE  H16S13645   6.091   2.980   6.905 -1.7493  0.4646  0.6272
  127SOPE  C21713646   6.088   3.181   6.820 -0.1366  0.1769  0.0208
  127SOPE  H17R13647   6.013   3.185   6.738 -1.3899 -1.4215  1.0399
  127SOPE  H17S13648   6.167   3.257   6.801  1.8359 -1.6505  0.5133
  127SOPE  C21813649   6.012   3.232   6.944  0.0606 -0.0570  0.1759
  127SOPE  H18R13650   6.088   3.237   7.024 -1.4010  1.8875  1.5315
  127SOPE  H18S13651   5.935   3.157   6.971 -0.4986 -0.4789 -2.3179
  127SOPE  H18T13652   5.965   3.330   6.918 -0.6264 -0.3011  0.4721
  127SOPE   C3313653   6.275   3.427   5.223 -0.1009  0.2057  0.7072
  127SOPE   H3X13654   6.342   3.339   5.223  1.3198  1.1333 -2.6118
  127SOPE   H3Y13655   6.170   3.391   5.221  0.1864 -0.5994 -0.0019
  127SOPE   C3413656   6.318   3.511   5.346  0.2774  0.2911 -0.6705
  127SOPE   H4X13657   6.232   3.581   5.353 -0.3381 -0.5903  1.1850
  127SOPE   H4Y13658   6.404   3.580   5.332  0.1098  0.9770  1.3220
  127SOPE   C3513659   6.345   3.435   5.479 -0.3619 -0.6018 -0.3306
  127SOPE   H5X13660   6.422   3.359   5.459  0.4246  0.0649  0.0881
  127SOPE   H5Y13661   6.252   3.384   5.513 -0.0586 -1.7492 -1.1860
  127SOPE   C3613662   6.400   3.529   5.590 -0.5364 -0.6975 -0.1827
  127SOPE   H6X13663   6.329   3.610   5.618 -0.8732 -0.5984 -1.2572
  127SOPE   H6Y13664   6.476   3.594   5.542 -0.9025 -0.7512 -0.8518
  127SOPE   C3713665   6.456   3.461   5.716 -0.2955 -0.7607 -0.1068
  127SOPE   H7X13666   6.529   3.377   5.706  0.0819 -0.5345  0.7380
  127SOPE   H7Y13667   6.361   3.411   5.747 -0.3055 -0.0460  1.0475
  127SOPE   C3813668   6.508   3.548   5.834  0.3234 -0.4649 -0.9312
  127SOPE   H8X13669   6.462   3.647   5.814 -0.3011 -0.6909 -0.6661
  127SOPE   H8Y13670   6.618   3.556   5.830  0.2475  0.5917 -1.1206
  127SOPE   C3913671   6.466   3.493   5.965  0.1101 -0.6609 -0.0925
  127SOPE   H9X13672   6.500   3.387   5.972  0.1449 -0.5825  1.1050
  127SOPE   H9Y13673   6.355   3.488   5.968  0.1501 -1.3386  0.4769
  127SOPE  C31013674   6.512   3.591   6.076  0.1754  0.4153  0.1384
  127SOPE  H10X13675   6.446   3.573   6.164  0.7661  1.2790  0.7762
  127SOPE  H10Y13676   6.488   3.692   6.036  0.1580 -0.0371 -1.0467
  127SOPE  C31113677   6.663   3.573   6.108  0.0335  0.0797  0.2264
  127SOPE  H11X13678   6.719   3.635   6.035 -0.0725 -0.9157 -0.7263
  127SOPE  H11Y13679   6.691   3.469   6.081 -3.0985 -1.5605  2.6489
  127SOPE  C31213680   6.693   3.603   6.255 -0.4861 -0.2780  0.0595
  127SOPE  H12X13681   6.640   3.521   6.308 -2.3809 -0.1604 -1.5388
  127SOPE  H12Y13682   6.644   3.689   6.304  0.6332 -0.2107  1.1210
  127SOPE  C31313683   6.844   3.606   6.289 -0.7143 -0.1031 -0.2252
  127SOPE  H13X13684   6.900   3.689   6.240  3.1620 -2.4241 -0.1790
  127SOPE  H13Y13685   6.907   3.516   6.271  0.0925 -0.2338  2.7187
  127SOPE  C31413686   6.859   3.629   6.438  0.3340  0.1824 -0.5134
  127SOPE  H14X13687   6.828   3.731   6.471  0.1246 -0.4190  1.2665
  127SOPE  H14Y13688   6.965   3.634   6.469  0.2616  2.7833 -0.4283
  127SOPE  C31513689   6.802   3.523   6.530  0.0141  0.0693 -0.3062
  127SOPE  H15X13690   6.856   3.430   6.501 -0.4660 -0.3148  0.0220
  127SOPE  H15Y13691   6.692   3.513   6.515 -0.1158  2.2862 -1.2144
  127SOPE  C31613692   6.823   3.544   6.677 -0.2842  0.0172 -1.0100
  127SOPE  H16X13693   6.914   3.599   6.709 -1.0676  1.7106 -1.6108
  127SOPE  H16Y13694   6.826   3.446   6.729  0.1214 -0.6797 -2.2917
  127SOPE  C31713695   6.705   3.618   6.739  0.3671  0.4542  0.2479
  127SOPE  H17X13696   6.610   3.564   6.717 -1.7076  3.5811  0.9284
  127SOPE  H17Y13697   6.688   3.718   6.694 -0.2804  0.7255  1.0837
  127SOPE  C31813698   6.712   3.619   6.894 -1.1039  0.4053 -0.3047
  127SOPE  H18X13699   6.783   3.700   6.919  1.3667 -1.5006 -0.7787
  127SOPE  H18Y13700   6.743   3.523   6.941 -1.5073  1.3556  2.0870
  127SOPE  H18Z13701   6.608   3.642   6.925 -1.4929  0.2470 -1.4650
  128SOPE     N13702   5.882   1.735   4.957  0.6015 -0.5919 -0.4746
  128SOPE   HN113703   5.796   1.768   5.005  1.3778  1.1496 -0.2140
  128SOPE   HN213704   5.961   1.774   5.011 -0.5111 -0.8158  1.4217
  128SOPE   HN313705   5.874   1.764   4.857 -1.1086  0.3819 -0.1005
  128SOPE   C1213706   5.886   1.587   4.964 -0.3750 -0.3761 -0.1876
  128SOPE  H12A13707   5.845   1.563   5.064  0.1393 -0.4029  0.0220
  128SOPE  H12B13708   5.995   1.562   4.966 -0.4339 -0.5630  1.1827
  128SOPE   C1113709   5.825   1.521   4.837  0.7827  0.5240 -0.5679
  128SOPE  H11A13710   5.718   1.539   4.816  0.7022 -1.2723 -1.9200
  128SOPE  H11B13711   5.822   1.413   4.862  0.4753  0.7231  0.3227
  128SOPE     P13712   6.012   1.464   4.648 -0.2759  0.2444 -0.4192
  128SOPE   O1313713   6.121   1.552   4.607 -0.1903 -0.4801 -0.2911
  128SOPE   O1413714   5.956   1.379   4.541 -0.2166 -0.5130 -0.1082
  128SOPE   O1213715   5.899   1.552   4.721 -0.1366 -0.2548  1.2839
  128SOPE   O1113716   6.057   1.367   4.771  0.0076 -0.3320 -0.0572
  128SOPE    C113717   6.058   1.225   4.760  0.1880  0.1089  0.3774
  128SOPE    HA13718   6.148   1.195   4.817  0.9058  1.2091 -0.1551
  128SOPE    HB13719   6.066   1.194   4.654 -0.5648  2.4799 -0.4295
  128SOPE    C213720   5.944   1.158   4.836  0.5025  0.0569  0.5950
  128SOPE    HS13721   5.848   1.187   4.789  1.3246  1.2426 -0.4111
  128SOPE   O2113722   5.949   1.205   4.973 -0.0471  0.7485 -0.2387
  128SOPE   C2113723   5.838   1.181   5.045 -0.7696  0.0725 -0.3185
  128SOPE   O2213724   5.737   1.132   4.999  0.0947  0.3941  0.7146
  128SOPE   C2213725   5.871   1.215   5.193 -0.1518 -0.1434 -0.0596
  128SOPE   H2R13726   5.920   1.314   5.180  0.6282 -0.5765 -0.4879
  128SOPE   H2S13727   5.945   1.143   5.233 -0.1222 -1.1507 -1.8014
  128SOPE    C313728   5.958   0.998   4.827 -0.7301 -1.1169 -0.4801
  128SOPE    HX13729   5.928   0.979   4.722  0.4459  1.0578 -1.2857
  128SOPE    HY13730   5.884   0.939   4.884 -0.0125 -0.7236  0.9139
  128SOPE   O3113731   6.091   0.944   4.838 -0.0969  0.9894 -0.0435
  128SOPE   C3113732   6.129   0.930   4.966  0.7282  0.4946  0.3251
  128SOPE   O3213733   6.058   0.926   5.065  0.1161 -0.5360  0.1394
  128SOPE   C3213734   6.278   0.922   4.967 -0.1725  0.2424  0.0748
  128SOPE   H2X13735   6.331   1.004   4.913  0.8446 -0.2383  0.3175
  128SOPE   H2Y13736   6.301   0.829   4.911  0.1052  1.7745 -2.5086
  128SOPE   C2313737   5.736   1.217   5.274  0.4743  0.1721 -0.0928
  128SOPE   H3R13738   5.758   1.217   5.383 -2.0671  1.5853  0.4864
  128SOPE   H3S13739   5.695   1.117   5.247 -0.9337  0.8207 -0.4160
  128SOPE   C2413740   5.652   1.343   5.247  0.1613 -0.1702 -0.3716
  128SOPE   H4R13741   5.715   1.429   5.278  0.5878 -0.2785 -0.9059
  128SOPE   H4S13742   5.634   1.364   5.139  1.7968 -1.1859 -0.8734
  128SOPE   C2513743   5.520   1.352   5.325 -0.9323  0.5612 -0.0595
  128SOPE   H5R13744   5.473   1.444   5.284  0.1484  1.1205 -0.0854
  128SOPE   H5S13745   5.440   1.278   5.305 -0.8336 -0.1956  2.1018
  128SOPE   C2613746   5.524   1.380   5.479  0.6853 -0.3347 -0.5326
  128SOPE   H6R13747   5.422   1.384   5.522  0.8805 -0.7773 -0.0159
  128SOPE   H6S13748   5.557   1.287   5.530  0.0777 -1.1426 -1.5526
  128SOPE   C2713749   5.593   1.504   5.537  0.2214 -0.4725  0.2139
  128SOPE   H7R13750   5.684   1.524   5.476  0.9027 -0.3356  1.2436
  128SOPE   H7S13751   5.521   1.588   5.535  0.2912 -0.4198 -0.3733
  128SOPE   C2813752   5.626   1.487   5.688 -0.0793  0.8182 -0.8065
  128SOPE   H8R13753   5.655   1.587   5.726 -1.1492  0.5002  0.9193
  128SOPE   H8S13754   5.535   1.458   5.744  0.3156  0.6215 -0.2609
  128SOPE   C2913755   5.742   1.382   5.706  0.0402  0.1315 -0.2508
  128SOPE   H9113756   5.752   1.299   5.635  3.3919  1.2891 -1.3203
  128SOPE  C21013757   5.831   1.388   5.805 -0.2639 -1.6147  0.7934
  128SOPE  H10113758   5.907   1.308   5.810  2.8987  0.9113 -2.1026
  128SOPE  C21113759   5.840   1.493   5.908  0.2298  0.7208  0.1470
  128SOPE  H11R13760   5.779   1.456   5.994  1.2543 -0.7950  0.2634
  128SOPE  H11S13761   5.796   1.587   5.869 -0.3092 -0.5513 -2.5380
  128SOPE  C21213762   5.988   1.507   5.954  0.7234 -0.0698  0.5601
  128SOPE  H12R13763   6.048   1.529   5.863 -1.8836 -1.0016 -1.5269
  128SOPE  H12S13764   6.028   1.415   6.001 -2.1508 -1.2377  0.9091
  128SOPE  C21313765   6.028   1.621   6.051  0.9815  0.0593 -0.0437
  128SOPE  H13R13766   5.966   1.708   6.023 -1.1305 -2.2369 -3.4056
  128SOPE  H13S13767   6.136   1.645   6.040  0.5947  2.3441  0.7877
  128SOPE  C21413768   5.996   1.594   6.196 -0.0628  0.0870  0.2581
  128SOPE  H14R13769   6.085   1.541   6.237  0.8666  1.7464  0.5092
  128SOPE  H14S13770   5.908   1.528   6.205 -1.6997  1.4674 -3.4686
  128SOPE  C21513771   5.968   1.730   6.270 -0.0110 -0.1549 -0.5326
  128SOPE  H15R13772   5.929   1.701   6.369  0.0642  0.0677 -0.4373
  128SOPE  H15S13773   5.890   1.788   6.217 -1.2440  1.9957  3.2694
  128SOPE  C21613774   6.086   1.818   6.295  0.1742  0.7222  0.9828
  128SOPE  H16R13775   6.147   1.806   6.203 -0.1487 -1.4008  0.9865
  128SOPE  H16S13776   6.149   1.789   6.381 -0.7213  1.7542  2.0227
  128SOPE  C21713777   6.039   1.966   6.320 -0.3810  0.1533  0.0106
  128SOPE  H17R13778   5.979   1.965   6.414  0.6483 -0.8572  0.6848
  128SOPE  H17S13779   5.965   1.992   6.242  0.1150  1.1181 -0.1454
  128SOPE  C21813780   6.149   2.064   6.330  0.2106  0.0561  0.1735
  128SOPE  H18R13781   6.121   2.166   6.296  0.4341 -0.3540 -1.3375
  128SOPE  H18S13782   6.234   2.032   6.265  2.0207 -0.5670  2.7005
  128SOPE  H18T13783   6.186   2.079   6.433 -0.2398  2.3893  0.0445
  128SOPE   C3313784   6.342   0.916   5.111  0.3117  0.0267  0.0967
  128SOPE   H3X13785   6.437   0.865   5.087 -0.1520 -0.9148  0.1976
  128SOPE   H3Y13786   6.277   0.849   5.173 -1.8483 -0.1033 -2.1422
  128SOPE   C3413787   6.367   1.049   5.177  0.3155  0.1654 -0.4232
  128SOPE   H4X13788   6.272   1.099   5.208 -0.4516 -1.2379 -0.4295
  128SOPE   H4Y13789   6.417   1.115   5.103  1.3068 -2.1538 -1.9307
  128SOPE   C3513790   6.457   1.055   5.300  0.0414  0.9602  0.0430
  128SOPE   H5X13791   6.463   1.162   5.327  0.3798  0.1134  3.8473
  128SOPE   H5Y13792   6.556   1.027   5.257 -0.2797 -1.5871  0.8114
  128SOPE   C3613793   6.406   0.969   5.423  0.7383  0.0536  0.6423
  128SOPE   H6X13794   6.387   0.866   5.389 -2.8948  0.1438  2.0082
  128SOPE   H6Y13795   6.304   1.000   5.453  0.1383 -0.7696 -0.4912
  128SOPE   C3713796   6.509   0.961   5.535  0.5695 -0.0960  0.8697
  128SOPE   H7X13797   6.523   1.058   5.586 -0.0801 -0.2748  1.4134
  128SOPE   H7Y13798   6.607   0.938   5.489  0.6471 -0.0224  0.9995
  128SOPE   C3813799   6.468   0.866   5.657  0.0979  0.1193  0.5529
  128SOPE   H8X13800   6.434   0.770   5.613  0.4224  0.1194  0.2957
  128SOPE   H8Y13801   6.375   0.902   5.705 -0.3790 -0.8087  0.3466
  128SOPE   C3913802   6.585   0.858   5.760  0.2899  0.6040 -0.2993
  128SOPE   H9X13803   6.626   0.961   5.755  2.7745 -0.2791  0.4595
  128SOPE   H9Y13804   6.667   0.794   5.720 -0.8418 -1.6984  0.8112
  128SOPE  C31013805   6.548   0.830   5.911  0.8745  0.4097 -0.0181
  128SOPE  H10X13806   6.644   0.808   5.963  1.6134  1.1475 -1.0437
  128SOPE  H10Y13807   6.484   0.739   5.908 -0.8050  1.5489 -0.0623
  128SOPE  C31113808   6.490   0.948   5.979 -0.2021 -0.0195  0.1148
  128SOPE  H11X13809   6.396   0.988   5.935 -1.1940  0.1491  2.3027
  128SOPE  H11Y13810   6.565   1.031   5.975 -0.3621  0.1030 -0.5817
  128SOPE  C31213811   6.452   0.930   6.130 -0.3754  0.3040  0.5810
  128SOPE  H12X13812   6.398   0.834   6.139  1.4516 -0.7026  1.3667
  128SOPE  H12Y13813   6.390   1.016   6.164  0.0358  1.3336 -1.1445
  128SOPE  C31313814   6.563   0.911   6.231 -0.2945 -0.3267 -0.0319
  128SOPE  H13X13815   6.616   0.815   6.213  0.2462 -0.1310  0.4846
  128SOPE  H13Y13816   6.526   0.921   6.336  0.1143  2.2040 -0.0835
  128SOPE  C31413817   6.676   1.014   6.227 -0.7919  0.2773 -0.5082
  128SOPE  H14X13818   6.626   1.111   6.210 -2.9093 -0.9899 -1.9449
  128SOPE  H14Y13819   6.730   1.002   6.131 -1.2084  4.1854 -1.3873
  128SOPE  C31513820   6.772   1.005   6.353 -0.1951  0.0730  0.3602
  128SOPE  H15X13821   6.862   1.069   6.340 -2.2239  3.0623  0.2149
  128SOPE  H15Y13822   6.814   0.902   6.342  1.4634  0.8799 -1.5221
  128SOPE  C31613823   6.713   1.031   6.489  0.0929  0.2246 -0.4022
  128SOPE  H16X13824   6.623   0.966   6.493  0.4193 -0.1496  1.7078
  128SOPE  H16Y13825   6.675   1.132   6.516  2.4229  1.0554 -0.0156
  128SOPE  C31713826   6.811   1.014   6.608  0.3891 -0.6854  0.5493
  128SOPE  H17X13827   6.881   1.100   6.615  0.4156 -0.7199  0.7265
  128SOPE  H17Y13828   6.866   0.918   6.608 -0.0872 -0.9681  1.2711
  128SOPE  C31813829   6.739   1.023   6.739 -0.3335 -0.0627  1.3739
  128SOPE  H18X13830   6.633   0.991   6.728 -1.1031  2.4964  0.7370
  128SOPE  H18Y13831   6.737   1.129   6.773  1.4758  1.1652 -1.9857
  128SOPE  H18Z13832   6.785   0.967   6.823 -0.2726  0.2147  1.5265
  129OSM      N13833   2.929   0.490   0.580  0.6152  0.0834 -0.6704
  129OSM    C1513834   2.907   0.337   0.584 -0.1333 -0.2692  0.2578
  129OSM   H15A13835   2.829   0.309   0.653 -0.9322 -0.9675 -0.8900
  129OSM   H15B13836   2.998   0.282   0.601 -0.8952 -2.1962 -1.4276
  129OSM   H15C13837   2.880   0.295   0.488  2.9541 -0.0990 -0.8023
  129OSM    C1413838   2.786   0.546   0.589  0.5030 -0.2555 -0.1625
  129OSM   H14A13839   2.794   0.653   0.584  1.4397 -0.3077 -0.0017
  129OSM   H14B13840   2.745   0.506   0.681 -0.2195 -2.9256 -1.5348
  129OSM   H14C13841   2.719   0.502   0.518  0.1043 -1.7128  1.0510
  129OSM    C1313842   2.993   0.531   0.708  0.1814 -0.1891 -0.5207
  129OSM   H13A13843   3.074   0.468   0.741  0.4706 -0.0841 -1.0194
  129OSM   H13B13844   2.923   0.541   0.789  2.5062  2.3509  1.3669
  129OSM   H13C13845   3.032   0.631   0.696  1.6026 -0.4849  1.2265
  129OSM    C1213846   3.008   0.523   0.462  0.3308 -0.2115 -0.0488
  129OSM   H12A13847   2.972   0.462   0.380  1.2382  0.2048 -0.7782
  129OSM   H12B13848   3.104   0.479   0.486  0.8787 -1.6465 -4.1136
  129OSM    C1113849   3.018   0.668   0.420 -0.2344 -0.6680  0.9586
  129OSM   H11A13850   2.916   0.699   0.389 -0.3728 -2.6743 -0.8569
  129OSM   H11B13851   3.076   0.678   0.325 -0.7798  1.1000  0.7698
  129OSM      P13852   3.233   0.748   0.539  0.0498 -0.2514 -0.3868
  129OSM    O1313853   3.261   0.865   0.619  0.0040  0.3977  0.4730
  129OSM    O1413854   3.276   0.617   0.590 -0.0301 -0.1482  0.5416
  129OSM    O1113855   3.303   0.756   0.393  0.6838  0.3128  0.0832
  129OSM    O1213856   3.079   0.760   0.514 -0.0272  0.4630  0.0078
  129OSM    C1S13857   3.280   0.876   0.308  0.2659  0.0698 -0.2617
  129OSM    H1S13858   3.325   0.968   0.351  1.1125  0.7364 -2.4532
  129OSM    H1T13859   3.172   0.898   0.294  1.0684  2.8878 -3.4287
  129OSM     NF13860   3.362   0.991   0.104 -0.4691  0.1335  0.0561
  129OSM    HNF13861   3.298   1.022   0.034  0.7681  1.2861 -0.6161
  129OSM    C2S13862   3.342   0.857   0.167  0.0785 -0.1683  0.1927
  129OSM    H2S13863   3.446   0.826   0.191  0.3431  0.2950 -0.3086
  129OSM    C3S13864   3.271   0.744   0.097 -0.1004 -0.0702  0.5502
  129OSM    H3S13865   3.167   0.781   0.086 -0.9575 -2.4613 -0.0935
  129OSM     O313866   3.254   0.624   0.172  0.2425 -0.5321 -0.0160
  129OSM    HO313867   3.241   0.656   0.262  1.6987 -1.3253  0.5167
  129OSM    C4S13868   3.335   0.717  -0.035 -0.7076 -0.2000 -0.1670
  129OSM    H4S13869   3.445   0.717  -0.033 -0.7035 -0.9022  0.6029
  129OSM    C5S13870   3.270   0.706  -0.149 -0.5750 -0.1638  0.1423
  129OSM    H5S13871   3.160   0.710  -0.150 -0.6636 -1.8851  0.4817
  129OSM    C6S13872   3.336   0.689  -0.281 -0.2473  0.0964  0.3787
  129OSM    H6S13873   3.305   0.607  -0.349  1.7490 -0.5099  0.1207
  129OSM    H6T13874   3.445   0.676  -0.267 -0.3015  0.3968  1.0934
  129OSM    C7S13875   3.311   0.807  -0.380  0.0000  0.1551 -0.5523
  129OSM    H7S13876   3.349   0.904  -0.342 -0.0562 -0.0593  0.0564
  129OSM    H7T13877   3.202   0.827  -0.390  0.1302  0.3400 -1.8791
  129OSM    C8S13878   3.359   0.780  -0.517 -0.4616 -0.9683  0.5884
  129OSM    H8S13879   3.308   0.687  -0.552 -2.6888 -0.4332  2.2156
  129OSM    H8T13880   3.468   0.761  -0.517 -0.1547  0.5449 -0.8461
  129OSM    C9S13881   3.317   0.885  -0.630  0.5925  0.1304 -0.9918
  129OSM    H9S13882   3.381   0.976  -0.632  1.0828 -0.2039 -0.8586
  129OSM    H9T13883   3.208   0.902  -0.617  0.3908 -1.8214  0.2986
  129OSM   C10S13884   3.356   0.815  -0.766 -0.5833 -0.4399 -0.2229
  129OSM   H10S13885   3.311   0.714  -0.772 -1.7166 -0.2201  2.5901
  129OSM   H10T13886   3.467   0.813  -0.770 -0.4651  0.2421  1.6461
  129OSM   C11S13887   3.309   0.902  -0.882 -0.3680 -0.1756  0.2734
  129OSM   H11S13888   3.354   1.003  -0.870 -1.7566  0.7815 -1.9174
  129OSM   H11T13889   3.200   0.919  -0.896  0.0690  1.7856 -1.1170
  129OSM   C12S13890   3.344   0.838  -1.016 -0.6202  0.5743 -0.0027
  129OSM   H12S13891   3.299   0.737  -1.024  1.7877 -0.6547  1.1268
  129OSM   H12T13892   3.451   0.813  -1.034  0.1656  3.4445  0.2048
  129OSM   C13S13893   3.289   0.909  -1.130  0.3548  0.0021 -0.1668
  129OSM   H13S13894   3.326   1.014  -1.131  0.3765 -0.0048 -0.1156
  129OSM   H13T13895   3.178   0.908  -1.116  0.0732  0.8134 -2.0166
  129OSM   C14S13896   3.303   0.839  -1.268  0.3843 -0.1257 -0.9063
  129OSM   H14S13897   3.242   0.746  -1.272 -0.9701  0.7530 -1.2002
  129OSM   H14T13898   3.408   0.805  -1.281  0.3103 -1.4519  1.4182
  129OSM   C15S13899   3.267   0.933  -1.386 -0.2474  0.0058  0.1118
  129OSM   H15S13900   3.327   1.026  -1.381 -1.4174  0.7541  0.6555
  129OSM   H15T13901   3.159   0.958  -1.377 -0.1249  0.4626  0.3344
  129OSM   C16S13902   3.290   0.867  -1.521 -0.1624 -0.6827 -0.0804
  129OSM   H16S13903   3.304   0.758  -1.504 -0.9630 -0.7933 -0.0618
  129OSM   H16T13904   3.391   0.895  -1.558 -0.6890  1.1487 -0.2177
  129OSM   C17S13905   3.174   0.882  -1.622 -0.1969  0.5634 -0.0144
  129OSM   H17S13906   3.117   0.974  -1.596 -0.5451  1.1183 -2.5391
  129OSM   H17T13907   3.100   0.800  -1.614 -0.8568  0.9690 -1.5833
  129OSM   C18S13908   3.213   0.891  -1.765 -0.0528 -0.0063  0.4804
  129OSM   H18S13909   3.276   0.977  -1.793  0.5906 -1.2291 -2.0989
  129OSM   H18T13910   3.123   0.892  -1.830  0.1829 -1.8668  0.0604
  129OSM   H18U13911   3.262   0.793  -1.783 -1.1800 -0.4968 -0.0803
  129OSM    C1F13912   3.460   1.078   0.136 -0.9646 -0.2199 -0.1245
  129OSM     OF13913   3.536   1.051   0.229  0.0196 -0.1669  0.1679
  129OSM    C2F13914   3.474   1.201   0.055 -0.0117  0.3192 -0.5042
  129OSM    H2F13915   3.518   1.281   0.117 -0.0955 -0.1841  0.2159
  129OSM    H2G13916   3.372   1.227   0.020 -0.9962 -1.0188  1.2406
  129OSM    C3F13917   3.564   1.192  -0.071 -0.1233 -0.2109  0.2610
  129OSM    H3F13918   3.668   1.172  -0.037  0.3865  1.6756 -0.0701
  129OSM    H3G13919   3.565   1.292  -0.119 -0.2069 -0.2049  0.2725
  129OSM    C4F13920   3.523   1.091  -0.185 -0.3755  0.3784  0.3231
  129OSM    H4F13921   3.442   1.145  -0.240 -0.7967 -0.3233  0.2412
  129OSM    H4G13922   3.482   0.995  -0.149 -0.2114 -0.1997 -0.9918
  129OSM    C5F13923   3.639   1.060  -0.282  0.0549 -0.0502  0.1768
  129OSM    H5F13924   3.698   0.978  -0.234  0.9568  0.5560  0.1175
  129OSM    H5G13925   3.702   1.151  -0.281 -1.2157  0.8582  0.6087
  129OSM    C6F13926   3.595   1.042  -0.421  0.2777  0.0348 -0.1344
  129OSM    H6F13927   3.532   1.128  -0.454 -0.8072 -1.1318 -1.2393
  129OSM    H6G13928   3.531   0.952  -0.432  1.8510 -0.9862 -1.3682
  129OSM    C7F13929   3.710   1.024  -0.526  0.3930 -0.0148 -0.2357
  129OSM    H7F13930   3.745   0.919  -0.515 -0.5940 -0.4446 -1.0161
  129OSM    H7G13931   3.801   1.084  -0.508 -0.0597  0.2081  1.4735
  129OSM    C8F13932   3.650   1.015  -0.669 -0.0599  0.2911 -0.9690
  129OSM    H8F13933   3.558   0.953  -0.664  0.9894 -1.4864 -2.4221
  129OSM    H8G13934   3.717   0.962  -0.739  0.9398  0.5619 -0.2367
  129OSM    C9F13935   3.615   1.157  -0.717 -0.1579  0.6069 -0.0737
  129OSM    H9F13936   3.544   1.209  -0.651  0.9987  0.1888  1.5603
  129OSM   C10F13937   3.670   1.216  -0.825  0.3902 -0.2366 -0.4044
  129OSM   H10F13938   3.629   1.316  -0.849  4.2531  2.5060  3.0175
  129OSM   C11F13939   3.773   1.165  -0.925 -0.1798  0.8319  0.5108
  129OSM   H11F13940   3.807   1.063  -0.899  2.3568  1.0054 -1.7465
  129OSM   H11G13941   3.868   1.219  -0.905 -0.2636  0.9423  0.6167
  129OSM   C12F13942   3.744   1.175  -1.073  0.5774  0.1626 -0.0686
  129OSM   H12F13943   3.845   1.164  -1.117  1.0764 -1.0296  1.3319
  129OSM   H12G13944   3.714   1.276  -1.110  2.8145  0.9137  0.0528
  129OSM   C13F13945   3.650   1.073  -1.129 -0.6578  0.0727  0.3220
  129OSM   H13F13946   3.545   1.079  -1.094 -1.1126 -1.5340 -0.6453
  129OSM   H13G13947   3.691   0.975  -1.096  0.2140  0.7442  1.3047
  129OSM   C14F13948   3.654   1.069  -1.290 -0.3836  0.8609 -0.1004
  129OSM   H14F13949   3.615   0.972  -1.327  0.6182  0.8529 -1.1671
  129OSM   H14G13950   3.757   1.081  -1.328 -0.1775  0.0158  0.1604
  129OSM   C15F13951   3.575   1.181  -1.344  0.2308  0.6019  0.1034
  129OSM   H15F13952   3.624   1.275  -1.311 -1.3289  1.0975  1.1229
  129OSM   H15G13953   3.477   1.175  -1.293 -0.0820  1.0573 -0.4341
  129OSM   C16F13954   3.557   1.184  -1.492  0.3680  0.5845  0.2121
  129OSM   H16F13955   3.530   1.082  -1.526 -0.2608 -0.0954  2.5511
  129OSM   H16G13956   3.653   1.214  -1.540  0.1370  0.3858 -0.3840
  129OSM   C17F13957   3.447   1.280  -1.529  0.6381 -0.7187 -0.1980
  129OSM   H17F13958   3.456   1.386  -1.495  0.2175 -0.7304 -0.0353
  129OSM   H17G13959   3.354   1.237  -1.485  1.7841 -0.1373  2.9992
  129OSM   C18F13960   3.427   1.269  -1.678 -0.3637 -0.4309  0.6117
  129OSM   H18F13961   3.490   1.341  -1.736 -0.8166  1.5197  2.4157
  129OSM   H18G13962   3.321   1.286  -1.706  0.0848 -0.0168 -0.9821
  129OSM   H18H13963   3.460   1.170  -1.715  2.2987  0.9424 -1.0394
  130OSM      N13964   3.788   0.897   0.430 -0.2761  0.0880 -0.2404
  130OSM    C1513965   3.712   0.773   0.443 -0.0400  0.0724 -0.1884
  130OSM   H15A13966   3.608   0.784   0.415  0.2980  0.0638 -1.5087
  130OSM   H15B13967   3.715   0.727   0.541 -1.3569  0.6264  0.1425
  130OSM   H15C13968   3.760   0.703   0.377 -1.6656 -1.2201 -0.0739
  130OSM    C1413969   3.711   1.005   0.506 -0.5442 -0.3829  0.4230
  130OSM   H14A13970   3.608   0.993   0.476 -0.8508  1.3816  0.6825
  130OSM   H14B13971   3.755   1.102   0.493  1.4752 -1.3781 -0.6733
  130OSM   H14C13972   3.700   0.989   0.612 -1.0090  1.2015  0.6367
  130OSM    C1313973   3.926   0.883   0.490 -0.3197 -0.0758 -0.4719
  130OSM   H13A13974   3.984   0.819   0.425  0.1031 -2.5472  2.1286
  130OSM   H13B13975   3.928   0.847   0.592  0.3576  0.5947 -0.2446
  130OSM   H13C13976   3.970   0.981   0.484 -3.2898  1.2832 -2.2187
  130OSM    C1213977   3.799   0.936   0.284  0.5292 -0.9037 -0.6416
  130OSM   H12A13978   3.850   1.031   0.288 -1.8147  0.6088 -2.8557
  130OSM   H12B13979   3.696   0.955   0.254  0.9645 -0.6317 -2.0506
  130OSM    C1113980   3.863   0.854   0.173  0.0529 -0.0476  0.5870
  130OSM   H11A13981   3.845   0.906   0.076 -0.0126  1.8569  1.5777
  130OSM   H11B13982   3.814   0.755   0.178  1.2858 -0.6164  2.3177
  130OSM      P13983   4.072   0.702   0.155 -0.1793  0.3033  0.2800
  130OSM    O1313984   4.203   0.738   0.102  1.0260 -0.3220 -0.3588
  130OSM    O1413985   4.067   0.615   0.272  0.1188 -0.1318 -0.5637
  130OSM    O1113986   3.987   0.640   0.036  0.1501 -0.6594 -0.1727
  130OSM    O1213987   4.003   0.835   0.200 -0.1281  0.2211  0.1445
  130OSM    C1S13988   4.051   0.578  -0.073 -0.6518  0.8037 -0.7104
  130OSM    H1S13989   4.095   0.482  -0.038  2.2155  2.5919  1.0213
  130OSM    H1T13990   4.135   0.643  -0.107  1.4914 -2.5659 -2.4723
  130OSM     NF13991   4.043   0.491  -0.307 -0.2875  0.1887  0.3790
  130OSM    HNF13992   4.058   0.559  -0.378  2.3696  1.4674  2.0120
  130OSM    C2S13993   3.957   0.545  -0.194  0.1978  0.1330  0.1198
  130OSM    H2S13994   3.895   0.457  -0.165 -0.9822 -0.7337 -4.2293
  130OSM    C3S13995   3.867   0.658  -0.227 -0.4886 -0.4573  0.3996
  130OSM    H3S13996   3.933   0.747  -0.243 -0.7629 -0.4334 -0.6942
  130OSM     O313997   3.775   0.701  -0.126  0.4409  0.2012  0.3937
  130OSM    HO313998   3.823   0.668  -0.050 -1.0753 -0.0449  1.2808
  130OSM    C4S13999   3.801   0.638  -0.365 -0.7986  0.0535  0.4405
  130OSM    H4S14000   3.818   0.721  -0.435  2.9240 -0.2784  0.7622
  130OSM    C5S14001   3.718   0.535  -0.402  0.1851  0.4021 -0.3301
  130OSM    H5S14002   3.698   0.454  -0.330  2.0268 -0.0935 -0.3359
  130OSM    C6S14003   3.654   0.514  -0.541  0.0573 -0.6323  0.3800
  130OSM    H6S14004   3.546   0.541  -0.549  0.5726  0.8935 -4.5094
  130OSM    H6T14005   3.655   0.404  -0.557  2.1504 -0.9620  2.2561
  130OSM    C7S14006   3.721   0.570  -0.669 -0.1173 -0.4553  0.6818
  130OSM    H7S14007   3.808   0.501  -0.677 -1.4289 -2.1442  0.4492
  130OSM    H7T14008   3.738   0.679  -0.657  0.0249 -0.6211  2.1022
  130OSM    C8S14009   3.644   0.539  -0.794  0.4236  0.1468  0.0864
  130OSM    H8S14010   3.543   0.585  -0.784 -0.5077 -1.8560  0.4014
  130OSM    H8T14011   3.639   0.428  -0.799  1.0063  0.0020  1.9190
  130OSM    C9S14012   3.704   0.594  -0.924  0.0119 -0.1058 -0.2922
  130OSM    H9S14013   3.809   0.558  -0.929 -0.4716 -1.9018  1.1933
  130OSM    H9T14014   3.698   0.704  -0.922 -1.8650 -0.1359 -1.8113
  130OSM   C10S14015   3.627   0.537  -1.047 -0.4131  0.4519 -0.0008
  130OSM   H10S14016   3.520   0.562  -1.034 -0.7267 -0.6028 -0.4852
  130OSM   H10T14017   3.643   0.427  -1.048  0.7247  0.5666  1.3859
  130OSM   C11S14018   3.674   0.604  -1.177  0.1738 -0.2700 -0.0331
  130OSM   H11S14019   3.779   0.567  -1.179  0.4161  0.1060  2.3758
  130OSM   H11T14020   3.656   0.713  -1.165  0.3635 -0.2024 -0.3652
  130OSM   C12S14021   3.602   0.552  -1.302  0.6913 -0.0121 -0.1171
  130OSM   H12S14022   3.502   0.601  -1.295  1.6577  1.7818  2.7875
  130OSM   H12T14023   3.590   0.443  -1.284 -2.4342  0.6656  3.3996
  130OSM   C13S14024   3.666   0.575  -1.437 -0.5653  0.0418 -0.5974
  130OSM   H13S14025   3.762   0.521  -1.454 -0.9527 -0.8782  0.0915
  130OSM   H13T14026   3.679   0.682  -1.467 -1.4698  0.0717 -0.9186
  130OSM   C14S14027   3.574   0.524  -1.550 -0.6819  0.7178 -1.4994
  130OSM   H14S14028   3.470   0.561  -1.537 -1.2502 -1.0015 -0.8399
  130OSM   H14T14029   3.557   0.414  -1.546 -2.2259  0.8795 -2.6213
  130OSM   C15S14030   3.618   0.564  -1.687 -0.4624 -0.6967 -0.4836
  130OSM   H15S14031   3.721   0.530  -1.712  0.0443  0.3361  0.1477
  130OSM   H15T14032   3.621   0.674  -1.677 -0.4111 -0.7310 -0.0953
  130OSM   C16S14033   3.521   0.540  -1.807  1.1255 -0.1865 -0.3385
  130OSM   H16S14034   3.421   0.569  -1.767  1.5127 -1.9414  2.1405
  130OSM   H16T14035   3.505   0.434  -1.836 -1.2068  0.0445 -0.0974
  130OSM   C17S14036   3.548   0.635  -1.927 -0.0189  0.2179  0.7344
  130OSM   H17S14037   3.572   0.735  -1.885  0.5616  1.0641 -1.4829
  130OSM   H17T14038   3.462   0.639  -1.998  1.9900 -2.7859 -2.1655
  130OSM   C18S14039   3.673   0.588  -2.009  0.1091  0.5511  0.0705
  130OSM   H18S14040   3.661   0.483  -2.044  1.8654  0.1654  0.5215
  130OSM   H18T14041   3.759   0.598  -1.939 -0.0600 -0.4175  0.4375
  130OSM   H18U14042   3.688   0.651  -2.098 -0.5012  0.6177  0.0087
  130OSM    C1F14043   4.107   0.374  -0.304 -0.1311  0.6248 -0.0543
  130OSM     OF14044   4.092   0.294  -0.213  0.0226  0.5035 -0.2983
  130OSM    C2F14045   4.207   0.340  -0.410  0.8933  0.0982  0.0229
  130OSM    H2F14046   4.286   0.267  -0.381  2.4004  1.3200 -0.8335
  130OSM    H2G14047   4.263   0.426  -0.452 -1.5311  1.9766  0.4180
  130OSM    C3F14048   4.134   0.276  -0.529 -0.1009 -0.0526 -0.0084
  130OSM    H3F14049   4.032   0.311  -0.557 -0.6813 -0.9741  0.8872
  130OSM    H3G14050   4.092   0.181  -0.488 -1.3301  0.4671 -0.0240
  130OSM    C4F14051   4.220   0.251  -0.649  0.1858  0.0320 -0.1042
  130OSM    H4F14052   4.307   0.187  -0.620  2.4905  2.6525 -0.7954
  130OSM    H4G14053   4.270   0.342  -0.689 -1.6277  0.7040 -0.9417
  130OSM    C5F14054   4.151   0.194  -0.773 -0.1337  0.1156  0.2005
  130OSM    H5F14055   4.062   0.253  -0.801  0.2549  1.2063  1.1695
  130OSM    H5G14056   4.119   0.095  -0.735  0.5902  0.0376  0.6213
  130OSM    C6F14057   4.244   0.164  -0.886 -0.3352  0.5458  0.0693
  130OSM    H6F14058   4.315   0.079  -0.872  1.4014  2.1296  1.4175
  130OSM    H6G14059   4.323   0.242  -0.898 -0.6408  1.6044  3.6584
  130OSM    C7F14060   4.177   0.140  -1.026  0.2578  0.3864 -0.1572
  130OSM    H7F14061   4.130   0.232  -1.068 -0.1777  0.4752  0.5157
  130OSM    H7G14062   4.090   0.074  -1.007 -0.6826  1.4658 -0.6021
  130OSM    C8F14063   4.275   0.077  -1.128 -0.5702 -0.2481 -0.2715
  130OSM    H8F14064   4.208   0.034  -1.206 -0.1668 -1.4754  0.0367
  130OSM    H8G14065   4.309  -0.012  -1.071 -1.4800 -0.9507 -0.7895
  130OSM    C9F14066   4.399   0.146  -1.178 -0.2743 -0.2946  0.4676
  130OSM    H9F14067   4.454   0.203  -1.102 -1.5304 -0.6133  1.6679
  130OSM   C10F14068   4.454   0.137  -1.300 -0.5038  0.0674  1.0137
  130OSM   H10F14069   4.549   0.187  -1.326 -0.2733 -1.2709 -0.9351
  130OSM   C11F14070   4.394   0.069  -1.424  0.4634  0.9660  0.6150
  130OSM   H11F14071   4.297   0.117  -1.449 -0.7075 -1.3916  0.4156
  130OSM   H11G14072   4.367  -0.034  -1.393 -2.6170  1.9612  1.6283
  130OSM   C12F14073   4.493   0.074  -1.536 -0.0220 -0.1178  0.9823
  130OSM   H12F14074   4.593   0.030  -1.514  0.2051 -0.2294 -0.2323
  130OSM   H12G14075   4.498   0.180  -1.566 -1.1786 -0.5053 -0.6831
  130OSM   C13F14076   4.458  -0.006  -1.669  0.5350 -0.0946  0.1693
  130OSM   H13F14077   4.544  -0.006  -1.739 -0.6042 -0.5488 -1.2896
  130OSM   H13G14078   4.384   0.062  -1.716 -0.4397  0.0378  1.7974
  130OSM   C14F14079   4.412  -0.150  -1.648 -0.2222  0.5278  0.1979
  130OSM   H14F14080   4.364  -0.187  -1.740  2.9949 -0.6111 -1.1791
  130OSM   H14G14081   4.339  -0.160  -1.565 -0.9468  1.2417 -0.3494
  130OSM   C15F14082   4.538  -0.239  -1.622  0.7439  0.5272  0.8751
  130OSM   H15F14083   4.563  -0.246  -1.514  1.0725 -1.1919  0.7263
  130OSM   H15G14084   4.620  -0.177  -1.664  1.3989  1.5972  3.5428
  130OSM   C16F14085   4.526  -0.379  -1.689 -0.2405 -0.0608  0.3469
  130OSM   H16F14086   4.511  -0.364  -1.798  0.8750  0.5125  0.2609
  130OSM   H16G14087   4.452  -0.450  -1.646  0.6860  0.3017  2.7162
  130OSM   C17F14088   4.664  -0.453  -1.675  0.6134  0.0572  0.3088
  130OSM   H17F14089   4.703  -0.442  -1.572  0.4822 -1.5552  0.5536
  130OSM   H17G14090   4.749  -0.418  -1.738  1.0740 -0.1613  0.8049
  130OSM   C18F14091   4.660  -0.598  -1.707  0.4321 -0.2069  0.4225
  130OSM   H18F14092   4.585  -0.654  -1.646 -0.3028 -1.8149 -1.8006
  130OSM   H18G14093   4.758  -0.648  -1.689 -0.9693 -4.2243 -1.6907
  130OSM   H18H14094   4.634  -0.615  -1.814  0.7219  1.9528 -0.0277
  131OSM      N14095   0.097   1.657   0.419 -0.1178  0.8853 -0.6725
  131OSM    C1514096   0.091   1.550   0.521 -0.4122  0.3254  0.8238
  131OSM   H15A14097   0.190   1.517   0.548 -0.3232  1.0123  1.3357
  131OSM   H15B14098   0.049   1.457   0.483  0.4626  0.5603 -0.8128
  131OSM   H15C14099   0.031   1.579   0.605 -3.8844  0.4760 -1.4917
  131OSM    C1414100   0.133   1.775   0.506 -0.3558  0.4610 -0.0064
  131OSM   H14A14101   0.123   1.867   0.450 -0.5574  0.2580 -0.3088
  131OSM   H14B14102   0.234   1.767   0.543 -0.1074 -0.7349 -0.9003
  131OSM   H14C14103   0.057   1.780   0.583 -0.5503  0.0833 -0.1699
  131OSM    C1314104   0.213   1.642   0.320  0.0613  0.1845  0.2119
  131OSM   H13A14105   0.203   1.561   0.249  2.0889 -0.3405  0.4630
  131OSM   H13B14106   0.314   1.632   0.356 -0.2438 -0.3856  0.9426
  131OSM   H13C14107   0.207   1.719   0.245 -2.3962 -2.4358 -2.5555
  131OSM    C1214108  -0.035   1.684   0.356  0.1966  0.4731 -0.2758
  131OSM   H12A14109  -0.088   1.726   0.440  3.6404  2.7111  0.9596
  131OSM   H12B14110  -0.084   1.593   0.326  0.8904 -0.7487  2.0695
  131OSM    C1114111  -0.050   1.790   0.241  0.1737  0.5827  0.1137
  131OSM   H11A14112  -0.159   1.795   0.219  0.1472  1.1325  0.3606
  131OSM   H11B14113  -0.016   1.752   0.143 -3.5796  3.4113 -2.6083
  131OSM      P14114  -0.085   2.033   0.308 -0.1497 -0.1257 -0.0291
  131OSM    O1314115  -0.196   1.972   0.385  0.3240  0.0914  0.3139
  131OSM    O1414116  -0.013   2.146   0.367  0.3785 -0.4901  0.4737
  131OSM    O1114117  -0.150   2.088   0.173 -0.5572  0.4068 -0.0120
  131OSM    O1214118   0.013   1.916   0.266  0.2622 -0.7848  0.1576
  131OSM    C1S14119  -0.094   2.204   0.103 -0.3757  0.0095 -0.3697
  131OSM    H1S14120   0.007   2.234   0.140 -1.3440  2.5926  0.3661
  131OSM    H1T14121  -0.169   2.285   0.116 -1.6752 -1.4440  1.6788
  131OSM     NF14122  -0.010   2.289  -0.107  1.0964  0.3912  0.1617
  131OSM    HNF14123  -0.078   2.350  -0.148  0.0999 -1.5832 -1.2844
  131OSM    C2S14124  -0.064   2.172  -0.045 -0.3244 -0.3440 -0.1802
  131OSM    H2S14125   0.017   2.096  -0.045  0.7964  0.8133 -0.3009
  131OSM    C3S14126  -0.186   2.099  -0.113 -0.5449  0.3848 -0.2823
  131OSM    H3S14127  -0.253   2.186  -0.128  0.4150  0.8513 -2.0754
  131OSM     O314128  -0.252   1.994  -0.040  0.2881 -0.1109  0.0681
  131OSM    HO314129  -0.237   2.025   0.049 -0.0652  0.9704 -0.2313
  131OSM    C4S14130  -0.151   2.045  -0.252  0.0323  0.1160 -0.2320
  131OSM    H4S14131  -0.054   1.994  -0.261  0.3460  0.9705 -2.3825
  131OSM    C5S14132  -0.237   2.050  -0.359 -0.2542  0.4349  0.2697
  131OSM    H5S14133  -0.335   2.097  -0.343 -0.2459  0.1372  1.2644
  131OSM    C6S14134  -0.198   1.985  -0.486 -0.5678 -0.7836  0.0543
  131OSM    H6S14135  -0.271   1.902  -0.502 -1.0674 -0.9313  2.6428
  131OSM    H6T14136  -0.097   1.940  -0.476  0.0253  0.4499 -0.1877
  131OSM    C7S14137  -0.206   2.094  -0.591  0.3006  0.0254  0.0100
  131OSM    H7S14138  -0.114   2.155  -0.584 -0.4717  1.3471 -0.9138
  131OSM    H7T14139  -0.292   2.164  -0.581  0.9501  1.0502 -1.2472
  131OSM    C8S14140  -0.204   2.025  -0.731 -0.6509 -0.3552  0.2891
  131OSM    H8S14141  -0.294   1.960  -0.740  0.3895 -1.6359 -1.5982
  131OSM    H8T14142  -0.122   1.952  -0.747 -1.1897 -1.0136  0.4559
  131OSM    C9S14143  -0.179   2.121  -0.849 -0.6826 -0.0658 -0.4188
  131OSM    H9S14144  -0.077   2.166  -0.844 -1.0284  0.6816  0.1673
  131OSM    H9T14145  -0.250   2.205  -0.832 -0.0822  0.3564  0.0827
  131OSM   C10S14146  -0.197   2.044  -0.979  0.4514  0.1736 -0.4539
  131OSM   H10S14147  -0.292   1.991  -0.999  0.0962  0.5717  0.1315
  131OSM   H10T14148  -0.130   1.956  -0.977 -0.1649 -0.3609 -2.0305
  131OSM   C11S14149  -0.180   2.154  -1.090  0.7745  0.2024  0.0510
  131OSM   H11S14150  -0.087   2.208  -1.060  1.0468  0.4740 -1.2352
  131OSM   H11T14151  -0.264   2.225  -1.078 -0.4345 -1.4402  2.0717
  131OSM   C12S14152  -0.174   2.104  -1.235 -0.9751  0.2672  0.2672
  131OSM   H12S14153  -0.259   2.035  -1.251 -1.2145  0.6056  0.0681
  131OSM   H12T14154  -0.076   2.053  -1.249 -1.1584 -0.1465  0.4959
  131OSM   C13S14155  -0.179   2.221  -1.332  0.0380  0.3673 -0.3781
  131OSM   H13S14156  -0.106   2.299  -1.302 -0.5080  0.3611  1.0417
  131OSM   H13T14157  -0.280   2.265  -1.325  0.2031  0.6292  0.4898
  131OSM   C14S14158  -0.152   2.175  -1.480  0.7001 -0.6815 -0.4288
  131OSM   H14S14159  -0.231   2.106  -1.517  0.3301 -0.5196  0.0470
  131OSM   H14T14160  -0.059   2.114  -1.485  0.2649 -1.3722 -0.2913
  131OSM   C15S14161  -0.132   2.295  -1.571  0.3071 -0.4064  0.1976
  131OSM   H15S14162  -0.035   2.348  -1.560 -0.0230 -0.0229  1.3391
  131OSM   H15T14163  -0.204   2.373  -1.538  0.4987 -1.0818  2.3370
  131OSM   C16S14164  -0.174   2.274  -1.718  0.2757  0.8539  1.3175
  131OSM   H16S14165  -0.199   2.366  -1.776 -2.9094 -0.5773  0.2018
  131OSM   H16T14166  -0.264   2.210  -1.729  0.4449  0.8664 -0.5626
  131OSM   C17S14167  -0.063   2.199  -1.799  0.5987  0.3455 -0.6708
  131OSM   H17S14168   0.027   2.260  -1.776 -1.1494  2.3363  1.3433
  131OSM   H17T14169  -0.072   2.204  -1.910 -0.4224 -2.3251 -0.7923
  131OSM   C18S14170  -0.046   2.045  -1.782  0.0272  0.4776 -0.2444
  131OSM   H18S14171  -0.131   1.988  -1.825  1.1595  0.0131 -2.0004
  131OSM   H18T14172  -0.022   2.011  -1.679 -1.3878  0.2263  0.0248
  131OSM   H18U14173   0.041   2.009  -1.842  1.6050 -0.8408  2.6313
  131OSM    C1F14174   0.109   2.335  -0.087 -0.8479 -0.0179  1.0207
  131OSM     OF14175   0.186   2.278  -0.013  0.2614 -0.0587 -0.1552
  131OSM    C2F14176   0.142   2.465  -0.159 -0.1079  0.0415 -0.2461
  131OSM    H2F14177   0.199   2.526  -0.086 -1.4493  0.2422  0.6781
  131OSM    H2G14178   0.046   2.515  -0.184  0.3548  0.6669 -0.7966
  131OSM    C3F14179   0.232   2.448  -0.281 -0.1330  0.6570  0.3465
  131OSM    H3F14180   0.168   2.415  -0.365 -0.2701  1.3113  0.1872
  131OSM    H3G14181   0.322   2.384  -0.267  0.9594  1.7940 -1.0925
  131OSM    C4F14182   0.288   2.586  -0.328  0.3663  0.4888 -0.4938
  131OSM    H4F14183   0.335   2.628  -0.236  0.5520 -0.7023 -0.0236
  131OSM    H4G14184   0.200   2.644  -0.361 -1.5129 -1.7642  0.2477
  131OSM    C5F14185   0.391   2.574  -0.433 -0.0146 -0.6226  0.0627
  131OSM    H5F14186   0.445   2.478  -0.417  0.0826 -0.8704 -1.6412
  131OSM    H5G14187   0.467   2.655  -0.423 -2.1180  1.3212  1.1215
  131OSM    C6F14188   0.331   2.562  -0.568 -0.1068  0.6775  0.4459
  131OSM    H6F14189   0.280   2.655  -0.603 -0.6326 -0.1193 -0.9928
  131OSM    H6G14190   0.252   2.485  -0.563 -0.1783  0.7848  1.0521
  131OSM    C7F14191   0.429   2.530  -0.683 -0.4935  0.6501 -0.0293
  131OSM    H7F14192   0.480   2.438  -0.646 -2.3901 -0.6877 -0.6080
  131OSM    H7G14193   0.499   2.615  -0.695 -1.7698  1.6598 -0.5048
  131OSM    C8F14194   0.358   2.497  -0.810  0.1547 -0.9292 -0.1020
  131OSM    H8F14195   0.296   2.587  -0.833 -1.8536 -2.1596  0.3052
  131OSM    H8G14196   0.282   2.420  -0.784 -0.1665 -0.2433  1.0678
  131OSM    C9F14197   0.448   2.448  -0.923 -0.0228  0.2305  0.7070
  131OSM    H9F14198   0.515   2.364  -0.899 -2.9489 -2.7786 -0.8027
  131OSM   C10F14199   0.419   2.462  -1.054 -0.0722  0.1528 -0.7704
  131OSM   H10F14200   0.479   2.416  -1.133  2.5327 -0.9232  1.6553
  131OSM   C11F14201   0.309   2.546  -1.115  0.5764 -0.4249  0.0650
  131OSM   H11F14202   0.310   2.656  -1.099 -1.3344 -0.5310  1.1972
  131OSM   H11G14203   0.214   2.511  -1.070 -1.1054 -0.9753 -3.5462
  131OSM   C12F14204   0.262   2.506  -1.259  0.1780  0.1813  0.4233
  131OSM   H12F14205   0.155   2.533  -1.270 -0.3313 -1.7406  0.2294
  131OSM   H12G14206   0.260   2.396  -1.276 -1.9480  0.5173 -2.0881
  131OSM   C13F14207   0.341   2.563  -1.374  0.0268 -0.0078 -0.9897
  131OSM   H13F14208   0.442   2.517  -1.368  0.4391  0.8437 -1.1420
  131OSM   H13G14209   0.334   2.673  -1.356  1.0643  0.3082 -2.3781
  131OSM   C14F14210   0.273   2.528  -1.501  0.3475 -0.1467  0.5921
  131OSM   H14F14211   0.181   2.587  -1.518 -0.6890 -1.2410  2.2509
  131OSM   H14G14212   0.237   2.423  -1.498  0.9657 -0.4677 -1.2257
  131OSM   C15F14213   0.362   2.548  -1.627 -0.5099 -0.2795 -0.1264
  131OSM   H15F14214   0.387   2.656  -1.629 -0.5136 -0.2585  0.7729
  131OSM   H15G14215   0.289   2.541  -1.711 -0.7226 -0.7533  0.0914
  131OSM   C16F14216   0.474   2.452  -1.650 -0.3222  0.4988  0.0393
  131OSM   H16F14217   0.530   2.450  -1.554 -0.3811 -0.7089  0.0616
  131OSM   H16G14218   0.531   2.497  -1.733 -1.1978  1.7686  0.0943
  131OSM   C17F14219   0.444   2.299  -1.676  0.2684 -0.1158 -0.3314
  131OSM   H17F14220   0.361   2.259  -1.613  0.1210  0.2401 -0.2984
  131OSM   H17G14221   0.536   2.243  -1.648  0.0667 -0.4708 -0.3653
  131OSM   C18F14222   0.409   2.263  -1.816 -0.5518  0.4248 -0.3736
  131OSM   H18F14223   0.411   2.156  -1.844  0.2603  0.7631 -1.7264
  131OSM   H18G14224   0.487   2.315  -1.876  0.7305 -0.2533  0.6786
  131OSM   H18H14225   0.310   2.312  -1.830 -1.2719 -0.8867  0.0340
  132OSM      N14226   3.977   5.885   0.395 -0.5263  0.3006 -0.5434
  132OSM    C1514227   4.029   5.884   0.540  0.2973  0.2958 -0.8165
  132OSM   H15A14228   4.136   5.898   0.538  0.2625  0.5618 -0.8850
  132OSM   H15B14229   4.000   5.788   0.579 -0.3214  0.9129  0.2887
  132OSM   H15C14230   3.985   5.959   0.603  1.2248  0.0003  0.2062
  132OSM    C1414231   3.829   5.870   0.389  0.6349 -0.4450  0.3532
  132OSM   H14A14232   3.773   5.920   0.467  0.0673 -0.3859 -0.0809
  132OSM   H14B14233   3.807   5.765   0.384 -1.9546  0.0733 -1.4498
  132OSM   H14C14234   3.790   5.905   0.294 -0.0346 -3.4564 -0.5889
  132OSM    C1314235   4.010   6.019   0.338 -0.6930  0.2370  0.1052
  132OSM   H13A14236   3.987   6.020   0.232 -1.0876  0.1838  0.1881
  132OSM   H13B14237   4.113   6.047   0.353 -1.2725  1.5056  2.0811
  132OSM   H13C14238   3.954   6.103   0.375 -0.7401  0.1054  0.3367
  132OSM    C1214239   4.045   5.769   0.313 -0.5581  0.4867 -0.5459
  132OSM   H12A14240   4.151   5.790   0.316 -0.2492 -0.8238 -1.3521
  132OSM   H12B14241   4.008   5.771   0.211 -3.3682  3.8756  0.3532
  132OSM    C1114242   4.018   5.625   0.370 -0.1587  0.7456  1.2364
  132OSM   H11A14243   4.049   5.550   0.294  2.6323  2.8422  0.1306
  132OSM   H11B14244   3.908   5.614   0.375 -0.4573  0.8654 -2.4241
  132OSM      P14245   4.257   5.593   0.496 -0.5140  0.3573  0.2932
  132OSM    O1314246   4.319   5.715   0.538 -0.0152 -0.3888  1.1353
  132OSM    O1414247   4.274   5.475   0.586 -0.5265 -0.1830  0.8823
  132OSM    O1114248   4.294   5.560   0.341  0.2388  0.5635 -0.0019
  132OSM    O1214249   4.093   5.606   0.496 -0.1787  0.4271  0.3886
  132OSM    C1S14250   4.409   5.487   0.301  0.1314  0.1816 -0.2498
  132OSM    H1S14251   4.376   5.382   0.287 -1.5439  0.8296 -1.4715
  132OSM    H1T14252   4.495   5.513   0.367 -1.3721  2.4767  0.9408
  132OSM     NF14253   4.560   5.446   0.094 -0.4759  0.2495 -0.0636
  132OSM    HNF14254   4.648   5.482   0.065 -0.7153  0.8178 -0.0999
  132OSM    C2S14255   4.464   5.532   0.157 -0.4287 -0.0239  0.1934
  132OSM    H2S14256   4.372   5.528   0.095 -0.2320  1.8185 -0.2514
  132OSM    C3S14257   4.504   5.683   0.161  0.2185 -0.8207  0.0176
  132OSM    H3S14258   4.579   5.698   0.241 -0.9959  1.8071  0.7756
  132OSM     O314259   4.400   5.772   0.203  0.1449  0.5089  0.2329
  132OSM    HO314260   4.328   5.724   0.246 -1.7845  3.1798  0.2541
  132OSM    C4S14261   4.557   5.738   0.031 -1.0156  0.2015  0.3258
  132OSM    H4S14262   4.659   5.698   0.031 -1.6081 -1.4169  1.0210
  132OSM    C5S14263   4.492   5.788  -0.078  0.2903 -0.2920 -0.1472
  132OSM    H5S14264   4.384   5.803  -0.062 -0.3022 -2.4891 -1.6280
  132OSM    C6S14265   4.554   5.837  -0.208  0.5278  0.4880  0.1299
  132OSM    H6S14266   4.621   5.920  -0.180 -0.5824  0.4942  3.2467
  132OSM    H6T14267   4.468   5.878  -0.266  0.7251 -1.3749 -1.5908
  132OSM    C7S14268   4.621   5.733  -0.293 -0.0296 -0.4372  0.2329
  132OSM    H7S14269   4.552   5.647  -0.309 -1.3714  0.9228 -1.7859
  132OSM    H7T14270   4.716   5.692  -0.252  0.9731  1.4306 -0.1348
  132OSM    C8S14271   4.665   5.799  -0.427  1.4412 -0.4835 -0.4163
  132OSM    H8S14272   4.714   5.896  -0.404 -0.4804 -0.2694  3.5345
  132OSM    H8T14273   4.586   5.827  -0.500  0.6702 -2.3625 -0.3546
  132OSM    C9S14274   4.754   5.704  -0.503 -0.1252 -0.2263  0.4072
  132OSM    H9S14275   4.697   5.614  -0.535  2.0343 -0.7364 -2.4140
  132OSM    H9T14276   4.819   5.657  -0.425 -1.0183 -0.1457  1.2238
  132OSM   C10S14277   4.834   5.762  -0.616 -0.5274  0.5482  0.3405
  132OSM   H10S14278   4.888   5.855  -0.588 -0.6447  0.0018  2.6059
  132OSM   H10T14279   4.760   5.788  -0.694  1.7012  0.0343 -2.0824
  132OSM   C11S14280   4.925   5.646  -0.675 -0.0727 -0.1891 -0.2613
  132OSM   H11S14281   4.864   5.554  -0.669 -1.1668  0.5536  0.4271
  132OSM   H11T14282   5.009   5.624  -0.606  1.9636 -0.6539 -2.7536
  132OSM   C12S14283   4.969   5.673  -0.829 -0.3553  0.2957 -0.0666
  132OSM   H12S14284   5.071   5.632  -0.843 -0.7695 -1.1395  0.8231
  132OSM   H12T14285   4.963   5.781  -0.855 -0.6458  0.5505  0.9908
  132OSM   C13S14286   4.890   5.580  -0.922 -0.0160  0.5840 -0.2050
  132OSM   H13S14287   4.781   5.599  -0.909 -0.5224 -2.6060  1.2064
  132OSM   H13T14288   4.901   5.478  -0.880  1.8063  1.2617  1.0434
  132OSM   C14S14289   4.936   5.596  -1.064 -0.2708 -0.3198 -0.0064
  132OSM   H14S14290   5.036   5.549  -1.060 -1.5854 -3.3751 -0.1918
  132OSM   H14T14291   4.931   5.704  -1.089 -1.2444 -0.2368  0.5028
  132OSM   C15S14292   4.844   5.528  -1.163  0.5358 -0.3344  0.4029
  132OSM   H15S14293   4.747   5.582  -1.171  0.2822 -0.8531 -0.1129
  132OSM   H15T14294   4.830   5.421  -1.134 -0.1839 -0.8088 -1.5344
  132OSM   C16S14295   4.911   5.513  -1.303  0.2891  0.5779  0.1455
  132OSM   H16S14296   4.835   5.470  -1.372  0.1828  0.0040  0.6166
  132OSM   H16T14297   5.009   5.461  -1.306  1.4835  2.7187 -0.1381
  132OSM   C17S14298   4.934   5.646  -1.372 -0.6027 -0.1785  0.3087
  132OSM   H17S14299   4.887   5.726  -1.310  2.3908  1.1303  1.0606
  132OSM   H17T14300   4.882   5.643  -1.470  0.4403 -1.0442 -0.2430
  132OSM   C18S14301   5.085   5.681  -1.377 -0.2850 -0.2065 -0.3434
  132OSM   H18S14302   5.113   5.678  -1.269 -0.8323 -1.3655 -0.2252
  132OSM   H18T14303   5.111   5.784  -1.411  0.4207 -0.4485 -0.5712
  132OSM   H18U14304   5.144   5.599  -1.422  0.6530  0.8308 -1.0707
  132OSM    C1F14305   4.540   5.310   0.086  0.0886  0.2916  0.1085
  132OSM     OF14306   4.427   5.268   0.092 -0.1972 -0.0930 -0.3039
  132OSM    C2F14307   4.662   5.218   0.080 -0.1853 -0.3738 -0.5723
  132OSM    H2F14308   4.609   5.120   0.075  0.2349 -0.5706 -1.3164
  132OSM    H2G14309   4.719   5.233   0.174 -1.9202 -1.3783  0.6942
  132OSM    C3F14310   4.750   5.256  -0.030 -0.9961 -0.3254  0.1453
  132OSM    H3F14311   4.828   5.177  -0.029  0.4501  0.9219  3.5264
  132OSM    H3G14312   4.797   5.355  -0.008 -3.6922  0.8295  1.1390
  132OSM    C4F14313   4.681   5.255  -0.169 -0.3153 -0.3653  0.1328
  132OSM    H4F14314   4.606   5.337  -0.176 -1.0979 -0.5951  3.7878
  132OSM    H4G14315   4.618   5.165  -0.184 -1.5821  0.0449  2.4456
  132OSM    C5F14316   4.780   5.264  -0.289 -0.4497 -0.1399 -0.5649
  132OSM    H5F14317   4.856   5.184  -0.279  0.6660  1.1090  1.8689
  132OSM    H5G14318   4.831   5.363  -0.296 -0.0804 -0.4507 -3.0009
  132OSM    C6F14319   4.715   5.242  -0.424 -0.3245  0.1583 -0.2931
  132OSM    H6F14320   4.631   5.314  -0.428 -0.2761  0.1956 -0.7158
  132OSM    H6G14321   4.690   5.135  -0.433  2.5560 -0.6996  0.6564
  132OSM    C7F14322   4.815   5.266  -0.543  0.4010  0.1741  0.2049
  132OSM    H7F14323   4.885   5.180  -0.547  1.7830  1.3170 -1.8309
  132OSM    H7G14324   4.872   5.357  -0.516  1.4946 -0.7156  1.0442
  132OSM    C8F14325   4.741   5.267  -0.679  0.1774  0.4566 -0.5406
  132OSM    H8F14326   4.824   5.284  -0.751  0.7723  0.1582  0.0595
  132OSM    H8G14327   4.685   5.363  -0.684  1.3661  1.1123 -4.8925
  132OSM    C9F14328   4.652   5.142  -0.707  0.0631 -0.0369 -0.1481
  132OSM    H9F14329   4.561   5.151  -0.645  0.8468  2.8680  0.7925
  132OSM   C10F14330   4.680   5.035  -0.791  0.5550 -0.1143 -0.2860
  132OSM   H10F14331   4.607   4.953  -0.790  1.1016 -0.6066  0.4350
  132OSM   C11F14332   4.801   5.007  -0.881 -0.0028 -0.1205  0.0325
  132OSM   H11F14333   4.809   4.897  -0.886  2.6273  0.0699 -2.2538
  132OSM   H11G14334   4.897   5.048  -0.843  1.1447 -2.3271 -0.3344
  132OSM   C12F14335   4.770   5.045  -1.024 -0.4881 -0.4199  0.1940
  132OSM   H12F14336   4.738   5.151  -1.033 -1.2684 -0.7179 -0.7800
  132OSM   H12G14337   4.692   4.976  -1.065  0.7601 -1.8266  0.0985
  132OSM   C13F14338   4.889   5.040  -1.122 -0.0277 -0.2349  1.0244
  132OSM   H13F14339   4.921   4.934  -1.135 -0.2369 -0.1957  0.1571
  132OSM   H13G14340   4.976   5.096  -1.082  0.9078 -0.4165 -0.6995
  132OSM   C14F14341   4.857   5.098  -1.255  0.0196 -0.2519 -0.3253
  132OSM   H14F14342   4.825   5.202  -1.236 -0.7244 -0.7438  1.2613
  132OSM   H14G14343   4.779   5.039  -1.309 -0.4933  1.6994 -1.8220
  132OSM   C15F14344   4.980   5.112  -1.352  0.5379 -0.0732 -0.7110
  132OSM   H15F14345   5.041   5.020  -1.360  2.2154  1.0436 -1.1322
  132OSM   H15G14346   5.038   5.191  -1.300 -3.2808  0.8582  2.6240
  132OSM   C16F14347   4.946   5.153  -1.493  0.3649  0.5707  0.2787
  132OSM   H16F14348   5.031   5.197  -1.549 -0.5982 -0.5410 -2.1832
  132OSM   H16G14349   4.859   5.223  -1.491  0.7579  1.1277 -1.1498
  132OSM   C17F14350   4.888   5.041  -1.583  0.1091 -0.1452 -0.7079
  132OSM   H17F14351   4.815   4.980  -1.526  0.8003  0.9112  1.4054
  132OSM   H17G14352   4.960   4.971  -1.630  0.2233 -0.7932  0.4051
  132OSM   C18F14353   4.805   5.097  -1.701 -0.7011 -0.1551 -0.1052
  132OSM   H18F14354   4.874   5.151  -1.770 -0.7798 -0.2551 -0.2632
  132OSM   H18G14355   4.731   5.176  -1.676 -2.6955 -0.4307 -4.2945
  132OSM   H18H14356   4.758   5.011  -1.752  0.9009 -1.1692  0.0488
  133OSM      N14357   1.893   5.858   0.186  0.1179  0.3296  0.4272
  133OSM    C1514358   1.874   5.954   0.297 -0.2384 -0.1899 -0.4381
  133OSM   H15A14359   1.824   5.915   0.385 -0.7026 -0.3001 -0.7470
  133OSM   H15B14360   1.814   6.040   0.271 -1.5389 -1.1237 -0.6349
  133OSM   H15C14361   1.969   5.987   0.335  0.5690 -4.0726  1.4045
  133OSM    C1414362   1.980   5.742   0.228  0.0594 -0.2033  0.3523
  133OSM   H14A14363   1.931   5.681   0.303  1.8789 -3.5771 -0.9713
  133OSM   H14B14364   2.061   5.797   0.274 -0.9736  1.3897  0.3245
  133OSM   H14C14365   2.016   5.694   0.138 -0.2916  0.9830 -0.4348
  133OSM    C1314366   1.746   5.812   0.148  0.1182 -0.4972 -0.2359
  133OSM   H13A14367   1.742   5.753   0.057  0.0348  0.9581 -1.2127
  133OSM   H13B14368   1.680   5.896   0.133  0.7953  0.1396  0.2793
  133OSM   H13C14369   1.703   5.764   0.235 -0.0634 -0.9258 -0.5579
  133OSM    C1214370   1.941   5.942   0.073 -0.0145 -0.3132 -0.5188
  133OSM   H12A14371   1.861   6.007   0.038  0.8539  1.9592  1.4669
  133OSM   H12B14372   1.963   5.881  -0.014  0.8826  1.4898 -1.6189
  133OSM    C1114373   2.070   6.025   0.086 -1.2468  0.4018  0.3189
  133OSM   H11A14374   2.046   6.113   0.150  0.4381 -0.4725  2.2486
  133OSM   H11B14375   2.108   6.053  -0.015 -1.6770 -3.4405 -1.0765
  133OSM      P14376   2.313   6.000   0.178 -0.1914 -0.1656  0.0621
  133OSM    O1314377   2.304   6.143   0.225 -0.2253  0.6509 -0.6926
  133OSM    O1414378   2.402   5.911   0.260  0.1188 -0.1880  0.4470
  133OSM    O1114379   2.366   6.011   0.028 -0.4426  0.0335 -0.2079
  133OSM    O1214380   2.169   5.940   0.149  0.4367 -0.2929 -0.4312
  133OSM    C1S14381   2.340   5.920  -0.070  0.7602  0.0587  0.7497
  133OSM    H1S14382   2.229   5.916  -0.074  0.2797  5.3924  1.0792
  133OSM    H1T14383   2.386   5.823  -0.040 -0.0932 -0.9945 -1.1791
  133OSM     NF14384   2.329   5.865  -0.314 -0.4183  0.0078 -0.4646
  133OSM    HNF14385   2.393   5.799  -0.353  1.1978  1.0902  0.2441
  133OSM    C2S14386   2.391   5.952  -0.215 -0.4618  0.1505  0.3718
  133OSM    H2S14387   2.367   6.056  -0.244  0.7710 -0.0557 -1.5696
  133OSM    C3S14388   2.546   5.952  -0.227 -0.5318 -0.1533  0.1634
  133OSM    H3S14389   2.584   5.848  -0.223  0.2626  0.1543  1.8784
  133OSM     O314390   2.616   6.006  -0.111 -0.1332 -0.1324 -0.3543
  133OSM    HO314391   2.545   6.005  -0.047  1.2379 -2.1414  1.2539
  133OSM    C4S14392   2.591   6.015  -0.350  0.0528 -0.0645 -0.1813
  133OSM    H4S14393   2.546   5.959  -0.433 -1.8456  2.3280 -0.9077
  133OSM    C5S14394   2.641   6.140  -0.373  0.1828 -0.6229 -0.3206
  133OSM    H5S14395   2.642   6.216  -0.294 -1.6199  0.0769 -0.9290
  133OSM    C6S14396   2.670   6.194  -0.506  0.4849 -0.6235  0.2522
  133OSM    H6S14397   2.772   6.240  -0.507 -0.2765  1.1668  0.9528
  133OSM    H6T14398   2.610   6.287  -0.517  0.9716 -0.1976  1.0232
  133OSM    C7S14399   2.654   6.102  -0.634 -0.0707  0.0513  0.4672
  133OSM    H7S14400   2.559   6.045  -0.632  1.0966 -2.0467 -1.0512
  133OSM    H7T14401   2.723   6.016  -0.626 -0.3178 -0.1293  0.6935
  133OSM    C8S14402   2.673   6.185  -0.762 -0.1170  0.4327  0.5491
  133OSM    H8S14403   2.743   6.271  -0.750  0.2500  0.8697 -3.2806
  133OSM    H8T14404   2.579   6.236  -0.791  0.6998  2.2086  0.8322
  133OSM    C9S14405   2.714   6.110  -0.895 -0.4378 -0.0899 -0.4293
  133OSM    H9S14406   2.639   6.028  -0.905  0.1127 -0.3908 -2.4704
  133OSM    H9T14407   2.813   6.063  -0.878 -0.9193 -0.4011  1.8179
  133OSM   C10S14408   2.722   6.190  -1.021  0.6172 -0.3784  0.3102
  133OSM   H10S14409   2.806   6.262  -1.013  0.3018  0.0215  0.0321
  133OSM   H10T14410   2.634   6.258  -1.020  0.4974 -0.5385  1.6857
  133OSM   C11S14411   2.755   6.111  -1.144  0.1745 -0.1589  0.5533
  133OSM   H11S14412   2.655   6.067  -1.167  0.1644  0.4575 -0.6240
  133OSM   H11T14413   2.831   6.033  -1.123  0.3498  0.1300  1.0192
  133OSM   C12S14414   2.783   6.198  -1.270 -0.0752  0.1869  0.2822
  133OSM   H12S14415   2.860   6.271  -1.236 -0.1628  0.9488 -1.1012
  133OSM   H12T14416   2.688   6.249  -1.296 -0.3989 -0.6835 -0.3098
  133OSM   C13S14417   2.836   6.122  -1.392  0.7666 -1.0283 -0.1654
  133OSM   H13S14418   2.905   6.042  -1.357  0.4034 -2.7724 -3.0797
  133OSM   H13T14419   2.890   6.196  -1.456 -2.0377  0.7446 -0.6586
  133OSM   C14S14420   2.730   6.052  -1.479  0.0001 -0.0058 -0.2229
  133OSM   H14S14421   2.676   6.135  -1.530  0.0492  1.0356  1.3588
  133OSM   H14T14422   2.648   5.995  -1.429 -0.6410  0.4577 -0.7206
  133OSM   C15S14423   2.803   5.969  -1.597  0.1636 -0.3899 -0.4798
  133OSM   H15S14424   2.870   5.885  -1.569 -0.6798 -1.1590 -0.7221
  133OSM   H15T14425   2.868   6.042  -1.651 -1.0346 -0.8775 -2.6821
  133OSM   C16S14426   2.699   5.936  -1.707 -0.6676 -0.7507 -0.3802
  133OSM   H16S14427   2.636   6.025  -1.725 -0.1989 -0.0932  1.0543
  133OSM   H16T14428   2.635   5.848  -1.685 -0.3662 -1.3078 -1.6774
  133OSM   C17S14429   2.777   5.906  -1.844 -0.6013  0.2963  0.8155
  133OSM   H17S14430   2.825   5.806  -1.851 -0.7971  0.1726  1.2096
  133OSM   H17T14431   2.853   5.986  -1.853 -0.6064  0.2177  0.0745
  133OSM   C18S14432   2.690   5.904  -1.965 -0.3453 -0.1238 -0.1132
  133OSM   H18S14433   2.635   6.000  -1.972 -0.9524 -0.2050  2.4264
  133OSM   H18T14434   2.599   5.841  -1.957 -1.2467  1.0346 -0.9002
  133OSM   H18U14435   2.736   5.860  -2.056 -2.0319 -1.1368 -0.5326
  133OSM    C1F14436   2.198   5.862  -0.336 -0.6359 -0.1998 -0.3801
  133OSM     OF14437   2.129   5.955  -0.292 -0.4704  0.6894 -0.5815
  133OSM    C2F14438   2.134   5.748  -0.407 -0.5153  0.0676  0.6827
  133OSM    H2F14439   2.082   5.692  -0.327 -0.4967 -0.1974  0.5108
  133OSM    H2G14440   2.219   5.694  -0.454  0.2217  2.2873 -0.7027
  133OSM    C3F14441   2.043   5.790  -0.523  0.3782 -0.0880 -0.9948
  133OSM    H3F14442   2.099   5.802  -0.618 -0.1544  1.3767 -1.1465
  133OSM    H3G14443   1.984   5.880  -0.495  2.0624  0.6884  0.2720
  133OSM    C4F14444   1.933   5.688  -0.551 -0.7434 -0.0010 -0.1973
  133OSM    H4F14445   1.839   5.745  -0.565  0.5068  2.5036  0.7777
  133OSM    H4G14446   1.926   5.636  -0.453 -0.8319  3.2948  1.7331
  133OSM    C5F14447   1.971   5.579  -0.652  0.0853  0.2275  0.2255
  133OSM    H5F14448   2.064   5.532  -0.613  0.8060  0.1517 -1.4625
  133OSM    H5G14449   2.004   5.625  -0.748  1.2276  1.0873  1.0016
  133OSM    C6F14450   1.855   5.481  -0.675  0.5064  0.5135 -0.2746
  133OSM    H6F14451   1.781   5.537  -0.737 -0.9954  0.4494  1.3827
  133OSM    H6G14452   1.807   5.468  -0.576  0.8070  1.0429 -0.0586
  133OSM    C7F14453   1.899   5.341  -0.728  0.3042  0.0323 -0.1853
  133OSM    H7F14454   1.984   5.310  -0.664 -0.0397  0.8262  0.6795
  133OSM    H7G14455   1.944   5.358  -0.828 -1.7262  2.5517 -0.7740
  133OSM    C8F14456   1.797   5.235  -0.725 -0.0054  0.0650 -0.7132
  133OSM    H8F14457   1.751   5.249  -0.625  1.4997  0.3807 -0.0255
  133OSM    H8G14458   1.853   5.139  -0.718 -1.0699 -0.5079  0.3471
  133OSM    C9F14459   1.713   5.237  -0.851 -0.2523 -0.1607 -0.6616
  133OSM    H9F14460   1.614   5.283  -0.838 -0.6397 -1.5547  2.1073
  133OSM   C10F14461   1.752   5.193  -0.975 -0.4618  0.4114  0.0342
  133OSM   H10F14462   1.678   5.207  -1.055 -0.0771  0.3680 -0.3287
  133OSM   C11F14463   1.884   5.126  -1.020 -0.5992  0.1572 -0.0723
  133OSM   H11F14464   1.860   5.020  -1.045  0.7800 -0.4651  1.1407
  133OSM   H11G14465   1.954   5.119  -0.934  0.6448 -0.6518 -1.1160
  133OSM   C12F14466   1.951   5.186  -1.141  0.2810 -0.0971  0.0342
  133OSM   H12F14467   1.970   5.293  -1.120  0.1046 -0.0739  0.0763
  133OSM   H12G14468   1.880   5.194  -1.227 -0.5282 -1.8849  0.4817
  133OSM   C13F14469   2.083   5.122  -1.180  0.6600  0.0770 -0.0675
  133OSM   H13F14470   2.067   5.013  -1.185 -1.3351  0.2709  1.0173
  133OSM   H13G14471   2.168   5.141  -1.111  0.8661 -0.2299 -0.2345
  133OSM   C14F14472   2.116   5.174  -1.326  0.5276 -0.3032 -0.6152
  133OSM   H14F14473   2.140   5.282  -1.334 -0.7276 -0.0729 -1.7150
  133OSM   H14G14474   2.024   5.163  -1.388  0.4550  0.3595 -0.6329
  133OSM   C15F14475   2.221   5.089  -1.396  0.5256 -0.4616  0.3931
  133OSM   H15F14476   2.248   4.999  -1.336 -0.5683 -0.0068  1.6076
  133OSM   H15G14477   2.320   5.140  -1.389  0.2340  0.1423  0.1783
  133OSM   C16F14478   2.187   5.066  -1.544 -0.7068  0.3232  0.7068
  133OSM   H16F14479   2.172   5.166  -1.591 -1.1292 -0.1784 -0.2444
  133OSM   H16G14480   2.105   4.994  -1.558  1.5615 -2.3722  0.4604
  133OSM   C17F14481   2.302   4.994  -1.613  0.3935  0.0261 -0.1420
  133OSM   H17F14482   2.332   4.897  -1.568 -1.0919 -0.3211  0.1356
  133OSM   H17G14483   2.393   5.057  -1.604  0.6176  0.7358 -4.7987
  133OSM   C18F14484   2.285   4.975  -1.771 -0.5757  0.4840  0.5053
  133OSM   H18F14485   2.252   5.060  -1.834 -0.9387 -0.2180 -0.2600
  133OSM   H18G14486   2.219   4.886  -1.780 -0.0264  0.0060  1.0833
  133OSM   H18H14487   2.385   4.941  -1.806 -0.1826  1.6452  0.4663
  134OSM      N14488   3.191   5.922   0.864  0.4402  0.1159  0.2535
  134OSM    C1514489   3.247   6.060   0.838 -0.0587 -0.5010 -0.2486
  134OSM   H15A14490   3.338   6.081   0.892 -1.4208  0.6722  1.7458
  134OSM   H15B14491   3.173   6.135   0.861 -2.3655 -2.7450  0.0720
  134OSM   H15C14492   3.262   6.062   0.731 -0.4772 -1.3525 -0.3326
  134OSM    C1414493   3.290   5.815   0.830  0.5498  0.6245 -0.2328
  134OSM   H14A14494   3.375   5.828   0.895  0.8482 -0.7518 -0.3269
  134OSM   H14B14495   3.327   5.841   0.731 -1.6665  2.3831 -0.6981
  134OSM   H14C14496   3.246   5.717   0.841  0.8946  0.4788 -0.1504
  134OSM    C1314497   3.167   5.917   1.010  0.1784  0.7326  0.3499
  134OSM   H13A14498   3.093   5.985   1.049 -1.3662 -0.2779 -0.7004
  134OSM   H13B14499   3.257   5.930   1.069 -1.6588  1.7905  3.0794
  134OSM   H13C14500   3.127   5.818   1.025  1.0580 -0.3151 -3.1201
  134OSM    C1214501   3.058   5.891   0.788 -0.3339 -0.4199  0.7995
  134OSM   H12A14502   2.984   5.967   0.805  0.0667 -0.2664  2.0164
  134OSM   H12B14503   3.021   5.801   0.836  0.4470 -0.6343  1.0192
  134OSM    C1114504   3.075   5.872   0.637 -0.7152  0.4441 -0.2097
  134OSM   H11A14505   2.978   5.830   0.604 -1.5444  1.1172  1.2755
  134OSM   H11B14506   3.155   5.797   0.622  0.5741  1.9454 -1.1602
  134OSM      P14507   2.992   6.084   0.503 -0.4133 -0.0469 -0.5749
  134OSM    O1314508   2.898   6.101   0.615 -0.2144 -0.0698 -0.1482
  134OSM    O1414509   3.052   6.209   0.452  0.6284  0.2928  0.0880
  134OSM    O1114510   2.942   5.994   0.385  0.2373 -0.0237  0.1770
  134OSM    O1214511   3.110   5.989   0.566 -0.0531  0.3297  0.2330
  134OSM    C1S14512   2.894   6.063   0.268  0.0091  0.0138  0.0596
  134OSM    H1S14513   2.957   6.148   0.231 -2.0006  0.5624 -2.3708
  134OSM    H1T14514   2.795   6.112   0.283  0.1858  1.3609 -2.5317
  134OSM     NF14515   2.873   6.017   0.019 -0.5115 -0.1643  0.0461
  134OSM    HNF14516   2.780   6.011  -0.017 -0.0781 -1.7994 -0.9387
  134OSM    C2S14517   2.885   5.959   0.152  0.3561 -0.3240  0.2795
  134OSM    H2S14518   2.982   5.906   0.155  0.6007  0.1636  2.0064
  134OSM    C3S14519   2.776   5.851   0.178  0.1464  0.3585  0.2586
  134OSM    H3S14520   2.673   5.891   0.164  0.2256  0.5723  0.2956
  134OSM     O314521   2.790   5.799   0.309 -0.9109 -0.7313  0.4058
  134OSM    HO314522   2.847   5.860   0.357 -0.4208 -1.6782  1.0849
  134OSM    C4S14523   2.786   5.729   0.096 -0.2598 -0.0532 -0.3933
  134OSM    H4S14524   2.887   5.691   0.079  0.0606  0.5786  0.0498
  134OSM    C5S14525   2.682   5.685   0.026  0.6891  0.3070  0.1491
  134OSM    H5S14526   2.596   5.754   0.022 -0.0926 -0.6511  0.0894
  134OSM    C6S14527   2.686   5.572  -0.080  0.5683  0.1059  0.4823
  134OSM    H6S14528   2.631   5.618  -0.165  0.0571 -0.7052  0.3689
  134OSM    H6T14529   2.644   5.477  -0.042 -1.5094  0.8121  0.0601
  134OSM    C7S14530   2.832   5.550  -0.127  0.0392  0.6544 -0.2913
  134OSM    H7S14531   2.897   5.536  -0.038 -1.7509  0.7202  1.0800
  134OSM    H7T14532   2.850   5.649  -0.174 -1.2327  0.3420 -1.5235
  134OSM    C8S14533   2.865   5.433  -0.221 -0.0309  0.0202  0.1960
  134OSM    H8S14534   2.819   5.346  -0.169 -0.6536  0.9096  1.1681
  134OSM    H8T14535   2.974   5.420  -0.240  0.0703 -2.6279  1.9995
  134OSM    C9S14536   2.808   5.452  -0.361 -0.4240  0.5877 -0.1556
  134OSM    H9S14537   2.828   5.558  -0.388  0.1619  0.1406 -1.5838
  134OSM    H9T14538   2.699   5.436  -0.347  0.0166 -3.7770 -0.3127
  134OSM   C10S14539   2.871   5.357  -0.459  0.3247 -0.3204 -0.1201
  134OSM   H10S14540   2.872   5.249  -0.433 -1.2090 -0.1706  0.6966
  134OSM   H10T14541   2.976   5.389  -0.475  0.3954 -0.0460  0.8308
  134OSM   C11S14542   2.821   5.380  -0.600 -0.2520 -0.4203 -0.5663
  134OSM   H11S14543   2.833   5.490  -0.611 -1.5694 -0.3110 -1.0933
  134OSM   H11T14544   2.713   5.354  -0.606 -0.3166 -0.0652 -1.0725
  134OSM   C12S14545   2.897   5.302  -0.712  0.1806 -0.0454 -0.2779
  134OSM   H12S14546   2.886   5.192  -0.707 -0.2419 -0.0522 -1.1328
  134OSM   H12T14547   3.004   5.327  -0.696 -0.2992  2.8451 -0.9005
  134OSM   C13S14548   2.846   5.352  -0.845 -0.2769 -0.6450 -0.1369
  134OSM   H13S14549   2.845   5.463  -0.851  1.1517 -0.4631  1.8354
  134OSM   H13T14550   2.746   5.320  -0.880 -0.9013  1.5573 -0.5253
  134OSM   C14S14551   2.934   5.299  -0.965  0.3041 -0.2665 -0.2306
  134OSM   H14S14552   2.927   5.188  -0.966  0.5982 -0.2884 -1.6653
  134OSM   H14T14553   3.039   5.318  -0.936  0.3008 -0.2928 -0.2016
  134OSM   C15S14554   2.889   5.353  -1.103  0.1030 -0.4572  0.0704
  134OSM   H15S14555   2.906   5.462  -1.089  1.0710 -0.7043  0.9480
  134OSM   H15T14556   2.786   5.315  -1.120  0.6419 -1.3473 -1.5050
  134OSM   C16S14557   2.979   5.302  -1.214  0.2918 -0.9959  0.1737
  134OSM   H16S14558   2.995   5.194  -1.193  1.5427 -1.2461 -1.8005
  134OSM   H16T14559   3.072   5.362  -1.215 -1.6847  2.3314 -0.0471
  134OSM   C17S14560   2.919   5.313  -1.354  0.5457  0.4282 -0.1410
  134OSM   H17S14561   2.903   5.419  -1.384  0.8076  1.0992  1.9370
  134OSM   H17T14562   2.820   5.262  -1.359  1.5717 -1.5687 -3.7722
  134OSM   C18S14563   3.003   5.249  -1.464 -0.0230 -0.2314  0.0587
  134OSM   H18S14564   3.103   5.294  -1.483  0.4681 -1.5876 -0.7001
  134OSM   H18T14565   2.943   5.240  -1.557  0.7143 -1.0729 -0.3549
  134OSM   H18U14566   3.021   5.143  -1.437 -0.9978 -0.8879 -1.7181
  134OSM    C1F14567   2.972   6.095  -0.026  0.7181 -0.4900 -0.2673
  134OSM     OF14568   3.080   6.108   0.027  0.1448 -0.1763  0.1416
  134OSM    C2F14569   2.934   6.155  -0.162  0.0042  0.0934 -0.3496
  134OSM    H2F14570   2.833   6.200  -0.162 -0.4560 -0.8649 -2.0407
  134OSM    H2G14571   2.923   6.070  -0.232 -1.4090  0.4365 -0.5724
  134OSM    C3F14572   3.055   6.237  -0.221  1.4584 -0.1266  0.3464
  134OSM    H3F14573   3.150   6.181  -0.206  2.4923  0.7543 -2.3549
  134OSM    H3G14574   3.070   6.339  -0.178 -1.9089  1.5861 -2.0464
  134OSM    C4F14575   3.034   6.258  -0.371  0.1863  0.1917 -0.3328
  134OSM    H4F14576   2.926   6.283  -0.363 -0.0919 -1.3580  1.4494
  134OSM    H4G14577   3.039   6.162  -0.427 -0.7952 -0.8196  1.2434
  134OSM    C5F14578   3.114   6.377  -0.425  0.1030 -0.7039  0.1046
  134OSM    H5F14579   3.224   6.360  -0.425  0.4745  1.4683  0.6567
  134OSM    H5G14580   3.093   6.466  -0.362  3.4572 -0.7379  1.4603
  134OSM    C6F14581   3.061   6.404  -0.568  0.2744  0.4032 -0.3320
  134OSM    H6F14582   3.082   6.507  -0.603 -0.5534  0.6571 -0.1015
  134OSM    H6G14583   2.950   6.400  -0.565  0.2710  0.7361 -0.0164
  134OSM    C7F14584   3.123   6.294  -0.657  0.1700 -0.1201  0.0806
  134OSM    H7F14585   3.046   6.219  -0.688  0.4970  0.3931 -2.1960
  134OSM    H7G14586   3.209   6.252  -0.601 -1.1480 -1.0849  1.4594
  134OSM    C8F14587   3.175   6.348  -0.793 -0.3049 -0.2786 -0.1343
  134OSM    H8F14588   3.231   6.443  -0.776 -0.0237 -0.3334 -0.7285
  134OSM    H8G14589   3.080   6.373  -0.845 -1.0901  0.3659  1.5439
  134OSM    C9F14590   3.262   6.242  -0.856  0.5458  0.0493  0.7322
  134OSM    H9F14591   3.334   6.190  -0.791  1.9956  2.3783  1.1097
  134OSM   C10F14592   3.251   6.201  -0.984  0.3664  0.5197  0.8931
  134OSM   H10F14593   3.306   6.110  -1.010 -1.4574 -0.6045  0.7619
  134OSM   C11F14594   3.157   6.243  -1.094 -0.6571  0.3099 -0.3190
  134OSM   H11F14595   3.103   6.333  -1.059 -0.7162 -0.5382  1.9988
  134OSM   H11G14596   3.089   6.156  -1.113 -1.4961  0.0969  3.0354
  134OSM   C12F14597   3.233   6.278  -1.224 -0.3520 -0.4357  0.2294
  134OSM   H12F14598   3.328   6.331  -1.200 -0.4896 -0.0468 -0.0737
  134OSM   H12G14599   3.172   6.346  -1.288  1.2458 -0.4688 -1.4183
  134OSM   C13F14600   3.261   6.148  -1.304 -0.5927  0.3683  0.4910
  134OSM   H13F14601   3.170   6.101  -1.346  0.3213 -0.1074 -1.0328
  134OSM   H13G14602   3.308   6.073  -1.236 -0.1720 -0.6439 -0.8803
  134OSM   C14F14603   3.371   6.174  -1.411  0.2556 -0.4177 -0.5469
  134OSM   H14F14604   3.403   6.075  -1.448 -0.0690 -0.3560 -1.0012
  134OSM   H14G14605   3.457   6.220  -1.359 -0.3836  1.3850 -0.9978
  134OSM   C15F14606   3.323   6.257  -1.528 -0.3993 -0.1074  0.4696
  134OSM   H15F14607   3.302   6.355  -1.480 -0.1800  0.0199  0.3067
  134OSM   H15G14608   3.222   6.220  -1.554 -2.0931  0.5273  5.1426
  134OSM   C16F14609   3.439   6.276  -1.630 -0.3985  0.0087  0.9602
  134OSM   H16F14610   3.465   6.170  -1.646 -1.0417 -0.1359  0.8257
  134OSM   H16G14611   3.523   6.330  -1.581  1.8420 -0.2739 -2.2395
  134OSM   C17F14612   3.403   6.360  -1.757  0.3831 -0.1319  0.2070
  134OSM   H17F14613   3.371   6.463  -1.728  1.7086 -0.0323  1.4284
  134OSM   H17G14614   3.327   6.318  -1.826  1.6392 -0.7324 -0.8563
  134OSM   C18F14615   3.522   6.385  -1.842 -0.6403 -0.8178  0.3795
  134OSM   H18F14616   3.568   6.297  -1.892  0.7919 -0.2935  0.6995
  134OSM   H18G14617   3.603   6.453  -1.807 -0.5708 -0.5728 -0.2485
  134OSM   H18H14618   3.473   6.435  -1.928 -2.7255 -0.0077  1.9618
  135OSM      N14619   0.216   3.390   0.265  0.2293 -0.9824  0.3094
  135OSM    C1514620   0.183   3.394   0.409 -0.3292 -0.3056 -0.1473
  135OSM   H15A14621   0.132   3.484   0.439  0.6553  0.2991 -0.2445
  135OSM   H15B14622   0.272   3.384   0.470  0.0922 -1.7380 -0.9415
  135OSM   H15C14623   0.110   3.316   0.427 -1.5869  0.6404 -0.9528
  135OSM    C1414624   0.090   3.384   0.190  0.4423  0.3401  1.3753
  135OSM   H14A14625   0.022   3.461   0.223 -0.4236 -0.1621  0.8201
  135OSM   H14B14626   0.042   3.287   0.199  1.5930 -0.6271 -1.7143
  135OSM   H14C14627   0.106   3.396   0.084  1.3383  1.4927  1.6171
  135OSM    C1314628   0.282   3.522   0.235 -0.1140  0.1037  0.2646
  135OSM   H13A14629   0.212   3.604   0.240 -1.4782 -1.0290  0.3616
  135OSM   H13B14630   0.310   3.515   0.130  0.0875  1.3722  0.2220
  135OSM   H13C14631   0.363   3.547   0.302 -1.4950  2.0774  1.2879
  135OSM    C1214632   0.304   3.273   0.226  0.7409 -0.0504 -0.3227
  135OSM   H12A14633   0.245   3.184   0.245 -1.4457  1.3148 -0.3185
  135OSM   H12B14634   0.400   3.270   0.275 -0.2324  0.1273  1.7149
  135OSM    C1114635   0.356   3.259   0.078  0.6333 -0.4704 -0.1457
  135OSM   H11A14636   0.266   3.247   0.014  0.5140  0.3351 -0.1409
  135OSM   H11B14637   0.416   3.167   0.060  2.7954  0.8805 -0.2164
  135OSM      P14638   0.576   3.394   0.005  0.1354 -0.4012 -0.1972
  135OSM    O1314639   0.600   3.537  -0.006  0.3602 -0.6507  0.9089
  135OSM    O1414640   0.641   3.313   0.111 -0.7456  0.2781 -0.1553
  135OSM    O1114641   0.600   3.326  -0.136 -0.2702  0.4597  0.1029
  135OSM    O1214642   0.418   3.377   0.016  0.0986  0.4069 -0.3363
  135OSM    C1S14643   0.589   3.392  -0.259  0.3103  0.1792  0.2788
  135OSM    H1S14644   0.667   3.471  -0.264 -0.4864  0.9183 -1.4421
  135OSM    H1T14645   0.488   3.436  -0.268  0.6196  0.8043 -0.2184
  135OSM     NF14646   0.674   3.373  -0.490  0.1474 -0.0233 -0.1491
  135OSM    HNF14647   0.607   3.389  -0.563  0.7462  0.6823 -0.5603
  135OSM    C2S14648   0.620   3.299  -0.383 -0.7812 -0.6313  0.3726
  135OSM    H2S14649   0.700   3.232  -0.345 -1.9621 -1.9025  0.6682
  135OSM    C3S14650   0.491   3.211  -0.418 -0.0381 -0.4565 -0.1144
  135OSM    H3S14651   0.421   3.291  -0.450  0.5222 -0.2674 -0.8942
  135OSM     O314652   0.431   3.156  -0.300  0.6488 -0.1679  0.2772
  135OSM    HO314653   0.474   3.192  -0.221  0.8500  1.2159 -0.4427
  135OSM    C4S14654   0.524   3.114  -0.532  0.1218  0.3044  0.2055
  135OSM    H4S14655   0.516   3.167  -0.628 -1.4948 -3.4976 -2.0201
  135OSM    C5S14656   0.541   2.984  -0.532  0.0094 -0.1545 -0.6211
  135OSM    H5S14657   0.533   2.940  -0.432  1.8250  1.0868  0.1374
  135OSM    C6S14658   0.563   2.898  -0.651  0.0488 -0.5471  0.1202
  135OSM    H6S14659   0.464   2.851  -0.666 -0.1584 -0.1706  0.2984
  135OSM    H6T14660   0.640   2.818  -0.639  1.7946  1.2172  1.3628
  135OSM    C7S14661   0.571   2.979  -0.784 -0.2032 -0.2175 -0.0138
  135OSM    H7S14662   0.662   3.041  -0.794 -0.5866  0.0153 -3.0114
  135OSM    H7T14663   0.479   3.040  -0.796  0.4313  1.2304  2.0200
  135OSM    C8S14664   0.571   2.890  -0.905  0.0953 -0.0847 -0.3998
  135OSM    H8S14665   0.492   2.813  -0.897 -1.7904  1.8281  0.2791
  135OSM    H8T14666   0.674   2.849  -0.907  0.3254  0.4868 -0.6288
  135OSM    C9S14667   0.542   2.963  -1.034 -0.3123 -0.7733 -0.6642
  135OSM    H9S14668   0.609   3.051  -1.048 -0.0451 -1.0782 -1.3273
  135OSM    H9T14669   0.439   3.003  -1.044  0.4882  2.4678  2.1154
  135OSM   C10S14670   0.575   2.876  -1.153  0.3137  0.2677 -0.5183
  135OSM   H10S14671   0.521   2.780  -1.141 -2.0486  1.4795 -0.8341
  135OSM   H10T14672   0.685   2.871  -1.163  0.1912  0.4480 -2.5459
  135OSM   C11S14673   0.531   2.943  -1.284 -0.0626  0.6848  0.0420
  135OSM   H11S14674   0.560   3.050  -1.284 -0.1665  0.7187 -0.6880
  135OSM   H11T14675   0.421   2.929  -1.278  0.0086  0.4986  1.3282
  135OSM   C12S14676   0.587   2.871  -1.404 -0.5146  0.0042 -0.8496
  135OSM   H12S14677   0.561   2.764  -1.389  1.0066 -0.2776  0.0950
  135OSM   H12T14678   0.695   2.898  -1.406 -0.5480  0.1074 -1.1880
  135OSM   C13S14679   0.538   2.908  -1.543  0.0865  0.6510  0.5329
  135OSM   H13S14680   0.537   3.017  -1.561 -1.4387  1.1074  2.8856
  135OSM   H13T14681   0.434   2.875  -1.563 -0.0467  0.4294  1.5233
  135OSM   C14S14682   0.614   2.841  -1.654 -0.0108 -0.3200  0.4471
  135OSM   H14S14683   0.610   2.731  -1.640 -2.8930 -0.4071 -0.6000
  135OSM   H14T14684   0.720   2.874  -1.644  0.4095 -0.9855 -1.4614
  135OSM   C15S14685   0.564   2.869  -1.800 -0.0767  0.4181  0.2028
  135OSM   H15S14686   0.458   2.836  -1.803  0.0622 -0.0013 -0.3845
  135OSM   H15T14687   0.625   2.805  -1.867 -1.1847  0.3899 -0.8287
  135OSM   C16S14688   0.567   3.016  -1.842  0.4214  0.8470 -0.4175
  135OSM   H16S14689   0.662   3.051  -1.794 -0.9821 -0.0028  3.3226
  135OSM   H16T14690   0.480   3.063  -1.791  1.2252 -0.3800  2.2943
  135OSM   C17S14691   0.556   3.029  -1.999  0.0741  0.2019 -0.3180
  135OSM   H17S14692   0.460   2.981  -2.028 -0.6216  0.6546  1.1159
  135OSM   H17T14693   0.641   2.976  -2.047 -0.3060 -1.2887  0.6056
  135OSM   C18S14694   0.562   3.169  -2.054 -0.0794  0.5940 -0.4233
  135OSM   H18S14695   0.662   3.202  -2.021  1.0338 -3.0759  0.3765
  135OSM   H18T14696   0.479   3.233  -2.018  0.0731 -0.4662  2.0000
  135OSM   H18U14697   0.561   3.168  -2.165 -0.8254  1.2654 -0.4312
  135OSM    C1F14698   0.797   3.424  -0.488 -0.4024  0.2922  0.2864
  135OSM     OF14699   0.865   3.410  -0.384 -0.0601  0.1676 -0.7997
  135OSM    C2F14700   0.844   3.497  -0.607  0.4278 -0.2147 -0.6541
  135OSM    H2F14701   0.786   3.589  -0.629  2.4365  1.2871 -0.0096
  135OSM    H2G14702   0.839   3.431  -0.696 -2.0935 -0.4872 -0.3847
  135OSM    C3F14703   0.995   3.543  -0.585  0.2354  0.3470 -0.6077
  135OSM    H3F14704   1.069   3.459  -0.586 -2.1888 -1.9660  0.9174
  135OSM    H3G14705   1.015   3.587  -0.485 -1.3800 -3.4279  1.6096
  135OSM    C4F14706   1.040   3.649  -0.697 -0.0914  0.4666 -0.7403
  135OSM    H4F14707   0.973   3.733  -0.669 -2.2520 -0.9095 -1.5453
  135OSM    H4G14708   1.142   3.690  -0.679  0.0942 -0.4992  0.5855
  135OSM    C5F14709   1.033   3.604  -0.843 -0.5832 -0.2941 -0.0241
  135OSM    H5F14710   0.925   3.580  -0.859 -0.7542 -0.5435  1.3272
  135OSM    H5G14711   1.095   3.515  -0.864 -1.1015 -1.1437  1.7778
  135OSM    C6F14712   1.063   3.718  -0.946  0.6529 -0.4427  0.2805
  135OSM    H6F14713   1.024   3.690  -1.046  0.9806 -1.0240  0.3110
  135OSM    H6G14714   1.173   3.729  -0.957  0.7504  0.1632  1.6503
  135OSM    C7F14715   1.006   3.854  -0.908 -1.0486  1.0857 -0.0977
  135OSM    H7F14716   1.084   3.905  -0.847 -3.2318  2.9008  1.3401
  135OSM    H7G14717   0.917   3.844  -0.842 -1.8655  1.0211 -1.1907
  135OSM    C8F14718   0.963   3.959  -1.011 -0.1045 -0.5724 -0.0060
  135OSM    H8F14719   0.900   4.035  -0.961  2.5724  1.1471  0.9641
  135OSM    H8G14720   0.897   3.907  -1.084 -1.6986 -1.4422  1.9668
  135OSM    C9F14721   1.081   4.034  -1.067  0.3969  0.5110 -0.1575
  135OSM    H9F14722   1.139   4.093  -0.995  2.0554 -1.6136  0.3526
  135OSM   C10F14723   1.116   4.021  -1.197 -0.1246 -0.4474  0.3328
  135OSM   H10F14724   1.216   4.054  -1.230  1.1562 -1.1542  3.1239
  135OSM   C11F14725   1.056   3.934  -1.303 -0.4254 -0.9319  0.4754
  135OSM   H11F14726   0.959   3.891  -1.271 -0.8624 -1.0450 -0.9053
  135OSM   H11G14727   1.134   3.857  -1.324  0.4648  0.3696 -1.2826
  135OSM   C12F14728   1.025   4.023  -1.427  0.1080  0.3836  0.5746
  135OSM   H12F14729   0.969   4.116  -1.404  0.4890  0.6733  0.3536
  135OSM   H12G14730   0.955   3.973  -1.497  1.4400  0.3794 -0.8156
  135OSM   C13F14731   1.160   4.056  -1.507 -0.5396  0.1541  0.2983
  135OSM   H13F14732   1.209   3.958  -1.523  3.2632  1.9915 -0.2482
  135OSM   H13G14733   1.228   4.112  -1.440  1.3840  0.4453 -1.7931
  135OSM   C14F14734   1.138   4.116  -1.650  0.3673  0.2815 -1.5098
  135OSM   H14F14735   1.101   4.217  -1.625  0.5989  0.1717 -0.6857
  135OSM   H14G14736   1.069   4.066  -1.722  0.1828  1.1973 -1.9897
  135OSM   C15F14737   1.274   4.139  -1.714  0.4242 -0.6113 -0.2345
  135OSM   H15F14738   1.355   4.069  -1.684  3.1583  2.5464  0.3560
  135OSM   H15G14739   1.303   4.237  -1.670 -0.3990 -0.4530 -0.0284
  135OSM   C16F14740   1.268   4.136  -1.868 -0.3139  0.1704 -0.3838
  135OSM   H16F14741   1.368   4.159  -1.910  0.6164 -0.4678  1.3719
  135OSM   H16G14742   1.198   4.208  -1.916  0.3231  0.2015 -1.2900
  135OSM   C17F14743   1.234   3.996  -1.921  0.5460  0.2169  0.1876
  135OSM   H17F14744   1.125   3.982  -1.909  0.5532  0.7745  1.0132
  135OSM   H17G14745   1.274   3.911  -1.862 -1.0400 -1.4813 -1.0589
  135OSM   C18F14746   1.273   3.991  -2.071 -0.1409  0.3330  0.3857
  135OSM   H18F14747   1.383   4.004  -2.077  0.3171 -3.0872 -0.6854
  135OSM   H18G14748   1.227   4.073  -2.130  0.0816 -0.0484 -0.3304
  135OSM   H18H14749   1.230   3.899  -2.116 -0.5614  0.8400 -0.2606
  136OSM      N14750   3.680   4.618   0.356 -0.8244  0.6014  0.2488
  136OSM    C1514751   3.589   4.651   0.237 -0.2981 -0.9618 -0.7959
  136OSM   H15A14752   3.488   4.615   0.250  0.2323 -2.5309 -0.8029
  136OSM   H15B14753   3.626   4.620   0.140 -0.5268  2.5185 -2.1255
  136OSM   H15C14754   3.589   4.759   0.231 -1.0634 -0.6837  2.2515
  136OSM    C1414755   3.821   4.656   0.329  0.0543  0.5757  0.6963
  136OSM   H14A14756   3.863   4.599   0.247 -1.1786 -1.5916  1.4789
  136OSM   H14B14757   3.888   4.646   0.414  0.3018  0.8108  0.5322
  136OSM   H14C14758   3.827   4.761   0.308  4.0275  0.0447 -2.0810
  136OSM    C1314759   3.629   4.687   0.479  0.2984  0.0516  0.0555
  136OSM   H13A14760   3.668   4.644   0.570  1.4131 -1.3226 -1.0013
  136OSM   H13B14761   3.522   4.698   0.486  0.6492  2.7435  4.0632
  136OSM   H13C14762   3.660   4.790   0.474  2.0251 -0.1847  3.3536
  136OSM    C1214763   3.670   4.467   0.382 -0.0877  0.3939 -0.2800
  136OSM   H12A14764   3.713   4.415   0.298  0.2525  2.1663 -1.2659
  136OSM   H12B14765   3.565   4.442   0.381  0.1188 -0.5077 -1.3726
  136OSM    C1114766   3.733   4.397   0.503  0.3809  0.2788  0.2675
  136OSM   H11A14767   3.674   4.306   0.525  1.4748 -0.1756  1.4652
  136OSM   H11B14768   3.727   4.466   0.591 -2.3380 -0.3962  0.6984
  136OSM      P14769   3.987   4.403   0.562 -0.2475 -0.4910  0.0950
  136OSM    O1314770   3.979   4.535   0.632  0.0323  0.1065  0.2472
  136OSM    O1414771   3.997   4.281   0.648  0.3799 -0.6621 -0.8732
  136OSM    O1114772   4.117   4.412   0.470  0.6176 -0.0137  0.2630
  136OSM    O1214773   3.865   4.372   0.464  0.0590  0.2528  0.1042
  136OSM    C1S14774   4.122   4.430   0.327  0.0236  0.2852 -0.1270
  136OSM    H1S14775   4.079   4.524   0.287 -1.1185 -1.1239 -2.4517
  136OSM    H1T14776   4.087   4.340   0.271  0.9806 -0.6702  0.7711
  136OSM     NF14777   4.286   4.463   0.146  0.2202  0.5010  0.9749
  136OSM    HNF14778   4.306   4.380   0.095  0.4681  0.0933  1.7220
  136OSM    C2S14779   4.274   4.440   0.285 -0.4628  0.7581 -0.3502
  136OSM    H2S14780   4.308   4.536   0.329  1.4309  0.3777 -0.9301
  136OSM    C3S14781   4.352   4.317   0.342 -0.0943  0.3830  0.1204
  136OSM    H3S14782   4.314   4.228   0.287  0.4343 -0.0769  0.4891
  136OSM     O314783   4.359   4.296   0.483 -0.0517 -0.7233  0.0146
  136OSM    HO314784   4.285   4.348   0.516 -0.2664 -1.9017  1.4971
  136OSM    C4S14785   4.498   4.335   0.296  0.3818 -0.7918  0.1850
  136OSM    H4S14786   4.541   4.430   0.333  0.2927 -0.0997 -1.4089
  136OSM    C5S14787   4.579   4.249   0.233  0.3690  0.1033 -0.2265
  136OSM    H5S14788   4.543   4.149   0.208 -0.2684  0.2632  0.0342
  136OSM    C6S14789   4.720   4.276   0.187 -0.2141  0.3871  0.6140
  136OSM    H6S14790   4.789   4.193   0.211 -0.9798  0.4142  3.2213
  136OSM    H6T14791   4.751   4.359   0.254 -1.1007 -0.2999  1.9386
  136OSM    C7S14792   4.726   4.339   0.046  0.2751  0.5739  0.9155
  136OSM    H7S14793   4.832   4.360   0.018  0.3154 -0.6007  0.0991
  136OSM    H7T14794   4.672   4.436   0.043  0.4346  0.6498  0.1574
  136OSM    C8S14795   4.657   4.250  -0.065 -0.0049 -0.6179  0.4970
  136OSM    H8S14796   4.549   4.244  -0.037 -0.0552  0.2998  0.5115
  136OSM    H8T14797   4.709   4.152  -0.068  1.1110 -0.0438  0.7765
  136OSM    C9S14798   4.673   4.309  -0.206  0.2310  0.1928  0.0323
  136OSM    H9S14799   4.782   4.331  -0.210  0.9946 -3.1409 -2.5270
  136OSM    H9T14800   4.614   4.400  -0.227 -0.1072 -0.0936 -0.2833
  136OSM   C10S14801   4.623   4.206  -0.315 -0.8403 -0.4572  0.4152
  136OSM   H10S14802   4.513   4.214  -0.303 -0.7145  0.9369  0.7163
  136OSM   H10T14803   4.660   4.101  -0.306  2.4586  0.5193 -0.1280
  136OSM   C11S14804   4.643   4.269  -0.460 -0.0491  0.3441 -0.0541
  136OSM   H11S14805   4.750   4.251  -0.484 -0.2699 -3.4812  1.1881
  136OSM   H11T14806   4.607   4.374  -0.454  2.3629  1.3092 -1.1385
  136OSM   C12S14807   4.564   4.194  -0.576  0.3877  0.1809 -0.2412
  136OSM   H12S14808   4.562   4.246  -0.674 -0.0797  0.6613  0.0166
  136OSM   H12T14809   4.457   4.194  -0.547  0.7917 -0.1443  1.3388
  136OSM   C13S14810   4.613   4.049  -0.585 -0.2311 -0.4643  0.2384
  136OSM   H13S14811   4.571   3.998  -0.496  1.5546  0.1002  1.4604
  136OSM   H13T14812   4.720   4.027  -0.566 -0.0967 -0.2207 -0.2165
  136OSM   C14S14813   4.575   3.977  -0.716 -0.0120  0.1444 -0.2253
  136OSM   H14S14814   4.466   3.997  -0.724 -0.2334 -0.1621  1.5331
  136OSM   H14T14815   4.581   3.868  -0.695 -1.0212 -0.1179 -1.2072
  136OSM   C15S14816   4.641   4.044  -0.832  0.1324  0.1509  0.6453
  136OSM   H15S14817   4.728   3.985  -0.868 -0.0254  0.2869  0.0173
  136OSM   H15T14818   4.679   4.147  -0.815  1.2077  0.0132 -0.7392
  136OSM   C16S14819   4.541   4.069  -0.948  0.0158  0.5121  0.4977
  136OSM   H16S14820   4.467   4.147  -0.919  0.2897  0.6549  0.8207
  136OSM   H16T14821   4.476   3.987  -0.986 -2.5230  2.4511  0.3298
  136OSM   C17S14822   4.610   4.118  -1.080  0.2289  0.4425 -0.3193
  136OSM   H17S14823   4.667   4.029  -1.114  0.0418  0.0540  0.3553
  136OSM   H17T14824   4.677   4.206  -1.071  0.9078  0.2274 -2.6904
  136OSM   C18S14825   4.500   4.162  -1.169  0.3173 -0.3578 -0.2862
  136OSM   H18S14826   4.465   4.259  -1.129  1.8493  0.0296  0.2126
  136OSM   H18T14827   4.412   4.095  -1.159 -0.2557  0.3249 -0.7344
  136OSM   H18U14828   4.539   4.163  -1.273 -0.2893 -3.8560 -0.6783
  136OSM    C1F14829   4.248   4.570   0.074 -1.0213  0.3059  0.8146
  136OSM     OF14830   4.226   4.668   0.140  0.2852  0.0480 -0.2222
  136OSM    C2F14831   4.230   4.556  -0.077 -0.1430  0.2875 -0.5035
  136OSM    H2F14832   4.142   4.489  -0.093 -0.0492 -0.4674  1.7664
  136OSM    H2G14833   4.318   4.495  -0.108 -1.6327 -1.5499 -1.3635
  136OSM    C3F14834   4.216   4.694  -0.147  0.5209  0.0321  0.2529
  136OSM    H3F14835   4.307   4.757  -0.137 -0.2298  1.3957 -1.0510
  136OSM    H3G14836   4.133   4.738  -0.086 -0.2265 -0.2780 -0.5158
  136OSM    C4F14837   4.183   4.691  -0.295 -0.5153  0.0371 -0.3696
  136OSM    H4F14838   4.209   4.794  -0.327  0.1919 -0.0669 -0.1554
  136OSM    H4G14839   4.075   4.687  -0.320 -0.6185  0.3607  0.0193
  136OSM    C5F14840   4.270   4.596  -0.370 -0.3170  0.1335 -0.2551
  136OSM    H5F14841   4.243   4.492  -0.340  0.6553 -0.0261  0.1308
  136OSM    H5G14842   4.375   4.620  -0.342 -0.4023  1.2965 -0.9083
  136OSM    C6F14843   4.241   4.597  -0.521 -0.1984  0.9982 -0.1191
  136OSM    H6F14844   4.272   4.695  -0.566  1.6640  0.2672 -0.5473
  136OSM    H6G14845   4.132   4.581  -0.533 -1.6332  3.3904  6.0667
  136OSM    C7F14846   4.334   4.482  -0.576  0.7099 -0.4764 -0.3982
  136OSM    H7F14847   4.322   4.391  -0.513  1.2815  0.6041  1.3292
  136OSM    H7G14848   4.438   4.515  -0.556  0.6695 -0.6465  0.1137
  136OSM    C8F14849   4.311   4.471  -0.722  0.1036  0.2325 -0.0358
  136OSM    H8F14850   4.393   4.410  -0.766  0.1509 -1.4331  2.2017
  136OSM    H8G14851   4.321   4.575  -0.761 -1.9484 -0.1861 -1.8039
  136OSM    C9F14852   4.178   4.415  -0.757  0.2130  0.6140 -0.9945
  136OSM    H9F14853   4.133   4.367  -0.669  3.1080 -0.4701 -0.0115
  136OSM   C10F14854   4.111   4.440  -0.870  0.3142  1.1743 -0.0830
  136OSM   H10F14855   4.013   4.391  -0.877  0.5270  0.1278  2.8868
  136OSM   C11F14856   4.160   4.523  -0.995  0.2034 -0.0021 -0.8215
  136OSM   H11F14857   4.255   4.578  -0.976 -0.2021  0.1895  0.8013
  136OSM   H11G14858   4.089   4.606  -1.017  1.4246  0.8314 -1.7362
  136OSM   C12F14859   4.188   4.444  -1.115 -0.0221 -0.0585  0.2038
  136OSM   H12F14860   4.254   4.358  -1.087  0.9083  0.1991 -1.0624
  136OSM   H12G14861   4.234   4.496  -1.202  1.2868 -2.2320 -0.4833
  136OSM   C13F14862   4.060   4.381  -1.165  0.5714  1.2423  0.0907
  136OSM   H13F14863   3.993   4.464  -1.196 -2.1329 -0.6724  0.3967
  136OSM   H13G14864   4.002   4.326  -1.088  1.4831 -0.3721 -0.3115
  136OSM   C14F14865   4.078   4.289  -1.289  0.1870 -0.2299  0.8065
  136OSM   H14F14866   4.108   4.188  -1.255  1.1545 -1.1181 -2.3793
  136OSM   H14G14867   4.171   4.322  -1.339 -0.6247  0.8799 -0.0357
  136OSM   C15F14868   3.949   4.301  -1.361  0.0779  0.1591 -0.2883
  136OSM   H15F14869   3.937   4.404  -1.400 -0.3224 -0.0034 -0.6124
  136OSM   H15G14870   3.864   4.283  -1.293 -0.5526  0.1869 -1.0523
  136OSM   C16F14871   3.941   4.194  -1.470 -0.0054  0.5729  0.0032
  136OSM   H16F14872   3.939   4.094  -1.421 -0.5847  0.1573 -0.8527
  136OSM   H16G14873   4.021   4.198  -1.546 -0.8714  0.4637 -0.9295
  136OSM   C17F14874   3.812   4.218  -1.557 -0.6267 -0.3833 -0.1971
  136OSM   H17F14875   3.824   4.321  -1.596  3.1269 -0.6799 -0.1169
  136OSM   H17G14876   3.718   4.223  -1.498  0.9395 -0.7698  2.4604
  136OSM   C18F14877   3.790   4.109  -1.661  0.3035  0.4906 -0.4706
  136OSM   H18F14878   3.790   4.008  -1.613 -2.9600  0.6818  0.1332
  136OSM   H18G14879   3.866   4.110  -1.742  3.6520 -0.8238  2.3368
  136OSM   H18H14880   3.702   4.132  -1.723  0.7637  1.5689 -0.7544
  137OSM      N14881   6.366   2.246   0.316 -0.0753 -0.3507  0.1775
  137OSM    C1514882   6.399   2.111   0.266  0.0471  0.3652 -0.2463
  137OSM   H15A14883   6.430   2.047   0.347 -0.8296  0.7637  0.4183
  137OSM   H15B14884   6.486   2.126   0.204  0.8169  1.8228  1.1156
  137OSM   H15C14885   6.317   2.069   0.209  0.1024  0.3454 -0.3126
  137OSM    C1414886   6.254   2.243   0.415 -0.4102 -0.1653  0.4656
  137OSM   H14A14887   6.293   2.209   0.510  0.7637  1.6298  0.6666
  137OSM   H14B14888   6.176   2.182   0.371  0.0752 -0.3226 -0.1910
  137OSM   H14C14889   6.211   2.341   0.427 -2.2269 -0.7487 -0.7887
  137OSM    C1314890   6.491   2.297   0.380 -0.5445 -0.3832  0.3057
  137OSM   H13A14891   6.530   2.225   0.451  1.9316  0.0443 -0.5137
  137OSM   H13B14892   6.480   2.393   0.427 -1.0211 -0.0719 -0.4407
  137OSM   H13C14893   6.574   2.313   0.313 -1.9881  0.3245 -1.3775
  137OSM    C1214894   6.313   2.320   0.196  0.3589 -0.7158 -0.1695
  137OSM   H12A14895   6.218   2.287   0.157  0.4909 -0.1620 -0.9957
  137OSM   H12B14896   6.384   2.290   0.120 -0.3984  0.3261 -1.3259
  137OSM    C1114897   6.305   2.475   0.211  0.4064  0.0231 -0.5018
  137OSM   H11A14898   6.263   2.508   0.113  1.8159  2.6699 -0.2904
  137OSM   H11B14899   6.409   2.511   0.206  1.1101 -1.9126 -0.8831
  137OSM      P14900   6.075   2.540   0.327 -0.3012 -0.0848  0.3520
  137OSM    O1314901   6.006   2.414   0.345 -0.0745  0.8537  0.4028
  137OSM    O1414902   6.043   2.645   0.429  0.1412  0.0741 -0.1227
  137OSM    O1114903   6.046   2.591   0.182  0.1234 -0.0766 -0.2920
  137OSM    O1214904   6.234   2.521   0.329  0.0431 -0.1954  0.1973
  137OSM    C1S14905   5.915   2.661   0.166 -0.0911 -0.0638  0.2128
  137OSM    H1S14906   5.905   2.748   0.234  2.4442 -0.6886  1.4967
  137OSM    H1T14907   5.830   2.593   0.191 -0.5947  0.7013  0.6489
  137OSM     NF14908   5.772   2.782   0.006 -0.2426 -0.4397 -0.0722
  137OSM    HNF14909   5.685   2.740  -0.018 -0.0094 -0.3246 -1.1985
  137OSM    C2S14910   5.896   2.709   0.020  0.7244 -0.3426 -0.8758
  137OSM    H2S14911   5.980   2.774  -0.011  0.9812 -0.3090 -0.1106
  137OSM    C3S14912   5.893   2.582  -0.076  0.3643 -0.3059 -0.1944
  137OSM    H3S14913   5.799   2.527  -0.053  1.9500 -2.1083  2.5369
  137OSM     O314914   5.985   2.475  -0.042 -0.0082  0.0511 -0.2398
  137OSM    HO314915   6.017   2.508   0.042  3.0591  0.6177 -1.4911
  137OSM    C4S14916   5.887   2.617  -0.219 -0.5288  0.2056  0.0043
  137OSM    H4S14917   5.964   2.684  -0.261 -0.2510  1.0508  1.7671
  137OSM    C5S14918   5.798   2.559  -0.306 -0.1663 -0.3165  0.1658
  137OSM    H5S14919   5.732   2.475  -0.277 -1.0878  0.8940  1.7229
  137OSM    C6S14920   5.795   2.587  -0.455 -0.3001 -0.4836  0.7389
  137OSM    H6S14921   5.706   2.650  -0.476 -0.1339  0.8186  3.4310
  137OSM    H6T14922   5.779   2.495  -0.515  1.1019 -0.4326  0.2533
  137OSM    C7S14923   5.922   2.658  -0.513  0.8520  0.0571 -0.3321
  137OSM    H7S14924   6.008   2.610  -0.462  0.3234 -0.2353  0.3109
  137OSM    H7T14925   5.914   2.764  -0.482 -0.6235  1.0282 -3.6340
  137OSM    C8S14926   5.927   2.662  -0.662 -0.6410  0.8350  0.3271
  137OSM    H8S14927   5.830   2.696  -0.702 -0.0602  1.6754 -0.4211
  137OSM    H8T14928   5.943   2.561  -0.705 -0.0903  1.3234 -0.6593
  137OSM    C9S14929   6.038   2.754  -0.702  0.1477 -0.5115  0.5613
  137OSM    H9S14930   6.128   2.718  -0.648  1.0067  0.1470 -0.3908
  137OSM    H9T14931   6.020   2.851  -0.652  0.0871 -0.1764 -0.0963
  137OSM   C10S14932   6.054   2.762  -0.854  0.4048  0.0449  0.3966
  137OSM   H10S14933   6.057   2.656  -0.889 -0.8737  0.7919 -2.2319
  137OSM   H10T14934   6.152   2.810  -0.872  0.6409 -1.0326 -1.5405
  137OSM   C11S14935   5.952   2.834  -0.939 -1.0040  0.2097 -0.0150
  137OSM   H11S14936   5.952   2.941  -0.910 -1.4389  0.5614 -1.2180
  137OSM   H11T14937   5.852   2.797  -0.907  1.3077 -3.8757  3.6234
  137OSM   C12S14938   5.958   2.812  -1.088  0.3545  0.0200 -0.1120
  137OSM   H12S14939   5.933   2.705  -1.106 -1.6699  0.3690  0.3030
  137OSM   H12T14940   6.062   2.826  -1.125 -0.3763 -0.8818 -2.7044
  137OSM   C13S14941   5.879   2.915  -1.176  0.6416  0.9659 -0.3824
  137OSM   H13S14942   5.923   3.011  -1.142  0.7087  0.9696 -0.4784
  137OSM   H13T14943   5.773   2.912  -1.144  1.2934  2.6141  2.2005
  137OSM   C14S14944   5.897   2.891  -1.333 -0.0316 -0.3933  0.0082
  137OSM   H14S14945   5.991   2.926  -1.381 -0.9435  1.5955 -0.4311
  137OSM   H14T14946   5.814   2.952  -1.372  0.8476  0.4538 -0.5804
  137OSM   C15S14947   5.877   2.740  -1.371 -0.3997  0.3104 -0.1127
  137OSM   H15S14948   5.785   2.715  -1.314 -0.1849  1.0574  0.5743
  137OSM   H15T14949   5.960   2.680  -1.330 -1.7076 -0.9154  0.8136
  137OSM   C16S14950   5.834   2.725  -1.517 -0.0215  0.3129  0.6512
  137OSM   H16S14951   5.751   2.793  -1.546  1.1906  0.2282 -3.6625
  137OSM   H16T14952   5.788   2.624  -1.526 -3.3437  1.8233 -1.4107
  137OSM   C17S14953   5.951   2.731  -1.614  0.1004  0.4040 -0.7230
  137OSM   H17S14954   6.007   2.639  -1.586  2.1526  2.2394  1.6712
  137OSM   H17T14955   6.010   2.823  -1.595  0.1900  0.5700 -1.7318
  137OSM   C18S14956   5.910   2.719  -1.753  0.2706  0.3467  0.3982
  137OSM   H18S14957   5.985   2.726  -1.834  0.1643 -0.5906  0.2097
  137OSM   H18T14958   5.827   2.793  -1.761 -0.8289 -0.9134 -0.3736
  137OSM   H18U14959   5.866   2.618  -1.768  0.2310  0.0977  2.0014
  137OSM    C1F14960   5.757   2.913   0.034  1.0901  0.4473  0.2819
  137OSM     OF14961   5.848   2.972   0.081 -0.4008 -0.0716 -0.0795
  137OSM    C2F14962   5.625   2.984  -0.007 -0.2305  0.6908 -0.5228
  137OSM    H2F14963   5.627   3.088   0.033 -1.5215 -0.2534  2.2686
  137OSM    H2G14964   5.543   2.942   0.056 -1.0159  4.2641  1.1257
  137OSM    C3F14965   5.591   2.973  -0.154 -0.0323  0.6402  0.2031
  137OSM    H3F14966   5.500   3.033  -0.175  0.4475  1.5901  0.7453
  137OSM    H3G14967   5.567   2.870  -0.185 -1.3134  0.8218  0.5345
  137OSM    C4F14968   5.701   3.021  -0.254  0.4656 -0.0030 -0.1178
  137OSM    H4F14969   5.791   2.963  -0.225  1.8378  2.1170  0.0551
  137OSM    H4G14970   5.721   3.128  -0.235  0.8229 -0.3812  1.8118
  137OSM    C5F14971   5.663   2.998  -0.397  0.0444 -0.2703 -0.6203
  137OSM    H5F14972   5.567   3.046  -0.424  0.2670  0.6062  0.0979
  137OSM    H5G14973   5.627   2.895  -0.421 -0.5731  0.2624 -2.0690
  137OSM    C6F14974   5.768   3.031  -0.498 -0.1414 -0.4143  0.2351
  137OSM    H6F14975   5.843   2.949  -0.500 -0.5605 -0.7934  0.0140
  137OSM    H6G14976   5.817   3.125  -0.464 -1.8527  1.3317 -1.9032
  137OSM    C7F14977   5.721   3.076  -0.642 -0.2909 -0.2208  0.1283
  137OSM    H7F14978   5.644   3.156  -0.644  1.3857  1.4501 -0.4243
  137OSM    H7G14979   5.700   2.973  -0.679  0.8749 -0.7980  0.9970
  137OSM    C8F14980   5.830   3.139  -0.730  0.0084  0.0239  0.9890
  137OSM    H8F14981   5.812   3.138  -0.839  1.3794 -0.7356  0.7463
  137OSM    H8G14982   5.919   3.076  -0.712  0.3332  0.4147  0.7505
  137OSM    C9F14983   5.857   3.282  -0.675 -0.5167  0.8995 -0.7635
  137OSM    H9F14984   5.873   3.303  -0.569 -0.4797  0.7647 -0.7432
  137OSM   C10F14985   5.868   3.393  -0.746 -0.0898 -0.2446 -0.2552
  137OSM   H10F14986   5.896   3.484  -0.691  0.1275  1.0149 -2.3774
  137OSM   C11F14987   5.864   3.407  -0.896 -0.7378  0.1758  0.2085
  137OSM   H11F14988   5.880   3.308  -0.943  1.4851 -0.5906  2.3895
  137OSM   H11G14989   5.955   3.467  -0.918 -0.2310  0.2669  2.3191
  137OSM   C12F14990   5.742   3.481  -0.949  0.2449  0.1117  0.4274
  137OSM   H12F14991   5.729   3.575  -0.891  0.0953 -0.8381  1.9899
  137OSM   H12G14992   5.653   3.417  -0.931  1.1386 -0.6513  2.4799
  137OSM   C13F14993   5.752   3.517  -1.099 -1.1031 -0.3770 -0.1882
  137OSM   H13F14994   5.859   3.542  -1.115 -1.4213  1.4828  0.3328
  137OSM   H13G14995   5.700   3.613  -1.117  1.4966  1.3803  1.0973
  137OSM   C14F14996   5.727   3.404  -1.192  0.3471  0.0497 -0.3050
  137OSM   H14F14997   5.623   3.367  -1.202  1.0965 -2.3851  0.3586
  137OSM   H14G14998   5.774   3.313  -1.148  1.3303  1.0302  0.7846
  137OSM   C15F14999   5.782   3.410  -1.338  0.1218 -0.5842 -0.1887
  137OSM   H15F15000   5.759   3.315  -1.390 -0.8529 -0.3849 -0.1431
  137OSM   H15G15001   5.893   3.413  -1.338  0.1503 -1.2927 -0.7104
  137OSM   C16F15002   5.722   3.525  -1.419  0.4207  0.9362  0.1571
  137OSM   H16F15003   5.736   3.620  -1.364 -0.5135  1.0868  0.1541
  137OSM   H16G15004   5.613   3.503  -1.428  1.0458 -2.3534 -0.5607
  137OSM   C17F15005   5.790   3.545  -1.559  0.5369 -0.3434 -0.5072
  137OSM   H17F15006   5.728   3.623  -1.609  2.0889  1.6521  0.5163
  137OSM   H17G15007   5.782   3.452  -1.619 -0.8573 -1.5918  1.4915
  137OSM   C18F15008   5.935   3.595  -1.553  0.5674 -0.2380  0.3539
  137OSM   H18F15009   5.938   3.679  -1.479  0.2454  2.0163 -2.0463
  137OSM   H18G15010   5.975   3.635  -1.648  2.3027 -3.4150 -0.3825
  137OSM   H18H15011   6.012   3.520  -1.526 -1.5476 -2.7397 -0.2271
  138OSM      N15012   1.874   2.929   0.634  0.1003 -0.0112  0.1718
  138OSM    C1515013   1.953   3.034   0.570  1.2628  0.6722  0.4193
  138OSM   H15A15014   1.897   3.126   0.582  0.2829  0.3871 -1.5856
  138OSM   H15B15015   1.964   3.021   0.463  0.4751 -0.6740  0.4873
  138OSM   H15C15016   2.053   3.033   0.613  0.6622 -0.4255  1.8565
  138OSM    C1415017   1.963   2.809   0.665 -0.0659 -0.1280 -0.7198
  138OSM   H14A15018   2.040   2.846   0.730 -2.2983  0.0173  2.0119
  138OSM   H14B15019   2.003   2.776   0.570 -2.3664 -1.6295 -1.2586
  138OSM   H14C15020   1.910   2.720   0.697 -0.3129 -0.0424 -0.8834
  138OSM    C1315021   1.807   2.974   0.764  0.7230  0.2001 -0.7243
  138OSM   H13A15022   1.755   2.891   0.809 -0.6538 -0.0489 -2.6419
  138OSM   H13B15023   1.744   3.061   0.750  0.8384  0.1765 -1.4174
  138OSM   H13C15024   1.887   3.002   0.831 -2.1742  2.7872  1.9629
  138OSM    C1215025   1.762   2.887   0.541 -0.5050 -0.5591  0.5752
  138OSM   H12A15026   1.815   2.856   0.452  0.0886  0.9537  0.3702
  138OSM   H12B15027   1.711   2.975   0.505  0.6878  0.5960  1.6363
  138OSM    C1115028   1.666   2.763   0.556 -0.5927 -0.1901 -0.6544
  138OSM   H11A15029   1.579   2.768   0.487  1.2630  1.6346 -3.0539
  138OSM   H11B15030   1.631   2.766   0.662  0.8243 -2.0412 -0.0635
  138OSM      P15031   1.727   2.547   0.419 -0.2118 -0.0799  0.2790
  138OSM    O1315032   1.860   2.489   0.397 -0.4035  0.0139  0.1558
  138OSM    O1415033   1.618   2.451   0.437  0.4136 -0.2560  0.7700
  138OSM    O1115034   1.700   2.648   0.299  0.0214  0.1323  0.1035
  138OSM    O1215035   1.739   2.638   0.549  0.2508  0.6093  0.4881
  138OSM    C1S15036   1.805   2.720   0.236 -0.5460  0.2524  0.2740
  138OSM    H1S15037   1.887   2.738   0.309 -1.6648  0.0760  1.6333
  138OSM    H1T15038   1.762   2.818   0.206 -1.6472 -0.8261 -1.8719
  138OSM     NF15039   1.949   2.738   0.053 -0.0974 -0.6934 -0.6035
  138OSM    HNF15040   1.932   2.797  -0.025  0.2273  1.1556  0.6702
  138OSM    C2S15041   1.851   2.648   0.108 -0.4153  0.6256 -0.5909
  138OSM    H2S15042   1.903   2.555   0.139  0.5849  0.8048 -1.6573
  138OSM    C3S15043   1.744   2.601   0.007  0.0180  0.3429  0.9803
  138OSM    H3S15044   1.690   2.691  -0.030  2.4663  1.6931  0.5066
  138OSM     O315045   1.643   2.515   0.068 -0.2878 -0.0917  0.5099
  138OSM    HO315046   1.647   2.550   0.157 -0.8382 -0.4771  0.6917
  138OSM    C4S15047   1.808   2.522  -0.112 -0.3748 -0.1636 -0.4487
  138OSM    H4S15048   1.862   2.428  -0.096  1.1982  0.4582 -1.9373
  138OSM    C5S15049   1.810   2.562  -0.239 -0.6239  0.0333 -0.6384
  138OSM    H5S15050   1.783   2.665  -0.269 -0.7017 -0.4207 -2.2452
  138OSM    C6S15051   1.872   2.487  -0.357  0.3880  0.9146 -0.4290
  138OSM    H6S15052   1.926   2.392  -0.337  1.3901  1.2925 -1.2233
  138OSM    H6T15053   1.950   2.556  -0.394  0.2757  2.3558  1.8502
  138OSM    C7S15054   1.771   2.449  -0.468  0.5093 -0.3178 -0.5370
  138OSM    H7S15055   1.739   2.545  -0.515 -1.9127 -0.0149  1.5054
  138OSM    H7T15056   1.685   2.398  -0.419  1.7772 -1.3295  0.7069
  138OSM    C8S15057   1.828   2.364  -0.584 -0.3203  0.1397 -0.5138
  138OSM    H8S15058   1.857   2.269  -0.535  0.2489  0.2272 -0.6716
  138OSM    H8T15059   1.923   2.415  -0.612  0.9497 -1.5782  0.4729
  138OSM    C9S15060   1.726   2.333  -0.701  0.1302 -0.1114 -0.0716
  138OSM    H9S15061   1.662   2.420  -0.724  0.6414  0.3883  0.3687
  138OSM    H9T15062   1.661   2.250  -0.667 -1.4297  1.2205  0.3226
  138OSM   C10S15063   1.792   2.294  -0.832 -0.2891  0.1831  0.2002
  138OSM   H10S15064   1.868   2.213  -0.828 -1.2404 -0.8132 -1.0313
  138OSM   H10T15065   1.848   2.379  -0.875 -3.1229  1.4816 -1.1742
  138OSM   C11S15066   1.687   2.245  -0.935  0.1064  0.5874 -0.3397
  138OSM   H11S15067   1.604   2.319  -0.932 -0.1136  0.3122  0.7437
  138OSM   H11T15068   1.645   2.154  -0.887 -0.3297  0.8404 -0.2335
  138OSM   C12S15069   1.740   2.213  -1.075 -0.7011 -0.4284  0.3238
  138OSM   H12S15070   1.660   2.155  -1.125  0.3308 -2.3310  0.7826
  138OSM   H12T15071   1.822   2.138  -1.066 -0.1428  0.1211 -0.1000
  138OSM   C13S15072   1.780   2.339  -1.158 -0.5341 -0.1412 -0.6285
  138OSM   H13S15073   1.866   2.397  -1.118 -2.0492  0.1760  2.4873
  138OSM   H13T15074   1.690   2.404  -1.161  0.4994  1.2990 -2.4728
  138OSM   C14S15075   1.812   2.284  -1.299 -0.3450 -0.5387  0.1130
  138OSM   H14S15076   1.724   2.225  -1.333 -0.0134 -0.8216 -0.2690
  138OSM   H14T15077   1.906   2.228  -1.282  0.4010  0.5698 -0.2815
  138OSM   C15S15078   1.843   2.389  -1.413 -0.3930 -0.2974 -0.1786
  138OSM   H15S15079   1.913   2.462  -1.367 -0.8001  0.5332 -0.8660
  138OSM   H15T15080   1.744   2.438  -1.427  0.5269  1.7425  0.1612
  138OSM   C16S15081   1.883   2.323  -1.541 -0.1166 -0.4360  0.1985
  138OSM   H16S15082   1.814   2.236  -1.541 -1.5640  0.6554  0.5613
  138OSM   H16T15083   1.988   2.291  -1.529 -0.8482 -2.4089  2.1661
  138OSM   C17S15084   1.851   2.402  -1.669 -0.2288 -0.4169 -0.9374
  138OSM   H17S15085   1.939   2.388  -1.735  1.5027  2.3443  0.5747
  138OSM   H17T15086   1.841   2.511  -1.646  0.2352 -0.3696 -0.9443
  138OSM   C18S15087   1.724   2.363  -1.738  0.7103  0.0571  0.1567
  138OSM   H18S15088   1.727   2.384  -1.848 -2.4938 -0.1009 -0.0328
  138OSM   H18T15089   1.636   2.419  -1.701  0.4171  0.0305 -0.4824
  138OSM   H18U15090   1.713   2.253  -1.733  1.9622 -0.2182 -1.6811
  138OSM    C1F15091   2.067   2.756   0.110 -0.5179  0.2323  0.1083
  138OSM     OF15092   2.096   2.679   0.201  0.4483 -0.4960 -0.2272
  138OSM    C2F15093   2.146   2.874   0.068  0.1800  0.7571 -0.6977
  138OSM    H2F15094   2.170   2.930   0.161 -1.5710  0.3638  0.0363
  138OSM    H2G15095   2.075   2.933   0.008 -0.5443 -0.7035 -1.3289
  138OSM    C3F15096   2.270   2.826  -0.016  0.2043 -0.2537  0.4650
  138OSM    H3F15097   2.324   2.747   0.041  0.1218  0.4398  1.5151
  138OSM    H3G15098   2.328   2.917  -0.040  0.8562 -0.6638  0.4566
  138OSM    C4F15099   2.220   2.765  -0.149 -0.3270 -0.3857  0.1086
  138OSM    H4F15100   2.111   2.783  -0.157 -0.3001  0.0858  0.6990
  138OSM    H4G15101   2.223   2.655  -0.139 -1.7262 -0.4359  0.1504
  138OSM    C5F15102   2.290   2.802  -0.288  0.2411 -0.4950  0.1752
  138OSM    H5F15103   2.393   2.761  -0.284 -0.8653 -3.9126 -1.7855
  138OSM    H5G15104   2.292   2.912  -0.304  0.5099 -0.1662  2.1902
  138OSM    C6F15105   2.218   2.725  -0.405 -0.1361  0.9917 -0.7596
  138OSM    H6F15106   2.115   2.767  -0.405 -0.2845  0.6458 -0.1457
  138OSM    H6G15107   2.222   2.616  -0.382 -1.8807  1.3783  1.8616
  138OSM    C7F15108   2.274   2.760  -0.547 -0.3838 -0.1715 -0.5842
  138OSM    H7F15109   2.371   2.706  -0.549 -1.1356 -1.5590 -1.6878
  138OSM    H7G15110   2.293   2.869  -0.537  1.2537 -0.6466  3.9593
  138OSM    C8F15111   2.179   2.709  -0.658  0.0335 -0.8699  0.3298
  138OSM    H8F15112   2.093   2.778  -0.669  0.6537  0.0240  0.9240
  138OSM    H8G15113   2.144   2.609  -0.625 -1.2236 -0.4877  0.1761
  138OSM    C9F15114   2.261   2.694  -0.782 -0.4030 -0.3750  0.3086
  138OSM    H9F15115   2.324   2.781  -0.806  0.2134 -0.7341  0.5992
  138OSM   C10F15116   2.277   2.586  -0.867 -0.4265 -0.1836  0.5403
  138OSM   H10F15117   2.325   2.608  -0.963  1.2427 -1.8980  0.9207
  138OSM   C11F15118   2.193   2.463  -0.858 -0.2014  0.2915 -0.0150
  138OSM   H11F15119   2.096   2.484  -0.807  1.1719  2.4943  1.8881
  138OSM   H11G15120   2.244   2.392  -0.790 -0.0115  0.1989 -0.2544
  138OSM   C12F15121   2.149   2.394  -0.989  0.1496  0.1457 -0.6901
  138OSM   H12F15122   2.104   2.476  -1.048 -1.3926  0.3775  0.7520
  138OSM   H12G15123   2.067   2.323  -0.964 -0.4166  0.9912 -0.1242
  138OSM   C13F15124   2.271   2.315  -1.042 -0.3656 -0.3640  0.4944
  138OSM   H13F15125   2.294   2.238  -0.965 -0.6305  0.9451  1.9403
  138OSM   H13G15126   2.353   2.389  -1.047 -1.6243  0.9908 -2.2415
  138OSM   C14F15127   2.250   2.244  -1.180  0.2593  0.0194 -0.1018
  138OSM   H14F15128   2.157   2.184  -1.176 -0.0722  0.5536  0.2023
  138OSM   H14G15129   2.337   2.177  -1.202 -1.6400 -2.3250 -0.9844
  138OSM   C15F15130   2.255   2.339  -1.300  0.7114 -0.6677  0.3683
  138OSM   H15F15131   2.350   2.395  -1.293  0.8496 -0.4481 -2.3128
  138OSM   H15G15132   2.181   2.422  -1.306  3.5508  1.9411 -1.5137
  138OSM   C16F15133   2.261   2.272  -1.441 -0.0985 -0.2472  0.2154
  138OSM   H16F15134   2.177   2.202  -1.459 -1.4507  1.5756 -0.9324
  138OSM   H16G15135   2.344   2.198  -1.441 -1.4365 -1.8171  1.1715
  138OSM   C17F15136   2.268   2.368  -1.561 -0.0323  0.0539 -0.4454
  138OSM   H17F15137   2.165   2.379  -1.601 -2.0324 -2.3597  3.3988
  138OSM   H17G15138   2.330   2.309  -1.631 -0.0222 -1.2263  0.6040
  138OSM   C18F15139   2.337   2.503  -1.553  0.3474  0.6783  0.3668
  138OSM   H18F15140   2.447   2.492  -1.556  0.3366  0.1224  1.4433
  138OSM   H18G15141   2.310   2.562  -1.462  3.0497  0.8463  1.1422
  138OSM   H18H15142   2.318   2.576  -1.635 -0.6177  0.5753  0.4779
  139OSM      N15143   5.607   3.694   0.609  0.6120 -0.8281 -0.1756
  139OSM    C1515144   5.692   3.786   0.521 -0.0339 -0.2463 -0.4821
  139OSM   H15A15145   5.638   3.859   0.463  2.2042  1.4754 -0.4971
  139OSM   H15B15146   5.740   3.729   0.442 -0.4761 -0.9520 -0.2493
  139OSM   H15C15147   5.773   3.825   0.580 -0.4423  1.0485 -0.7518
  139OSM    C1415148   5.572   3.760   0.738 -0.1823  0.1490 -1.1127
  139OSM   H14A15149   5.658   3.772   0.802  0.1339  1.7645 -1.8017
  139OSM   H14B15150   5.502   3.696   0.790 -0.9539  2.0366  0.2960
  139OSM   H14C15151   5.521   3.855   0.735 -0.7947  0.0558  2.2630
  139OSM    C1315152   5.478   3.677   0.539  0.7867 -0.0001 -0.3528
  139OSM   H13A15153   5.490   3.606   0.459 -0.1888 -1.4098  0.6813
  139OSM   H13B15154   5.435   3.770   0.506  1.8337  0.1888 -1.2078
  139OSM   H13C15155   5.403   3.644   0.610  0.9477  2.7950  1.2863
  139OSM    C1215156   5.679   3.566   0.612 -0.0417  0.6346  0.2071
  139OSM   H12A15157   5.624   3.491   0.667  2.0040 -1.8171 -0.9079
  139OSM   H12B15158   5.770   3.578   0.669 -0.5270 -0.6862  1.3071
  139OSM    C1115159   5.711   3.489   0.479 -0.1682  0.2649  0.0717
  139OSM   H11A15160   5.794   3.416   0.490 -0.8349 -0.6453 -0.7985
  139OSM   H11B15161   5.739   3.555   0.394 -2.3503  1.3596  0.1180
  139OSM      P15162   5.595   3.314   0.319 -0.0892  0.0859  0.1262
  139OSM    O1315163   5.660   3.185   0.354 -0.0765 -0.2888 -0.4829
  139OSM    O1415164   5.459   3.301   0.271  0.2781  1.0394  0.2466
  139OSM    O1115165   5.688   3.396   0.216  0.3042  0.4888  0.5339
  139OSM    O1215166   5.592   3.410   0.448 -0.4831 -0.2837 -0.0979
  139OSM    C1S15167   5.693   3.370   0.074  0.9128  0.6046 -0.8511
  139OSM    H1S15168   5.615   3.302   0.035  0.5334  0.2773  0.4582
  139OSM    H1T15169   5.793   3.332   0.044  0.5327 -1.4367  0.3182
  139OSM     NF15170   5.648   3.459  -0.152 -0.0699 -0.3606 -0.1074
  139OSM    HNF15171   5.728   3.449  -0.211 -0.1704 -0.0241 -0.2990
  139OSM    C2S15172   5.660   3.501  -0.013 -0.9286  0.5404  0.9885
  139OSM    H2S15173   5.570   3.558   0.017  0.0692  2.0881  1.1437
  139OSM    C3S15174   5.773   3.601   0.010  0.4219 -0.1205 -0.4868
  139OSM    H3S15175   5.873   3.553   0.011  0.5512  0.0060 -2.6943
  139OSM     O315176   5.755   3.658   0.136 -0.1268 -0.0094 -0.3924
  139OSM    HO315177   5.738   3.576   0.184  0.0795 -1.0082 -1.9527
  139OSM    C4S15178   5.764   3.710  -0.095  0.5168  0.2985  1.2116
  139OSM    H4S15179   5.672   3.770  -0.093  1.0245  1.0684  1.8120
  139OSM    C5S15180   5.859   3.743  -0.184  0.3752 -0.8924  0.0226
  139OSM    H5S15181   5.957   3.694  -0.175  0.6490 -0.0369  2.5153
  139OSM    C6S15182   5.841   3.847  -0.293 -0.2117  0.1644 -0.1605
  139OSM    H6S15183   5.916   3.929  -0.287 -0.4149  0.4787 -1.5063
  139OSM    H6T15184   5.742   3.896  -0.283 -0.9922 -0.9293 -1.8588
  139OSM    C7S15185   5.835   3.781  -0.432 -0.8827  0.1805 -0.4805
  139OSM    H7S15186   5.737   3.728  -0.436 -0.7456 -0.1597  0.3500
  139OSM    H7T15187   5.914   3.703  -0.443 -1.2635 -0.4262  0.8944
  139OSM    C8S15188   5.849   3.876  -0.559 -0.0996 -0.5614  0.2047
  139OSM    H8S15189   5.945   3.933  -0.553  0.6427 -1.7871  0.3028
  139OSM    H8T15190   5.764   3.947  -0.552 -1.0369 -1.2552 -2.7616
  139OSM    C9S15191   5.845   3.811  -0.696  0.1889  0.7719  0.6150
  139OSM    H9S15192   5.760   3.739  -0.689 -0.0788  0.8245 -1.4829
  139OSM    H9T15193   5.933   3.746  -0.714 -0.5797 -0.0189 -0.4460
  139OSM   C10S15194   5.831   3.911  -0.807 -0.2154 -0.1602 -0.6838
  139OSM   H10S15195   5.898   3.993  -0.775  1.8466 -2.1926  0.5770
  139OSM   H10T15196   5.732   3.960  -0.809  0.5987  1.7650  1.3577
  139OSM   C11S15197   5.860   3.869  -0.950  0.3053 -0.0918 -0.8496
  139OSM   H11S15198   5.780   3.796  -0.976 -0.4048  0.8185 -1.2629
  139OSM   H11T15199   5.956   3.814  -0.946  0.7913  0.6236 -2.1935
  139OSM   C12S15200   5.839   3.980  -1.056 -0.2890 -0.5478 -1.0526
  139OSM   H12S15201   5.919   4.056  -1.042 -0.2290 -0.7857 -0.0893
  139OSM   H12T15202   5.743   4.032  -1.035  0.5311  0.7718 -0.4656
  139OSM   C13S15203   5.855   3.930  -1.199  0.4509  0.2924 -0.1228
  139OSM   H13S15204   5.773   3.857  -1.214  0.0916  0.3749  1.3299
  139OSM   H13T15205   5.950   3.872  -1.205 -0.1116 -0.7472  0.6695
  139OSM   C14S15206   5.852   4.056  -1.285 -0.0913  0.6085 -0.4697
  139OSM   H14S15207   5.937   4.122  -1.257  1.4250 -0.3562 -2.5582
  139OSM   H14T15208   5.753   4.106  -1.273 -0.4636 -0.1403 -0.3844
  139OSM   C15S15209   5.861   4.017  -1.432 -0.7257  0.7295  0.3182
  139OSM   H15S15210   5.775   3.960  -1.473 -0.5110  1.5333 -1.3080
  139OSM   H15T15211   5.960   3.967  -1.442 -1.2689 -0.0474 -1.5137
  139OSM   C16S15212   5.871   4.145  -1.512 -0.1612 -0.0365 -0.5551
  139OSM   H16S15213   5.922   4.228  -1.458  1.0542 -0.9982 -0.1937
  139OSM   H16T15214   5.767   4.182  -1.529 -0.3680 -0.8715 -1.2028
  139OSM   C17S15215   5.928   4.136  -1.656  0.4826  0.0077  0.4368
  139OSM   H17S15216   6.029   4.091  -1.649  0.1340 -0.5049  3.1820
  139OSM   H17T15217   5.944   4.242  -1.687 -2.7129  0.5585  0.3259
  139OSM   C18S15218   5.854   4.058  -1.771  0.1696 -0.2801 -0.2435
  139OSM   H18S15219   5.876   4.106  -1.869  1.1344 -2.5300 -1.2125
  139OSM   H18T15220   5.743   4.055  -1.763  0.0346  1.5083 -0.9037
  139OSM   H18U15221   5.890   3.953  -1.768 -0.2780 -0.4139  0.6676
  139OSM    C1F15222   5.532   3.412  -0.201 -0.4855 -0.2367 -0.0638
  139OSM     OF15223   5.433   3.397  -0.124 -0.8122 -0.1450 -0.1587
  139OSM    C2F15224   5.518   3.374  -0.343 -0.4035 -0.0140 -0.0925
  139OSM    H2F15225   5.604   3.313  -0.377  1.5663  3.0335 -1.0436
  139OSM    H2G15226   5.531   3.463  -0.408 -0.2061 -0.0456 -0.0966
  139OSM    C3F15227   5.382   3.312  -0.361  0.1899 -0.1875  0.1104
  139OSM    H3F15228   5.312   3.397  -0.346  0.8125  0.1183  1.3554
  139OSM    H3G15229   5.365   3.234  -0.283  0.4868  0.0717  0.4357
  139OSM    C4F15230   5.352   3.244  -0.494 -0.1782 -0.1550  0.4721
  139OSM    H4F15231   5.254   3.194  -0.482 -1.4493  1.8752 -0.8416
  139OSM    H4G15232   5.431   3.168  -0.512  0.5234  0.5473  0.4680
  139OSM    C5F15233   5.342   3.338  -0.613  0.2725  0.1076  0.4580
  139OSM    H5F15234   5.438   3.393  -0.606  1.1440 -1.3921  0.8150
  139OSM    H5G15235   5.251   3.399  -0.595  0.2694 -0.2095  1.6278
  139OSM    C6F15236   5.335   3.281  -0.762  0.1384 -0.3555 -0.5223
  139OSM    H6F15237   5.245   3.216  -0.766 -0.1860 -0.2771  2.6328
  139OSM    H6G15238   5.422   3.214  -0.783  1.3124  1.6358 -2.4402
  139OSM    C7F15239   5.336   3.398  -0.869 -0.4406  0.0734  0.0812
  139OSM    H7F15240   5.419   3.466  -0.841 -0.7399  0.6973 -0.5138
  139OSM    H7G15241   5.244   3.460  -0.860 -0.5296 -0.2719  2.0241
  139OSM    C8F15242   5.362   3.355  -1.019 -0.1165 -0.0468  0.5039
  139OSM    H8F15243   5.289   3.275  -1.041 -1.3934  0.5996  2.1937
  139OSM    H8G15244   5.463   3.309  -1.019  0.5733  1.2525 -2.3802
  139OSM    C9F15245   5.360   3.474  -1.119  0.6438  0.3384  0.5185
  139OSM    H9F15246   5.448   3.539  -1.129  1.4367 -0.6664  0.8124
  139OSM   C10F15247   5.264   3.505  -1.208  0.0911  0.0526 -0.2847
  139OSM   H10F15248   5.278   3.594  -1.272  1.4241 -1.0109 -1.5270
  139OSM   C11F15249   5.138   3.422  -1.226 -0.1609  0.2484  0.0531
  139OSM   H11F15250   5.044   3.480  -1.234 -0.0984  0.4036  0.4643
  139OSM   H11G15251   5.125   3.351  -1.142  1.3089  0.7584  0.7593
  139OSM   C12F15252   5.133   3.338  -1.354  0.7881 -0.2619 -0.1042
  139OSM   H12F15253   5.047   3.270  -1.336 -0.4344  1.1331 -0.4316
  139OSM   H12G15254   5.217   3.266  -1.363 -0.4851 -1.7260 -0.7651
  139OSM   C13F15255   5.123   3.418  -1.485 -0.6626 -0.2411 -0.0161
  139OSM   H13F15256   5.157   3.351  -1.567  2.4804  0.5818  0.4803
  139OSM   H13G15257   5.203   3.495  -1.479 -0.5728 -0.4566  2.5563
  139OSM   C14F15258   4.990   3.492  -1.496  0.6690 -0.7439 -0.1326
  139OSM   H14F15259   4.960   3.567  -1.419 -0.4356 -0.9213 -0.3641
  139OSM   H14G15260   4.915   3.413  -1.473  0.2940 -0.8183 -1.5565
  139OSM   C15F15261   4.959   3.542  -1.636 -0.1743 -0.0772  0.2757
  139OSM   H15F15262   4.849   3.556  -1.649 -0.7956 -4.0423  0.0360
  139OSM   H15G15263   4.983   3.456  -1.702  2.3582  1.6941 -1.2935
  139OSM   C16F15264   5.038   3.666  -1.672  0.6210  0.0100 -0.0743
  139OSM   H16F15265   5.144   3.652  -1.642 -0.0432  0.2808  2.6597
  139OSM   H16G15266   5.012   3.742  -1.596 -0.0079 -1.4268  1.2205
  139OSM   C17F15267   5.008   3.722  -1.813 -0.3587  0.1062  0.0345
  139OSM   H17F15268   5.076   3.810  -1.822  0.3071 -0.5110 -1.3760
  139OSM   H17G15269   4.903   3.757  -1.823  0.4102  2.4156 -0.7119
  139OSM   C18F15270   5.038   3.631  -1.936 -0.5026 -0.0251 -0.6886
  139OSM   H18F15271   5.009   3.680  -2.031  1.0866 -0.0386 -1.1955
  139OSM   H18G15272   4.976   3.538  -1.926 -3.5969  1.8228 -1.2768
  139OSM   H18H15273   5.143   3.594  -1.931 -1.3225 -2.4167  1.1711
  140OSM      N15274   2.997   1.917   8.871  0.0439  0.3469 -0.3153
  140OSM    C1515275   2.928   1.849   8.769 -1.1634 -0.2375 -0.7693
  140OSM   H15A15276   2.985   1.781   8.707  1.1492  1.1258 -0.2486
  140OSM   H15B15277   2.884   1.917   8.697 -0.1474  1.0666 -0.1914
  140OSM   H15C15278   2.854   1.790   8.820  1.6729 -1.9279  1.7086
  140OSM    C1415279   3.038   1.808   8.968  0.2967  0.6783 -0.3927
  140OSM   H14A15280   3.064   1.851   9.063 -0.1869 -0.9004  0.4907
  140OSM   H14B15281   3.118   1.742   8.939 -0.9656 -0.9632 -0.2720
  140OSM   H14C15282   2.950   1.748   8.986  1.5472 -0.7581  1.1818
  140OSM    C1315283   3.117   1.983   8.817 -0.7633  0.5479  0.6002
  140OSM   H13A15284   3.183   1.915   8.765 -1.1381  0.7852 -0.2052
  140OSM   H13B15285   3.178   2.037   8.888 -1.5157  0.1219  1.5933
  140OSM   H13C15286   3.089   2.062   8.749 -0.2242  0.2248 -0.0067
  140OSM    C1215287   2.903   2.012   8.946  0.2215 -0.0034  0.3009
  140OSM   H12A15288   2.866   2.090   8.881 -0.9478 -1.0975 -0.3799
  140OSM   H12B15289   2.958   2.055   9.028  0.1770  1.5888 -0.4553
  140OSM    C1115290   2.775   1.951   9.012  0.0279  0.3921  0.6649
  140OSM   H11A15291   2.747   2.025   9.090 -1.3703 -0.8536  1.3909
  140OSM   H11B15292   2.787   1.848   9.054  0.6034  0.0277 -0.3523
  140OSM      P15293   2.586   2.058   8.853 -0.0643  0.2970  0.2581
  140OSM    O1315294   2.458   2.036   8.913 -0.2316 -0.3809 -0.2200
  140OSM    O1415295   2.657   2.189   8.867 -0.4544  0.2748 -0.0445
  140OSM    O1115296   2.580   2.020   8.699  0.5509 -0.2271  0.4777
  140OSM    O1215297   2.676   1.945   8.912 -0.0444 -0.7555  0.4714
  140OSM    C1S15298   2.536   1.892   8.656  0.4382  0.6652  0.0198
  140OSM    H1S15299   2.435   1.870   8.699  0.3084 -1.9489 -1.4206
  140OSM    H1T15300   2.606   1.813   8.689  1.1599  0.4494 -1.9144
  140OSM     NF15301   2.436   1.791   8.443 -0.4594  0.0608  0.2156
  140OSM    HNF15302   2.478   1.719   8.389 -0.0041  0.3525  0.1840
  140OSM    C2S15303   2.526   1.890   8.496  0.2937  0.2778  0.4919
  140OSM    H2S15304   2.467   1.980   8.468 -1.4791 -1.4622 -1.6905
  140OSM    C3S15305   2.669   1.893   8.434 -0.0120  0.2581 -0.6965
  140OSM    H3S15306   2.704   1.789   8.445  0.7465  0.7171  1.8853
  140OSM     O315307   2.765   1.968   8.512 -0.5657 -0.8239 -0.5615
  140OSM    HO315308   2.711   1.979   8.590 -1.2185 -1.4318 -0.9164
  140OSM    C4S15309   2.665   1.921   8.283 -0.8170  0.1255 -0.2202
  140OSM    H4S15310   2.667   1.841   8.207  0.6114  0.8923 -1.0565
  140OSM    C5S15311   2.672   2.047   8.237  0.6737  0.5832  0.1621
  140OSM    H5S15312   2.652   2.127   8.309  1.2505 -0.4980  1.5643
  140OSM    C6S15313   2.673   2.076   8.091 -0.5749  0.4353 -0.1402
  140OSM    H6S15314   2.773   2.121   8.069 -0.9373  1.2051 -0.2322
  140OSM    H6T15315   2.594   2.148   8.060 -1.9437 -1.0591 -0.2342
  140OSM    C7S15316   2.669   1.966   7.983  0.6525 -0.2456  0.4417
  140OSM    H7S15317   2.582   1.898   7.991 -0.8550  1.5737  0.2208
  140OSM    H7T15318   2.746   1.896   8.021  0.3655  0.4776  2.4759
  140OSM    C8S15319   2.694   2.013   7.844  0.0181 -0.6484  0.6465
  140OSM    H8S15320   2.729   1.934   7.774  0.0971  0.2482 -0.3373
  140OSM    H8T15321   2.772   2.090   7.859 -0.2728 -0.2513  0.1755
  140OSM    C9S15322   2.579   2.087   7.781 -0.2609  0.4226  0.3641
  140OSM    H9S15323   2.551   2.175   7.844  1.2425  2.0020 -1.0824
  140OSM    H9T15324   2.495   2.013   7.782 -0.8126  1.0377  0.7231
  140OSM   C10S15325   2.620   2.132   7.640  0.7853  0.4211 -0.0857
  140OSM   H10S15326   2.723   2.174   7.645  0.7634  0.3329  1.8280
  140OSM   H10T15327   2.548   2.212   7.614 -0.2227  0.1580  1.7543
  140OSM   C11S15328   2.631   2.025   7.532  0.2182 -0.1228 -0.1269
  140OSM   H11S15329   2.548   1.952   7.535 -0.2573  0.3272 -1.5041
  140OSM   H11T15330   2.724   1.964   7.533  0.2641 -0.1849  3.2876
  140OSM   C12S15331   2.614   2.091   7.400 -0.2943  0.9585 -0.5938
  140OSM   H12S15332   2.697   2.162   7.381 -0.6488  1.1156 -1.5854
  140OSM   H12T15333   2.516   2.143   7.397 -0.5125  0.6468  0.5460
  140OSM   C13S15334   2.609   1.988   7.287 -0.6945 -0.6731  0.0196
  140OSM   H13S15335   2.504   1.952   7.282 -0.9030  0.0896 -2.7602
  140OSM   H13T15336   2.684   1.909   7.308 -0.0076 -0.0883 -0.1774
  140OSM   C14S15337   2.621   2.051   7.152  0.3164  0.2518  0.1520
  140OSM   H14S15338   2.731   2.054   7.136  0.5529 -0.7902  1.3734
  140OSM   H14T15339   2.580   2.155   7.154  1.6564  0.8773 -1.8387
  140OSM   C15S15340   2.556   1.962   7.042 -0.5082  0.4175 -0.3639
  140OSM   H15S15341   2.454   1.926   7.068 -0.1529 -1.2594 -1.1621
  140OSM   H15T15342   2.621   1.873   7.038 -0.3921  0.5333 -1.1591
  140OSM   C16S15343   2.554   2.037   6.907 -0.0522 -0.5407  0.7892
  140OSM   H16S15344   2.656   2.077   6.889 -1.1159  2.5938  1.0990
  140OSM   H16T15345   2.473   2.113   6.903  0.6093  0.1645  0.4572
  140OSM   C17S15346   2.525   1.937   6.791  0.1257  0.1353  0.3599
  140OSM   H17S15347   2.433   1.881   6.818  0.0644  0.0462 -0.0224
  140OSM   H17T15348   2.599   1.855   6.785 -1.3179 -1.1005 -2.0806
  140OSM   C18S15349   2.506   2.017   6.659  0.7512 -0.1961 -0.0396
  140OSM   H18S15350   2.467   1.973   6.565  1.2090  1.4190 -1.0269
  140OSM   H18T15351   2.609   2.043   6.626  1.0636 -1.0190  0.2630
  140OSM   H18U15352   2.453   2.107   6.698  0.5850  0.6274 -2.0355
  140OSM    C1F15353   2.306   1.782   8.462 -0.4434 -0.2873 -0.4381
  140OSM     OF15354   2.251   1.871   8.532 -0.3121  0.4407 -0.2489
  140OSM    C2F15355   2.238   1.667   8.403 -0.0780  0.5014 -0.0670
  140OSM    H2F15356   2.248   1.583   8.475  1.5949  0.3914 -0.3810
  140OSM    H2G15357   2.311   1.642   8.323 -0.5211  0.9354 -0.6144
  140OSM    C3F15358   2.099   1.684   8.353  0.7252  0.3251  0.7888
  140OSM    H3F15359   2.068   1.776   8.298 -2.1983  0.0540  1.7878
  140OSM    H3G15360   2.034   1.701   8.441 -1.3568  4.2640 -1.2267
  140OSM    C4F15361   2.060   1.569   8.259 -0.3282 -0.4646 -0.3969
  140OSM    H4F15362   1.954   1.600   8.245  0.5507  4.1217  1.1476
  140OSM    H4G15363   2.070   1.468   8.303 -2.4878 -1.3310 -1.7186
  140OSM    C5F15364   2.118   1.583   8.112  0.1199 -0.2804 -0.2084
  140OSM    H5F15365   2.221   1.624   8.122  0.0650 -0.1719 -0.0744
  140OSM    H5G15366   2.064   1.669   8.066  0.0375 -0.3918 -0.3207
  140OSM    C6F15367   2.093   1.460   8.025  1.3293  0.3397 -0.3929
  140OSM    H6F15368   1.990   1.437   7.990  1.8032 -0.7881 -1.1085
  140OSM    H6G15369   2.120   1.373   8.090  0.6212  0.3413 -0.0895
  140OSM    C7F15370   2.187   1.470   7.913 -1.4193 -0.7200 -0.8183
  140OSM    H7F15371   2.282   1.516   7.946 -2.1414  1.6278 -1.7831
  140OSM    H7G15372   2.136   1.529   7.833 -0.7578 -1.4918 -1.8305
  140OSM    C8F15373   2.221   1.335   7.855 -0.2992 -0.3773 -0.2939
  140OSM    H8F15374   2.131   1.299   7.802 -0.3299 -1.8987  0.7540
  140OSM    H8G15375   2.250   1.254   7.925  2.0984 -1.9512 -2.8833
  140OSM    C9F15376   2.333   1.349   7.762 -0.4485  0.4842 -0.1759
  140OSM    H9F15377   2.404   1.430   7.786 -2.1324  1.6017  1.3378
  140OSM   C10F15378   2.349   1.269   7.657 -0.0471  0.3302 -0.5221
  140OSM   H10F15379   2.435   1.291   7.592 -0.9715  0.6172 -1.6850
  140OSM   C11F15380   2.272   1.146   7.610  0.3437  0.6771  0.0613
  140OSM   H11F15381   2.163   1.168   7.613  0.2245  0.0263  1.0618
  140OSM   H11G15382   2.272   1.066   7.687  0.1832  2.4820  2.0283
  140OSM   C12F15383   2.305   1.078   7.476  0.0911 -0.4146  0.0933
  140OSM   H12F15384   2.237   0.992   7.459 -0.8107  0.7692 -3.0927
  140OSM   H12G15385   2.411   1.047   7.465  0.4908  0.6999  0.6928
  140OSM   C13F15386   2.275   1.159   7.350 -0.5617  0.2121 -0.0884
  140OSM   H13F15387   2.334   1.253   7.354 -0.7387  0.4605 -2.1540
  140OSM   H13G15388   2.169   1.193   7.352 -0.7186  0.0149 -2.3986
  140OSM   C14F15389   2.297   1.096   7.210 -0.2569 -0.0718  0.7166
  140OSM   H14F15390   2.244   1.001   7.189 -0.0299  0.5019 -3.4804
  140OSM   H14G15391   2.405   1.073   7.197 -0.4480 -0.6330  0.0199
  140OSM   C15F15392   2.272   1.194   7.097  0.4519 -0.1079  0.2930
  140OSM   H15F15393   2.352   1.272   7.100  1.3432 -0.8637 -1.7722
  140OSM   H15G15394   2.176   1.249   7.104  0.9444  0.7733  0.3080
  140OSM   C16F15395   2.250   1.133   6.955 -0.4510  0.2846  0.2877
  140OSM   H16F15396   2.223   1.208   6.878 -0.0390 -1.2452 -1.4028
  140OSM   H16G15397   2.165   1.063   6.970  0.4643 -1.1253 -0.8222
  140OSM   C17F15398   2.361   1.036   6.912  0.1063 -0.2903 -0.2764
  140OSM   H17F15399   2.332   1.001   6.811 -1.8939 -0.3524  0.2850
  140OSM   H17G15400   2.368   0.951   6.983 -0.2968  0.4838  0.7062
  140OSM   C18F15401   2.499   1.101   6.903 -0.0812  0.0089  0.3405
  140OSM   H18F15402   2.573   1.038   6.850  0.2315  1.5312 -1.0822
  140OSM   H18G15403   2.539   1.096   7.007 -0.0023  0.3532  0.3253
  140OSM   H18H15404   2.497   1.205   6.864  1.1335 -0.7142 -1.8004
  141OSM      N15405   4.843   1.418   0.589 -0.3072  0.9624  0.1265
  141OSM    C1515406   4.898   1.321   0.684  0.0768  0.3868 -0.0337
  141OSM   H15A15407   4.882   1.357   0.785 -0.6097  3.3647 -1.1044
  141OSM   H15B15408   5.002   1.303   0.661 -0.3802 -2.3586 -0.3802
  141OSM   H15C15409   4.847   1.228   0.664  1.2001 -0.3927  0.6136
  141OSM    C1415410   4.701   1.468   0.625 -0.1310  0.5168  0.3069
  141OSM   H14A15411   4.663   1.532   0.547 -1.3103 -0.0369  0.4035
  141OSM   H14B15412   4.706   1.538   0.707 -0.4849 -1.7129  2.3278
  141OSM   H14C15413   4.628   1.391   0.645 -0.0898 -0.0560 -1.5438
  141OSM    C1315414   4.937   1.534   0.573  0.0426 -0.0206 -0.8997
  141OSM   H13A15415   4.943   1.583   0.669  0.6038 -0.6417 -0.6180
  141OSM   H13B15416   4.898   1.594   0.492 -4.1920 -2.4141 -0.9436
  141OSM   H13C15417   5.037   1.496   0.558 -0.2163 -1.4733  0.7010
  141OSM    C1215418   4.833   1.350   0.451 -0.2153  0.2841  0.2764
  141OSM   H12A15419   4.765   1.267   0.455 -1.2500  1.0829 -0.1195
  141OSM   H12B15420   4.936   1.321   0.435 -0.3914 -0.1966  0.0118
  141OSM    C1115421   4.798   1.444   0.329  0.1140  0.4483  0.5658
  141OSM   H11A15422   4.805   1.388   0.233 -1.4324 -2.0371  1.8123
  141OSM   H11B15423   4.880   1.519   0.318  0.8764 -0.6618 -1.9362
  141OSM      P15424   4.543   1.441   0.277 -0.0498  0.2055 -0.1080
  141OSM    O1315425   4.524   1.299   0.322 -0.3181  0.0203 -0.4291
  141OSM    O1415426   4.436   1.537   0.308 -0.1574 -0.3120  0.4182
  141OSM    O1115427   4.582   1.445   0.123 -0.0533  0.1859 -0.8177
  141OSM    O1215428   4.668   1.506   0.339  0.2153 -0.4739 -0.0256
  141OSM    C1S15429   4.481   1.486   0.030  0.5571 -0.2202 -0.3245
  141OSM    H1S15430   4.446   1.591   0.043  2.3723  0.5567 -1.3084
  141OSM    H1T15431   4.399   1.412   0.039 -1.0281  1.6441  1.5815
  141OSM     NF15432   4.407   1.535  -0.192  0.2463 -0.5234 -0.0972
  141OSM    HNF15433   4.338   1.475  -0.231  0.1884 -1.0328  0.7865
  141OSM    C2S15434   4.522   1.491  -0.123  0.4742 -0.3578 -0.4146
  141OSM    H2S15435   4.611   1.556  -0.139 -0.5915  1.1258 -0.5878
  141OSM    C3S15436   4.562   1.353  -0.163  0.7673  0.2872 -0.5537
  141OSM    H3S15437   4.479   1.286  -0.133  2.4898 -0.0160  4.3868
  141OSM     O315438   4.666   1.301  -0.085  0.0742 -0.6466  0.1632
  141OSM    HO315439   4.656   1.357  -0.007 -1.2538 -0.7105  0.0650
  141OSM    C4S15440   4.602   1.356  -0.309 -0.3281  0.9239 -0.3076
  141OSM    H4S15441   4.532   1.307  -0.379  0.1283 -0.7343  0.3325
  141OSM    C5S15442   4.727   1.360  -0.354  0.4944  0.6363  0.4198
  141OSM    H5S15443   4.806   1.370  -0.278  0.7275 -2.9526  0.7964
  141OSM    C6S15444   4.765   1.336  -0.499 -0.3765  0.0297 -0.3634
  141OSM    H6S15445   4.740   1.233  -0.535  0.0580 -0.3566  0.4131
  141OSM    H6T15446   4.876   1.339  -0.501 -0.3543  0.6452  0.7308
  141OSM    C7S15447   4.715   1.422  -0.611  0.0719  0.3243  0.9510
  141OSM    H7S15448   4.715   1.528  -0.578 -1.1876  1.4885 -2.2969
  141OSM    H7T15449   4.609   1.402  -0.635  0.5970  0.0628 -1.4355
  141OSM    C8S15450   4.789   1.394  -0.742  1.1528 -0.6209 -0.2408
  141OSM    H8S15451   4.756   1.298  -0.786 -1.8725 -1.1738  2.8161
  141OSM    H8T15452   4.899   1.387  -0.737  1.1882  0.2774  0.5956
  141OSM    C9S15453   4.756   1.505  -0.844 -0.7407  0.4972 -0.4681
  141OSM    H9S15454   4.822   1.591  -0.821 -1.4085  1.1852 -1.0799
  141OSM    H9T15455   4.657   1.548  -0.819 -2.3153 -3.3262  0.5746
  141OSM   C10S15456   4.781   1.464  -0.990 -0.4144 -0.0863 -0.1133
  141OSM   H10S15457   4.712   1.380  -1.013  1.2552 -1.0732 -1.7289
  141OSM   H10T15458   4.886   1.430  -0.997 -0.3794 -0.4195  1.5584
  141OSM   C11S15459   4.759   1.576  -1.089  0.3271  1.0881  0.1767
  141OSM   H11S15460   4.860   1.622  -1.099  1.7048 -1.5868  0.7371
  141OSM   H11T15461   4.683   1.654  -1.064 -0.4971  0.1948  0.5056
  141OSM   C12S15462   4.721   1.513  -1.226  0.1440 -0.6646 -0.2400
  141OSM   H12S15463   4.616   1.479  -1.215 -0.2610  1.0467  2.0461
  141OSM   H12T15464   4.797   1.433  -1.241  0.3843 -0.2342 -1.3502
  141OSM   C13S15465   4.729   1.609  -1.344  0.6915  0.6171  0.9134
  141OSM   H13S15466   4.835   1.627  -1.373  0.3986 -1.9477 -2.3118
  141OSM   H13T15467   4.680   1.704  -1.315  0.6256  0.7785  0.2751
  141OSM   C14S15468   4.644   1.553  -1.463 -0.0338  0.1345  0.1116
  141OSM   H14S15469   4.626   1.634  -1.537 -2.5387  0.9600  1.5177
  141OSM   H14T15470   4.552   1.545  -1.401  0.4145 -2.1012  0.5840
  141OSM   C15S15471   4.673   1.423  -1.533 -0.0028  0.1136  0.6282
  141OSM   H15S15472   4.599   1.410  -1.615  0.5633  4.0147 -0.6754
  141OSM   H15T15473   4.674   1.334  -1.466  2.5836 -0.2458  0.1947
  141OSM   C16S15474   4.818   1.414  -1.592  0.3012 -0.5922 -0.3638
  141OSM   H16S15475   4.886   1.445  -1.509 -0.5528  1.0534 -0.2403
  141OSM   H16T15476   4.821   1.500  -1.663 -1.3103 -1.6594 -1.7979
  141OSM   C17S15477   4.855   1.283  -1.664  0.1366 -0.2319  0.3219
  141OSM   H17S15478   4.843   1.200  -1.592 -1.6188 -2.9299 -2.8317
  141OSM   H17T15479   4.955   1.293  -1.712 -0.1708 -0.2071 -0.3243
  141OSM   C18S15480   4.767   1.258  -1.785  0.4993 -0.0877 -0.4145
  141OSM   H18S15481   4.772   1.334  -1.866  0.6071 -0.6459 -0.9291
  141OSM   H18T15482   4.666   1.256  -1.738  0.8249  0.5512  0.3377
  141OSM   H18U15483   4.784   1.160  -1.832 -0.3613  0.6200 -2.2757
  141OSM    C1F15484   4.366   1.665  -0.189  0.2487  0.6489  0.4270
  141OSM     OF15485   4.422   1.747  -0.119 -0.1014 -0.1257  0.0241
  141OSM    C2F15486   4.244   1.700  -0.269  1.0646 -0.3842  0.9833
  141OSM    H2F15487   4.192   1.780  -0.212 -1.1520  0.9656 -2.6112
  141OSM    H2G15488   4.172   1.617  -0.285 -0.8423  1.0358  1.7662
  141OSM    C3F15489   4.269   1.766  -0.414  0.2824  0.0903 -0.8131
  141OSM    H3F15490   4.352   1.721  -0.473  1.3633  2.0464 -0.8524
  141OSM    H3G15491   4.299   1.870  -0.390 -1.5146  1.1172 -2.5761
  141OSM    C4F15492   4.140   1.776  -0.500 -0.2740 -0.0311 -0.2556
  141OSM    H4F15493   4.063   1.837  -0.449  0.8325  1.3911 -0.2481
  141OSM    H4G15494   4.095   1.675  -0.513  1.2762 -0.9255  0.9275
  141OSM    C5F15495   4.174   1.850  -0.626 -0.2031 -0.2516  0.3040
  141OSM    H5F15496   4.239   1.789  -0.692 -0.4380 -1.4810  1.1591
  141OSM    H5G15497   4.236   1.938  -0.598 -0.3533 -0.4610  1.3721
  141OSM    C6F15498   4.043   1.898  -0.691 -0.0423  0.1170  0.4518
  141OSM    H6F15499   3.970   1.938  -0.617 -1.0048 -0.0236 -0.4002
  141OSM    H6G15500   3.989   1.809  -0.730 -2.3694  1.5218  0.2837
  141OSM    C7F15501   4.080   1.999  -0.797  0.2287  0.9637 -0.6773
  141OSM    H7F15502   4.173   1.971  -0.851  0.6917  1.4526 -0.1533
  141OSM    H7G15503   4.094   2.096  -0.744 -1.5203  0.0185  1.6951
  141OSM    C8F15504   3.965   2.034  -0.898  0.5631  0.3158  0.2149
  141OSM    H8F15505   3.885   2.096  -0.854 -0.7456  0.7182 -2.4965
  141OSM    H8G15506   3.917   1.936  -0.918 -0.4689  0.5727  1.3443
  141OSM    C9F15507   3.998   2.107  -1.022 -0.8338 -0.0063 -0.1994
  141OSM    H9F15508   4.022   2.212  -1.001  1.7994 -0.1810 -1.9276
  141OSM   C10F15509   4.015   2.052  -1.140 -0.7924  0.1556 -0.2352
  141OSM   H10F15510   4.052   2.112  -1.225 -0.3569  0.6107  0.2668
  141OSM   C11F15511   4.021   1.904  -1.173  0.5933 -0.0156 -0.1954
  141OSM   H11F15512   3.933   1.867  -1.230 -0.4039  0.6010  0.8849
  141OSM   H11G15513   4.026   1.846  -1.078 -0.3396  1.2024  0.6367
  141OSM   C12F15514   4.154   1.871  -1.244  0.0130 -0.3059  0.4242
  141OSM   H12F15515   4.162   1.760  -1.247  0.9145 -0.2747  1.1610
  141OSM   H12G15516   4.247   1.901  -1.191  0.6582 -1.8450  0.2220
  141OSM   C13F15517   4.161   1.913  -1.390  0.8612 -0.1149 -0.1555
  141OSM   H13F15518   4.164   2.024  -1.393  0.2723  0.0338  2.6257
  141OSM   H13G15519   4.067   1.892  -1.445  0.5717 -0.0079  0.2952
  141OSM   C14F15520   4.282   1.843  -1.447  0.1795 -0.0077 -0.1948
  141OSM   H14F15521   4.246   1.738  -1.441 -0.5703  0.1762 -1.2144
  141OSM   H14G15522   4.376   1.841  -1.388 -0.2288 -4.0278  0.6358
  141OSM   C15F15523   4.291   1.874  -1.600 -0.1866  0.5739 -0.2953
  141OSM   H15F15524   4.295   1.984  -1.616 -1.3960  0.3853 -2.2027
  141OSM   H15G15525   4.201   1.837  -1.654  0.0619  0.8971 -0.9426
  141OSM   C16F15526   4.414   1.811  -1.671  1.0321  0.1698 -0.2690
  141OSM   H16F15527   4.393   1.702  -1.670 -1.1496  0.5612  0.6029
  141OSM   H16G15528   4.513   1.825  -1.621 -0.0335  2.0026  1.4565
  141OSM   C17F15529   4.420   1.854  -1.817 -0.3186  0.4742 -0.0373
  141OSM   H17F15530   4.472   1.948  -1.842  0.3569 -0.0481 -0.6610
  141OSM   H17G15531   4.320   1.864  -1.866 -0.0056 -0.4863 -0.9276
  141OSM   C18F15532   4.482   1.742  -1.899  0.5924 -0.5906  0.8958
  141OSM   H18F15533   4.416   1.653  -1.892  0.0226 -0.3888 -1.2457
  141OSM   H18G15534   4.583   1.714  -1.862 -0.2411 -1.7693  2.3805
  141OSM   H18H15535   4.479   1.769  -2.006 -0.7480  0.4218  1.1649
  142OSM      N15536   6.494   5.226   0.969  0.4731 -0.4561  0.0811
  142OSM    C1515537   6.342   5.212   0.986  0.2012  0.3507 -0.2536
  142OSM   H15A15538   6.319   5.154   1.074  0.8185  1.0957  0.4192
  142OSM   H15B15539   6.293   5.175   0.897  0.0169 -2.4222  0.8831
  142OSM   H15C15540   6.296   5.310   0.988 -0.6388  0.0104 -1.6879
  142OSM    C1415541   6.545   5.316   1.079 -0.7695 -0.0528 -0.1981
  142OSM   H14A15542   6.510   5.417   1.064 -0.3493  0.5037  2.1848
  142OSM   H14B15543   6.652   5.306   1.072 -0.8763 -1.3810 -0.1178
  142OSM   H14C15544   6.517   5.277   1.175 -1.2303 -0.9917 -0.7004
  142OSM    C1315545   6.569   5.101   0.979  0.1721  0.1937 -0.4595
  142OSM   H13A15546   6.669   5.110   0.939 -0.1304 -0.8200 -1.5193
  142OSM   H13B15547   6.526   5.027   0.912  1.4756 -1.6317  0.6268
  142OSM   H13C15548   6.572   5.056   1.077 -1.4042 -2.6629 -1.5911
  142OSM    C1215549   6.519   5.293   0.838  0.1399  0.0405  0.3566
  142OSM   H12A15550   6.623   5.321   0.833  0.3209 -0.7654 -1.3458
  142OSM   H12B15551   6.453   5.379   0.840  0.3510  0.2081  0.1901
  142OSM    C1115552   6.496   5.217   0.709 -0.2868 -0.2242 -0.5521
  142OSM   H11A15553   6.556   5.124   0.701 -0.6519 -0.4630 -0.5359
  142OSM   H11B15554   6.535   5.283   0.629  0.3625 -0.0286 -0.0837
  142OSM      P15555   6.267   5.306   0.633  0.3264  0.6211 -0.1407
  142OSM    O1315556   6.138   5.247   0.590 -0.7538  0.8337 -0.5936
  142OSM    O1415557   6.258   5.416   0.737 -0.3576  0.6611  0.2492
  142OSM    O1115558   6.351   5.353   0.512  0.5624 -0.3743  0.4070
  142OSM    O1215559   6.360   5.191   0.696 -0.1249 -0.2833 -0.4560
  142OSM    C1S15560   6.352   5.273   0.389 -0.7293 -0.8154 -0.0965
  142OSM    H1S15561   6.246   5.262   0.359 -1.8359 -0.4182  3.1910
  142OSM    H1T15562   6.391   5.171   0.412  1.6407 -0.0625 -0.5735
  142OSM     NF15563   6.457   5.239   0.161  0.1180  0.3084  0.2461
  142OSM    HNF15564   6.545   5.193   0.167  0.0506  0.3285  1.8271
  142OSM    C2S15565   6.437   5.335   0.266  0.1905  0.0094  0.0328
  142OSM    H2S15566   6.369   5.414   0.227  0.0375 -0.6347 -1.0626
  142OSM    C3S15567   6.567   5.407   0.320  0.8422 -0.5270  0.1337
  142OSM    H3S15568   6.631   5.325   0.359  0.5709 -0.0920  1.5434
  142OSM     O315569   6.542   5.497   0.423 -0.2342  0.2825  0.0860
  142OSM    HO315570   6.461   5.476   0.471  0.0815 -0.9815  0.1161
  142OSM    C4S15571   6.642   5.485   0.209 -0.1753  0.0604 -0.4320
  142OSM    H4S15572   6.735   5.435   0.178 -0.0684 -1.9570  2.6778
  142OSM    C5S15573   6.611   5.604   0.161 -0.1135  0.0017  0.1137
  142OSM    H5S15574   6.532   5.666   0.206 -0.5538  0.8382 -1.7313
  142OSM    C6S15575   6.694   5.676   0.057 -0.5280  0.2117  0.4106
  142OSM    H6S15576   6.792   5.631   0.031 -0.1244  1.3025 -0.0336
  142OSM    H6T15577   6.721   5.772   0.106  1.3104 -0.4336  0.7484
  142OSM    C7S15578   6.628   5.713  -0.080  0.4550 -0.2554 -0.4005
  142OSM    H7S15579   6.690   5.759  -0.160 -0.5285 -3.1805 -3.0322
  142OSM    H7T15580   6.543   5.783  -0.065 -0.1782 -0.6690 -1.9003
  142OSM    C8S15581   6.573   5.592  -0.159  0.0783 -0.3929 -0.1672
  142OSM    H8S15582   6.495   5.525  -0.119  1.3240 -1.6844  0.2011
  142OSM    H8T15583   6.668   5.536  -0.171  2.2074  2.7592  0.5013
  142OSM    C9S15584   6.519   5.626  -0.306 -0.2036 -0.7966 -0.1043
  142OSM    H9S15585   6.592   5.700  -0.344 -1.1119 -0.1227 -0.5758
  142OSM    H9T15586   6.416   5.667  -0.304 -0.2290 -0.8897  1.2568
  142OSM   C10S15587   6.532   5.503  -0.403  0.3125  0.4037  0.6878
  142OSM   H10S15588   6.467   5.419  -0.369  0.1458  0.1254 -0.3105
  142OSM   H10T15589   6.640   5.475  -0.399  0.4011  0.8351  2.4230
  142OSM   C11S15590   6.480   5.548  -0.546 -0.0857 -1.0140 -0.2838
  142OSM   H11S15591   6.545   5.633  -0.576  0.2668 -1.4543 -0.7843
  142OSM   H11T15592   6.377   5.586  -0.528  0.1462  0.0126 -1.0074
  142OSM   C12S15593   6.492   5.438  -0.646  0.6294 -0.1637  0.4444
  142OSM   H12S15594   6.407   5.366  -0.634 -0.5101  0.8271 -1.3109
  142OSM   H12T15595   6.590   5.391  -0.622  2.2759  1.5768 -2.4016
  142OSM   C13S15596   6.481   5.484  -0.787 -0.4809  0.2928 -0.2537
  142OSM   H13S15597   6.562   5.558  -0.802 -1.7629  1.6990 -0.4868
  142OSM   H13T15598   6.383   5.531  -0.812 -0.8058  1.0440  2.1381
  142OSM   C14S15599   6.510   5.371  -0.886 -0.2221  0.8072  0.1480
  142OSM   H14S15600   6.433   5.297  -0.859  0.1894  0.5571  0.6518
  142OSM   H14T15601   6.604   5.314  -0.870 -0.7975 -0.6136 -1.2266
  142OSM   C15S15602   6.478   5.395  -1.031  0.4402 -0.7484 -0.5120
  142OSM   H15S15603   6.375   5.436  -1.036  0.0978 -1.4944  0.2037
  142OSM   H15T15604   6.484   5.301  -1.091  0.4595  1.6595 -4.7358
  142OSM   C16S15605   6.565   5.517  -1.082  0.8501 -0.4367  0.4926
  142OSM   H16S15606   6.658   5.502  -1.023  0.5709  0.6819  1.2555
  142OSM   H16T15607   6.515   5.611  -1.050  0.1961 -0.9611  1.0446
  142OSM   C17S15608   6.584   5.525  -1.235 -0.4787  0.0851  0.3049
  142OSM   H17S15609   6.627   5.430  -1.275 -0.5853 -0.3531  1.1967
  142OSM   H17T15610   6.659   5.603  -1.263  1.2502 -1.6833 -0.2420
  142OSM   C18S15611   6.455   5.554  -1.302  0.2052 -0.0525  0.3370
  142OSM   H18S15612   6.475   5.554  -1.411  1.3815 -0.3445  0.5482
  142OSM   H18T15613   6.416   5.658  -1.292 -0.1607 -0.2863  1.5088
  142OSM   H18U15614   6.379   5.475  -1.283  0.2627 -0.5401 -1.3372
  142OSM    C1F15615   6.359   5.191   0.094  0.3759  0.4267 -0.0451
  142OSM     OF15616   6.243   5.235   0.110  0.1135  0.6119  0.4974
  142OSM    C2F15617   6.381   5.082  -0.010 -0.4247  0.5494 -1.0484
  142OSM    H2F15618   6.281   5.042  -0.039 -0.8211  0.7195  0.0186
  142OSM    H2G15619   6.441   5.000   0.033 -0.7223  0.0966 -1.4839
  142OSM    C3F15620   6.457   5.133  -0.134  0.3385 -0.3016  0.1311
  142OSM    H3F15621   6.558   5.163  -0.098  0.2810  0.4981 -0.3460
  142OSM    H3G15622   6.410   5.223  -0.178 -1.8162 -1.2007  0.4797
  142OSM    C4F15623   6.490   5.025  -0.240 -0.4683  0.7464 -0.1287
  142OSM    H4F15624   6.396   4.975  -0.270 -0.3043  0.4237 -0.1166
  142OSM    H4G15625   6.547   4.945  -0.188  0.1345  0.6164 -0.9722
  142OSM    C5F15626   6.564   5.077  -0.365 -0.6785  0.2626  0.6143
  142OSM    H5F15627   6.665   5.108  -0.331 -0.9928  1.4746  0.5184
  142OSM    H5G15628   6.510   5.163  -0.411 -1.3098 -0.0074  0.8365
  142OSM    C6F15629   6.575   4.965  -0.471  0.5388  0.1327 -0.4066
  142OSM    H6F15630   6.473   4.943  -0.508  0.0628  1.0210  0.3432
  142OSM    H6G15631   6.615   4.872  -0.424  0.0950 -0.1077 -0.5017
  142OSM    C7F15632   6.675   4.985  -0.585 -0.2292 -0.1932 -0.1792
  142OSM    H7F15633   6.780   4.971  -0.550 -0.3357  2.6491  1.6112
  142OSM    H7G15634   6.666   5.088  -0.627  2.5942  0.2634  0.1168
  142OSM    C8F15635   6.657   4.887  -0.709 -0.1562  0.3988  0.1428
  142OSM    H8F15636   6.734   4.917  -0.783 -1.1916  0.8512 -0.7750
  142OSM    H8G15637   6.565   4.931  -0.753  0.6531  2.3718  0.3424
  142OSM    C9F15638   6.663   4.740  -0.683  0.4836 -0.9362 -0.3719
  142OSM    H9F15639   6.607   4.711  -0.594 -0.0669  0.2815 -0.2996
  142OSM   C10F15640   6.720   4.641  -0.759  0.3107  0.6378  0.2524
  142OSM   H10F15641   6.723   4.536  -0.725  0.4392 -0.1396 -1.9928
  142OSM   C11F15642   6.783   4.651  -0.902  0.5706 -0.3256 -0.2063
  142OSM   H11F15643   6.881   4.598  -0.906  0.7346 -0.0729  0.3275
  142OSM   H11G15644   6.816   4.755  -0.923  0.2257  0.3822  2.3795
  142OSM   C12F15645   6.693   4.591  -1.007  0.3962  0.1170 -0.1217
  142OSM   H12F15646   6.586   4.609  -0.982  0.1573  0.9922 -1.6435
  142OSM   H12G15647   6.713   4.483  -1.025 -0.6093 -0.0488 -0.3174
  142OSM   C13F15648   6.690   4.667  -1.144 -0.2587  0.2103 -0.3311
  142OSM   H13F15649   6.795   4.671  -1.178  0.1440 -3.2946  0.1271
  142OSM   H13G15650   6.654   4.769  -1.120  0.3222  0.5356 -0.8342
  142OSM   C14F15651   6.606   4.595  -1.245  0.6795  0.2444 -0.8884
  142OSM   H14F15652   6.500   4.603  -1.212  0.9744  0.4927  0.0346
  142OSM   H14G15653   6.626   4.486  -1.251  2.1920  0.5512 -2.0444
  142OSM   C15F15654   6.613   4.651  -1.388 -0.9679  0.7842  0.0500
  142OSM   H15F15655   6.720   4.669  -1.410 -0.7578  3.0117  2.4034
  142OSM   H15G15656   6.567   4.752  -1.384 -0.5727  0.9804 -0.3964
  142OSM   C16F15657   6.535   4.559  -1.488  0.0137 -1.1063 -0.0031
  142OSM   H16F15658   6.429   4.550  -1.455 -0.3780  1.9127 -0.1355
  142OSM   H16G15659   6.593   4.466  -1.500  1.1670 -0.3914 -0.1149
  142OSM   C17F15660   6.509   4.629  -1.618 -0.3716 -0.7295  0.0073
  142OSM   H17F15661   6.606   4.658  -1.662  0.9163 -1.5413  2.1569
  142OSM   H17G15662   6.446   4.720  -1.611  0.1192 -0.4222  0.5079
  142OSM   C18F15663   6.421   4.542  -1.710 -0.1598 -0.1971 -0.1594
  142OSM   H18F15664   6.419   4.590  -1.810  1.9629  2.1192  0.8168
  142OSM   H18G15665   6.319   4.549  -1.666 -1.1088  1.2035 -2.3636
  142OSM   H18H15666   6.446   4.434  -1.714 -1.3499 -0.4930  0.0362
  143OSM      N15667   4.793   4.121   0.606 -0.0610 -0.4727 -0.5417
  143OSM    C1515668   4.874   4.153   0.730  0.2443 -0.3910  0.1639
  143OSM   H15A15669   4.807   4.142   0.814 -2.4990  1.1335 -1.6512
  143OSM   H15B15670   4.895   4.259   0.722 -0.5899 -0.3107 -1.4236
  143OSM   H15C15671   4.964   4.094   0.726  1.8209  1.9661 -2.7533
  143OSM    C1415672   4.722   3.990   0.613 -0.2024 -0.2729  0.1637
  143OSM   H14A15673   4.672   3.987   0.709  1.5597 -0.6716  1.1043
  143OSM   H14B15674   4.775   3.896   0.607 -3.0688 -2.0965  0.9883
  143OSM   H14C15675   4.642   3.977   0.541  0.7458  0.1614 -0.9916
  143OSM    C1315676   4.690   4.229   0.591 -0.1953  0.7064  0.0147
  143OSM   H13A15677   4.633   4.222   0.682  1.3599 -0.5287  0.9448
  143OSM   H13B15678   4.639   4.223   0.495  1.5308  0.9188 -0.9634
  143OSM   H13C15679   4.728   4.331   0.589  0.2446  0.5606  0.7710
  143OSM    C1215680   4.891   4.137   0.485 -0.0407 -0.3172 -0.2099
  143OSM   H12A15681   4.933   4.235   0.498 -1.3671  0.4094 -1.2341
  143OSM   H12B15682   4.844   4.128   0.388  0.3161 -1.5007 -0.2850
  143OSM    C1115683   5.004   4.030   0.475 -0.0210 -0.3099  0.0100
  143OSM   H11A15684   5.066   4.050   0.385  0.2340  1.1727  0.4888
  143OSM   H11B15685   4.951   3.932   0.478  1.1990 -1.0155 -0.3116
  143OSM      P15686   5.192   3.925   0.637  0.2727 -0.4463  1.0558
  143OSM    O1315687   5.305   3.993   0.705  0.4622 -0.3754  0.6291
  143OSM    O1415688   5.119   3.826   0.710  0.3099  0.6120 -0.8316
  143OSM    O1115689   5.256   3.869   0.499 -0.4402 -0.5515 -0.3996
  143OSM    O1215690   5.092   4.036   0.590  0.2241 -0.9170 -0.1753
  143OSM    C1S15691   5.333   3.961   0.422 -0.3487  0.0717 -0.2744
  143OSM    H1S15692   5.438   3.969   0.457 -0.4315  2.4715 -0.4156
  143OSM    H1T15693   5.293   4.064   0.424 -0.0064  0.2255  2.8602
  143OSM     NF15694   5.417   4.025   0.202 -0.8765 -0.5324 -0.8165
  143OSM    HNF15695   5.372   4.070   0.124 -1.1189  1.9259  0.6303
  143OSM    C2S15696   5.350   3.920   0.268 -0.0730  0.4864 -0.1406
  143OSM    H2S15697   5.413   3.829   0.270  0.9073  1.1338 -0.7775
  143OSM    C3S15698   5.209   3.886   0.201  0.2758 -0.5362  0.2891
  143OSM    H3S15699   5.158   3.985   0.206 -0.7278 -1.0121 -0.2466
  143OSM     O315700   5.121   3.801   0.271 -0.2427 -0.2525  0.2357
  143OSM    HO315701   5.168   3.788   0.353  1.0043 -0.9072 -0.5361
  143OSM    C4S15702   5.228   3.849   0.055 -0.1819  1.0511  0.0041
  143OSM    H4S15703   5.222   3.937  -0.011  2.6488  0.7038 -0.8338
  143OSM    C5S15704   5.279   3.729   0.007  0.4085 -0.3828 -0.0585
  143OSM    H5S15705   5.302   3.642   0.070 -1.0396 -0.6005  0.2043
  143OSM    C6S15706   5.321   3.704  -0.131 -0.0357 -0.5492 -0.1032
  143OSM    H6S15707   5.263   3.623  -0.180 -2.3593  1.7007 -1.3392
  143OSM    H6T15708   5.426   3.670  -0.124 -0.1867 -1.2865 -1.2394
  143OSM    C7S15709   5.334   3.823  -0.226  0.4841 -0.7096  0.1953
  143OSM    H7S15710   5.390   3.901  -0.170  0.1057  0.3586 -0.8798
  143OSM    H7T15711   5.232   3.861  -0.246  0.9701  0.4677 -0.1025
  143OSM    C8S15712   5.391   3.796  -0.362 -0.2124 -0.3307  0.0633
  143OSM    H8S15713   5.494   3.760  -0.340  1.0832  3.3985  0.9681
  143OSM    H8T15714   5.414   3.890  -0.418 -1.1463  1.1050  1.9931
  143OSM    C9S15715   5.311   3.701  -0.455 -0.4655  0.1141  0.1827
  143OSM    H9S15716   5.209   3.745  -0.456 -0.5816  0.0566  2.6246
  143OSM    H9T15717   5.307   3.598  -0.414  3.0662 -0.2407 -0.1040
  143OSM   C10S15718   5.363   3.684  -0.601  0.1953  0.6047  0.0778
  143OSM   H10S15719   5.271   3.649  -0.652  1.5523 -1.3114 -1.2078
  143OSM   H10T15720   5.436   3.600  -0.607 -1.5958 -0.9991 -0.2308
  143OSM   C11S15721   5.418   3.801  -0.682  0.0927 -0.5776 -0.6548
  143OSM   H11S15722   5.509   3.844  -0.635 -1.2831 -0.1447  1.7674
  143OSM   H11T15723   5.339   3.877  -0.662  0.0598 -0.7322 -0.2048
  143OSM   C12S15724   5.441   3.764  -0.831  0.6479  0.4237  0.1253
  143OSM   H12S15725   5.356   3.705  -0.871 -0.6451  1.9092  0.5932
  143OSM   H12T15726   5.536   3.706  -0.825 -0.2307 -0.9384  2.1209
  143OSM   C13S15727   5.450   3.890  -0.916  0.0179  0.1701  0.7279
  143OSM   H13S15728   5.532   3.961  -0.891 -0.3752  0.3144  1.6563
  143OSM   H13T15729   5.358   3.946  -0.891 -0.7208 -0.8249  0.2967
  143OSM   C14S15730   5.439   3.843  -1.059 -0.5345  0.7572  0.7907
  143OSM   H14S15731   5.360   3.766  -1.067 -1.4180  1.2505  3.6001
  143OSM   H14T15732   5.529   3.788  -1.094 -1.1993 -0.0184  0.2812
  143OSM   C15S15733   5.411   3.957  -1.149 -0.0430 -0.6327 -0.2514
  143OSM   H15S15734   5.496   4.025  -1.170 -0.0226 -0.4578  0.3973
  143OSM   H15T15735   5.327   4.016  -1.106  0.7327 -0.2322  0.7369
  143OSM   C16S15736   5.364   3.912  -1.294  0.8563  0.0549 -0.4598
  143OSM   H16S15737   5.301   3.991  -1.339 -0.2271  0.0412  0.9724
  143OSM   H16T15738   5.304   3.820  -1.285  1.1050 -0.0362  0.4075
  143OSM   C17S15739   5.481   3.872  -1.381 -0.0224 -0.1315  0.1567
  143OSM   H17S15740   5.545   3.791  -1.340 -1.0893 -0.8312  0.4540
  143OSM   H17T15741   5.553   3.958  -1.376  1.4140 -1.3384  1.1510
  143OSM   C18S15742   5.446   3.830  -1.531  0.4039 -0.6317 -0.2863
  143OSM   H18S15743   5.352   3.772  -1.532 -0.3511  0.5106  1.1502
  143OSM   H18T15744   5.520   3.755  -1.566  0.3459 -1.6518  1.6672
  143OSM   H18U15745   5.446   3.917  -1.601  0.7507 -0.9445 -0.6803
  143OSM    C1F15746   5.541   4.068   0.229  0.2597 -0.5672 -0.1399
  143OSM     OF15747   5.620   4.010   0.302 -0.4329 -0.5250 -0.1142
  143OSM    C2F15748   5.584   4.203   0.180  0.0245 -0.9324  0.3917
  143OSM    H2F15749   5.640   4.260   0.257 -1.0474 -1.4400  1.5750
  143OSM    H2G15750   5.501   4.270   0.147  1.1326 -0.0598 -0.7511
  143OSM    C3F15751   5.673   4.187   0.056 -0.0449 -0.2203 -0.1403
  143OSM    H3F15752   5.610   4.152  -0.028 -0.4835  1.9630 -0.7599
  143OSM    H3G15753   5.753   4.111   0.073  1.9839  2.0779  1.2585
  143OSM    C4F15754   5.739   4.313  -0.004 -0.5701 -0.0706 -0.8720
  143OSM    H4F15755   5.815   4.333   0.075 -0.1996  0.5105 -1.3700
  143OSM    H4G15756   5.682   4.407  -0.017 -0.3506 -0.0519 -1.7565
  143OSM    C5F15757   5.819   4.284  -0.134  0.0793 -0.4772 -0.2274
  143OSM    H5F15758   5.882   4.192  -0.129 -2.6186 -2.4709 -0.7778
  143OSM    H5G15759   5.884   4.371  -0.156  0.8862 -1.4019 -1.6791
  143OSM    C6F15760   5.724   4.294  -0.251 -0.2821  0.2774  0.7386
  143OSM    H6F15761   5.707   4.400  -0.278  0.4812  1.0430  2.9916
  143OSM    H6G15762   5.627   4.248  -0.222  1.4613 -2.5201  2.7955
  143OSM    C7F15763   5.767   4.211  -0.374 -0.0702 -0.0687 -0.0547
  143OSM    H7F15764   5.738   4.104  -0.361 -2.2226  0.3664 -0.8585
  143OSM    H7G15765   5.873   4.237  -0.395  0.0572  0.4595  1.1191
  143OSM    C8F15766   5.704   4.259  -0.511  0.4241  0.8312 -0.2216
  143OSM    H8F15767   5.762   4.208  -0.591  0.9569  1.8840 -0.5392
  143OSM    H8G15768   5.734   4.365  -0.528  4.4707  0.1786  1.5538
  143OSM    C9F15769   5.552   4.246  -0.528 -0.1559  0.7248  1.1873
  143OSM    H9F15770   5.503   4.228  -0.431 -1.2022 -1.8420  0.2797
  143OSM   C10F15771   5.484   4.245  -0.644 -0.5697  0.3472 -0.6137
  143OSM   H10F15772   5.374   4.240  -0.646 -0.6299  0.0409  1.2825
  143OSM   C11F15773   5.540   4.257  -0.781 -0.2824 -0.2420 -0.8154
  143OSM   H11F15774   5.505   4.172  -0.843 -1.5329 -1.5202  1.4800
  143OSM   H11G15775   5.651   4.255  -0.778 -0.2712 -0.0094 -1.0565
  143OSM   C12F15776   5.511   4.388  -0.863 -0.5703  0.9920 -0.2068
  143OSM   H12F15777   5.538   4.462  -0.784  1.3913 -1.7293  1.8857
  143OSM   H12G15778   5.401   4.385  -0.873 -0.8182 -2.5294  1.9043
  143OSM   C13F15779   5.573   4.394  -0.999  0.3828  0.1917 -0.5368
  143OSM   H13F15780   5.681   4.388  -0.975 -0.0830  2.4749  2.8078
  143OSM   H13G15781   5.558   4.497  -1.038 -3.5384 -0.6314 -1.6575
  143OSM   C14F15782   5.512   4.286  -1.099  0.6315 -0.0415  0.7522
  143OSM   H14F15783   5.401   4.282  -1.088  0.5674 -0.0234  0.1290
  143OSM   H14G15784   5.558   4.188  -1.077  1.4362 -0.6172 -2.9416
  143OSM   C15F15785   5.550   4.324  -1.239 -0.5700 -0.5356  0.6101
  143OSM   H15F15786   5.545   4.250  -1.321  1.4344  0.8837 -0.8902
  143OSM   H15G15787   5.660   4.339  -1.229 -0.3089 -1.7183 -0.2787
  143OSM   C16F15788   5.487   4.454  -1.283  0.5960 -0.6301 -0.3680
  143OSM   H16F15789   5.527   4.544  -1.232  0.2046 -1.0935  0.7806
  143OSM   H16G15790   5.376   4.452  -1.283  0.6024 -0.9985 -0.3923
  143OSM   C17F15791   5.511   4.472  -1.437 -0.4825 -0.4199 -0.1684
  143OSM   H17F15792   5.491   4.384  -1.501 -1.1767 -0.3483 -0.0578
  143OSM   H17G15793   5.618   4.504  -1.435 -0.6903  0.2612  1.4398
  143OSM   C18F15794   5.422   4.580  -1.494 -0.8269 -0.4223 -0.3236
  143OSM   H18F15795   5.405   4.657  -1.415 -0.6963  0.3202 -1.0087
  143OSM   H18G15796   5.319   4.542  -1.510 -1.8474  1.5434  1.0349
  143OSM   H18H15797   5.460   4.625  -1.588  1.6332  0.2205  0.8969
  144OSM      N15798   0.535   2.502   4.278  0.3314  0.2142 -0.9534
  144OSM    C1515799   0.468   2.588   4.167  0.0293  0.3126 -0.5928
  144OSM   H15A15800   0.396   2.523   4.120  1.1565 -1.1609 -0.3594
  144OSM   H15B15801   0.548   2.617   4.100 -0.6021 -1.6600 -2.3342
  144OSM   H15C15802   0.412   2.671   4.207  1.2425  1.1902 -0.6428
  144OSM    C1415803   0.657   2.428   4.230 -0.1161 -0.2024  0.6819
  144OSM   H14A15804   0.637   2.370   4.141  2.2632 -1.1225  0.6603
  144OSM   H14B15805   0.706   2.360   4.297  1.1695 -0.8460 -0.8330
  144OSM   H14C15806   0.735   2.501   4.209  0.6504 -1.2382 -0.1882
  144OSM    C1315807   0.582   2.599   4.382 -0.2861 -0.1890 -0.2558
  144OSM   H13A15808   0.643   2.678   4.341  0.8288 -1.9873 -2.2187
  144OSM   H13B15809   0.634   2.549   4.462  1.3648 -0.4149 -1.4250
  144OSM   H13C15810   0.495   2.652   4.419  0.2403  0.0766  0.6080
  144OSM    C1215811   0.442   2.401   4.337  0.1674 -0.1040 -0.2382
  144OSM   H12A15812   0.497   2.355   4.418 -0.4702 -0.2810  0.1036
  144OSM   H12B15813   0.419   2.326   4.263  1.0015 -2.0037  1.3421
  144OSM    C1115814   0.309   2.457   4.391 -0.8084 -1.1789 -0.4126
  144OSM   H11A15815   0.236   2.376   4.410 -2.6983  0.8855  1.8186
  144OSM   H11B15816   0.274   2.521   4.308  1.4888 -0.4945 -0.9352
  144OSM      P15817   0.222   2.605   4.590  0.3821  0.2968 -0.3331
  144OSM    O1315818   0.257   2.746   4.584 -0.1907  0.2599  0.0107
  144OSM    O1415819   0.093   2.562   4.531 -0.3491 -0.3041 -0.1297
  144OSM    O1115820   0.227   2.556   4.745 -0.0821  0.2348  0.2474
  144OSM    O1215821   0.338   2.525   4.516  0.4169  0.1740 -0.2674
  144OSM    C1S15822   0.252   2.414   4.777  0.2037 -0.0911  0.4861
  144OSM    H1S15823   0.328   2.371   4.708 -1.5260  0.5754 -1.9920
  144OSM    H1T15824   0.159   2.354   4.774  0.1297 -0.0757  1.8666
  144OSM     NF15825   0.333   2.254   4.935  0.4790 -0.1372  0.3204
  144OSM    HNF15826   0.268   2.207   4.995 -1.5052  3.6904  1.4539
  144OSM    C2S15827   0.315   2.394   4.913 -0.0743  0.2157  0.1712
  144OSM    H2S15828   0.416   2.440   4.916  0.0383  0.2958 -2.4171
  144OSM    C3S15829   0.223   2.462   5.022 -0.1309  0.3502 -0.0711
  144OSM    H3S15830   0.135   2.396   5.036  0.2421  0.5341  4.6269
  144OSM     O315831   0.179   2.599   4.996 -0.0287 -0.0881 -0.0326
  144OSM    HO315832   0.198   2.617   4.904 -0.8477 -0.2203 -0.2375
  144OSM    C4S15833   0.297   2.455   5.151  0.4205  0.8279 -0.1824
  144OSM    H4S15834   0.400   2.492   5.149  0.3643  0.9395 -1.0008
  144OSM    C5S15835   0.257   2.383   5.266  0.1880  0.0850  0.8292
  144OSM    H5S15836   0.165   2.323   5.260  0.8942 -0.9924  0.4458
  144OSM    C6S15837   0.347   2.367   5.388 -0.1763  0.1509 -0.3902
  144OSM    H6S15838   0.423   2.286   5.377  0.0194  0.2331  0.2835
  144OSM    H6T15839   0.282   2.342   5.474 -1.2109  1.0840 -0.8796
  144OSM    C7S15840   0.418   2.500   5.423  0.0152 -0.9536  0.1640
  144OSM    H7S15841   0.345   2.584   5.428  0.4719 -0.6033  1.2080
  144OSM    H7T15842   0.496   2.512   5.345 -0.1063 -0.5727  0.0976
  144OSM    C8S15843   0.509   2.502   5.547  0.3456  0.1013  0.1956
  144OSM    H8S15844   0.589   2.578   5.535 -1.0731  1.6163  0.0439
  144OSM    H8T15845   0.564   2.405   5.549  1.9286  0.8936 -1.6399
  144OSM    C9S15846   0.434   2.515   5.680  0.0190 -0.2638  0.1901
  144OSM    H9S15847   0.359   2.434   5.685 -1.1447  0.6735 -1.3124
  144OSM    H9T15848   0.386   2.615   5.682 -0.6081 -0.5465  2.2168
  144OSM   C10S15849   0.526   2.509   5.807 -0.3389 -0.4557  0.0111
  144OSM   H10S15850   0.587   2.602   5.798 -2.9168  1.3473 -0.0180
  144OSM   H10T15851   0.590   2.418   5.811  1.4897  0.8222  2.4431
  144OSM   C11S15852   0.441   2.507   5.932 -0.4732  0.0518  0.3644
  144OSM   H11S15853   0.370   2.421   5.925 -0.0962 -0.0970 -3.1425
  144OSM   H11T15854   0.377   2.597   5.946  1.6739  1.3976  2.0957
  144OSM   C12S15855   0.527   2.475   6.060  0.5574  0.4809  0.3536
  144OSM   H12S15856   0.575   2.568   6.096  0.4609  0.0798  1.5803
  144OSM   H12T15857   0.606   2.400   6.037 -0.1550 -0.3441  0.5020
  144OSM   C13S15858   0.448   2.426   6.190 -0.5287 -0.4209  1.0213
  144OSM   H13S15859   0.389   2.336   6.162 -0.8366 -0.1290  0.7303
  144OSM   H13T15860   0.375   2.502   6.225 -1.6053 -1.3921  0.9398
  144OSM   C14S15861   0.560   2.400   6.293  0.2414 -0.5286  0.2019
  144OSM   H14S15862   0.642   2.474   6.280  1.1221 -1.4560  0.3801
  144OSM   H14T15863   0.620   2.312   6.264 -0.3565 -1.4652  1.6675
  144OSM   C15S15864   0.517   2.407   6.439  0.0981  0.0128 -0.7956
  144OSM   H15S15865   0.449   2.322   6.461  0.1210  0.4111  0.9760
  144OSM   H15T15866   0.463   2.504   6.441 -0.4139 -0.2146 -2.3752
  144OSM   C16S15867   0.630   2.407   6.551 -0.8540 -0.0065  0.6722
  144OSM   H16S15868   0.670   2.509   6.570 -3.9601  1.2011  1.3383
  144OSM   H16T15869   0.715   2.351   6.507 -0.7794 -0.1275  0.9632
  144OSM   C17S15870   0.601   2.348   6.691  0.5402  0.0980  0.2605
  144OSM   H17S15871   0.580   2.239   6.683  1.8016 -0.0252 -2.3229
  144OSM   H17T15872   0.512   2.402   6.731  0.6391  0.5014 -0.0545
  144OSM   C18S15873   0.723   2.362   6.777 -0.1009 -0.5194 -0.6692
  144OSM   H18S15874   0.710   2.290   6.860  2.9073 -2.8629 -1.9979
  144OSM   H18T15875   0.748   2.466   6.807 -0.3709 -0.6785  0.1193
  144OSM   H18U15876   0.812   2.329   6.718 -0.2167 -0.6347 -0.7792
  144OSM    C1F15877   0.431   2.184   4.888 -0.3039  0.3998 -0.2799
  144OSM     OF15878   0.529   2.244   4.843  0.0647 -0.7223  0.3285
  144OSM    C2F15879   0.439   2.034   4.891 -0.3232  0.1016  0.3783
  144OSM    H2F15880   0.486   2.005   4.795  0.4697 -0.5474  0.9540
  144OSM    H2G15881   0.334   1.996   4.891  0.4272 -2.0892 -0.6000
  144OSM    C3F15882   0.524   1.990   5.006 -0.7907 -0.0544 -0.0172
  144OSM    H3F15883   0.625   2.037   5.004 -0.7558 -0.1316 -0.1145
  144OSM    H3G15884   0.543   1.882   4.986  1.1540  0.0631  0.9780
  144OSM    C4F15885   0.469   1.995   5.144  0.3628  0.0285  0.2536
  144OSM    H4F15886   0.379   1.931   5.144  0.2364  0.2064  0.3101
  144OSM    H4G15887   0.444   2.101   5.169  0.8106 -0.0697  1.1632
  144OSM    C5F15888   0.570   1.948   5.247  0.5121  0.6682 -0.0885
  144OSM    H5F15889   0.655   2.020   5.253  2.3577 -1.4637  2.2832
  144OSM    H5G15890   0.615   1.850   5.218  0.5644  0.8173 -0.5096
  144OSM    C6F15891   0.511   1.928   5.386 -0.1245 -0.4093 -0.0443
  144OSM    H6F15892   0.458   2.024   5.404 -1.9050 -1.0334 -1.6304
  144OSM    H6G15893   0.595   1.919   5.459  0.0037  1.5094  0.0833
  144OSM    C7F15894   0.425   1.805   5.418  0.4761 -0.0150  0.6976
  144OSM    H7F15895   0.461   1.735   5.339 -0.7811 -0.9050  0.8702
  144OSM    H7G15896   0.321   1.841   5.403  1.1758  1.8145 -0.0915
  144OSM    C8F15897   0.442   1.762   5.558 -0.1305  0.8291 -0.1500
  144OSM    H8F15898   0.434   1.852   5.623 -0.2639  1.1414 -0.5949
  144OSM    H8G15899   0.546   1.722   5.560 -0.9364 -1.4099  0.1316
  144OSM    C9F15900   0.336   1.653   5.603 -0.5566 -0.1827 -0.2474
  144OSM    H9F15901   0.230   1.662   5.574 -0.5747 -1.3608 -0.6064
  144OSM   C10F15902   0.375   1.552   5.680  0.4433  0.6626 -0.8238
  144OSM   H10F15903   0.302   1.475   5.710 -0.7481  1.6751 -1.0345
  144OSM   C11F15904   0.506   1.530   5.749 -0.6975  0.4322  0.2161
  144OSM   H11F15905   0.555   1.630   5.749 -1.9014  1.0408 -0.1994
  144OSM   H11G15906   0.565   1.452   5.696 -1.1811  0.6327 -0.6381
  144OSM   C12F15907   0.506   1.508   5.900 -0.1211  0.3393 -0.0688
  144OSM   H12F15908   0.460   1.604   5.931 -1.6962 -0.0700 -1.0340
  144OSM   H12G15909   0.604   1.519   5.951  0.6185 -0.7241 -1.2072
  144OSM   C13F15910   0.414   1.397   5.952 -0.5932  0.7896  0.0981
  144OSM   H13F15911   0.408   1.318   5.874 -2.2011  1.0892 -0.1177
  144OSM   H13G15912   0.310   1.432   5.969 -0.5076  2.4160 -2.1747
  144OSM   C14F15913   0.472   1.326   6.077  0.0701  0.6771  0.1894
  144OSM   H14F15914   0.568   1.282   6.043 -0.6484  0.8516 -2.2070
  144OSM   H14G15915   0.413   1.236   6.101 -0.4105  1.1647  0.8767
  144OSM   C15F15916   0.488   1.406   6.206  0.1029 -0.5315  0.0019
  144OSM   H15F15917   0.387   1.431   6.245 -0.4885 -1.1548 -1.0741
  144OSM   H15G15918   0.553   1.494   6.188 -2.8264  1.5190 -1.2791
  144OSM   C16F15919   0.560   1.331   6.321 -0.0361  0.3595 -0.4434
  144OSM   H16F15920   0.624   1.248   6.284 -0.8391 -0.8350  0.7208
  144OSM   H16G15921   0.482   1.280   6.382  0.1089  1.8066  1.0063
  144OSM   C17F15922   0.627   1.429   6.416  1.1106 -0.1137  0.1756
  144OSM   H17F15923   0.560   1.517   6.409 -0.3072 -1.2055 -0.4647
  144OSM   H17G15924   0.732   1.439   6.381  0.3510  0.2228 -2.1456
  144OSM   C18F15925   0.621   1.377   6.560 -0.6410  0.0836 -0.2852
  144OSM   H18F15926   0.525   1.344   6.606 -1.0498 -0.0073 -1.1836
  144OSM   H18G15927   0.657   1.457   6.628  1.1278 -0.4549 -0.5248
  144OSM   H18H15928   0.692   1.292   6.573  1.5328  1.9135  0.4540
  145OSM      N15929   5.770   2.148   0.147 -0.9577 -0.5157  0.1438
  145OSM    C1515930   5.907   2.092   0.175 -0.5435 -0.0849 -0.1722
  145OSM   H15A15931   5.938   2.112   0.276 -1.3186 -0.9688  0.2605
  145OSM   H15B15932   5.982   2.120   0.103 -0.9553  0.1673 -0.5114
  145OSM   H15C15933   5.902   1.985   0.162  1.5639 -0.2587  0.2224
  145OSM    C1415934   5.730   2.124   0.010  0.4053 -0.3263 -0.3751
  145OSM   H14A15935   5.784   2.188  -0.058  0.5430  0.0897  0.1231
  145OSM   H14B15936   5.623   2.134   0.000  0.3486 -1.8262 -1.8511
  145OSM   H14C15937   5.757   2.025  -0.025 -1.2352 -1.2549  0.8454
  145OSM    C1315938   5.680   2.074   0.243 -0.1083  0.3113 -0.4764
  145OSM   H13A15939   5.665   1.971   0.216 -0.8540 -0.4339  2.4820
  145OSM   H13B15940   5.584   2.124   0.247 -0.4057 -0.2869  3.1054
  145OSM   H13C15941   5.707   2.082   0.347 -1.7835 -0.9761  0.0959
  145OSM    C1215942   5.761   2.298   0.171  0.1689  0.0054 -0.2580
  145OSM   H12A15943   5.841   2.347   0.117  0.9248  1.0878  1.7483
  145OSM   H12B15944   5.788   2.312   0.274 -0.4707  2.4776 -0.3804
  145OSM    C1115945   5.636   2.373   0.138 -0.1173  0.3753  0.0168
  145OSM   H11A15946   5.621   2.363   0.028  0.1317  0.0129  0.0172
  145OSM   H11B15947   5.639   2.477   0.177  2.5971  0.1162  0.6600
  145OSM      P15948   5.385   2.388   0.207  0.0828 -0.0113  0.1676
  145OSM    O1315949   5.285   2.288   0.227  0.3432  0.1322 -0.0514
  145OSM    O1415950   5.391   2.494   0.312  0.5895  0.0580 -0.5982
  145OSM    O1115951   5.363   2.445   0.065 -0.0521 -0.8744 -0.2124
  145OSM    O1215952   5.524   2.310   0.199  0.0254 -0.0695 -0.5430
  145OSM    C1S15953   5.338   2.374  -0.053 -0.8404 -0.5459 -0.3613
  145OSM    H1S15954   5.239   2.326  -0.040 -1.3088  0.9884  2.9617
  145OSM    H1T15955   5.410   2.292  -0.072 -0.6944  0.3693 -4.7508
  145OSM     NF15956   5.306   2.378  -0.298  0.1355 -0.6652  0.0467
  145OSM    HNF15957   5.386   2.377  -0.358  1.1694  0.3678  1.3655
  145OSM    C2S15958   5.322   2.464  -0.182  0.0437  0.4766 -0.0560
  145OSM    H2S15959   5.224   2.513  -0.164 -0.0881  0.2255 -0.0858
  145OSM    C3S15960   5.434   2.564  -0.195  0.6934 -0.1375  0.9128
  145OSM    H3S15961   5.530   2.510  -0.208  0.4433 -0.3270 -0.3055
  145OSM     O315962   5.457   2.648  -0.084 -0.0395  0.2487 -0.2595
  145OSM    HO315963   5.391   2.611  -0.024  0.7136 -3.3525 -1.4361
  145OSM    C4S15964   5.407   2.647  -0.312 -0.0939  0.0824  0.0651
  145OSM    H4S15965   5.455   2.609  -0.404  1.0720  1.0810  0.2371
  145OSM    C5S15966   5.324   2.752  -0.328 -0.4917 -0.3782  0.1296
  145OSM    H5S15967   5.276   2.803  -0.243 -2.7163  0.1650 -1.3716
  145OSM    C6S15968   5.295   2.841  -0.448 -0.0025  0.0620 -0.4131
  145OSM    H6S15969   5.350   2.935  -0.427  1.8683 -1.4618  2.1889
  145OSM    H6T15970   5.186   2.861  -0.445 -0.2842 -1.3560  2.0634
  145OSM    C7S15971   5.349   2.778  -0.578 -0.0652 -0.2339 -0.0788
  145OSM    H7S15972   5.316   2.672  -0.584  0.7767 -0.5956  1.2084
  145OSM    H7T15973   5.460   2.778  -0.578 -0.0586 -0.3538 -0.9244
  145OSM    C8S15974   5.302   2.863  -0.692 -0.2991  0.1817 -0.5407
  145OSM    H8S15975   5.323   2.969  -0.665  2.5583  0.0806 -1.9433
  145OSM    H8T15976   5.193   2.854  -0.708 -0.5679  0.2517  1.0274
  145OSM    C9S15977   5.368   2.822  -0.823  0.1149 -0.9604  0.5848
  145OSM    H9S15978   5.305   2.736  -0.856 -3.2524  1.1681  0.9235
  145OSM    H9T15979   5.475   2.800  -0.808  0.4005  0.9739  1.7483
  145OSM   C10S15980   5.359   2.921  -0.939 -0.0247 -0.6250  0.5034
  145OSM   H10S15981   5.389   3.023  -0.908 -1.1717 -0.5096  1.3191
  145OSM   H10T15982   5.253   2.924  -0.972 -0.3637  0.7228  1.6082
  145OSM   C11S15983   5.458   2.885  -1.062 -0.3903 -0.5815  0.1413
  145OSM   H11S15984   5.441   2.776  -1.075 -0.4857 -0.6803  1.0268
  145OSM   H11T15985   5.565   2.908  -1.045 -0.0928 -0.4731 -1.6349
  145OSM   C12S15986   5.395   2.960  -1.187 -0.5684 -0.3663  0.8365
  145OSM   H12S15987   5.387   3.069  -1.164 -1.9446 -0.4929  1.0768
  145OSM   H12T15988   5.297   2.908  -1.199 -0.5595 -0.8355  2.5972
  145OSM   C13S15989   5.484   2.943  -1.314  0.3920  0.0679 -0.0641
  145OSM   H13S15990   5.498   2.837  -1.344  1.8450  0.8333 -2.2956
  145OSM   H13T15991   5.582   2.992  -1.294  0.4063  0.7950 -1.8162
  145OSM   C14S15992   5.418   3.023  -1.425  0.8494 -0.5497  0.7048
  145OSM   H14S15993   5.400   3.127  -1.391 -1.4691 -0.1116 -1.5046
  145OSM   H14T15994   5.319   2.977  -1.447  1.7341 -3.0659  1.5779
  145OSM   C15S15995   5.484   3.022  -1.562  0.5545 -0.3319 -0.6156
  145OSM   H15S15996   5.461   2.932  -1.623  3.0463 -1.2834 -0.2772
  145OSM   H15T15997   5.594   3.033  -1.562  0.4936  0.7271  1.4964
  145OSM   C16S15998   5.420   3.133  -1.646 -0.1489 -0.1329 -0.7063
  145OSM   H16S15999   5.310   3.123  -1.643 -0.0774 -0.8847 -0.2586
  145OSM   H16T16000   5.450   3.128  -1.754 -0.9050  0.2068 -0.9344
  145OSM   C17S16001   5.453   3.276  -1.605 -0.2319 -0.9631  0.2074
  145OSM   H17S16002   5.563   3.274  -1.599 -0.2247 -0.3537  0.2807
  145OSM   H17T16003   5.410   3.301  -1.506 -2.4917 -1.0575 -0.6860
  145OSM   C18S16004   5.422   3.371  -1.717  0.5673 -0.1782 -0.3197
  145OSM   H18S16005   5.488   3.354  -1.804 -0.2163 -0.2125 -0.9138
  145OSM   H18T16006   5.444   3.478  -1.694 -0.7626  0.2590 -0.9936
  145OSM   H18U16007   5.315   3.356  -1.740  0.7983  0.8628 -2.2551
  145OSM    C1F16008   5.194   2.316  -0.332  0.9532  0.4065  0.2075
  145OSM     OF16009   5.093   2.349  -0.269  0.3666 -0.1496  0.1251
  145OSM    C2F16010   5.200   2.214  -0.442 -0.0863 -0.3436  0.4191
  145OSM    H2F16011   5.272   2.133  -0.417  0.6714 -0.7872 -2.7507
  145OSM    H2G16012   5.226   2.280  -0.527 -2.2746  0.4748  0.3153
  145OSM    C3F16013   5.062   2.138  -0.462  0.5933 -0.4328 -0.1325
  145OSM    H3F16014   4.972   2.203  -0.455  1.7711  1.5159 -1.9191
  145OSM    H3G16015   5.063   2.078  -0.369 -3.2418 -1.0046 -0.2822
  145OSM    C4F16016   5.063   2.044  -0.580 -0.9840  0.3276  0.6131
  145OSM    H4F16017   5.068   2.113  -0.667 -0.4511 -0.3405  0.1037
  145OSM    H4G16018   4.965   1.992  -0.585 -0.9525  0.3557 -0.5448
  145OSM    C5F16019   5.159   1.925  -0.577  0.0268  0.5739 -0.5047
  145OSM    H5F16020   5.153   1.869  -0.481 -2.1206  2.5636  0.6376
  145OSM    H5G16021   5.265   1.957  -0.581 -0.5082  2.6564  0.7871
  145OSM    C6F16022   5.144   1.824  -0.700  0.7825  0.0152  0.4244
  145OSM    H6F16023   5.103   1.873  -0.791  1.3349 -2.0513 -1.0049
  145OSM    H6G16024   5.075   1.742  -0.672  1.5283 -1.5121 -1.9344
  145OSM    C7F16025   5.274   1.751  -0.758  0.2705 -0.5014 -0.0462
  145OSM    H7F16026   5.310   1.679  -0.682 -0.2335 -1.2074 -0.4593
  145OSM    H7G16027   5.343   1.835  -0.782 -1.4796  1.3115  0.9217
  145OSM    C8F16028   5.241   1.671  -0.878 -0.6133  0.2223  0.5260
  145OSM    H8F16029   5.179   1.730  -0.948  1.0709  1.3113 -0.1073
  145OSM    H8G16030   5.196   1.577  -0.838 -1.8735  0.0683 -1.2001
  145OSM    C9F16031   5.359   1.626  -0.953 -0.5616  0.5491 -0.4810
  145OSM    H9F16032   5.428   1.568  -0.891 -2.6487  0.5570  2.0254
  145OSM   C10F16033   5.383   1.643  -1.086 -0.1552 -0.7682  0.0548
  145OSM   H10F16034   5.481   1.609  -1.123  1.7451  0.7630  3.2573
  145OSM   C11F16035   5.287   1.695  -1.198  0.1623 -0.4817  0.3794
  145OSM   H11F16036   5.308   1.804  -1.195  1.1623 -0.6749  2.2543
  145OSM   H11G16037   5.181   1.669  -1.180  0.2538 -0.2037  1.3728
  145OSM   C12F16038   5.331   1.640  -1.333 -0.1701  0.0548  0.4684
  145OSM   H12F16039   5.313   1.530  -1.338  3.8241 -0.7392  0.4220
  145OSM   H12G16040   5.437   1.664  -1.356 -0.6551  1.6611 -0.1830
  145OSM   C13F16041   5.248   1.694  -1.454 -0.1580  0.2078  0.4290
  145OSM   H13F16042   5.250   1.805  -1.454  0.1433  0.2109 -0.4936
  145OSM   H13G16043   5.142   1.668  -1.434 -0.7820  0.2121 -2.4744
  145OSM   C14F16044   5.282   1.644  -1.590 -0.3716  0.1709  0.3314
  145OSM   H14F16045   5.236   1.544  -1.603 -3.2825  1.6217 -2.0716
  145OSM   H14G16046   5.392   1.651  -1.602 -0.3918  1.4973  0.7941
  145OSM   C15F16047   5.219   1.717  -1.715 -0.2726 -0.5865  0.2207
  145OSM   H15F16048   5.241   1.826  -1.708  1.4355 -0.6583 -2.5065
  145OSM   H15G16049   5.108   1.705  -1.717 -0.3191 -0.5903  1.6900
  145OSM   C16F16050   5.279   1.666  -1.845 -0.5945  0.1184  0.6313
  145OSM   H16F16051   5.238   1.565  -1.865  2.1683 -1.4260  2.0399
  145OSM   H16G16052   5.388   1.661  -1.823 -0.6635 -0.5230  0.8626
  145OSM   C17F16053   5.267   1.768  -1.964  0.0475  0.2557  0.2381
  145OSM   H17F16054   5.308   1.868  -1.938  1.2623 -0.0142 -0.5629
  145OSM   H17G16055   5.159   1.788  -1.982 -0.2973  0.7946  2.4855
  145OSM   C18F16056   5.341   1.714  -2.083  0.6235  0.2689  0.0394
  145OSM   H18F16057   5.443   1.672  -2.066  0.3786 -0.0708  0.6912
  145OSM   H18G16058   5.367   1.798  -2.151  1.2346 -1.7663 -2.3784
  145OSM   H18H16059   5.281   1.647  -2.148  0.4720 -0.4301  0.8852
  146OSM      N16060   5.991   6.386   0.521  0.1072 -0.2082 -0.2389
  146OSM    C1516061   5.868   6.399   0.604  0.8383 -0.8854 -0.4455
  146OSM   H15A16062   5.867   6.487   0.666 -0.2296 -0.3478 -1.1961
  146OSM   H15B16063   5.857   6.323   0.680  0.2658  0.9274  1.3932
  146OSM   H15C16064   5.781   6.401   0.539  1.0617 -3.1956 -0.9033
  146OSM    C1416065   5.993   6.501   0.428  0.2251 -0.0348 -0.1035
  146OSM   H14A16066   5.939   6.492   0.335 -2.6579  3.4861  0.9863
  146OSM   H14B16067   6.094   6.519   0.394 -0.1733  1.7144 -0.4356
  146OSM   H14C16068   5.952   6.588   0.477  0.4921 -0.5807  1.1208
  146OSM    C1316069   6.112   6.382   0.618 -0.1903 -0.5356  1.0158
  146OSM   H13A16070   6.205   6.363   0.565 -0.0642 -1.9908  1.7381
  146OSM   H13B16071   6.114   6.291   0.675  1.3868 -0.2804  1.4203
  146OSM   H13C16072   6.114   6.461   0.692 -0.4110 -1.2227  1.7538
  146OSM    C1216073   5.984   6.255   0.450  0.4626 -0.4581  0.4707
  146OSM   H12A16074   6.069   6.253   0.384 -0.5457  2.2093 -1.0477
  146OSM   H12B16075   5.893   6.259   0.392  1.0134  0.3267 -0.3617
  146OSM    C1116076   6.000   6.119   0.523  0.8599 -0.3404  0.5711
  146OSM   H11A16077   6.102   6.115   0.566  0.6206  1.6558  1.4304
  146OSM   H11B16078   6.014   6.047   0.439  0.0628 -1.1001  1.0667
  146OSM      P16079   5.760   6.025   0.556  0.0730 -0.0940  0.1989
  146OSM    O1316080   5.726   5.899   0.632 -1.1192  0.3492 -0.0695
  146OSM    O1416081   5.664   6.129   0.573 -0.1190  0.0905  0.6145
  146OSM    O1116082   5.776   5.990   0.398 -0.0144 -0.1731 -0.3716
  146OSM    O1216083   5.899   6.078   0.609  0.5221  0.3541  1.1622
  146OSM    C1S16084   5.726   6.069   0.287  0.4704 -0.0808 -0.1577
  146OSM    H1S16085   5.698   6.168   0.327 -1.1957 -1.1810  1.5346
  146OSM    H1T16086   5.627   6.026   0.263  0.0182 -0.5777  2.3526
  146OSM     NF16087   5.793   6.177   0.077 -0.3450 -0.4767  0.6217
  146OSM    HNF16088   5.770   6.143  -0.014  1.9318 -0.1443 -0.1293
  146OSM    C2S16089   5.831   6.075   0.174 -0.2528 -0.7024 -0.0243
  146OSM    H2S16090   5.927   6.102   0.222  0.5197 -3.9901  0.5618
  146OSM    C3S16091   5.855   5.931   0.115 -0.9547 -0.3221  0.2323
  146OSM    H3S16092   5.762   5.889   0.071 -2.7326  2.9305  0.5788
  146OSM     O316093   5.870   5.822   0.209  0.2046 -0.0434  0.2761
  146OSM    HO316094   5.815   5.843   0.285 -2.3394 -1.2890 -1.1365
  146OSM    C4S16095   5.968   5.922   0.014 -0.6524  0.0128 -0.7032
  146OSM    H4S16096   5.929   5.939  -0.088 -0.8556 -1.4254 -0.8941
  146OSM    C5S16097   6.099   5.917   0.044 -0.3413 -0.0644 -0.1528
  146OSM    H5S16098   6.130   5.924   0.149  0.5855 -0.2317 -0.4084
  146OSM    C6S16099   6.213   5.900  -0.045 -0.9181  0.0611 -0.1839
  146OSM    H6S16100   6.283   5.824  -0.006 -2.0448 -0.3728  1.0585
  146OSM    H6T16101   6.274   5.992  -0.026  1.1124 -0.8678 -1.8000
  146OSM    C7S16102   6.179   5.889  -0.197 -0.1902  0.2462 -0.0069
  146OSM    H7S16103   6.098   5.956  -0.235 -0.2126 -1.0245 -2.3977
  146OSM    H7T16104   6.140   5.787  -0.220 -0.3824  0.6364 -1.5561
  146OSM    C8S16105   6.293   5.930  -0.291 -0.3868  0.4915  0.0173
  146OSM    H8S16106   6.387   5.880  -0.259 -0.6688 -0.3275 -0.4299
  146OSM    H8T16107   6.304   6.040  -0.279  1.8996  0.1089  2.5449
  146OSM    C9S16108   6.257   5.888  -0.434 -0.2813  1.0570 -0.0202
  146OSM    H9S16109   6.171   5.954  -0.458 -0.3216  0.9884 -0.0615
  146OSM    H9T16110   6.230   5.780  -0.433  1.4494  0.5914  0.9458
  146OSM   C10S16111   6.369   5.919  -0.538  0.1327 -0.8918 -0.2172
  146OSM   H10S16112   6.468   5.891  -0.498  0.3885  1.1137  0.7119
  146OSM   H10T16113   6.363   6.030  -0.536 -1.5966 -0.9299  2.1368
  146OSM   C11S16114   6.343   5.875  -0.682  0.2694  0.1669  0.3699
  146OSM   H11S16115   6.245   5.914  -0.718  1.1948 -0.1813 -2.8559
  146OSM   H11T16116   6.347   5.764  -0.690  0.5321  0.3040 -2.2560
  146OSM   C12S16117   6.458   5.931  -0.768  0.4193  0.3119 -0.2672
  146OSM   H12S16118   6.556   5.896  -0.730  0.1536 -1.8310 -1.3789
  146OSM   H12T16119   6.463   6.042  -0.766 -0.1014  0.3682 -1.3120
  146OSM   C13S16120   6.434   5.894  -0.917  0.1604 -0.6982 -0.6130
  146OSM   H13S16121   6.339   5.945  -0.946 -0.0967 -0.0465  1.2376
  146OSM   H13T16122   6.434   5.783  -0.915  2.3027 -0.7390 -0.5960
  146OSM   C14S16123   6.550   5.936  -1.003 -0.4561  0.2233 -0.0487
  146OSM   H14S16124   6.629   5.860  -0.986 -0.0554  0.9906  1.7238
  146OSM   H14T16125   6.591   6.033  -0.966 -1.4439  0.0741  1.5415
  146OSM   C15S16126   6.507   5.948  -1.148 -0.4240  0.7973  0.7003
  146OSM   H15S16127   6.435   6.031  -1.164  0.9817  1.8093 -0.5801
  146OSM   H15T16128   6.459   5.853  -1.179  0.0077  1.3471 -1.8209
  146OSM   C16S16129   6.638   5.968  -1.225 -0.4755 -0.2295 -0.1832
  146OSM   H16S16130   6.711   5.887  -1.205 -1.2327 -0.9601 -0.3412
  146OSM   H16T16131   6.669   6.068  -1.188  0.3099 -1.1981  1.9044
  146OSM   C17S16132   6.609   5.981  -1.374  0.1524  0.3105 -0.4489
  146OSM   H17S16133   6.529   6.057  -1.387 -1.8742 -1.4987  0.6450
  146OSM   H17T16134   6.563   5.883  -1.401  3.0303 -1.3405  0.2794
  146OSM   C18S16135   6.739   5.984  -1.455  0.1682  0.0353  0.2076
  146OSM   H18S16136   6.717   5.966  -1.562 -0.9769 -0.0448  0.4460
  146OSM   H18T16137   6.803   5.901  -1.417 -0.7771 -0.2780  1.1694
  146OSM   H18U16138   6.786   6.083  -1.442  1.1430 -0.3414 -0.3037
  146OSM    C1F16139   5.773   6.310   0.101 -0.6121 -0.1995 -0.0910
  146OSM     OF16140   5.833   6.370   0.191  0.1852 -0.4976  0.4475
  146OSM    C2F16141   5.667   6.366   0.018  0.6393 -0.3948 -0.1572
  146OSM    H2F16142   5.611   6.431   0.088  1.5329  1.5670 -1.1891
  146OSM    H2G16143   5.601   6.289  -0.025 -0.4697  0.0674  0.6577
  146OSM    C3F16144   5.726   6.459  -0.087  0.5162 -0.7596  0.4315
  146OSM    H3F16145   5.794   6.404  -0.155  0.4909 -0.5006  0.1938
  146OSM    H3G16146   5.783   6.545  -0.045 -0.9193  0.6976 -0.4590
  146OSM    C4F16147   5.623   6.542  -0.168 -0.1302  0.2479  0.0464
  146OSM    H4F16148   5.557   6.594  -0.095 -0.9037  1.9336 -1.7436
  146OSM    H4G16149   5.553   6.492  -0.238  0.5286  0.9162 -1.1421
  146OSM    C5F16150   5.685   6.655  -0.253  0.2139 -0.1213 -0.5566
  146OSM    H5F16151   5.760   6.713  -0.196 -1.7850  1.4967  0.5786
  146OSM    H5G16152   5.617   6.736  -0.288  1.6118  1.4469  0.2465
  146OSM    C6F16153   5.755   6.598  -0.383  0.9449  0.2895 -0.2070
  146OSM    H6F16154   5.674   6.549  -0.440  0.6295 -1.6077  1.7723
  146OSM    H6G16155   5.824   6.517  -0.354  0.5713 -1.1595 -3.0619
  146OSM    C7F16156   5.822   6.706  -0.476 -0.2429 -0.5721 -0.2563
  146OSM    H7F16157   5.901   6.764  -0.423 -2.2777  2.4644 -0.3410
  146OSM    H7G16158   5.742   6.780  -0.498  1.7361  1.6141 -0.4705
  146OSM    C8F16159   5.852   6.645  -0.611 -0.5302 -0.0682  0.1053
  146OSM    H8F16160   5.754   6.619  -0.657 -0.7090  1.1698 -0.2372
  146OSM    H8G16161   5.921   6.558  -0.610  1.0725  1.1558 -0.1411
  146OSM    C9F16162   5.937   6.751  -0.684 -0.4890  0.2102  0.4612
  146OSM    H9F16163   6.021   6.776  -0.619 -0.6093 -0.6788  0.9797
  146OSM   C10F16164   5.916   6.809  -0.804 -0.4080 -0.6347 -0.4359
  146OSM   H10F16165   5.989   6.880  -0.845 -1.5806  0.1239 -1.2639
  146OSM   C11F16166   5.798   6.785  -0.887  0.5257 -0.0713  0.2627
  146OSM   H11F16167   5.735   6.876  -0.893 -0.0548 -0.5081 -5.1682
  146OSM   H11G16168   5.740   6.696  -0.854  0.2473  0.3254  0.8504
  146OSM   C12F16169   5.835   6.753  -1.028  0.2174 -0.9621  0.4887
  146OSM   H12F16170   5.885   6.657  -1.053  1.3788 -0.4486  0.7517
  146OSM   H12G16171   5.898   6.833  -1.074  0.2473 -0.7254  0.9346
  146OSM   C13F16172   5.708   6.760  -1.117 -0.1272  0.4689  0.0486
  146OSM   H13F16173   5.656   6.858  -1.118  1.5372  1.3895  0.4595
  146OSM   H13G16174   5.643   6.686  -1.064 -0.7265  1.0721  0.1647
  146OSM   C14F16175   5.738   6.729  -1.261 -0.2253  0.4107  0.2388
  146OSM   H14F16176   5.803   6.810  -1.302  1.1804 -0.1617  1.2621
  146OSM   H14G16177   5.815   6.650  -1.264  0.1761  0.7786  0.6414
  146OSM   C15F16178   5.623   6.694  -1.357  0.0190  0.3863 -0.4431
  146OSM   H15F16179   5.560   6.786  -1.347 -2.1729 -1.0244 -0.6030
  146OSM   H15G16180   5.567   6.603  -1.329  1.0606  0.1154  0.8387
  146OSM   C16F16181   5.673   6.694  -1.499 -0.4000  0.0204 -0.2084
  146OSM   H16F16182   5.745   6.774  -1.526 -0.7685  0.2872 -0.4079
  146OSM   H16G16183   5.591   6.721  -1.569  0.3314  1.5495 -0.5260
  146OSM   C17F16184   5.738   6.557  -1.533 -0.2909 -0.3358  0.0193
  146OSM   H17F16185   5.650   6.490  -1.542 -0.4009 -0.0287 -1.3489
  146OSM   H17G16186   5.801   6.524  -1.447 -0.6891  2.5048  1.5312
  146OSM   C18F16187   5.823   6.549  -1.663  0.1804 -0.4635 -0.6001
  146OSM   H18F16188   5.764   6.581  -1.752  0.9036 -1.6068 -1.5160
  146OSM   H18G16189   5.850   6.442  -1.674  0.5717 -0.4043 -0.2398
  146OSM   H18H16190   5.911   6.615  -1.648 -0.0343  0.3090 -2.4609
  147OSM      N16191   2.729   2.822   4.603  0.2584  0.2704  0.6106
  147OSM    C1516192   2.778   2.896   4.481 -0.4466  0.1066 -0.2898
  147OSM   H15A16193   2.843   2.831   4.424 -0.2239  0.1485 -0.0851
  147OSM   H15B16194   2.846   2.973   4.514  0.0050 -0.0772 -0.7796
  147OSM   H15C16195   2.692   2.936   4.429 -0.0554  0.4269 -0.7027
  147OSM    C1416196   2.654   2.906   4.695  0.4713  0.0009 -0.3180
  147OSM   H14A16197   2.639   2.837   4.777  1.5106 -1.0851 -1.0037
  147OSM   H14B16198   2.561   2.932   4.649 -0.0088 -2.2930 -0.7556
  147OSM   H14C16199   2.701   2.993   4.739  0.5396 -0.3452  0.3095
  147OSM    C1316200   2.643   2.700   4.576 -0.3144  0.5609 -0.1314
  147OSM   H13A16201   2.618   2.650   4.668  0.9337 -0.2079 -0.1813
  147OSM   H13B16202   2.689   2.624   4.515  1.5453  1.4143  0.1444
  147OSM   H13C16203   2.556   2.715   4.513 -0.1941 -1.2700 -0.7929
  147OSM    C1216204   2.854   2.766   4.667 -0.4963  0.1528  0.4859
  147OSM   H12A16205   2.920   2.731   4.589  0.1741  1.4293  0.4566
  147OSM   H12B16206   2.830   2.674   4.719 -1.2194 -2.4229 -3.8572
  147OSM    C1116207   2.940   2.868   4.748  0.2298  0.8394  0.3602
  147OSM   H11A16208   3.041   2.824   4.764 -0.2000 -0.6295 -0.7390
  147OSM   H11B16209   2.895   2.873   4.849 -0.9837  1.9014 -0.2049
  147OSM      P16210   2.929   3.133   4.738 -0.2583 -0.7997  0.1481
  147OSM    O1316211   3.059   3.204   4.769  0.5247  0.8960  0.3335
  147OSM    O1416212   2.835   3.203   4.650  0.3163  0.3713  0.0630
  147OSM    O1116213   2.864   3.100   4.875  0.5265  0.1108 -0.3811
  147OSM    O1216214   2.962   2.988   4.679  0.1243 -0.1397 -0.0929
  147OSM    C1S16215   2.870   3.188   4.990 -0.8392  0.0662  0.0823
  147OSM    H1S16216   2.891   3.291   4.954 -1.8575 -0.1540 -1.2080
  147OSM    H1T16217   2.966   3.162   5.040 -1.1288 -1.2160  0.0079
  147OSM     NF16218   2.779   3.275   5.206 -0.5183  0.7864 -0.0126
  147OSM    HNF16219   2.829   3.232   5.281  0.5343 -0.4110 -1.3486
  147OSM    C2S16220   2.755   3.182   5.091  0.0174  0.4765  0.0158
  147OSM    H2S16221   2.668   3.207   5.027  0.8022 -1.7107 -2.0661
  147OSM    C3S16222   2.743   3.033   5.147 -0.3499  0.2602 -0.2654
  147OSM    H3S16223   2.816   3.015   5.229 -1.6778 -0.7071  0.7457
  147OSM     O316224   2.765   2.921   5.068  0.6072 -0.1674 -0.6016
  147OSM    HO316225   2.810   2.957   4.991 -0.3147 -0.0052 -1.0746
  147OSM    C4S16226   2.611   3.018   5.209  0.5367  0.2037  0.4998
  147OSM    H4S16227   2.527   3.051   5.146  1.1022 -0.4202 -0.6211
  147OSM    C5S16228   2.582   2.971   5.329  0.3189 -0.5299  0.1114
  147OSM    H5S16229   2.661   2.945   5.401 -0.6337  1.2795  1.9275
  147OSM    C6S16230   2.447   2.963   5.397  0.1824  0.1149 -0.1040
  147OSM    H6S16231   2.413   2.858   5.406 -0.7604  0.3111 -1.1237
  147OSM    H6T16232   2.371   3.025   5.344  0.1869  1.9068  1.8545
  147OSM    C7S16233   2.435   3.014   5.548 -0.2765 -0.9498 -0.0115
  147OSM    H7S16234   2.483   3.113   5.563 -1.7432  0.3059 -2.7857
  147OSM    H7T16235   2.471   2.943   5.625 -0.7200 -1.5189 -0.3176
  147OSM    C8S16236   2.294   3.038   5.601  0.7809 -0.3516 -0.3251
  147OSM    H8S16237   2.245   2.940   5.580  1.2323 -0.9415  1.1876
  147OSM    H8T16238   2.234   3.114   5.547  2.0750  0.2893 -0.9139
  147OSM    C9S16239   2.309   3.059   5.752  0.0478 -0.6128 -0.2482
  147OSM    H9S16240   2.356   3.159   5.769  0.0821 -0.7624  0.6112
  147OSM    H9T16241   2.390   2.997   5.798  1.3000  2.6708  2.4174
  147OSM   C10S16242   2.179   3.053   5.838 -0.3411  0.9594  0.7643
  147OSM   H10S16243   2.160   2.949   5.871  2.1926 -0.4270 -1.7188
  147OSM   H10T16244   2.088   3.080   5.781 -0.9715  0.6270  1.6004
  147OSM   C11S16245   2.170   3.146   5.958  0.5839 -0.3257 -0.4156
  147OSM   H11S16246   2.166   3.249   5.917  0.8367  0.5694  1.6947
  147OSM   H11T16247   2.258   3.141   6.026  0.4279  4.0305  0.4227
  147OSM   C12S16248   2.041   3.137   6.050 -0.3715  0.0500  0.6309
  147OSM   H12S16249   2.004   3.034   6.067 -1.3916  0.4900  1.1758
  147OSM   H12T16250   1.959   3.179   5.989 -0.7140 -0.5231  0.6938
  147OSM   C13S16251   2.070   3.198   6.188 -0.1672 -0.2815  0.5702
  147OSM   H13S16252   2.105   3.304   6.179 -1.1457 -0.0296 -0.4054
  147OSM   H13T16253   2.159   3.150   6.235  0.2123  0.5920  0.7781
  147OSM   C14S16254   1.949   3.193   6.274 -0.5314 -0.4539  0.0005
  147OSM   H14S16255   1.914   3.088   6.290 -0.9642 -0.1497  1.2095
  147OSM   H14T16256   1.868   3.250   6.224  0.4607  2.1727  1.2373
  147OSM   C15S16257   1.977   3.268   6.405 -0.5952  0.7356  0.2761
  147OSM   H15S16258   2.019   3.369   6.387  1.7354 -0.6151 -2.7672
  147OSM   H15T16259   2.062   3.220   6.458  0.9073  0.6463 -2.0571
  147OSM   C16S16260   1.850   3.270   6.491  0.1020  0.3683 -0.6436
  147OSM   H16S16261   1.797   3.174   6.509 -0.2326  0.6910  0.1281
  147OSM   H16T16262   1.781   3.349   6.456  1.1393  2.0473  0.9478
  147OSM   C17S16263   1.888   3.315   6.639 -0.1901  0.6268  1.5903
  147OSM   H17S16264   1.951   3.405   6.624 -0.9417  0.9615  0.2440
  147OSM   H17T16265   1.937   3.233   6.695 -0.9806 -0.0269  1.3430
  147OSM   C18S16266   1.763   3.366   6.719 -0.1069 -0.5497  0.9955
  147OSM   H18S16267   1.697   3.423   6.650  0.9304  0.8799  1.1609
  147OSM   H18T16268   1.788   3.435   6.801  0.4982  1.6267 -0.9273
  147OSM   H18U16269   1.699   3.277   6.741 -0.8854 -0.4285 -0.6366
  147OSM    C1F16270   2.764   3.406   5.195  0.8515 -0.2186 -0.2753
  147OSM     OF16271   2.682   3.447   5.111  0.1462 -0.0207  0.2752
  147OSM    C2F16272   2.845   3.490   5.288 -0.8085 -0.0858 -0.1279
  147OSM    H2F16273   2.907   3.561   5.229 -1.1178 -0.7291 -1.2729
  147OSM    H2G16274   2.911   3.427   5.352  0.1830  2.1080  1.1389
  147OSM    C3F16275   2.756   3.566   5.382  0.3413 -0.0328  0.4814
  147OSM    H3F16276   2.673   3.503   5.422 -1.2657 -1.0700 -3.8537
  147OSM    H3G16277   2.709   3.643   5.317 -2.7870  0.0239  2.5498
  147OSM    C4F16278   2.833   3.640   5.480  0.4772 -0.3136  0.3895
  147OSM    H4F16279   2.899   3.718   5.437  0.4208 -0.2931  0.3389
  147OSM    H4G16280   2.902   3.566   5.525 -0.2289 -1.5040 -0.4163
  147OSM    C5F16281   2.749   3.695   5.595  0.3370 -0.3898  0.3550
  147OSM    H5F16282   2.682   3.616   5.637 -0.8735 -0.6891 -2.0066
  147OSM    H5G16283   2.696   3.783   5.554 -0.8814 -1.7981 -1.2465
  147OSM    C6F16284   2.848   3.737   5.708 -0.5936 -0.8215 -0.0185
  147OSM    H6F16285   2.922   3.809   5.667 -0.1315 -0.7035  0.9755
  147OSM    H6G16286   2.900   3.644   5.741  0.2001 -0.0076  1.1447
  147OSM    C7F16287   2.764   3.787   5.828  0.4560  0.7540 -0.4062
  147OSM    H7F16288   2.696   3.704   5.853  0.4530  1.0692  0.6838
  147OSM    H7G16289   2.702   3.872   5.793  1.2470  1.1672 -0.8340
  147OSM    C8F16290   2.863   3.822   5.945  0.1977  0.5876 -0.3820
  147OSM    H8F16291   2.939   3.901   5.925  2.0969 -0.8235  0.9352
  147OSM    H8G16292   2.919   3.733   5.978 -4.2156 -1.7835  1.5027
  147OSM    C9F16293   2.782   3.864   6.068  0.1833  0.7589  0.1206
  147OSM    H9F16294   2.710   3.943   6.042 -0.8978 -0.3796 -0.4491
  147OSM   C10F16295   2.756   3.797   6.184 -0.2004 -0.4419 -0.8691
  147OSM   H10F16296   2.681   3.842   6.251  1.4131 -2.1583  2.2899
  147OSM   C11F16297   2.812   3.663   6.232  0.4551  0.1161  0.5149
  147OSM   H11F16298   2.903   3.637   6.173  1.2467 -0.6587  2.0347
  147OSM   H11G16299   2.735   3.585   6.214  1.4567 -1.0295  1.1107
  147OSM   C12F16300   2.856   3.680   6.379  0.6279 -0.2562 -0.2335
  147OSM   H12F16301   2.761   3.689   6.437 -0.2437  1.8167 -1.8612
  147OSM   H12G16302   2.917   3.771   6.391  0.1452  0.1952 -1.1430
  147OSM   C13F16303   2.943   3.560   6.429  0.2031  0.0326  0.3497
  147OSM   H13F16304   3.037   3.568   6.370  0.8494 -3.7747  0.5982
  147OSM   H13G16305   2.905   3.459   6.401  1.2812 -0.0692 -0.8210
  147OSM   C14F16306   2.963   3.560   6.584 -0.5512  0.6425  0.7339
  147OSM   H14F16307   3.001   3.659   6.618  1.2942  0.0369  0.5742
  147OSM   H14G16308   3.036   3.477   6.594 -2.5773 -1.4155 -0.5895
  147OSM   C15F16309   2.844   3.517   6.660  0.0328  0.0895 -0.0694
  147OSM   H15F16310   2.814   3.414   6.630 -0.3475  0.0735  0.3487
  147OSM   H15G16311   2.766   3.586   6.621  2.5448  3.0536 -0.1860
  147OSM   C16F16312   2.857   3.531   6.813  0.5457  0.3635  0.2267
  147OSM   H16F16313   2.910   3.628   6.825  3.0501 -1.0741  1.8504
  147OSM   H16G16314   2.932   3.453   6.838  0.5763 -0.1707 -1.4643
  147OSM   C17F16315   2.739   3.498   6.899 -0.4218  0.4523 -0.8530
  147OSM   H17F16316   2.718   3.390   6.883  0.9474 -0.1079  0.8287
  147OSM   H17G16317   2.655   3.556   6.856  1.9657  2.5468 -3.0821
  147OSM   C18F16318   2.757   3.541   7.047  0.2506  0.0594  0.7296
  147OSM   H18F16319   2.781   3.650   7.049  1.3323 -0.1509 -0.0978
  147OSM   H18G16320   2.835   3.480   7.098  2.0358  0.2176 -1.6381
  147OSM   H18H16321   2.658   3.541   7.098 -0.3414 -0.5462 -0.3878
  148OSM      N16322   5.957   2.953   4.463 -0.3479 -0.4116  0.1256
  148OSM    C1516323   6.076   2.893   4.397  0.0000 -0.7184 -0.2452
  148OSM   H15A16324   6.050   2.819   4.322  1.0741 -1.0255 -0.3307
  148OSM   H15B16325   6.131   2.830   4.466  1.6349  0.7360 -0.1694
  148OSM   H15C16326   6.131   2.965   4.338 -1.4987 -0.6182 -1.6101
  148OSM    C1416327   5.899   3.053   4.369  0.1216 -0.2864  0.5237
  148OSM   H14A16328   5.841   3.017   4.285 -1.4629  2.6242  0.2530
  148OSM   H14B16329   5.969   3.129   4.337 -0.4774 -0.7963 -2.2848
  148OSM   H14C16330   5.821   3.100   4.426  1.3290  0.3277  1.7295
  148OSM    C1316331   5.852   2.845   4.485  0.5981  0.1212 -0.3064
  148OSM   H13A16332   5.765   2.888   4.534  0.9135 -1.0203  1.3109
  148OSM   H13B16333   5.888   2.776   4.559 -2.5805 -0.3936  0.9145
  148OSM   H13C16334   5.838   2.786   4.395  2.5790  1.1874 -1.3870
  148OSM    C1216335   5.991   3.026   4.588 -0.3799  0.0521  0.6304
  148OSM   H12A16336   6.058   3.108   4.564  0.3323 -0.3270  1.2610
  148OSM   H12B16337   6.046   2.959   4.653  0.1221  0.2348  0.4041
  148OSM    C1116338   5.877   3.091   4.661 -0.8802 -0.4248  0.1069
  148OSM   H11A16339   5.918   3.103   4.764 -0.8882 -0.0588  0.0669
  148OSM   H11B16340   5.793   3.019   4.674  1.0251 -2.3218  3.7520
  148OSM      P16341   5.933   3.339   4.594  0.0211 -0.3876  0.0283
  148OSM    O1316342   6.076   3.314   4.580 -0.8507 -0.2793 -0.3769
  148OSM    O1416343   5.873   3.436   4.497 -0.5286  0.5600 -0.1755
  148OSM    O1116344   5.923   3.397   4.735 -0.0236 -0.0845 -1.0493
  148OSM    O1216345   5.845   3.209   4.598  0.8034  0.0633  0.4764
  148OSM    C1S16346   5.793   3.424   4.799 -0.3795  0.6067 -0.6664
  148OSM    H1S16347   5.712   3.348   4.798  1.8730 -1.9291 -0.2179
  148OSM    H1T16348   5.757   3.508   4.735 -1.0574  0.0410 -1.0479
  148OSM     NF16349   5.672   3.472   5.012 -0.4196 -0.0071  0.2178
  148OSM    HNF16350   5.646   3.569   5.015  0.9547  0.3939  2.8791
  148OSM    C2S16351   5.805   3.456   4.955 -0.4658  0.2918 -0.0715
  148OSM    H2S16352   5.851   3.368   5.006 -2.2931 -0.8714 -0.3033
  148OSM    C3S16353   5.891   3.580   4.981 -0.3994 -0.6546 -0.1718
  148OSM    H3S16354   5.824   3.655   4.933 -0.0293 -0.8643 -1.0345
  148OSM     O316355   6.011   3.588   4.912 -0.6723  0.1719 -0.3601
  148OSM    HO316356   5.997   3.506   4.864 -0.6273  0.3517 -0.6822
  148OSM    C4S16357   5.913   3.605   5.129 -0.2421 -0.2273  0.5879
  148OSM    H4S16358   5.966   3.516   5.167 -1.1552 -0.3031  1.7348
  148OSM    C5S16359   5.898   3.711   5.207  0.0751 -0.7800 -0.0903
  148OSM    H5S16360   5.853   3.804   5.168  1.8491 -0.1342 -0.7350
  148OSM    C6S16361   5.935   3.726   5.356 -0.7440  0.7197  0.3860
  148OSM    H6S16362   5.863   3.793   5.408 -0.5491  0.3876  1.1073
  148OSM    H6T16363   6.030   3.782   5.360 -0.8616  1.2306 -2.4092
  148OSM    C7S16364   5.940   3.601   5.453  0.2371 -0.3755  0.8935
  148OSM    H7S16365   6.015   3.528   5.415  2.2174  1.6401  0.6688
  148OSM    H7T16366   5.836   3.561   5.455 -1.0311  2.5407 -0.6090
  148OSM    C8S16367   5.977   3.650   5.590  0.2867  0.5816  0.7667
  148OSM    H8S16368   5.895   3.716   5.624 -0.3360  0.6868 -0.8528
  148OSM    H8T16369   6.074   3.704   5.595  0.2352  0.6856  0.6562
  148OSM    C9S16370   5.987   3.532   5.688 -0.8337 -0.0787  0.4110
  148OSM    H9S16371   6.087   3.485   5.679 -0.5033  0.5750  0.5727
  148OSM    H9T16372   5.912   3.454   5.665  0.4204 -0.9399 -0.9823
  148OSM   C10S16373   5.972   3.570   5.832 -0.2917 -0.6002 -0.3280
  148OSM   H10S16374   5.970   3.478   5.895  1.5171  0.8215  1.9288
  148OSM   H10T16375   5.875   3.622   5.848 -0.6751 -1.1423 -0.8135
  148OSM   C11S16376   6.087   3.658   5.891  0.3467  0.5976 -0.0243
  148OSM   H11S16377   6.094   3.757   5.842  2.9096  0.4345 -0.1251
  148OSM   H11T16378   6.165   3.585   5.861 -1.6953 -0.6714 -2.7176
  148OSM   C12S16379   6.079   3.686   6.039 -0.2002  0.7592  0.5438
  148OSM   H12S16380   6.083   3.589   6.093 -0.4046 -0.3402 -1.3194
  148OSM   H12T16381   5.987   3.740   6.069 -0.9545 -0.7757  1.0518
  148OSM   C13S16382   6.194   3.764   6.094  0.3829 -1.1856  0.2703
  148OSM   H13S16383   6.194   3.869   6.058 -1.0490 -1.5921 -0.9753
  148OSM   H13T16384   6.279   3.712   6.043  0.2215 -0.7921 -0.4049
  148OSM   C14S16385   6.207   3.748   6.244  0.0138 -0.6723 -0.8592
  148OSM   H14S16386   6.224   3.641   6.267 -1.5851 -0.8874 -0.5888
  148OSM   H14T16387   6.110   3.781   6.286  0.3888  0.3769 -0.7604
  148OSM   C15S16388   6.319   3.837   6.292 -0.0629 -0.3310  0.0057
  148OSM   H15S16389   6.292   3.943   6.278  2.0891  0.4674  1.4326
  148OSM   H15T16390   6.410   3.822   6.230 -0.7707  0.1650 -1.1782
  148OSM   C16S16391   6.367   3.810   6.438  0.2231  0.4953 -0.6177
  148OSM   H16S16392   6.414   3.711   6.453  3.2577  1.7064 -1.3220
  148OSM   H16T16393   6.271   3.812   6.494 -0.5839 -0.8767 -1.8988
  148OSM   C17S16394   6.480   3.902   6.488 -0.1443 -0.8857  0.4809
  148OSM   H17S16395   6.460   3.999   6.436  0.4915 -0.3819  1.1628
  148OSM   H17T16396   6.572   3.869   6.436 -0.1857 -1.2361  0.6309
  148OSM   C18S16397   6.490   3.934   6.633 -0.8591  0.2419  0.3782
  148OSM   H18S16398   6.400   3.995   6.657 -0.7750  0.5330 -0.0353
  148OSM   H18T16399   6.583   3.986   6.662  0.2126 -2.2124  1.5975
  148OSM   H18U16400   6.485   3.846   6.701 -2.3890 -0.0604 -0.0694
  148OSM    C1F16401   5.571   3.383   5.028 -0.4010  0.3658  0.0807
  148OSM     OF16402   5.581   3.265   5.064  0.1413 -0.7629 -0.0681
  148OSM    C2F16403   5.436   3.436   4.996  0.2218 -0.1185  0.3294
  148OSM    H2F16404   5.432   3.463   4.888 -0.9707  0.9803  0.6207
  148OSM    H2G16405   5.428   3.531   5.052 -2.1263 -1.3363  2.2789
  148OSM    C3F16406   5.307   3.346   5.027 -0.3940  0.3123  0.8369
  148OSM    H3F16407   5.327   3.240   4.999 -3.9227 -0.6923  1.6338
  148OSM    H3G16408   5.225   3.377   4.959  1.2545  1.4399 -0.7411
  148OSM    C4F16409   5.249   3.357   5.166  0.4020  0.8175 -0.2570
  148OSM    H4F16410   5.216   3.463   5.165 -2.4017  0.0307 -1.5403
  148OSM    H4G16411   5.330   3.346   5.242  2.5566  3.9165 -1.8944
  148OSM    C5F16412   5.121   3.280   5.183 -0.6520 -0.0757 -0.6700
  148OSM    H5F16413   5.129   3.177   5.142  0.8758 -1.1575  2.0976
  148OSM    H5G16414   5.029   3.323   5.138 -1.8443 -0.5067  1.2304
  148OSM    C6F16415   5.092   3.273   5.331  0.4981 -0.3318 -0.4606
  148OSM    H6F16416   4.984   3.262   5.353  0.1287  0.2246 -1.8387
  148OSM    H6G16417   5.129   3.362   5.386 -0.6149 -0.3485  0.3474
  148OSM    C7F16418   5.164   3.153   5.398  0.8109 -0.3600 -0.2501
  148OSM    H7F16419   5.271   3.155   5.368  1.3522  1.2342  1.6201
  148OSM    H7G16420   5.127   3.062   5.346 -0.3651 -1.0470  1.6880
  148OSM    C8F16421   5.145   3.133   5.547  0.2862  0.3727  0.7909
  148OSM    H8F16422   5.162   3.026   5.572 -0.2440 -0.2442 -1.2480
  148OSM    H8G16423   5.034   3.140   5.555 -0.0274 -0.0167 -2.0710
  148OSM    C9F16424   5.221   3.222   5.633  0.0782  0.2305 -0.2971
  148OSM    H9F16425   5.234   3.317   5.580  0.1058  0.1263 -0.4780
  148OSM   C10F16426   5.287   3.185   5.746 -0.7232 -0.4712  0.3087
  148OSM   H10F16427   5.329   3.262   5.812 -1.5095 -0.3879  0.7236
  148OSM   C11F16428   5.286   3.057   5.822 -0.2810  0.3257  0.8089
  148OSM   H11F16429   5.367   2.989   5.790 -2.3149 -1.4789 -0.7456
  148OSM   H11G16430   5.188   3.007   5.816  1.0770 -2.4312 -0.0546
  148OSM   C12F16431   5.306   3.084   5.975  0.2841 -0.0137 -1.4393
  148OSM   H12F16432   5.248   3.174   6.005 -0.7956 -0.7369 -1.3144
  148OSM   H12G16433   5.412   3.113   5.995  0.9157 -1.9216 -1.8637
  148OSM   C13F16434   5.266   2.967   6.064 -0.0723  0.6511  0.3244
  148OSM   H13F16435   5.327   2.875   6.051 -0.5989  0.0553  1.9006
  148OSM   H13G16436   5.168   2.928   6.028  0.6734 -1.5805  0.5694
  148OSM   C14F16437   5.258   2.998   6.210 -0.4773 -0.3114  0.1851
  148OSM   H14F16438   5.180   3.076   6.225  1.1719  1.8782 -1.8562
  148OSM   H14G16439   5.352   3.045   6.243 -2.6443  3.2579  1.8542
  148OSM   C15F16440   5.220   2.878   6.301  0.1361 -0.2199  0.2543
  148OSM   H15F16441   5.279   2.789   6.270 -0.0390 -0.7490  1.3640
  148OSM   H15G16442   5.112   2.857   6.284 -0.7191  1.2669  3.1888
  148OSM   C16F16443   5.227   2.909   6.448  0.1935 -0.0790  0.7232
  148OSM   H16F16444   5.182   3.010   6.462  0.9973  0.7773 -2.1359
  148OSM   H16G16445   5.334   2.936   6.462 -0.1710  2.6156 -0.8072
  148OSM   C17F16446   5.157   2.814   6.546  0.0755 -0.6397  0.5904
  148OSM   H17F16447   5.201   2.713   6.542  1.1241 -0.1551 -1.0332
  148OSM   H17G16448   5.049   2.798   6.524 -0.3282  1.8634  0.4680
  148OSM   C18F16449   5.155   2.876   6.683 -0.3984  0.2046 -0.3815
  148OSM   H18F16450   5.111   2.805   6.757  2.0828 -0.6133  0.4024
  148OSM   H18G16451   5.090   2.966   6.690 -0.8956 -0.1742  0.0003
  148OSM   H18H16452   5.260   2.900   6.711  0.1681 -1.9485 -0.4661
  149OSM      N16453   1.455   3.342   4.364 -0.1633 -0.4549 -0.4744
  149OSM    C1516454   1.309   3.326   4.347  1.0686 -0.6031 -0.2929
  149OSM   H15A16455   1.247   3.374   4.420 -0.1328 -1.2067 -0.8876
  149OSM   H15B16456   1.280   3.224   4.367  1.2503 -0.4202  1.0164
  149OSM   H15C16457   1.278   3.360   4.250  3.8653  2.0429 -0.4125
  149OSM    C1416458   1.524   3.258   4.260  0.4699 -0.0885  0.7877
  149OSM   H14A16459   1.511   3.301   4.162 -1.7810  0.5557  1.3044
  149OSM   H14B16460   1.479   3.160   4.262 -0.4027  0.2789 -0.1423
  149OSM   H14C16461   1.627   3.246   4.290  0.2191 -1.2509  1.2249
  149OSM    C1316462   1.489   3.491   4.330  0.2045 -0.3701 -0.0442
  149OSM   H13A16463   1.512   3.550   4.417 -3.5176 -0.2286  0.9960
  149OSM   H13B16464   1.401   3.527   4.278  0.0691 -1.0536 -0.2976
  149OSM   H13C16465   1.576   3.498   4.266  0.1370  2.1472  0.0482
  149OSM    C1216466   1.502   3.313   4.506  0.5153  0.2131 -0.1163
  149OSM   H12A16467   1.459   3.220   4.540 -1.4557  0.4746 -1.6638
  149OSM   H12B16468   1.446   3.384   4.565  1.5170  1.7263 -0.9261
  149OSM    C1116469   1.650   3.317   4.541  0.1404  0.1834 -0.4269
  149OSM   H11A16470   1.653   3.298   4.651 -3.1918  1.4002 -0.0033
  149OSM   H11B16471   1.687   3.418   4.515  0.1748  0.2415 -0.1573
  149OSM      P16472   1.699   3.062   4.479  0.2797  0.1672 -0.6430
  149OSM    O1316473   1.582   3.005   4.415  0.0873 -0.1186 -0.0353
  149OSM    O1416474   1.831   2.996   4.449 -0.0213 -0.4168 -0.0858
  149OSM    O1116475   1.682   3.046   4.630  0.1079  0.0235  0.7127
  149OSM    O1216476   1.712   3.216   4.459 -0.1343 -0.0008  0.3793
  149OSM    C1S16477   1.768   2.991   4.730 -0.8480  0.3174  0.7928
  149OSM    H1S16478   1.869   3.034   4.715 -0.7928 -0.1618 -0.3395
  149OSM    H1T16479   1.765   2.880   4.738  0.3689  0.3681  2.3339
  149OSM     NF16480   1.811   2.962   4.977 -0.1410 -0.6543  0.0129
  149OSM    HNF16481   1.763   2.882   5.011  0.3541 -1.3391 -0.8533
  149OSM    C2S16482   1.726   3.027   4.881  0.5568  0.1509  0.4483
  149OSM    H2S16483   1.748   3.135   4.894  0.5630  0.0555  1.3352
  149OSM    C3S16484   1.574   2.998   4.902 -0.0639  1.0539  0.3465
  149OSM    H3S16485   1.562   2.888   4.896  0.8784  0.9259  0.6660
  149OSM     O316486   1.489   3.062   4.809  0.3954  0.1749  0.1362
  149OSM    HO316487   1.541   3.082   4.731  0.9045  2.5046  1.0110
  149OSM    C4S16488   1.539   3.036   5.045 -0.2890  0.2978 -0.6444
  149OSM    H4S16489   1.565   2.959   5.119 -1.6356  0.7426  0.3392
  149OSM    C5S16490   1.490   3.149   5.099  0.0493 -1.1401  0.1947
  149OSM    H5S16491   1.467   3.232   5.030 -0.5153 -1.4815 -0.0306
  149OSM    C6S16492   1.467   3.184   5.249  0.1240  0.8958  0.0743
  149OSM    H6S16493   1.376   3.247   5.258  0.1297  1.0249 -0.7710
  149OSM    H6T16494   1.553   3.249   5.278  0.3437 -0.6740  3.5293
  149OSM    C7S16495   1.456   3.068   5.350 -0.2223  0.3722 -0.1469
  149OSM    H7S16496   1.555   3.022   5.369 -0.2384 -0.7301 -2.3964
  149OSM    H7T16497   1.381   2.993   5.317  0.4491 -0.4204  0.1173
  149OSM    C8S16498   1.397   3.125   5.481  0.7493  0.3798 -0.4468
  149OSM    H8S16499   1.303   3.175   5.450  0.0851 -0.3952  0.2776
  149OSM    H8T16500   1.459   3.211   5.515  0.4627  0.0119  1.0828
  149OSM    C9S16501   1.381   3.019   5.588  0.0438 -0.3194  0.3962
  149OSM    H9S16502   1.465   2.950   5.609 -0.4407 -0.9404  0.3245
  149OSM    H9T16503   1.296   2.955   5.558 -0.9785  1.3299 -0.4023
  149OSM   C10S16504   1.347   3.084   5.724  0.2101 -0.3062 -0.8299
  149OSM   H10S16505   1.254   3.144   5.714  0.5168  0.2020 -0.6835
  149OSM   H10T16506   1.416   3.168   5.745 -1.6766  2.0651 -3.2830
  149OSM   C11S16507   1.350   2.993   5.847  0.8426 -0.1879 -0.4529
  149OSM   H11S16508   1.311   3.063   5.925 -0.6288  0.2182 -1.5252
  149OSM   H11T16509   1.459   2.981   5.866  0.8793  0.1711 -0.4251
  149OSM   C12S16510   1.279   2.861   5.834 -0.0995 -0.9005 -0.6668
  149OSM   H12S16511   1.296   2.815   5.735  0.6844 -1.0977 -0.4425
  149OSM   H12T16512   1.171   2.888   5.829  0.3337  0.8266 -1.6611
  149OSM   C13S16513   1.312   2.766   5.947  0.6642  0.0862 -0.3348
  149OSM   H13S16514   1.408   2.713   5.927  2.4459  3.3276 -1.1136
  149OSM   H13T16515   1.232   2.689   5.955  1.5953 -1.0820 -1.7585
  149OSM   C14S16516   1.321   2.832   6.083 -0.4920  0.2807  0.5450
  149OSM   H14S16517   1.249   2.916   6.096 -1.1796  0.0402 -1.2940
  149OSM   H14T16518   1.422   2.878   6.089  0.9176 -2.3135 -1.2981
  149OSM   C15S16519   1.322   2.724   6.194 -0.6627 -0.1209 -0.7681
  149OSM   H15S16520   1.378   2.635   6.157 -0.2233  0.3464 -1.2609
  149OSM   H15T16521   1.224   2.674   6.206 -0.7220  0.4946  1.7803
  149OSM   C16S16522   1.365   2.778   6.332  0.0377  0.6893 -0.0897
  149OSM   H16S16523   1.284   2.847   6.365  0.6965  1.7721 -0.6622
  149OSM   H16T16524   1.463   2.829   6.329  2.0351 -2.7217  1.5676
  149OSM   C17S16525   1.365   2.663   6.431  0.4169 -0.0016  0.4319
  149OSM   H17S16526   1.443   2.595   6.389  0.8823  1.0943 -0.5152
  149OSM   H17T16527   1.277   2.598   6.414  0.0073  0.7882 -0.5636
  149OSM   C18S16528   1.395   2.694   6.577  0.4767  0.0009 -0.0626
  149OSM   H18S16529   1.324   2.755   6.638  0.8835 -0.6344  1.0747
  149OSM   H18T16530   1.482   2.762   6.587  0.3918  0.0951  0.0453
  149OSM   H18U16531   1.413   2.600   6.634 -2.1838 -0.1412  0.6629
  149OSM    C1F16532   1.941   2.986   5.001  0.3059 -0.2539  0.1643
  149OSM     OF16533   2.003   3.065   4.925  0.3536  0.4525  0.3101
  149OSM    C2F16534   2.014   2.905   5.112 -0.1278 -0.6587  0.0773
  149OSM    H2F16535   2.082   2.827   5.072  2.8028  1.1932  1.1028
  149OSM    H2G16536   1.940   2.864   5.184 -1.2847  0.9397 -0.1376
  149OSM    C3F16537   2.107   2.991   5.191  0.6393 -0.2191 -0.3738
  149OSM    H3F16538   2.188   3.036   5.130 -0.2000 -2.0608 -3.0279
  149OSM    H3G16539   2.150   2.929   5.272  0.7309 -0.2690 -0.4598
  149OSM    C4F16540   2.032   3.109   5.263  0.1614 -0.2892 -0.0961
  149OSM    H4F16541   1.973   3.152   5.179  0.1046 -2.1184 -1.0558
  149OSM    H4G16542   2.101   3.183   5.307 -0.3544 -0.2267  0.6110
  149OSM    C5F16543   1.939   3.054   5.373  0.5239 -0.3784  0.3644
  149OSM    H5F16544   1.991   2.966   5.416  2.5868  0.8081  0.4454
  149OSM    H5G16545   1.842   3.024   5.328  1.0504 -3.8827  1.3075
  149OSM    C6F16546   1.906   3.154   5.490 -0.6308  0.7803  0.7608
  149OSM    H6F16547   1.867   3.253   5.459 -2.1913  0.1818  0.6996
  149OSM    H6G16548   1.993   3.183   5.553 -1.7684  1.5200  2.0442
  149OSM    C7F16549   1.799   3.108   5.597 -0.2327 -0.2863  0.1230
  149OSM    H7F16550   1.824   3.004   5.629  1.0555  0.2445  0.9456
  149OSM    H7G16551   1.698   3.102   5.551 -1.8376 -0.4283  3.3813
  149OSM    C8F16552   1.800   3.192   5.729  0.5516  0.2783 -0.1993
  149OSM    H8F16553   1.901   3.183   5.775  0.1422 -0.9566  0.5079
  149OSM    H8G16554   1.733   3.132   5.795  2.1794 -0.5177  0.7736
  149OSM    C9F16555   1.752   3.334   5.714 -0.3395  0.0903 -0.4231
  149OSM    H9F16556   1.757   3.379   5.613 -0.6898 -0.5841 -0.7463
  149OSM   C10F16557   1.709   3.408   5.813  0.5947  0.0528  0.1856
  149OSM   H10F16558   1.678   3.510   5.786  1.1903 -0.0336 -0.8605
  149OSM   C11F16559   1.689   3.369   5.955 -0.1597  0.0855 -0.0764
  149OSM   H11F16560   1.721   3.447   6.027 -0.2643 -1.1681  1.3927
  149OSM   H11G16561   1.760   3.286   5.977  0.1235 -0.0549 -1.4250
  149OSM   C12F16562   1.548   3.324   5.978 -0.1443 -0.2335  1.3720
  149OSM   H12F16563   1.531   3.227   5.926 -0.5070 -0.3350  1.6791
  149OSM   H12G16564   1.479   3.395   5.928  0.8872 -1.3589 -1.9059
  149OSM   C13F16565   1.511   3.298   6.121  0.4981  0.8422 -0.2507
  149OSM   H13F16566   1.401   3.286   6.137  0.8089 -0.1347  1.3400
  149OSM   H13G16567   1.545   3.387   6.179 -1.5429  1.5647 -0.0705
  149OSM   C14F16568   1.570   3.160   6.165  0.3095  0.4534 -0.2813
  149OSM   H14F16569   1.674   3.141   6.131 -0.0783 -1.9427 -0.3214
  149OSM   H14G16570   1.513   3.071   6.132 -0.2670 -0.6010  3.1370
  149OSM   C15F16571   1.583   3.146   6.316 -0.6719 -0.7199 -0.2083
  149OSM   H15F16572   1.635   3.235   6.358  0.4907 -1.3312 -0.3180
  149OSM   H15G16573   1.643   3.060   6.353  1.0718  1.3761  2.2145
  149OSM   C16F16574   1.448   3.152   6.394 -0.1120  0.3846 -0.7597
  149OSM   H16F16575   1.424   3.057   6.444  1.1724  0.9963  1.1264
  149OSM   H16G16576   1.375   3.183   6.316 -0.4634 -0.3005 -0.7105
  149OSM   C17F16577   1.436   3.254   6.507 -1.1480  0.5668  0.3840
  149OSM   H17F16578   1.451   3.357   6.469 -0.9534  0.0275 -1.0818
  149OSM   H17G16579   1.515   3.231   6.581 -3.3125 -1.4671  2.2560
  149OSM   C18F16580   1.308   3.241   6.577 -0.2910  0.1755  0.2038
  149OSM   H18F16581   1.229   3.260   6.502  1.9727  0.3389 -2.2828
  149OSM   H18G16582   1.302   3.312   6.662  2.5810  3.2333 -1.8977
  149OSM   H18H16583   1.295   3.136   6.612  0.3454 -0.4404 -1.3390
  150OSM      N16584   4.088   4.869   4.843  0.0524  0.4512  0.1066
  150OSM    C1516585   4.059   5.018   4.854  0.2153  0.3399  0.2932
  150OSM   H15A16586   4.102   5.059   4.943  2.2492  1.1954 -1.0285
  150OSM   H15B16587   3.954   5.044   4.841  1.3168  5.0307 -1.2245
  150OSM   H15C16588   4.106   5.068   4.771 -2.2994  1.3578 -0.6220
  150OSM    C1416589   4.021   4.795   4.959  0.3882  0.1294  0.1302
  150OSM   H14A16590   4.052   4.855   5.044 -0.2005  0.0028  0.4383
  150OSM   H14B16591   4.052   4.691   4.961 -1.3065 -0.3951  0.9867
  150OSM   H14C16592   3.914   4.789   4.951  0.2128  1.3983  1.1830
  150OSM    C1316593   4.032   4.824   4.712  0.0325 -0.5414  0.2601
  150OSM   H13A16594   3.925   4.827   4.701 -0.0297 -2.7155 -0.1406
  150OSM   H13B16595   4.059   4.720   4.700 -0.0897 -0.8047  1.9339
  150OSM   H13C16596   4.072   4.881   4.630 -1.6945  0.2776 -0.0535
  150OSM    C1216597   4.234   4.849   4.856 -0.0548  0.3783 -0.3348
  150OSM   H12A16598   4.253   4.748   4.888  0.3198  1.0386  1.6462
  150OSM   H12B16599   4.272   4.917   4.931 -1.4018 -0.4002  1.0796
  150OSM    C1116600   4.336   4.886   4.739 -0.0140 -0.2385  0.4381
  150OSM   H11A16601   4.318   4.831   4.644 -0.2618  0.2641  0.1918
  150OSM   H11B16602   4.439   4.853   4.767  0.5105  0.2292 -0.8655
  150OSM      P16603   4.463   5.113   4.740 -0.1128  0.3671 -0.0751
  150OSM    O1316604   4.561   5.071   4.632  0.1516  0.4469 -0.9075
  150OSM    O1416605   4.437   5.261   4.735 -0.6143  0.4119  0.3667
  150OSM    O1116606   4.528   5.069   4.873 -0.3429 -0.2121  0.2750
  150OSM    O1216607   4.329   5.025   4.719 -1.1131  0.2272 -0.0122
  150OSM    C1S16608   4.509   5.137   4.989  0.7067  0.1942 -0.9655
  150OSM    H1S16609   4.401   5.130   5.013  0.4633  1.9304 -1.4320
  150OSM    H1T16610   4.533   5.245   4.991 -2.3809  0.9946  0.7763
  150OSM     NF16611   4.588   5.171   5.219  0.4471  0.3217 -0.2689
  150OSM    HNF16612   4.676   5.214   5.236  1.2822 -1.3103 -0.2315
  150OSM    C2S16613   4.586   5.073   5.109  0.3279 -0.2666  0.4209
  150OSM    H2S16614   4.527   4.988   5.152  0.7143  0.4752  2.5625
  150OSM    C3S16615   4.729   5.018   5.087  0.6861  0.2093 -0.1740
  150OSM    H3S16616   4.796   5.101   5.058 -0.4477  0.4752 -2.2098
  150OSM     O316617   4.730   4.931   4.974 -0.1380 -0.3553  0.6808
  150OSM    HO316618   4.663   4.970   4.918  2.8179  1.3803 -1.9934
  150OSM    C4S16619   4.784   4.942   5.208  0.4396 -0.2495 -0.2347
  150OSM    H4S16620   4.736   4.843   5.218  0.5260 -0.1999  0.7180
  150OSM    C5S16621   4.884   4.981   5.287  0.8277 -0.0747 -0.5393
  150OSM    H5S16622   4.928   5.081   5.283  0.2532  0.7173  4.9307
  150OSM    C6S16623   4.923   4.896   5.408 -0.3194 -0.4866 -0.3260
  150OSM    H6S16624   5.032   4.873   5.401 -0.2069 -0.2557  0.5032
  150OSM    H6T16625   4.867   4.800   5.409 -0.4125 -0.4308  0.4517
  150OSM    C7S16626   4.901   4.968   5.540 -0.2925  0.0867 -0.4501
  150OSM    H7S16627   4.798   5.007   5.534 -0.7328 -0.8085  0.7941
  150OSM    H7T16628   4.974   5.051   5.537 -0.5423  0.3062 -3.2509
  150OSM    C8S16629   4.933   4.874   5.656  0.1319  0.2435 -1.0359
  150OSM    H8S16630   5.026   4.816   5.635 -0.7691 -1.6171 -0.0909
  150OSM    H8T16631   4.853   4.797   5.650  0.0547  0.2360 -0.0018
  150OSM    C9S16632   4.926   4.935   5.798  0.0625  0.4582 -0.3135
  150OSM    H9S16633   4.832   4.993   5.804 -0.1636  0.1828 -1.0814
  150OSM    H9T16634   5.004   5.010   5.825 -0.7151  2.5976 -3.5094
  150OSM   C10S16635   4.931   4.838   5.916 -0.0712 -0.2944  0.1748
  150OSM   H10S16636   5.018   4.770   5.913 -0.9484 -1.4641  0.6257
  150OSM   H10T16637   4.845   4.768   5.910  0.3988 -0.8043 -1.0915
  150OSM   C11S16638   4.928   4.911   6.054  0.3596 -0.4579 -0.4345
  150OSM   H11S16639   4.828   4.958   6.063  0.2831 -0.9040  1.7650
  150OSM   H11T16640   5.005   4.991   6.055  2.9883 -2.8070  0.3073
  150OSM   C12S16641   4.950   4.831   6.174 -0.6824  0.2863  0.1297
  150OSM   H12S16642   5.047   4.778   6.179 -0.2765  1.1147  2.0274
  150OSM   H12T16643   4.873   4.751   6.174 -0.9018  0.4656 -1.6867
  150OSM   C13S16644   4.946   4.917   6.302 -0.9693  0.7566 -0.4034
  150OSM   H13S16645   4.846   4.962   6.321 -1.2125 -0.3295  1.1257
  150OSM   H13T16646   5.028   4.991   6.305 -0.6995  0.4897 -0.9988
  150OSM   C14S16647   4.971   4.828   6.421 -0.7461  0.2404 -0.2936
  150OSM   H14S16648   5.066   4.772   6.406 -0.3680  0.3593  1.3934
  150OSM   H14T16649   4.887   4.757   6.434 -2.2183  1.9852  0.0397
  150OSM   C15S16650   4.999   4.906   6.553 -0.5225  0.7971 -0.7523
  150OSM   H15S16651   5.070   4.991   6.547  0.9744 -0.2447  1.0836
  150OSM   H15T16652   5.045   4.826   6.616  0.6136  0.9120 -1.4230
  150OSM   C16S16653   4.865   4.939   6.619  0.3371 -0.7339 -0.4251
  150OSM   H16S16654   4.805   4.849   6.642 -1.9237  0.1336 -2.4921
  150OSM   H16T16655   4.812   4.982   6.532  0.3125 -1.6078 -0.8468
  150OSM   C17S16656   4.882   5.034   6.741 -0.3544 -1.0354  0.6337
  150OSM   H17S16657   4.938   5.123   6.706 -1.2398 -0.4529  0.6800
  150OSM   H17T16658   4.933   4.982   6.825  2.8217  1.3153  0.3474
  150OSM   C18S16659   4.743   5.083   6.791 -0.1548 -0.4059 -0.1088
  150OSM   H18S16660   4.765   5.144   6.882 -0.7945  1.2528 -1.0303
  150OSM   H18T16661   4.671   5.000   6.813 -0.1408  0.4059  3.6441
  150OSM   H18U16662   4.709   5.154   6.713  2.4465  2.3332  1.0644
  150OSM    C1F16663   4.477   5.221   5.287  0.3223 -0.6526 -0.4126
  150OSM     OF16664   4.363   5.181   5.258  0.0012  0.0705  0.5992
  150OSM    C2F16665   4.507   5.337   5.389  0.3097  0.3195 -0.2679
  150OSM    H2F16666   4.557   5.420   5.335 -0.6254  0.1776 -1.3869
  150OSM    H2G16667   4.566   5.299   5.475  0.9228 -1.1101 -1.2699
  150OSM    C3F16668   4.372   5.392   5.458 -0.6737 -0.1787  0.0089
  150OSM    H3F16669   4.337   5.311   5.526  2.3480 -2.5473 -1.0139
  150OSM    H3G16670   4.290   5.414   5.386  0.1683  2.5147 -0.2332
  150OSM    C4F16671   4.392   5.521   5.528 -0.2492 -0.6291  0.4654
  150OSM    H4F16672   4.421   5.602   5.458  0.9910 -1.8710 -0.5089
  150OSM    H4G16673   4.474   5.495   5.598  0.1169 -0.8478 -0.0432
  150OSM    C5F16674   4.261   5.572   5.596 -0.3103  0.0655  0.6323
  150OSM    H5F16675   4.229   5.525   5.691  2.2197  0.9737  2.0226
  150OSM    H5G16676   4.174   5.563   5.527 -1.2320  0.6013  1.6990
  150OSM    C6F16677   4.268   5.726   5.621 -0.2410  0.0071  0.4525
  150OSM    H6F16678   4.166   5.761   5.648  0.0586  0.1505  1.4474
  150OSM    H6G16679   4.300   5.780   5.529  0.1795  1.4258  1.4040
  150OSM    C7F16680   4.368   5.761   5.731  0.0035 -0.1925  0.2985
  150OSM    H7F16681   4.465   5.769   5.678 -0.5264  0.6296 -0.5946
  150OSM    H7G16682   4.375   5.684   5.811  2.6406 -1.2531 -0.8481
  150OSM    C8F16683   4.346   5.900   5.795  0.7421  0.3852 -0.5608
  150OSM    H8F16684   4.240   5.892   5.828  1.0555  0.8591  0.5812
  150OSM    H8G16685   4.354   5.980   5.718  1.1342  0.5247 -0.3773
  150OSM    C9F16686   4.434   5.919   5.915 -0.3440 -0.0678  0.2572
  150OSM    H9F16687   4.518   5.989   5.902 -0.3087  0.1205  1.3938
  150OSM   C10F16688   4.422   5.868   6.040 -0.0289  0.4965  0.5864
  150OSM   H10F16689   4.495   5.895   6.117  0.6146  0.7400 -0.0943
  150OSM   C11F16690   4.327   5.767   6.095 -0.0122  0.3910  1.1902
  150OSM   H11F16691   4.384   5.673   6.106  0.1679  0.3261 -0.1481
  150OSM   H11G16692   4.245   5.747   6.023  0.9044 -0.7791  0.4341
  150OSM   C12F16693   4.264   5.812   6.226 -0.3501 -0.2400 -0.5778
  150OSM   H12F16694   4.165   5.764   6.235  0.0110 -1.2720 -1.7315
  150OSM   H12G16695   4.236   5.919   6.216  1.0394  0.0490 -1.8504
  150OSM   C13F16696   4.344   5.795   6.360 -0.7105 -0.0278  0.2072
  150OSM   H13F16697   4.437   5.851   6.337 -1.4658  1.8135  1.4774
  150OSM   H13G16698   4.354   5.686   6.379 -1.0203 -0.1207 -0.1427
  150OSM   C14F16699   4.276   5.855   6.481  0.3011 -0.1702 -0.0441
  150OSM   H14F16700   4.200   5.778   6.506 -0.3030 -0.7964 -3.2932
  150OSM   H14G16701   4.227   5.952   6.461  2.1413  0.8644  0.3190
  150OSM   C15F16702   4.366   5.873   6.605  0.2709 -0.1063 -0.2094
  150OSM   H15F16703   4.443   5.949   6.582 -1.1960  1.7125  0.5694
  150OSM   H15G16704   4.422   5.779   6.622  1.5274  0.3163 -1.8445
  150OSM   C16F16705   4.280   5.912   6.728  0.6254 -0.5121 -0.1961
  150OSM   H16F16706   4.205   5.831   6.741 -0.2896  0.3848  0.2158
  150OSM   H16G16707   4.227   6.006   6.702  2.3451  1.1313  1.8883
  150OSM   C17F16708   4.359   5.934   6.860 -0.3910  0.4915  0.0325
  150OSM   H17F16709   4.296   5.977   6.941 -3.7519 -2.4566 -0.7606
  150OSM   H17G16710   4.434   6.015   6.842  0.1171 -0.5546 -3.2542
  150OSM   C18F16711   4.442   5.811   6.911  1.1252 -0.2238  0.3173
  150OSM   H18F16712   4.470   5.844   7.014  0.2767 -0.4069  0.6137
  150OSM   H18G16713   4.534   5.796   6.851  2.1513 -0.4770  1.8989
  150OSM   H18H16714   4.376   5.722   6.911  0.9685 -0.1695  2.4479
  151OSM      N16715   3.417   4.946   4.504  0.3508  0.5039 -0.2802
  151OSM    C1516716   3.377   5.079   4.563 -0.4321  0.1797 -0.5931
  151OSM   H15A16717   3.444   5.089   4.648 -1.2302 -0.8280  0.1864
  151OSM   H15B16718   3.275   5.074   4.597 -0.3112  2.2414  0.1725
  151OSM   H15C16719   3.397   5.164   4.500 -0.1476  0.6426  0.1028
  151OSM    C1416720   3.346   4.932   4.375  0.3360  0.2040  1.2618
  151OSM   H14A16721   3.380   4.849   4.314  1.0649  1.1718  0.3060
  151OSM   H14B16722   3.384   5.016   4.319  0.1161 -0.0564  0.7178
  151OSM   H14C16723   3.238   4.930   4.376  0.3192 -0.8365  0.1231
  151OSM    C1316724   3.562   4.959   4.467 -0.7560  0.4981 -0.2453
  151OSM   H13A16725   3.613   4.977   4.560 -2.9555  1.7316  0.7946
  151OSM   H13B16726   3.582   5.033   4.391 -2.3752  2.9105  1.5499
  151OSM   H13C16727   3.606   4.872   4.420  1.6206  2.4467 -1.8774
  151OSM    C1216728   3.395   4.822   4.591 -0.2352 -0.2724  0.0233
  151OSM   H12A16729   3.289   4.817   4.614 -1.0701  1.3298 -2.9307
  151OSM   H12B16730   3.453   4.848   4.677  0.6899  0.5820 -0.8404
  151OSM    C1116731   3.435   4.681   4.536 -0.2307 -0.0765  0.6004
  151OSM   H11A16732   3.365   4.671   4.450 -1.3458  1.7100  1.2550
  151OSM   H11B16733   3.403   4.610   4.614 -0.2997 -1.0187 -0.2621
  151OSM      P16734   3.690   4.644   4.592 -0.1902 -0.1832 -0.6672
  151OSM    O1316735   3.791   4.560   4.517 -0.1836 -0.0630  0.6261
  151OSM    O1416736   3.735   4.775   4.652  0.2697 -0.2095  0.1929
  151OSM    O1116737   3.623   4.557   4.711 -0.6114  0.0294 -0.0400
  151OSM    O1216738   3.574   4.679   4.494  0.1833  0.0156  0.1758
  151OSM    C1S16739   3.712   4.527   4.825  0.0739  0.0339  0.1123
  151OSM    H1S16740   3.773   4.612   4.862  1.1649 -1.5362  2.1272
  151OSM    H1T16741   3.785   4.444   4.810  0.4491  0.0246  1.7958
  151OSM     NF16742   3.712   4.493   5.064  0.4753 -0.0681 -0.4047
  151OSM    HNF16743   3.722   4.410   5.117 -1.1236 -0.7953 -1.1655
  151OSM    C2S16744   3.626   4.492   4.949  0.9916  0.4949  0.3386
  151OSM    H2S16745   3.558   4.580   4.956  3.1433  2.9638 -4.6992
  151OSM    C3S16746   3.533   4.370   4.917 -0.2539  0.2859 -0.1206
  151OSM    H3S16747   3.598   4.282   4.903  0.2572  0.7613 -0.7764
  151OSM     O316748   3.454   4.379   4.800 -0.0216 -0.3804  0.1647
  151OSM    HO316749   3.491   4.453   4.751 -0.9794  0.5997  0.8903
  151OSM    C4S16750   3.446   4.343   5.029  0.5037  0.1837  0.4329
  151OSM    H4S16751   3.458   4.250   5.086  0.0206  0.6278  1.2787
  151OSM    C5S16752   3.350   4.418   5.081  0.3487  0.2109  0.0656
  151OSM    H5S16753   3.334   4.518   5.037 -0.1170  0.0613 -0.1065
  151OSM    C6S16754   3.274   4.387   5.199 -0.2883  0.2067 -0.1332
  151OSM    H6S16755   3.281   4.279   5.227  2.9522  0.9599  2.7147
  151OSM    H6T16756   3.170   4.415   5.172 -0.4643 -1.9721 -2.0951
  151OSM    C7S16757   3.328   4.459   5.324 -0.4504 -0.2673 -0.0851
  151OSM    H7S16758   3.314   4.568   5.305  0.8179 -0.1226 -0.2683
  151OSM    H7T16759   3.435   4.434   5.342 -0.6988 -1.9750 -0.8109
  151OSM    C8S16760   3.263   4.421   5.456 -0.0199 -0.5399  0.0422
  151OSM    H8S16761   3.261   4.312   5.478  1.0575 -0.5494  0.1701
  151OSM    H8T16762   3.162   4.464   5.471  0.9587  2.5382 -1.4459
  151OSM    C9S16763   3.337   4.477   5.577  0.5916  0.2532  0.1182
  151OSM    H9S16764   3.328   4.588   5.577 -0.3990  0.2018 -1.0964
  151OSM    H9T16765   3.444   4.447   5.574  0.5184 -0.1415  1.0463
  151OSM   C10S16766   3.278   4.415   5.711  0.3153 -0.2370  0.0099
  151OSM   H10S16767   3.299   4.306   5.708 -1.5127 -0.6011 -1.2423
  151OSM   H10T16768   3.168   4.430   5.710 -0.2201 -2.4538  4.0550
  151OSM   C11S16769   3.329   4.472   5.844  0.2565 -0.6536 -0.6072
  151OSM   H11S16770   3.288   4.413   5.929  1.2998 -1.4286 -0.6247
  151OSM   H11T16771   3.283   4.570   5.867 -2.3614 -1.7285 -0.9465
  151OSM   C12S16772   3.482   4.478   5.860  0.9221 -0.4270  0.1496
  151OSM   H12S16773   3.513   4.540   5.774 -0.1086  1.0335  0.7887
  151OSM   H12T16774   3.513   4.371   5.852  0.2083 -0.7896  1.8119
  151OSM   C13S16775   3.518   4.549   5.989 -0.2532 -0.2812  0.1318
  151OSM   H13S16776   3.483   4.655   5.998 -0.8076 -0.5427  1.2010
  151OSM   H13T16777   3.628   4.559   5.997 -0.0932  0.0571 -1.9019
  151OSM   C14S16778   3.459   4.480   6.113 -0.1663  0.6640 -0.3075
  151OSM   H14S16779   3.484   4.373   6.131 -1.1644  0.4374 -0.1981
  151OSM   H14T16780   3.349   4.486   6.094 -0.2074 -2.0522 -1.4301
  151OSM   C15S16781   3.510   4.551   6.242  0.5990  0.3197  0.6673
  151OSM   H15S16782   3.462   4.647   6.215  1.7065 -0.2556 -4.5826
  151OSM   H15T16783   3.621   4.557   6.230  0.6502 -0.9307  0.3057
  151OSM   C16S16784   3.464   4.482   6.368 -0.6223  0.1717  0.4360
  151OSM   H16S16785   3.486   4.373   6.368  2.3740  0.6855  1.0059
  151OSM   H16T16786   3.354   4.496   6.378 -1.1007 -0.1526 -3.0491
  151OSM   C17S16787   3.527   4.543   6.494 -0.1466 -0.2563 -0.0671
  151OSM   H17S16788   3.636   4.524   6.504 -0.1525 -1.0480 -1.3255
  151OSM   H17T16789   3.475   4.495   6.580  0.4041 -1.8155 -0.5778
  151OSM   C18S16790   3.517   4.691   6.494  0.0420 -0.7006 -0.4033
  151OSM   H18S16791   3.560   4.751   6.577 -0.0209  2.3251 -2.4434
  151OSM   H18T16792   3.410   4.724   6.496  0.9285  2.5878 -1.4609
  151OSM   H18U16793   3.547   4.748   6.404 -2.3786  0.4464 -0.5701
  151OSM    C1F16794   3.765   4.602   5.112 -0.3345 -0.2721  0.3567
  151OSM     OF16795   3.721   4.702   5.068 -0.6949 -0.0217 -0.0342
  151OSM    C2F16796   3.854   4.593   5.227  0.2347 -0.7067 -0.4262
  151OSM    H2F16797   3.936   4.664   5.202  0.1505 -1.3346 -2.7340
  151OSM    H2G16798   3.902   4.493   5.217 -0.3292 -1.0593  0.3457
  151OSM    C3F16799   3.798   4.620   5.365 -0.1548  0.4384  0.3657
  151OSM    H3F16800   3.720   4.543   5.385 -1.0991  1.1071 -0.6299
  151OSM    H3G16801   3.760   4.725   5.358  0.9323  1.1070  3.2057
  151OSM    C4F16802   3.905   4.615   5.479  0.4904 -0.2897  0.2026
  151OSM    H4F16803   3.974   4.700   5.460  0.8288 -0.6278 -0.0937
  151OSM    H4G16804   3.959   4.519   5.467 -3.0688 -2.6057  1.0868
  151OSM    C5F16805   3.844   4.633   5.613  0.4259  0.1463  0.0149
  151OSM    H5F16806   3.777   4.545   5.629 -1.2069  1.5445  1.3388
  151OSM    H5G16807   3.778   4.722   5.622  0.9815  0.5459  0.1722
  151OSM    C6F16808   3.948   4.645   5.730 -0.0354  0.2503  0.6172
  151OSM    H6F16809   4.028   4.716   5.699  0.0110  0.6960  1.7151
  151OSM    H6G16810   3.999   4.554   5.765 -0.5849 -0.5421 -0.5497
  151OSM    C7F16811   3.878   4.703   5.854 -0.2687 -0.9679  0.1593
  151OSM    H7F16812   3.788   4.645   5.880 -2.3011  1.9248  0.0334
  151OSM    H7G16813   3.847   4.808   5.834  1.7298 -0.4665 -0.6537
  151OSM    C8F16814   3.977   4.725   5.970 -0.3766 -0.5391  0.3468
  151OSM    H8F16815   3.941   4.810   6.032  0.2122  0.0493 -0.0963
  151OSM    H8G16816   4.074   4.756   5.925 -1.4535  1.2403 -0.9141
  151OSM    C9F16817   3.998   4.606   6.057  0.1464 -0.2179 -0.3307
  151OSM    H9F16818   4.073   4.540   6.013 -0.7133  0.2378 -2.6356
  151OSM   C10F16819   3.955   4.571   6.179 -0.4004  0.8826  0.2834
  151OSM   H10F16820   3.982   4.472   6.218 -1.4226  1.0972  1.6145
  151OSM   C11F16821   3.864   4.656   6.259  0.6139  0.1384 -0.1342
  151OSM   H11F16822   3.793   4.591   6.315  1.9552  0.2297  1.7650
  151OSM   H11G16823   3.805   4.712   6.183  1.1636 -1.6570 -1.9643
  151OSM   C12F16824   3.933   4.740   6.362 -0.0024  0.1413  0.2308
  151OSM   H12F16825   4.002   4.809   6.309 -0.3076  0.3854  0.1450
  151OSM   H12G16826   3.998   4.670   6.418 -0.0194  0.0559  0.1441
  151OSM   C13F16827   3.821   4.813   6.445 -0.7663  0.6573  0.5175
  151OSM   H13F16828   3.789   4.736   6.518  0.1313  0.0259  0.2659
  151OSM   H13G16829   3.742   4.837   6.371 -0.6055  1.3027  0.5486
  151OSM   C14F16830   3.874   4.939   6.518 -0.1177  0.4837  0.2017
  151OSM   H14F16831   3.788   5.008   6.533 -0.2289  0.0520  1.6120
  151OSM   H14G16832   3.949   4.993   6.456 -0.5948 -0.0836 -0.9025
  151OSM   C15F16833   3.941   4.920   6.654  0.2132  0.0315  0.3452
  151OSM   H15F16834   3.977   5.020   6.686 -1.8213  0.9195  0.0549
  151OSM   H15G16835   4.025   4.848   6.646 -0.2009 -0.4047 -0.1509
  151OSM   C16F16836   3.840   4.882   6.760  0.2553 -0.5787  0.4197
  151OSM   H16F16837   3.878   4.806   6.832  2.5041  0.5775  0.5401
  151OSM   H16G16838   3.755   4.842   6.700  0.0601  0.2395  0.1446
  151OSM   C17F16839   3.792   4.995   6.856  0.2804 -0.2553 -0.0230
  151OSM   H17F16840   3.719   4.950   6.926 -2.6805 -0.9990 -3.2567
  151OSM   H17G16841   3.744   5.074   6.794  0.5420  0.4650  0.6869
  151OSM   C18F16842   3.900   5.057   6.942  0.6469  0.2909  0.4120
  151OSM   H18F16843   3.972   5.109   6.874 -0.3727 -2.5053 -3.1017
  151OSM   H18G16844   3.954   4.978   6.999 -0.5008 -0.3837  0.5917
  151OSM   H18H16845   3.862   5.128   7.018  2.8546  2.2605 -0.2061
  152OSM      N16846   5.851   3.795   4.538  0.5314  0.1588 -0.1196
  152OSM    C1516847   5.832   3.886   4.652 -0.8949  0.6835 -0.6389
  152OSM   H15A16848   5.925   3.924   4.692 -2.1255  0.5522  2.6771
  152OSM   H15B16849   5.777   3.842   4.734  0.3999 -1.3141 -0.7577
  152OSM   H15C16850   5.773   3.969   4.617 -3.3975 -0.9737 -0.6360
  152OSM    C1416851   5.720   3.724   4.513  0.1858  0.9938 -0.3441
  152OSM   H14A16852   5.689   3.682   4.607 -2.8914  0.6432 -1.4090
  152OSM   H14B16853   5.728   3.648   4.437  0.0179 -2.2993  2.7021
  152OSM   H14C16854   5.638   3.786   4.478 -0.2604  0.5696 -0.0531
  152OSM    C1316855   5.886   3.884   4.422  0.0074 -0.6582 -0.4304
  152OSM   H13A16856   5.914   3.833   4.331 -0.0013 -0.1469 -0.7207
  152OSM   H13B16857   5.966   3.950   4.452 -0.7627 -1.0450  2.8948
  152OSM   H13C16858   5.809   3.957   4.406  2.1684  2.0019  0.5966
  152OSM    C1216859   5.962   3.694   4.566 -0.8101  0.4862 -0.5282
  152OSM   H12A16860   5.967   3.619   4.488 -0.9230  1.1310 -1.1747
  152OSM   H12B16861   5.940   3.630   4.650  0.4924  2.2970  1.2840
  152OSM    C1116862   6.105   3.748   4.606 -0.6173  0.6098 -0.5291
  152OSM   H11A16863   6.173   3.661   4.622 -1.3179 -0.2443 -2.0165
  152OSM   H11B16864   6.097   3.799   4.704 -2.6208  1.5348 -1.1345
  152OSM      P16865   6.297   3.821   4.447  0.2058 -0.4455  0.8062
  152OSM    O1316866   6.292   3.711   4.351 -0.1195 -0.4515  0.1626
  152OSM    O1416867   6.355   3.948   4.393 -0.1059  0.0265  0.6260
  152OSM    O1116868   6.384   3.770   4.562 -0.3409 -0.6501  0.2735
  152OSM    O1216869   6.155   3.844   4.515 -0.2550  0.1007  0.8110
  152OSM    C1S16870   6.407   3.844   4.682 -1.1286 -0.3209  0.0813
  152OSM    H1S16871   6.309   3.868   4.729 -2.3416  0.4575 -2.6234
  152OSM    H1T16872   6.459   3.942   4.671 -0.1479 -1.0424 -2.2583
  152OSM     NF16873   6.490   3.847   4.925  0.1081  0.1375 -0.1787
  152OSM    HNF16874   6.581   3.874   4.956 -0.7865  1.9889  0.9814
  152OSM    C2S16875   6.484   3.769   4.796  0.0849  0.3547 -0.1864
  152OSM    H2S16876   6.432   3.673   4.817 -2.0021  1.3775 -0.4427
  152OSM    C3S16877   6.626   3.728   4.742 -0.2517 -0.3559 -0.3395
  152OSM    H3S16878   6.686   3.816   4.714 -0.4682 -0.7977 -2.3550
  152OSM     O316879   6.623   3.642   4.627 -0.2769  0.4053  0.2549
  152OSM    HO316880   6.532   3.649   4.598 -0.0143 -0.3491 -0.7956
  152OSM    C4S16881   6.708   3.648   4.846 -0.4833  0.1007  0.5429
  152OSM    H4S16882   6.796   3.697   4.890  1.3000  0.8529 -3.4212
  152OSM    C5S16883   6.685   3.517   4.869  0.0717 -0.4634  0.1632
  152OSM    H5S16884   6.595   3.478   4.819  1.0282 -0.0185 -2.0069
  152OSM    C6S16885   6.753   3.417   4.962  0.1905 -0.3949 -0.4263
  152OSM    H6S16886   6.850   3.452   5.002 -1.5329  2.5844  1.4979
  152OSM    H6T16887   6.765   3.327   4.898 -3.0024 -0.3294 -1.2494
  152OSM    C7S16888   6.664   3.387   5.086 -0.1393  0.5877  0.0925
  152OSM    H7S16889   6.568   3.338   5.062  1.2396 -2.6071  0.4949
  152OSM    H7T16890   6.643   3.480   5.143  2.5363  0.3126  1.7342
  152OSM    C8S16891   6.749   3.296   5.177 -0.2853  0.7026  0.4067
  152OSM    H8S16892   6.828   3.355   5.229 -0.6327  0.3782  1.3245
  152OSM    H8T16893   6.791   3.208   5.123 -2.9321 -1.1808  1.2160
  152OSM    C9S16894   6.658   3.239   5.285  0.3522 -0.1689  1.2099
  152OSM    H9S16895   6.575   3.187   5.234  1.2793 -0.4959 -0.0028
  152OSM    H9T16896   6.612   3.310   5.357  0.4639 -1.2975  2.4235
  152OSM   C10S16897   6.724   3.129   5.371 -0.2136  0.2483  0.6151
  152OSM   H10S16898   6.774   3.067   5.294 -1.0148 -0.6345  0.7894
  152OSM   H10T16899   6.647   3.061   5.413  0.7561 -1.4863 -0.2993
  152OSM   C11S16900   6.832   3.183   5.462  0.4843  0.2590  0.4337
  152OSM   H11S16901   6.895   3.258   5.411 -0.6877  1.6805  1.0050
  152OSM   H11T16902   6.904   3.101   5.484  0.6704  0.4075  0.3754
  152OSM   C12S16903   6.780   3.240   5.594  0.7247 -0.9579 -1.1415
  152OSM   H12S16904   6.709   3.172   5.646 -0.1376  1.5289  1.1610
  152OSM   H12T16905   6.735   3.341   5.581 -0.5952 -0.9798  2.3033
  152OSM   C13S16906   6.895   3.250   5.696 -0.1697 -0.1891 -0.0468
  152OSM   H13S16907   6.981   3.300   5.647  0.5575 -2.0544 -0.8021
  152OSM   H13T16908   6.935   3.148   5.717  0.1967 -0.0682 -0.1564
  152OSM   C14S16909   6.856   3.301   5.839 -0.3637 -0.6172  0.5655
  152OSM   H14S16910   6.770   3.243   5.879 -0.6971  0.0462  0.8359
  152OSM   H14T16911   6.809   3.402   5.827 -1.0945 -1.1391 -1.3234
  152OSM   C15S16912   6.979   3.321   5.931 -0.3508  0.8996  0.0665
  152OSM   H15S16913   6.959   3.421   5.975 -2.4140  0.5568  0.0271
  152OSM   H15T16914   7.065   3.342   5.864 -1.7582  0.3989 -1.9989
  152OSM   C16S16915   7.001   3.225   6.049 -0.2850 -0.3006  0.8874
  152OSM   H16S16916   7.080   3.275   6.111  0.3054 -0.8580  0.5942
  152OSM   H16T16917   7.042   3.129   6.011  0.0224  0.5672 -1.1270
  152OSM   C17S16918   6.879   3.208   6.140 -0.1946  0.5263 -0.3638
  152OSM   H17S16919   6.781   3.186   6.092  0.0803 -0.1858 -0.6065
  152OSM   H17T16920   6.878   3.303   6.197  1.0667  0.0322  0.5388
  152OSM   C18S16921   6.897   3.101   6.253 -0.9269 -0.5443  0.1107
  152OSM   H18S16922   6.809   3.112   6.321 -0.4797 -0.7111  0.7188
  152OSM   H18T16923   6.991   3.116   6.310 -0.6319 -0.4762 -0.3855
  152OSM   H18U16924   6.898   2.998   6.211  0.1283 -0.4196 -0.1927
  152OSM    C1F16925   6.392   3.877   5.017  0.0740  0.3886  0.1512
  152OSM     OF16926   6.284   3.819   5.017 -0.7101  0.1202  0.1187
  152OSM    C2F16927   6.412   3.998   5.105 -0.2366  0.4507  0.5740
  152OSM    H2F16928   6.401   4.082   5.033 -2.6894 -1.7537 -1.9047
  152OSM    H2G16929   6.516   3.995   5.142  0.8137 -2.1157 -2.1347
  152OSM    C3F16930   6.306   4.011   5.217  0.6745  0.1684  0.2771
  152OSM    H3F16931   6.200   4.026   5.186  0.4954  0.1598  0.8591
  152OSM    H3G16932   6.335   4.109   5.259  1.3910  0.3571 -0.6442
  152OSM    C4F16933   6.319   3.899   5.318 -0.2087  0.1796 -0.1170
  152OSM    H4F16934   6.404   3.828   5.305 -2.2056 -2.1849 -1.0048
  152OSM    H4G16935   6.236   3.826   5.310  1.7537 -2.1439 -0.6243
  152OSM    C5F16936   6.302   3.946   5.465  0.3106 -0.8944  0.0083
  152OSM    H5F16937   6.262   3.861   5.524 -0.8934 -0.3495 -0.0121
  152OSM    H5G16938   6.230   4.030   5.458 -0.4160 -1.6326 -2.2783
  152OSM    C6F16939   6.436   3.991   5.514  0.3121 -1.2561 -0.4130
  152OSM    H6F16940   6.452   4.091   5.467 -1.6402 -1.2047 -1.0363
  152OSM    H6G16941   6.510   3.920   5.470  1.5078  0.6946 -1.7563
  152OSM    C7F16942   6.439   4.008   5.665  0.0708  0.1899  0.0018
  152OSM    H7F16943   6.547   4.016   5.693  0.0851  0.9118 -0.2408
  152OSM    H7G16944   6.401   3.913   5.709 -1.2386  0.1036 -1.2536
  152OSM    C8F16945   6.348   4.121   5.724  0.2141 -0.4259 -0.5181
  152OSM    H8F16946   6.247   4.107   5.680 -1.1855  0.8472  2.0696
  152OSM    H8G16947   6.398   4.208   5.678  1.6699 -0.5546  0.7478
  152OSM    C9F16948   6.351   4.140   5.881 -0.6295  0.1846  0.1012
  152OSM    H9F16949   6.445   4.106   5.927  0.0111  0.2288 -1.1271
  152OSM   C10F16950   6.269   4.192   5.964  0.4768  1.1130  0.0458
  152OSM   H10F16951   6.293   4.191   6.072 -2.1947  1.5457  0.7095
  152OSM   C11F16952   6.137   4.257   5.913 -0.3092 -0.3412 -0.4883
  152OSM   H11F16953   6.157   4.292   5.810  0.3044 -2.2250 -1.0426
  152OSM   H11G16954   6.110   4.352   5.965 -3.1010 -0.9706 -0.6077
  152OSM   C12F16955   6.021   4.162   5.933  0.3979  0.0337  0.4528
  152OSM   H12F16956   6.039   4.056   5.905  1.5176  0.2047  0.4762
  152OSM   H12G16957   5.948   4.202   5.859  1.2893 -0.6970 -0.8652
  152OSM   C13F16958   5.950   4.172   6.069  0.2741 -0.4675 -0.1693
  152OSM   H13F16959   5.852   4.120   6.070  0.0881 -0.1205 -0.2579
  152OSM   H13G16960   5.933   4.280   6.092  0.7770 -0.3795 -0.1930
  152OSM   C14F16961   6.036   4.109   6.186 -0.0974  0.6902  0.3402
  152OSM   H14F16962   6.140   4.146   6.199  0.0738 -0.2002  1.6200
  152OSM   H14G16963   6.053   4.005   6.151 -0.8895  0.4246  0.7340
  152OSM   C15F16964   5.945   4.112   6.318 -0.9068  0.3520 -1.0199
  152OSM   H15F16965   5.850   4.055   6.306 -0.4070 -0.9137  0.6295
  152OSM   H15G16966   5.917   4.216   6.344  1.3158  0.0275  3.9430
  152OSM   C16F16967   6.011   4.044   6.442  0.4772 -0.0005  0.1125
  152OSM   H16F16968   6.093   4.107   6.480 -2.2040  2.3907  2.4052
  152OSM   H16G16969   6.045   3.943   6.410 -0.9470  0.1584 -2.1096
  152OSM   C17F16970   5.931   4.023   6.563  0.3637  0.3837 -0.2340
  152OSM   H17F16971   5.841   3.963   6.536  0.5780  0.5513 -1.4176
  152OSM   H17G16972   5.890   4.119   6.601  0.4185  0.3294 -0.0393
  152OSM   C18F16973   6.017   3.958   6.673 -0.1403  0.3786  0.5233
  152OSM   H18F16974   6.069   3.864   6.644  0.7085  0.9966  0.0234
  152OSM   H18G16975   5.967   3.949   6.772  1.3620  1.5436  1.4182
  152OSM   H18H16976   6.095   4.034   6.694  0.8368 -0.9194  1.8753
  153OSM      N16977   4.780   5.494   4.766  0.1112 -0.0579  0.4530
  153OSM    C1516978   4.715   5.631   4.774 -0.0314  0.2871 -0.4343
  153OSM   H15A16979   4.706   5.670   4.875 -0.1217 -0.0015 -0.3282
  153OSM   H15B16980   4.618   5.631   4.727  0.5253  4.3331 -2.0017
  153OSM   H15C16981   4.767   5.709   4.721  1.3473 -0.1954  0.1560
  153OSM    C1416982   4.702   5.396   4.839  0.1315  0.9965 -0.2867
  153OSM   H14A16983   4.602   5.390   4.801  0.1521  2.7716 -0.7110
  153OSM   H14B16984   4.696   5.423   4.944  0.5047  1.3472 -0.3521
  153OSM   H14C16985   4.754   5.301   4.837 -2.1590 -0.3637  0.9074
  153OSM    C1316986   4.774   5.451   4.628  0.1905 -0.0206 -0.2011
  153OSM   H13A16987   4.681   5.439   4.574  0.4176 -1.4952 -0.2976
  153OSM   H13B16988   4.830   5.360   4.616 -0.8931 -1.0783  2.2529
  153OSM   H13C16989   4.830   5.523   4.570  1.4198  0.4110  1.4512
  153OSM    C1216990   4.929   5.495   4.805  0.2882  0.0319  0.1369
  153OSM   H12A16991   4.982   5.566   4.743 -0.2421 -0.6620 -1.1636
  153OSM   H12B16992   4.967   5.397   4.780  0.0473 -0.2903  1.0059
  153OSM    C1116993   4.960   5.527   4.954 -0.4668  0.0844  0.2639
  153OSM   H11A16994   5.064   5.492   4.968 -1.1107 -1.4271  1.6845
  153OSM   H11B16995   4.901   5.466   5.026 -0.6746 -0.1311 -0.0889
  153OSM      P16996   5.042   5.772   4.925  0.1660 -0.0947  0.2770
  153OSM    O1316997   5.053   5.752   4.777 -0.3087 -0.1638 -0.4814
  153OSM    O1416998   5.000   5.907   4.975  0.1479  0.2130 -0.7649
  153OSM    O1116999   5.178   5.726   5.001 -0.0021 -0.1306 -0.6605
  153OSM    O1217000   4.944   5.668   4.982 -0.0739  0.4817 -0.2517
  153OSM    C1S17001   5.232   5.793   5.111 -0.0043 -0.3120  0.4667
  153OSM    H1S17002   5.167   5.878   5.143 -0.8135 -0.5315 -0.5383
  153OSM    H1T17003   5.334   5.834   5.098  0.4458 -1.1899  1.1603
  153OSM     NF17004   5.283   5.769   5.361 -0.3510  0.2318 -0.0274
  153OSM    HNF17005   5.365   5.733   5.406 -0.0583  0.4358 -0.3893
  153OSM    C2S17006   5.243   5.698   5.238  0.1152 -0.3146  0.0730
  153OSM    H2S17007   5.139   5.662   5.253 -0.7630  2.1912  0.4185
  153OSM    C3S17008   5.328   5.573   5.204 -0.3812  0.0645 -0.2915
  153OSM    H3S17009   5.439   5.582   5.216 -0.0302 -1.8603 -1.6536
  153OSM     O317010   5.329   5.525   5.069  0.4270 -0.2824 -0.3665
  153OSM    HO317011   5.285   5.597   5.023  1.7482  0.8466  0.0505
  153OSM    C4S17012   5.288   5.460   5.285  0.5086  0.3933  0.6915
  153OSM    H4S17013   5.190   5.426   5.250  1.5286 -1.3576 -0.6211
  153OSM    C5S17014   5.360   5.401   5.383  0.0781 -0.0592  0.0724
  153OSM    H5S17015   5.464   5.437   5.389  0.3426 -0.0177 -3.0041
  153OSM    C6S17016   5.316   5.295   5.480 -0.2554  0.1228 -0.6079
  153OSM    H6S17017   5.382   5.207   5.467 -0.3583 -1.0613  4.7039
  153OSM    H6T17018   5.210   5.265   5.467  0.1442 -1.1692 -0.9627
  153OSM    C7S17019   5.336   5.362   5.617  0.3948  0.1922 -0.7317
  153OSM    H7S17020   5.267   5.449   5.623 -2.3719 -1.6556 -2.7014
  153OSM    H7T17021   5.439   5.399   5.633 -0.1630  1.1070  1.0711
  153OSM    C8S17022   5.292   5.252   5.719  0.6073 -1.2881 -0.3853
  153OSM    H8S17023   5.359   5.166   5.699 -0.2441 -1.6647 -1.7145
  153OSM    H8T17024   5.188   5.218   5.702 -0.0405 -0.4967  1.6424
  153OSM    C9S17025   5.304   5.299   5.872  0.2839  0.5377 -0.0928
  153OSM    H9S17026   5.240   5.387   5.892 -0.3564  0.1432 -0.3491
  153OSM    H9T17027   5.412   5.323   5.883  0.2250  0.1504  1.4867
  153OSM   C10S17028   5.273   5.184   5.973 -0.4162 -0.4805 -0.1562
  153OSM   H10S17029   5.353   5.107   5.970  0.0769 -0.1951  2.6780
  153OSM   H10T17030   5.178   5.128   5.964 -2.3378  1.7326  3.6584
  153OSM   C11S17031   5.271   5.243   6.120 -0.5189  0.0603 -0.3877
  153OSM   H11S17032   5.179   5.304   6.130 -0.0276  0.4927  2.3184
  153OSM   H11T17033   5.354   5.316   6.131  0.4733 -1.1115  0.1642
  153OSM   C12S17034   5.281   5.150   6.241  0.2807  0.4182  0.7115
  153OSM   H12S17035   5.350   5.064   6.224  1.4841  1.4615  0.1765
  153OSM   H12T17036   5.180   5.107   6.260  0.1399 -0.2662 -1.3573
  153OSM   C13S17037   5.337   5.222   6.366 -0.1734 -0.0994 -0.4004
  153OSM   H13S17038   5.319   5.331   6.357  1.0429  0.0697 -1.0710
  153OSM   H13T17039   5.446   5.200   6.354 -0.4344 -1.2785 -0.7443
  153OSM   C14S17040   5.283   5.166   6.497  0.2932 -0.4847 -0.1230
  153OSM   H14S17041   5.285   5.055   6.496 -1.7817 -0.5625 -0.3491
  153OSM   H14T17042   5.178   5.202   6.506  0.5450  0.3834 -0.5219
  153OSM   C15S17043   5.373   5.206   6.620 -0.3465 -0.3528 -0.4006
  153OSM   H15S17044   5.397   5.314   6.624 -1.1674 -0.1754 -0.2376
  153OSM   H15T17045   5.466   5.144   6.614  0.9765  1.0084  3.4034
  153OSM   C16S17046   5.294   5.186   6.753 -0.1675 -0.4479  0.8174
  153OSM   H16S17047   5.236   5.091   6.754  0.9405 -1.1526  0.1162
  153OSM   H16T17048   5.223   5.268   6.778 -2.1736 -1.6044 -0.8438
  153OSM   C17S17049   5.395   5.162   6.867  0.1494  0.3378 -0.4520
  153OSM   H17S17050   5.452   5.251   6.904  0.0497 -0.3317  1.4016
  153OSM   H17T17051   5.468   5.094   6.819 -0.9890 -0.4114 -1.1394
  153OSM   C18S17052   5.340   5.091   6.988 -0.3948  0.1273 -0.2618
  153OSM   H18S17053   5.339   4.983   6.962  0.4039 -0.0933  0.5878
  153OSM   H18T17054   5.240   5.124   7.023  0.6438  3.4083 -0.0233
  153OSM   H18U17055   5.411   5.104   7.072  0.9234 -1.9440 -0.9786
  153OSM    C1F17056   5.204   5.854   5.428  0.5275 -1.2237  0.3534
  153OSM     OF17057   5.096   5.876   5.377 -0.0884 -0.0814 -0.4122
  153OSM    C2F17058   5.244   5.911   5.563  0.8713 -0.0437  0.1390
  153OSM    H2F17059   5.161   5.978   5.594  0.6251  0.3245 -1.2754
  153OSM    H2G17060   5.338   5.970   5.563  0.3312  0.8342 -0.4130
  153OSM    C3F17061   5.245   5.801   5.674  0.4370 -0.6079  0.2902
  153OSM    H3F17062   5.327   5.731   5.653 -0.3008 -1.2117 -0.6321
  153OSM    H3G17063   5.146   5.750   5.673 -0.0346  0.0595  3.1369
  153OSM    C4F17064   5.272   5.854   5.821 -0.2417  0.3381  0.3359
  153OSM    H4F17065   5.192   5.930   5.835 -0.5089  0.1618 -0.2176
  153OSM    H4G17066   5.370   5.905   5.831 -0.5931  0.7812  1.7187
  153OSM    C5F17067   5.288   5.740   5.923  0.1527 -0.5124  0.9375
  153OSM    H5F17068   5.390   5.758   5.964  0.1843  1.6610  0.0615
  153OSM    H5G17069   5.284   5.645   5.867 -0.2302  0.2428 -0.3654
  153OSM    C6F17070   5.185   5.743   6.040  0.5784  0.0073 -0.0807
  153OSM    H6F17071   5.077   5.733   6.014  0.3903 -2.3386  1.3420
  153OSM    H6G17072   5.192   5.851   6.062  0.2245  0.1783 -0.7682
  153OSM    C7F17073   5.216   5.652   6.158  0.5156 -0.2817 -0.7438
  153OSM    H7F17074   5.216   5.550   6.114  0.1013  0.2658 -2.0596
  153OSM    H7G17075   5.124   5.649   6.220  0.9568  0.2143 -0.0412
  153OSM    C8F17076   5.342   5.673   6.248  0.3782 -0.5749 -0.0474
  153OSM    H8F17077   5.427   5.698   6.181 -0.1632 -0.0640 -0.5644
  153OSM    H8G17078   5.352   5.578   6.304 -2.3848 -0.4710  0.7564
  153OSM    C9F17079   5.317   5.791   6.345  0.3728  0.9557 -0.2508
  153OSM    H9F17080   5.361   5.886   6.310  2.7639  0.3494  0.8747
  153OSM   C10F17081   5.253   5.779   6.464  1.6055 -0.2447  0.2026
  153OSM   H10F17082   5.249   5.871   6.525 -1.6358 -0.8221  1.0736
  153OSM   C11F17083   5.192   5.652   6.522  0.2724  0.3149 -0.5192
  153OSM   H11F17084   5.194   5.571   6.447  0.6119 -0.6766  0.5362
  153OSM   H11G17085   5.084   5.678   6.535 -0.2364 -0.9509 -1.9492
  153OSM   C12F17086   5.255   5.622   6.656 -0.7250  0.5854 -0.2768
  153OSM   H12F17087   5.365   5.615   6.643 -0.7426  1.5397 -1.1062
  153OSM   H12G17088   5.215   5.524   6.690  0.1384 -0.5553 -2.3448
  153OSM   C13F17089   5.234   5.730   6.774  0.0699 -0.2112  0.2551
  153OSM   H13F17090   5.128   5.761   6.767 -0.8368 -3.4014 -1.7905
  153OSM   H13G17091   5.303   5.815   6.751 -1.0360  1.0506  1.3935
  153OSM   C14F17092   5.254   5.673   6.915  0.3066  0.6380  0.1220
  153OSM   H14F17093   5.193   5.581   6.930  0.5204  0.4015 -0.4542
  153OSM   H14G17094   5.208   5.749   6.982 -1.0337 -0.1376  0.1199
  153OSM   C15F17095   5.403   5.630   6.946  0.7563 -0.0023  0.0048
  153OSM   H15F17096   5.468   5.720   6.955  0.9047  0.0804 -1.6215
  153OSM   H15G17097   5.434   5.585   6.849 -0.4824  0.5477 -0.6689
  153OSM   C16F17098   5.423   5.529   7.059 -0.3911  0.0771  0.3482
  153OSM   H16F17099   5.528   5.495   7.068 -0.5294 -0.2946  0.5834
  153OSM   H16G17100   5.367   5.436   7.033 -0.8814  0.3027  0.5864
  153OSM   C17F17101   5.382   5.576   7.200  0.0555  0.6221  0.0208
  153OSM   H17F17102   5.413   5.493   7.268  0.6871  1.8651  1.3028
  153OSM   H17G17103   5.271   5.579   7.197  0.0703  2.0909  0.1451
  153OSM   C18F17104   5.445   5.709   7.251 -0.9197 -0.3466  0.1108
  153OSM   H18F17105   5.555   5.700   7.259 -0.5134  3.5894  0.7642
  153OSM   H18G17106   5.415   5.734   7.355  2.5182 -1.7592  1.5930
  153OSM   H18H17107   5.423   5.790   7.179 -3.0650 -1.4922 -0.6066
  154OSM      N17108   5.651   1.622   4.380 -0.7283  0.1061 -0.7795
  154OSM    C1517109   5.679   1.745   4.309  0.2078 -0.3450  0.1318
  154OSM   H15A17110   5.632   1.741   4.212  2.1014  2.0856 -0.9970
  154OSM   H15B17111   5.786   1.755   4.297  0.1849  0.0403  0.2499
  154OSM   H15C17112   5.638   1.824   4.370  0.4273 -0.8149  0.8942
  154OSM    C1417113   5.513   1.578   4.347 -0.2261  0.0450 -0.5633
  154OSM   H14A17114   5.440   1.654   4.371 -1.1586 -1.0839  0.3311
  154OSM   H14B17115   5.475   1.492   4.402 -1.1755  1.0754  0.4401
  154OSM   H14C17116   5.508   1.550   4.243 -3.4016 -2.1081 -0.0003
  154OSM    C1317117   5.744   1.519   4.327  0.0445 -1.0261 -0.5840
  154OSM   H13A17118   5.845   1.540   4.360 -0.9176  2.4390  0.6270
  154OSM   H13B17119   5.747   1.528   4.219  1.2870  0.8611 -0.4408
  154OSM   H13C17120   5.715   1.418   4.349 -0.5728 -0.1503  3.2948
  154OSM    C1217121   5.670   1.631   4.532 -0.1386  0.8001 -0.3176
  154OSM   H12A17122   5.769   1.655   4.568 -0.1860 -1.8223  1.8815
  154OSM   H12B17123   5.656   1.531   4.571 -2.6993  0.8903 -0.8320
  154OSM    C1117124   5.574   1.724   4.612  0.4064  0.3443 -0.3749
  154OSM   H11A17125   5.589   1.687   4.716 -2.0191 -1.4009 -0.5396
  154OSM   H11B17126   5.471   1.694   4.582  0.4398  1.1001 -1.2924
  154OSM      P17127   5.697   1.940   4.690 -0.0057  0.0907  0.1002
  154OSM    O1317128   5.817   1.858   4.715 -0.5428  0.0128 -0.0458
  154OSM    O1417129   5.731   2.076   4.637  0.7024  0.3524 -0.2226
  154OSM    O1117130   5.609   1.950   4.821 -0.1557  0.7654 -0.0438
  154OSM    O1217131   5.596   1.864   4.592  0.2166  0.1426  0.4075
  154OSM    C1S17132   5.540   2.078   4.842  0.2565 -0.1027 -0.1329
  154OSM    H1S17133   5.467   2.100   4.762  0.8352  0.4451 -0.5155
  154OSM    H1T17134   5.613   2.162   4.842 -1.2409  1.2773 -2.0907
  154OSM     NF17135   5.440   2.236   5.003 -0.4381 -0.1687 -0.5351
  154OSM    HNF17136   5.465   2.293   5.081  0.5205  1.4929 -1.9995
  154OSM    C2S17137   5.467   2.092   4.986 -0.2428 -0.6009  0.0520
  154OSM    H2S17138   5.375   2.033   4.970 -0.2713 -0.6664  0.4563
  154OSM    C3S17139   5.555   2.031   5.100 -0.4544 -0.0367  0.0554
  154OSM    H3S17140   5.648   2.090   5.115 -0.6248 -0.0402  1.2148
  154OSM     O317141   5.609   1.899   5.071  0.0350 -0.5701  0.5304
  154OSM    HO317142   5.596   1.892   4.976 -2.2667  1.1682  0.6430
  154OSM    C4S17143   5.495   2.051   5.237  0.4170  0.2987  0.0277
  154OSM    H4S17144   5.521   2.151   5.273  0.1485  0.3352  0.1231
  154OSM    C5S17145   5.425   1.963   5.311 -0.2937 -0.3472  0.2229
  154OSM    H5S17146   5.406   1.863   5.268 -1.5542  0.5441 -1.4059
  154OSM    C6S17147   5.374   1.991   5.452 -0.2780  0.5805  0.3940
  154OSM    H6S17148   5.265   1.971   5.459 -0.6231  2.5313  1.6362
  154OSM    H6T17149   5.384   2.099   5.480 -0.9373  0.4598  1.1417
  154OSM    C7S17150   5.440   1.885   5.541  0.0373 -0.6000  0.0064
  154OSM    H7S17151   5.550   1.874   5.530 -0.0948 -2.5500  0.2175
  154OSM    H7T17152   5.401   1.782   5.527 -0.8499 -0.2121 -0.4158
  154OSM    C8S17153   5.407   1.917   5.689 -0.0552  1.0214  0.2240
  154OSM    H8S17154   5.296   1.915   5.695 -0.2249  1.0338 -2.1261
  154OSM    H8T17155   5.438   2.022   5.705 -0.2511  0.9210  1.3561
  154OSM    C9S17156   5.477   1.821   5.785  0.3520  0.0253 -0.2584
  154OSM    H9S17157   5.585   1.839   5.768  0.9702 -2.0602  1.0701
  154OSM    H9T17158   5.457   1.714   5.760 -1.3626  0.6261 -1.6383
  154OSM   C10S17159   5.438   1.853   5.929 -0.3552  0.0480 -0.5079
  154OSM   H10S17160   5.329   1.844   5.945 -0.1418 -0.1366  1.0694
  154OSM   H10T17161   5.467   1.959   5.949 -3.8416  1.5975 -2.8343
  154OSM   C11S17162   5.491   1.754   6.033 -1.0136  0.3210 -0.0274
  154OSM   H11S17163   5.598   1.731   6.016 -1.0160  0.2438  0.0539
  154OSM   H11T17164   5.445   1.653   6.031 -0.2694 -0.0278  0.0532
  154OSM   C12S17165   5.497   1.823   6.171  0.4154  0.5396 -0.0342
  154OSM   H12S17166   5.550   1.920   6.161 -1.3032  1.5006 -0.2693
  154OSM   H12T17167   5.558   1.764   6.242  1.8914  1.3972 -0.5541
  154OSM   C13S17168   5.360   1.844   6.232  0.3376  0.1338 -0.0108
  154OSM   H13S17169   5.312   1.745   6.246  0.5346  0.2656  1.8208
  154OSM   H13T17170   5.289   1.893   6.162 -0.7484 -1.1613  0.1446
  154OSM   C14S17171   5.359   1.916   6.366 -0.3240 -0.9393  0.1206
  154OSM   H14S17172   5.405   2.017   6.367 -1.5519 -0.3309 -1.5583
  154OSM   H14T17173   5.405   1.862   6.451 -1.2576 -0.7685  0.7393
  154OSM   C15S17174   5.213   1.940   6.414  0.0902 -0.0075 -0.3025
  154OSM   H15S17175   5.149   1.850   6.426  0.8578 -0.8633 -2.1474
  154OSM   H15T17176   5.159   1.992   6.332 -1.5496 -0.6476  0.3399
  154OSM   C16S17177   5.201   2.031   6.528 -0.0065 -0.8147 -0.2027
  154OSM   H16S17178   5.256   2.127   6.516  0.7017 -0.7322  2.9262
  154OSM   H16T17179   5.235   1.987   6.624  1.2642  0.5587  0.0084
  154OSM   C17S17180   5.053   2.061   6.559 -0.1558 -1.0775  0.4545
  154OSM   H17S17181   4.997   2.066   6.463 -0.1368  2.2075  0.4835
  154OSM   H17T17182   5.044   2.169   6.585 -0.6358 -0.4423 -2.0508
  154OSM   C18S17183   4.979   1.991   6.668  0.2776  0.4071 -0.2109
  154OSM   H18S17184   4.869   2.012   6.668 -0.2899 -1.4825  4.2140
  154OSM   H18T17185   5.010   2.015   6.772 -3.9774  0.4041  1.2480
  154OSM   H18U17186   4.992   1.882   6.649 -0.8443  0.4748 -1.5365
  154OSM    C1F17187   5.350   2.296   4.923 -0.0582  0.2406 -0.5935
  154OSM     OF17188   5.274   2.229   4.850 -0.5461  0.6537  0.3119
  154OSM    C2F17189   5.341   2.443   4.932 -0.0477 -0.9424  0.0254
  154OSM    H2F17190   5.388   2.481   4.838  0.5378 -2.9419 -0.5318
  154OSM    H2G17191   5.406   2.472   5.017  2.1576 -1.5261 -1.3961
  154OSM    C3F17192   5.198   2.497   4.943  0.6027 -0.0441  0.0578
  154OSM    H3F17193   5.135   2.451   4.863 -2.6660 -3.4433  4.0802
  154OSM    H3G17194   5.193   2.608   4.937  1.4322  0.0714  1.2890
  154OSM    C4F17195   5.116   2.451   5.070  0.4432 -0.3981 -0.3121
  154OSM    H4F17196   5.111   2.340   5.073  2.0669 -0.6140 -2.7155
  154OSM    H4G17197   5.010   2.483   5.060 -0.0251 -1.8049 -0.0992
  154OSM    C5F17198   5.169   2.502   5.209 -0.1637 -0.1931  0.7608
  154OSM    H5F17199   5.273   2.471   5.232  0.2274  0.9966  0.6826
  154OSM    H5G17200   5.090   2.462   5.275 -0.1594  0.6372  1.2829
  154OSM    C6F17201   5.158   2.654   5.228 -0.4368  0.6243  0.0846
  154OSM    H6F17202   5.256   2.693   5.192  0.7738 -0.9764  1.4525
  154OSM    H6G17203   5.156   2.690   5.333 -1.7945  1.7010 -0.2795
  154OSM    C7F17204   5.030   2.712   5.160 -0.0361 -1.2954 -1.4094
  154OSM    H7F17205   4.942   2.654   5.196 -0.2973 -0.0502  0.0823
  154OSM    H7G17206   5.049   2.701   5.051 -0.3411  2.9489 -2.0711
  154OSM    C8F17207   5.023   2.856   5.197  0.4335  0.3918  0.5607
  154OSM    H8F17208   5.114   2.911   5.164  0.0041 -0.1694 -1.7296
  154OSM    H8G17209   5.039   2.854   5.307  0.7108 -1.9547  0.5263
  154OSM    C9F17210   4.897   2.914   5.139  0.3565 -0.9077 -0.8171
  154OSM    H9F17211   4.882   2.932   5.031 -3.4226 -1.0994 -0.4606
  154OSM   C10F17212   4.786   2.945   5.211 -0.1676 -0.2101  0.4602
  154OSM   H10F17213   4.705   2.999   5.159 -2.2436 -1.8480  1.8300
  154OSM   C11F17214   4.771   2.928   5.357  0.9068 -0.0262 -0.3963
  154OSM   H11F17215   4.841   2.861   5.412 -1.6378 -1.0393  1.8146
  154OSM   H11G17216   4.677   2.869   5.356  2.6377 -3.0682  0.5816
  154OSM   C12F17217   4.748   3.058   5.443 -0.1760  0.7283  1.2562
  154OSM   H12F17218   4.679   3.127   5.390  1.8330  0.0357 -2.6756
  154OSM   H12G17219   4.840   3.119   5.444  0.8857 -0.5499 -2.3538
  154OSM   C13F17220   4.695   3.016   5.584 -1.0577  0.6925  0.7759
  154OSM   H13F17221   4.612   2.943   5.573  1.1125 -1.7661 -0.6450
  154OSM   H13G17222   4.663   3.106   5.639 -0.7452  0.7211  0.9156
  154OSM   C14F17223   4.803   2.966   5.677 -0.4456  0.4958 -0.3750
  154OSM   H14F17224   4.875   3.050   5.689  1.4511 -0.8128 -2.0086
  154OSM   H14G17225   4.866   2.890   5.628  1.4908  1.6993  0.1354
  154OSM   C15F17226   4.748   2.905   5.806  0.0831 -0.2133 -0.3959
  154OSM   H15F17227   4.822   2.829   5.839  0.3691  0.6730  1.0880
  154OSM   H15G17228   4.654   2.849   5.791 -0.4112  0.5681 -0.2646
  154OSM   C16F17229   4.727   3.013   5.917  0.1095 -0.1663  0.0159
  154OSM   H16F17230   4.670   3.102   5.885  2.8256  2.6140  2.3019
  154OSM   H16G17231   4.822   3.060   5.948  0.5650 -2.4176  2.3658
  154OSM   C17F17232   4.663   2.963   6.047 -0.2863 -0.2837 -0.1211
  154OSM   H17F17233   4.737   2.900   6.099 -0.2078 -1.2890 -1.4089
  154OSM   H17G17234   4.575   2.897   6.032 -1.4213  1.0368  0.4680
  154OSM   C18F17235   4.615   3.078   6.141 -0.2626 -0.3734 -0.4101
  154OSM   H18F17236   4.566   3.046   6.235  2.2206 -2.0112  0.4327
  154OSM   H18G17237   4.531   3.130   6.090 -0.9538  1.9531  2.7621
  154OSM   H18H17238   4.693   3.155   6.159  0.6625 -1.0647 -1.3136
  155OSM      N17239   6.389   6.563   4.579  0.2435  0.1580 -0.1539
  155OSM    C1517240   6.495   6.577   4.480 -0.2468 -0.1511 -0.0360
  155OSM   H15A17241   6.471   6.659   4.415  1.8892 -0.9452 -1.9763
  155OSM   H15B17242   6.507   6.483   4.427  0.1509 -1.9893  3.0457
  155OSM   H15C17243   6.583   6.623   4.522 -0.9861  1.0379  0.2715
  155OSM    C1417244   6.261   6.550   4.501  0.1578  0.5479  0.6934
  155OSM   H14A17245   6.176   6.508   4.554  1.3149 -3.5679 -0.2977
  155OSM   H14B17246   6.265   6.467   4.432 -1.1756  1.2302 -0.2618
  155OSM   H14C17247   6.233   6.643   4.454  1.0910 -0.1217 -1.2677
  155OSM    C1317248   6.415   6.433   4.653 -0.2745 -0.6243  0.9627
  155OSM   H13A17249   6.514   6.437   4.696 -0.3673  0.5757  1.0991
  155OSM   H13B17250   6.412   6.354   4.580  0.9255  1.9755 -2.1274
  155OSM   H13C17251   6.343   6.406   4.729  0.8926 -0.5746  2.1428
  155OSM    C1217252   6.391   6.681   4.680  0.2898  0.8877  0.3768
  155OSM   H12A17253   6.494   6.680   4.710 -0.0543  0.8578  1.6095
  155OSM   H12B17254   6.321   6.654   4.757 -0.2572  1.3600  0.0547
  155OSM    C1117255   6.355   6.820   4.632  0.2773  0.2105  0.4809
  155OSM   H11A17256   6.337   6.877   4.726  0.6095 -1.0772  1.3533
  155OSM   H11B17257   6.260   6.820   4.574  0.5064  0.7135  0.0969
  155OSM      P17258   6.604   6.904   4.614 -0.0124  0.0544  0.2455
  155OSM    O1317259   6.669   6.776   4.642  0.6781 -0.2212  0.0416
  155OSM    O1417260   6.679   7.008   4.544 -0.6653 -0.2262 -0.4944
  155OSM    O1117261   6.569   6.965   4.758 -0.3944 -0.2967  0.0259
  155OSM    O1217262   6.460   6.882   4.552  0.6062  0.2535 -0.3281
  155OSM    C1S17263   6.614   6.919   4.887  0.3049  0.3229 -0.8605
  155OSM    H1S17264   6.723   6.901   4.886  0.0304 -2.3458  1.7004
  155OSM    H1T17265   6.566   6.821   4.910  0.7888 -0.4189 -2.8500
  155OSM     NF17266   6.622   6.988   5.125  0.4813  0.2420 -0.0551
  155OSM    HNF17267   6.568   6.940   5.194  1.0454 -1.5618 -0.8024
  155OSM    C2S17268   6.562   7.024   4.994  0.0187 -0.0941  0.2633
  155OSM    H2S17269   6.589   7.127   4.961 -1.4225  0.0524 -0.5137
  155OSM    C3S17270   6.407   7.044   4.997 -0.2176 -0.0723  0.4729
  155OSM    H3S17271   6.360   6.946   5.020 -0.8377  0.4171  1.3432
  155OSM     O317272   6.354   7.076   4.861 -0.4214 -0.0621  0.1683
  155OSM    HO317273   6.429   7.069   4.802  0.3568  1.5903  0.8795
  155OSM    C4S17274   6.365   7.125   5.115 -0.7415  0.3333 -0.3825
  155OSM    H4S17275   6.366   7.075   5.213 -0.2879  3.1430  1.1375
  155OSM    C5S17276   6.327   7.255   5.117  0.6603  0.6027 -0.1486
  155OSM    H5S17277   6.339   7.316   5.025 -1.0261  1.6855  0.3064
  155OSM    C6S17278   6.281   7.340   5.232  0.0758  0.3248  1.1616
  155OSM    H6S17279   6.178   7.379   5.219 -0.5271 -1.2159  1.0864
  155OSM    H6T17280   6.337   7.436   5.225  1.7819 -0.6846  0.0843
  155OSM    C7S17281   6.307   7.275   5.371 -0.0816  0.2726  0.4411
  155OSM    H7S17282   6.409   7.230   5.370 -0.3044 -0.2331 -0.3148
  155OSM    H7T17283   6.234   7.192   5.379  0.1054 -0.1778 -1.8057
  155OSM    C8S17284   6.282   7.369   5.490  0.0521 -0.0968  0.1808
  155OSM    H8S17285   6.190   7.430   5.476 -0.8828 -1.9215 -2.2347
  155OSM    H8T17286   6.369   7.436   5.507  0.4653 -0.6576  0.2959
  155OSM    C9S17287   6.258   7.302   5.630  0.5708  0.9217  0.2035
  155OSM    H9S17288   6.346   7.242   5.660 -0.5274 -1.4444 -1.0239
  155OSM    H9T17289   6.181   7.222   5.618  3.5289 -1.9354 -1.2548
  155OSM   C10S17290   6.219   7.400   5.745 -0.0936  0.4729  0.5015
  155OSM   H10S17291   6.109   7.412   5.739 -0.4556 -2.0585  1.3279
  155OSM   H10T17292   6.273   7.497   5.735 -0.1538  0.4933  0.3657
  155OSM   C11S17293   6.246   7.339   5.886 -0.3693 -0.2985 -0.5043
  155OSM   H11S17294   6.355   7.322   5.896  0.0078  2.5483  1.5027
  155OSM   H11T17295   6.200   7.238   5.882  1.2959 -1.1120 -0.0999
  155OSM   C12S17296   6.205   7.422   6.017 -0.2236 -0.1338 -0.6804
  155OSM   H12S17297   6.097   7.447   6.005  0.2450  4.3095  2.1791
  155OSM   H12T17298   6.261   7.517   6.004  0.5691 -0.7741 -2.1638
  155OSM   C13S17299   6.244   7.351   6.146 -0.3661 -0.1360  0.0661
  155OSM   H13S17300   6.351   7.323   6.134  0.1493  1.8927 -0.5320
  155OSM   H13T17301   6.195   7.252   6.149 -0.7834  0.0652 -0.0046
  155OSM   C14S17302   6.222   7.432   6.269 -0.0700 -0.1399  0.1490
  155OSM   H14S17303   6.117   7.426   6.307 -0.2238 -0.7784 -0.3680
  155OSM   H14T17304   6.210   7.534   6.227  0.3097 -0.6471 -1.2507
  155OSM   C15S17305   6.326   7.416   6.374 -0.2683 -0.3942  0.7955
  155OSM   H15S17306   6.431   7.433   6.341 -0.3809  0.1904  0.7378
  155OSM   H15T17307   6.328   7.310   6.410  0.3345 -0.2447  1.2251
  155OSM   C16S17308   6.299   7.517   6.490 -0.1335  0.8220 -0.4250
  155OSM   H16S17309   6.202   7.487   6.536  0.1506  0.4753 -0.0496
  155OSM   H16T17310   6.286   7.621   6.456 -0.0759  1.4566  1.3858
  155OSM   C17S17311   6.419   7.503   6.588 -0.2158 -0.8003 -0.1355
  155OSM   H17S17312   6.508   7.548   6.540 -1.0664 -0.5053 -1.4655
  155OSM   H17T17313   6.437   7.395   6.608 -1.0234 -1.3328 -2.0749
  155OSM   C18S17314   6.396   7.579   6.718 -0.4471  0.6867  0.1571
  155OSM   H18S17315   6.492   7.565   6.773  0.1767 -0.9516 -1.2478
  155OSM   H18T17316   6.312   7.538   6.778 -0.6675  0.2389 -0.4439
  155OSM   H18U17317   6.373   7.684   6.693  0.5872  1.2215  1.3139
  155OSM    C1F17318   6.754   7.002   5.147 -0.3297 -0.0677 -0.2656
  155OSM     OF17319   6.818   7.077   5.068  0.4544 -0.2193  0.1735
  155OSM    C2F17320   6.808   6.935   5.272 -0.8682  0.2570 -0.0797
  155OSM    H2F17321   6.720   6.878   5.310  0.3198 -0.6048  1.4807
  155OSM    H2G17322   6.849   7.013   5.338  1.2817 -0.2921 -0.6776
  155OSM    C3F17323   6.926   6.828   5.257 -0.1255 -0.0325  0.2313
  155OSM    H3F17324   7.008   6.851   5.186 -0.2194  0.3053  0.2294
  155OSM    H3G17325   6.881   6.735   5.217  1.8600 -0.4925 -1.0435
  155OSM    C4F17326   6.981   6.793   5.393  0.2376  0.0162  0.2899
  155OSM    H4F17327   7.038   6.698   5.380  2.1111  1.4040 -2.9958
  155OSM    H4G17328   6.895   6.765   5.458 -0.6995 -0.1046 -0.9848
  155OSM    C5F17329   7.071   6.903   5.443  0.8354 -0.3037  0.3865
  155OSM    H5F17330   7.022   7.002   5.430 -1.3209 -1.3860 -0.3511
  155OSM    H5G17331   7.161   6.906   5.378 -0.5983 -0.8891 -1.7698
  155OSM    C6F17332   7.105   6.885   5.594 -0.4385 -0.4643  0.1903
  155OSM    H6F17333   7.131   6.778   5.606 -0.3357 -0.4957 -0.2923
  155OSM    H6G17334   7.015   6.896   5.658 -0.3185 -1.0945  0.4715
  155OSM    C7F17335   7.215   6.983   5.639  0.1628  0.1460  0.8033
  155OSM    H7F17336   7.194   7.079   5.586 -2.7297  1.2790  3.6861
  155OSM    H7G17337   7.316   6.957   5.599 -0.3485  0.0792 -0.5195
  155OSM    C8F17338   7.222   7.019   5.787  0.7613  0.4559  0.0948
  155OSM    H8F17339   7.145   7.091   5.820 -1.5852 -1.5731 -0.6176
  155OSM    H8G17340   7.318   7.072   5.801  0.3759  1.0918  0.3846
  155OSM    C9F17341   7.231   6.900   5.871  0.1899 -0.4137  0.0180
  155OSM    H9F17342   7.283   6.817   5.820  2.5597  1.0832 -0.1305
  155OSM   C10F17343   7.195   6.878   6.002  0.8222  0.3706  0.1208
  155OSM   H10F17344   7.212   6.781   6.051  2.2081  1.2883  1.5274
  155OSM   C11F17345   7.127   6.982   6.087  0.2116 -0.5917  0.1279
  155OSM   H11F17346   7.020   6.960   6.108 -0.1383  0.1997 -0.7343
  155OSM   H11G17347   7.129   7.080   6.034 -2.0177  0.6379  2.1012
  155OSM   C12F17348   7.192   7.022   6.222 -0.2566 -0.0718  0.5331
  155OSM   H12F17349   7.278   7.086   6.195 -1.0403  0.7696 -0.0495
  155OSM   H12G17350   7.226   6.939   6.287 -1.8942 -1.6709 -0.5679
  155OSM   C13F17351   7.102   7.110   6.315 -0.0504  0.5893  0.7152
  155OSM   H13F17352   7.007   7.053   6.321  0.1955 -0.4091 -2.8971
  155OSM   H13G17353   7.078   7.203   6.259  1.7241 -1.7345 -4.5091
  155OSM   C14F17354   7.168   7.142   6.449  0.5625 -0.4963 -0.2807
  155OSM   H14F17355   7.098   7.218   6.490  0.0526 -1.3355  0.4316
  155OSM   H14G17356   7.269   7.189   6.451  0.5052 -0.3553  1.5953
  155OSM   C15F17357   7.169   7.025   6.538  0.0635  0.2361 -0.3035
  155OSM   H15F17358   7.240   6.951   6.495  1.0049  1.9248 -1.8134
  155OSM   H15G17359   7.068   6.979   6.535  0.0507  0.0659  1.6772
  155OSM   C16F17360   7.192   7.051   6.691 -0.8890  0.2233 -0.1937
  155OSM   H16F17361   7.161   6.963   6.751  1.1338  0.6442  1.6421
  155OSM   H16G17362   7.117   7.133   6.701 -1.1586  0.4874 -3.5168
  155OSM   C17F17363   7.337   7.078   6.729 -0.4446 -0.0445 -0.0723
  155OSM   H17F17364   7.380   7.160   6.667  1.7789 -0.4713  0.7871
  155OSM   H17G17365   7.394   6.987   6.702 -1.7077 -0.6293 -0.8249
  155OSM   C18F17366   7.360   7.111   6.879 -0.2237 -0.6756  0.5302
  155OSM   H18F17367   7.273   7.169   6.916  0.1285  0.5558 -0.4994
  155OSM   H18G17368   7.443   7.185   6.873  0.3080 -1.2831  0.2257
  155OSM   H18H17369   7.384   7.023   6.942 -1.0628 -0.1510  1.6098
  156OSM      N17370   1.901   4.980   4.353  0.0627 -0.0422 -1.0973
  156OSM    C1517371   2.008   5.026   4.445  0.1563  0.7030 -0.0456
  156OSM   H15A17372   2.028   5.132   4.437  1.7164  0.5450  1.2415
  156OSM   H15B17373   2.097   4.971   4.418 -1.7808 -2.5301 -0.3368
  156OSM   H15C17374   1.983   5.003   4.547 -0.0713 -2.3422 -0.7001
  156OSM    C1417375   1.772   5.041   4.392  0.3782 -0.4797  0.3403
  156OSM   H14A17376   1.691   5.024   4.323  0.9058 -1.2651 -0.1047
  156OSM   H14B17377   1.783   5.148   4.386  1.1077 -0.6065 -0.9496
  156OSM   H14C17378   1.745   5.022   4.495 -0.9481 -1.1094 -0.1014
  156OSM    C1317379   1.940   5.031   4.218 -0.3323  0.4124 -0.2199
  156OSM   H13A17380   1.969   5.135   4.228 -0.2645  0.3064  0.7311
  156OSM   H13B17381   1.856   5.026   4.150  0.7617  3.4436 -2.0263
  156OSM   H13C17382   2.024   4.980   4.174  0.6304  0.2809  1.6565
  156OSM    C1217383   1.887   4.826   4.355  0.8001  0.2990 -0.3662
  156OSM   H12A17384   1.976   4.782   4.312  1.5732  0.8688  0.6138
  156OSM   H12B17385   1.812   4.791   4.286 -1.1500 -0.7010  2.1289
  156OSM    C1117386   1.870   4.754   4.496  0.3004  0.2021  0.6028
  156OSM   H11A17387   1.837   4.649   4.483  1.0837  0.1186 -0.9989
  156OSM   H11B17388   1.783   4.804   4.544  0.2049  0.4470  0.1834
  156OSM      P17389   2.107   4.672   4.536  0.1578  0.1720 -0.1257
  156OSM    O1317390   2.057   4.570   4.444 -0.1556  0.5464  0.2312
  156OSM    O1417391   2.219   4.762   4.499  0.1413 -0.3960 -0.4649
  156OSM    O1117392   2.136   4.600   4.673  0.3832  0.2989 -0.4375
  156OSM    O1217393   1.983   4.759   4.581  0.9096  0.0841  0.0805
  156OSM    C1S17394   2.187   4.681   4.779 -0.2663 -0.3807  0.0098
  156OSM    H1S17395   2.171   4.790   4.764 -0.0847  0.0741  2.7072
  156OSM    H1T17396   2.294   4.652   4.778 -0.2655 -0.5082 -2.4969
  156OSM     NF17397   2.166   4.736   5.017  0.8191  0.5106  0.0702
  156OSM    HNF17398   2.248   4.700   5.061  0.2678 -0.3171  0.4471
  156OSM    C2S17399   2.115   4.649   4.914 -0.2705 -0.3781  0.0960
  156OSM    H2S17400   2.011   4.684   4.901  0.4515  1.8424 -0.1262
  156OSM    C3S17401   2.116   4.498   4.942 -0.3565 -0.1243 -0.1965
  156OSM    H3S17402   2.218   4.454   4.952 -0.7437 -0.4786  3.4580
  156OSM     O317403   2.040   4.422   4.841  0.3907 -0.3766  0.5351
  156OSM    HO317404   2.056   4.473   4.761 -1.2842 -1.7446 -0.7487
  156OSM    C4S17405   2.060   4.467   5.084 -1.0483  0.0020 -0.0505
  156OSM    H4S17406   2.140   4.449   5.158 -1.0435  1.7109  0.3896
  156OSM    C5S17407   1.934   4.450   5.117 -0.4332  0.0926 -0.2526
  156OSM    H5S17408   1.853   4.444   5.043 -1.4319  1.3649  0.6852
  156OSM    C6S17409   1.896   4.419   5.263 -0.3751  0.6215 -0.6628
  156OSM    H6S17410   1.857   4.316   5.277 -0.5822  0.8136  0.2544
  156OSM    H6T17411   1.807   4.475   5.298 -0.4768 -0.2404  0.5429
  156OSM    C7S17412   2.004   4.436   5.372 -0.5409 -0.1392  0.4760
  156OSM    H7S17413   2.046   4.538   5.371  0.4806 -0.5338 -1.1822
  156OSM    H7T17414   2.090   4.372   5.344 -0.1982 -0.6205  2.5159
  156OSM    C8S17415   1.962   4.399   5.521  0.3771 -0.6313 -0.4615
  156OSM    H8S17416   1.945   4.290   5.528  1.7471 -0.8601 -0.3830
  156OSM    H8T17417   1.865   4.447   5.547  0.7842 -0.5669  1.0327
  156OSM    C9S17418   2.069   4.444   5.623  0.4242 -0.3339  0.7999
  156OSM    H9S17419   2.113   4.540   5.587  0.5420 -0.9760 -0.8462
  156OSM    H9T17420   2.155   4.375   5.626  1.1479  0.5221  0.1481
  156OSM   C10S17421   2.016   4.469   5.765  0.0902  0.0484 -0.5587
  156OSM   H10S17422   1.961   4.379   5.802  0.9550 -0.9749 -1.6573
  156OSM   H10T17423   1.956   4.561   5.781  0.7665  0.8310 -2.2014
  156OSM   C11S17424   2.133   4.484   5.866  0.2291  0.1548 -0.9772
  156OSM   H11S17425   2.211   4.539   5.809 -0.8160  2.8943  0.0508
  156OSM   H11T17426   2.173   4.387   5.902  0.2757 -0.0684 -1.6217
  156OSM   C12S17427   2.094   4.568   5.986 -0.7158  0.4235  0.5685
  156OSM   H12S17428   2.004   4.524   6.034  0.2595 -2.6321 -0.1724
  156OSM   H12T17429   2.069   4.668   5.946  0.3382 -0.1157 -1.5657
  156OSM   C13S17430   2.210   4.581   6.081 -0.0967  0.2350  0.6715
  156OSM   H13S17431   2.297   4.630   6.033 -0.4873  0.6734  0.4001
  156OSM   H13T17432   2.248   4.479   6.102 -0.5239 -0.0319  0.1612
  156OSM   C14S17433   2.182   4.658   6.211 -0.2543  0.4122 -0.0447
  156OSM   H14S17434   2.140   4.753   6.172  2.6283  0.5953 -3.2892
  156OSM   H14T17435   2.281   4.682   6.256  0.4648  0.6694 -1.6823
  156OSM   C15S17436   2.092   4.593   6.312 -0.0035  0.4191  0.6556
  156OSM   H15S17437   2.136   4.492   6.322 -0.7459 -0.0541 -0.5865
  156OSM   H15T17438   1.991   4.579   6.267  0.4166 -2.7057  0.5232
  156OSM   C16S17439   2.071   4.657   6.446 -0.5637 -0.6672 -0.2369
  156OSM   H16S17440   2.047   4.764   6.426 -0.4133  0.0711  2.9698
  156OSM   H16T17441   2.151   4.643   6.522  0.9787  0.2664 -1.6135
  156OSM   C17S17442   1.946   4.602   6.513 -0.1689 -0.2736  0.4567
  156OSM   H17S17443   1.939   4.491   6.510 -1.5179 -0.2142  0.8346
  156OSM   H17T17444   1.855   4.643   6.464 -0.2765 -1.8115 -0.6962
  156OSM   C18S17445   1.940   4.649   6.665  0.0822  0.4142 -0.0647
  156OSM   H18S17446   1.841   4.622   6.706  0.6153 -0.2599  0.8049
  156OSM   H18T17447   1.960   4.757   6.682 -2.2000  0.9644 -0.5950
  156OSM   H18U17448   2.017   4.590   6.719 -0.4984  2.2422  3.0315
  156OSM    C1F17449   2.135   4.862   5.017  0.0701  0.3363 -1.0109
  156OSM     OF17450   2.031   4.898   4.969  0.2987  0.1312  0.0131
  156OSM    C2F17451   2.242   4.959   5.068  0.9724 -0.7210  0.6058
  156OSM    H2F17452   2.248   5.036   4.987 -0.0473 -0.0408  1.1535
  156OSM    H2G17453   2.339   4.905   5.072  0.6649 -1.2061  1.9206
  156OSM    C3F17454   2.184   5.028   5.193 -0.4966  0.3908 -0.8102
  156OSM    H3F17455   2.148   4.958   5.271  0.2408 -1.7776 -2.3021
  156OSM    H3G17456   2.089   5.072   5.159 -1.7923 -1.0373  0.7622
  156OSM    C4F17457   2.281   5.122   5.257 -0.7782  0.1976  0.4194
  156OSM    H4F17458   2.298   5.206   5.186  3.4796  0.1706  1.1994
  156OSM    H4G17459   2.387   5.093   5.265 -0.0433  1.7532 -2.2963
  156OSM    C5F17460   2.229   5.171   5.392  1.1339 -0.1499  0.4147
  156OSM    H5F17461   2.217   5.089   5.466 -2.7504 -0.2510 -0.0949
  156OSM    H5G17462   2.130   5.218   5.374 -1.1887 -4.0664  1.5882
  156OSM    C6F17463   2.317   5.277   5.468 -0.2281 -0.4393  0.2113
  156OSM    H6F17464   2.306   5.369   5.406 -2.0027 -1.7150 -1.5170
  156OSM    H6G17465   2.423   5.245   5.462  0.5557  2.0022 -0.5419
  156OSM    C7F17466   2.282   5.301   5.616  0.2979  0.2984  0.1160
  156OSM    H7F17467   2.301   5.211   5.678  0.3965  1.3204  1.6469
  156OSM    H7G17468   2.173   5.321   5.631  0.6645  2.0713  0.6839
  156OSM    C8F17469   2.354   5.423   5.680 -0.3225 -0.0931  0.1094
  156OSM    H8F17470   2.300   5.436   5.776 -0.7368  2.0890 -0.3834
  156OSM    H8G17471   2.337   5.510   5.613 -0.3283  0.0724  0.3254
  156OSM    C9F17472   2.508   5.402   5.702  0.2929  0.4982 -0.3043
  156OSM    H9F17473   2.570   5.412   5.612 -0.7202 -0.0529 -1.0934
  156OSM   C10F17474   2.569   5.404   5.824  0.1187 -0.4626 -0.1628
  156OSM   H10F17475   2.679   5.396   5.829  0.0796 -1.3216 -0.4894
  156OSM   C11F17476   2.506   5.406   5.962 -0.3767  0.3639 -0.1827
  156OSM   H11F17477   2.566   5.336   6.024  2.3139  1.3953 -1.4199
  156OSM   H11G17478   2.402   5.369   5.960 -0.0915 -0.4381 -0.4300
  156OSM   C12F17479   2.519   5.544   6.031 -0.4545  0.4661 -0.1559
  156OSM   H12F17480   2.464   5.622   5.973 -0.9052  1.0518  1.0190
  156OSM   H12G17481   2.624   5.580   6.030  0.2551 -1.3998  1.3683
  156OSM   C13F17482   2.476   5.547   6.179 -0.1897  1.0211  0.1960
  156OSM   H13F17483   2.553   5.501   6.245 -2.9191 -3.1562  0.8461
  156OSM   H13G17484   2.389   5.481   6.200  1.2055 -1.3258 -1.0222
  156OSM   C14F17485   2.448   5.691   6.218 -0.8238 -0.4262  0.6879
  156OSM   H14F17486   2.376   5.742   6.151 -0.5852 -0.4284  0.4262
  156OSM   H14G17487   2.540   5.754   6.221 -0.7649 -0.5059  0.5583
  156OSM   C15F17488   2.396   5.698   6.362  0.1967 -0.5646 -0.5673
  156OSM   H15F17489   2.456   5.645   6.439 -1.4031  2.5558  3.1918
  156OSM   H15G17490   2.293   5.655   6.361  0.3921 -1.0368 -0.5894
  156OSM   C16F17491   2.381   5.846   6.410  0.0795  0.1491 -0.0899
  156OSM   H16F17492   2.315   5.896   6.337  3.8822  3.2758 -1.7466
  156OSM   H16G17493   2.480   5.892   6.394  0.0911  0.0641 -0.2588
  156OSM   C17F17494   2.323   5.858   6.546  0.1600  0.1262 -0.0716
  156OSM   H17F17495   2.406   5.822   6.611 -0.3685 -0.2213  0.4152
  156OSM   H17G17496   2.236   5.790   6.547  0.9391 -0.8827  0.7271
  156OSM   C18F17497   2.286   6.001   6.594  0.2892 -0.4123  0.4521
  156OSM   H18F17498   2.241   5.991   6.695  0.8418 -0.8317  0.6624
  156OSM   H18G17499   2.228   6.053   6.515 -2.6650 -1.4477  1.7690
  156OSM   H18H17500   2.379   6.057   6.618  0.4469 -1.2322  1.8329
  157OSM      N17501   6.274   5.955   4.888 -0.1235  0.0770 -0.6965
  157OSM    C1517502   6.176   5.991   4.781 -0.2398  0.0322 -0.1118
  157OSM   H15A17503   6.144   6.094   4.779 -0.4839 -0.0448 -1.2675
  157OSM   H15B17504   6.084   5.936   4.796  0.3965 -0.3058  3.1945
  157OSM   H15C17505   6.205   5.966   4.679 -1.5019  0.0071 -0.4810
  157OSM    C1417506   6.318   5.814   4.868  0.4679  0.2790  0.0427
  157OSM   H14A17507   6.235   5.749   4.891 -0.1096  1.7632  2.4587
  157OSM   H14B17508   6.399   5.796   4.936 -0.1432  1.0928  1.0178
  157OSM   H14C17509   6.344   5.786   4.767 -0.2476 -2.1237  0.4553
  157OSM    C1317510   6.390   6.047   4.890  0.6289 -0.1088 -0.6228
  157OSM   H13A17511   6.464   6.011   4.961 -0.1398 -2.3532 -0.9055
  157OSM   H13B17512   6.354   6.143   4.924 -1.3779 -1.7072  2.1078
  157OSM   H13C17513   6.441   6.056   4.795  0.7725 -2.9327 -0.8980
  157OSM    C1217514   6.194   5.963   5.017  0.5159 -0.4754  0.1751
  157OSM   H12A17515   6.254   5.914   5.093 -0.6278 -2.3805 -0.0852
  157OSM   H12B17516   6.107   5.899   5.010 -0.3131  0.7458 -1.0029
  157OSM    C1117517   6.144   6.103   5.068  0.0203  0.6136 -0.0442
  157OSM   H11A17518   6.083   6.077   5.158 -0.9729  1.9256 -0.3076
  157OSM   H11B17519   6.072   6.159   5.004  0.9117  2.8102  0.7614
  157OSM      P17520   6.266   6.334   5.084 -0.3261 -0.3476  0.0007
  157OSM    O1317521   6.405   6.372   5.085 -0.3845 -0.0644 -0.5825
  157OSM    O1417522   6.178   6.383   4.973  0.3276  0.1034  0.3324
  157OSM    O1117523   6.192   6.401   5.217 -0.2115 -0.2901 -0.1354
  157OSM    O1217524   6.254   6.183   5.109  0.5478 -0.2479  0.4556
  157OSM    C1S17525   6.207   6.322   5.335 -0.0249 -0.6062  0.2281
  157OSM    H1S17526   6.301   6.263   5.340  1.2433  1.4206  2.9140
  157OSM    H1T17527   6.134   6.239   5.343  0.0821 -0.7005  0.2336
  157OSM     NF17528   6.235   6.347   5.581 -0.0432  0.2100  0.1236
  157OSM    HNF17529   6.164   6.291   5.624  0.6643 -0.6668  0.1927
  157OSM    C2S17530   6.186   6.410   5.460  0.5366  0.3155  0.4982
  157OSM    H2S17531   6.241   6.506   5.446 -1.0195  0.9599 -1.8173
  157OSM    C3S17532   6.037   6.442   5.476 -0.4922 -0.2731  0.4129
  157OSM    H3S17533   5.993   6.346   5.510  0.4672 -0.7345  0.3853
  157OSM     O317534   5.966   6.485   5.353  0.6561 -0.0883  0.2870
  157OSM    HO317535   6.031   6.469   5.284 -1.4192  2.0082 -2.3798
  157OSM    C4S17536   6.013   6.556   5.577 -0.5870  0.7745 -0.0596
  157OSM    H4S17537   6.060   6.647   5.536  0.2488 -0.2420 -1.4363
  157OSM    C5S17538   5.957   6.559   5.702  0.5239  0.7235  0.1133
  157OSM    H5S17539   5.914   6.463   5.735  1.6174  0.0657 -0.3311
  157OSM    C6S17540   5.958   6.676   5.799 -0.3323  0.1381 -0.2226
  157OSM    H6S17541   5.860   6.728   5.792  0.7556  2.1146 -2.4069
  157OSM    H6T17542   6.033   6.757   5.789  1.3752 -0.8719  2.9653
  157OSM    C7S17543   5.973   6.626   5.939  0.6065 -0.2486 -0.7108
  157OSM    H7S17544   6.068   6.570   5.953  1.2999  0.4175 -2.4762
  157OSM    H7T17545   5.892   6.553   5.962  2.4830 -2.7829 -1.6580
  157OSM    C8S17546   5.963   6.733   6.042 -0.5400  0.4276 -0.3501
  157OSM    H8S17547   5.863   6.781   6.028 -0.8602 -0.2379 -0.3729
  157OSM    H8T17548   6.025   6.820   6.013  0.3315  0.4041  1.3207
  157OSM    C9S17549   6.000   6.687   6.182 -0.9855 -0.6676 -0.0186
  157OSM    H9S17550   6.101   6.642   6.183 -0.1525  1.0728 -0.7584
  157OSM    H9T17551   5.929   6.605   6.206 -1.3163  0.6546  4.3911
  157OSM   C10S17552   5.972   6.790   6.288 -0.3211  0.6303 -0.9779
  157OSM   H10S17553   5.862   6.808   6.286 -0.4955 -0.1987  0.0778
  157OSM   H10T17554   6.027   6.883   6.262 -1.1379  1.0027 -1.4299
  157OSM   C11S17555   6.001   6.743   6.439  0.4437  0.2351  0.4353
  157OSM   H11S17556   6.111   6.729   6.451 -0.0457 -3.5539  1.6185
  157OSM   H11T17557   5.940   6.653   6.458  0.4122  0.1513 -0.0643
  157OSM   C12S17558   5.951   6.854   6.540 -0.5247 -0.4481 -0.6159
  157OSM   H12S17559   5.841   6.844   6.554 -0.4618 -0.9543 -0.4566
  157OSM   H12T17560   5.975   6.956   6.503  0.0002 -0.9977 -1.8427
  157OSM   C13S17561   6.022   6.827   6.678 -0.2251 -0.1895  0.3748
  157OSM   H13S17562   6.131   6.811   6.669 -0.2938 -2.3230  2.3956
  157OSM   H13T17563   5.981   6.728   6.709 -1.0308  0.2579  0.7564
  157OSM   C14S17564   5.990   6.934   6.780  0.3271 -0.1589 -0.6052
  157OSM   H14S17565   5.883   6.947   6.805  0.5450  1.7479 -0.4913
  157OSM   H14T17566   6.014   7.035   6.741  0.2482  0.3192  0.5247
  157OSM   C15S17567   6.067   6.899   6.906  0.2220 -1.0336 -0.8516
  157OSM   H15S17568   6.176   6.883   6.892  1.1844  2.8758  0.8599
  157OSM   H15T17569   6.019   6.808   6.949 -0.7607  0.1379  0.6024
  157OSM   C16S17570   6.067   7.005   7.017  0.1672  0.2052 -0.4057
  157OSM   H16S17571   5.971   7.003   7.072  0.3888 -1.2115 -0.0157
  157OSM   H16T17572   6.094   7.097   6.961  0.8685 -0.0943 -0.5769
  157OSM   C17S17573   6.168   6.981   7.135 -0.3859 -0.1098  0.5556
  157OSM   H17S17574   6.160   7.064   7.207 -2.8631  2.1237 -2.0268
  157OSM   H17T17575   6.270   6.987   7.092 -0.3294  1.3784  0.8589
  157OSM   C18S17576   6.151   6.846   7.206  0.1777 -0.1010 -0.1201
  157OSM   H18S17577   6.158   6.758   7.139  1.7825  0.4019 -0.6529
  157OSM   H18T17578   6.053   6.839   7.258 -0.3417 -0.9141 -1.1881
  157OSM   H18U17579   6.231   6.834   7.282  2.1847 -3.2059 -2.4888
  157OSM    C1F17580   6.365   6.342   5.618  0.0700  0.0396  0.7453
  157OSM     OF17581   6.444   6.404   5.545 -0.0592  0.4734 -0.4427
  157OSM    C2F17582   6.404   6.238   5.718  0.1231 -0.1744 -0.4483
  157OSM    H2F17583   6.508   6.206   5.696  0.1298 -0.3039 -0.2247
  157OSM    H2G17584   6.342   6.147   5.704  2.3444 -1.3760 -3.4639
  157OSM    C3F17585   6.416   6.293   5.864 -0.2071 -0.5165  0.7364
  157OSM    H3F17586   6.472   6.388   5.857 -1.7519  0.3673 -0.1436
  157OSM    H3G17587   6.471   6.220   5.928 -1.2151 -0.2783  1.9185
  157OSM    C4F17588   6.281   6.313   5.926  0.5889  0.4372  0.0190
  157OSM    H4F17589   6.223   6.219   5.939 -0.8079  0.9769 -1.8936
  157OSM    H4G17590   6.230   6.388   5.863  0.2922 -0.7440 -1.1973
  157OSM    C5F17591   6.279   6.376   6.061  0.0161  0.4310  0.6390
  157OSM    H5F17592   6.172   6.384   6.088 -0.7161 -0.2752 -1.8611
  157OSM    H5G17593   6.320   6.479   6.069  0.2398  0.2292  2.8590
  157OSM    C6F17594   6.356   6.296   6.165  0.0805 -0.4051  0.2561
  157OSM    H6F17595   6.463   6.307   6.137  0.3137  1.9319  1.7930
  157OSM    H6G17596   6.308   6.196   6.174 -0.0832 -0.2588  1.0646
  157OSM    C7F17597   6.335   6.326   6.315  0.3647  0.1642 -0.5854
  157OSM    H7F17598   6.385   6.422   6.337 -0.0227 -0.2148  2.2195
  157OSM    H7G17599   6.383   6.246   6.375 -0.5254  0.7990  1.0039
  157OSM    C8F17600   6.189   6.343   6.359  0.2366 -0.5338  0.3921
  157OSM    H8F17601   6.144   6.251   6.314  2.4007 -0.3577 -2.4673
  157OSM    H8G17602   6.148   6.432   6.306  0.4229 -0.4372  0.4108
  157OSM    C9F17603   6.190   6.351   6.513  0.0889  0.0475 -0.4345
  157OSM    H9F17604   6.190   6.447   6.568 -0.9695 -0.7306  1.0211
  157OSM   C10F17605   6.176   6.247   6.593  0.3800 -0.0678  0.7513
  157OSM   H10F17606   6.171   6.258   6.702  1.5943 -1.9842  1.0553
  157OSM   C11F17607   6.184   6.107   6.540  0.6371 -0.5300  0.6998
  157OSM   H11F17608   6.168   6.100   6.431 -0.7929  1.1977  0.7441
  157OSM   H11G17609   6.097   6.057   6.587 -1.8475  1.1580 -1.8089
  157OSM   C12F17610   6.318   6.039   6.567  0.8220 -0.2753 -0.1203
  157OSM   H12F17611   6.326   6.025   6.677  2.0807  1.5013  0.0571
  157OSM   H12G17612   6.403   6.104   6.536  0.7729 -0.5977 -0.9545
  157OSM   C13F17613   6.332   5.904   6.504  0.3579  1.0226  0.9470
  157OSM   H13F17614   6.244   5.835   6.513 -0.0498  1.0197 -2.0626
  157OSM   H13G17615   6.406   5.835   6.551 -0.7417  0.2580  1.6201
  157OSM   C14F17616   6.356   5.893   6.347  0.3231  0.0112  0.3262
  157OSM   H14F17617   6.457   5.850   6.332 -0.1977 -1.5098  0.9757
  157OSM   H14G17618   6.347   5.992   6.298  0.0832 -0.0638  0.2113
  157OSM   C15F17619   6.256   5.804   6.276  0.0679  0.2084 -0.5228
  157OSM   H15F17620   6.161   5.856   6.304  0.2348 -0.0574  0.5778
  157OSM   H15G17621   6.254   5.702   6.320 -2.4653  0.8582  1.0788
  157OSM   C16F17622   6.285   5.812   6.127 -0.8201  0.5583  0.4848
  157OSM   H16F17623   6.230   5.729   6.077  0.1075  1.3904 -2.0674
  157OSM   H16G17624   6.393   5.787   6.118 -0.6646  1.2912  0.2416
  157OSM   C17F17625   6.262   5.943   6.049 -0.1632 -0.0898  0.2244
  157OSM   H17F17626   6.347   6.011   6.072 -0.1531 -0.3597  1.0143
  157OSM   H17G17627   6.167   5.989   6.083 -0.6646 -1.1082  0.2410
  157OSM   C18F17628   6.267   5.923   5.900 -0.5336 -0.6981 -0.8247
  157OSM   H18F17629   6.361   5.875   5.865  0.4358  1.4172 -1.2281
  157OSM   H18G17630   6.263   6.023   5.852  2.5240  0.0979  0.3672
  157OSM   H18H17631   6.190   5.853   5.859 -0.5310 -1.6025  0.6466
  158OSM      N17632   6.798   4.845   4.483  0.0053 -0.5523 -0.6092
  158OSM    C1517633   6.748   4.978   4.532  0.5552 -0.4413  0.3943
  158OSM   H15A17634   6.640   4.973   4.523  0.2756  2.5409  0.9600
  158OSM   H15B17635   6.788   5.066   4.486 -2.3443  0.4758 -0.6033
  158OSM   H15C17636   6.762   4.987   4.639 -2.4452 -0.1926  0.8659
  158OSM    C1417637   6.694   4.741   4.510 -0.3293  0.5044 -0.1204
  158OSM   H14A17638   6.684   4.726   4.617  0.2110  1.9720  0.1545
  158OSM   H14B17639   6.729   4.647   4.471 -0.2279  0.8910 -0.9778
  158OSM   H14C17640   6.597   4.756   4.464 -1.1188  0.1723  1.3549
  158OSM    C1317641   6.827   4.847   4.337 -0.2745 -0.2532  0.3313
  158OSM   H13A17642   6.739   4.886   4.288 -0.1788  0.4133  0.6797
  158OSM   H13B17643   6.857   4.750   4.299 -3.8068 -0.9510 -1.0893
  158OSM   H13C17644   6.901   4.924   4.320 -0.0492  0.1117  2.6187
  158OSM    C1217645   6.924   4.814   4.566  0.1784 -0.1807  0.3739
  158OSM   H12A17646   6.996   4.890   4.537 -0.9661  0.7413 -0.1427
  158OSM   H12B17647   6.960   4.717   4.537 -0.3920 -0.9055  1.9684
  158OSM    C1117648   6.919   4.813   4.721 -0.0634  0.2765 -0.4993
  158OSM   H11A17649   7.007   4.766   4.768  0.3910  1.2171 -0.3794
  158OSM   H11B17650   6.835   4.751   4.759 -1.7805  2.1375 -1.0384
  158OSM      P17651   7.028   5.036   4.776  0.2608  0.1766 -0.3497
  158OSM    O1317652   7.135   4.969   4.703 -0.5235  0.0839  0.4529
  158OSM    O1417653   7.000   5.169   4.712  0.5923  0.0874  0.0702
  158OSM    O1117654   7.071   5.064   4.929 -0.5877  0.0706 -0.0855
  158OSM    O1217655   6.900   4.947   4.772  0.4328 -0.0818 -0.3662
  158OSM    C1S17656   6.986   5.016   5.034 -0.6181 -0.0631 -0.0141
  158OSM    H1S17657   7.004   4.907   5.047 -0.8736  0.1387  2.5847
  158OSM    H1T17658   6.879   5.034   5.015 -0.2215  1.3439 -1.0619
  158OSM     NF17659   6.935   5.034   5.281 -0.2846  0.1911 -0.5044
  158OSM    HNF17660   6.862   5.100   5.298  0.4953  0.6879  1.0302
  158OSM    C2S17661   7.025   5.072   5.174 -0.9878 -0.7971  0.0661
  158OSM    H2S17662   7.126   5.029   5.187 -0.8475 -0.3568  0.5057
  158OSM    C3S17663   7.041   5.228   5.167  0.4126 -0.7805 -0.1221
  158OSM    H3S17664   6.941   5.262   5.132 -0.1935 -0.7374  1.5372
  158OSM     O317665   7.128   5.273   5.066  0.1088 -0.0729 -0.4136
  158OSM    HO317666   7.122   5.198   5.006 -1.2699 -0.7950  0.5783
  158OSM    C4S17667   7.076   5.290   5.301  1.2130  0.3496  0.0059
  158OSM    H4S17668   7.150   5.239   5.365 -0.4582  0.9859  2.6411
  158OSM    C5S17669   7.009   5.392   5.359 -0.2167 -0.1542 -0.0796
  158OSM    H5S17670   6.939   5.462   5.311  0.3755  1.1850  0.9459
  158OSM    C6S17671   7.043   5.435   5.494 -0.0023 -0.6955 -0.0764
  158OSM    H6S17672   7.010   5.532   5.536  1.0555  0.4353 -1.7466
  158OSM    H6T17673   7.153   5.442   5.508  0.0616 -1.2760 -0.2781
  158OSM    C7S17674   6.991   5.317   5.586 -0.4296 -0.1879  0.1976
  158OSM    H7S17675   7.043   5.220   5.569 -0.7176 -0.2094 -0.6078
  158OSM    H7T17676   6.882   5.303   5.571 -0.8979  2.9452 -0.0480
  158OSM    C8S17677   7.026   5.340   5.742  0.8818 -0.2525 -0.0380
  158OSM    H8S17678   7.132   5.364   5.769  1.1479  0.7209 -1.8319
  158OSM    H8T17679   7.001   5.250   5.803  0.6124  1.3826  2.4298
  158OSM    C9S17680   6.943   5.455   5.807  0.3949  1.0569 -0.0467
  158OSM    H9S17681   6.835   5.433   5.795  0.6276  0.6431 -1.7284
  158OSM    H9T17682   6.963   5.540   5.738 -2.2368  1.1506 -0.8171
  158OSM   C10S17683   6.995   5.509   5.938 -0.0351 -0.4962 -0.3628
  158OSM   H10S17684   6.931   5.598   5.952 -0.2963 -0.7432  0.0534
  158OSM   H10T17685   7.102   5.530   5.918 -0.0610  0.1453  0.1510
  158OSM   C11S17686   6.974   5.411   6.053  0.7522  0.5930 -0.2592
  158OSM   H11S17687   7.050   5.329   6.044  2.2212  1.8170  0.5118
  158OSM   H11T17688   6.873   5.369   6.037  1.1766  0.2688 -2.4640
  158OSM   C12S17689   7.011   5.477   6.186  0.3107  0.0547 -0.7608
  158OSM   H12S17690   6.943   5.564   6.202  0.7862  0.4283 -0.7602
  158OSM   H12T17691   7.115   5.515   6.188  1.2294 -2.2506 -1.7859
  158OSM   C13S17692   6.987   5.382   6.304  0.2900  0.4942 -0.5767
  158OSM   H13S17693   7.051   5.412   6.390 -0.1113  0.6651 -0.3315
  158OSM   H13T17694   7.036   5.286   6.276 -0.4092  0.3777 -1.4305
  158OSM   C14S17695   6.838   5.355   6.337  0.3473  0.1125  0.0659
  158OSM   H14S17696   6.797   5.320   6.240 -0.9905  3.0569 -0.5489
  158OSM   H14T17697   6.788   5.450   6.367 -0.2634 -0.0183 -0.5142
  158OSM   C15S17698   6.833   5.252   6.448  0.7251  0.4315  0.1327
  158OSM   H15S17699   6.902   5.167   6.427  0.4015 -0.3303  1.9871
  158OSM   H15T17700   6.728   5.216   6.443  1.7173 -2.6796 -3.4621
  158OSM   C16S17701   6.877   5.286   6.590  0.0594 -0.3459  0.2554
  158OSM   H16S17702   6.816   5.362   6.643  0.2448 -0.8463  1.2078
  158OSM   H16T17703   6.979   5.329   6.583 -0.1494 -0.0282 -0.9657
  158OSM   C17S17704   6.873   5.161   6.686 -0.0006 -0.3041  0.3026
  158OSM   H17S17705   6.916   5.191   6.784 -1.1223  0.0959  0.6828
  158OSM   H17T17706   6.934   5.075   6.649  0.7049  0.2992  0.0407
  158OSM   C18S17707   6.732   5.111   6.713 -0.1159  0.1804 -0.3365
  158OSM   H18S17708   6.743   5.033   6.792  0.0900 -2.5835 -2.9041
  158OSM   H18T17709   6.694   5.060   6.621 -2.5216  0.8573  0.2002
  158OSM   H18U17710   6.659   5.191   6.737  1.8987  1.9919 -0.0497
  158OSM    C1F17711   6.938   4.911   5.331 -0.0157 -0.4581 -0.5243
  158OSM     OF17712   7.025   4.825   5.306  0.5006 -0.1573 -0.6108
  158OSM    C2F17713   6.828   4.867   5.421  0.4376 -0.3054 -0.6043
  158OSM    H2F17714   6.756   4.792   5.382 -0.0296 -0.3909  0.3783
  158OSM    H2G17715   6.765   4.957   5.439  0.9627 -0.2280  1.0605
  158OSM    C3F17716   6.892   4.792   5.545  0.7223  0.4067 -0.2684
  158OSM    H3F17717   6.970   4.725   5.503  2.1889  2.4201 -0.8589
  158OSM    H3G17718   6.814   4.726   5.589  1.8125 -1.0678 -0.4511
  158OSM    C4F17719   6.962   4.888   5.652  0.2342  0.1613  0.2723
  158OSM    H4F17720   7.034   4.954   5.599 -1.2279 -0.8219 -3.2364
  158OSM    H4G17721   7.027   4.834   5.724 -1.8196  0.4361  2.4440
  158OSM    C5F17722   6.867   4.978   5.729 -0.3565 -0.3422 -0.4189
  158OSM    H5F17723   6.807   5.039   5.658  0.3022  0.1587 -0.5534
  158OSM    H5G17724   6.931   5.040   5.794 -0.4335 -0.6468 -0.0516
  158OSM    C6F17725   6.783   4.898   5.827 -0.4235  0.3466  0.3535
  158OSM    H6F17726   6.819   4.793   5.832 -0.5476  0.3232  0.7371
  158OSM    H6G17727   6.678   4.894   5.792 -0.0996  0.2078 -0.6403
  158OSM    C7F17728   6.781   4.956   5.967  0.1162 -0.2147  0.3502
  158OSM    H7F17729   6.744   5.061   5.970  0.2973 -0.1703  2.1735
  158OSM    H7G17730   6.885   4.964   6.006  0.0261 -0.9252  0.7475
  158OSM    C8F17731   6.690   4.884   6.070  0.4950 -0.0798 -0.2957
  158OSM    H8F17732   6.703   4.773   6.073  0.8824 -0.0314 -0.1465
  158OSM    H8G17733   6.594   4.902   6.018  1.7492 -1.6448 -3.4513
  158OSM    C9F17734   6.685   4.934   6.210 -0.1420  0.2472 -0.7317
  158OSM    H9F17735   6.617   5.018   6.233  2.6067  1.8971  2.3341
  158OSM   C10F17736   6.748   4.875   6.318  0.0032  0.2418 -0.3652
  158OSM   H10F17737   6.704   4.901   6.415  1.7541  0.4580  0.4004
  158OSM   C11F17738   6.840   4.756   6.310 -0.4423 -0.0446  0.9905
  158OSM   H11F17739   6.859   4.735   6.203  0.0038 -0.9222  1.2301
  158OSM   H11G17740   6.780   4.669   6.341 -2.0291  1.1696  1.4746
  158OSM   C12F17741   6.974   4.758   6.385 -0.4301  0.0093  0.3157
  158OSM   H12F17742   7.019   4.666   6.341 -0.8774 -0.1933  0.2655
  158OSM   H12G17743   6.943   4.729   6.488 -2.3279 -0.0627 -0.2231
  158OSM   C13F17744   7.059   4.885   6.367 -0.8678  0.4380 -0.0468
  158OSM   H13F17745   6.997   4.966   6.412 -0.0827  0.3284  1.3060
  158OSM   H13G17746   7.067   4.904   6.258  0.7502 -3.4360 -0.7592
  158OSM   C14F17747   7.188   4.863   6.447  0.1889 -0.3892  0.0710
  158OSM   H14F17748   7.271   4.918   6.398 -1.1020  0.8595 -0.7962
  158OSM   H14G17749   7.200   4.752   6.443 -1.4872 -0.5663 -0.8465
  158OSM   C15F17750   7.182   4.913   6.591  0.8670 -0.3879 -1.1971
  158OSM   H15F17751   7.089   4.863   6.625 -0.1346  0.4449 -2.5897
  158OSM   H15G17752   7.153   5.020   6.594 -3.2978 -1.3809 -0.7370
  158OSM   C16F17753   7.308   4.875   6.672  0.0443  0.0502  0.2551
  158OSM   H16F17754   7.399   4.908   6.618  1.0590 -0.0747  1.8285
  158OSM   H16G17755   7.303   4.764   6.661  1.1873 -0.2935  2.5555
  158OSM   C17F17756   7.322   4.936   6.810  0.6284  0.3831 -0.2166
  158OSM   H17F17757   7.326   5.047   6.802  0.0320  0.4296  0.0547
  158OSM   H17G17758   7.424   4.917   6.850  1.1869  0.7300 -1.4202
  158OSM   C18F17759   7.205   4.914   6.905  0.5319  0.5373 -0.1558
  158OSM   H18F17760   7.230   4.934   7.012 -0.6563 -0.6327  0.3744
  158OSM   H18G17761   7.162   4.811   6.903 -2.8061  1.8001 -0.2069
  158OSM   H18H17762   7.118   4.970   6.865 -1.0386 -1.1636  0.7062
  159OSM      N17763   0.577   6.815   4.590 -1.2122  0.0548 -0.2329
  159OSM    C1517764   0.598   6.702   4.688 -0.3697  0.0556  0.4283
  159OSM   H15A17765   0.601   6.726   4.793  0.3825 -0.6469  0.5762
  159OSM   H15B17766   0.693   6.656   4.665 -0.0974  0.8370 -0.0467
  159OSM   H15C17767   0.528   6.627   4.654  0.1818 -0.5354  0.5756
  159OSM    C1417768   0.436   6.838   4.557 -0.4835  0.1792  0.3328
  159OSM   H14A17769   0.418   6.924   4.494 -2.4457 -1.1433 -1.0367
  159OSM   H14B17770   0.376   6.870   4.641 -0.3042  1.0154  0.1510
  159OSM   H14C17771   0.385   6.755   4.510  1.2875  0.5943 -2.5277
  159OSM    C1317772   0.624   6.940   4.663  0.5349 -0.1778  0.0964
  159OSM   H13A17773   0.567   6.956   4.753  0.3241  0.2257 -0.1067
  159OSM   H13B17774   0.617   7.022   4.594  2.2838 -1.2426 -1.4595
  159OSM   H13C17775   0.728   6.942   4.695  0.3967  3.5072  0.7349
  159OSM    C1217776   0.655   6.797   4.460  0.7460 -0.3064  0.6081
  159OSM   H12A17777   0.652   6.888   4.403  1.8609 -1.7362 -1.8802
  159OSM   H12B17778   0.610   6.726   4.393  1.7142  0.7975 -1.3091
  159OSM    C1117779   0.800   6.757   4.473 -0.7535  0.0904  0.2800
  159OSM   H11A17780   0.841   6.778   4.372  2.7471  1.5523  1.8391
  159OSM   H11B17781   0.804   6.647   4.481  2.7757  0.2195  2.0440
  159OSM      P17782   1.022   6.785   4.615  0.0396  0.1222  0.1299
  159OSM    O1317783   1.027   6.640   4.633  0.3081 -0.2227  0.1298
  159OSM    O1417784   1.120   6.850   4.532 -0.0099  0.1235  0.3386
  159OSM    O1117785   1.028   6.857   4.761 -0.2350  0.5375 -0.2967
  159OSM    O1217786   0.874   6.820   4.574  0.2205  0.0871  0.6073
  159OSM    C1S17787   0.923   6.928   4.819 -0.0672 -0.3143  0.4096
  159OSM    H1S17788   0.837   6.858   4.827  1.0837 -1.5740  2.4670
  159OSM    H1T17789   0.892   7.017   4.760  1.2137  0.5714  1.0257
  159OSM     NF17790   0.823   7.065   4.998  0.3246  0.1176 -0.3280
  159OSM    HNF17791   0.808   7.163   5.002 -1.5385 -0.1316 -0.4755
  159OSM    C2S17792   0.946   6.996   4.960 -0.3310  0.3373  0.6199
  159OSM    H2S17793   0.974   6.909   5.023  0.9549 -0.1798 -0.6080
  159OSM    C3S17794   1.071   7.091   4.957 -0.0371  0.6284  0.2926
  159OSM    H3S17795   1.049   7.172   4.884  0.3454 -0.3607 -0.9611
  159OSM     O317796   1.190   7.027   4.903 -0.3696 -0.0062  0.5229
  159OSM    HO317797   1.154   6.954   4.853 -0.2140 -0.5737  1.2092
  159OSM    C4S17798   1.098   7.163   5.096 -0.3943  0.0830  0.4004
  159OSM    H4S17799   1.055   7.264   5.094 -1.6670 -0.4452 -0.0456
  159OSM    C5S17800   1.153   7.099   5.202 -0.3552 -0.5871 -0.9823
  159OSM    H5S17801   1.182   6.995   5.183  0.2470 -0.6532  0.2308
  159OSM    C6S17802   1.197   7.161   5.334 -0.1842 -0.0664  0.4347
  159OSM    H6S17803   1.306   7.139   5.342 -0.1785 -0.9169 -1.4636
  159OSM    H6T17804   1.140   7.108   5.413 -1.4023  1.0564  0.3357
  159OSM    C7S17805   1.172   7.310   5.355  0.1778  0.0029 -0.3665
  159OSM    H7S17806   1.204   7.367   5.266  0.6107 -0.4226 -0.4863
  159OSM    H7T17807   1.233   7.334   5.444 -2.2092  1.0880  1.0784
  159OSM    C8S17808   1.027   7.336   5.386  0.3093  0.4566  0.1676
  159OSM    H8S17809   1.001   7.280   5.479 -1.5362 -1.2452 -1.2808
  159OSM    H8T17810   0.958   7.319   5.301  1.5324  2.7682 -1.4076
  159OSM    C9S17811   1.008   7.492   5.397 -0.0931 -0.0084 -0.2206
  159OSM    H9S17812   1.038   7.544   5.304 -3.1114 -0.6845 -1.6996
  159OSM    H9T17813   1.080   7.523   5.475  0.5932 -0.8630 -0.4968
  159OSM   C10S17814   0.865   7.529   5.431  0.0845 -0.8092 -0.4165
  159OSM   H10S17815   0.789   7.522   5.350 -0.8021 -0.5706  0.3818
  159OSM   H10T17816   0.878   7.635   5.459 -0.3651 -0.6116 -0.9363
  159OSM   C11S17817   0.799   7.456   5.543 -0.5573  0.4140 -0.5058
  159OSM   H11S17818   0.767   7.353   5.517 -0.4880 -0.3889  2.2428
  159OSM   H11T17819   0.697   7.499   5.553  0.0753  1.4521  2.8110
  159OSM   C12S17820   0.863   7.463   5.678 -0.1527  0.2852 -0.3014
  159OSM   H12S17821   0.892   7.567   5.701 -1.1168  0.4584  0.1878
  159OSM   H12T17822   0.947   7.391   5.686  1.8501  2.6643  1.4309
  159OSM   C13S17823   0.760   7.423   5.789  0.0283 -0.6901  0.5552
  159OSM   H13S17824   0.718   7.324   5.761 -1.6586  0.3020 -0.6293
  159OSM   H13T17825   0.678   7.498   5.788  0.0103 -0.6287  2.3174
  159OSM   C14S17826   0.819   7.428   5.933  0.0775 -0.8295  0.1537
  159OSM   H14S17827   0.824   7.534   5.966 -2.8685 -0.4296 -0.3933
  159OSM   H14T17828   0.919   7.379   5.941 -0.1132 -1.1071  0.8848
  159OSM   C15S17829   0.726   7.363   6.036 -0.9652 -0.2726  0.6943
  159OSM   H15S17830   0.699   7.259   6.006  1.5356 -1.2557  1.5571
  159OSM   H15T17831   0.640   7.433   6.042  1.8542  3.5252  0.3086
  159OSM   C16S17832   0.777   7.346   6.173 -0.7576 -0.5652 -0.3604
  159OSM   H16S17833   0.804   7.447   6.210  0.3908 -1.4193  1.2522
  159OSM   H16T17834   0.866   7.279   6.169  2.0755  2.6412  2.4632
  159OSM   C17S17835   0.683   7.274   6.276  1.6959 -0.4777 -0.4865
  159OSM   H17S17836   0.651   7.179   6.228  0.5691  1.0476 -2.9823
  159OSM   H17T17837   0.593   7.337   6.293  0.3866 -2.6923  1.3057
  159OSM   C18S17838   0.758   7.246   6.405  0.1062  0.4579  0.0651
  159OSM   H18S17839   0.699   7.186   6.479 -1.9913  1.7685 -0.4494
  159OSM   H18T17840   0.789   7.340   6.456  1.3738  0.6524 -1.0326
  159OSM   H18U17841   0.846   7.183   6.379 -0.1605  0.5223 -1.0403
  159OSM    C1F17842   0.725   6.996   5.042 -0.0853 -0.6996 -0.7150
  159OSM     OF17843   0.727   6.875   5.046  0.9820  0.0433 -0.1999
  159OSM    C2F17844   0.604   7.075   5.090  1.2303  0.0697 -0.6946
  159OSM    H2F17845   0.521   7.043   5.023  1.0078 -0.5379 -0.1299
  159OSM    H2G17846   0.614   7.184   5.072 -1.3189  0.1851 -1.8003
  159OSM    C3F17847   0.558   7.054   5.233 -0.3661  0.8833  0.0896
  159OSM    H3F17848   0.532   6.948   5.252  2.9411  0.0493  0.4960
  159OSM    H3G17849   0.467   7.118   5.244 -0.9754  0.1350 -0.4559
  159OSM    C4F17850   0.651   7.112   5.344 -0.1449  0.0647 -0.4813
  159OSM    H4F17851   0.583   7.145   5.425  2.2334  1.3228  1.1400
  159OSM    H4G17852   0.707   7.195   5.296  0.0129  0.1373 -0.1768
  159OSM    C5F17853   0.740   6.997   5.416  0.2063 -0.7309 -0.1835
  159OSM    H5F17854   0.816   6.976   5.337 -0.7315 -2.1970 -0.7451
  159OSM    H5G17855   0.670   6.912   5.434  0.5877 -1.1206 -0.5194
  159OSM    C6F17856   0.807   7.043   5.543 -0.6490  0.5039  0.3499
  159OSM    H6F17857   0.728   7.103   5.595 -0.1592  1.4118  0.0652
  159OSM    H6G17858   0.895   7.111   5.542  0.1115 -0.4383  1.1643
  159OSM    C7F17859   0.833   6.927   5.638  0.5543 -0.0659  0.1349
  159OSM    H7F17860   0.914   6.862   5.598 -2.2058 -3.3324 -0.5579
  159OSM    H7G17861   0.738   6.870   5.639  0.1848  0.4724 -1.5760
  159OSM    C8F17862   0.860   6.978   5.780  0.2886 -0.4520  0.0231
  159OSM    H8F17863   0.766   7.027   5.812  0.0957 -0.5885 -0.3263
  159OSM    H8G17864   0.937   7.057   5.768 -0.3024  0.3693  1.4435
  159OSM    C9F17865   0.901   6.862   5.870  0.2290  0.0437  0.0094
  159OSM    H9F17866   0.988   6.804   5.835 -0.8088 -0.2152 -2.3917
  159OSM   C10F17867   0.842   6.826   5.987 -0.6321 -0.7053  0.7828
  159OSM   H10F17868   0.895   6.744   6.038  0.3056 -0.1792  0.6647
  159OSM   C11F17869   0.732   6.907   6.055  0.3982  0.2338  0.7215
  159OSM   H11F17870   0.631   6.880   6.017  1.6520 -1.1447 -1.9542
  159OSM   H11G17871   0.735   7.017   6.043  0.8419  0.2814  1.2191
  159OSM   C12F17872   0.731   6.874   6.211 -0.8367 -0.0769  0.0841
  159OSM   H12F17873   0.666   6.952   6.256 -3.3880 -2.2886  0.4791
  159OSM   H12G17874   0.832   6.897   6.250 -0.6596  0.0963 -0.4595
  159OSM   C13F17875   0.671   6.740   6.253 -0.2328  0.0568  0.2138
  159OSM   H13F17876   0.743   6.661   6.222 -0.4288  0.6590 -1.8842
  159OSM   H13G17877   0.585   6.721   6.186 -0.0553 -0.3856  0.1057
  159OSM   C14F17878   0.639   6.735   6.402  0.3913  0.3080 -0.1540
  159OSM   H14F17879   0.562   6.813   6.421  0.5029  0.5101 -0.5263
  159OSM   H14G17880   0.734   6.757   6.457  0.4808  0.0781 -0.2176
  159OSM   C15F17881   0.586   6.603   6.457 -0.2634  0.1682 -0.1228
  159OSM   H15F17882   0.657   6.523   6.427  0.8523  0.7386  0.9341
  159OSM   H15G17883   0.484   6.585   6.416  0.0461  0.9729 -1.2821
  159OSM   C16F17884   0.580   6.609   6.613  0.6908 -0.3689  0.4455
  159OSM   H16F17885   0.687   6.606   6.644  1.6592  0.5418 -2.5162
  159OSM   H16G17886   0.545   6.508   6.643  0.3599 -0.2372  0.5062
  159OSM   C17F17887   0.482   6.716   6.666 -0.1174 -0.1015  0.6911
  159OSM   H17F17888   0.379   6.693   6.632 -0.2016  0.7671  0.3372
  159OSM   H17G17889   0.512   6.814   6.623  0.2982  1.0083  3.3183
  159OSM   C18F17890   0.490   6.730   6.822 -0.2272 -0.3002 -0.5273
  159OSM   H18F17891   0.441   6.819   6.865 -1.0163 -0.7032 -0.5661
  159OSM   H18G17892   0.595   6.715   6.856 -0.2770 -0.8304 -0.5942
  159OSM   H18H17893   0.432   6.643   6.861  0.0354  0.6868  2.2689
  160OSM      N17894   6.113   0.708   4.349 -0.1907 -0.1314  0.1330
  160OSM    C1517895   6.187   0.589   4.308 -0.4658  1.0257 -0.0314
  160OSM   H15A17896   6.122   0.503   4.313  0.7829  0.0481 -0.3560
  160OSM   H15B17897   6.269   0.568   4.375  1.1818  4.7355 -0.6134
  160OSM   H15C17898   6.243   0.597   4.216  1.5168  0.8832  1.0962
  160OSM    C1417899   6.200   0.830   4.332 -0.1550 -0.3226 -0.4201
  160OSM   H14A17900   6.157   0.921   4.372 -0.2362  0.4590 -2.1987
  160OSM   H14B17901   6.231   0.852   4.231 -0.4827  2.0489 -0.0649
  160OSM   H14C17902   6.289   0.806   4.389 -2.7996 -4.0171  2.7211
  160OSM    C1317903   5.995   0.708   4.260  0.1898  0.5932 -0.0650
  160OSM   H13A17904   5.938   0.798   4.278  0.3103  0.9627 -1.4091
  160OSM   H13B17905   5.939   0.616   4.267  1.3366 -0.0686  0.6887
  160OSM   H13C17906   6.038   0.710   4.161 -1.1844  1.3658 -0.6801
  160OSM    C1217907   6.066   0.689   4.494 -0.5057 -0.0753  0.3336
  160OSM   H12A17908   6.022   0.779   4.533  3.6120  2.3658 -0.0123
  160OSM   H12B17909   6.157   0.666   4.549  0.0164 -1.6810 -1.1102
  160OSM    C1117910   5.987   0.561   4.517  1.0566 -0.7440 -0.4604
  160OSM   H11A17911   6.002   0.526   4.621 -0.4369 -1.9072 -0.5996
  160OSM   H11B17912   6.021   0.470   4.464  0.7284 -1.0030 -0.2308
  160OSM      P17913   5.741   0.657   4.570  0.2410 -0.4333  0.1040
  160OSM    O1317914   5.782   0.797   4.588  0.0900 -0.0408 -0.0578
  160OSM    O1417915   5.608   0.628   4.515 -0.4153  0.1247  0.0965
  160OSM    O1117916   5.754   0.580   4.711 -0.1985 -0.3751  0.7143
  160OSM    O1217917   5.847   0.583   4.484 -0.1173 -0.1864 -0.4489
  160OSM    C1S17918   5.746   0.665   4.835  0.1251 -0.5545 -0.1944
  160OSM    H1S17919   5.647   0.714   4.843  0.1531 -0.2497 -1.4483
  160OSM    H1T17920   5.819   0.748   4.843 -1.3375  1.2161 -3.4164
  160OSM     NF17921   5.728   0.661   5.075 -0.1953  1.1475 -0.3592
  160OSM    HNF17922   5.802   0.698   5.131 -2.4636  3.4526  1.3195
  160OSM    C2S17923   5.757   0.577   4.960 -0.4558  0.4952 -1.0502
  160OSM    H2S17924   5.671   0.509   4.946 -1.3714  1.6904 -1.4252
  160OSM    C3S17925   5.894   0.503   4.961 -0.1753  0.4935  0.1636
  160OSM    H3S17926   5.965   0.589   4.963  0.1536  0.2381  2.1211
  160OSM     O317927   5.918   0.418   4.847 -0.2590 -0.3257  0.3061
  160OSM    HO317928   5.859   0.463   4.786 -1.4651 -0.8876  1.0069
  160OSM    C4S17929   5.912   0.424   5.085 -0.3931  0.4535 -0.8050
  160OSM    H4S17930   5.920   0.481   5.179 -2.2144 -1.7986  0.8514
  160OSM    C5S17931   5.894   0.287   5.104 -0.6290 -0.8959  0.6079
  160OSM    H5S17932   5.864   0.225   5.019 -1.2945  0.6529 -0.3430
  160OSM    C6S17933   5.908   0.226   5.242 -0.2155 -0.7369 -0.6966
  160OSM    H6S17934   6.010   0.183   5.252  1.0140  1.5115 -2.3589
  160OSM    H6T17935   5.837   0.141   5.251 -2.3867  0.9777 -0.7321
  160OSM    C7S17936   5.872   0.321   5.364 -0.1408 -0.2141  0.8124
  160OSM    H7S17937   5.769   0.361   5.352  0.4114  1.1428  0.2965
  160OSM    H7T17938   5.954   0.396   5.366 -0.8778  0.6302  0.1128
  160OSM    C8S17939   5.877   0.244   5.495 -0.0799 -0.4762 -0.6981
  160OSM    H8S17940   5.968   0.180   5.492  0.6540  0.5534 -0.8668
  160OSM    H8T17941   5.797   0.169   5.514  1.5566 -2.3163 -0.7365
  160OSM    C9S17942   5.883   0.328   5.627  0.9455 -0.5486 -0.4571
  160OSM    H9S17943   5.796   0.396   5.615  1.4273  0.0595 -0.6282
  160OSM    H9T17944   5.978   0.385   5.614  0.6478  0.8330  2.6446
  160OSM   C10S17945   5.889   0.246   5.759  0.2895 -0.1896  0.8871
  160OSM   H10S17946   5.977   0.179   5.766 -0.8377 -1.8507 -0.0864
  160OSM   H10T17947   5.798   0.183   5.754 -0.0405  0.0587  2.7694
  160OSM   C11S17948   5.871   0.339   5.878 -0.2253  0.1305  0.5978
  160OSM   H11S17949   5.785   0.410   5.874  0.5773  1.2789  2.6468
  160OSM   H11T17950   5.959   0.406   5.876  0.6050 -0.8309  2.7113
  160OSM   C12S17951   5.854   0.276   6.023  0.2008  0.0230 -0.5226
  160OSM   H12S17952   5.950   0.227   6.048  0.6520 -0.2087 -2.5449
  160OSM   H12T17953   5.768   0.206   6.008  0.4072 -0.2685 -0.3452
  160OSM   C13S17954   5.834   0.385   6.137 -0.1510  0.2082  0.3347
  160OSM   H13S17955   5.723   0.383   6.145 -0.1737 -0.4150 -0.0303
  160OSM   H13T17956   5.874   0.476   6.087  2.7057 -0.4293  1.3147
  160OSM   C14S17957   5.901   0.357   6.267 -0.3018 -0.1582 -0.6440
  160OSM   H14S17958   6.011   0.338   6.261 -0.2420  0.6555 -3.7530
  160OSM   H14T17959   5.863   0.256   6.293  4.5585 -2.2721 -0.6473
  160OSM   C15S17960   5.877   0.464   6.360 -0.5644 -0.1291  0.2310
  160OSM   H15S17961   5.770   0.457   6.389 -0.5553 -1.2525  0.0642
  160OSM   H15T17962   5.892   0.560   6.307 -2.6159 -1.0108 -2.1812
  160OSM   C16S17963   5.949   0.460   6.495  0.6083  1.0848 -0.0733
  160OSM   H16S17964   6.059   0.449   6.485  0.8410  1.5565  1.7236
  160OSM   H16T17965   5.912   0.374   6.554  1.4470  1.8370  1.6351
  160OSM   C17S17966   5.905   0.583   6.576  0.1861  0.5112 -0.2359
  160OSM   H17S17967   5.795   0.573   6.589 -0.2689  0.9866 -2.9839
  160OSM   H17T17968   5.924   0.680   6.526 -1.7466  1.8862  1.5368
  160OSM   C18S17969   5.960   0.598   6.723  0.2092 -0.0519  0.4998
  160OSM   H18S17970   6.071   0.596   6.715  0.1332  0.8365 -1.2630
  160OSM   H18T17971   5.928   0.507   6.777 -0.9099 -0.5027 -0.8833
  160OSM   H18U17972   5.928   0.689   6.780  1.7112 -0.9036  2.8566
  160OSM    C1F17973   5.604   0.702   5.102 -1.0254 -0.5175 -0.7097
  160OSM     OF17974   5.510   0.661   5.037 -0.3455 -0.0998  0.2516
  160OSM    C2F17975   5.590   0.794   5.218  0.8922 -0.3107 -0.7091
  160OSM    H2F17976   5.664   0.877   5.221 -0.6568  1.1055  1.7993
  160OSM    H2G17977   5.621   0.741   5.311 -0.2220  1.5891  0.8054
  160OSM    C3F17978   5.451   0.856   5.232 -0.4333  0.6741 -0.3258
  160OSM    H3F17979   5.372   0.778   5.234  0.3199 -0.0988 -0.2984
  160OSM    H3G17980   5.437   0.931   5.151  0.2635  0.7949 -0.3368
  160OSM    C4F17981   5.439   0.918   5.368  0.3951  0.3280 -1.2806
  160OSM    H4F17982   5.375   1.008   5.367 -0.7564 -0.2746  2.3161
  160OSM    H4G17983   5.539   0.958   5.392  0.9607 -1.6280 -0.0611
  160OSM    C5F17984   5.382   0.821   5.477 -0.1123  0.5477 -0.0302
  160OSM    H5F17985   5.451   0.735   5.485  0.4355  0.9493 -0.3411
  160OSM    H5G17986   5.283   0.784   5.442 -0.0328 -0.6072  0.9288
  160OSM    C6F17987   5.362   0.879   5.618  0.7219 -0.1634  0.6488
  160OSM    H6F17988   5.318   0.806   5.689  2.1161 -0.5083  1.1901
  160OSM    H6G17989   5.312   0.979   5.616  1.2558  0.1599  2.0160
  160OSM    C7F17990   5.488   0.917   5.698  0.6030  0.0143  0.5786
  160OSM    H7F17991   5.547   0.991   5.640 -0.0420 -0.4375 -0.6809
  160OSM    H7G17992   5.535   0.818   5.714  1.7051  0.0257 -2.1195
  160OSM    C8F17993   5.461   0.982   5.842  0.1259 -0.0913 -0.1707
  160OSM    H8F17994   5.548   0.981   5.912 -0.4159 -0.6357  0.5010
  160OSM    H8G17995   5.388   0.907   5.878  0.9602 -0.5702  0.5659
  160OSM    C9F17996   5.397   1.125   5.832 -0.8828 -0.1622 -0.1011
  160OSM    H9F17997   5.353   1.147   5.733  0.4794  1.5063 -0.3810
  160OSM   C10F17998   5.418   1.231   5.918  0.4133  0.0485  0.2760
  160OSM   H10F17999   5.356   1.318   5.893 -0.1542 -0.6647 -0.8533
  160OSM   C11F18000   5.501   1.249   6.041  0.4248 -0.4379  0.0321
  160OSM   H11F18001   5.555   1.346   6.029 -0.3168 -0.2029 -1.6347
  160OSM   H11G18002   5.588   1.180   6.042  1.5291  0.8981  0.1235
  160OSM   C12F18003   5.437   1.223   6.177  0.2704  0.8777  0.1065
  160OSM   H12F18004   5.521   1.210   6.248  0.9478  1.2841 -0.6106
  160OSM   H12G18005   5.395   1.121   6.185  1.8223  0.0978 -1.2724
  160OSM   C13F18006   5.355   1.326   6.238 -0.6845  0.0972 -0.5493
  160OSM   H13F18007   5.258   1.332   6.182 -0.4877  1.6895 -0.7744
  160OSM   H13G18008   5.392   1.430   6.227 -0.2696  0.2805  2.0315
  160OSM   C14F18009   5.314   1.304   6.385  0.2334  0.5593  0.0588
  160OSM   H14F18010   5.289   1.197   6.405  1.5924  0.2290  0.0966
  160OSM   H14G18011   5.220   1.360   6.403  1.1627  2.0296  0.4788
  160OSM   C15F18012   5.425   1.340   6.485 -0.3653  0.3569  0.4239
  160OSM   H15F18013   5.452   1.445   6.462  0.2441 -0.3460 -2.4671
  160OSM   H15G18014   5.511   1.273   6.465 -0.6197 -0.1892  1.1111
  160OSM   C16F18015   5.392   1.317   6.633  0.5814  0.4842  0.9284
  160OSM   H16F18016   5.349   1.215   6.641 -0.3262  0.8870  1.2781
  160OSM   H16G18017   5.310   1.385   6.664  1.5341  1.8865  0.5048
  160OSM   C17F18018   5.511   1.325   6.727 -0.2157  0.1901 -0.3646
  160OSM   H17F18019   5.551   1.427   6.711  2.4604 -0.6444  0.4407
  160OSM   H17G18020   5.590   1.253   6.698  0.5418  0.8159  0.1222
  160OSM   C18F18021   5.466   1.299   6.870 -0.0742  0.2719 -0.0051
  160OSM   H18F18022   5.423   1.197   6.883  3.1099 -1.0379  1.1209
  160OSM   H18G18023   5.390   1.373   6.903  0.0274 -0.1783  1.2621
  160OSM   H18H18024   5.552   1.311   6.939  0.7576  0.1751 -1.0034
  161OSM      N18025   1.374   0.366   3.912  0.1444  0.2740  0.4006
  161OSM    C1518026   1.317   0.393   3.770 -0.1017 -0.0485 -0.3536
  161OSM   H15A18027   1.228   0.337   3.748 -1.1452  1.3043  0.2877
  161OSM   H15B18028   1.383   0.372   3.688 -1.1529 -0.1177 -1.2001
  161OSM   H15C18029   1.298   0.500   3.776 -1.2334 -0.2309  5.4223
  161OSM    C1418030   1.349   0.224   3.934 -0.1833  0.6982 -0.3555
  161OSM   H14A18031   1.399   0.162   3.861  0.0225 -0.7648  0.9716
  161OSM   H14B18032   1.246   0.194   3.928 -0.0884 -0.0645  1.2631
  161OSM   H14C18033   1.379   0.189   4.032 -0.6889 -3.5056 -1.5037
  161OSM    C1318034   1.513   0.394   3.921 -0.0582 -0.2991  0.6348
  161OSM   H13A18035   1.552   0.367   4.018  2.0847  0.8345  0.1601
  161OSM   H13B18036   1.538   0.498   3.906 -0.6698 -0.1550  0.5957
  161OSM   H13C18037   1.568   0.343   3.844  0.2535 -0.3724  0.9021
  161OSM    C1218038   1.300   0.447   4.021 -0.2720 -0.1351 -0.9038
  161OSM   H12A18039   1.200   0.413   4.039  0.5191 -0.9339  2.6001
  161OSM   H12B18040   1.299   0.553   4.001  0.9646  0.4330  1.6896
  161OSM    C1118041   1.360   0.431   4.161 -0.3452 -0.5818  0.1200
  161OSM   H11A18042   1.466   0.460   4.173 -0.6863  0.4363  0.8611
  161OSM   H11B18043   1.368   0.323   4.184  2.7878 -0.4017  0.2889
  161OSM      P18044   1.299   0.643   4.286 -0.0739 -0.1027 -0.0579
  161OSM    O1318045   1.271   0.726   4.164  0.5555 -0.8573  0.1524
  161OSM    O1418046   1.218   0.673   4.407 -0.4984  1.0470 -0.2730
  161OSM    O1118047   1.453   0.665   4.313 -0.4427  0.7719 -0.3298
  161OSM    O1218048   1.272   0.489   4.247 -0.0291  0.0908  0.2126
  161OSM    C1S18049   1.503   0.590   4.431 -0.1590  0.0898  0.5593
  161OSM    H1S18050   1.503   0.481   4.412 -1.0014  0.2198 -0.2207
  161OSM    H1T18051   1.436   0.600   4.519 -0.9502 -1.9920  0.2449
  161OSM     NF18052   1.671   0.570   4.623  0.3363 -0.4052  0.3852
  161OSM    HNF18053   1.678   0.623   4.707 -1.8328 -1.0779  1.0318
  161OSM    C2S18054   1.640   0.646   4.499  0.9281 -0.4811  0.1463
  161OSM    H2S18055   1.718   0.632   4.421 -0.6696  0.4751 -1.6886
  161OSM    C3S18056   1.617   0.800   4.515 -0.2097 -0.0481  0.2215
  161OSM    H3S18057   1.526   0.821   4.576 -0.7752 -0.1942 -0.5490
  161OSM     O318058   1.591   0.876   4.392  0.0105  0.1998  0.9086
  161OSM    HO318059   1.541   0.815   4.337  0.7139 -0.0183  0.5003
  161OSM    C4S18060   1.738   0.857   4.580 -0.0227  0.4865 -0.0245
  161OSM    H4S18061   1.827   0.850   4.515  0.5051 -0.5215  0.7727
  161OSM    C5S18062   1.747   0.927   4.693 -0.3256  0.6550 -0.2676
  161OSM    H5S18063   1.652   0.951   4.744  0.1949 -1.1486  1.7134
  161OSM    C6S18064   1.868   1.007   4.748  0.8011 -0.7267 -0.0689
  161OSM    H6S18065   1.829   1.097   4.800  2.4572 -0.5529  0.9597
  161OSM    H6T18066   1.931   1.035   4.661  0.0605 -0.0734 -0.4059
  161OSM    C7S18067   1.950   0.921   4.854  0.0319 -0.2014 -0.1586
  161OSM    H7S18068   2.044   0.978   4.862 -1.4273  2.8792 -2.7368
  161OSM    H7T18069   1.986   0.830   4.801 -2.4369 -0.9130 -0.7622
  161OSM    C8S18070   1.882   0.905   4.994 -0.3904 -0.1068  0.2742
  161OSM    H8S18071   1.839   0.802   4.998  1.7045 -1.0497 -0.1036
  161OSM    H8T18072   1.797   0.977   4.998  0.5226  1.0232 -0.3951
  161OSM    C9S18073   1.987   0.930   5.108 -0.0519  0.4489 -0.1135
  161OSM    H9S18074   2.038   1.024   5.080  0.1106  0.2117 -0.6377
  161OSM    H9T18075   2.057   0.843   5.101 -1.7041 -0.8423 -1.6875
  161OSM   C10S18076   1.926   0.941   5.241 -0.5789 -0.5600 -0.3553
  161OSM   H10S18077   1.839   0.873   5.254 -0.6741 -0.5937 -1.1211
  161OSM   H10T18078   1.876   1.039   5.254 -1.9523 -0.6831 -3.8441
  161OSM   C11S18079   2.028   0.920   5.349 -0.8331 -0.1208 -0.3245
  161OSM   H11S18080   2.126   0.969   5.333 -2.4179  2.6107 -2.6641
  161OSM   H11T18081   2.050   0.812   5.365  1.4347  0.2336 -0.7454
  161OSM   C12S18082   1.978   0.989   5.481 -0.1087 -0.1793 -0.0075
  161OSM   H12S18083   1.888   0.944   5.529 -0.7047  0.4583 -0.4998
  161OSM   H12T18084   1.955   1.097   5.467  1.1717 -0.2598 -3.5556
  161OSM   C13S18085   2.075   0.966   5.594  0.3284 -0.6387  0.4065
  161OSM   H13S18086   2.174   1.012   5.570  0.0532 -0.1053  0.2802
  161OSM   H13T18087   2.092   0.856   5.598  0.1798 -0.7431 -1.0853
  161OSM   C14S18088   2.011   1.010   5.729 -0.4486 -0.4595 -0.6825
  161OSM   H14S18089   1.900   1.007   5.722 -0.4512 -0.2100 -0.7626
  161OSM   H14T18090   2.032   1.118   5.743 -1.1856 -0.5762  1.7768
  161OSM   C15S18091   2.058   0.933   5.857  0.9042 -0.6467  0.0226
  161OSM   H15S18092   2.052   0.823   5.842  1.5907 -0.5545 -1.0957
  161OSM   H15T18093   1.990   0.963   5.940 -1.3641 -2.9585 -0.8442
  161OSM   C16S18094   2.200   0.967   5.909 -0.0860 -0.0774 -0.3190
  161OSM   H16S18095   2.201   1.077   5.919  2.4515 -0.2051  1.9389
  161OSM   H16T18096   2.270   0.930   5.830 -1.6732 -3.9205 -0.1727
  161OSM   C17S18097   2.239   0.903   6.046 -0.0379  0.2271 -0.2628
  161OSM   H17S18098   2.347   0.905   6.074 -0.2357 -1.7721  0.8125
  161OSM   H17T18099   2.211   0.796   6.039  0.3375  0.1201 -0.1580
  161OSM   C18S18100   2.162   0.950   6.172 -0.0700  0.6063  0.8424
  161OSM   H18S18101   2.193   0.900   6.266  0.1037  0.8764  0.9297
  161OSM   H18T18102   2.053   0.930   6.164 -0.1984  1.8761 -1.2632
  161OSM   H18U18103   2.182   1.057   6.194 -0.0826  0.9578 -0.7216
  161OSM    C1F18104   1.691   0.439   4.628  0.2520  0.6332 -0.0196
  161OSM     OF18105   1.693   0.375   4.524  0.0471  0.4750 -0.5446
  161OSM    C2F18106   1.710   0.377   4.764  0.7108 -0.0868  0.0776
  161OSM    H2F18107   1.792   0.303   4.754  2.2005  1.4127  0.7081
  161OSM    H2G18108   1.619   0.322   4.797 -1.0543  1.8733 -1.2762
  161OSM    C3F18109   1.745   0.477   4.877 -0.1287  0.1326 -0.3885
  161OSM    H3F18110   1.658   0.547   4.881 -0.5284 -0.3198 -0.9591
  161OSM    H3G18111   1.839   0.534   4.861 -0.1037  0.8532  1.9194
  161OSM    C4F18112   1.766   0.417   5.022 -0.0333 -0.1141  0.6555
  161OSM    H4F18113   1.842   0.337   5.013  0.1353  0.1141 -0.0088
  161OSM    H4G18114   1.676   0.370   5.065 -0.0543 -0.0893  0.6386
  161OSM    C5F18115   1.815   0.529   5.108 -0.3160 -0.5078  0.2255
  161OSM    H5F18116   1.733   0.603   5.116  0.3360  0.4769 -1.6311
  161OSM    H5G18117   1.890   0.591   5.055 -2.3947  1.1100 -1.0032
  161OSM    C6F18118   1.867   0.482   5.242  0.4772  0.0367 -0.5411
  161OSM    H6F18119   1.923   0.559   5.300  3.1313 -1.3527 -1.0788
  161OSM    H6G18120   1.936   0.396   5.226  2.6256  1.4738  0.4259
  161OSM    C7F18121   1.763   0.435   5.334 -0.3713  0.1925 -0.3910
  161OSM    H7F18122   1.800   0.350   5.396  0.2366 -2.0689 -3.6191
  161OSM    H7G18123   1.670   0.402   5.284  0.4109 -2.0419 -0.5175
  161OSM    C8F18124   1.728   0.539   5.443  0.1318 -0.3392  0.4960
  161OSM    H8F18125   1.646   0.515   5.514  0.6325  1.2674  1.6613
  161OSM    H8G18126   1.707   0.625   5.377  0.0529 -1.8268 -1.5016
  161OSM    C9F18127   1.849   0.573   5.533 -0.2063  0.7572  0.1057
  161OSM    H9F18128   1.920   0.641   5.483 -0.9052  1.1663 -0.3600
  161OSM   C10F18129   1.902   0.527   5.649 -0.3522  0.1668 -0.2575
  161OSM   H10F18130   1.987   0.582   5.694  0.0284 -0.6488  0.0392
  161OSM   C11F18131   1.831   0.428   5.740 -0.8294 -0.0460  1.0695
  161OSM   H11F18132   1.896   0.341   5.765 -0.5049 -0.0363  0.3007
  161OSM   H11G18133   1.742   0.382   5.693 -0.8748  0.0402  1.0705
  161OSM   C12F18134   1.803   0.486   5.877  0.3697  0.5219 -0.3040
  161OSM   H12F18135   1.894   0.543   5.906  2.4548 -1.8735 -1.7246
  161OSM   H12G18136   1.799   0.402   5.948 -0.8442  0.8321  0.0136
  161OSM   C13F18137   1.678   0.576   5.880 -0.8485 -0.0564 -0.5199
  161OSM   H13F18138   1.580   0.531   5.856 -0.6887 -0.4438 -0.4559
  161OSM   H13G18139   1.677   0.656   5.803 -1.7356 -0.1311 -0.5903
  161OSM   C14F18140   1.663   0.649   6.019 -0.0774  0.4558  0.2465
  161OSM   H14F18141   1.584   0.726   6.024 -0.5501 -0.0595  0.8947
  161OSM   H14G18142   1.756   0.709   6.028  1.3311 -1.8891  2.7636
  161OSM   C15F18143   1.641   0.551   6.138  0.1142 -0.6961 -0.1114
  161OSM   H15F18144   1.717   0.471   6.138 -0.7034 -1.5401 -1.7730
  161OSM   H15G18145   1.554   0.486   6.114  0.4831 -0.8175 -1.1604
  161OSM   C16F18146   1.618   0.623   6.269 -0.2413 -0.0694 -0.1272
  161OSM   H16F18147   1.520   0.675   6.261  0.0659  0.5310 -0.0165
  161OSM   H16G18148   1.709   0.685   6.284 -1.1257  0.7274  2.5459
  161OSM   C17F18149   1.632   0.532   6.396  0.4175 -0.3737 -0.2968
  161OSM   H17F18150   1.588   0.595   6.476  2.1174 -1.5592  1.6645
  161OSM   H17G18151   1.740   0.511   6.411  0.0693 -2.6679 -0.6561
  161OSM   C18F18152   1.558   0.396   6.392 -0.2821 -0.1244 -0.2861
  161OSM   H18F18153   1.575   0.346   6.295  3.4350  0.8020 -0.2517
  161OSM   H18G18154   1.450   0.420   6.405 -0.9191 -1.6392 -2.3693
  161OSM   H18H18155   1.586   0.329   6.476 -2.3144  1.8569  2.1548
  162OSM      N18156   1.922   6.209   4.249 -0.1369  0.0081  0.4115
  162OSM    C1518157   2.069   6.192   4.268 -0.2174  0.8291 -0.0485
  162OSM   H15A18158   2.125   6.231   4.184  0.3372 -2.0301 -1.1123
  162OSM   H15B18159   2.101   6.089   4.278 -1.6376  0.6136  4.4674
  162OSM   H15C18160   2.109   6.233   4.360  1.9668  0.9317 -0.9843
  162OSM    C1418161   1.876   6.136   4.131  0.1130 -0.0698 -0.2919
  162OSM   H14A18162   1.769   6.128   4.119  0.2985  0.2604 -2.7647
  162OSM   H14B18163   1.924   6.040   4.134  0.7674  0.2351 -0.7637
  162OSM   H14C18164   1.909   6.175   4.035  1.9348 -0.4345  0.1513
  162OSM    C1318165   1.848   6.153   4.368 -0.0986 -0.3352  0.1322
  162OSM   H13A18166   1.743   6.178   4.366 -0.2004 -0.7904 -1.1611
  162OSM   H13B18167   1.878   6.199   4.461 -3.4416  3.7421 -0.4935
  162OSM   H13C18168   1.855   6.046   4.357 -1.9018 -0.4618  0.0160
  162OSM    C1218169   1.885   6.353   4.237 -0.1719 -0.1931  0.1484
  162OSM   H12A18170   1.789   6.375   4.193  1.4989  2.7003 -2.4814
  162OSM   H12B18171   1.945   6.402   4.162 -0.3628  0.5953  0.4898
  162OSM    C1118172   1.893   6.444   4.364 -0.2547  0.4046  0.4901
  162OSM   H11A18173   1.825   6.413   4.446  0.1925 -0.0899  0.6869
  162OSM   H11B18174   1.854   6.537   4.319  1.6409  1.6962  1.3593
  162OSM      P18175   2.078   6.598   4.440  0.3194 -0.2650 -0.3928
  162OSM    O1318176   2.185   6.581   4.537 -0.4669 -0.5255  0.4801
  162OSM    O1418177   2.110   6.663   4.312  0.1190  0.5871 -1.1600
  162OSM    O1118178   1.962   6.681   4.510 -0.2410  0.5231  0.0326
  162OSM    O1218179   2.019   6.455   4.418 -0.0441  0.3752  0.4466
  162OSM    C1S18180   1.893   6.632   4.627  0.0700  0.6915 -0.4964
  162OSM    H1S18181   1.889   6.521   4.629  0.1854  0.6928  0.3437
  162OSM    H1T18182   1.786   6.662   4.622  0.3050  1.5861 -0.4118
  162OSM     NF18183   1.870   6.611   4.868 -0.4180 -0.1563 -0.7761
  162OSM    HNF18184   1.804   6.665   4.920  0.6719 -0.2298  0.7518
  162OSM    C2S18185   1.949   6.679   4.762  0.2798  0.2090  0.6552
  162OSM    H2S18186   2.057   6.656   4.773  0.0316 -1.4405 -0.1055
  162OSM    C3S18187   1.940   6.836   4.771  0.7721  0.3837  0.9458
  162OSM    H3S18188   1.834   6.870   4.764  0.5667 -0.3421  0.3795
  162OSM     O318189   2.012   6.902   4.666 -0.1602  0.1656  0.1127
  162OSM    HO318190   2.037   6.827   4.612  0.2472  0.4318 -0.0689
  162OSM    C4S18191   1.995   6.886   4.900 -0.3987  0.2073  0.1148
  162OSM    H4S18192   1.916   6.886   4.977  0.1201  1.4046  0.6719
  162OSM    C5S18193   2.115   6.936   4.942 -0.1830 -0.1405  0.2925
  162OSM    H5S18194   2.202   6.936   4.875 -0.1388 -0.8874  0.3460
  162OSM    C6S18195   2.142   6.965   5.088 -0.2028 -0.2125  0.2796
  162OSM    H6S18196   2.165   7.073   5.100  0.2269 -0.2491 -0.2126
  162OSM    H6T18197   2.240   6.924   5.119  0.6091 -0.3575 -2.2670
  162OSM    C7S18198   2.041   6.928   5.189 -0.1036 -0.1505  0.3287
  162OSM    H7S18199   2.008   6.822   5.176  1.4296 -0.9234  2.2649
  162OSM    H7T18200   1.946   6.984   5.175 -0.7806 -1.4746 -0.5382
  162OSM    C8S18201   2.097   6.936   5.329 -0.1812  0.0016  0.4132
  162OSM    H8S18202   2.152   7.032   5.334 -1.1360  0.5277  1.2385
  162OSM    H8T18203   2.173   6.855   5.338 -0.8157 -0.8965 -1.6428
  162OSM    C9S18204   1.993   6.945   5.441  0.2583  0.1832 -0.3044
  162OSM    H9S18205   1.934   6.851   5.428 -1.1520  0.9285  0.4466
  162OSM    H9T18206   1.938   7.042   5.441  1.3212  0.8401  1.8518
  162OSM   C10S18207   2.050   6.931   5.584  0.4997  0.0537  0.1011
  162OSM   H10S18208   2.102   6.832   5.586 -0.5980 -0.6461 -2.5453
  162OSM   H10T18209   1.970   6.943   5.660  2.7637  1.7640  2.3951
  162OSM   C11S18210   2.170   7.023   5.612 -0.0495  0.0971 -0.1019
  162OSM   H11S18211   2.148   7.133   5.613  0.8060  0.2712  0.9736
  162OSM   H11T18212   2.242   7.009   5.529  0.5495 -2.3845  0.7709
  162OSM   C12S18213   2.260   6.981   5.729 -0.2571  0.1070  0.2819
  162OSM   H12S18214   2.360   6.998   5.684 -0.8513  2.0437 -0.4453
  162OSM   H12T18215   2.240   6.874   5.751 -0.4144  0.4408  1.8654
  162OSM   C13S18216   2.228   7.069   5.858  0.1456  0.5744  0.0426
  162OSM   H13S18217   2.119   7.052   5.864  0.1780  0.4825  0.3942
  162OSM   H13T18218   2.239   7.179   5.848 -2.6274  0.8689 -0.3808
  162OSM   C14S18219   2.296   7.015   5.986 -0.5419 -0.5565 -0.4033
  162OSM   H14S18220   2.385   7.081   5.999 -1.6798  0.5434  2.9820
  162OSM   H14T18221   2.314   6.906   5.978 -0.7428 -0.5042 -1.9087
  162OSM   C15S18222   2.206   7.051   6.107  0.0741  0.4343 -0.2379
  162OSM   H15S18223   2.270   7.042   6.197  1.7469 -0.7153 -1.4883
  162OSM   H15T18224   2.134   6.966   6.107  0.4098  0.1096  1.5032
  162OSM   C16S18225   2.143   7.188   6.112  0.2729  0.8199 -0.0100
  162OSM   H16S18226   2.066   7.209   6.035  0.9634  1.4676 -0.5367
  162OSM   H16T18227   2.226   7.255   6.081  2.2839 -2.0391 -1.2051
  162OSM   C17S18228   2.092   7.222   6.255  0.0863  0.2280 -0.2986
  162OSM   H17S18229   2.171   7.211   6.331 -1.4048 -2.5764  0.9687
  162OSM   H17T18230   2.011   7.148   6.272 -0.4528  1.0990  1.1007
  162OSM   C18S18231   2.036   7.365   6.256 -0.0475 -0.1138 -0.4485
  162OSM   H18S18232   2.117   7.441   6.253  0.1349 -0.1822  1.2788
  162OSM   H18T18233   1.967   7.384   6.342  0.1057  0.3973 -0.4364
  162OSM   H18U18234   1.968   7.368   6.169 -0.3763 -2.0477 -0.3047
  162OSM    C1F18235   1.892   6.479   4.900  0.0152  0.0632 -0.4139
  162OSM     OF18236   1.981   6.424   4.839  0.1873  0.3627 -0.4116
  162OSM    C2F18237   1.812   6.416   5.005  0.6555  0.0060  0.2709
  162OSM    H2F18238   1.790   6.309   4.986 -1.7054  0.3003  1.0917
  162OSM    H2G18239   1.721   6.476   5.028  1.1625  0.5876  0.8119
  162OSM    C3F18240   1.893   6.401   5.132 -0.2501 -0.2271 -0.7831
  162OSM    H3F18241   1.983   6.339   5.110 -1.5723 -2.1731 -1.0029
  162OSM    H3G18242   1.829   6.351   5.208 -0.0754  0.0580 -0.4440
  162OSM    C4F18243   1.942   6.531   5.196 -0.0587 -0.6695 -0.0985
  162OSM    H4F18244   1.882   6.619   5.163  1.4862 -0.3043 -2.0910
  162OSM    H4G18245   2.037   6.560   5.147 -1.4032  1.5308 -1.5664
  162OSM    C5F18246   1.957   6.528   5.352 -0.5297 -0.7533  0.3171
  162OSM    H5F18247   1.865   6.540   5.413 -2.1626 -1.5295 -1.8661
  162OSM    H5G18248   2.004   6.627   5.368 -2.1293  0.5048 -2.1509
  162OSM    C6F18249   2.052   6.414   5.408  0.5318  0.1455  0.4865
  162OSM    H6F18250   2.156   6.451   5.419  0.8121 -0.8348  1.3821
  162OSM    H6G18251   2.062   6.325   5.342  0.6728 -1.0071  1.9941
  162OSM    C7F18252   2.025   6.359   5.550 -0.7530 -0.0094 -0.0246
  162OSM    H7F18253   1.921   6.322   5.538 -0.0670 -1.2599 -3.1528
  162OSM    H7G18254   2.020   6.451   5.612  1.4360 -1.8440  3.2079
  162OSM    C8F18255   2.138   6.261   5.588  0.4287  0.2433 -0.2087
  162OSM    H8F18256   2.231   6.319   5.606  1.6060 -1.4248 -0.7146
  162OSM    H8G18257   2.144   6.186   5.506  0.9267 -0.2776  0.2955
  162OSM    C9F18258   2.091   6.185   5.712 -0.1929 -0.6303  0.1645
  162OSM    H9F18259   2.008   6.113   5.711  0.2860 -1.3807  3.1270
  162OSM   C10F18260   2.147   6.212   5.835 -0.2411  0.4437  0.0909
  162OSM   H10F18261   2.121   6.155   5.925 -0.7334  0.5333  0.0039
  162OSM   C11F18262   2.264   6.309   5.878 -0.4042  0.0307  0.7906
  162OSM   H11F18263   2.314   6.371   5.800  1.4906  1.4477  2.9639
  162OSM   H11G18264   2.342   6.259   5.940  0.7250  0.5416 -0.1721
  162OSM   C12F18265   2.195   6.421   5.961  0.2547  0.0202 -0.2371
  162OSM   H12F18266   2.274   6.498   5.972 -0.7719  1.2704 -1.2846
  162OSM   H12G18267   2.148   6.375   6.051  2.1333 -1.9179 -0.1670
  162OSM   C13F18268   2.090   6.500   5.880  0.2257  0.6974  0.4356
  162OSM   H13F18269   2.015   6.426   5.844  0.0927  0.8364  0.4263
  162OSM   H13G18270   2.146   6.544   5.795 -0.1506  0.0413 -0.1691
  162OSM   C14F18271   2.024   6.617   5.950  0.1264  0.5615  0.3676
  162OSM   H14F18272   2.110   6.673   5.994  0.6177  1.9604 -2.1075
  162OSM   H14G18273   1.952   6.579   6.025  0.6900  0.4944  0.8879
  162OSM   C15F18274   1.936   6.707   5.857 -0.5082  0.4084 -0.0238
  162OSM   H15F18275   1.843   6.656   5.827 -0.7103  1.6916 -1.7508
  162OSM   H15G18276   1.988   6.743   5.766 -0.0238  0.4005  0.2443
  162OSM   C16F18277   1.890   6.836   5.929  0.2702  0.4321  0.4558
  162OSM   H16F18278   1.857   6.900   5.845 -0.4070 -0.8554 -0.3079
  162OSM   H16G18279   1.981   6.877   5.977  1.1240 -2.1610  1.2744
  162OSM   C17F18280   1.779   6.818   6.038  0.0532  0.1457 -0.1966
  162OSM   H17F18281   1.816   6.761   6.125 -0.8963 -0.4882 -0.2004
  162OSM   H17G18282   1.694   6.759   5.997  0.0868  0.2383 -0.4026
  162OSM   C18F18283   1.714   6.946   6.087 -0.1891 -0.8552 -0.1752
  162OSM   H18F18284   1.794   7.005   6.137  0.1295  0.4135 -2.0610
  162OSM   H18G18285   1.645   6.906   6.164  0.4482 -3.8384 -1.0390
  162OSM   H18H18286   1.649   7.001   6.015 -1.3974 -0.1466  1.4002
  163OSM      N18287   0.712   6.050   4.481  0.4876 -0.3025  0.0405
  163OSM    C1518288   0.597   5.970   4.531  0.0913  0.3815  0.2491
  163OSM   H15A18289   0.562   5.903   4.454  2.3306 -1.2895  0.6148
  163OSM   H15B18290   0.514   6.037   4.548 -0.6782 -0.0392 -1.6176
  163OSM   H15C18291   0.624   5.910   4.617  0.6069 -1.2013 -0.9669
  163OSM    C1418292   0.650   6.140   4.384 -0.0259  0.0894 -0.0154
  163OSM   H14A18293   0.728   6.208   4.353 -0.6734  1.7897  1.8473
  163OSM   H14B18294   0.574   6.194   4.438  1.3766  0.1879  1.9848
  163OSM   H14C18295   0.607   6.082   4.304 -1.3045  1.2686 -0.2270
  163OSM    C1318296   0.763   6.136   4.595 -0.4225 -0.4689 -0.3033
  163OSM   H13A18297   0.699   6.216   4.626  0.1372  0.6147 -1.8225
  163OSM   H13B18298   0.848   6.178   4.545  0.6967 -3.4319 -1.1476
  163OSM   H13C18299   0.789   6.082   4.685 -0.1021  1.5789  0.8971
  163OSM    C1218300   0.820   5.963   4.429  0.2289  0.0034  0.1902
  163OSM   H12A18301   0.774   5.884   4.371 -0.9483  0.6874  0.1557
  163OSM   H12B18302   0.861   5.904   4.509 -0.4930 -1.7271 -0.6767
  163OSM    C1118303   0.934   6.008   4.338  0.4364 -1.0793 -0.0380
  163OSM   H11A18304   0.898   6.041   4.238 -0.3549  0.0434  0.5923
  163OSM   H11B18305   1.007   5.926   4.320 -0.3623 -1.5152 -1.4859
  163OSM      P18306   1.144   6.133   4.426 -0.2797 -0.0025  0.5588
  163OSM    O1318307   1.205   6.085   4.300 -0.7439 -0.4080 -0.1240
  163OSM    O1418308   1.185   6.263   4.488 -0.1613  0.0759 -0.5657
  163OSM    O1118309   1.160   6.013   4.536 -0.7526 -0.4104  0.1269
  163OSM    O1218310   0.992   6.125   4.398  0.8518 -0.1138 -0.6693
  163OSM    C1S18311   1.258   6.017   4.638 -0.0756 -0.5846  0.2992
  163OSM    H1S18312   1.342   6.086   4.617  1.7675 -2.0723  2.3639
  163OSM    H1T18313   1.309   5.919   4.638  2.1051  0.4988  0.2568
  163OSM     NF18314   1.306   6.070   4.871  0.3765 -0.1386 -0.1911
  163OSM    HNF18315   1.316   6.008   4.949 -1.3068  0.0995  0.2418
  163OSM    C2S18316   1.194   6.053   4.780  0.6505  0.6945  0.6497
  163OSM    H2S18317   1.142   6.151   4.769  0.1047  0.3067 -0.3563
  163OSM    C3S18318   1.093   5.950   4.821  0.7674  0.7317  0.4365
  163OSM    H3S18319   1.144   5.853   4.838 -0.6152 -0.2047 -0.5474
  163OSM     O318320   0.983   5.933   4.737  0.2539 -0.4867 -0.2903
  163OSM    HO318321   1.007   5.952   4.646 -0.5805  0.3319 -0.3541
  163OSM    C4S18322   1.048   5.981   4.964 -0.0895 -0.6747 -0.5164
  163OSM    H4S18323   1.093   5.921   5.044 -0.1220  0.6783  0.5412
  163OSM    C5S18324   0.968   6.081   5.002 -0.3217 -0.1659  0.2066
  163OSM    H5S18325   0.924   6.142   4.922 -0.7723 -0.2878  0.3610
  163OSM    C6S18326   0.932   6.129   5.144  0.0831 -0.8099 -0.2214
  163OSM    H6S18327   0.836   6.087   5.180  0.2219 -0.5061  0.5185
  163OSM    H6T18328   0.930   6.240   5.141  2.8039 -0.5831  2.0745
  163OSM    C7S18329   1.035   6.083   5.246 -0.0900 -0.5210  0.1804
  163OSM    H7S18330   1.131   6.122   5.207 -0.6925 -1.8958 -2.9917
  163OSM    H7T18331   1.049   5.973   5.237  0.3149 -0.3535 -1.7330
  163OSM    C8S18332   1.005   6.134   5.388 -0.4159  0.2599  0.2801
  163OSM    H8S18333   0.912   6.084   5.421 -0.0579 -1.2203 -0.8254
  163OSM    H8T18334   0.991   6.244   5.376  1.0709  0.2786 -2.0397
  163OSM    C9S18335   1.126   6.107   5.478 -0.0197  0.1698  0.1149
  163OSM    H9S18336   1.211   6.171   5.445  0.1509  1.0985  2.2284
  163OSM    H9T18337   1.142   5.998   5.463  0.9178  0.5429 -2.0415
  163OSM   C10S18338   1.106   6.140   5.630 -0.3201 -0.0807 -0.3469
  163OSM   H10S18339   1.004   6.105   5.660 -0.2834  1.2573  1.5971
  163OSM   H10T18340   1.102   6.247   5.663  1.9746 -0.3088  0.8298
  163OSM   C11S18341   1.207   6.067   5.717  0.0789 -0.1089  0.1561
  163OSM   H11S18342   1.308   6.084   5.675  0.7760 -1.4125  1.2558
  163OSM   H11T18343   1.192   5.957   5.716  2.0638 -0.4226 -1.7007
  163OSM   C12S18344   1.200   6.108   5.866  0.0161  0.6178  0.1987
  163OSM   H12S18345   1.099   6.089   5.909  0.1589 -1.2485 -0.2438
  163OSM   H12T18346   1.236   6.213   5.876 -0.5128  0.7983  0.2858
  163OSM   C13S18347   1.289   6.019   5.946  0.5184 -0.8407  0.4069
  163OSM   H13S18348   1.392   6.028   5.905 -0.3701  2.0568 -1.4675
  163OSM   H13T18349   1.248   5.916   5.937  1.3373 -1.0350 -1.6208
  163OSM   C14S18350   1.311   6.060   6.086 -0.2630  0.2068  0.6002
  163OSM   H14S18351   1.228   6.082   6.156 -1.1258 -2.2134  0.3913
  163OSM   H14T18352   1.385   6.143   6.081  1.2592 -1.1213  0.1896
  163OSM   C15S18353   1.395   5.946   6.160  0.1900  0.5091 -0.2124
  163OSM   H15S18354   1.480   5.908   6.100  0.0713 -0.2488  0.0868
  163OSM   H15T18355   1.321   5.864   6.176  1.3494 -0.5826 -0.3534
  163OSM   C16S18356   1.447   5.993   6.290 -0.4152 -0.5467 -0.0490
  163OSM   H16S18357   1.523   6.073   6.274 -1.5817  0.5395 -0.3787
  163OSM   H16T18358   1.506   5.912   6.337 -1.6965 -1.7375 -0.4441
  163OSM   C17S18359   1.347   6.026   6.400  0.1724 -0.6343  0.2405
  163OSM   H17S18360   1.280   5.939   6.411 -2.4400  0.8868 -2.1515
  163OSM   H17T18361   1.290   6.104   6.345  0.9282 -0.8973 -0.9586
  163OSM   C18S18362   1.388   6.075   6.538 -0.0359  0.9894 -0.0332
  163OSM   H18S18363   1.483   6.026   6.570 -0.7937  0.7193  1.9949
  163OSM   H18T18364   1.314   6.048   6.616 -0.3567  0.4510 -0.5218
  163OSM   H18U18365   1.414   6.184   6.539  0.1535  0.9862  2.3583
  163OSM    C1F18366   1.404   6.159   4.862 -0.2200 -0.1846  0.0188
  163OSM     OF18367   1.402   6.243   4.776  0.0801 -0.3777 -0.2990
  163OSM    C2F18368   1.517   6.147   4.959  0.4268 -0.2369 -0.6770
  163OSM    H2F18369   1.619   6.172   4.921 -0.4399 -0.3511 -3.3252
  163OSM    H2G18370   1.541   6.044   4.992 -0.5278 -0.2670 -0.0311
  163OSM    C3F18371   1.481   6.217   5.087 -0.3404  0.5829  0.0972
  163OSM    H3F18372   1.379   6.179   5.107  0.3044 -0.7412  1.0364
  163OSM    H3G18373   1.485   6.327   5.072  0.3606  0.3885 -1.2887
  163OSM    C4F18374   1.554   6.175   5.216 -0.3698  0.3715  0.5872
  163OSM    H4F18375   1.661   6.202   5.203 -0.3826  1.3045  2.1425
  163OSM    H4G18376   1.546   6.065   5.229  1.3146  0.3431  1.7823
  163OSM    C5F18377   1.513   6.251   5.341  0.9615  0.7067 -0.1463
  163OSM    H5F18378   1.403   6.253   5.355  0.8931  2.8210 -0.7155
  163OSM    H5G18379   1.539   6.355   5.314  0.0573  0.8552 -0.4802
  163OSM    C6F18380   1.583   6.202   5.467  0.4909  0.1264  0.2618
  163OSM    H6F18381   1.685   6.226   5.428  0.4398  1.5597  0.9586
  163OSM    H6G18382   1.571   6.093   5.486 -1.7079  0.6396  2.0876
  163OSM    C7F18383   1.553   6.289   5.588  0.9435 -0.0396 -0.0656
  163OSM    H7F18384   1.449   6.278   5.627  1.0615 -0.9562  0.0150
  163OSM    H7G18385   1.576   6.397   5.575  0.3819  0.3934  2.1161
  163OSM    C8F18386   1.654   6.267   5.702  0.6928  0.5688 -0.0881
  163OSM    H8F18387   1.619   6.343   5.775 -0.9981 -0.3332  0.1042
  163OSM    H8G18388   1.760   6.275   5.670  1.4955 -0.9218  1.9806
  163OSM    C9F18389   1.627   6.131   5.766 -0.5298 -0.3380  0.3092
  163OSM    H9F18390   1.534   6.082   5.733 -0.1862 -0.4462 -0.5300
  163OSM   C10F18391   1.689   6.076   5.870 -0.4233 -0.0400 -0.4286
  163OSM   H10F18392   1.667   5.975   5.907  0.8803 -0.9168 -1.8721
  163OSM   C11F18393   1.808   6.133   5.947  0.4124 -0.3460 -0.5051
  163OSM   H11F18394   1.849   6.220   5.891 -0.6804  0.0156 -0.7747
  163OSM   H11G18395   1.890   6.059   5.954  2.1812  1.3680 -1.7620
  163OSM   C12F18396   1.778   6.188   6.090  0.0234 -0.0740 -0.3785
  163OSM   H12F18397   1.749   6.105   6.158  0.3186 -0.4404 -0.6929
  163OSM   H12G18398   1.687   6.250   6.076  1.1181  1.6119 -0.2809
  163OSM   C13F18399   1.901   6.271   6.140 -0.1267  0.7252 -0.5328
  163OSM   H13F18400   1.907   6.366   6.083 -0.6889  1.1601  0.1267
  163OSM   H13G18401   1.995   6.213   6.125 -1.8011 -2.4233  0.2960
  163OSM   C14F18402   1.896   6.310   6.289 -0.1153  0.6497  0.2008
  163OSM   H14F18403   1.838   6.236   6.348  0.5831 -1.2006 -1.3387
  163OSM   H14G18404   1.854   6.413   6.294 -1.7180 -0.0435  3.0101
  163OSM   C15F18405   2.044   6.341   6.342  0.3462 -0.3624 -0.8964
  163OSM   H15F18406   2.081   6.413   6.266  1.2774 -0.7784 -0.8431
  163OSM   H15G18407   2.117   6.258   6.349 -0.2553 -0.9992 -1.9647
  163OSM   C16F18408   2.037   6.408   6.481  0.8809 -0.9873 -0.1635
  163OSM   H16F18409   1.954   6.480   6.493  1.6032  0.7072 -3.7783
  163OSM   H16G18410   2.119   6.483   6.473 -0.9544  1.0997 -0.2250
  163OSM   C17F18411   2.041   6.315   6.602 -0.1270  0.1333  0.0701
  163OSM   H17F18412   2.137   6.260   6.605  0.1614  0.6605  1.2364
  163OSM   H17G18413   1.967   6.236   6.577  0.9048 -0.7001 -0.4239
  163OSM   C18F18414   1.995   6.372   6.736  0.0580  0.3053 -0.0123
  163OSM   H18F18415   2.054   6.458   6.772 -0.9288  0.3937  1.4768
  163OSM   H18G18416   1.992   6.296   6.817 -0.6757 -0.3723 -0.6443
  163OSM   H18H18417   1.891   6.409   6.723 -0.5820 -0.8792  1.4102
  164OSM      N18418   5.683   0.158   4.431  0.4272 -0.0269  1.0055
  164OSM    C1518419   5.539   0.159   4.375 -0.0474 -0.1502  0.1612
  164OSM   H15A18420   5.484   0.076   4.419 -0.0258 -1.4569 -2.1236
  164OSM   H15B18421   5.547   0.154   4.268  3.2794 -2.9359  0.3918
  164OSM   H15C18422   5.488   0.247   4.411  1.6194  0.3689  1.3299
  164OSM    C1418423   5.755   0.043   4.359  0.0153  0.0495  0.1433
  164OSM   H14A18424   5.856   0.039   4.397  0.6139  1.9697 -1.1065
  164OSM   H14B18425   5.744   0.043   4.252 -0.2844 -1.2867  0.1553
  164OSM   H14C18426   5.702  -0.048   4.385 -1.1944 -0.2554 -3.0091
  164OSM    C1318427   5.749   0.289   4.399 -0.3749 -0.1036 -0.2526
  164OSM   H13A18428   5.846   0.306   4.444 -1.1772 -0.5894  1.7652
  164OSM   H13B18429   5.683   0.368   4.434  1.0306  0.8631  0.3097
  164OSM   H13C18430   5.749   0.304   4.292 -2.5435  1.3788 -0.1123
  164OSM    C1218431   5.682   0.143   4.586  0.1353  0.4959  0.3349
  164OSM   H12A18432   5.787   0.144   4.614 -0.6646  2.9796  3.9471
  164OSM   H12B18433   5.655   0.042   4.612  1.9913  0.1991  1.3415
  164OSM    C1118434   5.612   0.248   4.674  0.5672  0.0197 -0.3143
  164OSM   H11A18435   5.650   0.349   4.646 -1.0800  0.8722  0.3550
  164OSM   H11B18436   5.644   0.249   4.781  1.8209  1.2837 -0.6539
  164OSM      P18437   5.375   0.129   4.712 -0.2002 -0.0044  0.1687
  164OSM    O1318438   5.239   0.146   4.659 -0.1620  0.1982  1.0694
  164OSM    O1418439   5.430  -0.007   4.684  0.2330 -0.0285  0.2813
  164OSM    O1118440   5.359   0.153   4.874  0.8932  0.1145  0.1752
  164OSM    O1218441   5.468   0.249   4.655 -0.0297 -0.9393 -0.4514
  164OSM    C1S18442   5.308   0.285   4.911  0.8837 -1.0613  0.8326
  164OSM    H1S18443   5.197   0.279   4.910  0.8283 -0.1108  0.8378
  164OSM    H1T18444   5.347   0.366   4.847 -2.4603 -1.2113 -1.6331
  164OSM     NF18445   5.275   0.464   5.100 -0.3506 -0.7933  0.6166
  164OSM    HNF18446   5.341   0.538   5.117 -0.6321 -0.4002  0.0268
  164OSM    C2S18447   5.326   0.332   5.063 -0.7006  0.9905 -0.1309
  164OSM    H2S18448   5.265   0.256   5.116 -1.2400  2.1186  0.9239
  164OSM    C3S18449   5.473   0.298   5.101 -0.4601 -0.5416  0.3604
  164OSM    H3S18450   5.540   0.360   5.038  0.6813 -2.5236 -0.4748
  164OSM     O318451   5.519   0.174   5.064  0.4423  0.0351 -0.0678
  164OSM    HO318452   5.453   0.148   5.000 -1.8774  5.1907 -0.2168
  164OSM    C4S18453   5.486   0.333   5.248 -0.0090 -0.2865  0.2219
  164OSM    H4S18454   5.494   0.441   5.267  0.9365 -0.8699  3.9886
  164OSM    C5S18455   5.487   0.249   5.354 -0.1027 -0.5300  0.6936
  164OSM    H5S18456   5.468   0.141   5.344  0.0391 -0.4762 -0.1767
  164OSM    C6S18457   5.509   0.301   5.493  0.4435  0.7236 -0.4057
  164OSM    H6S18458   5.611   0.263   5.513  0.4686  1.6401  1.3578
  164OSM    H6T18459   5.437   0.243   5.555 -0.7572  2.8558  0.2858
  164OSM    C7S18460   5.494   0.453   5.521 -0.0773  0.1318  0.1073
  164OSM    H7S18461   5.392   0.482   5.490  1.0230  2.1676 -1.9496
  164OSM    H7T18462   5.561   0.513   5.456  1.4509 -0.7158  0.8320
  164OSM    C8S18463   5.517   0.492   5.664  0.5308  0.4662 -0.1684
  164OSM    H8S18464   5.497   0.601   5.668 -1.5772  0.1180  0.6204
  164OSM    H8T18465   5.616   0.458   5.699  0.5945 -1.2377 -1.8232
  164OSM    C9S18466   5.420   0.431   5.758  0.2954 -0.4889 -0.2435
  164OSM    H9S18467   5.414   0.321   5.745  1.6844 -0.7947  1.3131
  164OSM    H9T18468   5.319   0.476   5.751 -0.0464 -1.3533 -1.0570
  164OSM   C10S18469   5.470   0.455   5.899  1.3932 -0.4339  0.7051
  164OSM   H10S18470   5.576   0.431   5.921  2.7205  0.8111 -3.3907
  164OSM   H10T18471   5.400   0.386   5.952 -2.0591  0.8630 -1.7279
  164OSM   C11S18472   5.434   0.600   5.957  0.3509 -0.0196  1.0506
  164OSM   H11S18473   5.327   0.626   5.938  0.6028  0.2760 -0.0517
  164OSM   H11T18474   5.498   0.659   5.889  3.2393 -1.8031  2.0572
  164OSM   C12S18475   5.478   0.620   6.099 -0.2146  0.7739 -0.0437
  164OSM   H12S18476   5.589   0.630   6.106 -0.2190  2.4228 -1.6480
  164OSM   H12T18477   5.438   0.536   6.158  1.1137 -1.4763 -2.1333
  164OSM   C13S18478   5.424   0.752   6.155 -0.3372 -0.1784  0.1650
  164OSM   H13S18479   5.323   0.773   6.115 -0.2817  1.1588  0.6659
  164OSM   H13T18480   5.481   0.837   6.112 -2.6411  1.7274  0.6556
  164OSM   C14S18481   5.420   0.757   6.306 -0.3307 -0.4133 -0.0870
  164OSM   H14S18482   5.337   0.689   6.331 -0.5111 -0.3515 -0.5160
  164OSM   H14T18483   5.390   0.860   6.333  0.8679  0.4421 -1.7994
  164OSM   C15S18484   5.550   0.738   6.382  0.1180 -0.1103  0.8438
  164OSM   H15S18485   5.623   0.821   6.370  1.8863 -1.4621  1.7761
  164OSM   H15T18486   5.602   0.650   6.338  0.2628 -0.1879  1.1611
  164OSM   C16S18487   5.528   0.707   6.528  0.6014  0.1797 -0.1508
  164OSM   H16S18488   5.611   0.640   6.560  0.2843 -0.8704 -1.4624
  164OSM   H16T18489   5.438   0.643   6.539 -1.0071  2.0253 -1.8709
  164OSM   C17S18490   5.530   0.828   6.626  0.3832 -0.2328  0.1599
  164OSM   H17S18491   5.476   0.802   6.720 -2.3156 -0.2744 -1.2862
  164OSM   H17T18492   5.470   0.905   6.573  0.7035 -0.1467 -0.0793
  164OSM   C18S18493   5.668   0.889   6.651 -0.3255 -0.7005 -0.2628
  164OSM   H18S18494   5.660   0.985   6.706  3.1444  0.9171 -2.2030
  164OSM   H18T18495   5.719   0.907   6.554  0.7481  1.0224  0.5839
  164OSM   H18U18496   5.739   0.825   6.708 -0.4685  0.3681  1.1876
  164OSM    C1F18497   5.147   0.504   5.107  0.3775 -0.3090 -0.1137
  164OSM     OF18498   5.058   0.431   5.058  0.2662 -0.6149 -0.0650
  164OSM    C2F18499   5.120   0.626   5.178  0.2078  0.3144  0.4320
  164OSM    H2F18500   5.140   0.715   5.115 -1.5161  0.5902  0.2070
  164OSM    H2G18501   5.182   0.629   5.270  1.3743 -0.1380 -0.3155
  164OSM    C3F18502   4.966   0.635   5.223  0.9932  0.5125 -0.5768
  164OSM    H3F18503   4.929   0.540   5.267 -0.7608  0.9306 -1.0685
  164OSM    H3G18504   4.911   0.657   5.129 -1.9601  0.4630  1.0032
  164OSM    C4F18505   4.931   0.751   5.326  0.4590  0.2442  1.3350
  164OSM    H4F18506   4.822   0.768   5.322  0.3962 -0.3132  0.4304
  164OSM    H4G18507   4.971   0.845   5.282 -2.2614 -0.0033 -2.0910
  164OSM    C5F18508   4.964   0.712   5.469  0.4219 -0.8891 -0.5227
  164OSM    H5F18509   5.072   0.690   5.462  0.8600  1.0572 -0.2296
  164OSM    H5G18510   4.909   0.619   5.498 -0.8058  0.3091  1.2402
  164OSM    C6F18511   4.926   0.815   5.577  0.0512 -0.1978  0.3429
  164OSM    H6F18512   4.820   0.842   5.557  0.2486  0.3564  0.0415
  164OSM    H6G18513   4.973   0.915   5.571  0.9368 -0.2576  3.9031
  164OSM    C7F18514   4.957   0.764   5.713 -0.7823 -0.8513 -0.2016
  164OSM    H7F18515   5.066   0.763   5.733 -0.9916  0.5798  1.2706
  164OSM    H7G18516   4.922   0.659   5.722  3.9171 -2.7473 -1.2616
  164OSM    C8F18517   4.888   0.835   5.831 -0.2790 -0.0095 -0.3586
  164OSM    H8F18518   4.896   0.788   5.932 -2.1164  0.7344  0.1721
  164OSM    H8G18519   4.778   0.823   5.834 -0.1131 -2.1063 -1.1149
  164OSM    C9F18520   4.923   0.985   5.846 -0.3535  0.8752  0.1291
  164OSM    H9F18521   4.883   1.054   5.770 -1.2657  0.7326  0.4709
  164OSM   C10F18522   5.002   1.044   5.940  0.3134 -0.2994  0.3218
  164OSM   H10F18523   5.011   1.153   5.928  1.4726 -0.1728  1.9056
  164OSM   C11F18524   5.085   0.988   6.055 -0.3847 -0.1388 -0.4108
  164OSM   H11F18525   5.190   1.024   6.045 -0.6453  1.1200  0.9438
  164OSM   H11G18526   5.077   0.877   6.067 -2.0350  0.1392  1.7161
  164OSM   C12F18527   5.029   1.039   6.184  0.2288 -0.3812 -0.3603
  164OSM   H12F18528   4.919   1.024   6.193 -0.1534  1.7752 -0.7887
  164OSM   H12G18529   5.051   1.146   6.204 -1.2100 -0.2403  0.6568
  164OSM   C13F18530   5.086   0.958   6.312 -0.0695  0.7871 -0.9202
  164OSM   H13F18531   5.197   0.953   6.318 -0.1132  1.1179  0.9148
  164OSM   H13G18532   5.056   0.851   6.302  2.0384 -0.3458  2.8016
  164OSM   C14F18533   5.029   1.024   6.438  0.2034  0.5380 -0.0475
  164OSM   H14F18534   4.921   1.000   6.445  0.3135  0.1812  0.4470
  164OSM   H14G18535   5.043   1.134   6.435 -0.3454  0.6111  0.0306
  164OSM   C15F18536   5.091   0.967   6.562 -0.4364  0.6157 -0.5527
  164OSM   H15F18537   5.202   0.972   6.553 -0.3746 -1.8609 -2.3203
  164OSM   H15G18538   5.060   0.861   6.568 -0.7863  0.6679 -1.2726
  164OSM   C16F18539   5.055   1.054   6.682  0.5584  0.0847  0.6726
  164OSM   H16F18540   4.945   1.051   6.699  0.5494 -1.1598  0.4994
  164OSM   H16G18541   5.088   1.157   6.657  1.3412 -0.4229 -0.4723
  164OSM   C17F18542   5.137   1.035   6.807  0.0807  0.4149 -0.0668
  164OSM   H17F18543   5.241   1.050   6.772  0.2063 -2.1561 -0.9645
  164OSM   H17G18544   5.123   0.928   6.834 -1.9623  0.6731  0.0879
  164OSM   C18F18545   5.101   1.132   6.920 -0.0408 -0.0122 -0.4874
  164OSM   H18F18546   5.171   1.138   7.006 -0.9424 -2.0518  0.4576
  164OSM   H18G18547   4.995   1.138   6.955  0.0991 -0.0157 -0.0558
  164OSM   H18H18548   5.110   1.236   6.882 -2.5201  0.4304 -0.0655
  165SAPS     N18549   3.826   0.050   0.183 -0.3480  0.8837 -0.1562
  165SAPS   HN118550   3.913   0.072   0.131 -1.4822  0.0287 -2.5655
  165SAPS   HN218551   3.779  -0.032   0.140 -1.4188  0.3551  1.8710
  165SAPS   HN318552   3.764   0.133   0.180 -0.7431  0.6193  0.4896
  165SAPS   C1218553   3.870   0.007   0.327  0.5270 -0.5171  0.2037
  165SAPS  H12A18554   3.972  -0.027   0.313  0.0150 -1.7786 -0.7044
  165SAPS   C1318555   3.873   0.127   0.420  0.0471  0.3367  0.2929
  165SAPS  O13A18556   3.844   0.242   0.382  0.9505 -0.3174  0.0652
  165SAPS  O13B18557   3.884   0.110   0.544  0.3552  0.1838  0.3355
  165SAPS   C1118558   3.774  -0.109   0.364 -0.2882 -0.2117  0.4135
  165SAPS  H11A18559   3.674  -0.062   0.379  1.2083  2.6817  2.1797
  165SAPS  H11B18560   3.801  -0.149   0.463  1.9953 -2.6813 -1.0846
  165SAPS     P18561   3.871  -0.332   0.258 -0.0136  0.2688 -0.1276
  165SAPS   O1318562   4.003  -0.279   0.228 -0.1866 -0.7007  0.5457
  165SAPS   O1418563   3.844  -0.409   0.385  0.0391 -0.6925  0.5367
  165SAPS   O1218564   3.768  -0.210   0.263 -0.1588  0.0760  0.1615
  165SAPS   O1118565   3.828  -0.424   0.136  0.0354  0.0916 -0.6652
  165SAPS    C118566   3.762  -0.360   0.026 -0.2930  0.2083 -0.3929
  165SAPS    HA18567   3.674  -0.307   0.067 -0.7270 -1.9913  1.7904
  165SAPS    HB18568   3.825  -0.285  -0.026  2.6469 -1.9771 -0.2860
  165SAPS    C218569   3.706  -0.467  -0.075 -0.0225 -0.2153 -0.4395
  165SAPS    HS18570   3.652  -0.537  -0.008 -0.6888 -0.1336 -0.8748
  165SAPS   O2118571   3.809  -0.527  -0.152 -0.2262 -0.0764 -0.0643
  165SAPS   C2118572   3.884  -0.457  -0.234  0.9546  1.1921  0.7988
  165SAPS   O2218573   3.884  -0.336  -0.258  0.2690  0.0716 -0.0927
  165SAPS   C2218574   3.977  -0.552  -0.304  0.6952  0.7740  1.1004
  165SAPS   H2R18575   4.073  -0.549  -0.247  0.1036 -1.3894  2.3612
  165SAPS   H2S18576   3.954  -0.660  -0.292  3.1225 -0.5608 -3.6701
  165SAPS    C318577   3.598  -0.411  -0.180 -0.7803 -0.2672  0.3149
  165SAPS    HX18578   3.637  -0.315  -0.220  0.1424 -1.1562 -1.0321
  165SAPS    HY18579   3.504  -0.395  -0.123 -0.6587 -0.2177  0.5031
  165SAPS   O3118580   3.573  -0.503  -0.289 -0.1018  0.0077  1.1472
  165SAPS   C3118581   3.519  -0.615  -0.259 -0.1949  0.2655  0.0943
  165SAPS   O3218582   3.453  -0.643  -0.160  0.2804  0.4479 -0.0895
  165SAPS   C3218583   3.546  -0.706  -0.374  0.4659  0.6969 -0.2451
  165SAPS   H2X18584   3.656  -0.722  -0.381  0.2893 -1.3914  0.8636
  165SAPS   H2Y18585   3.513  -0.658  -0.468  2.0847  0.7248 -0.8292
  165SAPS   C2318586   3.986  -0.542  -0.456 -0.3031  0.5059  0.4566
  165SAPS   H3R18587   4.045  -0.449  -0.471  0.4485  0.1910  1.4172
  165SAPS   H3S18588   3.888  -0.521  -0.504  0.6946  3.0347 -0.6254
  165SAPS   C2418589   4.062  -0.663  -0.515  0.5492  0.8639  0.4417
  165SAPS   H4R18590   4.136  -0.685  -0.434  1.4079  0.6452 -0.3886
  165SAPS   H4S18591   4.112  -0.622  -0.605  1.0144 -1.4324 -0.4155
  165SAPS   C2518592   3.975  -0.781  -0.557 -0.0701 -0.3009 -0.5058
  165SAPS   H5R18593   3.866  -0.775  -0.557 -0.0838  1.1235 -3.3577
  165SAPS   C2618594   4.031  -0.889  -0.602  0.2589  0.1397  0.1848
  165SAPS   H6R18595   3.958  -0.967  -0.632 -1.1327  1.4353  0.1052
  165SAPS   C2718596   4.180  -0.919  -0.618 -0.2986  0.7659 -0.0808
  165SAPS   H7R18597   4.244  -0.829  -0.601 -1.2005  1.3999  0.0031
  165SAPS   H7S18598   4.202  -0.956  -0.720 -0.1860 -0.7630  0.4665
  165SAPS   C2818599   4.222  -1.019  -0.514 -0.0674 -0.6559 -0.0630
  165SAPS   H8R18600   4.183  -0.991  -0.415  1.1821  0.0165  0.2562
  165SAPS   C2918601   4.313  -1.123  -0.526 -0.1459  0.0120  0.0861
  165SAPS   H9R18602   4.337  -1.176  -0.432 -0.1008  0.9558  0.6252
  165SAPS  C21018603   4.395  -1.164  -0.650  0.4322  0.2577  0.4443
  165SAPS  H10R18604   4.481  -1.232  -0.632 -0.2348 -0.3124  1.5623
  165SAPS  H10S18605   4.429  -1.073  -0.704  1.3182  0.3308  1.1032
  165SAPS  C21118606   4.309  -1.244  -0.748  0.2080 -0.5052 -0.5388
  165SAPS  H11R18607   4.204  -1.255  -0.718  0.5249  3.5922  3.0982
  165SAPS  C21218608   4.355  -1.301  -0.860  0.0188  0.4457  0.0910
  165SAPS  H12R18609   4.275  -1.347  -0.919 -1.8658  2.2539  1.1084
  165SAPS  C21318610   4.498  -1.283  -0.908  0.4467 -0.0399  0.0272
  165SAPS  H13R18611   4.567  -1.257  -0.825  0.0248 -1.0163  0.7050
  165SAPS  H13S18612   4.512  -1.202  -0.982  1.7528  1.7783  2.1365
  165SAPS  C21418613   4.550  -1.409  -0.964 -0.3679  0.4720  0.1567
  165SAPS  H14R18614   4.615  -1.459  -0.891  1.1209  1.2923 -0.5664
  165SAPS  C21518615   4.516  -1.455  -1.083  0.2504 -0.1469 -0.1216
  165SAPS  H15R18616   4.552  -1.558  -1.101  0.8582 -0.4583  2.4920
  165SAPS  C21618617   4.405  -1.402  -1.176  0.3664 -0.4931  0.6813
  165SAPS  H16R18618   4.391  -1.293  -1.160 -0.0432 -0.5321  0.6011
  165SAPS  H16S18619   4.310  -1.450  -1.147 -1.2411  2.5879  0.8997
  165SAPS  C21718620   4.414  -1.439  -1.322  0.6068  0.3825 -0.5122
  165SAPS  H17R18621   4.517  -1.408  -1.349  0.9105 -0.5803 -0.4971
  165SAPS  H17S18622   4.337  -1.376  -1.370 -3.8984 -3.0498  1.4869
  165SAPS  C21818623   4.390  -1.584  -1.364 -0.6323 -0.1920  0.0960
  165SAPS  H18R18624   4.362  -1.577  -1.471 -2.2768  0.3004  0.5314
  165SAPS  H18S18625   4.312  -1.630  -1.300 -0.8917  1.6764  1.1922
  165SAPS  C21918626   4.518  -1.677  -1.376 -0.0750  0.2135  0.4282
  165SAPS  H19R18627   4.544  -1.726  -1.280  1.8817 -1.7415 -0.9806
  165SAPS  H19S18628   4.601  -1.609  -1.406 -0.8967  0.4398 -1.4879
  165SAPS  C22018629   4.511  -1.782  -1.487  0.4492 -0.1673 -0.3707
  165SAPS  H20R18630   4.517  -1.733  -1.586  1.0585  0.0078 -0.2480
  165SAPS  H20S18631   4.412  -1.832  -1.482  1.0584 -1.5372 -1.2549
  165SAPS  H20T18632   4.587  -1.863  -1.481 -0.1661 -0.8559 -1.5317
  165SAPS   C3318633   3.499  -0.856  -0.363  0.0677 -1.2756  0.8919
  165SAPS   H3X18634   3.392  -0.875  -0.388  0.7825 -2.2726 -1.7747
  165SAPS   H3Y18635   3.520  -0.888  -0.259 -0.0045 -1.4603  0.8510
  165SAPS   C3418636   3.576  -0.948  -0.465  0.8514 -0.0329  0.1805
  165SAPS   H4X18637   3.546  -1.054  -0.449  0.3654 -0.2724 -1.9704
  165SAPS   H4Y18638   3.684  -0.933  -0.442  1.2615 -0.8501 -1.0591
  165SAPS   C3518639   3.559  -0.899  -0.611  0.2279 -0.1737 -0.1958
  165SAPS   H5X18640   3.596  -0.795  -0.625 -0.4504  0.0976 -0.0364
  165SAPS   H5Y18641   3.453  -0.893  -0.644  0.9030 -1.0972 -2.7690
  165SAPS   C3618642   3.626  -0.998  -0.704 -0.0199 -0.6427 -0.0330
  165SAPS   H6X18643   3.596  -1.102  -0.679 -0.6186 -0.6216 -0.6325
  165SAPS   H6Y18644   3.737  -1.001  -0.698  0.1571  2.1619 -0.3954
  165SAPS   C3718645   3.594  -0.975  -0.854  0.5251  0.0827  0.1621
  165SAPS   H7X18646   3.627  -0.872  -0.879 -2.1273  1.5703  2.2941
  165SAPS   H7Y18647   3.485  -0.991  -0.875  0.7518 -0.2097 -0.8818
  165SAPS   C3818648   3.654  -1.080  -0.947  0.1214  0.2337  1.2698
  165SAPS   H8X18649   3.621  -1.183  -0.921 -0.3260 -0.9073 -3.1150
  165SAPS   H8Y18650   3.763  -1.079  -0.925  0.3915  0.5447 -0.0141
  165SAPS   C3918651   3.609  -1.071  -1.097 -0.0551 -0.1909 -0.6249
  165SAPS   H9X18652   3.498  -1.079  -1.097 -0.4698  3.5094 -1.4356
  165SAPS   H9Y18653   3.652  -1.153  -1.158 -1.7405 -2.0547  0.5691
  165SAPS  C31018654   3.627  -0.936  -1.161 -0.3169 -0.8060  0.3226
  165SAPS  H10X18655   3.733  -0.903  -1.155 -1.5530  3.8384 -0.3051
  165SAPS  H10Y18656   3.569  -0.871  -1.092  0.4367  0.3242 -0.0874
  165SAPS  C31118657   3.571  -0.927  -1.300  0.1449  0.2147 -0.7062
  165SAPS  H11X18658   3.576  -0.823  -1.337 -2.8008  1.0574  0.9682
  165SAPS  H11Y18659   3.462  -0.950  -1.307  0.3052 -1.1827  0.8945
  165SAPS  C31218660   3.651  -1.019  -1.396  0.5242  0.4563  0.6362
  165SAPS  H12X18661   3.635  -1.125  -1.365  0.6677  0.2256 -0.0609
  165SAPS  H12Y18662   3.758  -0.995  -1.376  0.1866  1.4964  1.2527
  165SAPS  C31318663   3.616  -1.000  -1.546  0.4150 -0.3392  0.4850
  165SAPS  H13X18664   3.603  -0.893  -1.573  0.9581 -0.1796  0.8493
  165SAPS  H13Y18665   3.519  -1.048  -1.571 -0.5671  0.9966  1.5883
  165SAPS  C31418666   3.721  -1.046  -1.647  0.2135 -0.2747  0.8051
  165SAPS  H14X18667   3.726  -1.157  -1.641  0.7355 -0.2336  1.2088
  165SAPS  H14Y18668   3.820  -1.012  -1.610  0.1747  0.1237  0.5455
  165SAPS  C31518669   3.697  -0.997  -1.796 -0.6389  0.5612  0.2271
  165SAPS  H15X18670   3.604  -1.048  -1.828 -0.6295 -0.0828  1.1640
  165SAPS  H15Y18671   3.776  -1.036  -1.863  0.2331 -0.5969  1.8368
  165SAPS  C31618672   3.697  -0.844  -1.828  0.3966  0.2139 -0.3928
  165SAPS  H16X18673   3.606  -0.797  -1.786  0.7711 -0.2702  0.9914
  165SAPS  H16Y18674   3.688  -0.837  -1.939  0.5158 -2.2678 -0.6086
  165SAPS  C31718675   3.825  -0.775  -1.786  0.4664  0.6837  0.4047
  165SAPS  H17X18676   3.849  -0.692  -1.857  2.6144 -0.1429  0.0802
  165SAPS  H17Y18677   3.908  -0.848  -1.793  0.5912  0.7973  0.6958
  165SAPS  C31818678   3.831  -0.710  -1.650 -0.3761 -0.1031  0.0738
  165SAPS  H18X18679   3.887  -0.615  -1.655 -0.9085  0.1477 -1.7623
  165SAPS  H18Y18680   3.879  -0.782  -1.581  0.2000 -0.7021 -0.9253
  165SAPS  H18Z18681   3.730  -0.692  -1.608 -0.6202 -1.0872 -0.0572
  166SAPS     N18682   1.194   3.950   0.513  0.3386  0.4972 -0.2748
  166SAPS   HN118683   1.182   4.011   0.429  0.9563 -1.6098 -1.9597
  166SAPS   HN218684   1.267   3.882   0.485  1.5393  1.8687 -0.6249
  166SAPS   HN318685   1.108   3.905   0.549  0.6206  0.8963  0.9786
  166SAPS   C1218686   1.254   4.031   0.626 -0.1913  0.2008 -0.3477
  166SAPS  H12A18687   1.172   4.055   0.692  0.2907 -2.6548  1.4826
  166SAPS   C1318688   1.359   3.957   0.701 -0.3154 -0.0194 -0.4935
  166SAPS  O13A18689   1.394   3.842   0.663 -0.3633  0.0658  0.1783
  166SAPS  O13B18690   1.406   4.006   0.802 -0.1633 -0.5042 -0.5779
  166SAPS   C1118691   1.319   4.150   0.567 -0.4735 -0.0520  0.4344
  166SAPS  H11A18692   1.414   4.112   0.524 -0.8190  0.5406 -0.9288
  166SAPS  H11B18693   1.339   4.219   0.651 -2.6719  1.9467 -0.5729
  166SAPS     P18694   1.195   4.369   0.469  0.1326  0.1611 -0.1458
  166SAPS   O1318695   1.061   4.386   0.406  0.0390 -0.3401  1.0759
  166SAPS   O1418696   1.200   4.406   0.609  0.0427  0.1928  0.7477
  166SAPS   O1218697   1.239   4.218   0.465 -0.2218  0.3073  0.0541
  166SAPS   O1118698   1.305   4.437   0.388  0.1299 -0.1226  0.4511
  166SAPS    C118699   1.441   4.402   0.387  0.7200 -0.5597  0.0945
  166SAPS    HA18700   1.508   4.475   0.437  1.6539  0.1849 -2.1104
  166SAPS    HB18701   1.463   4.305   0.437  1.1826  0.4437  1.9279
  166SAPS    C218702   1.491   4.382   0.244  0.3653  0.3834 -0.0571
  166SAPS    HS18703   1.600   4.369   0.261  0.3314  2.3895  2.2423
  166SAPS   O2118704   1.460   4.500   0.170  0.0562 -0.0143 -0.6253
  166SAPS   C2118705   1.554   4.533   0.079 -0.3170  0.3710  0.2587
  166SAPS   O2218706   1.654   4.466   0.052  0.3371  0.0373  0.1651
  166SAPS   C2218707   1.517   4.654   0.002  0.1733  0.0999 -0.7149
  166SAPS   H2R18708   1.407   4.672   0.001  0.0860 -0.4405 -1.1862
  166SAPS   H2S18709   1.560   4.742   0.053 -1.4021  0.8432 -0.6037
  166SAPS    C318710   1.421   4.255   0.183  0.4112 -0.6528 -0.4733
  166SAPS    HX18711   1.312   4.278   0.180  0.9856  3.0448  0.9149
  166SAPS    HY18712   1.448   4.176   0.255  0.4683  2.0146  2.6824
  166SAPS   O3118713   1.455   4.223   0.046 -0.4001 -0.3619 -0.1442
  166SAPS   C3118714   1.569   4.164   0.028  0.5884 -0.3801  0.3201
  166SAPS   O3218715   1.650   4.138   0.112 -0.4009 -0.1442 -0.4309
  166SAPS   C3218716   1.597   4.150  -0.123 -0.3269 -0.2543  0.2627
  166SAPS   H2X18717   1.521   4.191  -0.193 -1.4703 -3.8738 -0.8399
  166SAPS   H2Y18718   1.598   4.039  -0.126 -0.7483 -0.3236  1.8213
  166SAPS   C2318719   1.569   4.649  -0.146  0.2999 -0.1415 -0.1136
  166SAPS   H3R18720   1.680   4.640  -0.141  0.2705 -0.6728 -0.3915
  166SAPS   H3S18721   1.565   4.750  -0.191  1.4769  0.4188  0.9686
  166SAPS   C2418722   1.519   4.536  -0.237 -1.1114  0.5717 -0.7091
  166SAPS   H4R18723   1.536   4.438  -0.187 -0.6399  1.3877  0.8072
  166SAPS   H4S18724   1.594   4.544  -0.318  0.8737  0.9709  1.0772
  166SAPS   C2518725   1.375   4.551  -0.271 -0.5162  0.2742  0.2961
  166SAPS   H5R18726   1.307   4.554  -0.185 -0.1123 -0.4358  0.6531
  166SAPS   C2618727   1.320   4.549  -0.396  0.2080 -0.1838  0.1180
  166SAPS   H6R18728   1.210   4.548  -0.392  0.1193  0.9826 -1.1236
  166SAPS   C2718729   1.383   4.544  -0.530  0.1592  0.2828  0.0467
  166SAPS   H7R18730   1.484   4.587  -0.511 -0.4154  1.3830  0.6543
  166SAPS   H7S18731   1.329   4.614  -0.598  2.4965  0.6423 -1.5585
  166SAPS   C2818732   1.383   4.400  -0.589  0.5538 -0.9945  0.4163
  166SAPS   H8R18733   1.427   4.319  -0.528 -0.3561 -2.2415 -0.5192
  166SAPS   C2918734   1.344   4.368  -0.714 -0.1561  0.0322  0.4962
  166SAPS   H9R18735   1.372   4.266  -0.745  1.6066  0.4352  0.6388
  166SAPS  C21018736   1.290   4.466  -0.823 -0.0806  0.4832  0.5038
  166SAPS  H10R18737   1.375   4.513  -0.877 -1.2682 -0.5373 -2.4474
  166SAPS  H10S18738   1.241   4.551  -0.770  0.9372  1.3468  0.1079
  166SAPS  C21118739   1.194   4.411  -0.926 -0.3135 -1.0250 -0.4299
  166SAPS  H11R18740   1.117   4.343  -0.887 -1.5189 -0.2589 -1.4276
  166SAPS  C21218741   1.203   4.429  -1.062 -0.4146  0.0883  0.9732
  166SAPS  H12R18742   1.122   4.397  -1.129  1.9806 -0.3588 -1.9118
  166SAPS  C21318743   1.309   4.501  -1.143  0.3253  0.0490  1.2927
  166SAPS  H13R18744   1.408   4.477  -1.098  1.5077 -0.9713 -1.6118
  166SAPS  H13S18745   1.293   4.611  -1.134 -1.3755  0.3371 -2.8100
  166SAPS  C21418746   1.303   4.473  -1.293  0.4332  0.1486 -0.0530
  166SAPS  H14R18747   1.385   4.410  -1.330  1.2937  0.0974  1.8153
  166SAPS  C21518748   1.223   4.531  -1.384 -0.1027 -0.2757 -0.2334
  166SAPS  H15R18749   1.225   4.496  -1.489 -0.4035 -0.1806 -0.2724
  166SAPS  C21618750   1.107   4.614  -1.340 -0.3783 -0.0302  0.4829
  166SAPS  H16R18751   1.098   4.618  -1.229 -1.1635 -1.4351  0.5028
  166SAPS  H16S18752   1.012   4.567  -1.373 -1.2255  1.9639 -0.0623
  166SAPS  C21718753   1.088   4.757  -1.394  0.1692 -0.1389  0.1667
  166SAPS  H17R18754   1.184   4.810  -1.377 -0.3164  0.9254 -0.3282
  166SAPS  H17S18755   1.014   4.802  -1.324  0.5492 -0.9065  1.0995
  166SAPS  C21818756   1.054   4.745  -1.544 -0.3974 -0.0223  0.4315
  166SAPS  H18R18757   0.989   4.655  -1.556 -1.8602  0.6111  2.7509
  166SAPS  H18S18758   1.137   4.736  -1.617 -1.1612 -2.1444 -0.2518
  166SAPS  C21918759   0.966   4.857  -1.602  1.0287 -0.6068  0.8762
  166SAPS  H19R18760   1.026   4.950  -1.590 -0.5041  0.3022  1.7365
  166SAPS  H19S18761   0.883   4.884  -1.533  1.2934 -0.0752  0.9975
  166SAPS  C22018762   0.913   4.849  -1.749  0.7026 -0.0483 -0.3271
  166SAPS  H20R18763   0.869   4.945  -1.785 -2.2284 -0.6593  1.3266
  166SAPS  H20S18764   0.823   4.784  -1.755  0.5003  0.2791 -1.0091
  166SAPS  H20T18765   0.990   4.816  -1.822  1.2319  1.4400 -0.4732
  166SAPS   C3318766   1.741   4.206  -0.164  0.5599 -0.4333 -0.0354
  166SAPS   H3X18767   1.818   4.159  -0.100  0.8061 -0.5891 -0.4382
  166SAPS   H3Y18768   1.747   4.315  -0.143 -2.2664  0.1794 -1.7893
  166SAPS   C3418769   1.781   4.192  -0.310 -0.4006  0.8984 -0.9662
  166SAPS   H4X18770   1.701   4.231  -0.377 -1.2601 -1.5895 -1.5071
  166SAPS   H4Y18771   1.787   4.086  -0.344 -1.3595  0.2207  0.8187
  166SAPS   C3518772   1.903   4.272  -0.342  0.0185  0.0854  0.0945
  166SAPS   H5X18773   1.995   4.239  -0.289  0.0863 -0.4097 -0.3270
  166SAPS   H5Y18774   1.884   4.376  -0.310 -0.7937  0.1879 -0.6815
  166SAPS   C3618775   1.950   4.275  -0.488  0.0377  0.7725 -0.0908
  166SAPS   H6X18776   1.976   4.173  -0.524 -1.1212  0.7935 -1.0265
  166SAPS   H6Y18777   2.042   4.333  -0.509  1.3054 -0.2239  2.2531
  166SAPS   C3718778   1.852   4.340  -0.583  0.4434 -0.2940 -0.8356
  166SAPS   H7X18779   1.823   4.443  -0.553 -0.7762 -1.3937  2.1348
  166SAPS   H7Y18780   1.759   4.280  -0.582 -0.9032  1.6384 -2.6776
  166SAPS   C3818781   1.918   4.352  -0.726 -0.9039  0.4128 -0.0567
  166SAPS   H8X18782   1.969   4.255  -0.743  1.7634  1.7388 -0.1339
  166SAPS   H8Y18783   2.001   4.425  -0.731 -0.2792 -0.1833  1.1172
  166SAPS   C3918784   1.811   4.370  -0.831 -1.0289 -0.2081 -0.3535
  166SAPS   H9X18785   1.740   4.449  -0.800 -2.6955 -1.8773  0.2593
  166SAPS   H9Y18786   1.750   4.279  -0.848  1.5508 -1.5957 -3.2042
  166SAPS  C31018787   1.875   4.392  -0.970 -0.1327 -0.1467 -0.0602
  166SAPS  H10X18788   1.923   4.295  -0.996 -1.0040 -0.6178  0.0617
  166SAPS  H10Y18789   1.955   4.469  -0.979 -2.2517  2.0012 -1.8592
  166SAPS  C31118790   1.769   4.429  -1.079  0.6165 -0.2169 -0.2521
  166SAPS  H11X18791   1.707   4.518  -1.054 -0.5367 -0.8866 -0.6653
  166SAPS  H11Y18792   1.688   4.353  -1.069 -0.9104  1.5588  1.9761
  166SAPS  C31218793   1.825   4.431  -1.216  0.2087  0.3218 -0.6159
  166SAPS  H12X18794   1.875   4.335  -1.242  0.8348  0.8953 -1.6367
  166SAPS  H12Y18795   1.918   4.491  -1.207  0.1922  0.0684  1.6331
  166SAPS  C31318796   1.742   4.487  -1.325  0.1668  0.0052  0.3618
  166SAPS  H13X18797   1.754   4.597  -1.337 -1.8752  0.0152 -2.6116
  166SAPS  H13Y18798   1.636   4.460  -1.303  0.1543  0.1403  0.4666
  166SAPS  C31418799   1.777   4.423  -1.460 -0.8148  1.0947  0.0694
  166SAPS  H14X18800   1.696   4.448  -1.532 -0.5791 -3.0799 -1.9467
  166SAPS  H14Y18801   1.774   4.313  -1.448 -0.1447  1.0390 -0.2102
  166SAPS  C31518802   1.903   4.465  -1.523  0.2833 -0.2635 -0.1717
  166SAPS  H15X18803   1.991   4.435  -1.463 -0.6747  0.1891  1.5049
  166SAPS  H15Y18804   1.899   4.574  -1.540  0.2401 -0.3545 -0.7921
  166SAPS  C31618805   1.920   4.406  -1.662  0.0246 -0.1294  0.4334
  166SAPS  H16X18806   1.926   4.296  -1.667 -0.3370 -0.1043 -0.7654
  166SAPS  H16Y18807   2.021   4.444  -1.690 -0.4166 -0.3773 -1.6614
  166SAPS  C31718808   1.821   4.447  -1.770 -0.4398 -0.2791 -0.5288
  166SAPS  H17X18809   1.728   4.386  -1.763 -0.0193 -0.8987 -0.1930
  166SAPS  H17Y18810   1.866   4.416  -1.867  1.5903  1.6811 -0.2977
  166SAPS  C31818811   1.798   4.603  -1.788 -0.3520  0.0379  1.2057
  166SAPS  H18X18812   1.734   4.654  -1.713 -0.2745  2.9445 -0.5427
  166SAPS  H18Y18813   1.752   4.627  -1.887 -0.3347  2.8550  1.7889
  166SAPS  H18Z18814   1.895   4.657  -1.793 -1.2129  1.5978  0.2119
  167SAPS     N18815   5.565   5.695   0.609 -0.0149 -0.2534  0.3899
  167SAPS   HN118816   5.625   5.780   0.613  0.5130 -0.3856 -2.6630
  167SAPS   HN218817   5.606   5.625   0.544  0.0871 -1.7746  2.0364
  167SAPS   HN318818   5.468   5.721   0.582  0.9447  1.9883 -1.2310
  167SAPS   C1218819   5.538   5.618   0.735 -0.3675  0.0577  0.6794
  167SAPS  H12A18820   5.635   5.609   0.783 -0.1644  0.1786  0.2955
  167SAPS   C1318821   5.446   5.677   0.840  0.6955  0.0516 -0.1640
  167SAPS  O13A18822   5.400   5.797   0.842  0.2166  0.1250  1.1134
  167SAPS  O13B18823   5.410   5.597   0.932  0.0936 -0.6502  0.5283
  167SAPS   C1118824   5.488   5.478   0.692  0.4731  0.5481 -0.0398
  167SAPS  H11A18825   5.379   5.481   0.671 -0.1593 -0.0173  2.7336
  167SAPS  H11B18826   5.506   5.406   0.775  1.2714  1.6080  0.7197
  167SAPS     P18827   5.539   5.272   0.528 -0.4754  0.2495 -0.5070
  167SAPS   O1318828   5.660   5.225   0.459  0.0612 -0.0459  0.4256
  167SAPS   O1418829   5.510   5.193   0.651 -0.4448 -0.5926  0.5583
  167SAPS   O1218830   5.562   5.426   0.575  0.0913  0.0867  0.1667
  167SAPS   O1118831   5.411   5.274   0.433  0.2478  0.8329 -0.4173
  167SAPS    C118832   5.364   5.394   0.370  0.4860  0.4009  0.5394
  167SAPS    HA18833   5.258   5.373   0.344  1.1146 -2.9773  0.2188
  167SAPS    HB18834   5.372   5.488   0.429 -0.1703  0.1726  0.9969
  167SAPS    C218835   5.435   5.429   0.234  0.6718  0.7903 -0.0806
  167SAPS    HS18836   5.354   5.456   0.163 -0.5892 -1.2652  0.4647
  167SAPS   O2118837   5.508   5.315   0.186 -0.1353 -0.0943  0.3550
  167SAPS   C2118838   5.439   5.208   0.156  0.0849 -0.1442  0.2888
  167SAPS   O2218839   5.317   5.198   0.161  0.2896 -0.0374 -0.2665
  167SAPS   C2218840   5.529   5.093   0.112 -0.1116  0.4260  0.5973
  167SAPS   H2R18841   5.620   5.085   0.176 -0.8790 -1.1616  1.5462
  167SAPS   H2S18842   5.479   4.996   0.132  0.4662  0.4156  2.1921
  167SAPS    C318843   5.524   5.551   0.256  0.7438  0.1588  0.7503
  167SAPS    HX18844   5.580   5.546   0.352  1.3737 -0.2516  0.3684
  167SAPS    HY18845   5.456   5.637   0.276  1.3412  0.8084  0.0513
  167SAPS   O3118846   5.624   5.577   0.153  0.1557 -0.0612  0.0974
  167SAPS   C3118847   5.563   5.625   0.039 -0.0003 -0.4493  0.0803
  167SAPS   O3218848   5.451   5.671   0.030  0.0793  0.4952 -0.1529
  167SAPS   C3218849   5.659   5.617  -0.079  0.0465 -1.1854  0.2694
  167SAPS   H2X18850   5.741   5.545  -0.064  1.4945  0.3741  0.1181
  167SAPS   H2Y18851   5.702   5.719  -0.089 -1.0575 -0.6684  0.5584
  167SAPS   C2318852   5.576   5.103  -0.042  0.5483 -0.5890  0.1441
  167SAPS   H3R18853   5.482   5.114  -0.101  0.6956  1.1470  0.1682
  167SAPS   H3S18854   5.619   5.004  -0.065 -1.1976 -1.1903 -0.7341
  167SAPS   C2418855   5.674   5.214  -0.089 -0.3088  0.0995  0.2225
  167SAPS   H4R18856   5.633   5.312  -0.055 -2.4816 -0.4208 -0.7242
  167SAPS   H4S18857   5.675   5.211  -0.200 -0.2160 -0.4178  0.2363
  167SAPS   C2518858   5.812   5.188  -0.034 -0.3207 -0.8723  0.3893
  167SAPS   H5R18859   5.811   5.192   0.076  2.5450  0.7681  0.4474
  167SAPS   C2618860   5.926   5.177  -0.104  0.1070  0.2486 -0.9348
  167SAPS   H6R18861   6.010   5.148  -0.041  0.0475  0.5568 -0.7120
  167SAPS   C2718862   5.953   5.192  -0.248 -0.1629 -0.8935  0.1681
  167SAPS   H7R18863   5.879   5.259  -0.297  0.1117 -1.7510 -1.4803
  167SAPS   H7S18864   5.918   5.094  -0.288 -1.5344 -0.3338 -0.0873
  167SAPS   C2818865   6.099   5.226  -0.271  0.6144 -0.2070 -0.0200
  167SAPS   H8R18866   6.132   5.328  -0.243 -0.5471 -0.0587  0.9098
  167SAPS   C2918867   6.181   5.153  -0.344  0.5294 -0.3048  0.9239
  167SAPS   H9R18868   6.284   5.188  -0.360  0.1967 -0.4305 -1.9644
  167SAPS  C21018869   6.149   5.022  -0.405 -0.4951  0.7485  0.3442
  167SAPS  H10R18870   6.101   4.952  -0.334 -2.1293  1.5561  0.0932
  167SAPS  H10S18871   6.242   4.969  -0.432 -1.1300 -0.2681  0.1098
  167SAPS  C21118872   6.068   5.017  -0.531  0.6068 -0.5316 -0.7078
  167SAPS  H11R18873   5.960   5.019  -0.509  0.7273 -1.9245  0.1368
  167SAPS  C21218874   6.119   5.025  -0.654 -0.4956 -0.4299 -0.2892
  167SAPS  H12R18875   6.051   5.023  -0.740  1.1383  2.2772 -1.8040
  167SAPS  C21318876   6.265   5.030  -0.691  0.0466 -0.5359 -1.0588
  167SAPS  H13R18877   6.339   5.052  -0.610  0.5602  3.1721 -2.3305
  167SAPS  H13S18878   6.271   5.116  -0.762 -0.7620  0.3566 -0.0807
  167SAPS  C21418879   6.319   4.916  -0.768 -0.0823  0.3682  0.4746
  167SAPS  H14R18880   6.384   4.838  -0.725 -0.5177 -0.4010 -0.2247
  167SAPS  C21518881   6.274   4.891  -0.889  0.1630 -0.0826 -0.1404
  167SAPS  H15R18882   6.318   4.803  -0.939 -0.5840  0.3402 -1.6153
  167SAPS  C21618883   6.183   4.979  -0.967 -0.6608 -0.0470 -0.0688
  167SAPS  H16R18884   6.195   5.083  -0.931 -2.4984  0.3295 -0.4651
  167SAPS  H16S18885   6.078   4.947  -0.953 -1.4379  1.3799 -2.0934
  167SAPS  C21718886   6.212   4.975  -1.122  0.0786  0.0503 -0.4000
  167SAPS  H17R18887   6.115   4.996  -1.171 -0.2906 -0.3763  0.1279
  167SAPS  H17S18888   6.242   4.873  -1.153  1.6961 -0.1717  1.6637
  167SAPS  C21818889   6.328   5.064  -1.169  0.2437 -0.5822  0.3114
  167SAPS  H18R18890   6.424   5.036  -1.121 -0.1144 -2.6151 -0.0872
  167SAPS  H18S18891   6.298   5.166  -1.137 -0.0671 -0.6243  0.1627
  167SAPS  C21918892   6.348   5.069  -1.319  0.1944 -0.4413 -0.2594
  167SAPS  H19R18893   6.251   5.105  -1.359 -1.7244 -2.0696  2.5596
  167SAPS  H19S18894   6.363   4.971  -1.369 -2.2967 -0.0747 -1.8757
  167SAPS  C22018895   6.457   5.165  -1.372  0.0701  0.8367 -0.0852
  167SAPS  H20R18896   6.442   5.267  -1.330  0.7560  0.7005  0.5166
  167SAPS  H20S18897   6.438   5.161  -1.482  0.0163  0.6197 -0.0680
  167SAPS  H20T18898   6.563   5.131  -1.363  1.1893  4.3488  2.0252
  167SAPS   C3318899   5.583   5.577  -0.210  0.0677  0.5800  0.3407
  167SAPS   H3X18900   5.497   5.643  -0.235  0.9683  2.1497  1.2417
  167SAPS   H3Y18901   5.549   5.472  -0.193  1.9210  0.1799  1.8497
  167SAPS   C3418902   5.660   5.607  -0.338  0.1746 -0.8126  0.5667
  167SAPS   H4X18903   5.688   5.714  -0.334 -0.3115 -0.6700  0.2634
  167SAPS   H4Y18904   5.592   5.604  -0.426  0.8670 -0.2142  0.0003
  167SAPS   C3518905   5.776   5.515  -0.365  0.4844 -0.0893 -0.6072
  167SAPS   H5X18906   5.739   5.412  -0.384  1.6606 -0.2261 -2.4514
  167SAPS   H5Y18907   5.857   5.504  -0.289 -0.5359 -0.8755  0.3995
  167SAPS   C3618908   5.840   5.561  -0.497  0.2726 -0.0972 -0.2880
  167SAPS   H6X18909   5.903   5.649  -0.470  0.9833 -1.0584  1.3038
  167SAPS   H6Y18910   5.764   5.588  -0.573 -0.2334 -0.8527 -0.0535
  167SAPS   C3718911   5.936   5.456  -0.554 -0.4059  0.6092 -0.5592
  167SAPS   H7X18912   5.876   5.371  -0.594  1.1226 -0.3584 -0.8769
  167SAPS   H7Y18913   5.989   5.412  -0.467 -2.1523 -0.0709  0.2174
  167SAPS   C3818914   6.043   5.507  -0.652  0.6154  0.5638  0.1468
  167SAPS   H8X18915   6.103   5.418  -0.681  0.9748  0.5583  0.8728
  167SAPS   H8Y18916   6.120   5.568  -0.599  0.3214 -0.6354  2.0422
  167SAPS   C3918917   5.993   5.583  -0.775  0.3089  0.0609  0.4595
  167SAPS   H9X18918   5.964   5.686  -0.745  1.7680 -0.0082  2.2314
  167SAPS   H9Y18919   5.906   5.531  -0.821  0.7174  0.9503 -1.4002
  167SAPS  C31018920   6.095   5.607  -0.888  0.4526  0.0453 -0.1222
  167SAPS  H10X18921   6.135   5.507  -0.918  0.2645 -0.3021  0.7697
  167SAPS  H10Y18922   6.175   5.666  -0.838  1.1101  0.6088 -1.7721
  167SAPS  C31118923   6.049   5.696  -1.002 -0.3615  0.1344 -0.5412
  167SAPS  H11X18924   6.025   5.786  -0.941  1.1970 -0.6053  1.2774
  167SAPS  H11Y18925   5.957   5.650  -1.044  0.1970 -1.0606 -0.5212
  167SAPS  C31218926   6.155   5.716  -1.112 -0.2242 -0.0365  0.5465
  167SAPS  H12X18927   6.169   5.627  -1.176  0.8681  0.8391 -0.4685
  167SAPS  H12Y18928   6.254   5.727  -1.062 -1.1839 -1.8325  3.0368
  167SAPS  C31318929   6.132   5.834  -1.200  0.2211 -0.2341 -0.5464
  167SAPS  H13X18930   6.223   5.865  -1.254  1.8640 -1.1767  1.5503
  167SAPS  H13Y18931   6.093   5.926  -1.152 -0.1636 -0.8120  0.2767
  167SAPS  C31418932   6.020   5.794  -1.310  0.5026  0.1429  0.3034
  167SAPS  H14X18933   5.924   5.767  -1.260 -1.3159  0.7674 -2.6334
  167SAPS  H14Y18934   6.054   5.704  -1.364  0.6567 -0.1016  0.7984
  167SAPS  C31518935   5.994   5.909  -1.411  0.8321  0.4601  0.2325
  167SAPS  H15X18936   6.095   5.947  -1.438  1.4746 -1.5122 -0.3439
  167SAPS  H15Y18937   5.947   5.997  -1.363 -3.0564 -1.0965 -0.3859
  167SAPS  C31618938   5.913   5.870  -1.538 -0.0218 -0.3611  0.2635
  167SAPS  H16X18939   5.980   5.812  -1.604 -0.7063 -0.0952 -0.6907
  167SAPS  H16Y18940   5.871   5.959  -1.589  3.0064  0.3598 -1.2337
  167SAPS  C31718941   5.796   5.770  -1.511 -0.4745  0.5756  0.5655
  167SAPS  H17X18942   5.718   5.808  -1.581 -0.8195 -1.7733 -0.3993
  167SAPS  H17Y18943   5.762   5.776  -1.406 -1.1361 -0.6959  0.4291
  167SAPS  C31818944   5.808   5.624  -1.553 -0.0666  0.2373 -0.5241
  167SAPS  H18X18945   5.886   5.573  -1.493  0.3093 -0.4002 -1.5321
  167SAPS  H18Y18946   5.845   5.614  -1.657  1.3243  1.6102 -0.2001
  167SAPS  H18Z18947   5.715   5.565  -1.539  0.4947 -0.0435  2.8728
  168SAPS     N18948   2.429   0.082   0.404 -0.1524  0.4366  0.4902
  168SAPS   HN118949   2.432   0.008   0.331 -2.2151  0.6668  0.1102
  168SAPS   HN218950   2.527   0.115   0.404  0.7207 -1.9289  0.7957
  168SAPS   HN318951   2.413   0.042   0.499  2.2708 -3.4716 -0.4958
  168SAPS   C1218952   2.320   0.171   0.351 -0.3553 -0.7651  0.3068
  168SAPS  H12A18953   2.334   0.169   0.244  2.3477  0.8623  0.5270
  168SAPS   C1318954   2.168   0.123   0.378 -0.1582  0.0374 -0.7486
  168SAPS  O13A18955   2.154   0.019   0.444  0.5804  0.1434 -0.6269
  168SAPS  O13B18956   2.075   0.186   0.323  0.2222  0.3948 -0.6390
  168SAPS   C1118957   2.338   0.319   0.390 -0.0456  0.5661 -0.4059
  168SAPS  H11A18958   2.311   0.324   0.498 -2.3161  0.4264 -0.9218
  168SAPS  H11B18959   2.270   0.386   0.335 -0.5133  2.1412  1.9288
  168SAPS     P18960   2.543   0.415   0.259 -0.2857 -0.0078  0.1056
  168SAPS   O1318961   2.513   0.558   0.259 -0.2343  0.3432 -0.5970
  168SAPS   O1418962   2.686   0.370   0.256  0.4206 -0.7130  0.1680
  168SAPS   O1218963   2.478   0.350   0.388 -0.1847 -0.4654  0.2814
  168SAPS   O1118964   2.467   0.342   0.139  0.1681  0.6785 -0.0475
  168SAPS    C118965   2.530   0.251   0.051 -0.1387 -0.4573  0.1430
  168SAPS    HA18966   2.592   0.179   0.107  2.7427  0.1962 -1.9837
  168SAPS    HB18967   2.450   0.185   0.010 -0.1109 -0.3582 -0.0724
  168SAPS    C218968   2.610   0.321  -0.063  0.9272  0.8624  0.4274
  168SAPS    HS18969   2.706   0.364  -0.026  1.8337  1.4609 -2.3616
  168SAPS   O2118970   2.532   0.418  -0.123  0.0002  0.1600  0.4087
  168SAPS   C2118971   2.605   0.503  -0.199  0.3857 -0.0920  0.2074
  168SAPS   O2218972   2.725   0.513  -0.195 -0.4457  0.0349  0.0803
  168SAPS   C2218973   2.525   0.564  -0.315  0.2318 -0.6804 -0.0216
  168SAPS   H2R18974   2.594   0.608  -0.390 -3.5816  3.0320 -1.7458
  168SAPS   H2S18975   2.447   0.497  -0.356  0.0128 -0.9923  0.8778
  168SAPS    C318976   2.657   0.209  -0.169 -0.6663 -0.0116 -0.1162
  168SAPS    HX18977   2.723   0.150  -0.101 -1.1059 -1.0027 -0.5333
  168SAPS    HY18978   2.728   0.246  -0.246 -0.2746  0.2438  0.3617
  168SAPS   O3118979   2.557   0.117  -0.214 -0.2668  0.1813 -0.3675
  168SAPS   C3118980   2.494   0.142  -0.330 -0.6029  1.1500  1.1408
  168SAPS   O3218981   2.516   0.234  -0.399 -0.3700  0.1077  0.3175
  168SAPS   C3218982   2.419   0.008  -0.371  0.4176  0.3325  0.0555
  168SAPS   H2X18983   2.362  -0.009  -0.277  0.8375  0.1393  0.2801
  168SAPS   H2Y18984   2.497  -0.068  -0.391 -1.0068 -1.8122  2.1477
  168SAPS   C2318985   2.449   0.688  -0.255 -0.8200 -0.0733  0.6080
  168SAPS   H3R18986   2.533   0.759  -0.235  1.7925 -2.0461 -2.2880
  168SAPS   H3S18987   2.396   0.654  -0.164 -0.0098 -2.0040  0.4068
  168SAPS   C2418988   2.338   0.742  -0.353 -0.3323  1.4481  1.0227
  168SAPS   H4R18989   2.381   0.750  -0.455 -0.0425 -0.4656  0.9607
  168SAPS   H4S18990   2.314   0.846  -0.324  2.0070  2.5809 -0.7364
  168SAPS   C2518991   2.210   0.661  -0.363  0.2399  0.0705 -0.0036
  168SAPS   H5R18992   2.170   0.629  -0.266  0.3101 -0.1037 -0.0296
  168SAPS   C2618993   2.157   0.631  -0.482  0.1245  0.7150 -1.0065
  168SAPS   H6R18994   2.058   0.583  -0.475  1.7296 -2.6692  2.2846
  168SAPS   C2718995   2.190   0.664  -0.621 -0.5782  0.1134  0.4335
  168SAPS   H7R18996   2.129   0.591  -0.679  1.2448 -1.8057  0.7834
  168SAPS   H7S18997   2.295   0.639  -0.647 -0.3254  0.0945  1.4139
  168SAPS   C2818998   2.155   0.803  -0.656  0.1565 -0.5544 -0.0370
  168SAPS   H8R18999   2.158   0.866  -0.566  0.7395 -2.8126  1.5865
  168SAPS   C2919000   2.124   0.864  -0.772  0.2298 -0.6293 -0.1308
  168SAPS   H9R19001   2.102   0.972  -0.763  0.7777 -0.4832 -0.5655
  168SAPS  C21019002   2.116   0.801  -0.913 -0.3375  0.5119  0.2410
  168SAPS  H10R19003   2.163   0.701  -0.901 -2.4579 -0.5816 -0.1405
  168SAPS  H10S19004   2.191   0.859  -0.971  1.2116  0.5004  2.1047
  168SAPS  C21119005   1.976   0.808  -0.958 -0.4292 -0.5912 -1.1078
  168SAPS  H11R19006   1.906   0.784  -0.877  0.8340  3.1098  1.3310
  168SAPS  C21219007   1.932   0.845  -1.076 -0.7652 -0.3922  0.2921
  168SAPS  H12R19008   1.824   0.840  -1.097 -0.6006 -1.1505 -0.4586
  168SAPS  C21319009   2.005   0.884  -1.201  0.0362 -1.1304 -0.3919
  168SAPS  H13R19010   2.105   0.927  -1.180 -0.3265  0.4844 -1.7596
  168SAPS  H13S19011   1.953   0.972  -1.244  1.0031 -1.1638 -1.6590
  168SAPS  C21419012   2.030   0.774  -1.295 -0.2236  0.6200  0.5868
  168SAPS  H14R19013   2.032   0.669  -1.263  0.6015  1.4263  3.4198
  168SAPS  C21519014   2.020   0.792  -1.427 -0.4719 -0.0927 -0.2614
  168SAPS  H15R19015   2.039   0.709  -1.496  2.2667  1.7130 -1.8699
  168SAPS  C21619016   2.018   0.924  -1.504 -0.0311 -0.3286  0.0046
  168SAPS  H16R19017   2.098   0.930  -1.580  0.0825  2.0297  0.2364
  168SAPS  H16S19018   2.033   1.001  -1.426  1.4714 -0.7104  0.1119
  168SAPS  C21719019   1.881   0.951  -1.580 -0.3583  0.5048 -0.3732
  168SAPS  H17R19020   1.805   0.998  -1.514 -1.7360 -0.0540 -1.5126
  168SAPS  H17S19021   1.833   0.853  -1.599 -0.8918  0.8512 -0.8402
  168SAPS  C21819022   1.920   1.042  -1.697  0.2371 -0.1003  0.6512
  168SAPS  H18R19023   1.982   0.979  -1.765  1.1978  0.3969  1.0543
  168SAPS  H18S19024   1.981   1.134  -1.685 -1.0579  0.8748  0.0491
  168SAPS  C21919025   1.792   1.075  -1.784  0.4058  0.4914  0.3461
  168SAPS  H19R19026   1.716   1.137  -1.731  0.3004  0.7241 -0.0754
  168SAPS  H19S19027   1.741   0.978  -1.803 -0.6947  0.6167  2.3647
  168SAPS  C22019028   1.820   1.151  -1.919 -0.0391 -0.6142 -0.5983
  168SAPS  H20R19029   1.879   1.243  -1.898 -0.0091 -0.6802 -0.3930
  168SAPS  H20S19030   1.719   1.179  -1.957 -0.9454 -1.0607  1.3612
  168SAPS  H20T19031   1.873   1.097  -2.000 -0.1179  0.2081 -1.2074
  168SAPS   C3319032   2.342   0.025  -0.505 -0.0420 -0.1349  0.1158
  168SAPS   H3X19033   2.401   0.053  -0.596 -0.5851 -0.7182 -0.4206
  168SAPS   H3Y19034   2.279   0.113  -0.482  0.5025  0.2637  0.1179
  168SAPS   C3419035   2.243  -0.085  -0.538 -0.3074  1.1485  0.3561
  168SAPS   H4X19036   2.192  -0.064  -0.634 -3.8254 -0.9917  1.5674
  168SAPS   H4Y19037   2.156  -0.096  -0.471 -1.3605 -0.0705 -1.1317
  168SAPS   C3519038   2.303  -0.228  -0.538  0.2061  0.1503 -0.3204
  168SAPS   H5X19039   2.220  -0.299  -0.552  0.9458 -1.3174  2.2025
  168SAPS   H5Y19040   2.353  -0.254  -0.442 -1.5952 -2.2433  0.0579
  168SAPS   C3619041   2.390  -0.262  -0.659  0.1577 -0.5325  0.2474
  168SAPS   H6X19042   2.446  -0.355  -0.637  3.0428  0.7531 -1.0152
  168SAPS   H6Y19043   2.475  -0.190  -0.667 -0.1227 -0.2289 -0.0265
  168SAPS   C3719044   2.314  -0.280  -0.795 -0.2918 -0.3367 -0.5123
  168SAPS   H7X19045   2.259  -0.185  -0.807  1.0106  0.4978 -0.0314
  168SAPS   H7Y19046   2.258  -0.375  -0.780 -0.4308 -0.1632  0.1043
  168SAPS   C3819047   2.407  -0.314  -0.922  0.4956 -0.3678 -0.6392
  168SAPS   H8X19048   2.438  -0.420  -0.906 -0.3595 -0.2933  2.1721
  168SAPS   H8Y19049   2.495  -0.248  -0.931  0.8170 -0.6123  0.4722
  168SAPS   C3919050   2.338  -0.311  -1.066 -0.4446  0.7447 -0.0522
  168SAPS   H9X19051   2.298  -0.209  -1.086 -1.5576  0.1801 -0.8346
  168SAPS   H9Y19052   2.251  -0.379  -1.075 -0.0111  0.0234  0.9869
  168SAPS  C31019053   2.440  -0.347  -1.171 -0.6716  0.8935 -0.4936
  168SAPS  H10X19054   2.472  -0.452  -1.158  1.3557  1.5313  0.0606
  168SAPS  H10Y19055   2.529  -0.281  -1.162  0.3996 -0.5879  0.1958
  168SAPS  C31119056   2.399  -0.336  -1.322  0.8159 -0.9369  0.4873
  168SAPS  H11X19057   2.379  -0.231  -1.350  3.2844 -0.9270 -1.7477
  168SAPS  H11Y19058   2.304  -0.393  -1.328 -0.0977  0.4759  1.1971
  168SAPS  C31219059   2.503  -0.385  -1.418  0.5154  0.1060 -0.2732
  168SAPS  H12X19060   2.526  -0.493  -1.403  0.5872  0.5187  3.9294
  168SAPS  H12Y19061   2.595  -0.322  -1.409  1.0237 -0.8130  1.3683
  168SAPS  C31319062   2.441  -0.384  -1.553  0.3589 -0.2105  0.2773
  168SAPS  H13X19063   2.415  -0.278  -1.576  0.7640  0.0295  0.8840
  168SAPS  H13Y19064   2.344  -0.438  -1.558 -0.1653  0.8480 -1.6991
  168SAPS  C31419065   2.540  -0.447  -1.655 -0.4981 -0.0824 -1.0812
  168SAPS  H14X19066   2.582  -0.546  -1.625  2.2708  1.1910 -0.4063
  168SAPS  H14Y19067   2.628  -0.379  -1.657 -0.6594  0.1373 -0.7866
  168SAPS  C31519068   2.494  -0.445  -1.800  0.1746  0.0878  0.7717
  168SAPS  H15X19069   2.468  -0.340  -1.824  0.5915  0.6271  2.6039
  168SAPS  H15Y19070   2.412  -0.519  -1.815  2.6775 -2.7810  0.3215
  168SAPS  C31619071   2.618  -0.477  -1.878  0.1060  0.3117  0.2636
  168SAPS  H16X19072   2.662  -0.568  -1.832 -0.7619  0.7427  2.0002
  168SAPS  H16Y19073   2.701  -0.403  -1.885  2.1194 -1.8245  0.4855
  168SAPS  C31719074   2.592  -0.516  -2.027  0.0510 -1.1261 -0.3443
  168SAPS  H17X19075   2.517  -0.448  -2.073  1.5935 -0.9468 -2.8024
  168SAPS  H17Y19076   2.558  -0.621  -2.036  1.1806 -1.6152  0.7807
  168SAPS  C31819077   2.722  -0.496  -2.114  0.2463 -0.2020  0.2367
  168SAPS  H18X19078   2.765  -0.397  -2.090  0.0937 -0.1282  0.2044
  168SAPS  H18Y19079   2.691  -0.501  -2.220  1.6328  4.0926 -0.5671
  168SAPS  H18Z19080   2.798  -0.575  -2.094  2.2766  1.6711  0.2066
  169SAPS     N19081   2.504   0.987   8.863  0.1404 -0.4936 -0.8317
  169SAPS   HN119082   2.537   1.070   8.916 -3.3358  0.2667  0.4072
  169SAPS   HN219083   2.551   0.900   8.894  0.3595  0.5507  2.1177
  169SAPS   HN319084   2.526   1.010   8.764 -2.6962 -2.7589 -2.0982
  169SAPS   C1219085   2.356   0.972   8.878  0.3043  0.0325 -0.1441
  169SAPS  H12A19086   2.336   0.891   8.810  1.2890 -0.7199  0.4172
  169SAPS   C1319087   2.316   0.911   9.014  0.2679  0.5440 -0.1941
  169SAPS  O13A19088   2.409   0.893   9.103  0.0559 -0.1334  0.0169
  169SAPS  O13B19089   2.202   0.883   9.047  0.1154 -0.3466  1.1965
  169SAPS   C1119090   2.280   1.099   8.846 -0.2261  0.1429 -0.2666
  169SAPS  H11A19091   2.173   1.086   8.822 -0.4542  0.0524  0.7922
  169SAPS  H11B19092   2.314   1.128   8.744 -0.8699  1.6616 -0.0738
  169SAPS     P19093   2.202   1.334   8.938 -0.4065 -0.0809 -0.0909
  169SAPS   O1319094   2.114   1.321   9.053  0.4149 -0.4337 -0.4599
  169SAPS   O1419095   2.287   1.455   8.923  0.7049  0.1048  0.1025
  169SAPS   O1219096   2.300   1.211   8.935  0.1988  0.7691  0.2523
  169SAPS   O1119097   2.113   1.321   8.809 -0.8338 -0.2019  0.7299
  169SAPS    C119098   2.082   1.430   8.726 -0.0828 -0.1269  0.1261
  169SAPS    HA19099   2.058   1.524   8.781  0.3697 -0.6527  1.2648
  169SAPS    HB19100   2.173   1.453   8.666 -0.1076  2.6507  0.9949
  169SAPS    C219101   1.963   1.393   8.630 -0.4400  0.1329  0.5376
  169SAPS    HS19102   1.939   1.478   8.564 -1.3870  0.5675  1.4170
  169SAPS   O2119103   1.843   1.361   8.701  0.0974  0.9977 -0.1595
  169SAPS   C2119104   1.776   1.462   8.743  0.1261  0.3618 -0.9305
  169SAPS   O2219105   1.800   1.580   8.717  0.1885  0.0657  0.4018
  169SAPS   C2219106   1.658   1.417   8.836 -0.0695  0.1559 -0.4896
  169SAPS   H2R19107   1.707   1.363   8.919  0.5385 -1.0058 -1.5784
  169SAPS   H2S19108   1.623   1.508   8.889  2.3407  0.9459 -0.1198
  169SAPS    C319109   2.002   1.274   8.531  0.0897 -0.2883  0.2264
  169SAPS    HX19110   1.913   1.253   8.469 -1.4457 -1.5058  2.6784
  169SAPS    HY19111   2.011   1.189   8.602  2.9339 -0.4291 -0.1883
  169SAPS   O3119112   2.117   1.304   8.450 -0.2786 -0.2708 -0.2684
  169SAPS   C3119113   2.190   1.196   8.419 -0.0128  0.5764 -0.5803
  169SAPS   O3219114   2.164   1.083   8.452  0.4540 -0.0010  0.2887
  169SAPS   C3219115   2.302   1.230   8.327  0.1238 -0.0491  0.0221
  169SAPS   H2X19116   2.354   1.315   8.376 -2.8306  1.3042  1.0260
  169SAPS   H2Y19117   2.261   1.264   8.229 -1.1921  1.7767  1.1491
  169SAPS   C2319118   1.541   1.353   8.760 -0.7893  0.0432  0.0260
  169SAPS   H3R19119   1.459   1.368   8.833  0.1337  1.5680  0.7981
  169SAPS   H3S19120   1.553   1.243   8.746  0.2270  0.1562 -0.0544
  169SAPS   C2419121   1.500   1.421   8.627 -0.0808 -0.2441  0.5510
  169SAPS   H4R19122   1.563   1.370   8.551 -1.8690 -1.8821  0.0973
  169SAPS   H4S19123   1.516   1.531   8.630  1.3655 -0.3796 -0.9054
  169SAPS   C2519124   1.357   1.398   8.583  0.1977  0.5048 -0.3349
  169SAPS   H5R19125   1.277   1.408   8.659  0.7589  0.9349  0.2127
  169SAPS   C2619126   1.308   1.363   8.460 -0.1072 -0.0224 -0.1825
  169SAPS   H6R19127   1.198   1.376   8.452 -0.2181 -0.1797  0.9853
  169SAPS   C2719128   1.394   1.327   8.336  0.7963  0.0847 -0.0612
  169SAPS   H7R19129   1.479   1.398   8.325  0.7589  0.0463 -0.6522
  169SAPS   H7S19130   1.323   1.327   8.251 -1.2399 -1.3899  1.5376
  169SAPS   C2819131   1.441   1.186   8.347  0.0620 -0.3917 -0.1944
  169SAPS   H8R19132   1.383   1.115   8.409  0.9784 -2.4473 -1.5621
  169SAPS   C2919133   1.560   1.146   8.297 -0.2539 -0.4521  0.4677
  169SAPS   H9R19134   1.570   1.038   8.312 -0.8309 -0.3778  1.4470
  169SAPS  C21019135   1.661   1.225   8.215  0.0690  0.4909  0.5033
  169SAPS  H10R19136   1.679   1.323   8.263 -1.1992  0.4768  1.0592
  169SAPS  H10S19137   1.621   1.252   8.115  0.4390  0.1100  0.2485
  169SAPS  C21119138   1.798   1.157   8.192 -0.2385  0.0611  0.1470
  169SAPS  H11R19139   1.856   1.134   8.283 -0.9972 -0.8669  0.4094
  169SAPS  C21219140   1.850   1.123   8.074 -0.1825 -0.5258  0.0727
  169SAPS  H12R19141   1.951   1.078   8.070  1.2763  2.4450  0.5280
  169SAPS  C21319142   1.805   1.144   7.931 -0.0988 -0.1183 -0.3571
  169SAPS  H13R19143   1.705   1.097   7.926  0.0566 -0.6542  0.9439
  169SAPS  H13S19144   1.870   1.075   7.872 -0.9471 -2.0276  0.8485
  169SAPS  C21419145   1.783   1.280   7.877  0.3392 -0.2321  0.0542
  169SAPS  H14R19146   1.747   1.354   7.950 -1.9647 -1.6165  0.4387
  169SAPS  C21519147   1.789   1.316   7.741  0.3972  0.7211 -1.0263
  169SAPS  H15R19148   1.771   1.424   7.729 -2.3744  0.6299  1.1874
  169SAPS  C21619149   1.821   1.231   7.623 -0.4714  0.3242 -0.2473
  169SAPS  H16R19150   1.739   1.157   7.609 -0.6988  0.4272  0.5010
  169SAPS  H16S19151   1.918   1.182   7.649  0.5770  2.2658 -0.2889
  169SAPS  C21719152   1.847   1.303   7.494 -0.0879  0.1373  0.0061
  169SAPS  H17R19153   1.751   1.349   7.463  0.0036  0.8048  0.6658
  169SAPS  H17S19154   1.874   1.234   7.412  0.7353  0.7624 -0.2681
  169SAPS  C21819155   1.945   1.419   7.506 -0.0255  0.1344 -0.2125
  169SAPS  H18R19156   2.043   1.372   7.528 -0.3109 -0.1868  0.4234
  169SAPS  H18S19157   1.914   1.496   7.580 -0.0815 -0.7255  0.6714
  169SAPS  C21919158   1.943   1.504   7.375 -0.1333  0.1728 -0.7727
  169SAPS  H19R19159   2.022   1.582   7.386 -0.6448  0.6437 -0.3755
  169SAPS  H19S19160   1.846   1.558   7.363  0.4361  2.7325  3.6205
  169SAPS  C22019161   1.960   1.433   7.243 -0.1133  0.1723  0.0016
  169SAPS  H20R19162   1.868   1.377   7.219  1.1344 -0.6432 -3.6086
  169SAPS  H20S19163   2.052   1.372   7.231  1.3013  2.5262 -2.3185
  169SAPS  H20T19164   1.971   1.502   7.156  0.1884 -0.7588 -0.7257
  169SAPS   C3319165   2.403   1.115   8.306 -0.9343  0.2508 -0.0445
  169SAPS   H3X19166   2.348   1.033   8.253  1.5678 -3.4560  2.5715
  169SAPS   H3Y19167   2.441   1.070   8.400 -0.4066  0.9576  0.0797
  169SAPS   C3419168   2.517   1.173   8.226  0.6675  0.4110 -0.0195
  169SAPS   H4X19169   2.617   1.159   8.274  1.2082  0.6866 -1.0380
  169SAPS   H4Y19170   2.496   1.281   8.211  1.6460  0.6213  0.0614
  169SAPS   C3519171   2.528   1.112   8.086 -0.0845  0.0316 -0.3885
  169SAPS   H5X19172   2.441   1.133   8.019 -0.0408  2.0446  0.1162
  169SAPS   H5Y19173   2.525   1.001   8.093  0.5842  0.0424  0.1339
  169SAPS   C3619174   2.656   1.146   8.008  0.0857  0.0424 -0.2710
  169SAPS   H6X19175   2.744   1.107   8.063  0.3025 -3.3138 -2.6484
  169SAPS   H6Y19176   2.679   1.253   7.986  1.7306  0.3733  2.5453
  169SAPS   C3719177   2.636   1.086   7.868 -0.0252  0.0017  0.0604
  169SAPS   H7X19178   2.560   1.141   7.808 -0.0295 -0.4294 -0.3336
  169SAPS   H7Y19179   2.598   0.982   7.883 -0.2433  0.1403  0.4847
  169SAPS   C3819180   2.778   1.075   7.800 -0.0829  0.4465 -0.0688
  169SAPS   H8X19181   2.858   1.028   7.861 -0.5991  1.8872  1.8129
  169SAPS   H8Y19182   2.808   1.181   7.786  1.0414  0.2423  0.6615
  169SAPS   C3919183   2.777   0.996   7.668 -0.1592  0.0174  0.1244
  169SAPS   H9X19184   2.741   0.892   7.680 -1.8195  0.1664 -2.5921
  169SAPS   H9Y19185   2.879   1.001   7.624 -0.7365  2.4001 -1.1263
  169SAPS  C31019186   2.685   1.063   7.554 -0.9547 -0.4357  0.0044
  169SAPS  H10X19187   2.702   1.173   7.558 -1.1222 -0.4180  0.2581
  169SAPS  H10Y19188   2.587   1.016   7.576 -1.8366  0.6112 -1.5297
  169SAPS  C31119189   2.719   1.024   7.407  0.2728 -0.0230  0.0574
  169SAPS  H11X19190   2.829   1.026   7.391 -0.0009 -0.6311 -2.3101
  169SAPS  H11Y19191   2.671   1.106   7.350 -0.4707 -0.6035 -0.1570
  169SAPS  C31219192   2.684   0.878   7.371  0.3135 -0.6915 -0.6556
  169SAPS  H12X19193   2.577   0.880   7.341 -0.1238 -2.3472  0.6204
  169SAPS  H12Y19194   2.693   0.809   7.458 -1.6042  0.2312  0.3554
  169SAPS  C31319195   2.761   0.810   7.257  0.0974  0.7706 -0.9860
  169SAPS  H13X19196   2.724   0.705   7.255 -0.3216  0.9012 -0.4494
  169SAPS  H13Y19197   2.868   0.805   7.288 -0.1537  1.1306 -0.0311
  169SAPS  C31419198   2.758   0.894   7.132 -0.3679 -0.5359  0.3793
  169SAPS  H14X19199   2.810   0.992   7.142  0.2365 -0.8689  0.5810
  169SAPS  H14Y19200   2.653   0.920   7.106 -0.2903  0.2412  0.7828
  169SAPS  C31519201   2.813   0.813   7.009 -0.0721  0.1851 -0.2486
  169SAPS  H15X19202   2.916   0.777   7.030  0.3349  1.1868 -0.4479
  169SAPS  H15Y19203   2.823   0.885   6.925  1.5601  0.9657  0.5694
  169SAPS  C31619204   2.724   0.698   6.959  0.1221  0.1370  0.2207
  169SAPS  H16X19205   2.638   0.745   6.907 -1.0871 -2.1529  0.0281
  169SAPS  H16Y19206   2.688   0.637   7.044 -0.6052 -0.4003 -0.4569
  169SAPS  C31719207   2.793   0.599   6.860  0.3381  0.2817 -1.0353
  169SAPS  H17X19208   2.872   0.549   6.921 -0.9070 -0.5554 -0.0518
  169SAPS  H17Y19209   2.839   0.632   6.764 -1.0727 -1.4898 -2.3976
  169SAPS  C31819210   2.694   0.478   6.824  0.4603 -0.7730 -0.2000
  169SAPS  H18X19211   2.599   0.523   6.786 -1.7598 -1.4611  3.9229
  169SAPS  H18Y19212   2.671   0.422   6.917 -0.1577 -0.7463 -0.3271
  169SAPS  H18Z19213   2.743   0.407   6.753  1.8944 -0.7052  0.6867
  170SAPS     N19214   5.015   4.899   0.521 -0.6478  0.0906 -0.0569
  170SAPS   HN119215   5.116   4.916   0.501 -0.7007  0.1722 -0.2552
  170SAPS   HN219216   4.991   4.805   0.485 -0.1428  0.0383 -0.2698
  170SAPS   HN319217   4.956   4.968   0.472  0.6439 -0.7940 -3.0963
  170SAPS   C1219218   5.003   4.904   0.673  0.4241 -1.2367 -0.2376
  170SAPS  H12A19219   5.056   4.993   0.705  0.4615 -0.1264 -3.1046
  170SAPS   C1319220   4.858   4.914   0.734 -0.2197  0.2498  0.8450
  170SAPS  O13A19221   4.759   4.938   0.663 -0.3376 -0.0009  0.4369
  170SAPS  O13B19222   4.847   4.908   0.862 -0.0571  0.0798 -0.2645
  170SAPS   C1119223   5.072   4.784   0.744 -0.1218 -0.4745  0.2311
  170SAPS  H11A19224   5.103   4.813   0.847  1.0551  2.1615 -0.7959
  170SAPS  H11B19225   5.167   4.754   0.695 -0.1031 -1.4420  0.8305
  170SAPS     P19226   4.949   4.558   0.658 -0.6350  0.0453  0.5819
  170SAPS   O1319227   5.053   4.450   0.648  0.1802 -1.0676 -0.1205
  170SAPS   O1419228   4.817   4.517   0.710  0.3502  0.4191  0.6527
  170SAPS   O1219229   4.993   4.670   0.766 -0.7067 -0.3287 -0.1554
  170SAPS   O1119230   4.936   4.645   0.523 -0.3092  0.5254 -0.5625
  170SAPS    C119231   4.954   4.553   0.412 -0.3593 -0.1115  0.8287
  170SAPS    HA19232   5.056   4.509   0.404 -0.6709 -0.8895  0.9930
  170SAPS    HB19233   4.891   4.462   0.412  0.6524 -0.8498 -0.3984
  170SAPS    C219234   4.912   4.618   0.276  0.0806  0.6814 -0.0720
  170SAPS    HS19235   4.910   4.530   0.208  1.7188  0.0762  0.5967
  170SAPS   O2119236   4.999   4.720   0.221 -0.2207 -0.3195 -0.2572
  170SAPS   C2119237   5.117   4.673   0.178  0.6156 -0.3333  0.5688
  170SAPS   O2219238   5.150   4.555   0.181 -0.5303  0.0158  0.1405
  170SAPS   C2219239   5.205   4.780   0.124  0.0254 -0.3472 -0.4378
  170SAPS   H2R19240   5.181   4.872   0.182  1.3566 -1.5943  2.2643
  170SAPS   H2S19241   5.310   4.752   0.148 -0.3785  0.1185  2.1029
  170SAPS    C319242   4.771   4.672   0.307 -0.0981  0.8320  0.2258
  170SAPS    HX19243   4.766   4.779   0.336 -0.1714  0.7680  0.4498
  170SAPS    HY19244   4.718   4.611   0.383 -1.1403 -0.3580 -1.3923
  170SAPS   O3119245   4.695   4.657   0.186 -0.1775 -1.6782  0.7060
  170SAPS   C3119246   4.697   4.756   0.096 -0.1790  0.6749  0.1803
  170SAPS   O3219247   4.764   4.856   0.105 -0.1986 -0.6589 -0.1505
  170SAPS   C3219248   4.602   4.727  -0.016  0.2919 -0.1037 -0.3740
  170SAPS   H2X19249   4.503   4.753   0.027 -0.0711 -0.6576 -0.8597
  170SAPS   H2Y19250   4.595   4.618  -0.037 -0.3092 -0.5537  1.8646
  170SAPS   C2319251   5.192   4.790  -0.025 -0.1254 -0.5450  0.6538
  170SAPS   H3R19252   5.183   4.687  -0.066 -0.4061 -0.3439  0.2162
  170SAPS   H3S19253   5.285   4.837  -0.062 -0.4404  1.3067  2.0584
  170SAPS   C2419254   5.082   4.889  -0.079 -0.1818  1.0302 -0.4170
  170SAPS   H4R19255   4.979   4.853  -0.055  0.7729 -1.9019 -0.3680
  170SAPS   H4S19256   5.093   4.893  -0.190  0.5196  1.8081 -0.3283
  170SAPS   C2519257   5.090   5.034  -0.041 -0.3228 -0.0344  1.1757
  170SAPS   H5R19258   5.056   5.063   0.060  2.9243  0.4325  2.2414
  170SAPS   C2619259   5.140   5.136  -0.120 -0.3474  0.2295 -0.1200
  170SAPS   H6R19260   5.146   5.231  -0.065 -2.3185  0.5545 -0.4172
  170SAPS   C2719261   5.206   5.134  -0.256  0.5811  0.3724 -0.5407
  170SAPS   H7R19262   5.128   5.127  -0.335 -1.0726 -0.5939  1.0783
  170SAPS   H7S19263   5.275   5.048  -0.272 -0.2155 -0.1159 -1.5094
  170SAPS   C2819264   5.292   5.253  -0.290 -0.5733  0.5462  0.1553
  170SAPS   H8R19265   5.255   5.344  -0.241 -0.0268 -0.0169  1.6817
  170SAPS   C2919266   5.394   5.262  -0.376  0.5668  0.4916  0.2658
  170SAPS   H9R19267   5.433   5.362  -0.397 -1.2417  0.8412 -1.6414
  170SAPS  C21019268   5.449   5.143  -0.464 -0.7922  0.0432  0.4763
  170SAPS  H10R19269   5.396   5.149  -0.561 -1.0769 -1.6646  0.5039
  170SAPS  H10S19270   5.416   5.043  -0.427  0.6267 -0.5787  0.1155
  170SAPS  C21119271   5.601   5.159  -0.470  0.7253  0.2931 -0.7034
  170SAPS  H11R19272   5.654   5.114  -0.385 -0.7333  2.3498  1.4008
  170SAPS  C21219273   5.665   5.202  -0.579  0.1782 -0.3884 -0.2547
  170SAPS  H12R19274   5.775   5.196  -0.585  0.1264 -1.1087 -0.6440
  170SAPS  C21319275   5.601   5.265  -0.708  0.5842 -0.3110 -0.9107
  170SAPS  H13R19276   5.663   5.357  -0.711  0.9722 -0.3504  2.5789
  170SAPS  H13S19277   5.497   5.297  -0.687  0.5980 -1.3883  1.0015
  170SAPS  C21419278   5.611   5.186  -0.833  0.3379 -0.3177  0.5099
  170SAPS  H14R19279   5.516   5.132  -0.850 -0.7494  1.7304 -0.1818
  170SAPS  C21519280   5.722   5.171  -0.911 -1.2494 -0.0826 -0.5492
  170SAPS  H15R19281   5.714   5.108  -1.001 -0.9785  2.0724 -2.1605
  170SAPS  C21619282   5.855   5.238  -0.891 -0.8034 -0.2713  0.5455
  170SAPS  H16R19283   5.929   5.155  -0.881  0.9347  1.4137  2.8163
  170SAPS  H16S19284   5.856   5.301  -0.799 -0.3760  0.8797 -0.2230
  170SAPS  C21719285   5.889   5.323  -1.018 -0.0771 -0.1138 -0.6695
  170SAPS  H17R19286   5.962   5.398  -0.980 -0.3364  0.0939 -0.5773
  170SAPS  H17S19287   5.799   5.375  -1.058 -1.5632 -2.1767 -0.2176
  170SAPS  C21819288   5.949   5.237  -1.135 -0.8867  0.0495 -0.6762
  170SAPS  H18R19289   5.943   5.136  -1.089  1.9224  0.2438  0.3558
  170SAPS  H18S19290   6.057   5.255  -1.155 -0.3601 -1.8666  0.2436
  170SAPS  C21919291   5.879   5.256  -1.270 -0.2142  0.5321 -0.1645
  170SAPS  H19R19292   5.898   5.361  -1.302 -2.6177  0.1702 -3.3222
  170SAPS  H19S19293   5.771   5.244  -1.245 -0.2498  0.8964 -0.1458
  170SAPS  C22019294   5.937   5.175  -1.383  0.6468  0.3734 -0.2573
  170SAPS  H20R19295   6.034   5.218  -1.418  0.6510  0.7381  0.1862
  170SAPS  H20S19296   5.864   5.183  -1.465 -0.0422 -1.3310  0.1417
  170SAPS  H20T19297   5.935   5.069  -1.350 -1.5588  0.3681 -0.2678
  170SAPS   C3319298   4.625   4.813  -0.136  0.0078 -0.1252  0.1520
  170SAPS   H3X19299   4.637   4.918  -0.101  1.6225 -0.2534  0.0791
  170SAPS   H3Y19300   4.528   4.821  -0.188  0.1747  3.2450  0.1322
  170SAPS   C3419301   4.726   4.761  -0.239  0.2011 -0.1337 -0.2083
  170SAPS   H4X19302   4.685   4.661  -0.268  3.0396 -1.0715 -1.3378
  170SAPS   H4Y19303   4.822   4.749  -0.184  0.4989  0.0190 -0.6872
  170SAPS   C3519304   4.734   4.862  -0.353 -0.9416  0.3404 -0.3520
  170SAPS   H5X19305   4.777   4.959  -0.320 -0.2966 -0.0718  0.0466
  170SAPS   H5Y19306   4.634   4.893  -0.389  0.0400  1.2056 -2.5167
  170SAPS   C3619307   4.809   4.796  -0.478 -0.3576 -0.1227 -0.6600
  170SAPS   H6X19308   4.882   4.724  -0.436  0.7877 -0.2618 -2.7435
  170SAPS   H6Y19309   4.872   4.867  -0.535  1.2317 -0.3949  0.6974
  170SAPS   C3719310   4.705   4.723  -0.558 -0.3507 -0.3302 -0.2358
  170SAPS   H7X19311   4.647   4.797  -0.617  0.4344 -0.7973 -1.6691
  170SAPS   H7Y19312   4.637   4.668  -0.490 -1.1477  1.8987  0.8698
  170SAPS   C3819313   4.755   4.631  -0.674  0.6493  1.0056 -0.0744
  170SAPS   H8X19314   4.820   4.551  -0.634 -0.8493  0.5077  1.4658
  170SAPS   H8Y19315   4.819   4.698  -0.736  0.4235  1.0240 -0.2899
  170SAPS   C3919316   4.647   4.581  -0.762  0.4477 -0.3405 -0.7056
  170SAPS   H9X19317   4.564   4.655  -0.769  0.3311 -0.3625  0.3073
  170SAPS   H9Y19318   4.613   4.490  -0.709  1.3904  1.3096  3.0659
  170SAPS  C31019319   4.706   4.566  -0.901  0.3224 -0.3608 -0.1623
  170SAPS  H10X19320   4.786   4.489  -0.897  0.1896 -0.5225 -0.6330
  170SAPS  H10Y19321   4.743   4.657  -0.952 -1.5390 -0.5677 -1.9937
  170SAPS  C31119322   4.604   4.509  -1.003  0.6670 -0.7049  0.2879
  170SAPS  H11X19323   4.502   4.552  -0.988  0.9955  0.0319  0.4521
  170SAPS  H11Y19324   4.603   4.405  -0.964  1.8306 -0.2869  1.4931
  170SAPS  C31219325   4.646   4.518  -1.151  0.4760  0.1224 -0.0134
  170SAPS  H12X19326   4.708   4.429  -1.176 -0.3970 -0.1787 -1.2139
  170SAPS  H12Y19327   4.711   4.607  -1.164 -0.5477  0.8211 -0.4166
  170SAPS  C31319328   4.536   4.528  -1.257  0.5769 -0.1911  0.4054
  170SAPS  H13X19329   4.469   4.606  -1.213  0.2401 -0.3128  0.1105
  170SAPS  H13Y19330   4.479   4.433  -1.262  0.9649 -0.4464  0.7542
  170SAPS  C31419331   4.594   4.551  -1.400 -0.1167  0.3462  0.4969
  170SAPS  H14X19332   4.678   4.477  -1.404 -0.6672 -0.3788  1.8967
  170SAPS  H14Y19333   4.638   4.652  -1.407  0.3275  0.2617  1.8242
  170SAPS  C31519334   4.489   4.520  -1.511 -0.5923  0.0928 -0.4719
  170SAPS  H15X19335   4.408   4.586  -1.473 -0.5890 -0.8204  1.2435
  170SAPS  H15Y19336   4.456   4.414  -1.509 -1.9623  0.5088  0.2975
  170SAPS  C31619337   4.525   4.561  -1.654  0.3979  0.9290  1.1071
  170SAPS  H16X19338   4.553   4.668  -1.664  1.3448  0.5433 -1.1103
  170SAPS  H16Y19339   4.436   4.547  -1.720  2.0144 -0.2659 -0.9533
  170SAPS  C31719340   4.649   4.496  -1.715  1.0567  0.3828  0.7627
  170SAPS  H17X19341   4.626   4.394  -1.750  1.5244  1.3820 -2.8554
  170SAPS  H17Y19342   4.738   4.486  -1.649  2.2329  0.3002 -0.7652
  170SAPS  C31819343   4.694   4.576  -1.844  0.0474  0.6192  0.2633
  170SAPS  H18X19344   4.790   4.539  -1.883  0.2557  0.0055  1.3080
  170SAPS  H18Y19345   4.715   4.681  -1.812  0.9109  0.3900  0.4657
  170SAPS  H18Z19346   4.603   4.577  -1.908 -1.6599  2.1703  2.5115
  171SAPS     N19347   0.848   4.196   0.433 -0.3832 -0.1385  0.1929
  171SAPS   HN119348   0.870   4.152   0.524  1.5548  1.7302  0.7061
  171SAPS   HN219349   0.882   4.137   0.354 -0.0793 -0.8857  0.8669
  171SAPS   HN319350   0.908   4.281   0.435  2.1815 -1.8257  1.5955
  171SAPS   C1219351   0.703   4.201   0.421 -0.2200  0.1993  0.1704
  171SAPS  H12A19352   0.660   4.126   0.487 -0.4764  0.5343  0.3852
  171SAPS   C1319353   0.661   4.339   0.476  0.4537  0.3817 -0.5590
  171SAPS  O13A19354   0.737   4.442   0.478 -0.3588 -0.4710  0.1496
  171SAPS  O13B19355   0.537   4.345   0.488  0.1056 -0.2162  0.3200
  171SAPS   C1119356   0.660   4.189   0.275 -0.5079  0.1535  0.1244
  171SAPS  H11A19357   0.712   4.267   0.216  0.9065  0.7527  2.0657
  171SAPS  H11B19358   0.552   4.214   0.267 -0.3870  0.5283 -0.3695
  171SAPS     P19359   0.589   3.937   0.260 -0.1788 -0.1136  0.4989
  171SAPS   O1319360   0.672   3.822   0.302  0.4402 -0.4700 -0.1421
  171SAPS   O1419361   0.481   3.979   0.350 -0.1252  0.3847  0.3545
  171SAPS   O1219362   0.689   4.058   0.216 -0.0926 -0.2470 -0.7959
  171SAPS   O1119363   0.522   3.908   0.119  0.2230  0.4099 -0.3693
  171SAPS    C119364   0.477   4.032   0.048 -0.4337  0.4138 -0.7374
  171SAPS    HA19365   0.430   4.107   0.115  1.7283  0.4553  0.7981
  171SAPS    HB19366   0.559   4.083  -0.006 -0.8892  0.5770 -1.2972
  171SAPS    C219367   0.369   3.994  -0.061  0.4706  0.2003 -0.5801
  171SAPS    HS19368   0.420   3.951  -0.150 -0.8139  0.9452 -1.7263
  171SAPS   O2119369   0.295   4.109  -0.095 -0.1758 -0.1996 -0.1255
  171SAPS   C2119370   0.347   4.189  -0.189  0.4162  0.4826  0.6558
  171SAPS   O2219371   0.442   4.158  -0.264  0.5524 -0.3176  0.4888
  171SAPS   C2219372   0.278   4.326  -0.182  0.0833  0.0360 -0.1131
  171SAPS   H2R19373   0.316   4.386  -0.267  0.6939 -0.8672 -0.4840
  171SAPS   H2S19374   0.174   4.290  -0.198  1.1034 -2.2745 -2.2136
  171SAPS    C319375   0.272   3.888  -0.010 -0.4893  0.1509 -0.1265
  171SAPS    HX19376   0.190   3.935   0.048  0.9720  1.1733  1.2041
  171SAPS    HY19377   0.320   3.818   0.062 -0.7011 -2.1080 -2.0839
  171SAPS   O3119378   0.236   3.804  -0.123 -0.7936 -0.1705  0.3049
  171SAPS   C3119379   0.106   3.778  -0.138  0.1580  0.1275  0.0724
  171SAPS   O3219380   0.022   3.801  -0.054 -0.1805 -0.4301  0.0616
  171SAPS   C3219381   0.072   3.755  -0.289  0.0590  0.2556 -0.3407
  171SAPS   H2X19382   0.163   3.731  -0.347 -1.8807 -1.1339 -3.0674
  171SAPS   H2Y19383   0.015   3.844  -0.322 -1.3923 -1.0701 -1.6088
  171SAPS   C2319384   0.288   4.401  -0.055 -0.6185 -0.6136 -0.1246
  171SAPS   H3R19385   0.300   4.343   0.039  0.7567 -0.5533 -0.2439
  171SAPS   H3S19386   0.202   4.471  -0.057  0.4163  0.6969 -2.2422
  171SAPS   C2419387   0.405   4.496  -0.072 -0.7111  0.2691 -0.1359
  171SAPS   H4R19388   0.405   4.574   0.007  0.2930 -0.9764  1.1384
  171SAPS   H4S19389   0.405   4.552  -0.168 -1.0048 -0.2693 -0.4595
  171SAPS   C2519390   0.533   4.426  -0.050  0.2021 -0.3089  0.5644
  171SAPS   H5R19391   0.533   4.374   0.047 -1.7459 -0.6340  0.4215
  171SAPS   C2619392   0.638   4.411  -0.134 -0.4400 -0.4322  0.1812
  171SAPS   H6R19393   0.720   4.344  -0.103  0.5861  0.4286 -0.5717
  171SAPS   C2719394   0.672   4.494  -0.257 -0.0541  0.5910  0.7148
  171SAPS   H7R19395   0.781   4.514  -0.245  0.1261 -0.6460  1.3039
  171SAPS   H7S19396   0.617   4.591  -0.260  0.3157  0.8173  1.0669
  171SAPS   C2819397   0.657   4.430  -0.398 -0.5951  0.1034  0.2411
  171SAPS   H8R19398   0.647   4.321  -0.397  1.4039 -0.1161  0.7328
  171SAPS   C2919399   0.682   4.506  -0.510  0.0107  0.3029  0.1079
  171SAPS   H9R19400   0.690   4.446  -0.602 -0.9037  0.0517  0.1850
  171SAPS  C21019401   0.709   4.648  -0.516 -0.1229  0.2124  0.2605
  171SAPS  H10R19402   0.714   4.698  -0.417 -0.0338  1.0064 -0.1442
  171SAPS  H10S19403   0.642   4.703  -0.585  0.0729  0.5312  0.3224
  171SAPS  C21119404   0.845   4.665  -0.584  0.2541 -0.2978 -0.5535
  171SAPS  H11R19405   0.933   4.647  -0.520  0.5795  0.7063 -0.6899
  171SAPS  C21219406   0.872   4.721  -0.706  0.9607 -0.6114 -0.1695
  171SAPS  H12R19407   0.976   4.728  -0.739  0.8925  0.9280 -0.1306
  171SAPS  C21319408   0.779   4.758  -0.825 -0.6728 -0.3685  0.0182
  171SAPS  H13R19409   0.790   4.868  -0.842  1.0953 -0.6446 -0.8161
  171SAPS  H13S19410   0.670   4.747  -0.805 -0.9435  0.1873 -1.0547
  171SAPS  C21419411   0.808   4.682  -0.954  0.4679  0.3713 -0.3789
  171SAPS  H14R19412   0.822   4.576  -0.928 -0.7191 -0.0546 -1.3341
  171SAPS  C21519413   0.828   4.742  -1.078 -0.5249 -0.0604  0.0038
  171SAPS  H15R19414   0.856   4.672  -1.158  0.9380 -0.0730  0.5142
  171SAPS  C21619415   0.825   4.888  -1.120 -0.0200  0.3430  0.1034
  171SAPS  H16R19416   0.918   4.911  -1.176 -0.6203  0.1974 -0.9825
  171SAPS  H16S19417   0.817   4.958  -1.034 -1.7117  0.1163  0.1551
  171SAPS  C21719418   0.707   4.918  -1.204  0.5635 -0.4138  0.6924
  171SAPS  H17R19419   0.717   5.016  -1.254 -2.7909  0.3722  1.3154
  171SAPS  H17S19420   0.618   4.923  -1.137  1.2434 -3.1130  1.9582
  171SAPS  C21819421   0.673   4.815  -1.315 -0.6149  0.5600  0.3063
  171SAPS  H18R19422   0.655   4.710  -1.281 -0.7964  0.7472  0.7934
  171SAPS  H18S19423   0.763   4.808  -1.380 -0.0396 -2.4679  1.2304
  171SAPS  C21919424   0.560   4.851  -1.411  0.0378  0.5929 -0.6605
  171SAPS  H19R19425   0.585   4.953  -1.447  2.9527 -0.3234 -1.5294
  171SAPS  H19S19426   0.465   4.848  -1.354  0.3429 -2.2189 -0.1489
  171SAPS  C22019427   0.534   4.761  -1.537  0.3758 -0.1170  0.0189
  171SAPS  H20R19428   0.425   4.772  -1.559 -0.1523 -1.6285  1.6234
  171SAPS  H20S19429   0.546   4.655  -1.506  0.9708 -1.1872 -3.4722
  171SAPS  H20T19430   0.593   4.779  -1.629 -0.4045  0.8435 -0.3173
  171SAPS   C3319431  -0.026   3.642  -0.335 -0.3558  0.6028  0.0508
  171SAPS   H3X19432  -0.122   3.644  -0.278  1.0402 -2.1265  2.8040
  171SAPS   H3Y19433   0.012   3.540  -0.315 -1.4300 -0.1472 -1.5588
  171SAPS   C3419434  -0.062   3.643  -0.481  0.0226 -0.1119 -0.1238
  171SAPS   H4X19435  -0.120   3.734  -0.505  2.4890  1.6184  0.0734
  171SAPS   H4Y19436  -0.114   3.551  -0.516 -1.2294  0.2796  0.6551
  171SAPS   C3519437   0.061   3.644  -0.573 -0.1965 -0.3727  0.1794
  171SAPS   H5X19438   0.112   3.547  -0.555 -1.7601 -1.2033  0.2657
  171SAPS   H5Y19439   0.140   3.719  -0.551 -1.7644  0.7685  2.1161
  171SAPS   C3619440   0.020   3.650  -0.725 -0.2758  0.3573 -0.1514
  171SAPS   H6X19441  -0.017   3.750  -0.755  1.9359  1.1133 -0.5535
  171SAPS   H6Y19442  -0.067   3.583  -0.735  1.1953 -1.5373 -0.8595
  171SAPS   C3719443   0.124   3.612  -0.831 -0.1147  0.1668  0.1712
  171SAPS   H7X19444   0.166   3.510  -0.818 -2.3010 -0.8356 -0.1024
  171SAPS   H7Y19445   0.205   3.686  -0.821 -0.4962  0.4687  1.1303
  171SAPS   C3819446   0.056   3.613  -0.967 -0.0746 -0.0251  0.4550
  171SAPS   H8X19447   0.012   3.715  -0.970 -0.6495 -0.2273  1.5263
  171SAPS   H8Y19448  -0.029   3.542  -0.973  0.1583 -0.2989  0.3233
  171SAPS   C3919449   0.144   3.575  -1.087  0.5405 -0.3480  0.7096
  171SAPS   H9X19450   0.169   3.468  -1.067  1.9457 -0.0609  0.6034
  171SAPS   H9Y19451   0.241   3.628  -1.079 -0.0415  0.8267  0.2979
  171SAPS  C31019452   0.068   3.578  -1.222  0.0513  0.1529  0.1348
  171SAPS  H10X19453   0.038   3.683  -1.245 -3.4411 -1.5317 -4.6816
  171SAPS  H10Y19454  -0.026   3.520  -1.214  0.6176 -0.7362  0.5120
  171SAPS  C31119455   0.162   3.536  -1.340 -0.6586  0.2099  0.2904
  171SAPS  H11X19456   0.177   3.429  -1.314  3.1047  0.2486 -1.1229
  171SAPS  H11Y19457   0.259   3.585  -1.320 -1.0868  0.5109  1.7715
  171SAPS  C31219458   0.127   3.572  -1.484  0.3713 -0.0808 -0.0753
  171SAPS  H12X19459   0.109   3.680  -1.503  2.9433  0.0154 -2.6135
  171SAPS  H12Y19460   0.040   3.511  -1.517  0.6319 -1.0799  0.9895
  171SAPS  C31319461   0.245   3.537  -1.580 -0.0126  1.1562 -0.5012
  171SAPS  H13X19462   0.272   3.430  -1.572 -1.0958  0.8256 -1.0056
  171SAPS  H13Y19463   0.336   3.580  -1.534 -0.9082  0.1231  2.4480
  171SAPS  C31419464   0.236   3.564  -1.730  0.4025 -0.1291  0.4342
  171SAPS  H14X19465   0.150   3.515  -1.780 -0.1508 -0.8856  2.0594
  171SAPS  H14Y19466   0.335   3.535  -1.772 -0.2855 -0.5548 -0.9399
  171SAPS  C31519467   0.214   3.711  -1.746  0.5237 -0.2686  0.6712
  171SAPS  H15X19468   0.109   3.735  -1.716  1.2020  2.8169  0.9322
  171SAPS  H15Y19469   0.225   3.729  -1.855 -1.5080  2.2204  0.7533
  171SAPS  C31619470   0.319   3.799  -1.673  0.3024 -0.5007  0.5148
  171SAPS  H16X19471   0.406   3.730  -1.675  0.5508 -0.2819  2.1182
  171SAPS  H16Y19472   0.295   3.814  -1.565 -0.9187  2.8245 -0.0868
  171SAPS  C31719473   0.334   3.934  -1.746 -0.5064 -0.0448 -0.2549
  171SAPS  H17X19474   0.251   4.003  -1.719  1.1970  1.2335  2.1208
  171SAPS  H17Y19475   0.343   3.906  -1.853 -1.1455 -4.0568  0.5877
  171SAPS  C31819476   0.462   4.006  -1.707 -0.2733  0.4284 -0.9648
  171SAPS  H18X19477   0.468   4.113  -1.734 -1.4549  0.6948 -0.2464
  171SAPS  H18Y19478   0.552   3.943  -1.726  0.4664  1.4332 -0.8786
  171SAPS  H18Z19479   0.456   4.020  -1.597 -0.1784 -0.8814 -0.7676
  172SAPS     N19480   5.597   0.756   0.304 -0.0113 -0.5501  0.0276
  172SAPS   HN119481   5.669   0.755   0.230 -1.3512  0.9515 -1.3803
  172SAPS   HN219482   5.585   0.668   0.359  2.4644  0.6032  2.6392
  172SAPS   HN319483   5.509   0.787   0.258  0.0171  2.6208  1.8239
  172SAPS   C1219484   5.647   0.858   0.411  0.0340  0.4434  0.1882
  172SAPS  H12A19485   5.576   0.856   0.492 -0.3516  1.0270 -0.1211
  172SAPS   C1319486   5.789   0.823   0.468 -0.1400 -0.0508 -0.3417
  172SAPS  O13A19487   5.857   0.730   0.414 -0.1496  0.0349  0.3999
  172SAPS  O13B19488   5.840   0.903   0.552  0.3189  0.1899 -0.1695
  172SAPS   C1119489   5.643   0.998   0.351  0.6577  0.4554 -0.0039
  172SAPS  H11A19490   5.720   0.999   0.271  0.2973 -3.7080 -0.6448
  172SAPS  H11B19491   5.669   1.073   0.428 -1.0881  1.0926  0.0226
  172SAPS     P19492   5.454   1.170   0.308  0.1585 -0.0221 -0.1513
  172SAPS   O1319493   5.311   1.157   0.343  0.1088 -0.0157 -0.7624
  172SAPS   O1419494   5.545   1.256   0.386 -0.6646  0.0723 -0.0055
  172SAPS   O1219495   5.513   1.028   0.292  0.4793 -0.3610 -0.6012
  172SAPS   O1119496   5.448   1.221   0.161  0.4643  0.5918  0.1264
  172SAPS    C119497   5.368   1.153   0.064 -0.6129  0.6280 -0.2240
  172SAPS    HA19498   5.287   1.087   0.102 -2.1797  1.5534 -1.8212
  172SAPS    HB19499   5.320   1.227  -0.005  1.3820  2.7452  0.5242
  172SAPS    C219500   5.466   1.070  -0.024  0.6660  0.7970  0.4366
  172SAPS    HS19501   5.517   0.998   0.044  1.7714 -0.8309 -1.9443
  172SAPS   O2119502   5.571   1.151  -0.085  0.5965 -0.2639 -0.9018
  172SAPS   C2119503   5.684   1.091  -0.115  0.0314  0.8763 -0.5027
  172SAPS   O2219504   5.714   0.977  -0.083 -0.4615 -0.1503  0.7298
  172SAPS   C2219505   5.777   1.198  -0.178  0.2928 -0.0447  0.1474
  172SAPS   H2R19506   5.719   1.290  -0.201 -0.7378 -0.5100  0.8323
  172SAPS   H2S19507   5.853   1.222  -0.101 -0.9271 -0.2083  1.4245
  172SAPS    C319508   5.379   0.984  -0.130 -0.4094  0.5516 -0.2205
  172SAPS    HX19509   5.332   1.058  -0.199 -1.5273  0.5992  0.5714
  172SAPS    HY19510   5.295   0.934  -0.079 -0.4594 -0.5178 -1.3028
  172SAPS   O3119511   5.444   0.902  -0.230  0.0678 -0.3104  0.0414
  172SAPS   C3119512   5.449   0.771  -0.214  0.2562  0.3916  0.1661
  172SAPS   O3219513   5.387   0.713  -0.128  0.7752 -0.1671 -0.1610
  172SAPS   C3219514   5.546   0.708  -0.318  0.0343 -0.0380 -0.0390
  172SAPS   H2X19515   5.621   0.650  -0.260 -1.2411 -0.2611  1.4539
  172SAPS   H2Y19516   5.590   0.796  -0.370 -1.8899  0.4677 -0.9082
  172SAPS   C2319517   5.845   1.130  -0.301 -0.3860  0.2033 -0.6797
  172SAPS   H3R19518   5.760   1.096  -0.364 -0.8258 -0.1481  0.0851
  172SAPS   H3S19519   5.908   1.047  -0.262  1.4971  2.1383  0.6438
  172SAPS   C2419520   5.940   1.218  -0.386  0.4623  0.3633  0.4431
  172SAPS   H4R19521   6.038   1.239  -0.338 -0.0894  1.0321  1.3024
  172SAPS   H4S19522   5.897   1.316  -0.413  1.6102  1.2394  1.6681
  172SAPS   C2519523   5.977   1.150  -0.511  0.0707  0.6812  0.9844
  172SAPS   H5R19524   6.022   1.051  -0.490 -2.3819 -1.1462 -1.6607
  172SAPS   C2619525   5.949   1.187  -0.637  0.1880  0.1085  0.2208
  172SAPS   H6R19526   5.981   1.121  -0.718 -0.4414  0.5518 -0.3949
  172SAPS   C2719527   5.875   1.307  -0.699 -0.4809 -0.0837  0.3013
  172SAPS   H7R19528   5.933   1.336  -0.789  0.6491 -0.6085  0.8388
  172SAPS   H7S19529   5.877   1.392  -0.627 -1.9616 -1.9430  2.6458
  172SAPS   C2819530   5.736   1.272  -0.744  0.3465 -0.7343 -0.1277
  172SAPS   H8R19531   5.679   1.243  -0.655 -0.5239 -0.4203 -0.5770
  172SAPS   C2919532   5.682   1.281  -0.872  0.4420  0.4858  0.7580
  172SAPS   H9R19533   5.576   1.252  -0.872  0.0045  1.9828  1.3426
  172SAPS  C21019534   5.756   1.308  -1.005  0.0926  0.1909 -0.0469
  172SAPS  H10R19535   5.788   1.212  -1.051  3.2478  0.7272  0.8111
  172SAPS  H10S19536   5.844   1.372  -0.982  1.1778 -0.5738 -1.8691
  172SAPS  C21119537   5.676   1.378  -1.107 -0.2297 -0.0647 -0.3563
  172SAPS  H11R19538   5.684   1.488  -1.102  2.0137 -0.2122  0.6533
  172SAPS  C21219539   5.600   1.327  -1.200  1.1344  0.1360  0.5143
  172SAPS  H12R19540   5.543   1.397  -1.264  0.0698 -1.9597 -0.9413
  172SAPS  C21319541   5.572   1.183  -1.229 -0.5768 -0.2771  0.2924
  172SAPS  H13R19542   5.466   1.157  -1.208 -0.4877  0.3013  1.5572
  172SAPS  H13S19543   5.640   1.116  -1.173 -0.1768 -1.1817 -1.2434
  172SAPS  C21419544   5.594   1.150  -1.374  0.3526  0.1612  0.2350
  172SAPS  H14R19545   5.700   1.132  -1.395  1.4255  1.6480  3.6497
  172SAPS  C21519546   5.505   1.161  -1.478 -0.6271 -0.7495 -0.1816
  172SAPS  H15R19547   5.528   1.116  -1.575 -0.5284 -2.0781  0.4384
  172SAPS  C21619548   5.366   1.210  -1.462 -0.3072  0.7592 -0.3622
  172SAPS  H16R19549   5.343   1.277  -1.548 -0.0299 -0.1790 -1.1850
  172SAPS  H16S19550   5.342   1.262  -1.367 -0.8262 -0.6670  0.3222
  172SAPS  C21719551   5.267   1.093  -1.484 -0.1466  0.0512  0.3805
  172SAPS  H17R19552   5.259   1.010  -1.410  0.9164  0.0196  0.4810
  172SAPS  H17S19553   5.284   1.043  -1.581  0.6922 -0.3312  0.7151
  172SAPS  C21819554   5.124   1.157  -1.493 -0.4799  0.1313  0.1545
  172SAPS  H18R19555   5.058   1.092  -1.554 -1.2729  1.6853 -0.6942
  172SAPS  H18S19556   5.133   1.258  -1.537  1.1712 -0.8433 -1.8997
  172SAPS  C21919557   5.046   1.163  -1.360 -0.3348 -0.5146  0.1553
  172SAPS  H19R19558   5.019   1.062  -1.323 -1.5986  0.1244  1.0999
  172SAPS  H19S19559   4.952   1.214  -1.393 -0.1021  0.0924  0.4129
  172SAPS  C22019560   5.111   1.244  -1.248  0.0550  0.4044 -0.2536
  172SAPS  H20R19561   5.145   1.344  -1.281  2.9759  0.3597  2.2318
  172SAPS  H20S19562   5.197   1.193  -1.200  0.3713  1.4436  0.3192
  172SAPS  H20T19563   5.035   1.271  -1.172 -0.9584 -1.3101 -0.6029
  172SAPS   C3319564   5.476   0.609  -0.413 -0.3460  0.5827 -0.8399
  172SAPS   H3X19565   5.526   0.611  -0.512 -2.2311  0.6372 -1.8315
  172SAPS   H3Y19566   5.372   0.642  -0.433 -0.7518  0.4695  0.9456
  172SAPS   C3419567   5.489   0.464  -0.362 -0.0589 -0.7321  0.2187
  172SAPS   H4X19568   5.417   0.442  -0.281 -1.6539  2.1819 -0.2581
  172SAPS   H4Y19569   5.596   0.441  -0.340  0.1471  1.3383  1.6294
  172SAPS   C3519570   5.430   0.373  -0.475 -0.5614 -0.3361 -0.2503
  172SAPS   H5X19571   5.481   0.388  -0.572  0.6042  4.3345  0.8298
  172SAPS   H5Y19572   5.324   0.401  -0.492  0.5075  2.3301 -3.6298
  172SAPS   C3619573   5.439   0.229  -0.427  0.0472  0.3848 -0.4137
  172SAPS   H6X19574   5.371   0.213  -0.341 -1.3091 -0.2233 -1.5635
  172SAPS   H6Y19575   5.540   0.199  -0.392  0.0491  0.4017 -0.4052
  172SAPS   C3719576   5.389   0.121  -0.530  0.1690  0.7792 -0.8266
  172SAPS   H7X19577   5.424   0.141  -0.633 -4.3059 -1.1887 -2.9986
  172SAPS   H7Y19578   5.278   0.120  -0.537  0.2281  0.8013 -1.8924
  172SAPS   C3819579   5.444  -0.023  -0.495  0.1278 -0.0469 -0.9901
  172SAPS   H8X19580   5.414  -0.045  -0.391 -1.6849 -0.1544 -1.4939
  172SAPS   H8Y19581   5.555  -0.031  -0.504  0.1900 -1.4581  0.5455
  172SAPS   C3919582   5.385  -0.135  -0.580 -0.0030 -0.0726 -0.4289
  172SAPS   H9X19583   5.284  -0.167  -0.545 -1.9645  1.0218 -4.4540
  172SAPS   H9Y19584   5.446  -0.227  -0.579 -0.6930 -0.5398  0.5345
  172SAPS  C31019585   5.375  -0.101  -0.733 -0.0543 -0.8731 -0.3880
  172SAPS  H10X19586   5.478  -0.085  -0.773 -0.0034 -1.3557 -0.4598
  172SAPS  H10Y19587   5.309  -0.015  -0.756 -1.8291 -2.2801 -0.7391
  172SAPS  C31119588   5.317  -0.220  -0.810 -0.0198 -0.9978 -0.4038
  172SAPS  H11X19589   5.219  -0.255  -0.770 -0.6697 -1.4964 -2.3308
  172SAPS  H11Y19590   5.399  -0.294  -0.794  0.3671 -0.8401 -1.5888
  172SAPS  C31219591   5.309  -0.189  -0.959 -0.0347  0.4298  1.0081
  172SAPS  H12X19592   5.409  -0.184  -1.006  0.1165 -1.5624  1.0581
  172SAPS  H12Y19593   5.249  -0.096  -0.966  1.4067  1.3441  0.3381
  172SAPS  C31319594   5.249  -0.316  -1.036  0.5836  0.1066  0.4816
  172SAPS  H13X19595   5.165  -0.354  -0.974  1.4556 -1.0112  0.9907
  172SAPS  H13Y19596   5.330  -0.391  -1.049 -3.1085 -4.0362 -1.1340
  172SAPS  C31419597   5.202  -0.288  -1.177  0.8287  0.0806 -0.1894
  172SAPS  H14X19598   5.166  -0.386  -1.214  2.3221 -0.3749 -0.5041
  172SAPS  H14Y19599   5.289  -0.256  -1.238  1.7112 -0.5157  0.7173
  172SAPS  C31519600   5.087  -0.184  -1.185 -0.0258 -0.1646 -0.3996
  172SAPS  H15X19601   5.128  -0.094  -1.133  2.1678 -2.2657  1.7972
  172SAPS  H15Y19602   4.996  -0.217  -1.132 -0.7157  1.1013 -0.7530
  172SAPS  C31619603   5.063  -0.145  -1.333 -0.4648  0.1214  0.0199
  172SAPS  H16X19604   5.026  -0.040  -1.337  0.5300  0.4747 -3.5499
  172SAPS  H16Y19605   5.150  -0.150  -1.401 -0.7790  0.7908 -0.4465
  172SAPS  C31719606   4.951  -0.238  -1.391 -0.1155  0.2446  0.3731
  172SAPS  H17X19607   4.875  -0.267  -1.316 -0.4389  2.0792  0.8053
  172SAPS  H17Y19608   4.998  -0.327  -1.437 -0.9406  0.0493 -0.1298
  172SAPS  C31819609   4.869  -0.168  -1.499 -0.0090 -0.1850 -0.1277
  172SAPS  H18X19610   4.824  -0.241  -1.570  1.4681 -0.4185 -0.8501
  172SAPS  H18Y19611   4.937  -0.109  -1.563  0.1884 -0.4404 -0.1541
  172SAPS  H18Z19612   4.793  -0.107  -1.445  0.3066  0.9745 -0.9849
  173SAPS     N19613   2.149   2.198   4.125 -0.5471  0.7162  0.4099
  173SAPS   HN119614   2.225   2.162   4.187  0.2623 -1.1919 -1.5510
  173SAPS   HN219615   2.079   2.245   4.185 -0.2856  1.6397  0.0090
  173SAPS   HN319616   2.107   2.113   4.084  1.2932  0.7067 -1.6553
  173SAPS   C1219617   2.215   2.281   4.027  0.1636 -0.2586 -0.2186
  173SAPS  H12A19618   2.302   2.226   3.993 -1.5178 -2.1623 -1.6491
  173SAPS   C1319619   2.126   2.317   3.907  0.0430 -0.0978  0.6705
  173SAPS  O13A19620   2.009   2.272   3.907 -0.6141 -0.6617  0.8231
  173SAPS  O13B19621   2.175   2.383   3.812  0.2321  0.6374 -0.3807
  173SAPS   C1119622   2.264   2.413   4.101 -0.2464  0.2020  0.4776
  173SAPS  H11A19623   2.183   2.485   4.128  1.4802  2.6474 -0.5080
  173SAPS  H11B19624   2.331   2.452   4.022  0.2321 -2.2082 -0.3603
  173SAPS     P19625   2.371   2.493   4.329  0.2848  0.1531  0.2000
  173SAPS   O1319626   2.484   2.448   4.407  0.3776 -0.2578  0.2574
  173SAPS   O1419627   2.387   2.621   4.257  0.3553  0.1693 -0.3709
  173SAPS   O1219628   2.345   2.380   4.217  0.5579  0.6302  0.8524
  173SAPS   O1119629   2.240   2.478   4.417 -0.1774  0.6133 -0.0203
  173SAPS    C119630   2.232   2.365   4.508 -0.4499  0.3918 -0.2380
  173SAPS    HA19631   2.228   2.266   4.457 -2.0568  0.1188  0.3535
  173SAPS    HB19632   2.322   2.368   4.573 -1.4732  3.3723  1.2217
  173SAPS    C219633   2.107   2.366   4.591  0.6028  0.3579  0.1819
  173SAPS    HS19634   2.024   2.358   4.519  0.7077  3.0210 -0.3112
  173SAPS   O2119635   2.093   2.484   4.673 -0.2879  0.0742  0.0358
  173SAPS   C2119636   1.975   2.505   4.721 -0.0350  0.7548 -0.3725
  173SAPS   O2219637   1.875   2.446   4.677  0.1922  0.1420  0.1354
  173SAPS   C2219638   1.993   2.604   4.832  0.0456  0.0781 -0.3408
  173SAPS   H2R19639   2.101   2.623   4.850  0.4215  0.3030 -2.5436
  173SAPS   H2S19640   1.950   2.697   4.788 -0.0972  0.0568 -0.2467
  173SAPS    C319641   2.091   2.235   4.683  0.1029 -1.3841  0.5278
  173SAPS    HX19642   2.078   2.138   4.632 -2.2038 -0.9334  0.1510
  173SAPS    HY19643   1.998   2.240   4.744 -0.5447 -0.4696 -0.4932
  173SAPS   O3119644   2.180   2.230   4.793 -0.0093  0.1039 -0.2409
  173SAPS   C3119645   2.287   2.152   4.772  0.0905  0.4727  0.0560
  173SAPS   O3219646   2.313   2.100   4.667 -0.0988  0.0600  0.4617
  173SAPS   C3219647   2.368   2.134   4.903  0.0643 -0.7264 -0.0508
  173SAPS   H2X19648   2.470   2.171   4.878 -0.7855  0.6071 -1.7327
  173SAPS   H2Y19649   2.379   2.026   4.927 -1.6089 -1.3806 -1.9498
  173SAPS   C2319650   1.926   2.559   4.965 -0.3936 -0.0242  0.7671
  173SAPS   H3R19651   1.833   2.500   4.948 -0.4734  0.7091 -1.8080
  173SAPS   H3S19652   1.893   2.650   5.018 -0.2340 -0.1387  1.0664
  173SAPS   C2419653   2.020   2.491   5.058  0.1461 -0.0578  0.1996
  173SAPS   H4R19654   2.042   2.392   5.013 -1.4882 -0.6710  0.6846
  173SAPS   H4S19655   1.971   2.469   5.156  0.8032 -2.3125  0.0743
  173SAPS   C2519656   2.147   2.564   5.087 -0.8810 -0.6778 -0.1967
  173SAPS   H5R19657   2.219   2.576   5.004 -0.7648  0.3298  0.0300
  173SAPS   C2619658   2.179   2.618   5.204 -0.1690 -0.3254  0.7161
  173SAPS   H6R19659   2.272   2.677   5.200  1.6023 -3.0391 -2.0843
  173SAPS   C2719660   2.108   2.619   5.340  0.1693 -0.0606  0.1935
  173SAPS   H7R19661   2.038   2.533   5.343  1.5409 -1.1886  0.8802
  173SAPS   H7S19662   2.043   2.709   5.351 -1.4328 -1.3020  1.1950
  173SAPS   C2819663   2.201   2.595   5.454 -0.2815 -0.5971 -0.0776
  173SAPS   H8R19664   2.290   2.533   5.435  0.3961  1.0929 -2.8800
  173SAPS   C2919665   2.178   2.639   5.580  0.0724  0.3665  0.7293
  173SAPS   H9R19666   2.260   2.619   5.651  0.1660 -1.7909  0.0864
  173SAPS  C21019667   2.056   2.717   5.634 -0.3168 -0.4540 -0.2457
  173SAPS  H10R19668   1.996   2.765   5.553  0.1323 -1.0017 -0.9153
  173SAPS  H10S19669   2.097   2.799   5.697 -0.0912 -1.1918  0.5922
  173SAPS  C21119670   1.963   2.620   5.700  0.1979 -0.5978 -0.2662
  173SAPS  H11R19671   1.946   2.524   5.648 -0.4322 -0.8286  0.3511
  173SAPS  C21219672   1.907   2.629   5.823 -0.1181 -0.0002  0.6055
  173SAPS  H12R19673   1.852   2.539   5.854 -2.1275 -0.6277 -3.9408
  173SAPS  C21319674   1.922   2.743   5.928  0.6525 -0.3854 -0.5443
  173SAPS  H13R19675   1.979   2.832   5.894  0.8350  0.1581  1.1319
  173SAPS  H13S19676   1.971   2.706   6.020  3.6778  2.2908 -0.8812
  173SAPS  C21419677   1.789   2.801   5.965  0.5446 -0.6266 -0.1370
  173SAPS  H14R19678   1.758   2.899   5.925  0.6617 -0.0685  1.0908
  173SAPS  C21519679   1.703   2.746   6.058  0.5901  0.5879 -0.0912
  173SAPS  H15R19680   1.603   2.786   6.079  0.9114  1.3440  0.0161
  173SAPS  C21619681   1.724   2.626   6.143  0.6396  0.1408  0.1897
  173SAPS  H16R19682   1.774   2.551   6.078 -0.5304 -0.0575 -0.5072
  173SAPS  H16S19683   1.635   2.580   6.190  0.3613  1.6773  1.2095
  173SAPS  C21719684   1.820   2.659   6.270  0.1956  0.9239  0.4710
  173SAPS  H17R19685   1.913   2.702   6.228 -0.7276  0.0987 -2.6747
  173SAPS  H17S19686   1.837   2.556   6.309  1.0084  0.1258 -1.8427
  173SAPS  C21819687   1.755   2.751   6.375 -0.0960  0.7742 -0.7729
  173SAPS  H18R19688   1.655   2.710   6.401  2.1536 -3.0747  3.1956
  173SAPS  H18S19689   1.750   2.855   6.336  0.3304  0.6059 -1.2941
  173SAPS  C21919690   1.837   2.762   6.504  0.3836 -0.3907 -0.0119
  173SAPS  H19R19691   1.940   2.790   6.473  0.2608  1.4582  1.1152
  173SAPS  H19S19692   1.843   2.670   6.566 -2.4253 -0.1003  0.8099
  173SAPS  C22019693   1.786   2.879   6.597  0.8113 -0.1956 -0.2794
  173SAPS  H20R19694   1.871   2.883   6.668  1.2346 -0.1841 -0.7813
  173SAPS  H20S19695   1.687   2.850   6.639  0.2237  1.8352 -0.1414
  173SAPS  H20T19696   1.784   2.970   6.533 -0.4964 -1.4756 -2.1672
  173SAPS   C3319697   2.302   2.195   5.029 -0.3941 -0.1515  0.5477
  173SAPS   H3X19698   2.195   2.169   5.043 -0.9690  1.0252 -1.3229
  173SAPS   H3Y19699   2.309   2.306   5.032 -1.9589 -0.0193  0.5166
  173SAPS   C3419700   2.370   2.145   5.155  0.3385 -0.3588  0.1508
  173SAPS   H4X19701   2.476   2.163   5.128  1.0740  0.8219  3.3816
  173SAPS   H4Y19702   2.365   2.037   5.178  0.7962 -0.7123 -1.3091
  173SAPS   C3519703   2.328   2.223   5.283 -0.4303  0.0523 -0.1293
  173SAPS   H5X19704   2.221   2.198   5.293 -0.3257 -1.0406 -1.4971
  173SAPS   H5Y19705   2.343   2.330   5.255  0.7559  0.8718  3.1191
  173SAPS   C3619706   2.393   2.170   5.404 -0.4162  1.0075 -0.2821
  173SAPS   H6X19707   2.496   2.213   5.402 -0.3832  0.9239 -0.4093
  173SAPS   H6Y19708   2.406   2.060   5.392 -2.5197  0.8643 -1.8711
  173SAPS   C3719709   2.308   2.202   5.527  0.3208 -0.3668 -0.0667
  173SAPS   H7X19710   2.218   2.136   5.523 -0.6976  1.0368 -2.1605
  173SAPS   H7Y19711   2.268   2.305   5.516 -0.4612 -0.7470 -1.0269
  173SAPS   C3819712   2.380   2.192   5.667  0.2505  0.0437  0.0404
  173SAPS   H8X19713   2.469   2.258   5.661 -0.2165  0.6006 -1.0216
  173SAPS   H8Y19714   2.411   2.086   5.684  1.2504 -0.2125 -2.9370
  173SAPS   C3919715   2.293   2.232   5.787  0.0009  0.1548 -0.6478
  173SAPS   H9X19716   2.210   2.163   5.816 -2.3981  3.0044 -0.1474
  173SAPS   H9Y19717   2.236   2.327   5.772  0.6283  1.2793  2.9939
  173SAPS  C31019718   2.391   2.269   5.907  0.4272 -0.4784 -0.1729
  173SAPS  H10X19719   2.446   2.360   5.877  2.0845 -1.8296 -1.4150
  173SAPS  H10Y19720   2.474   2.195   5.910  1.5387  0.7667  0.6230
  173SAPS  C31119721   2.324   2.265   6.043 -0.0004  0.2772 -0.1401
  173SAPS  H11X19722   2.279   2.166   6.065 -0.5686  0.6655  0.5235
  173SAPS  H11Y19723   2.235   2.331   6.034 -2.2499 -2.2671  1.7546
  173SAPS  C31219724   2.427   2.309   6.147  0.8192  0.1214 -0.1881
  173SAPS  H12X19725   2.482   2.398   6.109  0.3041 -0.1552 -1.6637
  173SAPS  H12Y19726   2.508   2.234   6.158  0.5146 -0.6256 -2.4567
  173SAPS  C31319727   2.357   2.319   6.284 -0.4722 -0.6094 -0.2618
  173SAPS  H13X19728   2.301   2.224   6.299 -2.2653  0.6100  1.1268
  173SAPS  H13Y19729   2.291   2.408   6.285  2.5023  1.7417  0.5386
  173SAPS  C31419730   2.457   2.339   6.400 -0.2867  0.0916 -0.3081
  173SAPS  H14X19731   2.510   2.435   6.384  1.0869 -0.6257 -0.2063
  173SAPS  H14Y19732   2.528   2.254   6.402 -1.5006 -0.9379  1.6903
  173SAPS  C31519733   2.384   2.344   6.537 -0.2772  0.1543  1.0144
  173SAPS  H15X19734   2.355   2.240   6.561 -1.6270 -0.0735 -1.2666
  173SAPS  H15Y19735   2.289   2.400   6.541 -0.7207 -0.6288  1.7181
  173SAPS  C31619736   2.469   2.403   6.654 -0.1655 -0.2720  0.3309
  173SAPS  H16X19737   2.492   2.508   6.625  0.9122 -0.8945 -1.1649
  173SAPS  H16Y19738   2.562   2.344   6.648  0.4984  0.8794 -3.9004
  173SAPS  C31719739   2.414   2.400   6.798 -0.5739  0.4305 -0.5659
  173SAPS  H17X19740   2.411   2.294   6.832 -0.1418  1.2640  2.3855
  173SAPS  H17Y19741   2.311   2.437   6.819 -0.9761 -1.6994  1.8121
  173SAPS  C31819742   2.523   2.459   6.885 -0.1636  0.4170 -0.1946
  173SAPS  H18X19743   2.499   2.440   6.992  1.3827  0.2712  0.1412
  173SAPS  H18Y19744   2.540   2.565   6.860  0.1467  0.0686 -1.5195
  173SAPS  H18Z19745   2.615   2.400   6.865  0.1691 -0.0310  2.2956
  174SAPS     N19746   4.376   1.938   4.506  0.0270 -0.0130 -0.0023
  174SAPS   HN119747   4.375   2.020   4.570 -0.9335 -0.1985  0.2375
  174SAPS   HN219748   4.368   1.859   4.573 -2.0995  0.7371  0.7089
  174SAPS   HN319749   4.464   1.928   4.452 -1.3103 -2.3499 -1.9487
  174SAPS   C1219750   4.255   1.943   4.422  0.1465 -0.1804 -0.5249
  174SAPS  H12A19751   4.250   2.034   4.364 -0.6783 -1.6453 -2.9133
  174SAPS   C1319752   4.247   1.839   4.304  0.4128 -0.2045 -0.3309
  174SAPS  O13A19753   4.314   1.730   4.322 -0.5299 -0.0199 -0.1453
  174SAPS  O13B19754   4.144   1.846   4.231  0.0642  0.2099  0.3053
  174SAPS   C1119755   4.129   1.927   4.511 -0.0815 -1.2593  0.4077
  174SAPS  H11A19756   4.037   1.942   4.449  0.2960  1.1427  0.3375
  174SAPS  H11B19757   4.118   2.022   4.568 -0.9116 -0.9107 -0.2968
  174SAPS     P19758   3.991   1.787   4.678  0.2046  0.0586 -0.4445
  174SAPS   O1319759   3.945   1.903   4.753 -0.0499 -0.6186  0.0692
  174SAPS   O1419760   3.887   1.728   4.591  0.1677 -0.0239  0.4798
  174SAPS   O1219761   4.119   1.816   4.590 -0.0573  1.0793 -0.8993
  174SAPS   O1119762   4.045   1.681   4.776  0.1465  0.4205  0.2613
  174SAPS    C119763   4.179   1.658   4.811 -0.1515  0.4082  0.5058
  174SAPS    HA19764   4.236   1.588   4.746 -3.2378 -1.7228 -0.1414
  174SAPS    HB19765   4.232   1.754   4.791 -2.5023  1.4099 -1.4944
  174SAPS    C219766   4.200   1.614   4.961 -0.0168 -0.2019  0.2864
  174SAPS    HS19767   4.291   1.660   5.006 -0.9131 -0.8407  2.9103
  174SAPS   O2119768   4.213   1.471   4.975  0.1854 -0.5415  0.4432
  174SAPS   C2119769   4.332   1.423   4.956  0.7272  0.3841  1.1204
  174SAPS   O2219770   4.442   1.483   4.949  0.0521 -0.1638 -1.0108
  174SAPS   C2219771   4.315   1.274   4.952  0.3219 -0.1135  0.5442
  174SAPS   H2R19772   4.219   1.243   4.904  0.3379  0.7310 -0.0488
  174SAPS   H2S19773   4.407   1.230   4.908  0.7747 -1.5109  2.7150
  174SAPS    C319774   4.092   1.672   5.050 -0.4869  0.3435  0.2916
  174SAPS    HX19775   3.993   1.627   5.025 -0.8850  0.9553  0.7123
  174SAPS    HY19776   4.081   1.780   5.025 -0.5764 -0.0819 -1.6401
  174SAPS   O3119777   4.120   1.657   5.191 -0.4915 -0.0718  0.0743
  174SAPS   C3119778   4.079   1.543   5.240  0.0294  0.6581  0.2310
  174SAPS   O3219779   4.000   1.465   5.181 -0.1287 -0.5460  0.1916
  174SAPS   C3219780   4.144   1.505   5.370 -0.1395 -0.2017  0.0830
  174SAPS   H2X19781   4.144   1.594   5.436  1.5240  0.6589 -1.0019
  174SAPS   H2Y19782   4.252   1.493   5.347 -0.0735 -0.1782  0.3720
  174SAPS   C2319783   4.304   1.229   5.100  0.3811  0.3207 -0.3850
  174SAPS   H3R19784   4.251   1.131   5.091  0.4224  0.0363  1.7930
  174SAPS   H3S19785   4.235   1.293   5.158  0.6503  0.5948 -0.3654
  174SAPS   C2419786   4.431   1.204   5.166  0.4012  0.0867  0.5595
  174SAPS   H4R19787   4.471   1.308   5.174 -2.8504  1.7340 -2.0129
  174SAPS   H4S19788   4.499   1.138   5.108 -0.4908  0.6346 -1.2140
  174SAPS   C2519789   4.411   1.138   5.298  0.4251  1.1600 -0.3988
  174SAPS   H5R19790   4.326   1.068   5.294 -0.0111  1.4792  1.8487
  174SAPS   C2619791   4.478   1.166   5.416  0.1351  0.1002  0.5681
  174SAPS   H6R19792   4.442   1.114   5.506  0.7205 -1.9980 -0.3506
  174SAPS   C2719793   4.582   1.265   5.442 -0.0328  0.7707 -0.7660
  174SAPS   H7R19794   4.637   1.297   5.350 -0.7254  2.5625 -0.6011
  174SAPS   H7S19795   4.657   1.213   5.505 -1.4314  0.9215  1.1069
  174SAPS   C2819796   4.539   1.384   5.516 -1.0805 -0.0879  0.1221
  174SAPS   H8R19797   4.503   1.459   5.443 -1.7626 -1.3097 -0.8381
  174SAPS   C2919798   4.516   1.402   5.644  0.6153 -0.8320 -0.0932
  174SAPS   H9R19799   4.495   1.507   5.670  4.0410 -0.3434  1.1637
  174SAPS  C21019800   4.516   1.300   5.749 -0.3150  0.0248  0.2432
  174SAPS  H10R19801   4.577   1.218   5.705  1.1749  0.7827  0.8381
  174SAPS  H10S19802   4.412   1.263   5.762 -1.5278  2.6731 -1.0936
  174SAPS  C21119803   4.586   1.332   5.879  0.5327  0.3145 -0.0718
  174SAPS  H11R19804   4.608   1.439   5.893 -2.0172  0.7111  1.6036
  174SAPS  C21219805   4.620   1.251   5.979  0.6991 -0.2755  0.1517
  174SAPS  H12R19806   4.681   1.297   6.058  0.6768 -0.1591  0.1015
  174SAPS  C21319807   4.615   1.097   5.995  0.0568 -0.0919  0.1704
  174SAPS  H13R19808   4.717   1.054   6.003 -0.2182 -0.5346  1.4510
  174SAPS  H13S19809   4.571   1.053   5.903  1.0019 -0.8528  0.0600
  174SAPS  C21419810   4.520   1.057   6.108 -0.1266 -0.5761  0.2464
  174SAPS  H14R19811   4.475   1.139   6.166  0.8619  0.0743  0.1174
  174SAPS  C21519812   4.501   0.930   6.153 -0.5496  0.3755 -0.2146
  174SAPS  H15R19813   4.434   0.916   6.240 -0.9415  2.0686 -0.2131
  174SAPS  C21619814   4.574   0.802   6.108  0.7405  0.1745  0.2881
  174SAPS  H16R19815   4.625   0.812   6.009 -1.3190  0.0858 -0.8383
  174SAPS  H16S19816   4.499   0.723   6.090  1.3101 -0.2461 -0.3024
  174SAPS  C21719817   4.677   0.757   6.212  0.2382 -0.0282 -0.4031
  174SAPS  H17R19818   4.760   0.831   6.218  1.1429 -1.0293 -0.3573
  174SAPS  H17S19819   4.734   0.665   6.189 -0.6486 -0.7813  0.2853
  174SAPS  C21819820   4.608   0.724   6.349 -0.3760 -0.1808 -0.1627
  174SAPS  H18R19821   4.529   0.655   6.315 -1.0078  1.4516 -2.1750
  174SAPS  H18S19822   4.562   0.820   6.380 -0.8670 -1.1817  2.5068
  174SAPS  C21919823   4.699   0.675   6.459  0.5703 -0.4448  0.1599
  174SAPS  H19R19824   4.775   0.610   6.410 -0.4924 -1.7590  0.1872
  174SAPS  H19S19825   4.643   0.606   6.526  1.1900 -0.2195  0.9325
  174SAPS  C22019826   4.751   0.783   6.556 -0.3974 -0.3701 -0.0440
  174SAPS  H20R19827   4.666   0.821   6.617 -0.7667  0.7978 -1.2249
  174SAPS  H20S19828   4.785   0.869   6.494  1.5896 -2.0504 -1.4239
  174SAPS  H20T19829   4.839   0.741   6.609 -1.8083 -1.1499  1.7621
  174SAPS   C3319830   4.081   1.384   5.445  0.5459  0.0989 -0.2085
  174SAPS   H3X19831   4.102   1.290   5.389 -0.6038 -0.3402  0.0684
  174SAPS   H3Y19832   3.972   1.396   5.457  0.6065  0.0048  0.4763
  174SAPS   C3419833   4.150   1.377   5.586 -0.3639 -0.2327  1.0377
  174SAPS   H4X19834   4.227   1.457   5.588  0.4537 -0.9728  0.2448
  174SAPS   H4Y19835   4.219   1.289   5.588  0.8706  0.7134  1.5041
  174SAPS   C3519836   4.059   1.393   5.710 -0.1230 -0.1529  0.4794
  174SAPS   H5X19837   4.104   1.370   5.809  0.7481 -1.2480 -0.1467
  174SAPS   H5Y19838   3.984   1.315   5.686 -1.7174  2.0292 -2.2688
  174SAPS   C3619839   3.977   1.521   5.720 -0.0732 -0.8935 -0.1172
  174SAPS   H6X19840   3.939   1.540   5.617  1.2145  1.7914 -0.1927
  174SAPS   H6Y19841   4.044   1.609   5.722 -1.2948  0.0528  0.0115
  174SAPS   C3719842   3.874   1.520   5.830 -0.3503  0.0542  0.4163
  174SAPS   H7X19843   3.846   1.413   5.848  1.7078 -0.7605 -0.8721
  174SAPS   H7Y19844   3.780   1.566   5.793 -1.5261 -3.3845 -1.2969
  174SAPS   C3819845   3.922   1.598   5.950 -0.0734 -0.0138 -0.1194
  174SAPS   H8X19846   3.919   1.704   5.916  2.5487 -0.5637 -2.4498
  174SAPS   H8Y19847   4.030   1.574   5.965  0.0292  0.3830 -0.2163
  174SAPS   C3919848   3.833   1.592   6.072 -0.8491 -0.1768  1.3213
  174SAPS   H9X19849   3.749   1.658   6.045  1.1238  1.4885 -1.0966
  174SAPS   H9Y19850   3.877   1.639   6.163 -1.6193  1.0070  1.1045
  174SAPS  C31019851   3.808   1.446   6.110 -0.3218  0.4738 -0.0108
  174SAPS  H10X19852   3.906   1.394   6.103  0.0451  1.1332  0.1194
  174SAPS  H10Y19853   3.734   1.399   6.042  1.9073  0.0561 -2.2954
  174SAPS  C31119854   3.769   1.435   6.253  1.2127  0.0651  0.3789
  174SAPS  H11X19855   3.726   1.335   6.274  1.2144  0.0900  0.5041
  174SAPS  H11Y19856   3.705   1.520   6.285  1.8449  1.3796 -1.6573
  174SAPS  C31219857   3.887   1.444   6.352  0.4379 -0.1033 -0.3954
  174SAPS  H12X19858   3.953   1.532   6.336  0.6406 -0.7394 -3.7770
  174SAPS  H12Y19859   3.940   1.354   6.316  1.6693  0.9392 -1.2911
  174SAPS  C31319860   3.842   1.435   6.495 -0.4974  0.9108 -0.8587
  174SAPS  H13X19861   3.935   1.401   6.543 -0.5655  0.0780 -1.3040
  174SAPS  H13Y19862   3.759   1.364   6.513  0.8693 -0.5516 -0.1458
  174SAPS  C31419863   3.791   1.573   6.551 -0.0344  0.6308 -0.1311
  174SAPS  H14X19864   3.689   1.592   6.511 -0.1626  0.8563  0.3058
  174SAPS  H14Y19865   3.858   1.654   6.515  0.5224  0.2281 -0.0056
  174SAPS  C31519866   3.799   1.574   6.699  0.2397 -0.0748  0.3254
  174SAPS  H15X19867   3.905   1.567   6.733 -0.1643 -2.0157  1.3848
  174SAPS  H15Y19868   3.742   1.485   6.735 -1.1745 -0.5634 -2.8051
  174SAPS  C31619869   3.731   1.699   6.753 -0.2492  0.3119  0.2674
  174SAPS  H16X19870   3.622   1.695   6.730 -0.1982  1.0524 -0.1226
  174SAPS  H16Y19871   3.772   1.790   6.704  2.5543 -1.4502 -0.8959
  174SAPS  C31719872   3.749   1.728   6.904 -0.2780 -0.2689 -0.5176
  174SAPS  H17X19873   3.719   1.645   6.972  1.9106 -2.2556 -1.7858
  174SAPS  H17Y19874   3.688   1.816   6.930 -2.2571 -2.4155  2.7644
  174SAPS  C31819875   3.894   1.752   6.938  0.7225  0.3661 -0.1714
  174SAPS  H18X19876   3.911   1.788   7.042  0.3287  0.3884 -0.1132
  174SAPS  H18Y19877   3.922   1.835   6.869 -0.7355 -0.0824 -1.3418
  174SAPS  H18Z19878   3.948   1.656   6.927  0.2825  0.1110 -0.1205
  175SAPS     N19879   0.523   1.236   4.075 -0.0308 -0.0044 -0.8781
  175SAPS   HN119880   0.472   1.312   4.124  0.9847 -0.2499  0.6152
  175SAPS   HN219881   0.618   1.279   4.065 -0.3522  0.6479 -1.1970
  175SAPS   HN319882   0.472   1.218   3.986 -0.9502  0.7367 -0.5146
  175SAPS   C1219883   0.524   1.121   4.178  0.0854 -0.3354  0.2999
  175SAPS  H12A19884   0.425   1.079   4.186  0.5126 -1.6652 -0.9079
  175SAPS   C1319885   0.624   1.004   4.151  0.4585  0.0723  0.0664
  175SAPS  O13A19886   0.684   0.996   4.042  0.1060  0.4353  0.5394
  175SAPS  O13B19887   0.627   0.916   4.240 -0.2849 -0.2573  0.6401
  175SAPS   C1119888   0.565   1.180   4.315 -0.5119  0.6736  0.1634
  175SAPS  H11A19889   0.676   1.182   4.312 -0.4848 -0.5299  0.1965
  175SAPS  H11B19890   0.523   1.111   4.391 -0.8866  0.4095 -0.2810
  175SAPS     P19891   0.434   1.369   4.459 -0.1946 -0.1294  0.0540
  175SAPS   O1319892   0.382   1.504   4.420 -0.9426 -0.9707  0.0882
  175SAPS   O1419893   0.335   1.269   4.506  0.3040  0.4338 -0.2499
  175SAPS   O1219894   0.511   1.309   4.330  0.3864  0.2501 -0.3325
  175SAPS   O1119895   0.545   1.397   4.571 -0.3999 -0.2603 -0.7485
  175SAPS    C119896   0.595   1.294   4.659  0.2739  0.1517  0.4865
  175SAPS    HA19897   0.604   1.191   4.619 -1.0720 -0.6011  2.0163
  175SAPS    HB19898   0.700   1.315   4.688  0.4328  1.5866 -1.0049
  175SAPS    C219899   0.520   1.284   4.792  0.6123  0.3186  0.4213
  175SAPS    HS19900   0.427   1.226   4.770  3.5786 -4.3741 -1.2620
  175SAPS   O2119901   0.494   1.419   4.847  0.9845  0.2665 -0.3917
  175SAPS   C2119902   0.383   1.438   4.913 -0.1007 -0.0838 -0.2473
  175SAPS   O2219903   0.296   1.354   4.934 -0.0082 -0.2537 -0.1256
  175SAPS   C2219904   0.397   1.577   4.976 -0.1281 -0.3879  0.3722
  175SAPS   H2R19905   0.499   1.617   4.958 -0.5887  1.1590  1.0383
  175SAPS   H2S19906   0.331   1.650   4.924  0.5715 -0.3892 -0.5619
  175SAPS    C319907   0.612   1.199   4.889  0.8907  0.5935  0.2105
  175SAPS    HX19908   0.615   1.099   4.841 -1.5796 -0.0999  1.3301
  175SAPS    HY19909   0.553   1.188   4.982  1.0570 -1.2419  0.1449
  175SAPS   O3119910   0.738   1.259   4.918 -0.0060  0.2035 -0.0417
  175SAPS   C3119911   0.809   1.195   5.021  0.9869  0.1517  0.3318
  175SAPS   O3219912   0.760   1.096   5.079  0.1592  0.1043  0.6349
  175SAPS   C3219913   0.950   1.258   5.027  0.8547  0.4082  0.6696
  175SAPS   H2X19914   0.939   1.368   5.019  2.0358  0.6060  1.5050
  175SAPS   H2Y19915   1.009   1.229   4.937 -0.7182  3.1003 -1.3696
  175SAPS   C2319916   0.356   1.586   5.121 -0.6070 -0.2192 -0.3127
  175SAPS   H3R19917   0.246   1.577   5.131 -0.3450 -0.6030  3.5822
  175SAPS   H3S19918   0.387   1.687   5.154  1.0540 -0.8160  0.0714
  175SAPS   C2419919   0.417   1.476   5.217  0.5232  0.3951 -0.1442
  175SAPS   H4R19920   0.412   1.381   5.161 -0.3538  1.6594 -2.3279
  175SAPS   H4S19921   0.351   1.465   5.306  0.8559  1.4990  0.2653
  175SAPS   C2519922   0.559   1.492   5.254 -0.0785 -0.2980 -0.5691
  175SAPS   H5R19923   0.599   1.586   5.213 -3.4804  1.5348 -0.1307
  175SAPS   C2619924   0.646   1.399   5.302  0.2686 -0.6118 -0.2119
  175SAPS   H6R19925   0.748   1.436   5.320  0.2784  0.3526 -1.9879
  175SAPS   C2719926   0.619   1.256   5.347  0.0884 -0.2173 -0.1762
  175SAPS   H7R19927   0.595   1.187   5.263 -0.4714  0.2834 -0.4353
  175SAPS   H7S19928   0.528   1.239   5.408  0.1121 -4.0088 -0.9706
  175SAPS   C2819929   0.737   1.202   5.414 -0.4498  0.8149 -1.1892
  175SAPS   H8R19930   0.813   1.163   5.344 -0.5256  0.5810 -1.1425
  175SAPS   C2919931   0.753   1.173   5.543 -0.3737 -0.0062  0.1971
  175SAPS   H9R19932   0.843   1.115   5.570 -2.6319 -2.8626  2.2076
  175SAPS  C21019933   0.659   1.204   5.653 -0.4580  0.0715  0.4808
  175SAPS  H10R19934   0.566   1.245   5.610 -1.5987 -0.9796  1.8304
  175SAPS  H10S19935   0.710   1.288   5.705  0.9065 -0.1440 -0.4617
  175SAPS  C21119936   0.631   1.090   5.747 -0.4392 -0.5929 -0.2273
  175SAPS  H11R19937   0.545   1.034   5.708 -0.3602 -0.6507 -0.3197
  175SAPS  C21219938   0.702   1.041   5.845  0.2429  0.5732  0.2977
  175SAPS  H12R19939   0.650   0.960   5.898  0.2926  2.0516  2.7452
  175SAPS  C21319940   0.826   1.093   5.908  0.3900  0.6873  0.0477
  175SAPS  H13R19941   0.852   1.008   5.974 -1.9086 -0.1123  0.0236
  175SAPS  H13S19942   0.805   1.178   5.977  0.6742 -1.6312  3.1962
  175SAPS  C21419943   0.943   1.117   5.820 -1.1916 -0.0371  0.2821
  175SAPS  H14R19944   0.939   1.207   5.756  3.3872  0.6100  0.5861
  175SAPS  C21519945   1.064   1.051   5.829 -0.2682  0.4808 -0.3814
  175SAPS  H15R19946   1.149   1.078   5.764 -1.8874  0.5991 -2.5910
  175SAPS  C21619947   1.087   0.923   5.911 -0.5310 -0.9613 -0.1206
  175SAPS  H16R19948   1.174   0.864   5.875 -2.1024 -2.6949 -1.2903
  175SAPS  H16S19949   0.995   0.869   5.880 -1.1040 -0.5750  0.8733
  175SAPS  C21719950   1.086   0.920   6.066  0.6647  0.0164 -0.2353
  175SAPS  H17R19951   0.999   0.977   6.106 -0.4293 -0.4791 -1.7855
  175SAPS  H17S19952   1.170   0.967   6.121 -0.4482  0.1296  1.4260
  175SAPS  C21819953   1.085   0.769   6.119 -0.0874  0.8937  1.7402
  175SAPS  H18R19954   1.030   0.700   6.051 -2.8932  3.0472  1.6254
  175SAPS  H18S19955   1.043   0.765   6.222  1.0526 -1.5461  2.1894
  175SAPS  C21919956   1.231   0.706   6.147 -0.1212  0.6073  1.1831
  175SAPS  H19R19957   1.276   0.759   6.234  0.4085 -0.0226  1.3035
  175SAPS  H19S19958   1.293   0.705   6.055 -0.3720 -1.2873  0.9981
  175SAPS  C22019959   1.231   0.558   6.196  0.2767  0.1011  0.2239
  175SAPS  H20R19960   1.178   0.501   6.117  1.2141 -1.4326  0.6650
  175SAPS  H20S19961   1.183   0.548   6.296  1.2201  2.3009  0.9513
  175SAPS  H20T19962   1.332   0.512   6.203 -0.1320 -1.0500 -0.9429
  175SAPS   C3319963   1.022   1.226   5.155 -0.5026  0.8561 -0.4166
  175SAPS   H3X19964   1.037   1.117   5.167 -1.3637  0.9801  2.5338
  175SAPS   H3Y19965   0.968   1.273   5.240  0.0812 -0.3811  0.6856
  175SAPS   C3419966   1.164   1.293   5.145  0.2721 -0.6608 -0.8537
  175SAPS   H4X19967   1.167   1.397   5.107 -1.2639 -0.5955 -0.8925
  175SAPS   H4Y19968   1.221   1.237   5.068  0.2042 -1.4882 -0.3194
  175SAPS   C3519969   1.238   1.274   5.276 -0.7707 -0.0375 -0.6788
  175SAPS   H5X19970   1.344   1.289   5.244 -0.4990 -1.2270 -0.4189
  175SAPS   H5Y19971   1.230   1.173   5.322  0.8955  0.0156 -0.1945
  175SAPS   C3619972   1.203   1.374   5.384 -0.3256 -0.1013  0.3154
  175SAPS   H6X19973   1.123   1.322   5.441 -0.4778 -2.6475 -1.9810
  175SAPS   H6Y19974   1.154   1.467   5.348  5.5059  3.4924  0.4490
  175SAPS   C3719975   1.329   1.406   5.457 -0.4309  0.0555 -0.1832
  175SAPS   H7X19976   1.392   1.467   5.388 -2.1683 -0.8407 -2.7198
  175SAPS   H7Y19977   1.390   1.316   5.478  0.4686  0.6745 -0.0754
  175SAPS   C3819978   1.295   1.498   5.586  0.2146  0.5677  0.1018
  175SAPS   H8X19979   1.234   1.440   5.659  0.3548  1.3637  0.8790
  175SAPS   H8Y19980   1.242   1.585   5.541  0.9446  0.4314 -1.0366
  175SAPS   C3919981   1.415   1.534   5.669 -0.6739 -0.5916 -0.2411
  175SAPS   H9X19982   1.497   1.560   5.599  1.3602 -0.7390  1.9569
  175SAPS   H9Y19983   1.450   1.442   5.720 -0.4500  0.2588  1.2004
  175SAPS  C31019984   1.398   1.645   5.776  0.5245  0.2560  0.1945
  175SAPS  H10X19985   1.347   1.733   5.730  1.2729  1.2020  1.1227
  175SAPS  H10Y19986   1.498   1.667   5.819  0.6982  0.1758 -0.1611
  175SAPS  C31119987   1.306   1.615   5.890 -0.3507  0.0908  0.6354
  175SAPS  H11X19988   1.205   1.608   5.843  0.6307 -1.9879 -1.3784
  175SAPS  H11Y19989   1.313   1.708   5.950 -0.1335  2.3943 -2.7191
  175SAPS  C31219990   1.343   1.492   5.971 -0.2463 -0.5197  0.2594
  175SAPS  H12X19991   1.446   1.490   6.012 -0.2680  0.9575  0.4425
  175SAPS  H12Y19992   1.345   1.401   5.908 -3.2168  0.3720 -1.3295
  175SAPS  C31319993   1.261   1.480   6.104 -0.0235 -0.3613  0.9581
  175SAPS  H13X19994   1.166   1.537   6.091  1.5494  1.8623 -1.9042
  175SAPS  H13Y19995   1.324   1.545   6.169  2.0762 -1.3839  0.0248
  175SAPS  C31419996   1.247   1.338   6.164  0.2251  0.3889 -0.1531
  175SAPS  H14X19997   1.345   1.286   6.167 -0.4803 -1.2157 -2.2870
  175SAPS  H14Y19998   1.180   1.289   6.090 -1.3631  2.2256 -0.0203
  175SAPS  C31519999   1.188   1.343   6.300  0.2823  0.5138 -0.3657
  175SAPS  H15X20000   1.095   1.404   6.291 -1.0195 -0.9759  1.9668
  175SAPS  H15Y20001   1.259   1.391   6.370  0.7761  1.3994 -1.4447
  175SAPS  C31620002   1.131   1.211   6.358  0.6526  0.3191  0.7544
  175SAPS  H16X20003   1.219   1.146   6.379 -0.1887 -1.3976 -0.7329
  175SAPS  H16Y20004   1.087   1.158   6.270  0.1720  2.8338 -0.6202
  175SAPS  C31720005   1.052   1.231   6.484 -0.5930  0.0365 -0.6581
  175SAPS  H17X20006   1.024   1.138   6.537  0.0912  0.9084  1.3119
  175SAPS  H17Y20007   0.955   1.279   6.458 -0.7935 -0.3794 -0.6918
  175SAPS  C31820008   1.134   1.318   6.582  0.6936 -0.4624  0.0796
  175SAPS  H18X20009   1.239   1.282   6.589  1.0062  0.6486  1.9320
  175SAPS  H18Y20010   1.087   1.306   6.682 -0.5611 -1.1918 -0.5774
  175SAPS  H18Z20011   1.139   1.424   6.550  1.9182 -0.9081 -1.3571
  176SAPS     N20012   1.020   5.305   4.656 -0.2045  0.4262 -0.1253
  176SAPS   HN120013   0.987   5.324   4.753  0.6242  1.2498  0.0066
  176SAPS   HN220014   1.051   5.206   4.647 -1.2808  0.0851 -0.1823
  176SAPS   HN320015   1.096   5.373   4.634 -0.6092  1.2430  0.9032
  176SAPS   C1220016   0.912   5.331   4.562 -0.3779  0.2324 -0.3735
  176SAPS  H12A20017   0.902   5.438   4.551  1.1667  0.3961 -0.4273
  176SAPS   C1320018   0.942   5.266   4.427  0.1991  0.1012 -0.6573
  176SAPS  O13A20019   1.041   5.189   4.403  0.1819  0.3550 -0.6286
  176SAPS  O13B20020   0.846   5.269   4.347 -0.1539  0.2515  0.5123
  176SAPS   C1120021   0.780   5.279   4.636 -0.5021 -0.7138  0.9264
  176SAPS  H11A20022   0.789   5.170   4.657 -1.5919 -1.3877 -1.6393
  176SAPS  H11B20023   0.691   5.283   4.571 -0.0529  0.4500  0.3593
  176SAPS     P20024   0.612   5.347   4.822  0.0625  0.3738  0.2921
  176SAPS   O1320025   0.536   5.449   4.749  0.1592  0.1340 -0.1106
  176SAPS   O1420026   0.552   5.214   4.838 -0.0097 -0.1296  0.5014
  176SAPS   O1220027   0.758   5.345   4.760  0.3460 -0.3451 -0.2593
  176SAPS   O1120028   0.639   5.399   4.958 -0.3741  0.7106 -0.5876
  176SAPS    C120029   0.747   5.364   5.040  0.1355  0.2586 -0.2203
  176SAPS    HA20030   0.711   5.385   5.143 -2.5722  2.2512 -1.4366
  176SAPS    HB20031   0.785   5.261   5.028  1.1306  0.3838  1.5069
  176SAPS    C220032   0.866   5.461   5.010 -0.9429  0.6812  0.3055
  176SAPS    HS20033   0.892   5.461   4.902 -0.0808  0.9635  0.5093
  176SAPS   O2120034   0.976   5.438   5.102 -0.2273  0.0037 -0.3733
  176SAPS   C2120035   1.062   5.337   5.063  0.1075 -0.0386  0.4900
  176SAPS   O2220036   1.050   5.279   4.956 -0.1143  0.7068  0.5045
  176SAPS   C2220037   1.172   5.313   5.170  0.7748  0.1293  0.2339
  176SAPS   H2R20038   1.257   5.376   5.138  0.7647  0.0045 -0.0457
  176SAPS   H2S20039   1.132   5.345   5.269  1.2228 -0.6328  0.6691
  176SAPS    C320040   0.827   5.611   5.027  0.1073  0.0686 -0.4237
  176SAPS    HX20041   0.763   5.627   4.938  0.0016 -1.6606 -0.6951
  176SAPS    HY20042   0.919   5.672   5.015 -0.3014  0.6138 -0.8899
  176SAPS   O3120043   0.758   5.649   5.146 -0.3046  0.5416 -0.4868
  176SAPS   C3120044   0.715   5.772   5.149  0.1372 -0.5237 -0.1630
  176SAPS   O3220045   0.744   5.857   5.068 -0.8405 -0.3327  0.5400
  176SAPS   C3220046   0.647   5.808   5.288 -0.1354 -0.0923  0.0898
  176SAPS   H2X20047   0.572   5.729   5.313  2.0010 -1.7320  1.7221
  176SAPS   H2Y20048   0.593   5.903   5.267 -0.9704 -1.0448 -2.5149
  176SAPS   C2320049   1.215   5.168   5.177  0.0555  0.7280 -0.2672
  176SAPS   H3R20050   1.212   5.119   5.077  1.3956 -0.4636  0.2388
  176SAPS   H3S20051   1.146   5.104   5.236 -0.3325  0.5971 -0.8480
  176SAPS   C2420052   1.363   5.164   5.227  0.5629  0.1311 -0.5817
  176SAPS   H4R20053   1.375   5.227   5.317 -0.8047 -0.2566 -0.0984
  176SAPS   H4S20054   1.439   5.203   5.155  0.1690 -1.4392 -1.8997
  176SAPS   C2520055   1.405   5.024   5.264  0.0241  0.6555  1.0648
  176SAPS   H5R20056   1.452   4.969   5.181 -1.8065  0.6404  0.0080
  176SAPS   C2620057   1.392   4.955   5.382  0.3212 -0.3046 -1.0062
  176SAPS   H6R20058   1.439   4.856   5.377  0.2890 -0.3063 -1.3103
  176SAPS   C2720059   1.312   4.995   5.507 -0.3484 -0.1659 -0.9722
  176SAPS   H7R20060   1.278   5.101   5.501  1.4456  0.6368  1.4857
  176SAPS   H7S20061   1.385   5.011   5.590 -0.9540  0.3740 -0.5356
  176SAPS   C2820062   1.200   4.895   5.540 -0.9044  0.1645  0.0562
  176SAPS   H8R20063   1.141   4.866   5.452  0.5967 -3.5322  0.1061
  176SAPS   C2920064   1.163   4.848   5.662  0.4887  0.2892  0.8567
  176SAPS   H9R20065   1.074   4.785   5.673  1.6954 -2.3619 -2.6025
  176SAPS  C21020066   1.228   4.897   5.791  0.4274  0.0985 -0.1170
  176SAPS  H10R20067   1.338   4.901   5.784  0.6044  0.2044  2.1102
  176SAPS  H10S20068   1.208   4.822   5.871 -2.0805  0.3185 -0.4302
  176SAPS  C21120069   1.178   5.032   5.838  0.5802  0.4074  0.5365
  176SAPS  H11R20070   1.171   5.103   5.754  0.8014 -0.9841 -0.7065
  176SAPS  C21220071   1.139   5.074   5.957 -0.0384  0.0402  0.7418
  176SAPS  H12R20072   1.104   5.177   5.974  0.3068  0.0274  1.5713
  176SAPS  C21320073   1.161   5.003   6.085 -0.2550 -0.4118  0.4302
  176SAPS  H13R20074   1.196   4.899   6.064  2.5267  0.7742 -1.3609
  176SAPS  H13S20075   1.063   4.993   6.136 -0.0517 -0.6250  0.7875
  176SAPS  C21420076   1.262   5.073   6.172  0.1359 -0.4503  0.0642
  176SAPS  H14R20077   1.320   5.157   6.130 -0.1322  0.9508  2.3500
  176SAPS  C21520078   1.305   5.019   6.290  0.4123 -0.7633  0.2025
  176SAPS  H15R20079   1.395   5.062   6.336  0.5811 -1.0227  0.1169
  176SAPS  C21620080   1.239   4.902   6.368 -0.5274  0.2003 -0.5270
  176SAPS  H16R20081   1.318   4.874   6.441 -0.2848 -0.8955 -1.1903
  176SAPS  H16S20082   1.217   4.813   6.305  1.6684 -1.4570  0.8914
  176SAPS  C21720083   1.108   4.947   6.442 -0.7957  0.0586 -0.2644
  176SAPS  H17R20084   1.026   4.959   6.369 -0.8684 -0.1598 -0.2205
  176SAPS  H17S20085   1.107   5.052   6.479 -0.7308 -0.0346  0.0059
  176SAPS  C21820086   1.076   4.858   6.561 -0.8033  0.0877  0.6027
  176SAPS  H18R20087   1.158   4.864   6.634  1.7698  0.5036 -2.1243
  176SAPS  H18S20088   1.057   4.753   6.531 -2.7277  0.2370  1.1418
  176SAPS  C21920089   0.945   4.894   6.629 -1.1957 -0.0599  0.2528
  176SAPS  H19R20090   0.858   4.888   6.559 -2.9605  0.8613  2.2709
  176SAPS  H19S20091   0.953   5.005   6.637  0.9635 -0.1327 -0.3090
  176SAPS  C22020092   0.912   4.816   6.765 -0.3980  0.0812  0.0244
  176SAPS  H20R20093   0.925   4.709   6.738  2.1245  0.5814 -1.1072
  176SAPS  H20S20094   0.806   4.832   6.792 -0.0394  1.5165  0.7333
  176SAPS  H20T20095   0.980   4.842   6.849 -1.0790  0.8654  0.3480
  176SAPS   C3320096   0.743   5.823   5.406  0.0795 -0.1129  0.1136
  176SAPS   H3X20097   0.681   5.879   5.479 -3.9360  0.0397 -3.0714
  176SAPS   H3Y20098   0.833   5.887   5.388  0.5455 -0.7291  0.2086
  176SAPS   C3420099   0.769   5.686   5.467  0.0992  0.4018  0.1207
  176SAPS   H4X20100   0.831   5.628   5.395 -2.2145 -1.6194 -0.3855
  176SAPS   H4Y20101   0.672   5.632   5.469 -1.2451  2.3838 -3.0021
  176SAPS   C3520102   0.842   5.695   5.594 -0.4050 -0.0422  0.2369
  176SAPS   H5X20103   0.927   5.765   5.579 -0.5844  0.3711  1.0864
  176SAPS   H5Y20104   0.888   5.597   5.618  0.9366 -0.0011 -1.9014
  176SAPS   C3620105   0.755   5.762   5.701 -0.1669 -0.1861 -0.2368
  176SAPS   H6X20106   0.659   5.706   5.695  0.4969 -1.9046  2.8418
  176SAPS   H6Y20107   0.747   5.873   5.696 -0.6654 -0.1812  0.4329
  176SAPS   C3720108   0.800   5.714   5.842 -0.1796  0.1255 -0.3120
  176SAPS   H7X20109   0.786   5.604   5.845  1.7862 -0.1381  0.9933
  176SAPS   H7Y20110   0.732   5.751   5.922 -1.1240 -2.1104 -0.0189
  176SAPS   C3820111   0.951   5.766   5.868 -0.0101  0.0393 -0.7124
  176SAPS   H8X20112   0.958   5.875   5.852  1.3950  0.3405  1.5676
  176SAPS   H8Y20113   1.025   5.720   5.798  0.4595 -0.3432  0.0175
  176SAPS   C3920114   0.997   5.737   6.011 -0.1159  0.2866 -0.3322
  176SAPS   H9X20115   1.108   5.727   6.021 -0.3243 -2.4515  0.1645
  176SAPS   H9Y20116   0.960   5.634   6.032 -0.5869  0.7450  1.2931
  176SAPS  C31020117   0.939   5.819   6.122  0.8526 -0.1002  0.2084
  176SAPS  H10X20118   0.831   5.795   6.119  0.7203  0.5308 -0.3049
  176SAPS  H10Y20119   0.963   5.926   6.105 -1.6879  0.6051  0.6570
  176SAPS  C31120120   0.999   5.789   6.259 -0.5896  0.3793 -0.1107
  176SAPS  H11X20121   0.981   5.871   6.332  0.0548 -0.6462  1.2548
  176SAPS  H11Y20122   1.109   5.806   6.267 -0.4922 -0.4759  0.6183
  176SAPS  C31220123   0.955   5.651   6.322  0.2147 -0.3750  0.6175
  176SAPS  H12X20124   0.992   5.559   6.271  0.2500  0.2538 -0.5327
  176SAPS  H12Y20125   0.845   5.643   6.313  0.2373  0.9418 -1.8830
  176SAPS  C31320126   1.003   5.635   6.467 -0.1665  0.1899 -0.0083
  176SAPS  H13X20127   0.969   5.719   6.530 -2.1632  1.1542 -2.1978
  176SAPS  H13Y20128   1.113   5.645   6.466 -0.1700  0.2475  0.3464
  176SAPS  C31420129   0.970   5.497   6.533 -0.0068 -0.4249  0.1413
  176SAPS  H14X20130   1.042   5.423   6.491  2.2076  1.5344  0.3085
  176SAPS  H14Y20131   0.865   5.472   6.508 -0.7048  1.2420  1.2270
  176SAPS  C31520132   0.988   5.485   6.686  0.2564 -0.3922 -0.1702
  176SAPS  H15X20133   0.936   5.566   6.741 -0.1576 -0.5012 -0.3975
  176SAPS  H15Y20134   1.093   5.511   6.713  0.6714 -1.0049 -1.1067
  176SAPS  C31620135   0.962   5.350   6.747 -0.0759 -0.3320 -0.5925
  176SAPS  H16X20136   1.013   5.349   6.846  0.0008  1.7037 -0.5539
  176SAPS  H16Y20137   1.008   5.274   6.682  1.0863 -0.3176  0.1859
  176SAPS  C31720138   0.817   5.303   6.773 -0.0489  0.9242 -0.5063
  176SAPS  H17X20139   0.773   5.274   6.676  1.4164 -2.2542 -0.3497
  176SAPS  H17Y20140   0.753   5.391   6.797  0.1742  0.6230  1.4111
  176SAPS  C31820141   0.790   5.178   6.862 -0.6286 -0.0292  1.1653
  176SAPS  H18X20142   0.680   5.164   6.860 -0.7019  0.5515  0.7784
  176SAPS  H18Y20143   0.832   5.196   6.964 -0.0900 -0.5429  1.0390
  176SAPS  H18Z20144   0.852   5.094   6.825 -0.8127  0.9670 -1.6294
  177SAPS     N20145   2.931   4.213   4.682  0.4521 -0.4325 -0.3337
  177SAPS   HN120146   2.946   4.116   4.718 -1.2520 -0.8591 -0.6733
  177SAPS   HN220147   2.968   4.271   4.760 -1.0729  0.1892 -0.0390
  177SAPS   HN320148   2.828   4.222   4.667  0.9356  0.7602 -3.9248
  177SAPS   C1220149   2.996   4.237   4.553  0.3570 -0.0760 -0.3726
  177SAPS  H12A20150   3.103   4.228   4.566  0.6116 -0.3426 -2.4126
  177SAPS   C1320151   2.957   4.138   4.446 -0.2635  0.8931  0.3766
  177SAPS  O13A20152   2.885   4.036   4.480 -0.1413 -0.1160 -0.2525
  177SAPS  O13B20153   2.994   4.143   4.323  0.4519 -0.0021  0.1399
  177SAPS   C1120154   2.948   4.384   4.511 -1.2289 -0.4336 -0.4027
  177SAPS  H11A20155   2.989   4.415   4.413 -0.2319 -1.3489 -0.2928
  177SAPS  H11B20156   2.988   4.460   4.582  1.3100  1.8965 -3.9445
  177SAPS     P20157   2.734   4.532   4.476  0.1799 -0.3422  0.3014
  177SAPS   O1320158   2.801   4.600   4.360  0.1122  0.4075  0.0673
  177SAPS   O1420159   2.590   4.514   4.467  0.8567  0.7421 -0.1686
  177SAPS   O1220160   2.806   4.399   4.501 -0.7401 -0.5984  0.0476
  177SAPS   O1120161   2.771   4.619   4.597  0.0863  0.1746  1.0051
  177SAPS    C120162   2.768   4.578   4.731 -0.7160 -0.3511 -0.4834
  177SAPS    HA20163   2.747   4.469   4.734 -0.4239 -0.5053 -2.7304
  177SAPS    HB20164   2.871   4.583   4.773 -0.6756 -2.3031 -0.2520
  177SAPS    C220165   2.677   4.669   4.818 -0.3023 -0.3034  0.0964
  177SAPS    HS20166   2.576   4.656   4.774 -0.4123  2.3446 -0.6090
  177SAPS   O2120167   2.720   4.813   4.831 -0.1202 -0.0820 -0.4111
  177SAPS   C2120168   2.628   4.901   4.861 -1.1977  0.2560  0.0518
  177SAPS   O2220169   2.510   4.888   4.842  0.5334 -0.6554 -0.8070
  177SAPS   C2220170   2.696   5.031   4.901  0.7816  0.2628  0.5377
  177SAPS   H2R20171   2.797   5.015   4.946  2.6530  0.4585 -3.1853
  177SAPS   H2S20172   2.722   5.088   4.809 -0.5506  1.5340  0.9058
  177SAPS    C320173   2.647   4.609   4.957  0.0421  0.6627  0.2127
  177SAPS    HX20174   2.617   4.502   4.950 -0.1013  0.5209  2.2695
  177SAPS    HY20175   2.574   4.668   5.017 -1.1059 -1.7909  1.3885
  177SAPS   O3120176   2.778   4.587   5.026  0.2621  0.6626 -0.6437
  177SAPS   C3120177   2.822   4.682   5.102  0.2957  0.5435  0.2737
  177SAPS   O3220178   2.760   4.786   5.131 -0.6412 -0.0550  0.1830
  177SAPS   C3220179   2.964   4.649   5.147  0.0337 -0.0132  0.3209
  177SAPS   H2X20180   3.037   4.665   5.066  0.9183 -1.9139  0.6893
  177SAPS   H2Y20181   2.972   4.546   5.189 -0.3103  0.5009  1.7170
  177SAPS   C2320182   2.605   5.113   4.990 -0.0088  0.1831 -0.0671
  177SAPS   H3R20183   2.564   5.052   5.073 -0.0936 -3.3153 -2.4439
  177SAPS   H3S20184   2.518   5.155   4.935  0.4919 -0.1125 -1.1211
  177SAPS   C2420185   2.674   5.232   5.056 -0.2243  0.2792  0.8420
  177SAPS   H4R20186   2.732   5.292   4.982  0.5915 -1.9843 -0.4796
  177SAPS   H4S20187   2.745   5.174   5.119 -0.2545 -1.6342 -0.7642
  177SAPS   C2520188   2.584   5.322   5.130  0.1197 -0.5694 -0.1597
  177SAPS   H5R20189   2.502   5.357   5.065 -1.0100 -0.0765  1.4644
  177SAPS   C2620190   2.591   5.354   5.257 -0.4269  0.1802 -0.3298
  177SAPS   H6R20191   2.515   5.412   5.312  0.9748 -0.2816  2.2846
  177SAPS   C2720192   2.697   5.302   5.351 -0.3655  0.4731 -0.7574
  177SAPS   H7R20193   2.699   5.369   5.440  1.0223  1.4406 -1.4808
  177SAPS   H7S20194   2.790   5.333   5.299 -0.1695  1.3074  0.0494
  177SAPS   C2820195   2.706   5.156   5.384  0.9711 -0.1673 -0.0963
  177SAPS   H8R20196   2.653   5.093   5.311 -1.5505  2.2345 -0.4923
  177SAPS   C2920197   2.758   5.105   5.493 -0.9053 -0.0099  0.1844
  177SAPS   H9R20198   2.756   4.996   5.506 -0.2902 -0.6570 -3.8834
  177SAPS  C21020199   2.823   5.175   5.610  0.5240 -0.6142  0.0793
  177SAPS  H10R20200   2.848   5.091   5.678  1.3838 -0.2929  0.1772
  177SAPS  H10S20201   2.749   5.238   5.663 -0.2022  0.6820 -2.3208
  177SAPS  C21120202   2.951   5.245   5.569 -0.0526  0.2682  0.0607
  177SAPS  H11R20203   2.986   5.239   5.465 -1.3798 -0.4962 -0.3662
  177SAPS  C21220204   3.032   5.300   5.657  0.5148 -0.1949 -0.9279
  177SAPS  H12R20205   3.132   5.340   5.633 -0.0620  2.7466  1.0277
  177SAPS  C21320206   3.006   5.319   5.811  0.4532 -0.5575 -1.2342
  177SAPS  H13R20207   2.899   5.295   5.831  0.3546 -0.4254 -1.6035
  177SAPS  H13S20208   3.012   5.427   5.834  1.4219 -0.6730 -0.8755
  177SAPS  C21420209   3.093   5.255   5.911 -0.4248 -0.9058 -0.6273
  177SAPS  H14R20210   3.194   5.222   5.881  0.4409  2.5133 -1.9556
  177SAPS  C21520211   3.066   5.256   6.044  0.8737  0.5703  0.4683
  177SAPS  H15R20212   3.126   5.199   6.116  0.3728 -0.7305 -0.1009
  177SAPS  C21620213   2.939   5.323   6.102  0.3266 -0.1381 -0.5545
  177SAPS  H16R20214   2.854   5.343   6.033 -0.2831  1.7438  0.6739
  177SAPS  H16S20215   2.983   5.416   6.143  0.1433  0.3104 -1.3536
  177SAPS  C21720216   2.878   5.252   6.219  0.3019  0.6044 -0.9771
  177SAPS  H17R20217   2.947   5.201   6.290 -0.6328 -1.6932 -1.6184
  177SAPS  H17S20218   2.826   5.161   6.182  0.8993  0.3812 -1.2848
  177SAPS  C21820219   2.779   5.337   6.304 -0.5238  0.3542  0.1079
  177SAPS  H18R20220   2.735   5.271   6.382  1.4714 -1.5937 -0.3102
  177SAPS  H18S20221   2.694   5.355   6.234 -1.1380 -0.3327  0.6466
  177SAPS  C21920222   2.837   5.457   6.374  0.2021 -0.2729  0.4554
  177SAPS  H19R20223   2.880   5.514   6.289  0.3819  0.0974  0.7888
  177SAPS  H19S20224   2.920   5.422   6.439  2.1696  1.7570 -0.8045
  177SAPS  C22020225   2.738   5.546   6.456 -0.1922 -0.0677 -0.0961
  177SAPS  H20R20226   2.668   5.483   6.516  1.5775 -1.4754  0.5813
  177SAPS  H20S20227   2.686   5.609   6.381 -1.8870 -2.3583 -0.9804
  177SAPS  H20T20228   2.792   5.606   6.531 -2.7408  1.8553  0.3381
  177SAPS   C3320229   3.014   4.748   5.252 -0.8336  0.3489 -0.1979
  177SAPS   H3X20230   2.993   4.850   5.214 -0.2186  0.2386 -0.8515
  177SAPS   H3Y20231   3.124   4.741   5.251 -0.8747 -0.5455 -1.6784
  177SAPS   C3420232   2.959   4.723   5.397  0.2530 -0.0848  0.3145
  177SAPS   H4X20233   2.971   4.618   5.433 -1.1302 -0.9387 -1.5211
  177SAPS   H4Y20234   2.851   4.749   5.390 -0.1430 -1.3918  1.0781
  177SAPS   C3520235   3.032   4.806   5.508  0.4485 -0.3410  0.3659
  177SAPS   H5X20236   3.048   4.912   5.479 -0.1094 -0.2152  0.5019
  177SAPS   H5Y20237   3.134   4.762   5.499  0.4545 -1.0144  2.9438
  177SAPS   C3620238   2.988   4.794   5.659  0.4252  0.5489 -0.0913
  177SAPS   H6X20239   2.997   4.690   5.699 -1.0209  0.8279  1.0482
  177SAPS   H6Y20240   2.882   4.827   5.666  0.2962  0.5746 -1.7331
  177SAPS   C3720241   3.070   4.890   5.760 -0.5475  0.3999  0.4153
  177SAPS   H7X20242   3.052   4.994   5.724  1.6533  0.5135 -0.4949
  177SAPS   H7Y20243   3.179   4.869   5.759 -0.6040  0.0984  0.1982
  177SAPS   C3820244   3.011   4.881   5.901  0.2485  0.6832 -0.7726
  177SAPS   H8X20245   2.902   4.902   5.901  0.2737  1.0079 -2.7286
  177SAPS   H8Y20246   3.061   4.952   5.970 -0.9600  0.8561 -0.0486
  177SAPS   C3920247   3.022   4.737   5.966 -0.1403  0.8847  0.1433
  177SAPS   H9X20248   3.118   4.688   5.940 -0.7470  0.1680 -0.8106
  177SAPS   H9Y20249   2.939   4.677   5.924  0.6143 -0.6849  0.8204
  177SAPS  C31020250   3.009   4.738   6.117 -0.0088 -0.2019 -0.2307
  177SAPS  H10X20251   2.949   4.648   6.142  0.6455 -0.4280  0.5718
  177SAPS  H10Y20252   2.945   4.824   6.144 -1.4451 -1.1121 -0.6171
  177SAPS  C31120253   3.147   4.746   6.181 -0.1777 -0.4293 -0.2964
  177SAPS  H11X20254   3.199   4.839   6.150 -2.0166  0.9885  0.6823
  177SAPS  H11Y20255   3.210   4.661   6.145 -0.1732 -0.0338 -1.2338
  177SAPS  C31220256   3.134   4.741   6.326  0.1557  0.0185 -1.0839
  177SAPS  H12X20257   3.240   4.748   6.360  0.8905 -0.0902 -3.1890
  177SAPS  H12Y20258   3.093   4.643   6.357 -0.3216  0.8564  1.1889
  177SAPS  C31320259   3.048   4.852   6.401 -0.1211  0.2300 -0.0391
  177SAPS  H13X20260   2.956   4.850   6.338 -0.1174  0.0527 -0.0394
  177SAPS  H13Y20261   3.098   4.951   6.398  0.0434  0.1272 -0.9310
  177SAPS  C31420262   2.990   4.805   6.531  0.4189 -0.5662 -0.0924
  177SAPS  H14X20263   3.075   4.799   6.603  0.6101  0.8018 -0.1732
  177SAPS  H14Y20264   2.938   4.708   6.521  0.8653 -0.8554  0.3293
  177SAPS  C31520265   2.891   4.910   6.593 -0.0208  0.2556  0.5395
  177SAPS  H15X20266   2.858   4.868   6.691 -0.2959  1.1977  0.8638
  177SAPS  H15Y20267   2.805   4.901   6.522  0.7108  2.7469 -0.7876
  177SAPS  C31620268   2.942   5.062   6.607 -0.5496  0.6783 -0.1562
  177SAPS  H16X20269   2.985   5.084   6.507  1.2122 -0.5717  0.2766
  177SAPS  H16Y20270   3.017   5.058   6.688  1.6728 -0.2476 -2.1293
  177SAPS  C31720271   2.828   5.158   6.618 -0.3604  0.0100 -0.0092
  177SAPS  H17X20272   2.772   5.144   6.523  2.6382 -1.1598 -1.7665
  177SAPS  H17Y20273   2.867   5.261   6.605  0.3064 -0.3544 -0.9901
  177SAPS  C31820274   2.738   5.148   6.746 -0.1366 -0.3894  0.4668
  177SAPS  H18X20275   2.636   5.190   6.730 -0.2431 -1.3009 -1.4820
  177SAPS  H18Y20276   2.790   5.210   6.822  1.0166 -0.2866 -0.3812
  177SAPS  H18Z20277   2.718   5.041   6.771 -1.5372 -0.0123  1.1155
  178SAPS     N20278   1.290   5.109   4.301 -0.6626 -0.1511 -0.0246
  178SAPS   HN120279   1.206   5.150   4.346  1.0083  0.8780  2.3645
  178SAPS   HN220280   1.267   5.075   4.205 -0.5578  0.4939 -0.2854
  178SAPS   HN320281   1.338   5.035   4.355  1.5912  2.6780  2.2426
  178SAPS   C1220282   1.418   5.194   4.296 -0.9454 -0.1908  0.4313
  178SAPS  H12A20283   1.471   5.170   4.386 -0.5758  0.0219  0.2712
  178SAPS   C1320284   1.515   5.156   4.182 -0.2330  0.9904  0.2026
  178SAPS  O13A20285   1.466   5.076   4.099  0.0894  0.0580  0.1108
  178SAPS  O13B20286   1.626   5.214   4.170 -0.1740  0.2820  0.0192
  178SAPS   C1120287   1.401   5.349   4.286  0.4914 -0.3173 -0.1363
  178SAPS  H11A20288   1.373   5.373   4.182  1.5597  0.3076 -0.2916
  178SAPS  H11B20289   1.499   5.398   4.304  1.1222 -1.7050  0.3581
  178SAPS     P20290   1.329   5.464   4.517  0.2230  0.0064 -0.1045
  178SAPS   O1320291   1.194   5.504   4.575  0.6176  0.0834 -0.1783
  178SAPS   O1420292   1.405   5.362   4.596 -0.2813 -0.5842  0.5400
  178SAPS   O1220293   1.297   5.403   4.375  0.2785  0.4857 -0.2804
  178SAPS   O1120294   1.406   5.596   4.475  0.0623 -0.0795  0.4593
  178SAPS    C120295   1.426   5.695   4.577 -0.5168 -0.3674  0.5519
  178SAPS    HA20296   1.423   5.793   4.524  0.9657  0.6604  2.2438
  178SAPS    HB20297   1.343   5.705   4.650 -0.6924 -1.3526  0.4975
  178SAPS    C220298   1.560   5.691   4.653 -1.3829 -0.5221  0.1863
  178SAPS    HS20299   1.639   5.702   4.576 -0.5282  0.3274  1.1384
  178SAPS   O2120300   1.572   5.574   4.731  0.1358 -0.3034  0.0142
  178SAPS   C2120301   1.694   5.520   4.738  0.0295 -0.0863 -0.0329
  178SAPS   O2220302   1.790   5.551   4.671  0.3226  0.2001 -0.3501
  178SAPS   C2220303   1.698   5.421   4.858  0.7198 -0.4035 -0.2721
  178SAPS   H2R20304   1.628   5.335   4.846  1.5277 -1.3511  1.3794
  178SAPS   H2S20305   1.802   5.381   4.863  0.7237 -0.2704  2.2996
  178SAPS    C320306   1.579   5.818   4.747  0.3265 -0.6534  0.5395
  178SAPS    HX20307   1.492   5.809   4.816  0.7799 -1.5493  1.0271
  178SAPS    HY20308   1.575   5.908   4.683  1.2776  0.0203  1.3893
  178SAPS   O3120309   1.693   5.825   4.834  0.0310  0.4419  0.5951
  178SAPS   C3120310   1.810   5.848   4.781 -0.7619 -0.0553  0.4640
  178SAPS   O3220311   1.835   5.860   4.660 -0.7577 -0.1640  0.3092
  178SAPS   C3220312   1.925   5.882   4.887  0.6726 -0.1796  0.0709
  178SAPS   H2X20313   2.013   5.914   4.828  0.1576  1.2755  0.0553
  178SAPS   H2Y20314   1.960   5.783   4.923 -1.0840 -0.9100 -0.1011
  178SAPS   C2320315   1.659   5.488   4.994 -0.0119  0.2357 -0.8064
  178SAPS   H3R20316   1.614   5.412   5.062  0.3575  1.0740  0.3974
  178SAPS   H3S20317   1.576   5.561   4.980 -1.1876 -0.7410  0.7717
  178SAPS   C2420318   1.781   5.550   5.061 -0.0277  0.3367 -0.4653
  178SAPS   H4R20319   1.731   5.588   5.152 -1.0913  0.4323 -1.0748
  178SAPS   H4S20320   1.814   5.637   5.000 -1.2370  0.7748 -0.5220
  178SAPS   C2520321   1.897   5.459   5.089  0.7460  0.5789 -0.2600
  178SAPS   H5R20322   1.950   5.419   5.001 -0.9441  0.8719 -1.4591
  178SAPS   C2620323   1.930   5.417   5.211  0.0610  0.3320  0.4929
  178SAPS   H6R20324   2.019   5.352   5.217  0.3210  0.0245 -3.4660
  178SAPS   C2720325   1.868   5.436   5.344  0.3351 -0.2131  0.0515
  178SAPS   H7R20326   1.826   5.537   5.357  0.7954  0.0878 -0.7158
  178SAPS   H7S20327   1.952   5.417   5.414  0.5546 -0.3732 -0.2509
  178SAPS   C2820328   1.762   5.334   5.359  0.1107 -0.7255 -0.0793
  178SAPS   H8R20329   1.710   5.311   5.264 -1.2307 -0.8689  0.6666
  178SAPS   C2920330   1.724   5.270   5.468  0.3279 -0.0058 -0.2413
  178SAPS   H9R20331   1.638   5.204   5.453  1.5688 -2.4623  2.3210
  178SAPS  C21020332   1.773   5.282   5.611 -0.4048  0.0423  0.7777
  178SAPS  H10R20333   1.690   5.251   5.678 -1.0767  1.0986  0.4672
  178SAPS  H10S20334   1.803   5.383   5.645 -1.1040 -0.3373  2.6310
  178SAPS  C21120335   1.889   5.194   5.644  0.1114 -0.2049  0.2754
  178SAPS  H11R20336   1.925   5.132   5.561  1.5450 -0.9755  1.4236
  178SAPS  C21220337   1.951   5.188   5.762 -0.0098  0.0872  0.1792
  178SAPS  H12R20338   2.045   5.132   5.772 -0.6839 -1.1206 -0.0295
  178SAPS  C21320339   1.907   5.283   5.881 -0.4485  0.1555 -0.6466
  178SAPS  H13R20340   1.799   5.262   5.900 -0.8631  1.1187 -1.7441
  178SAPS  H13S20341   1.898   5.391   5.853  2.0827  0.3483 -0.9113
  178SAPS  C21420342   1.980   5.278   6.014 -0.1607 -0.1510 -0.4330
  178SAPS  H14R20343   2.046   5.365   6.026  0.5196 -0.3942 -2.2224
  178SAPS  C21520344   1.971   5.189   6.118  0.3020 -0.1332  0.3769
  178SAPS  H15R20345   2.040   5.210   6.201  0.9144  0.1205 -0.1780
  178SAPS  C21620346   1.910   5.052   6.103 -0.1417 -0.8016 -0.5556
  178SAPS  H16R20347   1.989   4.981   6.071 -1.0391 -1.9135 -0.3608
  178SAPS  H16S20348   1.844   5.053   6.014 -1.0248  2.5781 -0.0129
  178SAPS  C21720349   1.852   4.996   6.236 -0.4423 -0.0675 -0.4261
  178SAPS  H17R20350   1.931   4.981   6.313 -1.7265 -1.5463  0.6983
  178SAPS  H17S20351   1.804   4.896   6.221 -0.0076 -0.2824 -0.4033
  178SAPS  C21820352   1.740   5.085   6.293  0.1390 -0.5103  0.3453
  178SAPS  H18R20353   1.667   5.097   6.209  0.2442 -1.3072  0.1309
  178SAPS  H18S20354   1.800   5.177   6.313  0.4587 -0.7303  0.4049
  178SAPS  C21920355   1.670   5.029   6.423  0.1597  0.1108  0.9061
  178SAPS  H19R20356   1.622   4.930   6.410  2.7788 -1.0841 -0.7267
  178SAPS  H19S20357   1.584   5.098   6.433 -0.6961 -0.4959 -1.5379
  178SAPS  C22020358   1.764   5.030   6.541 -0.1645 -0.0840 -0.2880
  178SAPS  H20R20359   1.845   5.106   6.537  0.9313 -0.9562  2.6788
  178SAPS  H20S20360   1.812   4.931   6.553 -3.2415 -1.9356 -1.9563
  178SAPS  H20T20361   1.702   5.044   6.632  2.2080 -1.0390  1.5764
  178SAPS   C3320362   1.875   5.972   5.004 -0.3171 -0.2999 -0.1788
  178SAPS   H3X20363   1.773   5.935   5.030  0.1725 -0.6190  1.4066
  178SAPS   H3Y20364   1.887   6.078   4.972 -1.2153  0.5265  2.0166
  178SAPS   C3420365   1.970   5.960   5.134  0.8913  0.8434 -0.0137
  178SAPS   H4X20366   2.078   5.972   5.108  1.1945  0.1952  0.8711
  178SAPS   H4Y20367   1.947   5.855   5.164 -0.4375  1.2013  0.2911
  178SAPS   C3520368   1.906   6.038   5.259  0.2836 -0.8017 -0.1461
  178SAPS   H5X20369   1.799   6.009   5.268  0.0282 -0.2940 -1.3917
  178SAPS   H5Y20370   1.906   6.147   5.241  2.6319 -0.4814  1.3197
  178SAPS   C3620371   1.974   6.004   5.394 -0.2074 -0.3489 -0.2901
  178SAPS   H6X20372   1.927   6.058   5.479  2.6768  0.4894  0.9263
  178SAPS   H6Y20373   2.076   6.046   5.379 -0.1447 -0.2795  0.3032
  178SAPS   C3720374   1.998   5.854   5.423  0.1844  0.5887 -0.1964
  178SAPS   H7X20375   2.083   5.810   5.367  0.2694 -0.1521  0.5078
  178SAPS   H7Y20376   1.906   5.802   5.390 -0.9025  2.3746 -0.1236
  178SAPS   C3820377   2.033   5.831   5.575  0.0114  0.3614  0.9963
  178SAPS   H8X20378   1.956   5.883   5.636 -0.8064  3.5056 -2.3802
  178SAPS   H8Y20379   2.132   5.880   5.588  0.4177  0.8840 -2.9556
  178SAPS   C3920380   2.026   5.680   5.602 -0.2106  0.5112 -0.0161
  178SAPS   H9X20381   2.074   5.624   5.519  0.7287 -0.4080  1.1212
  178SAPS   H9Y20382   1.919   5.653   5.604  0.2786 -1.5300  0.3534
  178SAPS  C31020383   2.075   5.640   5.740 -0.5621 -0.5298  0.8910
  178SAPS  H10X20384   2.185   5.649   5.744 -0.4053 -1.2396 -0.8755
  178SAPS  H10Y20385   2.059   5.531   5.758  2.1860 -1.1912 -0.2648
  178SAPS  C31120386   2.017   5.717   5.854 -0.2697  0.2581 -0.7294
  178SAPS  H11X20387   1.909   5.695   5.866 -0.4143  0.3496 -1.7986
  178SAPS  H11Y20388   2.030   5.827   5.850  1.5300  0.1143  0.3139
  178SAPS  C31220389   2.108   5.697   5.979 -0.2686 -0.8760 -0.8861
  178SAPS  H12X20390   2.208   5.733   5.946  0.2900 -1.9556 -0.3889
  178SAPS  H12Y20391   2.099   5.592   6.013 -1.5114 -1.2876 -2.3429
  178SAPS  C31320392   2.077   5.790   6.104  0.1878  0.3507 -0.7767
  178SAPS  H13X20393   2.090   5.893   6.064 -1.5437  0.7309 -0.4151
  178SAPS  H13Y20394   2.152   5.770   6.184 -1.6410 -1.1038  0.6728
  178SAPS  C31420395   1.934   5.789   6.168  0.3587  0.2581 -0.3873
  178SAPS  H14X20396   1.857   5.804   6.088  0.3365 -1.4325 -0.7190
  178SAPS  H14Y20397   1.929   5.867   6.247 -2.7521 -0.9076  0.7562
  178SAPS  C31520398   1.896   5.650   6.226  1.0228 -0.3778  0.1574
  178SAPS  H15X20399   1.862   5.587   6.141 -0.6781  1.7208 -0.7821
  178SAPS  H15Y20400   1.805   5.653   6.289 -0.5487  0.4634 -2.0519
  178SAPS  C31620401   2.007   5.567   6.295  0.8504 -0.4392  0.0439
  178SAPS  H16X20402   2.046   5.637   6.371 -0.5438 -1.2624  1.5844
  178SAPS  H16Y20403   2.088   5.521   6.235  0.6389 -0.7792  0.0125
  178SAPS  C31720404   1.946   5.452   6.384 -0.4275  0.1914 -0.0037
  178SAPS  H17X20405   1.888   5.391   6.311 -1.9102  2.5464 -0.8882
  178SAPS  H17Y20406   1.879   5.488   6.465 -2.2082  0.0703 -1.3636
  178SAPS  C31820407   2.058   5.371   6.463 -0.4966 -0.5614  0.0214
  178SAPS  H18X20408   2.014   5.279   6.508  1.3755 -0.3975  2.3350
  178SAPS  H18Y20409   2.102   5.426   6.548 -2.3170  0.3488  0.4385
  178SAPS  H18Z20410   2.131   5.335   6.388  0.5039  2.2259 -0.4329
  179SAPS     N20411   4.477   2.440   4.661  0.0983  0.6518 -0.4786
  179SAPS   HN120412   4.482   2.544   4.661 -1.8180  0.8059  0.6899
  179SAPS   HN220413   4.537   2.401   4.736 -1.2569 -0.8856 -0.1420
  179SAPS   HN320414   4.523   2.399   4.578  1.8718  1.2428  0.1735
  179SAPS   C1220415   4.338   2.399   4.684  0.0444  0.4715 -0.3098
  179SAPS  H12A20416   4.279   2.441   4.604  2.2885  2.1278 -1.2189
  179SAPS   C1320417   4.300   2.249   4.691  0.1435  0.1622  0.5530
  179SAPS  O13A20418   4.383   2.164   4.655 -0.0573  0.2505  0.1389
  179SAPS  O13B20419   4.176   2.228   4.673 -0.0952 -0.0220  0.1141
  179SAPS   C1120420   4.296   2.457   4.828  0.4966  0.1337  0.0436
  179SAPS  H11A20421   4.341   2.409   4.918 -0.4705 -0.1886  0.3782
  179SAPS  H11B20422   4.189   2.435   4.850  0.9223 -1.7992  0.3900
  179SAPS     P20423   4.229   2.708   4.781 -0.2292  0.0050  0.3152
  179SAPS   O1320424   4.292   2.843   4.778 -0.3109 -0.0651  0.4097
  179SAPS   O1420425   4.176   2.663   4.651  0.9047  0.1670  0.3176
  179SAPS   O1220426   4.332   2.596   4.846  0.2031  0.3460  0.9371
  179SAPS   O1120427   4.107   2.711   4.876  0.3459  0.0730 -0.0357
  179SAPS    C120428   4.143   2.693   5.012  0.6265 -0.2841 -0.6926
  179SAPS    HA20429   4.059   2.639   5.061 -0.5409  2.2491  0.3205
  179SAPS    HB20430   4.229   2.629   5.042 -0.7160 -1.5561  0.6198
  179SAPS    C220431   4.154   2.832   5.084 -0.0035  0.1440  0.8799
  179SAPS    HS20432   4.220   2.892   5.018 -0.9808 -0.8700 -1.1191
  179SAPS   O2120433   4.201   2.811   5.227 -0.2146  0.0943  0.5861
  179SAPS   C2120434   4.300   2.881   5.270 -0.1150 -0.3995  0.4788
  179SAPS   O2220435   4.373   2.955   5.205 -0.2939 -0.0823  0.0194
  179SAPS   C2220436   4.318   2.874   5.423  0.0051 -0.3917  0.1511
  179SAPS   H2R20437   4.398   2.797   5.429  0.4329  0.0582  0.2576
  179SAPS   H2S20438   4.367   2.967   5.459 -0.6416 -0.4435  1.1896
  179SAPS    C320439   4.025   2.911   5.085 -0.0895 -0.4154  0.0579
  179SAPS    HX20440   3.944   2.843   5.118 -0.1216 -0.2006  0.4314
  179SAPS    HY20441   4.000   2.934   4.980  0.0448 -0.6289 -0.0212
  179SAPS   O3120442   4.046   3.028   5.172  0.2635  0.0620  0.7078
  179SAPS   C3120443   3.932   3.091   5.204 -0.4477  0.1361  0.0038
  179SAPS   O3220444   3.826   3.068   5.152  0.3154 -0.1620 -0.0393
  179SAPS   C3220445   3.961   3.203   5.301  0.1439  0.0096  0.2773
  179SAPS   H2X20446   3.996   3.292   5.243 -2.2894 -1.2319 -3.4366
  179SAPS   H2Y20447   4.045   3.176   5.369  0.2587  2.0011  1.0085
  179SAPS   C2320448   4.186   2.835   5.496  0.1980  0.5349 -0.6271
  179SAPS   H3R20449   4.171   2.731   5.459  1.4274  0.0717  0.0923
  179SAPS   H3S20450   4.103   2.896   5.456 -0.5525 -0.4560 -0.6089
  179SAPS   C2420451   4.188   2.851   5.648  0.0907 -0.8927 -0.4662
  179SAPS   H4R20452   4.284   2.802   5.675  2.0392  0.8449 -3.6938
  179SAPS   H4S20453   4.110   2.782   5.688 -1.0756  0.7041  0.0838
  179SAPS   C2520454   4.169   2.990   5.698  0.9353  0.1663 -0.2861
  179SAPS   H5R20455   4.113   3.059   5.634 -0.5320 -1.4412 -0.8170
  179SAPS   C2620456   4.217   3.038   5.815 -0.4273  0.1208 -0.3645
  179SAPS   H6R20457   4.195   3.144   5.839 -0.6432  0.0423 -0.2135
  179SAPS   C2720458   4.302   2.961   5.912 -0.6211  0.1039 -0.3271
  179SAPS   H7R20459   4.340   3.028   5.992 -3.2008  0.0184  1.0665
  179SAPS   H7S20460   4.391   2.920   5.860 -0.2128  1.2099 -0.5266
  179SAPS   C2820461   4.216   2.858   5.990 -0.2163  0.1715 -0.5447
  179SAPS   H8R20462   4.191   2.769   5.930 -2.8570  1.0043 -0.7833
  179SAPS   C2920463   4.170   2.873   6.113 -0.6217  0.2446  0.0342
  179SAPS   H9R20464   4.126   2.786   6.164  1.9942 -0.6309  0.9643
  179SAPS  C21020465   4.207   2.989   6.197 -0.8883 -0.1464 -0.5694
  179SAPS  H10R20466   4.215   3.081   6.134  0.5763 -0.4737 -0.9053
  179SAPS  H10S20467   4.305   2.973   6.248 -1.3909 -0.3463  0.3522
  179SAPS  C21120468   4.090   3.000   6.288  0.2920  0.1093 -0.4891
  179SAPS  H11R20469   3.995   2.954   6.256  0.1345 -1.0074  1.4456
  179SAPS  C21220470   4.107   3.046   6.417  0.6335 -0.5245 -0.0610
  179SAPS  H12R20471   4.019   3.044   6.483  1.3068  0.0986  0.8830
  179SAPS  C21320472   4.230   3.092   6.484  0.1097 -0.5344 -0.1678
  179SAPS  H13R20473   4.205   3.163   6.566  0.7188 -1.4330  0.8311
  179SAPS  H13S20474   4.278   3.151   6.403  1.6550 -0.5377  0.6982
  179SAPS  C21420475   4.320   2.984   6.541  0.8904 -0.4690  0.2342
  179SAPS  H14R20476   4.410   2.960   6.481  1.5534  1.8098  0.2284
  179SAPS  C21520477   4.321   2.933   6.661  0.4171 -0.0183  1.0934
  179SAPS  H15R20478   4.397   2.854   6.674  1.2730  0.1464 -1.9760
  179SAPS  C21620479   4.224   2.964   6.773  0.3164 -0.0870  0.2538
  179SAPS  H16R20480   4.153   3.048   6.757 -1.1424 -1.1195  1.0075
  179SAPS  H16S20481   4.282   2.992   6.863 -0.3931  1.3505  0.2923
  179SAPS  C21720482   4.138   2.844   6.824  0.3432 -0.2546  0.0698
  179SAPS  H17R20483   4.067   2.832   6.739 -0.8418 -0.8843  1.1234
  179SAPS  H17S20484   4.076   2.877   6.910 -1.5380 -1.4165 -0.7822
  179SAPS  C21820485   4.220   2.720   6.854  0.2066  0.8031  0.7410
  179SAPS  H18R20486   4.304   2.748   6.922  1.2007 -0.9527  0.3059
  179SAPS  H18S20487   4.259   2.678   6.759 -1.1681 -0.8655  0.8506
  179SAPS  C21920488   4.128   2.616   6.920  0.0758  0.1395 -0.6910
  179SAPS  H19R20489   4.045   2.580   6.855  0.5718  1.3363 -2.0493
  179SAPS  H19S20490   4.076   2.658   7.008 -0.1642  0.5225 -1.0156
  179SAPS  C22020491   4.216   2.509   6.983 -0.2830 -0.0269 -0.7571
  179SAPS  H20R20492   4.150   2.445   7.045  1.8910 -1.1068  0.5450
  179SAPS  H20S20493   4.297   2.550   7.048  0.7814 -2.2865 -0.5540
  179SAPS  H20T20494   4.265   2.439   6.912  1.5260 -3.4720  3.4441
  179SAPS   C3320495   3.834   3.258   5.376 -0.0290 -0.4377  0.5095
  179SAPS   H3X20496   3.814   3.180   5.452  0.8115  2.5006  4.0730
  179SAPS   H3Y20497   3.746   3.266   5.309  0.7638 -0.9994 -0.6110
  179SAPS   C3420498   3.857   3.400   5.433  0.3452 -0.2065 -0.4947
  179SAPS   H4X20499   3.777   3.440   5.500  0.7829  0.7430 -0.5118
  179SAPS   H4Y20500   3.853   3.467   5.344  2.0008  0.2524 -0.2581
  179SAPS   C3520501   3.994   3.425   5.498 -0.3440  0.3159  0.1408
  179SAPS   H5X20502   3.993   3.536   5.508  3.3491  0.6090 -1.4315
  179SAPS   H5Y20503   4.076   3.408   5.426 -1.8747 -0.0507 -1.5933
  179SAPS   C3620504   4.005   3.349   5.633  0.8974  0.5054  0.1333
  179SAPS   H6X20505   4.111   3.344   5.668  0.6291  0.5793  0.9799
  179SAPS   H6Y20506   3.968   3.245   5.639 -0.8714  1.1463  0.8785
  179SAPS   C3720507   3.936   3.419   5.758  0.1456  0.7725  0.8471
  179SAPS   H7X20508   3.827   3.421   5.740  0.1396 -0.9519  0.5702
  179SAPS   H7Y20509   3.959   3.527   5.769 -2.6359  1.7005 -1.2550
  179SAPS   C3820510   3.957   3.320   5.874 -0.5150 -0.1976  0.2338
  179SAPS   H8X20511   4.062   3.286   5.871 -0.1653  0.7611  1.2246
  179SAPS   H8Y20512   3.881   3.239   5.868 -1.9781  1.1957 -1.4501
  179SAPS   C3920513   3.942   3.396   6.004  0.0189 -0.4570 -0.2706
  179SAPS   H9X20514   3.835   3.427   6.013 -0.0676 -1.0167  0.8172
  179SAPS   H9Y20515   4.003   3.489   6.002 -0.7640  0.0779  0.0189
  179SAPS  C31020516   3.980   3.306   6.125  0.3397  0.3534  0.3228
  179SAPS  H10X20517   4.084   3.275   6.101  0.3413  0.1755  0.5548
  179SAPS  H10Y20518   3.911   3.221   6.145 -1.3233  1.6437  0.2361
  179SAPS  C31120519   3.968   3.389   6.256 -0.3848 -0.8129  0.1921
  179SAPS  H11X20520   3.984   3.498   6.250  2.2176 -0.5972  5.3186
  179SAPS  H11Y20521   4.028   3.349   6.341  0.8745 -0.5274 -0.5322
  179SAPS  C31220522   3.822   3.389   6.318 -0.4656 -0.0325  0.7151
  179SAPS  H12X20523   3.792   3.288   6.354  1.7779 -0.0779  2.6996
  179SAPS  H12Y20524   3.754   3.407   6.232 -1.8464 -2.6993  1.1584
  179SAPS  C31320525   3.806   3.481   6.434  0.1700 -0.1363 -0.7558
  179SAPS  H13X20526   3.697   3.501   6.446 -0.1508 -2.3221  0.8365
  179SAPS  H13Y20527   3.858   3.576   6.414  0.4305 -0.1590 -0.2188
  179SAPS  C31420528   3.856   3.429   6.568  0.1024  0.3947 -0.7709
  179SAPS  H14X20529   3.876   3.510   6.641  3.8143  2.0348 -3.2939
  179SAPS  H14Y20530   3.959   3.392   6.549  0.6265 -0.0739  2.4619
  179SAPS  C31520531   3.758   3.331   6.635 -0.0299  0.8457  0.3756
  179SAPS  H15X20532   3.819   3.290   6.719  1.4467  0.4510 -0.8321
  179SAPS  H15Y20533   3.727   3.238   6.581  0.1173  1.7289 -1.3070
  179SAPS  C31620534   3.638   3.404   6.682  0.2485 -0.0766  0.6243
  179SAPS  H16X20535   3.583   3.433   6.590  1.3474 -1.8436 -0.6651
  179SAPS  H16Y20536   3.678   3.492   6.736  0.4596 -1.1101  2.2227
  179SAPS  C31720537   3.550   3.321   6.778  0.6684  1.3793 -0.5974
  179SAPS  H17X20538   3.517   3.220   6.743 -1.5495  0.9022  2.4005
  179SAPS  H17Y20539   3.450   3.368   6.783 -1.9040 -3.4388  0.0102
  179SAPS  C31820540   3.602   3.308   6.921  0.1113 -0.2888  0.4076
  179SAPS  H18X20541   3.699   3.255   6.913 -0.2976 -1.0991  0.6573
  179SAPS  H18Y20542   3.526   3.254   6.982  0.2282 -1.0467 -0.1109
  179SAPS  H18Z20543   3.622   3.412   6.956  1.4070 -0.0054 -1.0814
  180SAPS     N20544   3.232   1.284   4.512  0.4304 -0.6242 -0.2195
  180SAPS   HN120545   3.234   1.388   4.503 -1.0580 -0.6495 -1.3031
  180SAPS   HN220546   3.132   1.261   4.526  0.0391  0.2013 -1.4891
  180SAPS   HN320547   3.284   1.253   4.596 -0.8961 -0.4007  0.7001
  180SAPS   C1220548   3.282   1.212   4.387  0.9029  0.3644 -0.3120
  180SAPS  H12A20549   3.231   1.117   4.391  0.6727  0.4935 -0.1494
  180SAPS   C1320550   3.252   1.269   4.248  0.0436  0.0165  0.5324
  180SAPS  O13A20551   3.201   1.380   4.229  0.1634  0.6430 -0.4538
  180SAPS  O13B20552   3.261   1.189   4.150  0.0288  0.7685  0.0252
  180SAPS   C1120553   3.442   1.193   4.386  0.6610  0.6484  0.3150
  180SAPS  H11A20554   3.485   1.292   4.359  2.9420  0.0164  1.3912
  180SAPS  H11B20555   3.466   1.118   4.308 -0.2766 -1.5244  2.0127
  180SAPS     P20556   3.625   1.120   4.558  0.0139 -0.0448  0.2368
  180SAPS   O1320557   3.708   1.081   4.448 -0.4710 -0.0053 -0.2743
  180SAPS   O1420558   3.671   1.229   4.642 -0.7639 -0.1451  0.1497
  180SAPS   O1220559   3.476   1.138   4.515 -0.2738 -0.4194 -0.4559
  180SAPS   O1120560   3.605   0.997   4.646  0.4564  1.1607  0.1224
  180SAPS    C120561   3.540   0.990   4.772 -0.2054  0.2927 -0.1492
  180SAPS    HA20562   3.436   1.029   4.762 -0.2011  0.3472  0.0165
  180SAPS    HB20563   3.518   0.882   4.785 -2.8282  0.8495  0.6130
  180SAPS    C220564   3.621   1.034   4.898  0.1064 -0.1134  0.8046
  180SAPS    HS20565   3.618   1.145   4.886 -3.0396 -0.3522 -2.0935
  180SAPS   O2120566   3.757   0.985   4.893  0.0529 -0.2302  0.2343
  180SAPS   C2120567   3.846   1.073   4.937 -0.1995 -0.2847  0.0044
  180SAPS   O2220568   3.822   1.191   4.960  0.0241  0.5135  0.2932
  180SAPS   C2220569   3.988   1.012   4.964 -0.3208 -0.9862 -0.1027
  180SAPS   H2R20570   4.061   1.071   4.903 -0.1090 -0.9074  0.2248
  180SAPS   H2S20571   4.014   1.035   5.069 -0.2074  1.0846 -0.5281
  180SAPS    C320572   3.558   0.994   5.040  0.8138 -0.1510 -0.0530
  180SAPS    HX20573   3.565   0.883   5.039  2.6508 -0.1005 -2.3461
  180SAPS    HY20574   3.452   1.024   5.043  0.5513 -1.0624  0.2773
  180SAPS   O3120575   3.640   1.055   5.149 -0.7551  0.1974 -0.3285
  180SAPS   C3120576   3.621   1.187   5.179  0.2060  0.0289 -0.8489
  180SAPS   O3220577   3.539   1.257   5.125  0.3725 -0.4738  0.2028
  180SAPS   C3220578   3.697   1.217   5.303 -0.3281  0.4832  0.3092
  180SAPS   H2X20579   3.802   1.198   5.273 -0.7410  0.8897 -1.5510
  180SAPS   H2Y20580   3.681   1.145   5.386 -1.5742  0.3034 -0.0629
  180SAPS   C2320581   4.006   0.867   4.930 -0.4944 -0.5481 -0.1252
  180SAPS   H3R20582   3.995   0.846   4.821 -1.2029  2.5408 -0.7641
  180SAPS   H3S20583   3.924   0.811   4.980 -1.6526 -0.4178 -1.7898
  180SAPS   C2420584   4.138   0.811   4.984  0.3485  0.0255  0.5343
  180SAPS   H4R20585   4.212   0.891   5.001  0.0723  0.1721  1.0750
  180SAPS   H4S20586   4.172   0.749   4.898 -0.7174  0.8688 -0.5382
  180SAPS   C2520587   4.113   0.712   5.102 -0.4958 -0.4664  0.9171
  180SAPS   H5R20588   4.089   0.611   5.064 -0.4300  0.5972 -2.2957
  180SAPS   C2620589   4.124   0.729   5.233 -0.4965  0.1238  0.0357
  180SAPS   H6R20590   4.121   0.638   5.295  4.1955 -1.2071 -1.2677
  180SAPS   C2720591   4.174   0.852   5.293  0.6441 -0.2815 -0.4874
  180SAPS   H7R20592   4.196   0.926   5.213 -3.8115  0.2710 -1.4774
  180SAPS   H7S20593   4.264   0.824   5.351 -1.4829 -3.1303  1.7137
  180SAPS   C2820594   4.069   0.922   5.380 -0.3132 -0.2209  0.1813
  180SAPS   H8R20595   3.999   0.979   5.318  1.5336 -0.6386 -2.4785
  180SAPS   C2920596   4.047   0.892   5.513 -0.1065  0.7346  0.2381
  180SAPS   H9R20597   3.978   0.962   5.562  0.0322  0.8785  0.2259
  180SAPS  C21020598   4.134   0.801   5.598  0.0607 -0.1891  0.2629
  180SAPS  H10R20599   4.141   0.708   5.539 -1.9141 -0.9712  1.1712
  180SAPS  H10S20600   4.084   0.771   5.693 -1.3306 -0.1101 -0.4293
  180SAPS  C21120601   4.267   0.866   5.630 -0.4947  0.1283 -0.7798
  180SAPS  H11R20602   4.329   0.899   5.545  1.1457 -0.2420  0.2340
  180SAPS  C21220603   4.319   0.897   5.755  0.6609  0.1420  0.2401
  180SAPS  H12R20604   4.410   0.959   5.761  1.3896 -0.7973 -0.6179
  180SAPS  C21320605   4.252   0.872   5.884  0.1199 -0.6875 -0.1391
  180SAPS  H13R20606   4.148   0.907   5.869 -0.1127 -1.3024 -0.0033
  180SAPS  H13S20607   4.299   0.933   5.964  1.3145 -1.5267 -0.1793
  180SAPS  C21420608   4.247   0.734   5.936 -0.1746  0.2489 -0.5956
  180SAPS  H14R20609   4.282   0.653   5.869 -1.0597  2.3102 -3.7644
  180SAPS  C21520610   4.213   0.709   6.061  0.2751  0.2793  0.0850
  180SAPS  H15R20611   4.204   0.605   6.094 -0.5350 -0.0302 -1.0661
  180SAPS  C21620612   4.167   0.799   6.172  0.4689 -0.1158 -0.4249
  180SAPS  H16R20613   4.207   0.902   6.165 -0.4130  0.1666 -1.6759
  180SAPS  H16S20614   4.212   0.766   6.268  0.0703  2.2141  0.6027
  180SAPS  C21720615   4.010   0.816   6.192 -0.2936 -0.5270  0.3223
  180SAPS  H17R20616   3.997   0.849   6.297 -0.5921  0.3280  0.0323
  180SAPS  H17S20617   3.960   0.720   6.169  1.8438 -0.7687 -4.6319
  180SAPS  C21820618   3.948   0.933   6.118 -0.2744  0.9299  0.1765
  180SAPS  H18R20619   3.907   0.901   6.020 -0.1090  2.1363 -0.3060
  180SAPS  H18S20620   4.018   1.019   6.103  1.3666 -0.0772  1.6958
  180SAPS  C21920621   3.829   0.990   6.197 -0.7645 -0.4002  0.2305
  180SAPS  H19R20622   3.801   1.077   6.133  2.6612 -1.1172 -2.5378
  180SAPS  H19S20623   3.854   1.023   6.300 -0.9798  1.3472 -0.2399
  180SAPS  C22020624   3.714   0.888   6.201  0.0836  0.1430 -0.8311
  180SAPS  H20R20625   3.744   0.791   6.248 -0.6846  0.8661  1.2651
  180SAPS  H20S20626   3.629   0.924   6.263  0.8773  2.7436 -1.1628
  180SAPS  H20T20627   3.670   0.858   6.104  0.6616  0.9049 -1.3431
  180SAPS   C3320628   3.680   1.358   5.346  0.4044 -0.3120 -0.3603
  180SAPS   H3X20629   3.691   1.430   5.261 -2.6701 -1.0921 -1.5774
  180SAPS   H3Y20630   3.763   1.378   5.416 -0.2959 -0.7460  0.6102
  180SAPS   C3420631   3.541   1.388   5.408  0.1156 -0.0339  0.2832
  180SAPS   H4X20632   3.536   1.314   5.491  2.0536 -0.2905  0.2010
  180SAPS   H4Y20633   3.455   1.374   5.339  0.3175 -0.7072  0.1649
  180SAPS   C3520634   3.520   1.528   5.464 -0.3005 -0.1081 -0.1752
  180SAPS   H5X20635   3.423   1.516   5.516  0.5692 -2.9790  0.9628
  180SAPS   H5Y20636   3.504   1.601   5.381  0.9923  1.0420  0.5414
  180SAPS   C3620637   3.634   1.571   5.558  0.5761 -0.1614 -1.4420
  180SAPS   H6X20638   3.725   1.592   5.498  0.6199  3.3601 -0.3797
  180SAPS   H6Y20639   3.656   1.489   5.629  2.8374  1.8282  0.2928
  180SAPS   C3720640   3.595   1.702   5.632  0.0515  0.1253 -0.6084
  180SAPS   H7X20641   3.552   1.779   5.566 -0.8601 -0.0526 -0.2333
  180SAPS   H7Y20642   3.688   1.740   5.679 -0.6009  1.9457 -0.7234
  180SAPS   C3820643   3.492   1.676   5.748 -0.7128 -0.2903 -0.1052
  180SAPS   H8X20644   3.545   1.588   5.791  0.8539 -0.2321 -1.8120
  180SAPS   H8Y20645   3.386   1.664   5.718 -0.6337 -0.1830 -0.4234
  180SAPS   C3920646   3.493   1.802   5.837 -0.0623 -0.6941  1.0676
  180SAPS   H9X20647   3.443   1.882   5.778  1.7462 -0.5187 -0.3162
  180SAPS   H9Y20648   3.600   1.828   5.850  0.3617 -1.8355 -0.0198
  180SAPS  C31020649   3.408   1.792   5.961 -0.4331  0.8567  0.1098
  180SAPS  H10X20650   3.299   1.786   5.938 -0.3757  0.7457 -0.1325
  180SAPS  H10Y20651   3.417   1.888   6.016  2.8817  0.9980 -0.4851
  180SAPS  C31120652   3.434   1.678   6.056 -1.0434 -0.0420 -0.6879
  180SAPS  H11X20653   3.541   1.672   6.085 -1.2911  0.6644  0.4049
  180SAPS  H11Y20654   3.412   1.580   6.009  1.8562 -0.5768 -1.1320
  180SAPS  C31220655   3.351   1.689   6.190 -0.7954 -0.3257  0.0626
  180SAPS  H12X20656   3.243   1.689   6.167 -1.1490  1.3907  1.4737
  180SAPS  H12Y20657   3.370   1.791   6.231 -2.7862 -1.4007  4.2338
  180SAPS  C31320658   3.390   1.596   6.308 -0.4152 -0.2010  0.6187
  180SAPS  H13X20659   3.499   1.574   6.302 -0.3827  0.3256 -1.0693
  180SAPS  H13Y20660   3.328   1.504   6.303 -2.5405  1.1325  1.2640
  180SAPS  C31420661   3.342   1.660   6.446 -0.1411  0.6305 -0.7626
  180SAPS  H14X20662   3.232   1.669   6.438 -0.1936  1.0764  0.2976
  180SAPS  H14Y20663   3.393   1.756   6.470 -0.0538  0.2027  0.8437
  180SAPS  C31520664   3.371   1.556   6.559 -0.0833  0.0719 -0.2383
  180SAPS  H15X20665   3.481   1.552   6.566  0.1159  2.7591 -0.5604
  180SAPS  H15Y20666   3.322   1.458   6.541  0.7822 -0.4241  0.0882
  180SAPS  C31620667   3.326   1.601   6.695  0.0723  0.4381  0.9973
  180SAPS  H16X20668   3.215   1.607   6.687  0.1501 -0.5764 -1.9256
  180SAPS  H16Y20669   3.365   1.705   6.707  0.1342  0.7125 -1.2745
  180SAPS  C31720670   3.380   1.528   6.809 -0.5066  0.1088  0.7484
  180SAPS  H17X20671   3.490   1.531   6.789 -0.5976  1.2088  0.3657
  180SAPS  H17Y20672   3.355   1.420   6.811  0.9108 -0.2443  0.7375
  180SAPS  C31820673   3.350   1.589   6.948  0.2930 -0.3326 -0.0965
  180SAPS  H18X20674   3.245   1.626   6.942  1.0103  1.7536 -0.7135
  180SAPS  H18Y20675   3.411   1.681   6.965 -0.4302  0.4572 -1.5473
  180SAPS  H18Z20676   3.362   1.519   7.033 -1.1599 -2.1694 -1.3431
  181POPC     N20677   3.554   3.647   0.342  0.0656 -0.6612  0.4618
  181POPC   C1220678   3.598   3.622   0.198 -0.0030 -0.6897  0.3368
  181POPC  H12A20679   3.700   3.588   0.186  0.5257  0.6369  0.8443
  181POPC  H12B20680   3.602   3.714   0.143  1.0482 -1.8497 -1.6186
  181POPC   C1320681   3.424   3.719   0.343  0.5189  0.0439 -0.0629
  181POPC  H13A20682   3.353   3.658   0.291  0.9023 -0.1882 -0.3184
  181POPC  H13B20683   3.389   3.749   0.441  0.2631  2.3407 -0.7908
  181POPC  H13C20684   3.434   3.812   0.289 -3.6088  0.4108 -0.5210
  181POPC   C1420685   3.538   3.508   0.414 -0.9783 -0.8994 -0.1042
  181POPC  H14A20686   3.503   3.527   0.515 -1.2023 -1.3849 -0.0868
  181POPC  H14B20687   3.455   3.457   0.369 -2.0476  1.2202 -0.6735
  181POPC  H14C20688   3.628   3.447   0.410 -0.2185  0.2521 -1.1980
  181POPC   C1520689   3.650   3.741   0.412  0.0724 -0.0444  0.4602
  181POPC  H15A20690   3.629   3.740   0.518  1.0730 -2.8891  0.7359
  181POPC  H15B20691   3.654   3.840   0.370  1.2087  0.2072  1.1242
  181POPC  H15C20692   3.752   3.706   0.412  0.2226  0.2611 -1.9034
  181POPC   C1120693   3.522   3.518   0.109 -0.2511 -0.5226  0.4907
  181POPC  H11A20694   3.567   3.518   0.007 -0.9303 -0.3574  0.1915
  181POPC  H11B20695   3.416   3.547   0.097  0.3533  0.5365 -4.3423
  181POPC     P20696   3.632   3.274   0.154  0.8609 -0.7054  0.0143
  181POPC   O1320697   3.587   3.162   0.232 -0.2715 -0.3140 -0.2046
  181POPC   O1420698   3.765   3.333   0.185 -0.3202 -0.2277 -0.3885
  181POPC   O1220699   3.519   3.386   0.165  0.2495  0.2819 -0.0936
  181POPC   O1120700   3.634   3.239  -0.000  0.3088 -0.2343  0.1598
  181POPC    C120701   3.518   3.241  -0.087 -0.0084  0.2790  0.3551
  181POPC    HA20702   3.443   3.318  -0.061  1.0384  1.6320 -0.4991
  181POPC    HB20703   3.470   3.141  -0.079  1.2452 -0.4361 -0.6353
  181POPC    C220704   3.553   3.261  -0.238 -0.0808 -0.0818  0.3449
  181POPC    HS20705   3.625   3.184  -0.274 -0.3815 -0.0377 -0.3658
  181POPC   O2120706   3.625   3.391  -0.244  0.5784 -0.5822  0.3053
  181POPC   C2120707   3.751   3.382  -0.271 -0.6238  0.2933  0.3154
  181POPC   O2220708   3.818   3.281  -0.278  0.2223 -0.4201 -0.0578
  181POPC   C2220709   3.802   3.523  -0.301 -0.9428  0.5430 -0.4188
  181POPC   H2R20710   3.908   3.504  -0.330 -1.4102  0.1052 -1.9752
  181POPC   H2S20711   3.806   3.574  -0.203 -0.2757  0.8036 -0.5770
  181POPC    C320712   3.428   3.266  -0.325 -0.0658 -0.0887  0.5293
  181POPC    HX20713   3.380   3.364  -0.305 -0.5284 -0.0636 -0.6117
  181POPC    HY20714   3.349   3.190  -0.303  0.1713 -0.1024  1.3647
  181POPC   O3120715   3.464   3.270  -0.463  0.0883 -0.1934 -0.2295
  181POPC   C3120716   3.486   3.150  -0.517 -0.3203 -0.1523  0.0593
  181POPC   O3220717   3.481   3.040  -0.458  0.1271 -0.2024 -0.0671
  181POPC   C3220718   3.498   3.169  -0.666 -1.0055  0.4826  0.1659
  181POPC   H2X20719   3.515   3.276  -0.692  0.2407  0.4486  0.7823
  181POPC   H2Y20720   3.405   3.136  -0.717  0.7087 -2.2415 -1.3964
  181POPC   C2320721   3.714   3.613  -0.398 -0.3410  0.3302 -0.1736
  181POPC   H3R20722   3.770   3.708  -0.412  0.9043 -0.4299 -0.5530
  181POPC   H3S20723   3.612   3.624  -0.355  0.3285  1.1283  1.2906
  181POPC   C2420724   3.712   3.549  -0.537 -0.4375 -0.3476 -0.3214
  181POPC   H4R20725   3.642   3.463  -0.538 -1.2928  0.3293  0.2083
  181POPC   H4S20726   3.819   3.520  -0.544 -0.1151  0.6035  0.5706
  181POPC   C2520727   3.661   3.640  -0.648 -0.5611 -0.5775  0.0845
  181POPC   H5R20728   3.717   3.734  -0.667 -0.6127 -0.3820  0.8726
  181POPC   H5S20729   3.559   3.665  -0.610  0.1987 -1.6191  3.0700
  181POPC   C2620730   3.655   3.570  -0.787  0.6621 -0.3122 -0.1918
  181POPC   H6R20731   3.658   3.459  -0.783 -2.6717 -0.4741  1.1769
  181POPC   H6S20732   3.734   3.614  -0.852 -0.1841  1.3246 -0.1553
  181POPC   C2720733   3.523   3.610  -0.862 -0.1313  0.4088  0.1446
  181POPC   H7R20734   3.534   3.720  -0.861  2.1133  0.2980 -1.9945
  181POPC   H7S20735   3.435   3.586  -0.799  0.7162  0.8951  1.5545
  181POPC   C2820736   3.512   3.554  -1.007 -0.1963  0.3996  0.2902
  181POPC   H8R20737   3.411   3.573  -1.050 -0.8037 -0.2941  1.3744
  181POPC   H8S20738   3.508   3.445  -0.988 -1.2719  0.3328 -0.2413
  181POPC   C2920739   3.618   3.602  -1.102 -0.1593  0.0742 -0.2758
  181POPC   H9120740   3.682   3.682  -1.063  1.0723 -0.1895 -1.7061
  181POPC  C21020741   3.642   3.553  -1.222 -0.2551 -0.6956 -0.0150
  181POPC  H10120742   3.733   3.576  -1.279  0.6086 -0.8698  1.2454
  181POPC  C21120743   3.562   3.437  -1.275 -0.3103 -0.1456 -0.7100
  181POPC  H11R20744   3.491   3.485  -1.345 -0.8082  0.9851  0.5272
  181POPC  H11S20745   3.499   3.388  -1.197 -0.8108  0.6674 -0.5957
  181POPC  C21220746   3.634   3.332  -1.353 -0.5586 -0.0679 -0.9331
  181POPC  H12R20747   3.562   3.249  -1.362 -1.2845  0.6288 -1.7660
  181POPC  H12S20748   3.731   3.291  -1.318 -0.5652  0.0369 -0.7920
  181POPC  C21320749   3.647   3.370  -1.505  0.3876 -0.3951  0.5014
  181POPC  H13R20750   3.721   3.453  -1.514  0.0217 -0.1190  0.0175
  181POPC  H13S20751   3.546   3.397  -1.540 -0.4290 -0.9162  2.3351
  181POPC  C21420752   3.727   3.272  -1.584 -0.1968  0.9092 -0.4883
  181POPC  H14R20753   3.825   3.251  -1.537  0.2036 -0.6078 -1.8930
  181POPC  H14S20754   3.753   3.320  -1.681  2.3182 -3.0677 -2.0400
  181POPC  C21520755   3.654   3.140  -1.618 -0.2856 -0.0339  0.0990
  181POPC  H15R20756   3.567   3.173  -1.679 -0.4709  0.0916  0.4330
  181POPC  H15S20757   3.616   3.092  -1.525 -0.9321  0.4825  0.1048
  181POPC  C21620758   3.727   3.051  -1.724  0.1138  0.1805  0.5508
  181POPC  H16R20759   3.794   3.110  -1.790 -1.0097 -0.7884 -1.5795
  181POPC  H16S20760   3.660   2.981  -1.778  1.3374  1.4404 -2.8811
  181POPC  C21720761   3.812   2.969  -1.631 -0.5368  0.9595 -0.4658
  181POPC  H17R20762   3.737   2.926  -1.562  0.3597 -2.0301 -1.2032
  181POPC  H17S20763   3.877   3.041  -1.576 -0.6100  0.9900 -0.4188
  181POPC  C21820764   3.893   2.862  -1.701  0.1164 -0.3672 -0.5993
  181POPC  H18R20765   3.964   2.909  -1.772  1.6571  2.8121  2.7225
  181POPC  H18S20766   3.824   2.790  -1.749  0.3473 -1.7850  1.0756
  181POPC  H18T20767   3.946   2.798  -1.627 -0.5015 -0.2728 -0.0670
  181POPC   C3320768   3.621   3.088  -0.733 -0.4764 -0.5295  0.4449
  181POPC   H3X20769   3.617   2.979  -0.714  0.1643 -1.0183 -1.8423
  181POPC   H3Y20770   3.719   3.129  -0.700 -0.0942 -1.8566  1.0106
  181POPC   C3420771   3.609   3.100  -0.887  0.5873  0.4101  0.0451
  181POPC   H4X20772   3.623   3.203  -0.926 -1.4733 -0.5994 -3.7803
  181POPC   H4Y20773   3.503   3.075  -0.908  0.7108  0.0414 -0.1350
  181POPC   C3520774   3.706   3.002  -0.951  0.7157  0.1444  0.1685
  181POPC   H5X20775   3.693   2.902  -0.906 -0.4289 -0.0460 -0.5367
  181POPC   H5Y20776   3.810   3.042  -0.947  2.0758 -3.1597  1.2847
  181POPC   C3620777   3.677   2.981  -1.108  0.1874  0.6926  0.0186
  181POPC   H6X20778   3.663   3.082  -1.153  0.3742  1.4581  1.6082
  181POPC   H6Y20779   3.578   2.932  -1.100  0.6063 -0.2255 -0.3148
  181POPC   C3720780   3.781   2.903  -1.193 -0.5541  0.3060 -0.9307
  181POPC   H7X20781   3.835   2.830  -1.128 -2.3824  0.7013  1.1651
  181POPC   H7Y20782   3.857   2.971  -1.237  2.3776 -1.1023  1.5575
  181POPC   C3820783   3.717   2.812  -1.302 -0.0039 -0.3722 -0.0515
  181POPC   H8X20784   3.783   2.777  -1.384  0.4667  1.5505 -0.5620
  181POPC   H8Y20785   3.633   2.868  -1.349 -2.4871 -2.0943  2.0177
  181POPC   C3920786   3.659   2.674  -1.249 -0.3338 -0.8485 -0.4788
  181POPC   H9X20787   3.596   2.690  -1.159  2.8377 -3.0261  2.3908
  181POPC   H9Y20788   3.749   2.621  -1.210  0.9802  0.2946 -1.8288
  181POPC  C31020789   3.565   2.607  -1.341  0.8739 -0.0037 -0.3037
  181POPC  H10X20790   3.478   2.674  -1.357  2.9290  3.0739  0.4955
  181POPC  H10Y20791   3.518   2.521  -1.289 -0.3467  1.1938  0.6325
  181POPC  C31120792   3.643   2.560  -1.474 -0.4771  0.9340 -0.2423
  181POPC  H11X20793   3.739   2.515  -1.439 -1.1408 -0.2604  0.0917
  181POPC  H11Y20794   3.664   2.645  -1.542 -0.4923  0.4155 -0.9065
  181POPC  C31220795   3.578   2.449  -1.558  0.3896  0.0641 -0.0708
  181POPC  H12X20796   3.595   2.351  -1.508 -0.1581  0.0930  0.1757
  181POPC  H12Y20797   3.631   2.442  -1.656  0.4369  1.2297 -0.1362
  181POPC  C31320798   3.424   2.485  -1.583 -0.1210  0.4965 -0.3250
  181POPC  H13X20799   3.417   2.581  -1.638 -2.2666  0.8609  0.5075
  181POPC  H13Y20800   3.378   2.501  -1.484  1.3362 -1.0600  0.6653
  181POPC  C31420801   3.341   2.382  -1.654 -0.3755 -0.1968 -0.2292
  181POPC  H14X20802   3.383   2.347  -1.751 -2.3782  0.1934 -1.3081
  181POPC  H14Y20803   3.249   2.436  -1.686  0.0157  0.0210 -1.0255
  181POPC  C31520804   3.306   2.264  -1.562  0.2536 -0.0391 -0.1563
  181POPC  H15X20805   3.254   2.300  -1.471  0.0683 -1.1059  0.1744
  181POPC  H15Y20806   3.403   2.221  -1.529  0.2659  0.1565  0.0599
  181POPC  C31620807   3.217   2.149  -1.614  0.2304  0.9251  0.1193
  181POPC  H16X20808   3.212   2.065  -1.541  0.7294 -0.6935 -1.6415
  181POPC  H16Y20809   3.260   2.104  -1.706 -0.3285 -0.2179  0.3952
  181POPC  H16Z20810   3.112   2.181  -1.624 -0.3096 -1.1025 -1.2854
  182POPC     N20811   4.630   1.888   0.354 -0.6860  0.5904 -0.3160
  182POPC   C1220812   4.721   1.781   0.288 -0.4620 -0.4703 -0.0547
  182POPC  H12A20813   4.658   1.693   0.282  0.2700 -1.0547  0.6667
  182POPC  H12B20814   4.800   1.747   0.353 -0.3455 -1.3774 -0.6393
  182POPC   C1320815   4.713   2.008   0.388  0.0515  0.4404 -0.2572
  182POPC  H13A20816   4.800   1.987   0.449 -1.0223  0.9405  1.5389
  182POPC  H13B20817   4.726   2.063   0.296 -0.9364  0.4976 -0.3762
  182POPC  H13C20818   4.650   2.076   0.443 -2.3322 -0.7120 -1.4172
  182POPC   C1420819   4.518   1.920   0.267  0.2523 -0.2140  0.1457
  182POPC  H14A20820   4.455   1.996   0.312 -1.6124 -1.9105  0.5565
  182POPC  H14B20821   4.552   1.963   0.174  0.3680  0.6543  0.5736
  182POPC  H14C20822   4.460   1.832   0.244  0.6180 -0.3771 -0.1441
  182POPC   C1520823   4.583   1.831   0.483 -0.2517  0.2498  0.0218
  182POPC  H15A20824   4.559   1.725   0.482  0.3757  0.0994  0.3759
  182POPC  H15B20825   4.504   1.891   0.527  1.1929  2.3754 -0.1544
  182POPC  H15C20826   4.657   1.844   0.561  0.8372  1.5270 -1.1687
  182POPC   C1120827   4.784   1.828   0.154  0.5552  1.1025 -0.7309
  182POPC  H11A20828   4.721   1.879   0.078  0.0408 -0.8709 -1.6871
  182POPC  H11B20829   4.804   1.726   0.116 -2.7286 -0.3451  1.0019
  182POPC     P20830   5.026   1.827   0.257  0.1539 -0.0021 -0.4591
  182POPC   O1320831   4.981   1.772   0.390  0.4655  0.1109  0.3742
  182POPC   O1420832   5.130   1.933   0.255 -0.0936  0.5873 -0.1984
  182POPC   O1220833   4.904   1.899   0.173  0.2894  0.0769 -0.9443
  182POPC   O1120834   5.065   1.711   0.160 -0.1427 -0.1638  0.3675
  182POPC    C120835   5.122   1.724   0.027 -0.2248 -0.0098 -0.5768
  182POPC    HA20836   5.229   1.695   0.032 -0.3687 -0.7479 -1.5280
  182POPC    HB20837   5.118   1.828  -0.014  0.8004  0.2575 -0.0372
  182POPC    C220838   5.047   1.619  -0.065 -0.1277  0.4877 -0.6407
  182POPC    HS20839   5.115   1.612  -0.152 -0.4177  1.8282 -0.9911
  182POPC   O2120840   4.919   1.671  -0.106  0.3404  0.1469  0.2373
  182POPC   C2120841   4.927   1.766  -0.198  0.2893  0.0674 -0.4211
  182POPC   O2220842   5.028   1.793  -0.258 -0.1272 -0.6272  0.0879
  182POPC   C2220843   4.786   1.838  -0.203  0.2437  0.0062  0.8491
  182POPC   H2R20844   4.790   1.920  -0.129  1.1579 -1.4799  2.5145
  182POPC   H2S20845   4.710   1.762  -0.174 -0.3014 -0.0276 -0.5835
  182POPC    C320846   5.029   1.476  -0.003  0.5244  0.0513  0.8931
  182POPC    HX20847   4.935   1.472   0.055 -0.3011  0.5841 -0.3702
  182POPC    HY20848   5.119   1.457   0.060  0.4827 -0.3904  0.8233
  182POPC   O3120849   5.013   1.375  -0.102 -0.1610 -0.2394 -0.1003
  182POPC   C3120850   4.998   1.251  -0.060  0.0348  0.0954  0.3834
  182POPC   O3220851   5.003   1.210   0.054 -0.0293  0.3552  0.3257
  182POPC   C3220852   4.984   1.154  -0.180 -0.1987 -0.2785 -0.3225
  182POPC   H2X20853   5.071   1.084  -0.179 -0.3339 -0.4554  1.4415
  182POPC   H2Y20854   4.973   1.209  -0.277 -1.3749 -0.0867 -0.0852
  182POPC   C2320855   4.769   1.896  -0.338  0.5230 -0.6957 -0.1567
  182POPC   H3R20856   4.824   1.851  -0.423 -1.5965 -2.9506 -0.4333
  182POPC   H3S20857   4.809   1.999  -0.325  2.3513 -1.0776 -2.1102
  182POPC   C2420858   4.617   1.922  -0.371 -0.4293 -0.0248 -0.6747
  182POPC   H4R20859   4.574   1.977  -0.284  2.4417  0.6775  0.4198
  182POPC   H4S20860   4.580   1.818  -0.381  0.2270 -0.2582 -0.7577
  182POPC   C2520861   4.584   1.991  -0.507 -0.3253 -0.1849 -0.5341
  182POPC   H5R20862   4.650   2.081  -0.507  0.3569 -0.6670  0.2985
  182POPC   H5S20863   4.476   2.015  -0.503 -0.5263 -0.8692 -1.6103
  182POPC   C2620864   4.616   1.898  -0.619  0.4060 -0.4362 -1.1057
  182POPC   H6R20865   4.574   1.795  -0.608 -1.3587  0.3133 -0.3809
  182POPC   H6S20866   4.726   1.883  -0.622  0.7845  1.4574  0.8527
  182POPC   C2720867   4.580   1.951  -0.763  0.0629 -0.0095  0.3811
  182POPC   H7R20868   4.619   2.055  -0.766 -0.0701  0.0196 -0.4227
  182POPC   H7S20869   4.469   1.952  -0.766 -0.0370  3.0841  1.2114
  182POPC   C2820870   4.642   1.866  -0.869 -0.0034  0.3303  1.0125
  182POPC   H8R20871   4.615   1.759  -0.854 -2.0668  0.9322  2.0871
  182POPC   H8S20872   4.753   1.866  -0.864  0.1670  0.2802 -1.6761
  182POPC   C2920873   4.602   1.914  -1.008 -0.4724  0.4906  0.6711
  182POPC   H9120874   4.504   1.870  -1.035 -0.4209 -0.3425  1.7399
  182POPC  C21020875   4.673   1.983  -1.094  0.3114  0.0321 -0.0699
  182POPC  H10120876   4.618   2.002  -1.187  0.3638  1.0214  0.0922
  182POPC  C21120877   4.803   2.055  -1.081 -0.3114 -0.2144  0.1544
  182POPC  H11R20878   4.819   2.092  -0.977 -0.7719  0.9503 -0.1729
  182POPC  H11S20879   4.814   2.145  -1.145 -0.5973 -0.0723  0.3008
  182POPC  C21220880   4.929   1.966  -1.121  0.0420  0.0085 -0.2802
  182POPC  H12R20881   4.926   1.874  -1.059 -3.5167  0.5149  0.5318
  182POPC  H12S20882   5.022   2.022  -1.095  0.4370 -1.5565  1.9733
  182POPC  C21320883   4.925   1.915  -1.258  0.4256 -0.3820 -0.0079
  182POPC  H13R20884   4.819   1.890  -1.281  0.3789 -0.1063 -0.0920
  182POPC  H13S20885   4.980   1.820  -1.278 -1.2832 -1.5397  0.5888
  182POPC  C21420886   4.962   2.022  -1.362 -0.0671  1.0541  0.9892
  182POPC  H14R20887   5.072   2.037  -1.364 -0.0854  1.1957  1.0225
  182POPC  H14S20888   4.912   2.117  -1.333 -0.6638  0.8042  0.7852
  182POPC  C21520889   4.922   1.968  -1.499 -0.3019  0.0863 -0.1296
  182POPC  H15R20890   4.815   1.948  -1.519 -0.1497  0.7601 -1.7036
  182POPC  H15S20891   4.981   1.879  -1.529 -0.3869 -0.4230  1.1586
  182POPC  C21620892   4.942   2.092  -1.599 -0.1325 -0.2469 -0.0753
  182POPC  H16R20893   5.051   2.097  -1.621 -0.2799  1.2355 -0.6129
  182POPC  H16S20894   4.916   2.183  -1.540  0.5511 -0.6992  0.9507
  182POPC  C21720895   4.851   2.080  -1.722  0.5415  0.3436  0.5490
  182POPC  H17R20896   4.865   2.167  -1.790  1.3439  0.3585  0.7267
  182POPC  H17S20897   4.750   2.069  -1.676  0.6843 -1.3643  0.5016
  182POPC  C21820898   4.881   1.948  -1.798  0.9627 -0.3251  0.4706
  182POPC  H18R20899   4.808   1.939  -1.881  1.9727 -2.4934 -0.2630
  182POPC  H18S20900   4.862   1.866  -1.726 -1.0350  0.3528  0.7737
  182POPC  H18T20901   4.986   1.941  -1.836  0.8648 -0.6910  0.2626
  182POPC   C3320902   4.863   1.054  -0.172  0.2072 -0.1540 -0.2295
  182POPC   H3X20903   4.768   1.110  -0.182  1.4859  1.7571 -2.3619
  182POPC   H3Y20904   4.861   1.001  -0.074 -0.2464 -1.1491 -0.7582
  182POPC   C3420905   4.875   0.945  -0.277  0.2886 -0.0749 -0.7868
  182POPC   H4X20906   4.795   0.869  -0.266 -0.2648  0.5489 -0.4370
  182POPC   H4Y20907   4.970   0.897  -0.247  0.2092  0.9754  1.2708
  182POPC   C3520908   4.905   0.981  -0.421 -0.3662 -0.4627 -0.3514
  182POPC   H5X20909   4.999   1.039  -0.422 -1.5528  1.6648 -3.3573
  182POPC   H5Y20910   4.821   1.050  -0.442 -0.7923  0.4270  3.5395
  182POPC   C3620911   4.903   0.872  -0.533 -0.8015  0.2142 -0.1539
  182POPC   H6X20912   4.937   0.917  -0.628 -1.3439  0.8925 -0.0348
  182POPC   H6Y20913   4.794   0.851  -0.534 -0.9787  1.0995 -0.2228
  182POPC   C3720914   4.983   0.742  -0.494  0.3577  0.7941  0.1097
  182POPC   H7X20915   4.934   0.699  -0.404  0.1909 -0.2030 -0.4430
  182POPC   H7Y20916   5.089   0.766  -0.472  0.2179  0.2990  1.3948
  182POPC   C3820917   4.986   0.632  -0.599 -0.2731  0.4079  0.2082
  182POPC   H8X20918   5.045   0.659  -0.689 -0.3964 -1.2375 -0.3999
  182POPC   H8Y20919   4.879   0.611  -0.624 -0.2503 -0.8703  1.0634
  182POPC   C3920920   5.050   0.506  -0.544 -0.3636 -0.0636  0.3520
  182POPC   H9X20921   4.990   0.464  -0.460 -3.3935  1.1845 -1.0531
  182POPC   H9Y20922   5.153   0.537  -0.517 -0.5140  1.6375 -0.8999
  182POPC  C31020923   5.077   0.388  -0.644  0.5745  0.6536 -0.4534
  182POPC  H10X20924   4.983   0.358  -0.695  0.1515 -0.2080  0.7655
  182POPC  H10Y20925   5.133   0.305  -0.595  1.4526  0.4823 -1.7139
  182POPC  C31120926   5.177   0.419  -0.760  0.2047 -0.1553 -0.2994
  182POPC  H11X20927   5.271   0.461  -0.717 -0.8677  1.8614  0.1883
  182POPC  H11Y20928   5.136   0.504  -0.820 -0.6444 -1.2959 -1.3824
  182POPC  C31220929   5.202   0.303  -0.859  1.1109 -0.4205 -0.3025
  182POPC  H12X20930   5.106   0.306  -0.914  1.6930  0.9394 -1.3031
  182POPC  H12Y20931   5.208   0.212  -0.795  0.2427 -0.2579  0.0274
  182POPC  C31320932   5.302   0.326  -0.974 -0.1479 -0.1955 -0.0851
  182POPC  H13X20933   5.403   0.352  -0.937  0.8078 -1.4661 -1.6844
  182POPC  H13Y20934   5.265   0.410  -1.036  2.6760  0.4295 -1.0697
  182POPC  C31420935   5.308   0.189  -1.050 -1.0201  0.6406 -0.1140
  182POPC  H14X20936   5.220   0.122  -1.040  0.1532 -0.6949  1.9871
  182POPC  H14Y20937   5.391   0.133  -1.003 -0.0920  2.6202  0.7307
  182POPC  C31520938   5.358   0.212  -1.195 -0.1901 -0.3843  0.0096
  182POPC  H15X20939   5.469   0.219  -1.198 -0.2971  1.4340 -0.9871
  182POPC  H15Y20940   5.317   0.302  -1.245  1.7536 -0.0844 -1.1737
  182POPC  C31620941   5.326   0.092  -1.290  0.0756 -0.4123  0.3367
  182POPC  H16X20942   5.219   0.113  -1.313  0.2363 -0.0686 -0.1203
  182POPC  H16Y20943   5.336  -0.008  -1.242 -1.9658 -1.2922 -0.8983
  182POPC  H16Z20944   5.387   0.094  -1.383 -0.2659  2.2519  0.0943
  183POPC     N20945   1.062   2.405   0.423  0.7090 -0.0570  0.3419
  183POPC   C1220946   1.068   2.481   0.295  0.2764  0.9089  0.5220
  183POPC  H12A20947   1.168   2.471   0.256  0.1346  1.1436  0.0919
  183POPC  H12B20948   1.060   2.586   0.320  2.2227  1.3095 -0.3240
  183POPC   C1320949   1.135   2.472   0.539 -0.1159  0.7369 -0.0691
  183POPC  H13A20950   1.240   2.484   0.518  0.1808 -1.8961 -0.3821
  183POPC  H13B20951   1.099   2.573   0.551 -0.4256  0.5108  0.9371
  183POPC  H13C20952   1.117   2.403   0.620 -1.3904  0.8421 -0.2426
  183POPC   C1420953   0.917   2.397   0.468 -0.8240 -0.2554 -0.0667
  183POPC  H14A20954   0.910   2.319   0.543  4.1836 -0.9220  0.0470
  183POPC  H14B20955   0.883   2.494   0.503  0.4624  0.0943  0.2939
  183POPC  H14C20956   0.850   2.371   0.387  0.1484 -2.4546 -0.2228
  183POPC   C1520957   1.114   2.266   0.401  0.0020 -0.3270  0.5002
  183POPC  H15A20958   1.094   2.209   0.491 -2.5014  1.1015  0.9599
  183POPC  H15B20959   1.216   2.277   0.369  0.1342  1.7222  1.4487
  183POPC  H15C20960   1.059   2.223   0.319 -0.6504  2.1233 -0.4457
  183POPC   C1120961   0.966   2.444   0.186 -0.0740 -0.6515  0.1007
  183POPC  H11A20962   1.002   2.507   0.101  0.3880 -0.3690  0.5027
  183POPC  H11B20963   0.862   2.475   0.209 -0.7173 -1.0308 -2.0631
  183POPC     P20964   1.075   2.261   0.041  0.2222  0.3505 -0.0610
  183POPC   O1320965   1.119   2.122   0.081  0.3874  0.5500  0.0565
  183POPC   O1420966   1.180   2.356   0.018  0.5890 -0.7195 -0.3517
  183POPC   O1220967   0.974   2.306   0.158 -0.0136 -0.3500  0.2118
  183POPC   O1120968   0.994   2.268  -0.095  0.4480  1.0147  0.0436
  183POPC    C120969   0.899   2.164  -0.130  0.2252 -0.7276 -0.0093
  183POPC    HA20970   0.836   2.197  -0.215  0.2197 -0.5161  0.0776
  183POPC    HB20971   0.840   2.137  -0.040  0.3426 -0.1114  0.2548
  183POPC    C220972   0.966   2.032  -0.181 -1.0573 -0.4526  0.0318
  183POPC    HS20973   1.035   1.990  -0.105  1.0829  0.4692 -1.3202
  183POPC   O2120974   1.041   2.069  -0.297 -0.3576 -0.6809 -0.3072
  183POPC   C2120975   1.136   1.989  -0.340  0.0273 -0.0163 -0.3787
  183POPC   O2220976   1.176   1.886  -0.283  0.4792 -0.7182 -0.4659
  183POPC   C2220977   1.184   2.038  -0.479 -0.0660 -0.5102  0.3034
  183POPC   H2R20978   1.212   2.145  -0.473  2.7314 -1.0754 -0.8098
  183POPC   H2S20979   1.102   2.033  -0.554  0.3342  1.6080 -0.3350
  183POPC    C320980   0.858   1.926  -0.215 -0.5491  0.7448  0.3067
  183POPC    HX20981   0.807   1.894  -0.121  0.7369 -1.6917  0.2797
  183POPC    HY20982   0.926   1.846  -0.253 -0.9931  0.2440  0.5404
  183POPC   O3120983   0.765   1.977  -0.306  0.4727  0.4698 -0.1576
  183POPC   C3120984   0.777   1.937  -0.432 -0.1710  0.0876 -0.6048
  183POPC   O3220985   0.861   1.860  -0.468 -0.3524  0.1080 -0.1130
  183POPC   C3220986   0.666   2.003  -0.508  0.1340 -0.3714 -0.2928
  183POPC   H2X20987   0.605   2.075  -0.450 -1.0442 -0.8881 -0.8693
  183POPC   H2Y20988   0.591   1.922  -0.525 -0.2488 -0.2147  0.5988
  183POPC   C2320989   1.304   1.956  -0.531  0.1847  0.1308  0.0184
  183POPC   H3R20990   1.274   1.851  -0.547 -0.3672  0.1451  0.9019
  183POPC   H3S20991   1.377   1.969  -0.449 -0.1443  2.4325  0.0363
  183POPC   C2420992   1.368   2.006  -0.658  0.1673 -0.2446  0.2046
  183POPC   H4R20993   1.464   1.951  -0.672  0.8485  1.4026 -2.3408
  183POPC   H4S20994   1.389   2.115  -0.654  1.9411 -0.4707 -1.6454
  183POPC   C2520995   1.285   1.976  -0.779  0.2489 -0.4557  0.3227
  183POPC   H5R20996   1.187   2.029  -0.773 -0.0293 -0.7947 -0.9202
  183POPC   H5S20997   1.272   1.866  -0.788  0.4557 -0.4149 -0.6064
  183POPC   C2620998   1.360   2.026  -0.902 -0.0018  0.3256 -0.0040
  183POPC   H6R20999   1.424   1.948  -0.949 -0.0648 -0.8273  1.6964
  183POPC   H6S21000   1.403   2.127  -0.886  0.1266  0.2356  0.2193
  183POPC   C2721001   1.253   2.056  -1.011  0.2352 -0.4508 -0.4947
  183POPC   H7R21002   1.185   2.134  -0.969 -0.9313 -0.8599 -1.5516
  183POPC   H7S21003   1.191   1.965  -1.024  2.1249 -1.9976  0.7225
  183POPC   C2821004   1.322   2.115  -1.138  0.4511 -0.0565  0.4541
  183POPC   H8R21005   1.386   2.038  -1.185 -2.0671 -1.7386 -0.4019
  183POPC   H8S21006   1.396   2.189  -1.100  2.6062 -1.3905 -0.9293
  183POPC   C2921007   1.219   2.159  -1.238  0.0440 -0.1466  0.1101
  183POPC   H9121008   1.146   2.223  -1.186  1.1354  0.8647  0.4391
  183POPC  C21021009   1.202   2.128  -1.371  0.4968  0.0845  0.4859
  183POPC  H10121010   1.114   2.158  -1.430  2.5285  0.9196 -2.3136
  183POPC  C21121011   1.285   2.029  -1.454  0.4165  0.0554  0.0215
  183POPC  H11R21012   1.218   1.960  -1.509  0.5398  0.4590 -0.6398
  183POPC  H11S21013   1.352   1.969  -1.389  0.9395  0.2078 -0.3697
  183POPC  C21221014   1.367   2.095  -1.566 -0.5987 -0.5844 -0.6710
  183POPC  H12R21015   1.435   2.011  -1.593 -0.4039 -0.4442 -0.6160
  183POPC  H12S21016   1.428   2.179  -1.526  0.4774 -1.2663 -0.8261
  183POPC  C21321017   1.288   2.147  -1.692  0.0686  0.3442  0.0615
  183POPC  H13R21018   1.246   2.247  -1.670  0.2583  0.1574  1.3887
  183POPC  H13S21019   1.210   2.077  -1.731  0.7751 -0.0536 -0.6839
  183POPC  C21421020   1.381   2.174  -1.817 -0.1929 -0.0601 -0.1740
  183POPC  H14R21021   1.434   2.079  -1.840  0.3625  0.3241 -0.5189
  183POPC  H14S21022   1.463   2.246  -1.794 -0.9213  1.2488 -1.4885
  183POPC  C21521023   1.300   2.231  -1.933 -0.4409 -0.1083 -0.4417
  183POPC  H15R21024   1.243   2.311  -1.881  0.4904 -1.4427  2.9511
  183POPC  H15S21025   1.232   2.157  -1.980 -0.3343  0.6751 -1.8716
  183POPC  C21621026   1.388   2.288  -2.049  0.4613 -0.1199 -0.6235
  183POPC  H16R21027   1.466   2.349  -1.999 -1.8107  1.1040  1.6497
  183POPC  H16S21028   1.316   2.348  -2.108  0.4635 -0.5924 -1.1175
  183POPC  C21721029   1.453   2.178  -2.139 -0.3509 -0.5220  0.0316
  183POPC  H17R21030   1.374   2.105  -2.168  0.9324 -1.4861 -1.1534
  183POPC  H17S21031   1.523   2.120  -2.076  0.5769 -0.2968 -0.7693
  183POPC  C21821032   1.532   2.222  -2.265  0.1531 -0.0904 -0.8313
  183POPC  H18R21033   1.615   2.292  -2.239 -0.5074  0.6505 -0.6933
  183POPC  H18S21034   1.467   2.267  -2.343  0.3072 -0.9509 -1.4679
  183POPC  H18T21035   1.580   2.135  -2.315 -1.2263 -2.8082  2.2169
  183POPC   C3321036   0.717   2.069  -0.636 -0.0894  0.2442 -0.0806
  183POPC   H3X21037   0.804   2.134  -0.616  1.6795 -2.3214  1.0830
  183POPC   H3Y21038   0.633   2.137  -0.661 -0.4652 -0.0174  0.4480
  183POPC   C3421039   0.749   1.976  -0.755 -0.4622 -0.0557 -0.0352
  183POPC   H4X21040   0.686   1.884  -0.751 -3.5430  1.9258  0.7016
  183POPC   H4Y21041   0.852   1.937  -0.741 -1.0523 -1.7743 -0.1699
  183POPC   C3521042   0.735   2.036  -0.900 -0.0904  0.4424 -0.0046
  183POPC   H5X21043   0.639   2.090  -0.911  0.8395  2.5117  1.3411
  183POPC   H5Y21044   0.743   1.950  -0.970 -2.6166  0.4006 -0.3126
  183POPC   C3621045   0.849   2.137  -0.932 -0.2578 -0.2743  0.1578
  183POPC   H6X21046   0.942   2.096  -0.886 -1.8873 -1.4173  2.6094
  183POPC   H6Y21047   0.818   2.228  -0.876 -0.2573 -1.2429  1.7828
  183POPC   C3721048   0.873   2.181  -1.077  0.8579 -0.4987  0.1788
  183POPC   H7X21049   0.918   2.100  -1.138 -2.8005 -2.3595 -0.2758
  183POPC   H7Y21050   0.940   2.269  -1.064 -0.3459  0.1675  2.5448
  183POPC   C3821051   0.738   2.229  -1.140 -0.8128  0.4522 -0.2035
  183POPC   H8X21052   0.687   2.302  -1.074 -1.7633 -0.1846 -0.2132
  183POPC   H8Y21053   0.667   2.144  -1.133 -1.0354  0.7510  1.8168
  183POPC   C3921054   0.752   2.275  -1.285  0.5282 -0.6622  0.0090
  183POPC   H9X21055   0.850   2.329  -1.287 -0.2342  0.7695 -2.2077
  183POPC   H9Y21056   0.675   2.349  -1.314  0.6100  0.3785  2.2346
  183POPC  C31021057   0.767   2.164  -1.394 -0.2196 -0.6133 -1.1875
  183POPC  H10X21058   0.663   2.131  -1.413 -0.6002  0.6602 -1.4580
  183POPC  H10Y21059   0.825   2.079  -1.352 -0.1746 -0.2996 -0.5985
  183POPC  C31121060   0.826   2.231  -1.514  0.1509  0.3567 -0.3449
  183POPC  H11X21061   0.919   2.285  -1.485  0.8910 -0.1359 -1.7228
  183POPC  H11Y21062   0.756   2.309  -1.550 -0.5099  0.9931  2.1332
  183POPC  C31221063   0.870   2.120  -1.616 -0.3570 -0.2870 -0.5233
  183POPC  H12X21064   0.806   2.030  -1.603  2.8720 -2.4728  1.5650
  183POPC  H12Y21065   0.974   2.087  -1.594 -0.6477 -0.1045  1.3322
  183POPC  C31321066   0.880   2.165  -1.761  0.2987  0.7137 -0.4426
  183POPC  H13X21067   0.938   2.259  -1.774  1.0472  0.3873  0.3988
  183POPC  H13Y21068   0.778   2.190  -1.798  0.1911 -1.2289 -1.5785
  183POPC  C31421069   0.919   2.043  -1.842  0.5653  0.0573  0.2058
  183POPC  H14X21070   0.849   1.959  -1.823 -0.1283  0.6453  0.3308
  183POPC  H14Y21071   1.022   2.021  -1.808  0.7249 -0.6853 -0.7203
  183POPC  C31521072   0.933   2.073  -1.991 -0.1748  0.7569 -0.2194
  183POPC  H15X21073   1.003   2.157  -2.011  2.2309 -1.1514 -0.2720
  183POPC  H15Y21074   0.830   2.097  -2.025 -1.0980 -1.6600  0.6967
  183POPC  C31621075   0.976   1.946  -2.066  0.1268 -0.7988 -0.0483
  183POPC  H16X21076   0.918   1.858  -2.031 -0.6100  0.6589  2.6396
  183POPC  H16Y21077   1.075   1.916  -2.026  0.1495 -0.2047  0.3633
  183POPC  H16Z21078   0.987   1.959  -2.176 -1.1594  1.2828  0.0237
  184POPC     N21079   1.090   3.393   0.520 -0.5201 -0.0283 -0.8053
  184POPC   C1221080   1.074   3.358   0.378  0.0574  0.1007  0.3710
  184POPC  H12A21081   1.022   3.431   0.317 -1.7520 -3.6399 -3.0382
  184POPC  H12B21082   1.025   3.262   0.375  1.4659 -0.6186 -0.8654
  184POPC   C1321083   0.954   3.419   0.578  0.2711 -0.3699  0.1530
  184POPC  H13A21084   0.957   3.471   0.672 -1.0280 -2.1265  1.2257
  184POPC  H13B21085   0.891   3.476   0.511 -0.8318  0.4879  1.8636
  184POPC  H13C21086   0.906   3.326   0.606 -0.4937  0.5572  2.0959
  184POPC   C1421087   1.146   3.284   0.610  0.2438 -0.2327 -0.0314
  184POPC  H14A21088   1.176   3.321   0.707 -1.3589  0.4588  0.2225
  184POPC  H14B21089   1.082   3.198   0.627  2.2620 -1.9920 -0.8441
  184POPC  H14C21090   1.239   3.246   0.570  0.3673  1.7515 -1.8322
  184POPC   C1521091   1.165   3.520   0.527 -0.2094 -0.6485 -0.2617
  184POPC  H15A21092   1.108   3.598   0.478 -1.5024 -1.7884 -0.6185
  184POPC  H15B21093   1.258   3.512   0.472  1.8733 -0.2495  2.9119
  184POPC  H15C21094   1.191   3.562   0.623 -0.4577 -0.1505 -0.4111
  184POPC   C1121095   1.205   3.326   0.299 -0.0109  0.1365  0.1151
  184POPC  H11A21096   1.170   3.287   0.202  0.1014 -2.2348  0.9674
  184POPC  H11B21097   1.260   3.246   0.354  1.2519  1.0021  0.1647
  184POPC     P21098   1.447   3.438   0.282  0.0583  0.1976  0.0386
  184POPC   O1321099   1.491   3.334   0.376  0.2976  0.2652 -0.5947
  184POPC   O1421100   1.490   3.574   0.323 -0.4183 -0.2660 -0.3824
  184POPC   O1221101   1.293   3.441   0.279 -0.2252 -0.2285  0.7435
  184POPC   O1121102   1.496   3.406   0.138  0.0765  0.6438 -0.3605
  184POPC    C121103   1.433   3.315   0.045  0.3214  0.8893 -0.3133
  184POPC    HA21104   1.329   3.282   0.068  1.1479 -0.9119  1.0942
  184POPC    HB21105   1.475   3.212   0.045  1.3018  1.2713  0.2899
  184POPC    C221106   1.453   3.370  -0.091 -0.2229 -0.2706  0.7736
  184POPC    HS21107   1.537   3.443  -0.093 -1.4219  1.2025  1.6537
  184POPC   O2121108   1.336   3.448  -0.134 -0.1122 -0.0181 -0.1517
  184POPC   C2121109   1.323   3.573  -0.087 -0.2119 -0.2308 -0.1429
  184POPC   O2221110   1.396   3.627  -0.006  0.0165  0.4279  0.1515
  184POPC   C2221111   1.182   3.612  -0.136 -0.7900  0.1749 -0.2272
  184POPC   H2R21112   1.118   3.643  -0.051  1.9301  3.4973  0.8496
  184POPC   H2S21113   1.135   3.523  -0.183 -0.9081  0.1043  0.0263
  184POPC    C321114   1.485   3.266  -0.198  0.1705 -0.8505  0.3152
  184POPC    HX21115   1.397   3.199  -0.213  0.2429 -1.2184  1.4154
  184POPC    HY21116   1.571   3.206  -0.160  2.5475  2.0712 -0.1310
  184POPC   O3121117   1.523   3.335  -0.321  0.6152 -0.3295 -0.0098
  184POPC   C3121118   1.432   3.366  -0.405  0.2444 -0.2476  0.5611
  184POPC   O3221119   1.312   3.344  -0.397  0.5675 -0.1384 -0.0650
  184POPC   C3221120   1.502   3.450  -0.524  0.5551  0.3329  0.2084
  184POPC   H2X21121   1.604   3.414  -0.549 -0.0060 -1.5615  0.4783
  184POPC   H2Y21122   1.508   3.556  -0.493  0.4865  0.2679  0.4436
  184POPC   C2321123   1.183   3.733  -0.230  0.2297 -0.5730  0.2974
  184POPC   H3R21124   1.200   3.825  -0.170  1.9538 -1.2295  0.8654
  184POPC   H3S21125   1.086   3.742  -0.283 -1.5349 -2.9831  2.8211
  184POPC   C2421126   1.297   3.734  -0.342  0.4105  0.6514  0.1462
  184POPC   H4R21127   1.286   3.644  -0.407 -0.1050  1.6706 -1.2468
  184POPC   H4S21128   1.388   3.726  -0.280 -0.0511 -1.8199  0.5995
  184POPC   C2521129   1.290   3.856  -0.433 -0.0290  0.1569 -0.8944
  184POPC   H5R21130   1.294   3.953  -0.379 -2.3016 -0.1452 -0.0520
  184POPC   H5S21131   1.189   3.857  -0.479  0.1246 -0.3301 -1.2433
  184POPC   C2621132   1.377   3.852  -0.560 -0.6900  0.6838 -0.1905
  184POPC   H6R21133   1.348   3.761  -0.617  2.1818 -1.5801  1.6860
  184POPC   H6S21134   1.479   3.825  -0.526 -0.1343  2.0937 -0.6632
  184POPC   C2721135   1.369   3.970  -0.649  0.5903  0.2511  0.6218
  184POPC   H7R21136   1.408   4.052  -0.585  2.4049 -0.2453  0.2019
  184POPC   H7S21137   1.270   4.012  -0.677  0.0571 -2.1514 -1.5011
  184POPC   C2821138   1.428   3.938  -0.788 -0.2613 -0.7852 -0.0489
  184POPC   H8R21139   1.344   3.943  -0.861  1.2406 -1.1895 -1.8866
  184POPC   H8S21140   1.464   3.833  -0.796 -1.6649 -1.2948  0.1368
  184POPC   C2921141   1.537   4.030  -0.825  0.2051 -0.1645 -0.2659
  184POPC   H9121142   1.608   4.067  -0.749  1.1058 -1.9562 -0.1954
  184POPC  C21021143   1.540   4.101  -0.942 -0.9838  0.2790  0.8774
  184POPC  H10121144   1.625   4.167  -0.966 -1.4233 -0.3148 -2.8505
  184POPC  C21121145   1.442   4.073  -1.053 -0.2041  0.9838 -0.7802
  184POPC  H11R21146   1.344   4.112  -1.020 -0.0003 -0.5859  1.9807
  184POPC  H11S21147   1.424   3.965  -1.072  0.0680  0.9288 -0.7286
  184POPC  C21221148   1.493   4.153  -1.171  0.0506  0.0020  0.4749
  184POPC  H12R21149   1.512   4.259  -1.145 -1.8029  1.1444 -2.3624
  184POPC  H12S21150   1.420   4.157  -1.256  1.3475 -3.0814 -0.9377
  184POPC  C21321151   1.619   4.089  -1.239 -0.1191 -0.1881  0.0769
  184POPC  H13R21152   1.662   4.008  -1.175 -1.3357  0.1686  1.4193
  184POPC  H13S21153   1.696   4.165  -1.263  1.2452 -1.5204  0.0661
  184POPC  C21421154   1.589   4.024  -1.374 -0.4903  0.4245  0.0840
  184POPC  H14R21155   1.687   4.013  -1.423 -0.0322  2.5857  0.4102
  184POPC  H14S21156   1.531   4.100  -1.430 -0.3208 -0.4543 -1.3388
  184POPC  C21521157   1.517   3.889  -1.365 -0.5201 -0.1479  0.2005
  184POPC  H15R21158   1.423   3.923  -1.318  0.9161  2.3101  1.4842
  184POPC  H15S21159   1.561   3.809  -1.302 -1.2997 -0.0460  0.8912
  184POPC  C21621160   1.469   3.830  -1.502  0.3990 -0.1168 -0.8843
  184POPC  H16R21161   1.552   3.780  -1.555 -0.8176 -0.9254 -2.0821
  184POPC  H16S21162   1.418   3.915  -1.553 -3.0727  0.5216  3.1104
  184POPC  C21721163   1.362   3.722  -1.481 -0.4956 -0.3116 -0.0232
  184POPC  H17R21164   1.291   3.778  -1.417  2.4629  0.2661  3.0886
  184POPC  H17S21165   1.396   3.635  -1.420  0.4326 -0.9036 -1.3334
  184POPC  C21821166   1.298   3.683  -1.617 -0.0773  0.1401 -0.2055
  184POPC  H18R21167   1.354   3.604  -1.671 -1.3878  0.1407 -1.6589
  184POPC  H18S21168   1.281   3.765  -1.690 -2.3673 -0.7436 -0.7656
  184POPC  H18T21169   1.198   3.635  -1.614  0.6458 -1.4505 -0.3637
  184POPC   C3321170   1.416   3.440  -0.647  0.4825  0.3345  0.7387
  184POPC   H3X21171   1.319   3.489  -0.628 -0.5024 -1.3029  0.1698
  184POPC   H3Y21172   1.399   3.335  -0.680  2.1709  0.1500  0.3398
  184POPC   C3421173   1.474   3.514  -0.770 -0.3243 -0.0362  0.1963
  184POPC   H4X21174   1.584   3.494  -0.769 -0.2778  0.2041  1.0190
  184POPC   H4Y21175   1.455   3.623  -0.763  0.9330  0.4107 -2.2955
  184POPC   C3521176   1.420   3.468  -0.908 -0.5630  0.3671 -0.6825
  184POPC   H5X21177   1.333   3.536  -0.923 -1.4231 -0.2410  1.1451
  184POPC   H5Y21178   1.378   3.365  -0.907 -1.0547  0.4867 -3.2402
  184POPC   C3621179   1.507   3.477  -1.031  0.4181 -0.3159 -0.7299
  184POPC   H6X21180   1.589   3.406  -1.010  1.1510  0.7097 -0.0210
  184POPC   H6Y21181   1.554   3.576  -1.046  1.8408 -1.1726 -2.1588
  184POPC   C3721182   1.438   3.427  -1.161  1.0796  0.1185 -0.9445
  184POPC   H7X21183   1.362   3.498  -1.199 -1.4631 -2.2445 -0.6257
  184POPC   H7Y21184   1.385   3.339  -1.117  1.9656 -0.5420 -1.1761
  184POPC   C3821185   1.541   3.397  -1.265 -0.4384  0.2276 -0.3915
  184POPC   H8X21186   1.630   3.339  -1.231 -1.3060 -1.4027 -0.7515
  184POPC   H8Y21187   1.576   3.495  -1.303  1.5665  0.0336  0.8465
  184POPC   C3921188   1.471   3.317  -1.376  0.0280  0.0292  0.4627
  184POPC   H9X21189   1.380   3.364  -1.418 -0.0601 -0.9803 -0.5302
  184POPC   H9Y21190   1.434   3.234  -1.312 -0.7194  0.8693  1.1475
  184POPC  C31021191   1.545   3.251  -1.490  0.5256 -0.5741  0.4283
  184POPC  H10X21192   1.487   3.158  -1.512 -1.3073  0.9910 -1.8017
  184POPC  H10Y21193   1.642   3.213  -1.452  0.5897 -1.8237 -0.8698
  184POPC  C31121194   1.553   3.329  -1.613 -0.2361 -0.8423  0.3753
  184POPC  H11X21195   1.497   3.425  -1.609  0.7799 -0.2833  2.2587
  184POPC  H11Y21196   1.503   3.274  -1.696  1.7452  0.5809 -1.9130
  184POPC  C31221197   1.698   3.372  -1.650 -0.0904  0.1124 -0.1538
  184POPC  H12X21198   1.757   3.278  -1.643  0.7008  0.4398 -1.9167
  184POPC  H12Y21199   1.750   3.432  -1.572  0.5013  0.5519 -0.8753
  184POPC  C31321200   1.696   3.439  -1.788  0.2144 -0.3850  0.0865
  184POPC  H13X21201   1.633   3.375  -1.853  0.5542 -1.1372  0.4918
  184POPC  H13Y21202   1.797   3.438  -1.834  0.3172 -1.3639  0.3163
  184POPC  C31421203   1.657   3.591  -1.790  0.3122 -0.2066  0.5364
  184POPC  H14X21204   1.707   3.642  -1.705 -0.7515  1.6107  0.1277
  184POPC  H14Y21205   1.548   3.599  -1.770  0.1193 -0.3578 -0.4215
  184POPC  C31521206   1.673   3.659  -1.922  0.4799 -0.1342 -0.1067
  184POPC  H15X21207   1.662   3.597  -2.013  2.4256 -2.1763  0.9680
  184POPC  H15Y21208   1.780   3.681  -1.939  0.4132 -0.3783 -0.9142
  184POPC  C31621209   1.585   3.784  -1.936 -0.3002 -0.2757 -0.6901
  184POPC  H16X21210   1.478   3.756  -1.927  0.3274 -2.8024 -0.2741
  184POPC  H16Y21211   1.597   3.821  -2.041  2.1517  0.3024 -0.2527
  184POPC  H16Z21212   1.605   3.861  -1.858  0.4396 -1.1918  0.0374
  185POPC     N21213   2.295   4.263   4.508  0.1533 -0.5431  0.0478
  185POPC   C1221214   2.396   4.350   4.582  0.3278 -0.6275 -0.5871
  185POPC  H12A21215   2.371   4.454   4.565 -0.3932 -0.5668  0.6867
  185POPC  H12B21216   2.493   4.336   4.537 -0.2265  1.6921 -2.7035
  185POPC   C1321217   2.153   4.297   4.558  0.0078 -0.0552 -0.0144
  185POPC  H13A21218   2.075   4.240   4.510 -0.1575  1.2091 -1.3399
  185POPC  H13B21219   2.128   4.277   4.661 -0.1692  1.8241  0.3545
  185POPC  H13C21220   2.130   4.403   4.549 -1.7107  0.0755  4.1271
  185POPC   C1421221   2.305   4.284   4.363  0.9215 -0.0186  0.1502
  185POPC  H14A21222   2.243   4.211   4.314  2.3345 -0.4016 -1.1616
  185POPC  H14B21223   2.267   4.380   4.332 -1.2749 -1.2969 -1.3404
  185POPC  H14C21224   2.404   4.263   4.323  0.3747  0.1494 -1.3720
  185POPC   C1521225   2.319   4.122   4.539 -0.0639 -0.5636 -0.1385
  185POPC  H15A21226   2.323   4.115   4.647 -1.4253  2.8259  0.2615
  185POPC  H15B21227   2.409   4.091   4.489  0.4715 -0.0294  0.4717
  185POPC  H15C21228   2.248   4.048   4.504  0.8380 -2.4325  1.7182
  185POPC   C1121229   2.405   4.331   4.733 -0.2027  0.2365 -0.3147
  185POPC  H11A21230   2.302   4.348   4.771 -0.2162 -1.4114  0.4484
  185POPC  H11B21231   2.467   4.411   4.779 -0.7199 -0.1016  1.0399
  185POPC     P21232   2.589   4.167   4.796 -0.1968  0.1274  0.0694
  185POPC   O1321233   2.639   4.265   4.903  0.4499  0.5282 -0.0331
  185POPC   O1421234   2.660   4.169   4.667 -0.1607  0.6519 -0.0350
  185POPC   O1221235   2.442   4.194   4.772  0.0389 -0.0957 -0.0698
  185POPC   O1121236   2.603   4.025   4.859 -0.0453  0.6149  0.0307
  185POPC    C121237   2.516   3.916   4.829 -0.3075 -0.0162 -0.1637
  185POPC    HA21238   2.578   3.825   4.822  1.2192  0.7421  2.1567
  185POPC    HB21239   2.446   3.936   4.745  0.0332  1.2524 -0.1684
  185POPC    C221240   2.426   3.888   4.963 -0.0892  0.0760 -0.8216
  185POPC    HS21241   2.347   3.811   4.947 -0.4253  0.2221  0.1167
  185POPC   O2121242   2.371   4.011   5.015  0.2345  0.2216 -0.2529
  185POPC   C2121243   2.249   4.033   4.975  0.0743 -0.1186 -0.1558
  185POPC   O2221244   2.194   3.962   4.890 -0.1891 -0.3359 -0.2838
  185POPC   C2221245   2.178   4.142   5.053  0.0129 -0.2076  0.0619
  185POPC   H2R21246   2.093   4.181   4.994 -0.2746 -0.4879  0.2842
  185POPC   H2S21247   2.248   4.226   5.070 -1.4707  0.7662  1.7551
  185POPC    C321248   2.525   3.836   5.079 -0.0283 -0.0607 -0.3389
  185POPC    HX21249   2.595   3.921   5.090  0.8777 -0.7986 -0.3111
  185POPC    HY21250   2.587   3.751   5.044  0.5639  0.5545 -0.8128
  185POPC   O3121251   2.455   3.796   5.203  0.0407 -0.0204  0.0005
  185POPC   C3121252   2.402   3.687   5.197 -0.4226 -0.3495 -0.5085
  185POPC   O3221253   2.377   3.614   5.100 -0.2031 -0.0857 -0.3202
  185POPC   C3221254   2.356   3.655   5.340  0.0247 -0.4660  0.2911
  185POPC   H2X21255   2.280   3.729   5.374 -0.3658 -0.3203 -0.8629
  185POPC   H2Y21256   2.449   3.680   5.396  1.9064 -2.8891 -1.5596
  185POPC   C2321257   2.116   4.091   5.186 -0.5494  0.4647  1.5462
  185POPC   H3R21258   2.079   3.987   5.173 -1.3297  0.8385  0.6796
  185POPC   H3S21259   2.025   4.152   5.201 -1.5729  0.5251 -3.3436
  185POPC   C2421260   2.220   4.079   5.301 -0.3360  0.3682 -0.1688
  185POPC   H4R21261   2.277   4.170   5.331  0.2497  0.1069 -0.4601
  185POPC   H4S21262   2.297   4.002   5.276  0.0686  0.0726  1.8213
  185POPC   C2521263   2.158   4.021   5.429  0.1860 -0.0854  0.7210
  185POPC   H5R21264   2.088   3.937   5.410 -2.4912  1.4509  3.0804
  185POPC   H5S21265   2.107   4.109   5.472  2.0893  1.5223 -0.1794
  185POPC   C2621266   2.268   3.993   5.525 -0.4690 -0.0860  0.0445
  185POPC   H6R21267   2.326   4.082   5.559 -1.8222  0.6427  0.4985
  185POPC   H6S21268   2.336   3.915   5.483  0.7146  1.5626 -1.2339
  185POPC   C2721269   2.227   3.923   5.661 -0.0688  0.1839  0.7913
  185POPC   H7R21270   2.183   3.826   5.630  1.4493 -0.0735 -0.6495
  185POPC   H7S21271   2.154   3.988   5.715 -0.1300  0.4260  0.4177
  185POPC   C2821272   2.343   3.893   5.765 -0.1120  0.0115 -0.3958
  185POPC   H8R21273   2.387   3.990   5.798 -0.8538  0.3832 -0.4749
  185POPC   H8S21274   2.418   3.838   5.706  0.3831  0.4356 -0.1690
  185POPC   C2921275   2.298   3.801   5.882 -0.0139  0.5580  0.5155
  185POPC   H9121276   2.245   3.711   5.846 -1.1027  1.4194 -0.0961
  185POPC  C21021277   2.326   3.809   6.012  0.8693 -0.3331  0.4542
  185POPC  H10121278   2.284   3.737   6.083  0.0613 -0.0420  0.2833
  185POPC  C21121279   2.389   3.929   6.077  0.4436 -0.0364 -0.0560
  185POPC  H11R21280   2.341   4.019   6.033  2.6674  0.8293 -0.8381
  185POPC  H11S21281   2.499   3.932   6.067  0.4916  1.2973  0.6689
  185POPC  C21221282   2.371   3.920   6.233  0.4996 -0.2512 -0.3999
  185POPC  H12R21283   2.420   3.828   6.270  2.0678  0.0637 -1.5872
  185POPC  H12S21284   2.262   3.906   6.251  0.6644 -1.9202 -0.5229
  185POPC  C21321285   2.421   4.038   6.320  0.1451  0.2645  0.0662
  185POPC  H13R21286   2.372   4.134   6.296  0.3347 -0.1554 -2.2201
  185POPC  H13S21287   2.527   4.053   6.289 -0.9587  0.7394 -4.0413
  185POPC  C21421288   2.413   3.998   6.466  0.6136  0.2139 -0.1668
  185POPC  H14R21289   2.325   3.932   6.481 -1.6758  3.1085  0.0368
  185POPC  H14S21290   2.392   4.088   6.528 -3.5023  0.0397 -1.0046
  185POPC  C21521291   2.543   3.930   6.526 -0.3251  0.3277 -0.4074
  185POPC  H15R21292   2.631   3.983   6.483 -0.5472  1.9268  0.9827
  185POPC  H15S21293   2.542   3.823   6.497  0.8488 -0.0080  0.6752
  185POPC  C21621294   2.540   3.937   6.677 -0.0509 -0.5690  0.3786
  185POPC  H16R21295   2.473   4.024   6.696  1.7342  0.7089  1.1578
  185POPC  H16S21296   2.631   3.968   6.734 -1.1345  0.2485  1.7351
  185POPC  C21721297   2.487   3.804   6.730 -0.1375  0.0416 -0.1214
  185POPC  H17R21298   2.554   3.724   6.692  1.2773  0.6482  0.9674
  185POPC  H17S21299   2.386   3.787   6.689 -0.5616  2.1093 -0.0745
  185POPC  C21821300   2.480   3.786   6.886  0.2308  0.0304 -0.4922
  185POPC  H18R21301   2.469   3.678   6.907  2.3545 -0.1540 -0.1467
  185POPC  H18S21302   2.403   3.853   6.929 -0.9795 -1.6270  0.0271
  185POPC  H18T21303   2.584   3.801   6.921  0.1052  0.8204 -0.4338
  185POPC   C3321304   2.313   3.507   5.362 -0.4671 -0.3570  0.0834
  185POPC   H3X21305   2.405   3.444   5.355  0.8350  0.9873  2.9415
  185POPC   H3Y21306   2.232   3.467   5.298 -0.7208  0.1913  0.0530
  185POPC   C3421307   2.232   3.493   5.497 -0.2878 -0.5126 -0.9686
  185POPC   H4X21308   2.196   3.390   5.513 -0.0836 -0.3191  0.9666
  185POPC   H4Y21309   2.136   3.544   5.473  0.0516 -0.7084 -2.9427
  185POPC   C3521310   2.306   3.544   5.620 -0.2399 -0.1984  0.0155
  185POPC   H5X21311   2.239   3.536   5.708  1.8982 -0.1734  1.7204
  185POPC   H5Y21312   2.325   3.653   5.613 -3.9846  0.6036  0.4660
  185POPC   C3621313   2.427   3.450   5.649 -0.4919 -0.5063 -0.4114
  185POPC   H6X21314   2.493   3.473   5.562 -0.7622  0.7618 -0.3064
  185POPC   H6Y21315   2.406   3.342   5.636  2.5281 -1.4841  1.7327
  185POPC   C3721316   2.488   3.473   5.791  0.3155 -0.6030 -0.0344
  185POPC   H7X21317   2.536   3.570   5.813  3.2270 -2.0239  0.2893
  185POPC   H7Y21318   2.572   3.401   5.786  1.6966  0.8778  1.0603
  185POPC   C3821319   2.406   3.430   5.919  0.7861  0.4600  0.2444
  185POPC   H8X21320   2.413   3.320   5.911 -0.5037  0.4841 -2.9712
  185POPC   H8Y21321   2.302   3.468   5.917  0.6152  0.0982  1.4339
  185POPC   C3921322   2.462   3.472   6.055  0.2803 -0.3900  0.1608
  185POPC   H9X21323   2.483   3.581   6.052 -0.9442 -0.0881 -3.3231
  185POPC   H9Y21324   2.566   3.434   6.067  0.1257 -1.0163 -0.4310
  185POPC  C31021325   2.378   3.426   6.174  0.3629 -0.3794  0.9389
  185POPC  H10X21326   2.346   3.321   6.160 -0.3852 -0.0892  0.4320
  185POPC  H10Y21327   2.287   3.489   6.171 -0.0721 -1.0384 -0.0738
  185POPC  C31121328   2.463   3.443   6.305 -0.3867 -0.5462  0.7932
  185POPC  H11X21329   2.534   3.528   6.305 -0.5060 -0.3905 -0.9693
  185POPC  H11Y21330   2.534   3.358   6.295 -0.6850 -0.5559 -2.4974
  185POPC  C31221331   2.375   3.441   6.430  0.3789 -0.7765  0.1203
  185POPC  H12X21332   2.437   3.453   6.521 -0.7593  0.6781  0.7338
  185POPC  H12Y21333   2.318   3.346   6.435  0.2035 -0.8123 -1.8724
  185POPC  C31321334   2.273   3.558   6.426 -0.0412  0.0988 -0.1973
  185POPC  H13X21335   2.189   3.537   6.356 -2.6449  1.0047  2.4489
  185POPC  H13Y21336   2.308   3.659   6.399 -1.0323  0.5068  0.0008
  185POPC  C31421337   2.212   3.574   6.565  0.1504 -0.0008 -0.2621
  185POPC  H14X21338   2.288   3.596   6.643  0.3366  1.6730 -0.8773
  185POPC  H14Y21339   2.174   3.476   6.601  0.4298  0.3883  1.1779
  185POPC  C31521340   2.100   3.681   6.563  0.3443 -0.5770 -0.6213
  185POPC  H15X21341   2.007   3.628   6.533 -1.9545  1.1712  2.8156
  185POPC  H15Y21342   2.117   3.754   6.481 -0.1778  0.5218  0.2177
  185POPC  C31621343   2.080   3.765   6.685 -0.3656 -0.3118 -0.0243
  185POPC  H16X21344   2.175   3.821   6.693 -0.8934  0.6556 -0.2932
  185POPC  H16Y21345   2.065   3.703   6.776  1.9489 -0.9283 -0.0140
  185POPC  H16Z21346   2.000   3.837   6.655  0.1510  0.9138  1.3977
  186POPC     N21347   3.607   5.988   4.266 -0.4954  0.1273 -0.0131
  186POPC   C1221348   3.700   6.104   4.286  0.2988 -0.3891 -0.0722
  186POPC  H12A21349   3.645   6.197   4.288  1.1259  0.2584 -2.8360
  186POPC  H12B21350   3.768   6.111   4.202  0.9321 -0.9976  0.3803
  186POPC   C1321351   3.501   5.977   4.382 -0.6509  0.1990  0.0845
  186POPC  H13A21352   3.548   5.951   4.476 -0.4524 -0.6878 -0.2568
  186POPC  H13B21353   3.438   6.065   4.385 -0.1347  0.5620  1.7898
  186POPC  H13C21354   3.431   5.897   4.364 -2.2126  1.1966  1.3966
  186POPC   C1421355   3.520   6.009   4.144  0.0754 -0.6568 -0.6883
  186POPC  H14A21356   3.437   5.942   4.128  0.4281 -1.1308 -0.5739
  186POPC  H14B21357   3.473   6.105   4.151 -1.3212 -1.4521  2.5244
  186POPC  H14C21358   3.563   6.021   4.045 -1.1863  0.4821 -1.1221
  186POPC   C1521359   3.680   5.862   4.252  0.6897  0.4557  0.6886
  186POPC  H15A21360   3.748   5.840   4.333  1.6920 -1.0034 -0.5028
  186POPC  H15B21361   3.722   5.877   4.154 -1.0042  0.7805 -0.0249
  186POPC  H15C21362   3.604   5.787   4.238  0.5949  0.7359 -0.3702
  186POPC   C1121363   3.778   6.109   4.419 -0.1716  0.3334  0.4391
  186POPC  H11A21364   3.811   6.008   4.452 -0.2007  0.3316  0.4629
  186POPC  H11B21365   3.702   6.149   4.490 -0.9859  3.3056 -1.8840
  186POPC     P21366   3.884   6.341   4.404  0.4629  0.0154  0.4108
  186POPC   O1321367   3.776   6.383   4.308  0.4705  0.2156 -0.2725
  186POPC   O1421368   4.020   6.403   4.394 -0.3132 -0.3835 -0.2604
  186POPC   O1221369   3.897   6.186   4.389  0.1580  0.0546 -0.6054
  186POPC   O1121370   3.834   6.370   4.557 -0.2741 -0.5934 -0.0980
  186POPC    C121371   3.914   6.331   4.670 -0.0520 -0.2316  0.2963
  186POPC    HA21372   4.010   6.284   4.641  0.3321  0.7651 -0.0951
  186POPC    HB21373   3.858   6.249   4.720  1.2772 -2.1398 -1.2019
  186POPC    C221374   3.933   6.432   4.782 -0.2112 -0.6220  0.2307
  186POPC    HS21375   4.021   6.495   4.754 -1.6211  0.0627 -3.0839
  186POPC   O2121376   3.963   6.358   4.908 -0.5962  0.1193 -0.3952
  186POPC   C2121377   4.038   6.417   5.003 -0.4559 -0.3023  0.1999
  186POPC   O2221378   4.074   6.536   4.997  0.1635 -0.2498 -0.4234
  186POPC   C2221379   4.092   6.313   5.098  0.7146  0.0148  0.0238
  186POPC   H2R21380   4.177   6.254   5.057  0.9799  0.3659  0.0659
  186POPC   H2S21381   4.008   6.241   5.112  0.2097  0.8324  1.3844
  186POPC    C321382   3.823   6.535   4.792 -0.3573  0.0795 -0.2072
  186POPC    HX21383   3.817   6.605   4.706 -0.4444  0.4060  0.0641
  186POPC    HY21384   3.848   6.609   4.871  0.6406  2.0008 -2.1994
  186POPC   O3121385   3.697   6.478   4.829  0.1020  0.0629  0.5851
  186POPC   C3121386   3.591   6.522   4.760 -0.7428 -0.1191 -0.3126
  186POPC   O3221387   3.593   6.584   4.653 -0.1650  0.0822  0.0643
  186POPC   C3221388   3.471   6.503   4.854 -0.1922  0.6438 -0.1820
  186POPC   H2X21389   3.439   6.604   4.889  0.7023  1.1337 -0.7338
  186POPC   H2Y21390   3.486   6.433   4.939 -1.9769  1.6923  1.0728
  186POPC   C2321391   4.123   6.362   5.236  0.1489  0.5381  1.1064
  186POPC   H3R21392   4.201   6.439   5.220 -0.0364  0.2736 -1.4252
  186POPC   H3S21393   4.170   6.280   5.296  0.7517  0.1032  0.0601
  186POPC   C2421394   4.010   6.419   5.313 -0.0648  0.7601 -0.1720
  186POPC   H4R21395   3.941   6.345   5.359  2.1715 -1.2142  0.2060
  186POPC   H4S21396   3.953   6.497   5.259  1.1204  2.4664  0.9014
  186POPC   C2521397   4.074   6.483   5.439  0.3276  0.0547 -0.3722
  186POPC   H5R21398   3.994   6.540   5.490  0.6054 -1.5632  2.0126
  186POPC   H5S21399   4.155   6.555   5.413  1.4963 -1.1225 -0.0876
  186POPC   C2621400   4.122   6.380   5.548 -0.0491 -0.3407  0.1292
  186POPC   H6R21401   4.197   6.310   5.505  2.6545  2.3637  0.1265
  186POPC   H6S21402   4.028   6.328   5.578 -0.2430 -0.7899 -1.1645
  186POPC   C2721403   4.186   6.448   5.671  0.0448 -0.3687  0.0912
  186POPC   H7R21404   4.126   6.536   5.700  0.0212 -0.6821  1.0385
  186POPC   H7S21405   4.279   6.490   5.627 -0.5940 -1.1229 -2.1159
  186POPC   C2821406   4.211   6.345   5.778 -0.1286  0.0721  0.4438
  186POPC   H8R21407   4.307   6.291   5.759  1.4393  2.3432  1.4282
  186POPC   H8S21408   4.128   6.274   5.793 -2.1409  2.1050 -0.4833
  186POPC   C2921409   4.218   6.425   5.904  0.2172  0.4576 -0.1708
  186POPC   H9121410   4.145   6.507   5.902 -2.3084 -1.6930 -0.2484
  186POPC  C21021411   4.300   6.414   6.008 -0.1024  0.2747  0.0612
  186POPC  H10121412   4.293   6.492   6.085  1.0558  0.5354 -0.0673
  186POPC  C21121413   4.424   6.326   6.025  0.4346 -0.3666  0.7583
  186POPC  H11R21414   4.508   6.357   5.959  1.2353 -2.5184  0.7045
  186POPC  H11S21415   4.388   6.228   5.987  0.4305  0.0977 -0.5129
  186POPC  C21221416   4.456   6.316   6.172 -0.5039  0.0407 -0.1224
  186POPC  H12R21417   4.458   6.419   6.215  1.3725  0.0430 -0.1381
  186POPC  H12S21418   4.558   6.273   6.180  0.3365  1.8996 -0.3247
  186POPC  C21321419   4.347   6.243   6.257  0.3129  0.3408 -0.0876
  186POPC  H13R21420   4.326   6.143   6.213  0.0702  0.3297  0.0542
  186POPC  H13S21421   4.253   6.301   6.243 -0.3335 -0.9050 -1.0837
  186POPC  C21421422   4.379   6.227   6.406 -0.5650  0.4130 -0.3036
  186POPC  H14R21423   4.489   6.225   6.414 -0.5794 -0.9843 -0.3683
  186POPC  H14S21424   4.347   6.125   6.435 -1.4822  0.7656 -0.0119
  186POPC  C21521425   4.322   6.343   6.485 -0.7339  1.3751 -0.7101
  186POPC  H15R21426   4.213   6.335   6.504 -0.4201 -1.0094  0.5035
  186POPC  H15S21427   4.341   6.437   6.429 -2.3410  2.0547 -0.1513
  186POPC  C21621428   4.400   6.345   6.628 -0.6730  0.5158  0.2000
  186POPC  H16R21429   4.510   6.349   6.612 -0.6100  0.4651  0.6059
  186POPC  H16S21430   4.382   6.248   6.680 -1.1162  0.8135  0.6120
  186POPC  C21721431   4.357   6.463   6.710  0.6726  0.3644  0.7052
  186POPC  H17R21432   4.424   6.460   6.798  1.8181 -0.4599 -0.1785
  186POPC  H17S21433   4.251   6.444   6.739 -1.3740  3.1075 -3.6922
  186POPC  C21821434   4.368   6.614   6.651  0.2870  0.1858  0.0708
  186POPC  H18R21435   4.351   6.683   6.736  0.7465  1.6740 -0.9978
  186POPC  H18S21436   4.475   6.635   6.628  0.6435 -1.3230  0.2201
  186POPC  H18T21437   4.301   6.634   6.565  0.8223  0.1959 -0.3505
  186POPC   C3321438   3.357   6.429   4.781  0.0463 -0.0029  0.5419
  186POPC   H3X21439   3.386   6.324   4.759 -0.2210  0.3846 -1.9454
  186POPC   H3Y21440   3.328   6.482   4.687  3.9697  2.3167  0.4177
  186POPC   C3421441   3.241   6.396   4.878 -0.2063 -0.0002  0.4966
  186POPC   H4X21442   3.265   6.307   4.941 -1.9484 -0.6052  0.3390
  186POPC   H4Y21443   3.148   6.372   4.823 -1.6371  1.4345  2.1608
  186POPC   C3521444   3.215   6.513   4.974  0.1386 -0.2799  0.1568
  186POPC   H5X21445   3.210   6.606   4.914 -2.1952  1.1084  2.3508
  186POPC   H5Y21446   3.294   6.528   5.050  0.5285 -0.0780 -0.2809
  186POPC   C3621447   3.076   6.500   5.041 -0.1389 -0.3130  0.2546
  186POPC   H6X21448   3.075   6.416   5.113  0.4819 -0.3597  0.2127
  186POPC   H6Y21449   2.996   6.493   4.964  1.8774  3.6853 -2.5604
  186POPC   C3721450   3.047   6.632   5.125 -0.7399 -0.6082  0.3045
  186POPC   H7X21451   3.083   6.718   5.064 -1.0222 -0.1724  0.7439
  186POPC   H7Y21452   3.104   6.625   5.220 -1.4125  0.1195  0.7754
  186POPC   C3821453   2.899   6.642   5.166  0.1896 -0.0193  1.3486
  186POPC   H8X21454   2.880   6.546   5.218 -1.8368  0.7482  2.1626
  186POPC   H8Y21455   2.838   6.644   5.073  1.6072 -0.4581  0.3784
  186POPC   C3921456   2.856   6.762   5.259 -0.1258 -0.0894  0.5303
  186POPC   H9X21457   2.749   6.767   5.289 -0.6402  2.1787 -1.4051
  186POPC   H9Y21458   2.866   6.855   5.199  1.0751 -0.8290 -0.4772
  186POPC  C31021459   2.941   6.776   5.390 -0.7596  0.0011 -0.0914
  186POPC  H10X21460   2.905   6.871   5.435 -1.4798  1.2389 -3.0813
  186POPC  H10Y21461   3.048   6.794   5.364 -1.2929  0.7286 -1.9448
  186POPC  C31121462   2.914   6.665   5.491 -0.8003 -0.0790  0.2712
  186POPC  H11X21463   2.956   6.572   5.446  1.4707 -0.3987  2.7448
  186POPC  H11Y21464   2.804   6.649   5.494 -0.4140 -3.7058 -0.1938
  186POPC  C31221465   2.961   6.683   5.633 -0.1261  0.4705 -0.0258
  186POPC  H12X21466   2.948   6.588   5.689  1.1301  0.4702  0.3010
  186POPC  H12Y21467   2.886   6.750   5.679  1.0970  2.0669 -0.2434
  186POPC  C31321468   3.101   6.745   5.660 -0.5414  0.5924  0.0360
  186POPC  H13X21469   3.101   6.850   5.623 -0.6071 -0.0489 -1.9082
  186POPC  H13Y21470   3.179   6.692   5.601 -0.4875  0.1078  0.5415
  186POPC  C31421471   3.124   6.742   5.810  0.2063  0.3035  0.4231
  186POPC  H14X21472   3.145   6.637   5.841 -0.2385 -0.1707 -0.8424
  186POPC  H14Y21473   3.039   6.777   5.872 -0.2828  1.9335 -1.1138
  186POPC  C31521474   3.261   6.803   5.846  0.2264  0.1910  0.7639
  186POPC  H15X21475   3.264   6.810   5.956  2.0941  0.3638  0.7408
  186POPC  H15Y21476   3.269   6.907   5.805  1.9689  0.1438  0.9004
  186POPC  C31621477   3.377   6.713   5.791 -0.3724 -0.0903 -0.0695
  186POPC  H16X21478   3.473   6.759   5.822  0.5172  0.2042 -2.9600
  186POPC  H16Y21479   3.377   6.716   5.680  1.1835 -0.4223 -0.1063
  186POPC  H16Z21480   3.368   6.605   5.817 -0.8515 -0.8234 -2.9758
  187POPC     N21481   1.160   2.327   4.187 -0.0064 -0.2053 -0.2188
  187POPC   C1221482   1.263   2.443   4.182  0.5081  0.2471 -0.5698
  187POPC  H12A21483   1.316   2.433   4.088  1.7824 -0.9636  0.2381
  187POPC  H12B21484   1.339   2.424   4.257 -0.6016  1.3462  0.8918
  187POPC   C1321485   1.214   2.195   4.130 -0.0008  0.5012  0.0695
  187POPC  H13A21486   1.321   2.187   4.136 -0.1939 -1.3800  2.7365
  187POPC  H13B21487   1.181   2.112   4.192 -0.2175 -0.4782 -1.3235
  187POPC  H13C21488   1.175   2.185   4.030  1.3793 -1.0413 -0.3555
  187POPC   C1421489   1.112   2.311   4.321  0.5292  0.0724  0.1050
  187POPC  H14A21490   1.203   2.320   4.378 -0.0837 -3.5941  2.0298
  187POPC  H14B21491   1.058   2.398   4.353  0.1439 -0.0379 -0.2321
  187POPC  H14C21492   1.048   2.225   4.337 -0.0960  0.0094 -2.3785
  187POPC   C1521493   1.034   2.346   4.106  0.3069  0.1605  0.5776
  187POPC  H15A21494   0.988   2.438   4.137  1.2707  1.0835 -0.6498
  187POPC  H15B21495   0.964   2.267   4.133  0.7731 -0.4597  0.0112
  187POPC  H15C21496   1.047   2.358   4.000  0.9724  0.0881  0.6510
  187POPC   C1121497   1.204   2.585   4.204 -0.0516 -0.3552  0.5531
  187POPC  H11A21498   1.128   2.613   4.129 -0.3450 -0.0207  0.9708
  187POPC  H11B21499   1.303   2.633   4.186  1.4903 -2.8728  1.7192
  187POPC     P21500   1.225   2.665   4.435 -0.2833 -0.3349  0.0691
  187POPC   O1321501   1.192   2.809   4.405  0.0270  0.5430  0.9774
  187POPC   O1421502   1.367   2.628   4.450  0.1438 -0.0733  0.2275
  187POPC   O1221503   1.155   2.583   4.332 -0.6883  0.6386 -0.3127
  187POPC   O1121504   1.151   2.621   4.563 -0.0944  0.3370  0.3578
  187POPC    C121505   1.017   2.665   4.587  0.2956  0.2357 -0.8013
  187POPC    HA21506   0.958   2.608   4.512  1.3533 -1.9014 -0.0982
  187POPC    HB21507   1.006   2.775   4.580 -0.8701  0.2621  0.7395
  187POPC    C221508   0.963   2.632   4.732 -0.1660  0.5948  0.5176
  187POPC    HS21509   0.870   2.687   4.758 -1.0389 -1.5629  2.2041
  187POPC   O2121510   1.074   2.665   4.816  0.6188 -0.1016  0.1896
  187POPC   C2121511   1.108   2.790   4.838  0.8381 -0.4552  0.2701
  187POPC   O2221512   1.051   2.891   4.791  0.0630  0.0260 -0.8461
  187POPC   C2221513   1.233   2.796   4.917  0.0047  0.2818 -0.1241
  187POPC   H2R21514   1.295   2.879   4.878  0.0125  0.9007  1.1563
  187POPC   H2S21515   1.285   2.700   4.899 -1.1036 -0.7763  1.8699
  187POPC    C321516   0.922   2.485   4.751 -0.4243  0.4183 -0.2100
  187POPC    HX21517   1.007   2.414   4.744  0.0256  0.9470 -0.1550
  187POPC    HY21518   0.855   2.469   4.663 -0.7412  2.4208 -0.3708
  187POPC   O3121519   0.853   2.461   4.874  0.1278 -0.4487  0.7558
  187POPC   C3121520   0.835   2.331   4.899 -0.2091  1.0175 -0.3962
  187POPC   O3221521   0.874   2.240   4.827  0.6573 -0.1023 -0.0704
  187POPC   C3221522   0.784   2.294   5.042 -0.4985 -0.3022 -0.3633
  187POPC   H2X21523   0.815   2.188   5.053  0.7480  0.0830 -0.0272
  187POPC   H2Y21524   0.672   2.296   5.045 -0.4831  1.5551  1.3707
  187POPC   C2321525   1.213   2.804   5.069 -0.1370  0.4072 -0.4005
  187POPC   H3R21526   1.157   2.900   5.080 -0.3000  0.2083  0.5744
  187POPC   H3S21527   1.311   2.827   5.117 -0.5507  1.8292 -0.1842
  187POPC   C2421528   1.141   2.684   5.130 -0.7544 -0.5532  0.2228
  187POPC   H4R21529   1.209   2.607   5.172 -1.1726 -3.0425 -3.1742
  187POPC   H4S21530   1.077   2.632   5.055 -3.6936 -0.1505  2.2830
  187POPC   C2521531   1.050   2.726   5.247  0.1329  0.2681 -1.0287
  187POPC   H5R21532   0.963   2.657   5.243 -0.2871  0.4235  2.2146
  187POPC   H5S21533   1.018   2.832   5.236  2.5047  0.9291 -2.2284
  187POPC   C2621534   1.131   2.723   5.377  0.2700 -0.1283 -0.8458
  187POPC   H6R21535   1.221   2.785   5.363 -1.2783  1.9158 -2.5091
  187POPC   H6S21536   1.168   2.621   5.399  0.7740  0.4063  0.9429
  187POPC   C2721537   1.061   2.796   5.491  0.3936  0.1230 -0.4997
  187POPC   H7R21538   1.024   2.895   5.457  1.6833  0.8915  0.2361
  187POPC   H7S21539   1.139   2.819   5.567 -0.2259 -1.0222  0.5089
  187POPC   C2821540   0.940   2.729   5.556 -0.1259  0.6155  0.3670
  187POPC   H8R21541   0.867   2.705   5.477  0.5477  0.3461 -0.1859
  187POPC   H8S21542   0.901   2.803   5.629  1.3095  0.0681  1.7592
  187POPC   C2921543   0.988   2.605   5.626  1.0053 -0.4924  0.7936
  187POPC   H9121544   1.055   2.550   5.559 -0.8147 -0.4109 -1.2238
  187POPC  C21021545   0.968   2.557   5.748  0.0244 -0.3402 -0.1191
  187POPC  H10121546   1.008   2.463   5.788  1.1493 -0.6515 -1.8659
  187POPC  C21121547   0.896   2.650   5.850 -0.8956 -0.2349  0.3120
  187POPC  H11R21548   0.804   2.693   5.803 -0.5751 -0.4201 -0.5015
  187POPC  H11S21549   0.970   2.731   5.867 -0.2349 -1.1923  2.2473
  187POPC  C21221550   0.853   2.579   5.982 -0.5703 -0.0549  0.1658
  187POPC  H12R21551   0.783   2.495   5.963 -0.4426 -0.2695  0.6067
  187POPC  H12S21552   0.784   2.654   6.028 -1.9135  0.6649 -2.8118
  187POPC  C21321553   0.972   2.544   6.064  0.2698  0.8128 -0.2088
  187POPC  H13R21554   1.007   2.640   6.107 -2.4662  0.5144  3.1206
  187POPC  H13S21555   1.051   2.499   6.000 -0.0500  2.8012 -2.0920
  187POPC  C21421556   0.935   2.457   6.192  0.3733  0.3857  0.7709
  187POPC  H14R21557   0.889   2.363   6.156  2.8293 -0.3471 -0.7028
  187POPC  H14S21558   0.869   2.514   6.261 -1.6539 -0.5969 -0.2668
  187POPC  C21521559   1.060   2.410   6.269 -0.1739 -0.3150  0.6249
  187POPC  H15R21560   1.101   2.499   6.321 -1.2186  0.2603  0.4855
  187POPC  H15S21561   1.137   2.365   6.203  0.4460 -0.4416  1.4227
  187POPC  C21621562   1.028   2.314   6.379  0.1835 -0.8574 -0.3870
  187POPC  H16R21563   1.003   2.210   6.347  0.2202 -0.4128 -1.9235
  187POPC  H16S21564   0.933   2.346   6.425  1.1855  0.9369  0.5294
  187POPC  C21721565   1.144   2.308   6.470  0.6155 -0.6512  0.2438
  187POPC  H17R21566   1.166   2.408   6.513  0.8971 -0.1013 -1.1197
  187POPC  H17S21567   1.228   2.289   6.400  0.9153  0.6663  0.2032
  187POPC  C21821568   1.125   2.202   6.578  0.5867 -0.0904 -0.2177
  187POPC  H18R21569   1.190   2.194   6.668 -0.0885 -2.8641  0.1203
  187POPC  H18S21570   1.124   2.101   6.533 -0.4169 -0.9250  1.5591
  187POPC  H18T21571   1.022   2.224   6.616  1.2073  2.1228  0.3086
  187POPC   C3321572   0.853   2.370   5.155  0.2748  0.2707  0.0190
  187POPC   H3X21573   0.812   2.473   5.165  0.4305  0.4950 -1.4258
  187POPC   H3Y21574   0.961   2.376   5.131 -0.2085 -1.0000 -2.8568
  187POPC   C3421575   0.850   2.286   5.288  0.4529  0.0656 -0.5096
  187POPC   H4X21576   0.869   2.177   5.275  1.3355  0.0703  0.5190
  187POPC   H4Y21577   0.744   2.294   5.320  1.0968  0.7073  1.7015
  187POPC   C3521578   0.938   2.344   5.394  0.8479  0.3873 -0.5902
  187POPC   H5X21579   0.890   2.441   5.419  2.3450  1.6406 -2.3432
  187POPC   H5Y21580   1.035   2.364   5.344  1.8983 -0.5612  0.9842
  187POPC   C3621581   0.952   2.251   5.518 -0.1141  0.1940 -0.3623
  187POPC   H6X21582   1.037   2.282   5.583 -1.6121 -3.8710  4.1617
  187POPC   H6Y21583   0.973   2.155   5.466 -2.2389  0.2896 -1.4761
  187POPC   C3721584   0.823   2.237   5.599  0.0356  0.1746 -0.1841
  187POPC   H7X21585   0.730   2.225   5.540 -0.3723 -2.3409  0.8145
  187POPC   H7Y21586   0.797   2.332   5.650 -1.4720  0.1331 -0.8515
  187POPC   C3821587   0.832   2.129   5.713 -0.9033 -0.0864  0.1169
  187POPC   H8X21588   0.859   2.030   5.670 -2.1083  0.1355 -1.2488
  187POPC   H8Y21589   0.733   2.127   5.763 -1.0600 -1.8728 -0.1785
  187POPC   C3921590   0.932   2.173   5.821  0.1831 -0.6405  0.9062
  187POPC   H9X21591   0.907   2.278   5.850 -0.8626 -1.4782  3.2714
  187POPC   H9Y21592   1.032   2.180   5.774 -0.3523 -0.5247 -0.2685
  187POPC  C31021593   0.941   2.085   5.938 -0.1103  0.2507 -0.4136
  187POPC  H10X21594   1.007   2.149   6.001  0.6797 -0.3665 -0.5916
  187POPC  H10Y21595   0.990   1.990   5.908 -1.8249 -1.0952  0.8924
  187POPC  C31121596   0.806   2.043   6.010 -0.4169  0.2177 -0.4143
  187POPC  H11X21597   0.758   1.964   5.949  2.0438 -0.7168 -1.2746
  187POPC  H11Y21598   0.749   2.137   5.998 -0.4341  0.3584  0.6875
  187POPC  C31221599   0.821   1.990   6.157 -0.0656 -0.1211 -0.0183
  187POPC  H12X21600   0.849   2.080   6.216 -2.1586  0.6663 -0.1675
  187POPC  H12Y21601   0.900   1.913   6.169 -0.4753 -0.5350  0.0087
  187POPC  C31321602   0.690   1.909   6.193 -0.4912 -0.3836 -1.3016
  187POPC  H13X21603   0.664   1.827   6.123 -1.4871 -0.0429 -1.3403
  187POPC  H13Y21604   0.611   1.985   6.204  0.5046  0.5898 -0.6353
  187POPC  C31421605   0.709   1.837   6.327 -0.6787  0.8870  0.0014
  187POPC  H14X21606   0.778   1.751   6.316 -0.7389  0.8976 -0.4834
  187POPC  H14Y21607   0.612   1.793   6.359  1.9874 -4.2553  2.1133
  187POPC  C31521608   0.776   1.917   6.441  0.1232 -0.8515 -0.3868
  187POPC  H15X21609   0.881   1.942   6.412  0.0620  0.9889  0.8129
  187POPC  H15Y21610   0.777   1.856   6.534 -1.7896  0.7663  0.7904
  187POPC  C31621611   0.703   2.048   6.477 -0.4048 -0.0771 -0.6305
  187POPC  H16X21612   0.719   2.118   6.392  0.2530 -0.3162 -0.7125
  187POPC  H16Y21613   0.743   2.091   6.571 -0.9296 -2.3297  0.6915
  187POPC  H16Z21614   0.593   2.037   6.482 -0.2856 -1.3826 -0.4421
  188POPC     N21615   3.806   2.376   4.845 -0.0973 -0.5592 -0.5615
  188POPC   C1221616   3.660   2.381   4.824 -0.5408 -0.0274 -0.5584
  188POPC  H12A21617   3.613   2.389   4.921  1.8391 -2.8345  0.9697
  188POPC  H12B21618   3.628   2.285   4.785 -0.0638 -1.2279  1.8323
  188POPC   C1321619   3.871   2.509   4.880  0.1076  0.0991  0.2834
  188POPC  H13A21620   3.815   2.543   4.966 -1.9089  1.1130 -1.3210
  188POPC  H13B21621   3.974   2.504   4.912 -0.0231 -0.2153  0.6518
  188POPC  H13C21622   3.869   2.586   4.804 -3.6435  0.1690  0.2674
  188POPC   C1421623   3.830   2.283   4.952  0.6188 -0.3473 -0.4985
  188POPC  H14A21624   3.934   2.255   4.946  1.1774  1.1155  1.3614
  188POPC  H14B21625   3.815   2.326   5.050 -0.0430  1.0806 -1.1937
  188POPC  H14C21626   3.778   2.189   4.944  1.5459 -0.9849  0.6875
  188POPC   C1521627   3.876   2.324   4.715  0.1688 -0.5782 -0.0971
  188POPC  H15A21628   3.870   2.397   4.635  2.6376  1.7257  1.6619
  188POPC  H15B21629   3.833   2.230   4.683 -1.1545 -0.8159  2.1106
  188POPC  H15C21630   3.982   2.310   4.724  0.2653 -0.6387 -1.1844
  188POPC   C1121631   3.593   2.491   4.742 -0.6639  0.0248  0.2952
  188POPC  H11A21632   3.488   2.471   4.712 -0.2373 -0.0697 -1.2627
  188POPC  H11B21633   3.646   2.490   4.644 -0.8614  0.0583  0.1883
  188POPC     P21634   3.642   2.749   4.722  0.0163  0.1884  0.4134
  188POPC   O1321635   3.565   2.746   4.595  0.0884 -0.0506 -0.0296
  188POPC   O1421636   3.787   2.753   4.713 -0.3933  0.3970  0.5653
  188POPC   O1221637   3.607   2.622   4.803 -1.0340 -0.2242 -0.2189
  188POPC   O1121638   3.587   2.859   4.820 -0.0747 -0.4646 -0.2930
  188POPC    C121639   3.443   2.880   4.835 -0.3019 -0.5764 -0.6244
  188POPC    HA21640   3.378   2.791   4.851 -1.2568  0.4620  1.8114
  188POPC    HB21641   3.419   2.925   4.736 -0.7634  0.1449 -0.1942
  188POPC    C221642   3.410   2.992   4.946  0.4931  0.1068  0.2687
  188POPC    HS21643   3.454   3.087   4.909  2.1881 -0.4012  0.8909
  188POPC   O2121644   3.465   2.966   5.081 -0.1703  0.6325  0.1506
  188POPC   C2121645   3.483   3.066   5.160 -0.3756  0.2327 -0.1129
  188POPC   O2221646   3.465   3.183   5.132  0.0693  0.0911 -0.0486
  188POPC   C2221647   3.525   3.027   5.304  1.1945 -0.2307  0.0187
  188POPC   H2R21648   3.636   3.031   5.301  1.1445  0.7701 -0.8975
  188POPC   H2S21649   3.488   2.923   5.317 -0.0104  0.0240 -1.1506
  188POPC    C321650   3.253   3.021   4.947 -0.2383  0.5346  0.0334
  188POPC    HX21651   3.233   3.054   4.843  1.8854  1.8772 -0.0183
  188POPC    HY21652   3.228   3.107   5.014  1.6740 -0.8026  2.6673
  188POPC   O3121653   3.170   2.906   4.968  0.3015 -0.9024  0.2790
  188POPC   C3121654   3.144   2.861   5.097  0.9018 -0.2913 -0.5614
  188POPC   O3221655   3.163   2.927   5.197 -0.2874 -0.3862  0.3442
  188POPC   C3221656   3.096   2.719   5.091  0.9867 -0.4287  0.3242
  188POPC   H2X21657   3.188   2.662   5.063  2.5241  1.7252  0.6923
  188POPC   H2Y21658   3.014   2.708   5.018 -1.1160 -2.6337  2.7977
  188POPC   C2321659   3.476   3.123   5.415  0.1011  0.1411  0.3195
  188POPC   H3R21660   3.367   3.137   5.396  0.7199  1.0427 -3.3647
  188POPC   H3S21661   3.522   3.224   5.413 -1.1230  0.7253 -1.6387
  188POPC   C2421662   3.497   3.069   5.562  0.1462  0.4223  0.4958
  188POPC   H4R21663   3.596   3.019   5.574  0.1838  0.1333 -0.8421
  188POPC   H4S21664   3.417   2.992   5.570 -0.3645  0.7320 -1.2119
  188POPC   C2521665   3.485   3.175   5.675 -0.9472  0.5063  0.1861
  188POPC   H5R21666   3.382   3.214   5.682 -0.0492  3.1799 -0.5553
  188POPC   H5S21667   3.548   3.265   5.658 -0.4755  0.2280  0.4024
  188POPC   C2621668   3.536   3.114   5.802 -0.5507 -0.4111 -0.2890
  188POPC   H6R21669   3.643   3.084   5.795  0.3416  2.1729  0.7871
  188POPC   H6S21670   3.465   3.030   5.818 -1.2078  0.0992 -0.4542
  188POPC   C2721671   3.530   3.211   5.919  0.0327  0.1805 -0.0012
  188POPC   H7R21672   3.432   3.262   5.905 -1.0454 -1.6622  0.5481
  188POPC   H7S21673   3.617   3.281   5.919 -1.3077  1.9412 -0.3264
  188POPC   C2821674   3.532   3.123   6.052 -0.4037  0.0633  0.7338
  188POPC   H8R21675   3.622   3.057   6.048 -0.3224  0.1941 -3.0155
  188POPC   H8S21676   3.444   3.056   6.048  0.0251 -0.4487 -1.5069
  188POPC   C2921677   3.538   3.212   6.173  0.0825 -0.7784 -0.6713
  188POPC   H9121678   3.594   3.304   6.150  1.2830 -1.6374 -1.3124
  188POPC  C21021679   3.487   3.202   6.293 -0.0142 -0.0337  0.2571
  188POPC  H10121680   3.511   3.279   6.367 -0.5664  0.8693 -0.4853
  188POPC  C21121681   3.407   3.087   6.355 -0.4922 -0.5379  0.7835
  188POPC  H11R21682   3.410   3.008   6.276  4.6234  0.8647 -0.7903
  188POPC  H11S21683   3.306   3.133   6.360 -1.1813 -1.9194  0.1821
  188POPC  C21221684   3.454   3.035   6.495 -0.0380  0.0043  0.1367
  188POPC  H12R21685   3.466   3.124   6.561 -0.7193  0.0903  0.1584
  188POPC  H12S21686   3.552   2.984   6.490  0.8138  1.3316  2.2942
  188POPC  C21321687   3.354   2.944   6.563  0.2862 -0.1925 -0.8030
  188POPC  H13R21688   3.262   3.004   6.579  0.5997 -0.3777  2.2276
  188POPC  H13S21689   3.395   2.926   6.664 -0.4180  2.3909  0.0234
  188POPC  C21421690   3.330   2.815   6.491  0.2272 -0.1177  0.3691
  188POPC  H14R21691   3.426   2.766   6.463 -0.0413  0.3632 -1.5489
  188POPC  H14S21692   3.285   2.842   6.393  0.4956  1.7446  0.7230
  188POPC  C21521693   3.243   2.715   6.571  0.6612  0.0544 -0.4728
  188POPC  H15R21694   3.203   2.646   6.495 -3.2055  1.1196  0.4126
  188POPC  H15S21695   3.151   2.753   6.621 -0.1013 -0.2274 -1.6441
  188POPC  C21621696   3.325   2.631   6.678 -0.1794 -0.3979  0.6763
  188POPC  H16R21697   3.365   2.710   6.745 -0.7219  1.2218 -0.8427
  188POPC  H16S21698   3.414   2.593   6.622 -0.3684  1.3766 -0.9059
  188POPC  C21721699   3.239   2.518   6.739 -1.0679  0.1929 -0.4271
  188POPC  H17R21700   3.184   2.464   6.659  1.2237 -1.3644 -1.0504
  188POPC  H17S21701   3.155   2.560   6.798 -1.0605 -0.5621  0.1463
  188POPC  C21821702   3.316   2.428   6.830  0.5496  0.1747 -0.1007
  188POPC  H18R21703   3.402   2.380   6.778  0.1404 -0.3874 -0.2686
  188POPC  H18S21704   3.253   2.341   6.858  1.5469 -0.5234  0.0537
  188POPC  H18T21705   3.360   2.477   6.920  0.1106  1.4040 -0.5337
  188POPC   C3321706   3.032   2.675   5.227  0.8796  0.1092 -0.0626
  188POPC   H3X21707   2.981   2.576   5.218 -0.1303  0.3357  2.4885
  188POPC   H3Y21708   2.955   2.754   5.238 -0.2895 -0.8180 -1.2074
  188POPC   C3421709   3.125   2.657   5.349  0.4576 -0.4910  0.3231
  188POPC   H4X21710   3.189   2.746   5.369  1.3118 -1.3509  1.5258
  188POPC   H4Y21711   3.206   2.582   5.335  2.2276  0.9434  2.2437
  188POPC   C3521712   3.052   2.617   5.477 -0.1612 -0.4657 -0.0405
  188POPC   H5X21713   3.041   2.507   5.469 -0.0881 -0.5900  1.2818
  188POPC   H5Y21714   2.953   2.666   5.485  1.0331  1.8571  1.8930
  188POPC   C3621715   3.142   2.639   5.605 -0.3971 -0.4605 -0.0209
  188POPC   H6X21716   3.180   2.740   5.627 -2.0614 -0.1959  1.9900
  188POPC   H6Y21717   3.230   2.571   5.612  0.7157  0.7075 -2.0459
  188POPC   C3721718   3.071   2.608   5.732  0.4155 -0.1360 -1.1001
  188POPC   H7X21719   3.026   2.508   5.718 -0.5315  0.2168 -0.6627
  188POPC   H7Y21720   2.982   2.672   5.747 -0.3591 -1.8979  3.6119
  188POPC   C3821721   3.157   2.630   5.855 -1.3661  0.1818 -0.4384
  188POPC   H8X21722   3.200   2.732   5.859  0.1820 -0.4857  2.2473
  188POPC   H8Y21723   3.241   2.558   5.862 -1.7740 -0.2241  0.4923
  188POPC   C3921724   3.075   2.609   5.985 -0.1102 -0.4498  0.5947
  188POPC   H9X21725   3.012   2.521   5.960 -0.1337 -0.0175 -0.9802
  188POPC   H9Y21726   3.001   2.690   5.999  1.5315  0.9889  1.2780
  188POPC  C31021727   3.151   2.578   6.112  0.5318  0.8971  0.4628
  188POPC  H10X21728   3.225   2.657   6.137  2.9079 -0.6168 -1.3387
  188POPC  H10Y21729   3.212   2.488   6.087  1.6469  1.3703  1.3636
  188POPC  C31121730   3.048   2.561   6.225 -0.4164 -0.4498 -0.1297
  188POPC  H11X21731   2.978   2.647   6.224 -1.2808 -1.1308 -2.2301
  188POPC  H11Y21732   3.109   2.564   6.318  0.8597 -0.3419 -0.9369
  188POPC  C31221733   2.958   2.438   6.206  0.5079 -0.0541 -0.1211
  188POPC  H12X21734   3.015   2.343   6.206  1.3371  0.4347  0.1855
  188POPC  H12Y21735   2.896   2.436   6.114 -2.1163  3.7073  1.2717
  188POPC  C31321736   2.853   2.412   6.326  0.6850  0.0166  0.9629
  188POPC  H13X21737   2.790   2.329   6.286  0.0949  0.3368  1.2081
  188POPC  H13Y21738   2.780   2.495   6.334 -0.1035 -0.6109  0.4656
  188POPC  C31421739   2.929   2.389   6.456  0.2775  0.3287 -0.3816
  188POPC  H14X21740   2.994   2.475   6.482  1.9097 -0.3915 -1.8635
  188POPC  H14Y21741   3.002   2.307   6.437  0.5049  0.5599 -0.5196
  188POPC  C31521742   2.832   2.355   6.572 -0.0300 -0.5224  0.0758
  188POPC  H15X21743   2.794   2.251   6.570 -1.6659  0.0669 -1.7669
  188POPC  H15Y21744   2.750   2.429   6.561  0.6420  0.0556 -1.2876
  188POPC  C31621745   2.900   2.394   6.713 -0.2675  0.3407 -0.2378
  188POPC  H16X21746   2.975   2.314   6.733  0.8795  1.6539  0.9115
  188POPC  H16Y21747   2.832   2.391   6.801 -1.0350  1.1672 -0.7819
  188POPC  H16Z21748   2.958   2.489   6.715  0.1099  0.1024  0.7863
  189SAPI   C1221749   2.402   4.247   0.940 -0.8833  0.0380 -0.2252
  189SAPI    H221750   2.450   4.342   0.911 -0.3020  0.1235  0.9522
  189SAPI    O221751   2.496   4.169   1.021 -0.4201 -0.3497 -0.4298
  189SAPI   HO221752   2.582   4.185   0.980 -1.2648 -1.0035 -2.5799
  189SAPI   C1321753   2.283   4.279   1.029 -0.1406  0.6952 -0.2533
  189SAPI    H321754   2.221   4.355   0.977  0.9505  0.2080 -2.3693
  189SAPI    O321755   2.326   4.353   1.141  0.0179 -0.2618 -0.0187
  189SAPI   HO321756   2.418   4.330   1.156  0.7130  1.5676 -1.0527
  189SAPI   C1421757   2.208   4.155   1.072  0.0508 -0.6270  0.1001
  189SAPI    H421758   2.278   4.117   1.150  1.5516  0.8851 -0.4712
  189SAPI    O421759   2.072   4.173   1.127  0.2751 -0.1454 -0.5285
  189SAPI   HO421760   2.017   4.231   1.074  0.4545  0.8155  0.3052
  189SAPI   C1521761   2.207   4.044   0.965  0.4628  0.9711 -0.2956
  189SAPI    H521762   2.109   4.063   0.916  0.1086  3.4920  1.1959
  189SAPI    O521763   2.173   3.924   1.020  0.1076 -0.0554 -0.2573
  189SAPI   HO521764   2.092   3.937   1.070 -0.1145 -1.3014 -0.2540
  189SAPI   C1621765   2.302   4.052   0.851  0.4171 -0.2121 -0.0060
  189SAPI    H621766   2.385   3.986   0.886 -1.5551 -3.1483 -0.5777
  189SAPI    O621767   2.247   3.990   0.734 -0.0467  0.5273 -0.3784
  189SAPI   HO621768   2.330   3.974   0.688  1.6756  0.8341  2.4212
  189SAPI   C1121769   2.360   4.191   0.813 -0.7883  0.3737  0.4326
  189SAPI    H121770   2.283   4.255   0.766 -1.4615  0.2143  1.2997
  189SAPI     P21771   2.533   4.288   0.636 -0.2777  0.1633 -0.0417
  189SAPI   O1321772   2.671   4.313   0.680 -0.0141  0.0820 -0.3924
  189SAPI   O1421773   2.447   4.410   0.652 -0.2412  0.1571  0.1737
  189SAPI   O1221774   2.473   4.159   0.726 -0.2041 -0.6194  0.8033
  189SAPI   O1121775   2.535   4.255   0.480 -0.3342  0.2336 -0.1044
  189SAPI    C121776   2.476   4.134   0.438 -0.4450 -0.2469 -0.7754
  189SAPI    HA21777   2.539   4.048   0.472 -1.6215 -0.7462  0.2175
  189SAPI    HB21778   2.371   4.124   0.472 -0.2047 -0.7340 -0.1559
  189SAPI    C221779   2.482   4.124   0.285  0.0078  0.1721  0.2578
  189SAPI    HS21780   2.589   4.151   0.266  0.1958 -2.5575 -4.2086
  189SAPI   O2121781   2.391   4.204   0.210  0.8797  0.1723 -0.4042
  189SAPI   C2121782   2.439   4.321   0.166  0.7229 -0.3957  0.6160
  189SAPI   O2221783   2.549   4.364   0.186 -0.1559 -0.2557  0.2111
  189SAPI   C2221784   2.313   4.386   0.090  0.2064  0.1270 -0.5048
  189SAPI   H2R21785   2.229   4.315   0.086 -1.2855  1.6351  1.6427
  189SAPI   H2S21786   2.276   4.466   0.158  1.8844  1.4993 -1.1328
  189SAPI    C321787   2.464   3.979   0.241 -0.4552  0.5923  0.1775
  189SAPI    HX21788   2.355   3.958   0.251 -0.6280  1.8611  1.2492
  189SAPI    HY21789   2.510   3.905   0.311  0.9671 -1.8949 -3.1304
  189SAPI   O3121790   2.510   3.951   0.103  0.2237  0.4745 -0.3931
  189SAPI   C3121791   2.645   3.954   0.096  0.1578  0.0853  0.1641
  189SAPI   O3221792   2.718   3.985   0.187  0.5069  0.3204  0.1189
  189SAPI   C3221793   2.698   3.919  -0.050  0.3336 -0.5740  0.9080
  189SAPI   H2X21794   2.632   3.832  -0.071 -0.7577  0.4828 -0.1685
  189SAPI   H2Y21795   2.805   3.897  -0.026 -0.0402 -0.8044  2.4838
  189SAPI   C2321796   2.355   4.446  -0.048 -0.5573 -0.0400 -0.6243
  189SAPI   H3R21797   2.410   4.367  -0.104  0.2101 -1.1243  1.5747
  189SAPI   H3S21798   2.434   4.520  -0.028 -1.0826  0.5463 -0.6923
  189SAPI   C2421799   2.235   4.511  -0.125 -0.2040 -0.5877  0.2496
  189SAPI   H4R21800   2.175   4.569  -0.052  1.4862 -0.6495  1.7668
  189SAPI   H4S21801   2.177   4.424  -0.163  0.7427 -0.1482 -2.4659
  189SAPI   C2521802   2.276   4.603  -0.240 -0.2209 -0.1859 -0.6505
  189SAPI   H5R21803   2.383   4.619  -0.256  0.2520 -1.2881  1.1819
  189SAPI   C2621804   2.179   4.648  -0.328 -0.3582 -0.1472 -0.0849
  189SAPI   H6R21805   2.192   4.728  -0.402 -1.9917 -0.9036 -1.2523
  189SAPI   C2721806   2.028   4.625  -0.312 -0.6084 -0.3469  0.2671
  189SAPI   H7R21807   2.005   4.532  -0.256 -3.5385  0.4244  0.5218
  189SAPI   H7S21808   1.992   4.604  -0.415 -1.3232 -2.1987  0.8634
  189SAPI   C2821809   1.952   4.730  -0.233 -0.5152 -0.5893 -0.0021
  189SAPI   H8R21810   1.959   4.713  -0.124 -1.1382  0.9781  0.3092
  189SAPI   C2921811   1.868   4.828  -0.282 -0.2380 -0.3005  0.0098
  189SAPI   H9R21812   1.805   4.895  -0.221 -0.8102  0.3198 -1.1970
  189SAPI  C21021813   1.852   4.852  -0.430  0.3726 -0.2883 -0.3078
  189SAPI  H10R21814   1.953   4.851  -0.475  0.9526  0.6967  0.9207
  189SAPI  H10S21815   1.809   4.954  -0.435 -0.8356 -0.4120  3.7177
  189SAPI  C21121816   1.769   4.753  -0.500  0.8018  0.0752 -0.1883
  189SAPI  H11R21817   1.697   4.694  -0.442  1.1533  1.2423  1.5232
  189SAPI  C21221818   1.770   4.738  -0.630 -0.5954 -0.3652 -0.3795
  189SAPI  H12R21819   1.708   4.659  -0.674 -2.0324  0.5982 -0.1384
  189SAPI  C21321820   1.858   4.817  -0.734  1.0865 -0.3792 -0.7808
  189SAPI  H13R21821   1.962   4.815  -0.695 -0.0708 -1.1319  2.6030
  189SAPI  H13S21822   1.833   4.926  -0.734  0.5555 -0.4992 -1.1645
  189SAPI  C21421823   1.841   4.769  -0.877  0.0246  0.3729 -0.1028
  189SAPI  H14R21824   1.739   4.738  -0.904  0.8782 -1.8590 -0.9719
  189SAPI  C21521825   1.939   4.762  -0.965  0.5999 -0.9465 -0.2878
  189SAPI  H15R21826   1.911   4.731  -1.067  0.3600 -1.3122 -0.1138
  189SAPI  C21621827   2.086   4.797  -0.938  0.5993 -0.5959 -0.0021
  189SAPI  H16R21828   2.122   4.772  -0.836 -1.3428  0.4720  0.9873
  189SAPI  H16S21829   2.112   4.905  -0.941  2.8045 -1.0675 -0.2865
  189SAPI  C21721830   2.189   4.720  -1.017  0.4255  0.9984 -0.2144
  189SAPI  H17R21831   2.175   4.611  -1.000 -0.4412  1.3381  1.4347
  189SAPI  H17S21832   2.288   4.750  -0.977  0.3883  0.1748  0.5311
  189SAPI  C21821833   2.191   4.745  -1.166 -1.1574  1.1436  0.5174
  189SAPI  H18R21834   2.220   4.851  -1.185  3.5688  0.1631  1.0045
  189SAPI  H18S21835   2.101   4.712  -1.223 -0.6841 -0.0465  0.4423
  189SAPI  C21921836   2.306   4.662  -1.219  0.4968  0.2418 -0.1089
  189SAPI  H19R21837   2.294   4.556  -1.189  0.6789 -0.0873 -1.1628
  189SAPI  H19S21838   2.401   4.696  -1.173  0.7778 -1.0677  0.3297
  189SAPI  C22021839   2.314   4.668  -1.368  0.4616  0.0047 -0.0786
  189SAPI  H20R21840   2.410   4.616  -1.390  0.0897 -0.8354  0.2288
  189SAPI  H20S21841   2.319   4.769  -1.413 -3.3272  1.0056  1.4558
  189SAPI  H20T21842   2.235   4.610  -1.420 -2.7428  3.0013  1.0637
  189SAPI   C3321843   2.682   4.021  -0.158  0.3996  0.1465 -0.7802
  189SAPI   H3X21844   2.750   4.110  -0.153 -1.0615  1.3882 -1.9914
  189SAPI   H3Y21845   2.578   4.058  -0.154  0.3430 -0.1008  0.2799
  189SAPI   C3421846   2.687   3.963  -0.299 -0.4936  0.1672  1.0827
  189SAPI   H4X21847   2.608   4.020  -0.353  1.1919  3.2217  1.6242
  189SAPI   H4Y21848   2.662   3.855  -0.305  1.0158 -0.1391 -0.4441
  189SAPI   C3521849   2.818   3.986  -0.375 -0.1724  0.1834 -0.6182
  189SAPI   H5X21850   2.884   3.901  -0.351 -0.5037  0.5014  1.6271
  189SAPI   H5Y21851   2.868   4.078  -0.336 -0.3502 -1.2289  3.3720
  189SAPI   C3621852   2.810   3.991  -0.524  0.1964  1.1330 -0.0478
  189SAPI   H6X21853   2.913   3.966  -0.557  0.5038  0.7856  1.1507
  189SAPI   H6Y21854   2.777   4.093  -0.554 -2.6835  0.4592  0.5262
  189SAPI   C3721855   2.708   3.888  -0.582  0.0835 -0.3247 -0.4513
  189SAPI   H7X21856   2.604   3.925  -0.571  0.1907  0.1060 -0.8302
  189SAPI   H7Y21857   2.729   3.798  -0.519  2.5251  1.0140  0.8285
  189SAPI   C3821858   2.706   3.857  -0.737  0.6907  0.5336 -0.3414
  189SAPI   H8X21859   2.606   3.809  -0.750  0.3234  0.6783  1.6356
  189SAPI   H8Y21860   2.777   3.781  -0.775 -1.3344 -1.4495 -0.3879
  189SAPI   C3921861   2.725   3.976  -0.823  0.2935 -0.6225  0.0205
  189SAPI   H9X21862   2.804   4.047  -0.792  1.4342 -1.7635 -0.2140
  189SAPI   H9Y21863   2.627   4.028  -0.818  0.2113 -0.5861 -1.4337
  189SAPI  C31021864   2.738   3.941  -0.971 -0.0121  0.4460 -0.0215
  189SAPI  H10X21865   2.707   4.017  -1.045 -0.0257 -0.6555 -1.1758
  189SAPI  H10Y21866   2.679   3.848  -0.983  3.0716 -1.9779  1.8685
  189SAPI  C31121867   2.878   3.899  -1.018 -0.4249  0.0953 -0.7809
  189SAPI  H11X21868   2.917   3.815  -0.957 -0.0975 -0.2829 -1.5085
  189SAPI  H11Y21869   2.943   3.985  -0.993 -1.1682 -0.1366  2.5193
  189SAPI  C31221870   2.871   3.868  -1.168 -0.7864 -0.2235 -0.3229
  189SAPI  H12X21871   2.823   3.768  -1.173 -0.8609 -0.2537  0.7621
  189SAPI  H12Y21872   2.976   3.860  -1.203  0.2226 -2.3197  2.7823
  189SAPI  C31321873   2.810   3.960  -1.271 -0.3252  0.5817 -0.3149
  189SAPI  H13X21874   2.843   4.064  -1.250 -1.4692  0.8965 -0.0217
  189SAPI  H13Y21875   2.700   3.964  -1.256 -0.7245 -1.5450 -2.1850
  189SAPI  C31421876   2.839   3.921  -1.411 -0.3688  0.0790  0.7549
  189SAPI  H14X21877   2.948   3.914  -1.429 -0.4392 -0.1677  0.4055
  189SAPI  H14Y21878   2.817   3.993  -1.493 -0.1895 -0.7628 -0.0425
  189SAPI  C31521879   2.783   3.782  -1.445  0.6588  0.6588  0.3105
  189SAPI  H15X21880   2.843   3.703  -1.396 -0.0842 -1.4314 -1.9748
  189SAPI  H15Y21881   2.803   3.766  -1.553  1.1442  1.6072  0.2435
  189SAPI  C31621882   2.635   3.755  -1.428 -0.1058  0.5120  0.7689
  189SAPI  H16X21883   2.609   3.743  -1.321 -2.9803 -1.4094 -0.0230
  189SAPI  H16Y21884   2.599   3.656  -1.465  0.0959  1.2958 -1.7298
  189SAPI  C31721885   2.554   3.866  -1.494  0.8496 -0.3906 -0.0383
  189SAPI  H17X21886   2.587   3.891  -1.597  0.7668  1.1426  0.2747
  189SAPI  H17Y21887   2.559   3.960  -1.434 -3.7289 -1.4269  2.4263
  189SAPI  C31821888   2.405   3.831  -1.505  0.5604 -0.3830  0.3284
  189SAPI  H18X21889   2.383   3.733  -1.553 -2.7086 -1.2634  3.2139
  189SAPI  H18Y21890   2.356   3.914  -1.559  0.6279 -0.4583  0.1520
  189SAPI  H18Z21891   2.362   3.823  -1.403 -1.1720 -0.9267 -0.4067
  190SAPI   C1221892   0.173   2.580   0.310  0.3327  0.7004  0.5293
  190SAPI    H221893   0.192   2.587   0.201  1.7338  1.0573  0.7728
  190SAPI    O221894   0.143   2.709   0.360  0.3910  0.0196 -0.0944
  190SAPI   HO221895   0.212   2.759   0.316 -0.8239  0.3387 -1.7430
  190SAPI   C1321896   0.055   2.498   0.337  0.3087 -0.2846  0.0412
  190SAPI    H321897   0.073   2.396   0.298 -0.4782 -1.3086  2.1681
  190SAPI    O321898  -0.062   2.541   0.267  0.3765 -0.0638 -0.0792
  190SAPI   HO321899  -0.093   2.624   0.304 -0.4358 -0.9557  1.3399
  190SAPI   C1421900   0.029   2.473   0.487 -0.8978  0.2796  0.8949
  190SAPI    H421901  -0.021   2.569   0.514  0.9507  0.8568  2.4996
  190SAPI    O421902  -0.070   2.373   0.501  0.5277 -0.4173 -0.6307
  190SAPI   HO421903  -0.046   2.298   0.446 -0.2112 -1.3925  0.3191
  190SAPI   C1521904   0.151   2.454   0.567 -0.7484  0.2758 -0.5006
  190SAPI    H521905   0.167   2.344   0.567  0.6794  0.3908  2.2993
  190SAPI    O521906   0.117   2.485   0.703  0.1943 -0.5273 -0.0549
  190SAPI   HO521907   0.129   2.418   0.770  0.1451 -0.5143 -0.0331
  190SAPI   C1621908   0.291   2.509   0.522 -0.1989  0.2031  0.3218
  190SAPI    H621909   0.291   2.609   0.570  0.2787  0.0833  0.5748
  190SAPI    O621910   0.396   2.421   0.563  0.0622  0.0013  0.0482
  190SAPI   HO621911   0.481   2.461   0.544  0.7472 -1.4786 -0.1285
  190SAPI   C1121912   0.301   2.537   0.374 -0.5390 -0.0274  0.6318
  190SAPI    H121913   0.313   2.435   0.330 -1.3806 -0.2084  0.8143
  190SAPI     P21914   0.555   2.590   0.319  0.4187  0.0299  0.0967
  190SAPI   O1321915   0.609   2.533   0.445  0.0794 -0.3317  0.1537
  190SAPI   O1421916   0.634   2.708   0.270  0.3429 -0.0606  0.4276
  190SAPI   O1221917   0.403   2.626   0.344 -0.8607 -0.0676 -0.0314
  190SAPI   O1121918   0.549   2.465   0.212 -0.0102  0.2224 -0.0024
  190SAPI    C121919   0.482   2.489   0.088  0.1997 -0.0687  0.0510
  190SAPI    HA21920   0.383   2.443   0.104 -0.0193  0.4732  0.2660
  190SAPI    HB21921   0.465   2.598   0.071  1.7869  0.8344  3.3694
  190SAPI    C221922   0.547   2.408  -0.031 -0.1550 -0.4156  0.5432
  190SAPI    HS21923   0.496   2.439  -0.125  0.2168  2.3767  1.1505
  190SAPI   O2121924   0.540   2.271  -0.008  0.2299 -0.4814  0.0814
  190SAPI   C2121925   0.514   2.199  -0.122  0.5573 -0.6788 -0.4629
  190SAPI   O2221926   0.517   2.249  -0.232 -0.6432 -0.2952  0.3502
  190SAPI   C2221927   0.512   2.048  -0.087 -1.0313 -0.2077 -0.0054
  190SAPI   H2R21928   0.618   2.017  -0.096 -1.4800 -1.2447 -2.3737
  190SAPI   H2S21929   0.470   2.026   0.014 -0.0679 -1.3050  0.1738
  190SAPI    C321930   0.700   2.450  -0.042 -0.7971 -0.1230  0.0887
  190SAPI    HX21931   0.747   2.394   0.041 -1.7715 -0.0479  0.7044
  190SAPI    HY21932   0.711   2.559  -0.024 -0.8863 -0.1129  0.0811
  190SAPI   O3121933   0.756   2.416  -0.172 -0.1440 -0.2146 -0.2278
  190SAPI   C3121934   0.734   2.509  -0.269 -0.1295  0.4482  0.5181
  190SAPI   O3221935   0.669   2.612  -0.258  0.1271  0.0854  0.1620
  190SAPI   C3221936   0.784   2.455  -0.407  0.0529  0.0748 -0.0916
  190SAPI   H2X21937   0.716   2.385  -0.460 -0.0905  0.3934 -0.3338
  190SAPI   H2Y21938   0.875   2.399  -0.379  1.2670  0.9718 -2.0702
  190SAPI   C2321939   0.438   1.958  -0.189 -0.2073 -0.3716  0.0795
  190SAPI   H3R21940   0.462   1.852  -0.166  2.7920  0.5822  1.9590
  190SAPI   H3S21941   0.470   1.974  -0.294  3.5964  0.6987  1.2399
  190SAPI   C2421942   0.284   1.969  -0.176 -0.2979  0.4613  0.7171
  190SAPI   H4R21943   0.258   2.076  -0.159  0.2285  0.5554  0.9547
  190SAPI   H4S21944   0.258   1.914  -0.083 -0.9852  0.8458  0.7588
  190SAPI   C2521945   0.213   1.904  -0.295 -0.3970 -1.2588  0.1154
  190SAPI   H5R21946   0.179   1.801  -0.276 -1.8594 -0.6879  0.7135
  190SAPI   C2621947   0.185   1.962  -0.416  0.0372  0.3352 -0.3461
  190SAPI   H6R21948   0.138   1.893  -0.489  0.1419 -1.3812  1.1573
  190SAPI   C2721949   0.201   2.100  -0.473  0.1751  0.1214 -0.5415
  190SAPI   H7R21950   0.210   2.172  -0.389  3.5989  1.0486 -1.5389
  190SAPI   H7S21951   0.106   2.125  -0.524 -0.6314 -2.9343 -0.7377
  190SAPI   C2821952   0.324   2.140  -0.545 -0.0990 -0.6108  0.7543
  190SAPI   H8R21953   0.410   2.158  -0.478  0.5595 -2.3564  0.4322
  190SAPI   C2921954   0.320   2.169  -0.677  0.2946  0.0291 -0.3383
  190SAPI   H9R21955   0.411   2.217  -0.718 -0.0934  1.7588  0.7392
  190SAPI  C21021956   0.201   2.144  -0.772 -0.4651  0.3251  0.5158
  190SAPI  H10R21957   0.194   2.233  -0.839 -2.2007 -0.3304 -0.2551
  190SAPI  H10S21958   0.099   2.149  -0.726 -1.1206 -0.4337 -0.7836
  190SAPI  C21121959   0.228   2.012  -0.842  0.4463 -0.4160 -0.0128
  190SAPI  H11R21960   0.230   1.920  -0.781 -0.6483  0.1108  0.8770
  190SAPI  C21221961   0.223   1.989  -0.973  1.4586 -0.0961  0.6156
  190SAPI  H12R21962   0.250   1.886  -1.001  0.3918  0.1842 -1.7320
  190SAPI  C21321963   0.206   2.082  -1.090 -0.2015  0.0504  0.1718
  190SAPI  H13R21964   0.161   2.176  -1.050  0.8523  0.4379  0.5038
  190SAPI  H13S21965   0.126   2.043  -1.156  0.7292 -0.0839 -0.8999
  190SAPI  C21421966   0.339   2.117  -1.168  0.5479  0.1115  0.1789
  190SAPI  H14R21967   0.418   2.161  -1.106 -1.3146  1.7625  1.4809
  190SAPI  C21521968   0.369   2.099  -1.302  0.4826 -0.0259  0.3492
  190SAPI  H15R21969   0.465   2.136  -1.339 -1.6010  2.3503 -3.3246
  190SAPI  C21621970   0.274   2.061  -1.413 -0.1532  0.1166  0.1631
  190SAPI  H16R21971   0.278   2.137  -1.494  1.5882 -2.3014 -2.2371
  190SAPI  H16S21972   0.169   2.054  -1.377  0.5840  0.3145  2.4814
  190SAPI  C21721973   0.307   1.932  -1.485 -0.2571  0.4266  0.9359
  190SAPI  H17R21974   0.215   1.912  -1.544 -1.0091 -1.5571  2.6441
  190SAPI  H17S21975   0.305   1.846  -1.415 -0.8446 -2.7664 -2.6553
  190SAPI  C21821976   0.425   1.938  -1.583  0.4572  0.0706  0.4099
  190SAPI  H18R21977   0.515   1.991  -1.546  2.6977 -3.1835  0.0503
  190SAPI  H18S21978   0.399   1.998  -1.673  1.2080 -1.8970 -1.1892
  190SAPI  C21921979   0.469   1.804  -1.643  0.7366  0.3536 -0.6856
  190SAPI  H19R21980   0.379   1.756  -1.687  0.1572  0.2927  0.5248
  190SAPI  H19S21981   0.511   1.737  -1.565 -1.2928  0.0617  0.1971
  190SAPI  C22021982   0.565   1.820  -1.762 -0.0329 -0.5832 -0.0582
  190SAPI  H20R21983   0.608   1.730  -1.811 -2.6944 -0.2806 -3.2559
  190SAPI  H20S21984   0.642   1.896  -1.738  0.3011 -0.2726 -1.9444
  190SAPI  H20T21985   0.509   1.860  -1.849  2.2998  1.9728 -0.4999
  190SAPI   C3321986   0.813   2.568  -0.514  0.4603  1.1478 -0.4321
  190SAPI   H3X21987   0.894   2.634  -0.476  1.0073  0.2900 -0.0794
  190SAPI   H3Y21988   0.721   2.627  -0.535  0.3877  1.7367  1.3813
  190SAPI   C3421989   0.848   2.501  -0.645 -0.1977  0.0096 -0.6202
  190SAPI   H4X21990   0.773   2.422  -0.671  0.7215 -0.3824 -2.2293
  190SAPI   H4Y21991   0.947   2.451  -0.643 -1.8858 -3.6770 -0.3598
  190SAPI   C3521992   0.842   2.600  -0.760  0.3447 -1.0496 -0.1606
  190SAPI   H5X21993   0.920   2.678  -0.749  1.3162 -2.1936  1.5275
  190SAPI   H5Y21994   0.751   2.664  -0.751 -0.1156 -1.7270  0.0701
  190SAPI   C3621995   0.849   2.539  -0.897 -0.2444  0.2935  0.4268
  190SAPI   H6X21996   0.757   2.481  -0.920  0.6640 -0.4169 -1.6388
  190SAPI   H6Y21997   0.930   2.464  -0.910 -1.2691 -1.1012  1.7576
  190SAPI   C3721998   0.865   2.645  -1.003 -0.0319 -0.1814 -0.2826
  190SAPI   H7X21999   0.951   2.714  -0.988 -0.3385  0.5269 -1.5974
  190SAPI   H7Y22000   0.771   2.703  -0.994 -0.2606 -0.7470  1.2951
  190SAPI   C3822001   0.873   2.569  -1.134 -0.5084 -0.4965 -0.5221
  190SAPI   H8X22002   0.772   2.527  -1.151 -0.4656 -0.0878 -2.0170
  190SAPI   H8Y22003   0.957   2.497  -1.141  0.8169  0.6065  2.3742
  190SAPI   C3922004   0.887   2.665  -1.254 -0.5855  0.3189 -0.2459
  190SAPI   H9X22005   0.985   2.711  -1.230 -0.7372 -1.0678  3.6566
  190SAPI   H9Y22006   0.814   2.749  -1.260 -1.4603 -0.3260  0.8466
  190SAPI  C31022007   0.892   2.594  -1.388 -0.2768  0.0655 -0.0769
  190SAPI  H10X22008   0.793   2.555  -1.418  0.2547 -0.7133 -0.8759
  190SAPI  H10Y22009   0.964   2.509  -1.382  0.2689  0.5006 -0.3883
  190SAPI  C31122010   0.946   2.696  -1.496  0.3185 -0.1172  0.9502
  190SAPI  H11X22011   1.045   2.740  -1.471  1.7191 -1.7181 -1.3501
  190SAPI  H11Y22012   0.877   2.782  -1.496 -0.1204 -0.4103 -1.2180
  190SAPI  C31222013   0.950   2.621  -1.634  0.1454  0.3997 -0.7824
  190SAPI  H12X22014   0.877   2.537  -1.643  3.6363 -2.9699 -0.5140
  190SAPI  H12Y22015   1.048   2.569  -1.626 -0.5844 -0.8706  0.3920
  190SAPI  C31322016   0.948   2.712  -1.760 -0.1638 -0.3707  0.2625
  190SAPI  H13X22017   1.009   2.803  -1.739  0.4346 -0.8459  0.6333
  190SAPI  H13Y22018   0.841   2.726  -1.785  0.1080  0.8497 -0.2904
  190SAPI  C31422019   1.027   2.651  -1.879 -0.4153  0.4123  0.4597
  190SAPI  H14X22020   1.015   2.540  -1.876  0.0258  0.3780  1.8855
  190SAPI  H14Y22021   1.137   2.665  -1.870 -0.5499  1.2982  0.7854
  190SAPI  C31522022   0.982   2.716  -2.008 -0.5791  0.5358 -0.1870
  190SAPI  H15X22023   1.013   2.822  -2.015 -0.4487  0.6291  1.5004
  190SAPI  H15Y22024   0.872   2.722  -1.989 -0.5090 -0.8788  0.8137
  190SAPI  C31622025   1.020   2.657  -2.142  0.2801 -0.0420  0.1649
  190SAPI  H16X22026   0.982   2.554  -2.156 -1.2412  0.8636 -3.7206
  190SAPI  H16Y22027   1.131   2.661  -2.148  0.2452  1.3089  0.0574
  190SAPI  C31722028   0.953   2.739  -2.257  0.1589 -0.2065  0.4203
  190SAPI  H17X22029   1.000   2.838  -2.275  0.9640 -1.0303 -2.5371
  190SAPI  H17Y22030   0.848   2.745  -2.221  0.7326  0.9209  2.0723
  190SAPI  C31822031   0.958   2.670  -2.395 -1.0330  0.1719 -0.3714
  190SAPI  H18X22032   0.884   2.716  -2.464  0.1653 -0.5311 -2.1911
  190SAPI  H18Y22033   0.947   2.560  -2.381  2.8090 -0.4700 -1.3001
  190SAPI  H18Z22034   1.063   2.682  -2.429 -0.3090  0.4440  1.8091
  191SAPI   C1222035   4.288   5.692   4.922 -0.3111 -0.0075  0.1520
  191SAPI    H222036   4.304   5.780   4.988  0.6708 -0.7925  1.0031
  191SAPI    O222037   4.415   5.643   4.878  0.2257 -0.1432  0.1204
  191SAPI   HO222038   4.441   5.696   4.802 -0.3356 -1.1724 -0.8189
  191SAPI   C1322039   4.225   5.591   5.016  0.0828 -1.0618  0.6670
  191SAPI    H322040   4.118   5.613   5.036  0.3534 -1.2672  2.5310
  191SAPI    O322041   4.273   5.599   5.150  0.2742 -0.2382 -0.8431
  191SAPI   HO322042   4.359   5.560   5.163  0.1871  0.0310  0.6789
  191SAPI   C1422043   4.218   5.452   4.956 -0.6022  0.2077 -0.6007
  191SAPI    H422044   4.318   5.404   4.946 -0.7040 -0.0479 -0.3891
  191SAPI    O422045   4.156   5.358   5.044  0.4421  0.5227 -0.7617
  191SAPI   HO422046   4.216   5.338   5.117 -1.0035 -1.6570 -0.0857
  191SAPI   C1522047   4.155   5.462   4.817 -0.7458  0.6085 -0.4972
  191SAPI    H522048   4.048   5.452   4.847 -0.4863 -2.8210 -0.3378
  191SAPI    O522049   4.177   5.347   4.734 -0.1465 -0.2169 -0.0932
  191SAPI   HO522050   4.270   5.326   4.744 -0.0026  0.4491 -0.0102
  191SAPI   C1622051   4.159   5.595   4.739  0.1835 -0.0564  0.0067
  191SAPI    H622052   4.248   5.579   4.674  1.1380 -2.5947  1.7750
  191SAPI    O622053   4.044   5.613   4.665  0.2106  0.1732  0.0720
  191SAPI   HO622054   4.034   5.701   4.630 -2.7464 -0.9277 -2.3215
  191SAPI   C1122055   4.190   5.722   4.811  0.1073 -0.3067 -0.0689
  191SAPI    H122056   4.098   5.754   4.865  0.7217 -0.9115  1.3937
  191SAPI     P22057   4.146   5.951   4.665  0.1601  0.3659  0.4981
  191SAPI   O1322058   4.006   5.900   4.650  0.1087  0.2435 -0.5298
  191SAPI   O1422059   4.208   6.003   4.543 -0.3397  0.7183 -0.2649
  191SAPI   O1222060   4.236   5.828   4.728 -0.1118  0.4726  0.0938
  191SAPI   O1122061   4.154   6.058   4.775 -0.2700 -0.0375 -0.1342
  191SAPI    C122062   4.241   6.167   4.753  0.0796  0.8966  0.5194
  191SAPI    HA22063   4.226   6.213   4.653  1.0045  1.7463  0.7505
  191SAPI    HB22064   4.209   6.243   4.827  0.2934  0.2055  1.3398
  191SAPI    C222065   4.394   6.148   4.782 -0.3046 -0.2131  0.4663
  191SAPI    HS22066   4.436   6.063   4.724  1.7625  2.5643 -2.4767
  191SAPI   O2122067   4.407   6.123   4.926  0.0128 -0.5721 -0.2470
  191SAPI   C2122068   4.511   6.057   4.966  1.0952 -0.7049 -0.0758
  191SAPI   O2222069   4.600   6.013   4.900 -0.3513  0.7550 -0.1836
  191SAPI   C2222070   4.497   6.017   5.119  0.0753 -0.2539 -0.1076
  191SAPI   H2R22071   4.528   5.911   5.115  0.5925 -0.1260  0.2614
  191SAPI   H2S22072   4.558   6.088   5.180  0.1524 -0.0927 -0.3700
  191SAPI    C322073   4.485   6.279   4.739  0.6547  0.4216 -0.3233
  191SAPI    HX22074   4.466   6.290   4.630  0.8623 -0.1337 -0.4203
  191SAPI    HY22075   4.593   6.254   4.743  0.8714  1.4396  1.1981
  191SAPI   O3122076   4.446   6.392   4.807  0.2408 -0.2934 -0.4343
  191SAPI   C3122077   4.517   6.417   4.913 -0.0077  0.8865  0.2036
  191SAPI   O3222078   4.597   6.342   4.967 -0.2759  0.0982  0.4188
  191SAPI   C3222079   4.480   6.543   4.980  0.3417  0.2556  0.1199
  191SAPI   H2X22080   4.371   6.545   5.001  0.1406  0.4329 -0.9159
  191SAPI   H2Y22081   4.487   6.616   4.897 -1.9458 -0.3673 -0.6987
  191SAPI   C2322082   4.348   6.024   5.173  0.0491  0.3333  0.6594
  191SAPI   H3R22083   4.282   5.960   5.111  0.1765 -1.6360  2.4269
  191SAPI   H3S22084   4.324   6.132   5.166  1.8679  0.7100 -0.3947
  191SAPI   C2422085   4.338   5.991   5.323  0.6775  0.5663  0.5171
  191SAPI   H4R22086   4.394   5.895   5.328  0.0276  0.2308  1.6254
  191SAPI   H4S22087   4.233   5.970   5.352  1.3460 -2.4635  1.0474
  191SAPI   C2522088   4.408   6.097   5.408 -0.1273 -0.3208 -0.1670
  191SAPI   H5R22089   4.368   6.198   5.395 -0.4361  0.0362  2.8711
  191SAPI   C2622090   4.514   6.083   5.494 -0.1206  0.3912 -0.1356
  191SAPI   H6R22091   4.547   6.180   5.536 -0.4185  0.3311  0.2468
  191SAPI   C2722092   4.609   5.971   5.501 -0.3978  1.3493 -0.1367
  191SAPI   H7R22093   4.583   5.896   5.423 -0.0732  2.0159 -0.8946
  191SAPI   H7S22094   4.587   5.913   5.594 -0.0945 -1.2144 -1.5508
  191SAPI   C2822095   4.757   6.008   5.495 -0.5277 -0.6055  0.2086
  191SAPI   H8R22096   4.797   6.009   5.392  2.4981 -2.3998  1.2245
  191SAPI   C2922097   4.846   6.026   5.592 -0.5752  0.5851 -0.0453
  191SAPI   H9R22098   4.943   6.069   5.562  0.0096  1.1997  2.5090
  191SAPI  C21022099   4.819   6.021   5.737  0.1435  0.3421 -0.4430
  191SAPI  H10R22100   4.904   5.986   5.800 -1.8985  1.0588  2.9571
  191SAPI  H10S22101   4.733   5.951   5.744  0.2196  0.3258  0.3935
  191SAPI  C21122102   4.790   6.157   5.809  0.0359  0.1497  0.0284
  191SAPI  H11R22103   4.797   6.245   5.743 -0.7958 -1.3370 -2.1716
  191SAPI  C21222104   4.756   6.170   5.939  0.4593 -0.4739  0.0531
  191SAPI  H12R22105   4.748   6.272   5.980  2.0201 -0.8635  1.4270
  191SAPI  C21322106   4.752   6.064   6.039  0.1854  0.0526  0.2854
  191SAPI  H13R22107   4.738   5.964   5.993  0.5876  0.4654 -0.7538
  191SAPI  H13S22108   4.666   6.075   6.109 -1.0536  0.2996 -1.2195
  191SAPI  C21422109   4.879   6.061   6.133  0.0539  0.1624 -0.1683
  191SAPI  H14R22110   4.965   6.047   6.066 -0.2858  1.5999 -0.9419
  191SAPI  C21522111   4.898   6.082   6.270  0.8871  0.1060 -0.5843
  191SAPI  H15R22112   4.998   6.073   6.314  1.0409 -1.9594 -1.2725
  191SAPI  C21622113   4.785   6.114   6.367  0.0382  0.5450  0.2518
  191SAPI  H16R22114   4.685   6.112   6.319 -0.0216 -0.4190  0.3921
  191SAPI  H16S22115   4.791   6.220   6.399  1.4983  0.4126  0.4937
  191SAPI  C21722116   4.792   6.033   6.500 -0.2150 -0.0504 -0.0631
  191SAPI  H17R22117   4.783   5.926   6.473 -1.0015  0.3598 -1.5381
  191SAPI  H17S22118   4.702   6.068   6.556 -1.8679 -1.2941 -1.8195
  191SAPI  C21822119   4.917   6.071   6.582  0.3377 -0.8912 -0.2332
  191SAPI  H18R22120   4.928   6.181   6.582 -3.1537 -0.4189 -2.0634
  191SAPI  H18S22121   5.006   6.032   6.527  1.2108 -0.1223  0.5839
  191SAPI  C21922122   4.902   6.015   6.728 -0.3570 -0.1332 -0.2425
  191SAPI  H19R22123   4.993   6.014   6.792 -1.9321  0.9875  2.1769
  191SAPI  H19S22124   4.891   5.904   6.723  0.9813 -0.2767 -0.3269
  191SAPI  C22022125   4.788   6.074   6.814 -0.2194  0.4907 -0.1645
  191SAPI  H20R22126   4.805   6.184   6.819  1.2324  0.3479 -1.2093
  191SAPI  H20S22127   4.787   6.021   6.912 -1.5852 -0.6277 -0.7474
  191SAPI  H20T22128   4.686   6.057   6.775 -0.8927  0.8551  1.3563
  191SAPI   C3322129   4.574   6.594   5.090 -0.3831 -0.1546 -0.7261
  191SAPI   H3X22130   4.566   6.703   5.106  2.5387 -0.2737  2.8918
  191SAPI   H3Y22131   4.679   6.562   5.068 -0.1504 -1.3710  1.8402
  191SAPI   C3422132   4.549   6.532   5.234  0.2958 -0.6529  0.2304
  191SAPI   H4X22133   4.580   6.425   5.223  1.7673 -0.2189 -0.0924
  191SAPI   H4Y22134   4.446   6.540   5.276  1.0118  1.9115  1.7152
  191SAPI   C3522135   4.633   6.588   5.345  0.0937  0.0820 -0.4738
  191SAPI   H5X22136   4.604   6.693   5.367 -3.5198 -1.2451  2.1903
  191SAPI   H5Y22137   4.739   6.570   5.318 -0.2924 -1.5856 -0.9447
  191SAPI   C3622138   4.604   6.504   5.474  0.2055  0.1039  0.3540
  191SAPI   H6X22139   4.659   6.408   5.462 -0.5761 -0.2100 -0.8071
  191SAPI   H6Y22140   4.499   6.472   5.483 -0.2104  0.3057 -2.7730
  191SAPI   C3722141   4.662   6.562   5.606 -0.4883 -0.8588 -0.0518
  191SAPI   H7X22142   4.753   6.621   5.582 -2.1449  1.0809 -1.8552
  191SAPI   H7Y22143   4.690   6.473   5.667 -0.8018 -0.9519 -0.0440
  191SAPI   C3822144   4.559   6.652   5.687 -0.3243 -0.2679  0.4152
  191SAPI   H8X22145   4.470   6.589   5.711 -1.6203  1.5621  0.6064
  191SAPI   H8Y22146   4.517   6.729   5.620 -0.2071  1.6738  2.4379
  191SAPI   C3922147   4.630   6.720   5.811 -0.3890  0.0246  0.9390
  191SAPI   H9X22148   4.573   6.806   5.852 -1.3296  0.6730 -1.5655
  191SAPI   H9Y22149   4.728   6.752   5.769 -1.2795 -1.6461 -2.8232
  191SAPI  C31022150   4.658   6.621   5.926 -0.3819 -0.2789 -0.4861
  191SAPI  H10X22151   4.723   6.536   5.897  0.3056  0.1198 -0.1345
  191SAPI  H10Y22152   4.567   6.562   5.950  0.1325 -0.1584  1.9811
  191SAPI  C31122153   4.707   6.675   6.063  0.3590  0.5574  0.3046
  191SAPI  H11X22154   4.641   6.757   6.098  0.4444  1.6970 -1.9850
  191SAPI  H11Y22155   4.810   6.718   6.057  1.2491 -1.4054  0.8438
  191SAPI  C31222156   4.743   6.563   6.163  0.2975 -0.4530 -0.0786
  191SAPI  H12X22157   4.847   6.532   6.140  0.0715  0.7731 -3.1645
  191SAPI  H12Y22158   4.673   6.476   6.159 -0.5787  0.2002  0.5804
  191SAPI  C31322159   4.738   6.627   6.308 -0.4588  0.8995  0.2463
  191SAPI  H13X22160   4.634   6.663   6.322 -1.2718 -1.5382  0.9551
  191SAPI  H13Y22161   4.802   6.717   6.298 -0.1178  0.4328 -3.4137
  191SAPI  C31422162   4.781   6.524   6.415  0.0778  0.1093 -0.2144
  191SAPI  H14X22163   4.870   6.467   6.382  1.3010  1.1312  1.1394
  191SAPI  H14Y22164   4.701   6.447   6.408  0.7406 -0.6483  0.3974
  191SAPI  C31522165   4.813   6.584   6.551  0.3142  0.3412 -0.1621
  191SAPI  H15X22166   4.721   6.642   6.575  0.6320  0.5122  0.6504
  191SAPI  H15Y22167   4.890   6.664   6.544  2.3900 -1.1901  2.8565
  191SAPI  C31622168   4.850   6.471   6.654  0.0397 -0.1185 -0.4527
  191SAPI  H16X22169   4.943   6.417   6.626 -0.3403 -2.1070  1.7888
  191SAPI  H16Y22170   4.768   6.396   6.667  1.0672 -1.1949 -0.0321
  191SAPI  C31722171   4.885   6.535   6.792 -0.3449 -0.1567  0.4253
  191SAPI  H17X22172   4.934   6.629   6.759  2.5622 -1.8508 -0.4782
  191SAPI  H17Y22173   4.964   6.474   6.840  0.9044  0.4747 -0.7365
  191SAPI  C31822174   4.767   6.553   6.880 -0.3480 -0.3542 -0.7554
  191SAPI  H18X22175   4.695   6.610   6.817  0.0652 -1.5180 -2.3430
  191SAPI  H18Y22176   4.789   6.621   6.965  1.9324  0.1526 -1.6735
  191SAPI  H18Z22177   4.726   6.453   6.906  0.7438 -1.3832 -2.7394
  192SAPI   C1222178   1.395   4.575   4.140  0.3051  0.3127 -0.1690
  192SAPI    H222179   1.469   4.656   4.124 -0.5457  1.3715  1.0091
  192SAPI    O222180   1.269   4.627   4.108  0.4328 -0.7052 -0.0458
  192SAPI   HO222181   1.276   4.686   4.032 -1.7376  0.4196  0.5189
  192SAPI   C1322182   1.422   4.457   4.058  0.6350 -0.1853  0.5565
  192SAPI    H322183   1.517   4.420   4.102  0.2191  1.6368  3.2549
  192SAPI    O322184   1.431   4.497   3.921  0.0991  0.1989  0.3255
  192SAPI   HO322185   1.516   4.542   3.911  0.1151  0.8099  2.6526
  192SAPI   C1422186   1.322   4.340   4.081 -0.3762 -0.0979  0.2971
  192SAPI    H422187   1.225   4.387   4.053  1.3745  2.5874 -1.7852
  192SAPI    O422188   1.357   4.226   3.998 -0.0550  0.4873 -0.1284
  192SAPI   HO422189   1.277   4.184   3.965  0.0852  0.2985 -0.2339
  192SAPI   C1522190   1.285   4.309   4.225  1.1034 -0.3907  0.5230
  192SAPI    H522191   1.364   4.241   4.262  1.3051  0.2064  1.1998
  192SAPI    O522192   1.162   4.227   4.224  0.2639  0.6597  0.9322
  192SAPI   HO522193   1.189   4.136   4.211  0.5260  0.7181  1.0740
  192SAPI   C1622194   1.293   4.424   4.323  0.2221 -0.5461 -0.0469
  192SAPI    H622195   1.195   4.476   4.313 -0.0074 -0.6574  1.3959
  192SAPI    O622196   1.308   4.389   4.458  0.3184  0.3124 -0.0862
  192SAPI   HO622197   1.266   4.455   4.514  1.1795  0.7864  0.0135
  192SAPI   C1122198   1.397   4.537   4.289  0.9647 -1.2186 -0.7868
  192SAPI    H122199   1.496   4.495   4.318  1.2184 -0.0993  0.0697
  192SAPI     P22200   1.491   4.759   4.399  0.1261  0.3460 -0.3423
  192SAPI   O1322201   1.427   4.894   4.413 -0.0671 -0.1499 -0.2241
  192SAPI   O1422202   1.598   4.744   4.294 -0.3267 -0.4682  0.7699
  192SAPI   O1222203   1.370   4.656   4.369 -0.1438  0.1902 -0.3508
  192SAPI   O1122204   1.556   4.718   4.531 -0.7529 -0.2478  0.3648
  192SAPI    C122205   1.544   4.596   4.602 -0.0813 -0.0058  0.0472
  192SAPI    HA22206   1.446   4.597   4.653  0.4282 -1.4534  1.1197
  192SAPI    HB22207   1.563   4.501   4.547 -1.1086 -1.4066  1.9934
  192SAPI    C222208   1.653   4.594   4.716  0.2449 -0.2447  0.7983
  192SAPI    HS22209   1.747   4.631   4.668 -0.6570  1.9864  0.6272
  192SAPI   O2122210   1.673   4.465   4.775  0.7697  0.1281 -0.1796
  192SAPI   C2122211   1.745   4.387   4.701 -0.6051  0.2694  0.6349
  192SAPI   O2222212   1.793   4.421   4.592  0.0512 -0.1451  0.5559
  192SAPI   C2222213   1.764   4.244   4.763  0.1839  0.3177  0.3252
  192SAPI   H2R22214   1.830   4.244   4.852  1.3975  1.0613 -0.5422
  192SAPI   H2S22215   1.662   4.213   4.797 -0.6843  0.9938 -1.5193
  192SAPI    C322216   1.619   4.712   4.813 -0.2964  0.2319  0.5906
  192SAPI    HX22217   1.512   4.692   4.836 -0.3087 -0.6365 -0.1656
  192SAPI    HY22218   1.625   4.810   4.761  0.6147 -0.8387 -1.4590
  192SAPI   O3122219   1.697   4.709   4.938  0.6187 -0.5582 -0.5636
  192SAPI   C3122220   1.670   4.812   5.017 -0.8794  0.2722 -1.0789
  192SAPI   O3222221   1.587   4.896   4.996  0.3641 -0.0710 -0.0615
  192SAPI   C3222222   1.772   4.813   5.133  0.1274  0.2192 -0.9895
  192SAPI   H2X22223   1.864   4.772   5.086 -0.3201 -0.7605 -1.0358
  192SAPI   H2Y22224   1.735   4.742   5.211  0.2544  2.3977  1.1665
  192SAPI   C2322225   1.817   4.144   4.658  0.4380  0.3282  0.4103
  192SAPI   H3R22226   1.900   4.190   4.599  0.7833  2.1098  2.2000
  192SAPI   H3S22227   1.739   4.132   4.579 -1.1596  0.8618  1.8573
  192SAPI   C2422228   1.858   4.003   4.705  0.5487 -0.6724  0.5633
  192SAPI   H4R22229   1.931   4.013   4.788  0.3187  3.1820  0.4527
  192SAPI   H4S22230   1.902   3.936   4.628 -1.9870 -0.1566 -1.4864
  192SAPI   C2522231   1.738   3.929   4.752  0.2181 -0.4912  0.0440
  192SAPI   H5R22232   1.665   3.908   4.671  0.9782 -2.5473 -0.1801
  192SAPI   C2622233   1.722   3.865   4.869 -0.0902 -0.7824 -0.7095
  192SAPI   H6R22234   1.627   3.810   4.878 -1.2840  1.3465  0.5610
  192SAPI   C2722235   1.816   3.866   4.985 -1.3677 -0.1496  0.3203
  192SAPI   H7R22236   1.757   3.888   5.077 -0.4952  0.2682  0.7912
  192SAPI   H7S22237   1.871   3.962   4.975  0.0950 -1.1232 -1.5618
  192SAPI   C2822238   1.917   3.752   4.997 -0.2463  0.2726 -0.1957
  192SAPI   H8R22239   1.991   3.747   4.915  1.6049  2.1268  1.2519
  192SAPI   C2922240   1.912   3.661   5.092 -1.0675 -0.0785  0.3654
  192SAPI   H9R22241   1.983   3.579   5.075  0.4398  1.1462  0.5298
  192SAPI  C21022242   1.812   3.643   5.200 -0.4233  0.2562 -0.0322
  192SAPI  H10R22243   1.824   3.734   5.262  1.0026  0.4726 -0.5900
  192SAPI  H10S22244   1.843   3.552   5.256 -2.6053 -0.3230  0.3426
  192SAPI  C21122245   1.668   3.630   5.149 -0.1351  0.0603  0.8516
  192SAPI  H11R22246   1.663   3.629   5.040  1.2139  0.8925  0.7504
  192SAPI  C21222247   1.565   3.592   5.226 -0.2463 -0.4646 -0.3622
  192SAPI  H12R22248   1.463   3.586   5.185 -1.6210  1.2101  2.5258
  192SAPI  C21322249   1.571   3.592   5.379 -1.1585  0.0409  0.5719
  192SAPI  H13R22250   1.593   3.697   5.408 -0.4943  0.6731 -1.9237
  192SAPI  H13S22251   1.658   3.526   5.400 -2.7327 -1.6673  2.2102
  192SAPI  C21422252   1.444   3.532   5.438 -0.0415 -0.8733  0.3496
  192SAPI  H14R22253   1.409   3.442   5.385 -1.6210  0.7322 -1.4936
  192SAPI  C21522254   1.381   3.580   5.547  0.3064 -0.3337  0.5821
  192SAPI  H15R22255   1.276   3.551   5.559  0.1902 -0.7906 -1.1842
  192SAPI  C21622256   1.415   3.710   5.615 -0.0624 -0.2443  0.5812
  192SAPI  H16R22257   1.328   3.774   5.591 -1.0002 -0.7697  2.3688
  192SAPI  H16S22258   1.509   3.758   5.581 -0.1003  0.5957  1.6002
  192SAPI  C21722259   1.410   3.691   5.765 -0.4829  0.6783  0.2213
  192SAPI  H17R22260   1.484   3.614   5.796  0.2732  1.6846  0.9771
  192SAPI  H17S22261   1.313   3.651   5.800 -1.3841  1.9888 -0.6855
  192SAPI  C21822262   1.445   3.820   5.839  0.3454  0.2336  0.0959
  192SAPI  H18R22263   1.385   3.892   5.781 -1.8363  0.0802  2.0218
  192SAPI  H18S22264   1.554   3.838   5.828  0.5090 -1.1130 -0.6291
  192SAPI  C21922265   1.404   3.823   5.990 -0.1132 -0.2824  0.2393
  192SAPI  H19R22266   1.330   3.741   5.998 -0.9005 -0.1504 -3.6475
  192SAPI  H19S22267   1.344   3.909   6.024 -0.9134  0.2028 -2.2402
  192SAPI  C22022268   1.521   3.795   6.092  0.2872 -0.4486  0.6218
  192SAPI  H20R22269   1.565   3.695   6.069 -2.7997 -2.2758  2.0987
  192SAPI  H20S22270   1.474   3.781   6.191  0.5224  0.1444  0.8204
  192SAPI  H20T22271   1.596   3.877   6.090  1.1295 -1.2101  0.2275
  192SAPI   C3322272   1.779   4.945   5.214  0.3077 -0.6728  0.3662
  192SAPI   H3X22273   1.682   4.998   5.216  0.9623  0.5456  0.9927
  192SAPI   H3Y22274   1.837   5.013   5.148 -0.2344 -1.8301 -1.3612
  192SAPI   C3422275   1.818   4.929   5.361 -0.6231 -0.3094 -0.0778
  192SAPI   H4X22276   1.819   5.033   5.398 -2.5341  0.5483 -2.2033
  192SAPI   H4Y22277   1.917   4.879   5.368 -0.2316  0.5566  0.6435
  192SAPI   C3522278   1.711   4.845   5.454  0.0310 -0.4508 -0.3310
  192SAPI   H5X22279   1.676   4.755   5.400  0.3503 -0.7978  0.0336
  192SAPI   H5Y22280   1.628   4.917   5.469 -1.4867 -2.2373  0.2031
  192SAPI   C3622281   1.764   4.795   5.589 -0.1910 -0.1678  0.3483
  192SAPI   H6X22282   1.801   4.883   5.645 -0.1444 -0.0397  0.1215
  192SAPI   H6Y22283   1.848   4.723   5.586 -0.1824 -0.1406 -0.9688
  192SAPI   C3722284   1.648   4.749   5.671  0.1735 -0.3841  0.3260
  192SAPI   H7X22285   1.578   4.682   5.616  0.8978  0.0369 -1.1681
  192SAPI   H7Y22286   1.584   4.838   5.693 -0.0876 -0.7589  1.0901
  192SAPI   C3822287   1.693   4.699   5.804 -0.0801 -0.9465  0.6966
  192SAPI   H8X22288   1.778   4.762   5.837  0.2064 -0.9056 -0.0847
  192SAPI   H8Y22289   1.728   4.594   5.801  0.3711 -0.7808 -1.0004
  192SAPI   C3922290   1.579   4.712   5.905 -0.6107 -0.2965 -0.0567
  192SAPI   H9X22291   1.489   4.659   5.866 -0.4116  0.2300 -1.2749
  192SAPI   H9Y22292   1.553   4.820   5.906 -1.3679 -0.4804  0.8862
  192SAPI  C31022293   1.608   4.669   6.054 -0.4147 -0.2244  0.3808
  192SAPI  H10X22294   1.689   4.732   6.096  0.7833 -0.7077 -1.1105
  192SAPI  H10Y22295   1.660   4.572   6.039 -0.7911 -0.3875  0.0959
  192SAPI  C31122296   1.483   4.650   6.147  0.2650 -0.2626 -0.6593
  192SAPI  H11X22297   1.434   4.556   6.113  2.0844 -1.1043 -1.0820
  192SAPI  H11Y22298   1.422   4.742   6.130  0.5320 -0.1484 -0.9894
  192SAPI  C31222299   1.517   4.656   6.293 -0.0941  0.0937 -0.1688
  192SAPI  H12X22300   1.420   4.658   6.348  0.6357 -0.3238  1.1815
  192SAPI  H12Y22301   1.579   4.742   6.328  3.3243 -1.7809 -1.1450
  192SAPI  C31322302   1.603   4.531   6.344  0.3526  0.4954  0.0902
  192SAPI  H13X22303   1.614   4.553   6.453 -1.5907  1.1937  0.1993
  192SAPI  H13Y22304   1.701   4.534   6.293  0.5209 -0.0589  0.3815
  192SAPI  C31422305   1.534   4.406   6.333 -0.2474  0.2117  0.4890
  192SAPI  H14X22306   1.552   4.366   6.231  2.2108  1.0890  0.5232
  192SAPI  H14Y22307   1.424   4.415   6.345 -0.6918 -0.8674 -2.0265
  192SAPI  C31522308   1.592   4.307   6.436  0.0223 -0.0730 -0.8163
  192SAPI  H15X22309   1.625   4.358   6.529 -1.3355 -0.2501 -0.2213
  192SAPI  H15Y22310   1.682   4.260   6.390 -1.3133 -1.8108 -1.7960
  192SAPI  C31622311   1.499   4.184   6.466  0.5438  0.4931  0.2623
  192SAPI  H16X22312   1.399   4.219   6.497  0.1918  0.4342 -0.7591
  192SAPI  H16Y22313   1.543   4.115   6.541 -2.2364  0.3731  1.9025
  192SAPI  C31722314   1.457   4.100   6.340 -0.7702 -1.0071 -0.6405
  192SAPI  H17X22315   1.541   4.070   6.275 -1.9968 -2.9328 -1.3918
  192SAPI  H17Y22316   1.394   4.169   6.280  0.5292 -0.5344 -1.4975
  192SAPI  C31822317   1.369   3.980   6.388  0.0750 -0.3206 -0.5783
  192SAPI  H18X22318   1.421   3.913   6.459 -0.9090  0.9123  1.3765
  192SAPI  H18Y22319   1.340   3.920   6.299 -0.6720 -2.5984  1.1177
  192SAPI  H18Z22320   1.281   4.016   6.445  0.9701 -0.8796  1.2238
  193SOD    SOD22321   2.710   6.254   1.772 -0.5849  0.1113  0.3089
  194SOD    SOD22322   5.538   1.251   1.132  0.1720 -0.1039 -0.0467
  195SOD    SOD22323   6.056   0.630   0.762 -0.0494  0.1810  0.0510
  196SOD    SOD22324   4.022   5.407   4.557  0.1886  0.1706  0.8215
  197SOD    SOD22325   2.111   0.327   4.313 -0.0656  0.3001 -0.1405
  198SOD    SOD22326   4.364   0.359   0.571 -0.0168 -0.0475  0.1831
  199SOD    SOD22327   4.153   2.900   2.446  0.0505  0.0151 -0.1142
  200SOD    SOD22328   5.877   6.029   2.989 -0.5065  0.0965  0.0534
  201SOD    SOD22329   3.203   4.168   0.993  0.0327  0.0930  0.4085
  202SOD    SOD22330   6.350   1.515   0.894  0.2358 -0.5574 -0.2926
  203SOD    SOD22331   6.437   3.042   1.960  0.0985  0.2507 -0.5044
  204SOD    SOD22332   6.196   3.638   3.759 -0.2305  0.4097  0.1314
  205SOD    SOD22333   2.830   3.630   4.429 -0.5748 -0.0434  0.7249
  206SOD    SOD22334   4.876   4.341   2.762  0.6520  0.1929 -0.5634
  207SOD    SOD22335   1.644   5.642   0.669 -0.1023 -0.0697  0.3389
  208SOD    SOD22336   3.752   0.959   1.838 -0.1621 -0.9106  0.5470
  209SOD    SOD22337   1.927   5.152   3.661 -0.0644  0.1974 -0.1873
  210SOD    SOD22338   1.456   1.708   3.884 -0.2050  0.5921  0.0966
  211SOD    SOD22339   5.021   6.536   4.870 -0.4791  0.3368  0.4607
  212SOD    SOD22340   0.510   6.228   3.340 -0.3055 -0.4550  0.0333
  213SOD    SOD22341   3.993   3.507   0.463  0.3311  0.5786  0.0433
  214SOD    SOD22342   2.768   1.013   1.921 -0.1276  0.3405  0.5886
  215SOD    SOD22343   3.310   3.052   4.429  0.6290  0.1293 -0.3226
  216SOD    SOD22344   1.903   0.329   0.442  0.1644 -0.2360 -0.2300
  217SOD    SOD22345   2.192   3.716   4.499  0.1203  0.0681 -0.0875
  218SOD    SOD22346   4.692   2.551   1.138 -0.1638 -0.2561  0.0414
  219SOD    SOD22347   1.337   1.984   0.680  0.2831  0.1812  0.3956
  220SOD    SOD22348   1.419   5.742   4.090  0.6267  0.1444 -0.5370
  221SOD    SOD22349   5.100   6.652   3.612  0.2906 -0.3046 -0.1520
  222SOD    SOD22350   1.951   1.627   3.408  0.2967  0.0897  0.0972
  223SOD    SOD22351   3.994   4.727   0.965  0.0444 -0.4496 -0.1652
  224SOD    SOD22352   0.730   4.611   4.424  0.2463 -0.7371  0.3902
  225SOD    SOD22353   3.434   0.497   3.363 -0.1949 -0.4593 -0.7490
  226SOD    SOD22354   0.893   4.757   0.270  0.4398  0.2171 -0.5194
  227SOD    SOD22355   4.972   0.547   3.839 -0.1775  0.0152 -0.5326
  228SOD    SOD22356   6.605   0.035   2.719  1.0250 -0.2639 -0.3067
  229SOD    SOD22357   4.265   3.805   4.860  0.5411  0.1348  0.0868
  230CLA    CLA22358   0.845   6.601   3.386 -0.4291  0.0870  0.1881
  231CLA    CLA22359   5.261   6.784   3.448  0.3872  0.1077  0.3292
  232CLA    CLA22360   2.184   1.434   2.701  0.6108 -0.0801  0.0470
  233CLA    CLA22361   6.278   6.612   2.700  0.4275  0.1724 -0.0678
  234CLA    CLA22362   3.828   6.323   1.534  0.2128 -0.0003 -0.0374
  235CLA    CLA22363   5.444   4.826   4.145 -0.4068 -0.1255 -0.3502
  236CLA    CLA22364   6.064   2.658   3.417 -0.2630  0.1262  0.1673
  237CLA    CLA22365   4.699   6.827   3.558  0.5979  0.1063 -0.0336
  238CLA    CLA22366   3.991   3.622   0.891 -0.0635  0.3848 -0.3460
  239CLA    CLA22367   0.501   0.538   3.515  0.5375 -0.5110  0.3357
  240CLA    CLA22368   2.558   5.594   0.587 -0.1273  0.4719 -0.3528
  241CLA    CLA22369   2.991   5.647   3.230 -0.2785 -0.3120 -0.2088
  242CLA    CLA22370   3.534   0.650   2.861  0.3080 -0.2645  0.2360
  243CLA    CLA22371   1.010   1.360   0.737 -0.0267  0.0127 -0.3362
  244CLA    CLA22372   6.141   6.042   3.864  0.0111 -0.1344 -0.6032
  245CLA    CLA22373   0.500   5.960   3.279  0.0314  0.1548  0.1529
  246CLA    CLA22374   5.476   0.786   2.288  0.1382  0.0643 -0.1055
  247TIP3   OH222375   3.575   5.412   3.503  0.9249 -0.1686 -0.6463
  247TIP3    H122376   3.503   5.402   3.565 -0.8140 -0.3110 -2.5546
  247TIP3    H222377   3.649   5.442   3.556 -0.3959 -0.4618  1.4804
  248TIP3   OH222378   3.529   3.351   3.792  0.0531 -0.5302 -0.8012
  248TIP3    H122379   3.583   3.299   3.851  1.4632 -1.9365 -3.1788
  248TIP3    H222380   3.440   3.320   3.807  0.2774 -0.4990  0.8543
  249TIP3   OH222381   6.159   3.490   3.959 -0.7364  0.1192 -0.4359
  249TIP3    H122382   6.098   3.422   3.932 -2.5772  1.6398 -0.2907
  249TIP3    H222383   6.128   3.518   4.045  0.6511  0.4238 -0.0001
  250TIP3   OH222384   6.358   1.979   3.631 -0.2076 -0.3753  0.1694
  250TIP3    H122385   6.355   2.011   3.721  0.5449  1.9771 -0.5367
  250TIP3    H222386   6.268   1.987   3.599 -0.6153 -1.8954  0.8964
  251TIP3   OH222387   0.536   3.135   2.527 -0.4182 -0.0663 -0.2116
  251TIP3    H122388   0.622   3.094   2.527 -0.6752 -0.6734  1.4960
  251TIP3    H222389   0.494   3.104   2.607 -1.5829  1.5476 -0.1427
  252TIP3   OH222390   2.199   0.976   2.440  0.0344  0.2331  0.6992
  252TIP3    H122391   2.258   0.961   2.366  0.0213 -0.8622  0.8991
  252TIP3    H222392   2.216   1.067   2.465  2.0665 -0.2055  1.1254
  253TIP3   OH222393   5.258   0.283   3.783  0.0454  0.3879 -0.5816
  253TIP3    H122394   5.248   0.359   3.841  0.1022 -0.2417  0.2728
  253TIP3    H222395   5.225   0.313   3.698 -0.2837  1.2501 -0.1625
  254TIP3   OH222396   6.759   0.549   2.968 -0.0607 -0.3510  0.0722
  254TIP3    H122397   6.726   0.460   2.978 -0.0914 -0.3917 -0.3630
  254TIP3    H222398   6.818   0.544   2.893 -0.2911  0.0610 -0.1390
  255TIP3   OH222399   1.066   4.642   2.272 -0.2923 -0.4544 -0.0782
  255TIP3    H122400   1.151   4.607   2.246  0.4474  0.7073  0.6636
  255TIP3    H222401   1.087   4.714   2.332 -1.8358 -1.1080  1.3382
  256TIP3   OH222402   0.630   1.315   0.518 -0.1442 -0.3265  0.2189
  256TIP3    H122403   0.623   1.356   0.431 -1.1745 -0.0083  0.4425
  256TIP3    H222404   0.718   1.276   0.518  0.2216  0.4364 -0.6302
  257TIP3   OH222405   0.312   1.095   8.789 -0.2799  0.3784 -0.0180
  257TIP3    H122406   0.406   1.088   8.806 -0.5864  0.4345  2.0265
  257TIP3    H222407   0.279   1.005   8.795 -0.3665  0.3605 -0.7018
  258TIP3   OH222408   0.396   2.161   0.968  0.0978 -0.5429  0.4850
  258TIP3    H122409   0.389   2.154   1.063 -1.1832  0.0687  0.4460
  258TIP3    H222410   0.306   2.166   0.937  0.5060 -0.4003 -0.7451
  259TIP3   OH222411   4.293   2.744   0.433  0.2519 -0.2834  0.1117
  259TIP3    H122412   4.308   2.805   0.361 -0.1570  1.2242  1.2429
  259TIP3    H222413   4.274   2.801   0.509 -2.0226 -1.8347  0.8085
  260TIP3   OH222414   1.351   3.104   2.064 -0.1028 -0.7173  0.0479
  260TIP3    H122415   1.279   3.083   2.004 -1.4020  1.6452  0.6461
  260TIP3    H222416   1.412   3.154   2.010 -0.3966 -0.1441  0.2357
  261TIP3   OH222417   5.181   2.072   1.522  0.4799 -0.0448  0.3095
  261TIP3    H122418   5.257   2.126   1.500  1.1365 -0.9655  0.2370
  261TIP3    H222419   5.165   2.020   1.443 -0.5068  0.4512  0.1713
  262TIP3   OH222420   1.409   1.375   1.911 -0.1466 -0.2162  0.8594
  262TIP3    H122421   1.412   1.279   1.915  0.6877 -0.2314  0.2169
  262TIP3    H222422   1.494   1.403   1.944 -0.6771  0.3464  1.7706
  263TIP3   OH222423   2.547   6.361   1.666  0.1975  0.3434  0.9143
  263TIP3    H122424   2.466   6.372   1.716  0.7196  0.5370  1.7200
  263TIP3    H222425   2.530   6.409   1.584 -0.6281  0.0871  0.9213
  264TIP3   OH222426   0.441   0.422   1.894 -0.6174  0.2069 -0.0766
  264TIP3    H122427   0.425   0.385   1.981  0.1869 -0.1658 -0.0777
  264TIP3    H222428   0.417   0.352   1.834  2.6059 -1.1302 -0.0515
  265TIP3   OH222429   3.469   3.676   1.312  0.0301 -0.3440 -0.0689
  265TIP3    H122430   3.509   3.604   1.265  2.0453 -0.4170  1.6096
  265TIP3    H222431   3.435   3.636   1.392  1.4691  0.5591  1.0417
  266TIP3   OH222432   4.878   6.183   3.915  0.0338 -0.4962  0.0510
  266TIP3    H122433   4.965   6.222   3.905  0.5858 -1.7316 -0.1351
  266TIP3    H222434   4.820   6.258   3.925  1.1951  0.3482  0.8182
  267TIP3   OH222435   6.563   3.516   0.188  0.2698 -0.0353 -0.0623
  267TIP3    H122436   6.577   3.537   0.096  0.5294 -0.5872 -0.1560
  267TIP3    H222437   6.525   3.595   0.226 -1.0945 -0.2310 -0.9303
  268TIP3   OH222438   1.613   1.401   3.265 -0.0818  0.0551  0.5418
  268TIP3    H122439   1.529   1.356   3.267  0.8128 -1.7074  0.1202
  268TIP3    H222440   1.648   1.383   3.178  0.3715  1.5197  0.3898
  269TIP3   OH222441   3.515   4.080   0.198  0.0093 -0.3096  0.1974
  269TIP3    H122442   3.557   4.016   0.140  1.3723  0.1853  0.6201
  269TIP3    H222443   3.422   4.075   0.175  0.4532 -0.4249 -1.7421
  270TIP3   OH222444   2.490   3.264   0.955  0.0533  0.1625 -0.1051
  270TIP3    H122445   2.438   3.343   0.945  0.3146  0.1136 -2.3439
  270TIP3    H222446   2.426   3.193   0.949 -0.3392  0.1082  2.9590
  271TIP3   OH222447   1.146   3.906   3.633 -0.1445 -0.3878 -0.4175
  271TIP3    H122448   1.131   3.964   3.557 -1.7306  0.8164  0.7305
  271TIP3    H222449   1.066   3.915   3.685  0.8060 -1.3570  1.2940
  272TIP3   OH222450   0.517   4.790   1.826 -0.2767  0.0010  0.4080
  272TIP3    H122451   0.578   4.798   1.753  0.8705  1.0908  1.4413
  272TIP3    H222452   0.557   4.841   1.897 -2.3850  0.7182  1.1362
  273TIP3   OH222453   6.755   5.683   2.521 -0.0201  0.2160  0.0712
  273TIP3    H122454   6.804   5.603   2.540 -1.2667 -0.9619 -1.3746
  273TIP3    H222455   6.749   5.685   2.425 -2.7962  0.2522  0.1690
  274TIP3   OH222456   6.758   5.943   4.495  0.4309  0.0344 -0.3406
  274TIP3    H122457   6.791   5.853   4.487 -2.9531 -1.3743  0.0209
  274TIP3    H222458   6.752   5.974   4.405 -0.3657 -0.9277 -0.6354
  275TIP3   OH222459   0.332   3.176   3.517 -0.1874 -0.0134  0.0467
  275TIP3    H122460   0.347   3.229   3.439  0.2901  0.3133  0.3492
  275TIP3    H222461   0.237   3.175   3.528 -0.2755 -0.3436 -0.7228
  276TIP3   OH222462   6.692   3.970   3.604  0.6330  0.0694 -0.1435
  276TIP3    H122463   6.647   4.034   3.548  0.4493 -1.3740 -1.7412
  276TIP3    H222464   6.651   3.886   3.581  1.2907 -0.7204  1.4318
  277TIP3   OH222465   1.273   3.752   0.339 -0.0817  0.0957 -0.2656
  277TIP3    H122466   1.324   3.682   0.297 -0.8975 -0.7473  0.1079
  277TIP3    H222467   1.272   3.823   0.275  2.2170  0.4573  0.0429
  278TIP3   OH222468   4.319   1.728   0.641 -0.1695 -0.1993  0.3779
  278TIP3    H122469   4.379   1.796   0.671 -1.5151  1.3888 -0.3351
  278TIP3    H222470   4.248   1.729   0.706 -1.7377  1.3359 -1.2525
  279TIP3   OH222471   5.520   1.918   2.012  0.1698  0.7321 -0.5287
  279TIP3    H122472   5.450   1.907   2.076  1.9736  0.2053  1.4654
  279TIP3    H222473   5.513   1.842   1.954  0.0779 -0.1687  0.6424
  280TIP3   OH222474   4.080   2.371   0.222  0.0826  0.2705 -0.1967
  280TIP3    H122475   4.080   2.281   0.188 -0.3018 -0.1979  0.9955
  280TIP3    H222476   4.035   2.422   0.155  0.7543 -0.3210 -1.1305
  281TIP3   OH222477   4.741   2.774   0.527 -0.0483 -0.3824  0.6129
  281TIP3    H122478   4.726   2.827   0.449  0.5964 -0.7982  0.2075
  281TIP3    H222479   4.835   2.760   0.529 -0.0853 -0.5562  1.3501
  282TIP3   OH222480   2.744   4.703   1.747  0.6211 -0.0213 -0.3191
  282TIP3    H122481   2.707   4.618   1.771  0.6148 -0.5792 -2.1824
  282TIP3    H222482   2.833   4.683   1.717  0.7037  0.6692 -0.5612
  283TIP3   OH222483   0.519   4.122   2.730  0.4064 -0.2963  0.0081
  283TIP3    H122484   0.595   4.179   2.719 -0.2207  0.6894  0.6133
  283TIP3    H222485   0.551   4.050   2.785  1.1233 -0.3595 -0.4863
  284TIP3   OH222486   3.772   5.536   0.634  0.0207  0.0303 -0.0257
  284TIP3    H122487   3.720   5.469   0.677  0.8467 -0.0967  0.8035
  284TIP3    H222488   3.847   5.488   0.597 -0.5817  0.1558 -1.4952
  285TIP3   OH222489   5.337   0.282   1.384  0.5708 -0.1510  0.2474
  285TIP3    H122490   5.271   0.215   1.399  0.6162 -0.1676  0.3670
  285TIP3    H222491   5.286   0.361   1.366  0.5176 -0.2345  0.0293
  286TIP3   OH222492   0.939   6.098   2.403  0.5624 -0.0789  0.0217
  286TIP3    H122493   0.913   6.061   2.319  0.6295  0.3323 -0.1818
  286TIP3    H222494   0.863   6.083   2.460  0.7219 -0.8370  0.0428
  287TIP3   OH222495   6.717   4.593   3.065  0.2542 -0.6836  0.6648
  287TIP3    H122496   6.648   4.618   3.127  0.1133 -0.7722  0.5436
  287TIP3    H222497   6.728   4.499   3.079  0.3889 -0.6593  0.7224
  288TIP3   OH222498   1.068   5.374   0.676  0.2994 -0.3226 -0.5199
  288TIP3    H122499   1.031   5.461   0.661  1.8146  0.4180 -0.2244
  288TIP3    H222500   1.043   5.352   0.765  0.5881  0.1949 -0.3035
  289TIP3   OH222501   6.641   6.365   1.378  0.1992  0.5565  0.1364
  289TIP3    H122502   6.639   6.353   1.283 -2.0493  1.8198 -0.0525
  289TIP3    H222503   6.571   6.308   1.410 -1.4589  2.7275  0.5972
  290TIP3   OH222504   5.138   5.351   0.694  0.5112 -0.7100 -0.2322
  290TIP3    H122505   5.146   5.416   0.624  0.0994 -0.5158 -0.1017
  290TIP3    H222506   5.043   5.341   0.707  0.5834  0.0482  1.0377
  291TIP3   OH222507   1.582   2.868   1.055  0.3679  0.9512 -0.6518
  291TIP3    H122508   1.567   2.962   1.065 -0.5612  0.8037 -0.4910
  291TIP3    H222509   1.576   2.853   0.960  1.8537  1.2444 -0.8102
  292TIP3   OH222510   0.106   2.712   1.257  0.5260 -0.0519 -0.3220
  292TIP3    H122511   0.089   2.806   1.251  2.0436  0.2500 -0.3057
  292TIP3    H222512   0.185   2.699   1.206  0.8039 -1.1785  0.3654
  293TIP3   OH222513   1.117   1.497   1.229 -0.1327  0.1260 -0.4315
  293TIP3    H122514   1.026   1.504   1.261 -0.3067  0.9738 -1.0644
  293TIP3    H222515   1.110   1.450   1.146 -0.0106  0.2862 -0.5337
  294TIP3   OH222516   2.199   5.123   0.072  0.4329  0.0732  0.7469
  294TIP3    H122517   2.183   5.132   0.166  0.1320 -0.9130  0.8102
  294TIP3    H222518   2.225   5.031   0.062  0.2144  0.1052 -0.1701
  295TIP3   OH222519   0.030   3.833   3.915 -0.2275 -0.3421 -0.0866
  295TIP3    H122520  -0.065   3.841   3.919 -0.1549  0.4678  0.0667
  295TIP3    H222521   0.046   3.770   3.844 -0.9120 -1.5365  0.7837
  296TIP3   OH222522   3.681   2.149   2.584 -0.3338  0.8784 -0.1426
  296TIP3    H122523   3.732   2.160   2.503  1.0723  1.2597  0.7584
  296TIP3    H222524   3.606   2.207   2.573  1.0433  2.7254 -0.2482
  297TIP3   OH222525   2.828   3.352   0.255 -0.3480  0.6705 -0.4168
  297TIP3    H122526   2.898   3.287   0.244  0.5479  1.6632 -0.7281
  297TIP3    H222527   2.777   3.319   0.329  2.6659  1.7695  2.3785
  298TIP3   OH222528   4.057   6.456   1.951 -0.5732  0.4422 -0.9997
  298TIP3    H122529   3.988   6.522   1.955 -1.2449 -0.2486 -0.9568
  298TIP3    H222530   4.032   6.390   2.015 -0.0796 -0.0182 -1.2646
  299TIP3   OH222531   3.895   4.667   2.405  0.0538  0.5801 -0.9047
  299TIP3    H122532   3.870   4.750   2.446 -1.8864 -0.3232 -0.1639
  299TIP3    H222533   3.988   4.656   2.428 -0.3003  1.3748  1.0756
  300TIP3   OH222534   5.083   5.152   2.457 -0.0753 -0.1937  0.8404
  300TIP3    H122535   5.027   5.204   2.514 -1.2388 -0.5143  0.0250
  300TIP3    H222536   5.023   5.097   2.407  0.9391 -0.3034 -0.3184
  301TIP3   OH222537   2.911   6.108   4.066  0.6265  0.4503 -0.0193
  301TIP3    H122538   2.856   6.124   4.142  0.8756  0.0067  0.2606
  301TIP3    H222539   2.906   6.189   4.014 -0.7400  0.1989 -0.2986
  302TIP3   OH222540   3.117   4.042   1.735  0.7298  0.9401 -0.0535
  302TIP3    H122541   3.128   4.120   1.681  2.9014  0.6142 -0.1913
  302TIP3    H222542   3.188   4.047   1.799 -1.0037  0.6528  2.0005
  303TIP3   OH222543   0.132   0.270   0.695 -0.4143 -0.5422 -0.0157
  303TIP3    H122544   0.039   0.268   0.717 -0.2481 -2.8370  0.7597
  303TIP3    H222545   0.175   0.295   0.777 -0.3343  0.4357 -0.3516
  304TIP3   OH222546   0.583   6.228   2.076  0.2213 -0.4414  0.1674
  304TIP3    H122547   0.598   6.172   2.000 -0.3267 -0.3016 -0.0465
  304TIP3    H222548   0.649   6.298   2.068  2.6840 -2.3842  1.8044
  305TIP3   OH222549   6.656   1.974   1.581  0.2970  0.3224 -0.4111
  305TIP3    H122550   6.624   2.063   1.597  1.7175  0.7377  0.2643
  305TIP3    H222551   6.719   1.959   1.652  0.0785 -1.2217 -0.5245
  306TIP3   OH222552   5.059   6.292   0.350  0.5710 -0.4678 -0.1256
  306TIP3    H122553   5.061   6.263   0.258  1.5108  0.1653 -0.3092
  306TIP3    H222554   5.079   6.385   0.346 -0.4528 -0.2000  0.6447
  307TIP3   OH222555   6.345   2.782   2.999  0.1487  0.4398 -0.2588
  307TIP3    H122556   6.283   2.849   2.969 -1.4334 -0.6283  0.4719
  307TIP3    H222557   6.412   2.831   3.046  0.7578  1.7931 -2.3850
  308TIP3   OH222558   0.547   0.111   3.338  0.1272 -0.6210 -0.3568
  308TIP3    H122559   0.474   0.056   3.309  0.1279  0.7563 -3.4048
  308TIP3    H222560   0.615   0.097   3.272  0.9865  1.2818  0.0671
  309TIP3   OH222561   1.988   5.395   0.804  0.3441  0.4645 -0.4785
  309TIP3    H122562   1.974   5.401   0.898  0.5337  1.1183 -0.4881
  309TIP3    H222563   2.081   5.416   0.792  0.3117  0.4251 -0.8123
  310TIP3   OH222564   3.499   5.687   3.216  0.3052 -0.3829 -0.2031
  310TIP3    H122565   3.418   5.727   3.247  0.9113  0.0475  0.8645
  310TIP3    H222566   3.470   5.624   3.149 -0.7390  1.2050 -1.3301
  311TIP3   OH222567   5.630   4.715   1.796  0.1002  0.1315 -0.6570
  311TIP3    H122568   5.567   4.785   1.775  1.2101  0.5099 -3.0948
  311TIP3    H222569   5.630   4.660   1.718  1.2993 -1.0170  0.1237
  312TIP3   OH222570   6.570   4.979   2.514  0.2067  0.3428 -0.0912
  312TIP3    H122571   6.634   5.026   2.461 -0.1213 -0.3698 -1.1432
  312TIP3    H222572   6.608   4.893   2.529 -0.0774  0.2479  0.1125
  313TIP3   OH222573   0.040   0.925   2.761 -0.8002 -0.1240 -0.6122
  313TIP3    H122574   0.001   0.988   2.701 -1.1823 -0.3729 -0.6253
  313TIP3    H222575   0.002   0.946   2.846 -0.0708  0.3912 -0.3970
  314TIP3   OH222576   5.411   6.470   0.518 -0.7358  0.2190 -0.5904
  314TIP3    H122577   5.334   6.469   0.460 -0.0177  1.0793 -1.5928
  314TIP3    H222578   5.465   6.542   0.485  1.8992 -2.1096 -1.7584
  315TIP3   OH222579   2.819   4.699   2.356  0.3852 -0.3039 -0.0979
  315TIP3    H122580   2.891   4.740   2.308  1.5075 -1.8784  0.1534
  315TIP3    H222581   2.749   4.689   2.292  1.1540 -0.6018 -0.9119
  316TIP3   OH222582   4.436   4.897   4.076  0.1830  0.2489 -0.7869
  316TIP3    H122583   4.488   4.964   4.032  2.2565 -1.1218 -0.5486
  316TIP3    H222584   4.472   4.892   4.164  0.3592 -1.4072 -0.9150
  317TIP3   OH222585   0.041   5.588   3.192 -0.2428 -0.4359  0.1213
  317TIP3    H122586  -0.006   5.537   3.125  1.0759 -0.1222 -1.0925
  317TIP3    H222587   0.050   5.675   3.154  0.5146 -0.2446  0.7225
  318TIP3   OH222588   5.245   4.066   4.458  0.0571 -0.3938  0.5067
  318TIP3    H122589   5.203   4.098   4.378  2.3367  1.1034 -0.1686
  318TIP3    H222590   5.329   4.031   4.429 -0.0182 -1.9525  1.9886
  319TIP3   OH222591   1.732   3.866   4.063  0.4225 -0.2043  0.6623
  319TIP3    H122592   1.806   3.818   4.100 -0.4513 -1.4208  0.9212
  319TIP3    H222593   1.672   3.878   4.137 -0.3797 -0.7468  0.1271
  320TIP3   OH222594   1.556   1.098   0.364  0.2989 -0.0985  0.1277
  320TIP3    H122595   1.520   1.170   0.312 -3.2257 -0.5287  1.6943
  320TIP3    H222596   1.597   1.141   0.439  3.3227  0.3839 -1.5863
  321TIP3   OH222597   4.769   0.605   0.854 -0.3315 -0.0511 -0.3189
  321TIP3    H122598   4.678   0.577   0.867 -0.2590  0.0548  0.4971
  321TIP3    H222599   4.781   0.675   0.918  0.5592 -0.6060  0.1515
  322TIP3   OH222600   5.970   5.526   2.146 -0.5215  0.2372 -0.2314
  322TIP3    H122601   5.931   5.570   2.222 -0.3754  1.9322 -1.0790
  322TIP3    H222602   6.010   5.597   2.096  1.8236 -1.1647 -0.4824
  323TIP3   OH222603   5.726   0.965   3.767  0.0696 -0.8720  0.6702
  323TIP3    H122604   5.636   0.976   3.736  0.9353 -1.6601 -2.5511
  323TIP3    H222605   5.773   1.041   3.733  1.3875 -2.5241 -1.4597
  324TIP3   OH222606   6.412   2.320   3.032 -0.2261  0.3497 -0.0684
  324TIP3    H122607   6.345   2.257   3.060 -0.4901  0.5184 -0.3182
  324TIP3    H222608   6.466   2.270   2.971  0.7145 -0.2014  1.1668
  325TIP3   OH222609   1.518   2.818   4.241  0.0814  0.1958 -0.6215
  325TIP3    H122610   1.548   2.845   4.155  1.1601  0.0329 -0.3018
  325TIP3    H222611   1.550   2.886   4.300  0.4457 -0.3541 -0.1785
  326TIP3   OH222612   2.228   6.603   0.925  0.5314  0.1376 -0.5096
  326TIP3    H122613   2.220   6.651   0.843  1.8339 -0.3956 -0.9850
  326TIP3    H222614   2.305   6.641   0.967  1.8865 -1.7944 -1.1260
  327TIP3   OH222615   0.638   3.750   8.467  0.3017 -0.4314 -0.3686
  327TIP3    H122616   0.598   3.734   8.553 -1.9903  0.2335 -1.2551
  327TIP3    H222617   0.673   3.839   8.473  1.8043 -1.0364  0.4290
  328TIP3   OH222618   3.729   6.194   0.334 -0.3023  0.9014  0.4950
  328TIP3    H122619   3.779   6.276   0.329  1.4455 -0.1649 -0.7516
  328TIP3    H222620   3.725   6.163   0.244 -0.0089 -0.8785  1.0550
  329TIP3   OH222621   1.371   4.720   0.904  0.1331 -0.1327  0.1729
  329TIP3    H122622   1.280   4.747   0.889  0.5578 -0.2448 -3.4455
  329TIP3    H222623   1.364   4.627   0.926 -0.6099 -0.5176 -1.5269
  330TIP3   OH222624   4.871   3.278   0.685 -0.2913 -0.0274 -0.2569
  330TIP3    H122625   4.931   3.206   0.704  0.5742  0.5165 -0.8393
  330TIP3    H222626   4.928   3.354   0.672 -1.1884  0.8191  0.5518
  331TIP3   OH222627   3.662   3.076   1.940  0.1807 -0.8995  0.4083
  331TIP3    H122628   3.606   2.998   1.943  0.6993 -1.5630 -2.9043
  331TIP3    H222629   3.744   3.044   1.902  1.3874  0.7936  1.5140
  332TIP3   OH222630   4.048   3.167   3.727 -0.1262 -0.2759 -0.3758
  332TIP3    H122631   4.042   3.245   3.672 -0.1339 -1.9955 -2.9938
  332TIP3    H222632   4.104   3.193   3.801 -1.1653  2.5068 -0.4714
  333TIP3   OH222633   6.257   4.365   0.997 -0.1547  0.4646 -0.2629
  333TIP3    H122634   6.305   4.285   0.974 -0.3107  0.3040 -0.0371
  333TIP3    H222635   6.170   4.353   0.958  0.0358  0.8302 -0.8148
  334TIP3   OH222636   0.121   1.105   4.760 -0.0306  0.2051 -0.6583
  334TIP3    H122637   0.120   1.112   4.665 -2.3321 -0.6670 -0.7372
  334TIP3    H222638   0.208   1.069   4.780  0.1749 -0.4073 -2.4624
  335TIP3   OH222639   2.872   4.363   2.787  0.5806  0.1975 -0.1014
  335TIP3    H122640   2.868   4.457   2.807  0.7706  0.3349 -0.6643
  335TIP3    H222641   2.780   4.335   2.787  0.5579  0.2614  0.5996
  336TIP3   OH222642   0.851   5.273   1.955 -0.0988 -1.1046 -0.1302
  336TIP3    H122643   0.937   5.263   1.914  0.8899  0.5020  1.3879
  336TIP3    H222644   0.798   5.318   1.889  1.5251  1.6775  0.2678
  337TIP3   OH222645   4.170   2.376   2.147 -0.1572  0.2428  0.2070
  337TIP3    H122646   4.099   2.415   2.196 -0.0625 -0.5842  1.0183
  337TIP3    H222647   4.249   2.401   2.195  0.0080  0.1653 -0.0223
  338TIP3   OH222648   1.172   4.017   1.643  0.0954  0.2830  0.1167
  338TIP3    H122649   1.266   4.012   1.630 -0.2476 -0.9587 -2.7027
  338TIP3    H222650   1.156   4.108   1.668  2.0706  0.3208  1.4154
  339TIP3   OH222651   5.196   1.617   4.305  0.4645 -0.4467 -0.3248
  339TIP3    H122652   5.168   1.632   4.395 -2.2019 -3.0185 -0.5692
  339TIP3    H222653   5.252   1.540   4.310  0.6031 -0.3832 -0.8263
  340TIP3   OH222654   6.330   2.713   1.808 -0.0529 -0.2603 -0.1995
  340TIP3    H122655   6.285   2.711   1.893  0.0968 -0.9449 -0.1294
  340TIP3    H222656   6.337   2.621   1.782  1.1709 -0.1653 -0.2765
  341TIP3   OH222657   5.053   6.138   3.093 -0.5275 -0.2427  0.1082
  341TIP3    H122658   5.096   6.136   3.007 -1.1505  0.1294 -0.2163
  341TIP3    H222659   4.977   6.080   3.084 -2.0403  1.7309 -0.3916
  342TIP3   OH222660   4.269   0.782   3.507 -0.1839  0.7638 -0.1733
  342TIP3    H122661   4.361   0.789   3.530 -0.3819 -0.6667  1.3299
  342TIP3    H222662   4.268   0.734   3.424  0.4191  0.8709 -0.2438
  343TIP3   OH222663   4.611   2.070   5.199  0.9558 -0.4303  0.0991
  343TIP3    H122664   4.528   2.028   5.220  1.4372 -1.3335  0.2865
  343TIP3    H222665   4.594   2.121   5.120  0.0410  0.0247  0.5790
  344TIP3   OH222666   3.235   3.795   1.680  0.8414  0.1169  0.2309
  344TIP3    H122667   3.209   3.886   1.669 -0.5824 -0.2705  0.1724
  344TIP3    H222668   3.199   3.769   1.764  1.3099 -0.3679  0.2896
  345TIP3   OH222669   0.588   3.636   2.828  0.0596  0.0758 -0.0364
  345TIP3    H122670   0.650   3.651   2.757  0.1233  0.2328  0.0532
  345TIP3    H222671   0.618   3.555   2.869  2.1443  1.7647  2.0450
  346TIP3   OH222672   2.322   0.324   1.819 -0.3561  0.3384 -0.8594
  346TIP3    H122673   2.367   0.269   1.755  0.1654 -0.1436 -0.1031
  346TIP3    H222674   2.245   0.274   1.844 -1.0623  0.9359 -1.7728
  347TIP3   OH222675   6.411   4.978   4.630 -0.6730 -0.3583 -0.0322
  347TIP3    H122676   6.434   4.887   4.651 -2.3617 -0.6564  0.7251
  347TIP3    H222677   6.315   4.980   4.638 -0.5932  1.7120  0.8982
  348TIP3   OH222678   5.012   0.029   4.144  0.0983 -0.0747 -0.4185
  348TIP3    H122679   4.993   0.082   4.221 -0.3804  2.4007 -2.1448
  348TIP3    H222680   5.103   0.050   4.122  0.1286 -0.5091 -0.7222
  349TIP3   OH222681   5.936   2.069   0.533  0.2639 -0.5989  0.0158
  349TIP3    H122682   6.021   2.028   0.520  0.3607 -0.3732 -0.0532
  349TIP3    H222683   5.873   2.000   0.512  0.4223 -0.5633 -0.5900
  350TIP3   OH222684   1.266   4.706   2.938 -0.4166 -0.2851  0.5402
  350TIP3    H122685   1.246   4.624   2.983 -1.7162 -0.3164 -0.0702
  350TIP3    H222686   1.340   4.742   2.987  1.0145 -2.4020  0.0829
  351TIP3   OH222687   6.510   0.395   0.951 -0.3384 -0.4370  0.0431
  351TIP3    H122688   6.583   0.363   1.005  0.1034 -0.1646 -0.3876
  351TIP3    H222689   6.544   0.394   0.862 -0.0198  1.9526  0.0699
  352TIP3   OH222690   5.863   4.065   3.331  0.2047 -0.1543 -0.6203
  352TIP3    H122691   5.890   4.149   3.295 -1.1789  0.9641  0.7971
  352TIP3    H222692   5.934   4.039   3.390  0.3791  0.2998 -0.6298
  353TIP3   OH222693   3.173   3.487   3.061  0.3139 -0.1240  0.2414
  353TIP3    H122694   3.257   3.453   3.029  1.5783  2.0558  0.9659
  353TIP3    H222695   3.166   3.454   3.150  0.8731  0.4127  0.4912
  354TIP3   OH222696   3.114   5.714   3.931  0.2750 -0.2324 -0.5616
  354TIP3    H122697   3.209   5.706   3.928  0.5123 -0.0630  2.5779
  354TIP3    H222698   3.095   5.803   3.902  1.2437  0.2424  0.2206
  355TIP3   OH222699   3.405   4.093   4.798 -1.0678 -0.1140  0.1807
  355TIP3    H122700   3.336   4.115   4.860  0.4155 -0.4470  2.0552
  355TIP3    H222701   3.439   4.177   4.769 -1.2228  0.0639  0.5080
  356TIP3   OH222702   6.132   2.701   1.207 -0.1062  0.7392  0.0835
  356TIP3    H122703   6.102   2.685   1.117  0.5455  0.4230 -0.0826
  356TIP3    H222704   6.105   2.791   1.226 -2.1774  0.1228  0.3468
  357TIP3   OH222705   0.119   5.471   2.292 -0.6729 -0.2735  0.0342
  357TIP3    H122706   0.063   5.549   2.289 -0.0404  0.2759  1.6726
  357TIP3    H222707   0.063   5.403   2.331 -0.5576 -0.0545  0.5765
  358TIP3   OH222708   1.243   4.574   3.713 -0.1206  0.4526  0.6482
  358TIP3    H122709   1.322   4.559   3.765  0.3277  0.5378  0.0143
  358TIP3    H222710   1.275   4.581   3.623 -1.0362 -1.2432  0.1449
  359TIP3   OH222711   0.356   5.632   4.927 -0.6956  0.1184  0.1670
  359TIP3    H122712   0.327   5.554   4.881 -1.3701  0.5754 -0.1985
  359TIP3    H222713   0.380   5.601   5.014 -2.4682 -0.2813  0.5584
  360TIP3   OH222714   2.664   6.000   0.707  0.6835 -0.3228  0.1856
  360TIP3    H122715   2.750   6.028   0.674 -0.4136  1.2265 -1.5618
  360TIP3    H222716   2.605   6.013   0.633 -1.0923 -1.2462  1.3793
  361TIP3   OH222717   5.330   3.808   3.413  0.0529  0.2398 -0.2721
  361TIP3    H122718   5.415   3.783   3.375 -0.0730  0.4813 -0.7141
  361TIP3    H222719   5.351   3.833   3.503  0.3483 -0.3843 -0.1570
  362TIP3   OH222720   2.947   6.193   2.389  0.1241 -0.2568  0.6649
  362TIP3    H122721   2.895   6.139   2.449  0.4498 -1.6224 -0.2455
  362TIP3    H222722   3.027   6.143   2.375  0.0547  0.0373 -0.9141
  363TIP3   OH222723   0.453   3.654   8.256  0.5279  0.1225  0.1359
  363TIP3    H122724   0.509   3.680   8.328 -0.4869  0.5180  0.8145
  363TIP3    H222725   0.380   3.717   8.259 -0.0126 -0.4517 -0.6152
  364TIP3   OH222726   0.230   0.067   2.028  0.0992  0.5836  0.2414
  364TIP3    H122727   0.252   0.142   2.083  1.3272  0.6406 -0.3080
  364TIP3    H222728   0.200   0.106   1.946  1.3172  0.4988 -0.2665
  365TIP3   OH222729   0.918   1.886   1.417 -0.0415  0.5117 -0.2739
  365TIP3    H122730   1.004   1.848   1.399  0.3638  1.1405  0.2903
  365TIP3    H222731   0.881   1.832   1.487 -0.4933 -0.2975 -1.1104
  366TIP3   OH222732   0.095   0.502   1.796  0.3452  0.0063 -0.0365
  366TIP3    H122733   0.008   0.535   1.817  0.4896  1.5172 -1.5543
  366TIP3    H222734   0.152   0.541   1.862  0.0646  0.1887  0.1005
  367TIP3   OH222735   4.986   3.364   1.037 -0.2864 -0.8730  0.3204
  367TIP3    H122736   4.960   3.359   0.945  0.0312  2.1010 -0.0199
  367TIP3    H222737   4.905   3.384   1.084  0.1823  1.7597  0.1047
  368TIP3   OH222738   2.571   1.432   3.321 -0.3992  0.1956  0.2126
  368TIP3    H122739   2.537   1.344   3.338 -0.3938  0.2233  0.3632
  368TIP3    H222740   2.662   1.429   3.351  0.2127 -0.3317 -1.5501
  369TIP3   OH222741   3.400   4.890   1.834 -0.1168 -0.2472 -0.3999
  369TIP3    H122742   3.482   4.840   1.839 -1.6920 -3.0790 -1.1475
  369TIP3    H222743   3.369   4.876   1.745 -2.2622 -0.7135  0.3736
  370TIP3   OH222744   0.419   4.240   3.790 -0.0878 -0.3249  0.3152
  370TIP3    H122745   0.452   4.313   3.737 -0.1610  0.9333  1.9456
  370TIP3    H222746   0.344   4.208   3.740  0.4650  0.1422 -0.8620
  371TIP3   OH222747   1.117   5.730   4.445 -0.0348 -0.0902 -0.1292
  371TIP3    H122748   1.127   5.649   4.496 -1.8523 -0.1193  0.2592
  371TIP3    H222749   1.130   5.800   4.509  4.5212  0.1317 -1.0001
  372TIP3   OH222750   2.171   0.755   3.414 -0.2206  0.6368 -0.1097
  372TIP3    H122751   2.258   0.782   3.387 -0.0969 -0.0358 -0.3904
  372TIP3    H222752   2.174   0.755   3.509  0.2133  0.2279 -0.1183
  373TIP3   OH222753   1.736   1.072   4.184  0.4584  0.2012  0.4224
  373TIP3    H122754   1.816   1.037   4.146  1.2529  0.1591  2.0540
  373TIP3    H222755   1.692   0.996   4.223 -0.1653  0.2913 -0.0862
  374TIP3   OH222756   3.717   0.697   0.879  0.1921  0.4688  0.0536
  374TIP3    H122757   3.742   0.640   0.806 -1.5467 -2.2388  1.3824
  374TIP3    H222758   3.800   0.717   0.924  1.1497  1.2793 -1.9820
  375TIP3   OH222759   3.351   2.021   2.399 -0.3145 -0.0221 -0.1153
  375TIP3    H122760   3.365   1.987   2.310 -1.2547 -0.7723  0.0042
  375TIP3    H222761   3.419   1.980   2.452  2.0376  2.5099 -0.9162
  376TIP3   OH222762   6.792   2.743   0.027 -0.2500  0.9963  0.0232
  376TIP3    H122763   6.747   2.659   0.016 -1.0523  1.7340 -3.0307
  376TIP3    H222764   6.731   2.797   0.077 -1.9347  1.2598 -2.1783
  377TIP3   OH222765   4.434   0.121   4.090 -0.2031 -0.3324 -0.4860
  377TIP3    H122766   4.364   0.073   4.136 -0.5947  0.3552 -0.3448
  377TIP3    H222767   4.515   0.080   4.121 -0.5460 -2.4491 -2.0944
  378TIP3   OH222768   3.395   1.451   5.012  0.8554  1.1105  0.3885
  378TIP3    H122769   3.453   1.526   4.999  1.8266  0.4546  0.7569
  378TIP3    H222770   3.445   1.392   5.069  0.0060  0.3179  0.3359
  379TIP3   OH222771   2.102   5.826   4.585  0.0378 -0.2571 -0.1460
  379TIP3    H122772   2.007   5.831   4.590  0.0342  0.8839 -0.9637
  379TIP3    H222773   2.120   5.764   4.514 -0.0785 -1.0097  0.4727
  380TIP3   OH222774   3.385   2.588   3.821  0.4844 -0.0308 -0.4189
  380TIP3    H122775   3.346   2.512   3.865  1.4913 -0.4941 -0.3090
  380TIP3    H222776   3.345   2.664   3.865 -0.6187 -0.4840 -0.6126
  381TIP3   OH222777   4.578   1.214   2.577 -0.0243  0.4954  0.0673
  381TIP3    H122778   4.485   1.209   2.597 -0.4284 -1.3587 -1.9540
  381TIP3    H222779   4.607   1.123   2.568  1.8105  1.0410 -0.0617
  382TIP3   OH222780   4.070   6.394   2.351  0.0639 -0.2458 -0.0127
  382TIP3    H122781   3.974   6.384   2.352 -0.2807  1.9767  2.4307
  382TIP3    H222782   4.103   6.311   2.384 -1.2036 -0.2800  1.2901
  383TIP3   OH222783   3.088   3.463   1.439 -0.4657 -0.3543 -0.0137
  383TIP3    H122784   3.044   3.543   1.414  1.3344  0.5864 -0.3672
  383TIP3    H222785   3.111   3.421   1.356 -1.4515 -1.3033  0.1662
  384TIP3   OH222786   0.509   3.979   2.281 -0.1551  0.5520  0.4087
  384TIP3    H122787   0.526   3.973   2.187 -1.4844 -2.2236  0.2327
  384TIP3    H222788   0.413   3.977   2.288 -0.0763  0.4707  1.8187
  385TIP3   OH222789   6.809   0.697   0.681  0.3109 -0.0415 -0.4164
  385TIP3    H122790   6.820   0.631   0.749 -2.8963 -0.0933  0.2214
  385TIP3    H222791   6.810   0.647   0.599  1.4387 -0.3638 -0.2155
  386TIP3   OH222792   3.986   3.449   4.267  0.4418 -0.2776  0.5168
  386TIP3    H122793   3.999   3.448   4.362 -0.2672  0.4764  0.6255
  386TIP3    H222794   4.062   3.402   4.232 -0.0675 -1.9419  1.5405
  387TIP3   OH222795   4.515   1.892   2.427  0.0629  0.3503  0.2752
  387TIP3    H122796   4.507   1.841   2.347  0.2256  0.5741  0.1161
  387TIP3    H222797   4.558   1.973   2.400  0.5902  0.2082  0.6843
  388TIP3   OH222798   0.791   5.668   2.117  0.2578  0.3518 -0.4242
  388TIP3    H122799   0.823   5.709   2.197  0.2713  0.6748 -0.5945
  388TIP3    H222800   0.775   5.577   2.142  0.1961  0.4663 -0.0391
  389TIP3   OH222801   0.469   6.044   2.718  0.4095  0.3596 -0.5011
  389TIP3    H122802   0.466   5.967   2.661 -0.4606  0.7620 -1.0235
  389TIP3    H222803   0.426   6.015   2.798  0.4839  0.1693 -0.5280
  390TIP3   OH222804   0.452   3.920   0.624  0.4446  0.4667  0.1042
  390TIP3    H122805   0.452   3.942   0.531  0.0558  1.7971  0.3984
  390TIP3    H222806   0.441   4.004   0.669  2.7342  0.1252  1.4406
  391TIP3   OH222807   5.566   6.616   2.147 -0.1919  0.1060  0.1072
  391TIP3    H122808   5.643   6.666   2.121 -0.6014  0.7605  0.1160
  391TIP3    H222809   5.557   6.548   2.080  1.0955 -0.7559  0.7776
  392TIP3   OH222810   6.786   2.501   1.103 -0.3154 -0.5419  0.5234
  392TIP3    H122811   6.839   2.538   1.173  1.5884 -3.6180  0.8647
  392TIP3    H222812   6.716   2.454   1.148 -0.0550 -1.1470  0.2969
  393TIP3   OH222813   0.798   2.674   2.767  0.2054 -0.2850  0.1979
  393TIP3    H122814   0.879   2.644   2.726  1.2478  1.4017  0.9093
  393TIP3    H222815   0.769   2.601   2.821  1.1930 -0.9509 -0.1543
  394TIP3   OH222816   2.179   5.229   0.354 -0.0922  0.3205  0.1001
  394TIP3    H122817   2.209   5.143   0.382  2.2441  0.9416 -0.2627
  394TIP3    H222818   2.088   5.234   0.383  0.3781 -1.4017  2.0943
  395TIP3   OH222819   2.511   2.710   3.744  0.3202  0.2263 -0.1311
  395TIP3    H122820   2.594   2.757   3.745  0.3503  0.1788  1.4941
  395TIP3    H222821   2.471   2.730   3.829 -1.5319  0.5853 -1.0393
  396TIP3   OH222822   6.636   2.975   4.915 -0.4623 -0.1194  0.2486
  396TIP3    H122823   6.570   2.966   4.983  0.4552 -0.0523  1.1625
  396TIP3    H222824   6.709   2.922   4.945 -0.1597 -0.3562 -0.8460
  397TIP3   OH222825   6.306   2.519   3.525 -0.4272  0.8145  0.1033
  397TIP3    H122826   6.233   2.580   3.533 -0.3878  0.8064  0.5450
  397TIP3    H222827   6.310   2.498   3.432 -0.3767  1.5579 -0.0641
  398TIP3   OH222828   4.565   0.540   0.338  0.5301  0.6896 -0.8147
  398TIP3    H122829   4.589   0.478   0.269 -0.2066 -0.8649  0.2566
  398TIP3    H222830   4.479   0.572   0.312  0.4106  0.3812 -0.8047
  399TIP3   OH222831   4.998   1.426   3.242  0.4961  0.6373 -0.6570
  399TIP3    H122832   4.994   1.334   3.265  0.0882  0.9521  0.6315
  399TIP3    H222833   4.909   1.448   3.214  1.1581  0.0455 -3.6739
  400TIP3   OH222834   3.586   0.461   1.411  0.0219  0.4848  0.1945
  400TIP3    H122835   3.611   0.436   1.322 -2.6057 -1.4512 -0.1149
  400TIP3    H222836   3.563   0.554   1.405  0.1571  0.4455 -1.0902
  401TIP3   OH222837   6.111   0.885   1.531  0.0577 -0.1787  0.4893
  401TIP3    H122838   6.079   0.971   1.559 -1.5829 -1.2869  2.2398
  401TIP3    H222839   6.105   0.830   1.609 -1.1332 -2.4615 -1.0793
  402TIP3   OH222840   4.556   3.015   4.046 -0.4451  0.0908 -0.0765
  402TIP3    H122841   4.523   2.950   4.108 -0.0868  0.1750  0.2094
  402TIP3    H222842   4.619   2.966   3.992  0.5664  0.4144  0.7804
  403TIP3   OH222843   5.921   2.159   4.220 -0.2159 -0.0705  0.8767
  403TIP3    H122844   5.895   2.248   4.197 -1.1522 -0.5979 -0.1964
  403TIP3    H222845   5.913   2.155   4.315 -0.6370  0.8394  0.8843
  404TIP3   OH222846   6.312   1.477   1.107 -0.7262  1.0447 -0.2107
  404TIP3    H122847   6.253   1.428   1.163  1.2607 -1.0132  0.2410
  404TIP3    H222848   6.359   1.537   1.166 -0.6420  0.9105 -0.1402
  405TIP3   OH222849   3.516   6.672   3.666 -0.1760 -0.6981  0.1837
  405TIP3    H122850   3.584   6.715   3.718 -0.3336  0.7825 -0.7749
  405TIP3    H222851   3.467   6.619   3.729  0.1318  0.4041  1.3908
  406TIP3   OH222852   3.176   5.999   1.470  0.2907  0.1956  0.0945
  406TIP3    H122853   3.098   6.024   1.420 -1.0845 -0.9062  1.5880
  406TIP3    H222854   3.181   6.063   1.541  1.1438  0.6439 -0.3572
  407TIP3   OH222855   0.795   3.092   8.832 -0.5329  0.0164  0.1470
  407TIP3    H122856   0.772   3.014   8.782 -2.6576  0.4690  0.2988
  407TIP3    H222857   0.711   3.137   8.844  0.5908  2.1699  0.3126
  408TIP3   OH222858   4.939   5.289   2.661  0.9742 -0.4356 -0.0663
  408TIP3    H122859   4.883   5.232   2.714  1.3034 -1.1500 -0.4715
  408TIP3    H222860   5.018   5.300   2.713  1.3782 -1.2972 -0.4616
  409TIP3   OH222861   2.600   2.202   4.399 -0.1591  0.3889 -0.3065
  409TIP3    H122862   2.539   2.276   4.391  2.8911  3.1017 -0.9411
  409TIP3    H222863   2.598   2.179   4.492 -1.0176  1.4721 -0.0333
  410TIP3   OH222864   5.986   6.241   1.548  0.0537 -0.3358 -0.0399
  410TIP3    H122865   5.942   6.248   1.632 -0.6927  0.7857 -0.5141
  410TIP3    H222866   5.971   6.150   1.521  0.7121 -0.8579  1.2286
  411TIP3   OH222867   4.617   0.597   3.146  0.9750 -0.3029  0.8868
  411TIP3    H122868   4.579   0.541   3.078  0.6940 -0.0356  0.8235
  411TIP3    H222869   4.647   0.536   3.213  0.3296 -0.5075  0.9970
  412TIP3   OH222870   2.542   2.398   1.482 -0.1196  0.2790 -0.1350
  412TIP3    H122871   2.593   2.479   1.483  1.2772 -0.5769  0.8281
  412TIP3    H222872   2.587   2.340   1.543 -0.7411 -1.4487 -1.2395
  413TIP3   OH222873   1.798   2.026   4.528  0.0810  0.1729 -0.0578
  413TIP3    H122874   1.740   2.052   4.457 -1.1794 -2.1958 -0.0182
  413TIP3    H222875   1.751   2.051   4.608 -0.2473 -0.4536 -0.0457
  414TIP3   OH222876   1.344   5.391   0.356  0.4319  0.0423  0.2031
  414TIP3    H122877   1.375   5.311   0.397  1.4131 -0.5257 -1.5517
  414TIP3    H222878   1.277   5.363   0.294  1.3298  0.4639 -0.9874
  415TIP3   OH222879   2.236   2.478   1.443 -0.2724  0.0632 -0.2578
  415TIP3    H122880   2.213   2.549   1.503 -1.0951 -1.5502  1.4252
  415TIP3    H222881   2.331   2.471   1.450 -0.4497 -0.9238  1.9257
  416TIP3   OH222882   3.425   1.418   1.967  0.4313  0.4020 -0.5964
  416TIP3    H122883   3.462   1.429   1.880 -1.0070  0.0767 -1.2823
  416TIP3    H222884   3.333   1.397   1.952 -0.0452  1.1157  1.0193
  417TIP3   OH222885   2.355   6.288   1.900  0.1338 -0.3629 -0.6376
  417TIP3    H122886   2.353   6.375   1.942 -0.3999 -0.3160 -0.7510
  417TIP3    H222887   2.379   6.228   1.971 -2.4188 -0.5249  0.2040
  418TIP3   OH222888   4.694   2.969   1.241  0.0775 -0.0598  0.2127
  418TIP3    H122889   4.653   2.897   1.288 -0.7399 -0.4634 -1.0805
  418TIP3    H222890   4.709   2.935   1.153  0.9212  0.9105 -0.0395
  419TIP3   OH222891   2.481   2.515   2.777 -0.0596 -0.1167 -0.3557
  419TIP3    H122892   2.556   2.469   2.740 -0.9044 -0.6809 -1.4247
  419TIP3    H222893   2.476   2.596   2.726  0.5338  0.4856  0.5257
  420TIP3   OH222894   2.470   4.427   2.613  0.4337 -0.6016  0.2854
  420TIP3    H122895   2.460   4.487   2.538 -0.3084 -1.2465 -0.1437
  420TIP3    H222896   2.487   4.485   2.687 -1.2866  0.2502  0.0707
  421TIP3   OH222897   2.582   6.778   2.764 -0.6035  0.2097 -0.8073
  421TIP3    H122898   2.628   6.852   2.725  0.3390  0.1451  0.1331
  421TIP3    H222899   2.575   6.714   2.693 -0.0500  0.5915 -1.2125
  422TIP3   OH222900   1.831   1.562   0.777  0.0500 -0.3444  0.6675
  422TIP3    H122901   1.925   1.576   0.791  0.2242  0.9027 -1.3985
  422TIP3    H222902   1.825   1.525   0.690 -1.4925  2.7823 -0.7153
  423TIP3   OH222903   4.612   3.072   1.989  0.1653  0.5156  0.0400
  423TIP3    H122904   4.570   3.088   2.074  1.6556 -0.9535  1.1377
  423TIP3    H222905   4.670   2.998   2.006  0.4889  0.1686 -2.3035
  424TIP3   OH222906   4.619   0.135   5.029  0.0588 -0.1501 -0.1110
  424TIP3    H122907   4.581   0.159   4.945  0.8394  2.2797  0.1616
  424TIP3    H222908   4.544   0.124   5.087 -0.4067  0.9510 -0.4748
  425TIP3   OH222909   1.007   3.353   2.263  0.0669  0.6329 -0.1593
  425TIP3    H122910   0.996   3.447   2.280 -1.0712  0.7308 -1.2820
  425TIP3    H222911   0.956   3.311   2.333 -0.6227  0.9050 -0.4832
  426TIP3   OH222912   2.081   4.051   0.238 -0.1541 -0.2892 -0.2827
  426TIP3    H122913   2.107   4.114   0.305  0.7237  0.3000 -1.1432
  426TIP3    H222914   2.156   3.991   0.231  0.7696  0.9853 -2.2686
  427TIP3   OH222915   3.667   1.882   0.028 -0.0024 -0.1187 -0.3598
  427TIP3    H122916   3.583   1.839   0.043  1.7257 -3.2311  1.4366
  427TIP3    H222917   3.644   1.973   0.007 -3.6921 -0.3775  1.7011
  428TIP3   OH222918   4.976   2.807   3.561 -0.2580 -0.3090  0.0702
  428TIP3    H122919   4.917   2.736   3.588 -1.1234  0.4449  0.1853
  428TIP3    H222920   4.919   2.882   3.544  0.7984  1.1089  2.3021
  429TIP3   OH222921   5.154   1.018   5.035  0.3104  0.2600  0.9701
  429TIP3    H122922   5.179   1.062   4.954 -0.7645  1.3645  1.2154
  429TIP3    H222923   5.103   1.083   5.083 -0.4508 -0.9167  1.8082
  430TIP3   OH222924   1.326   3.567   2.854  0.0558 -0.0898  0.0371
  430TIP3    H122925   1.242   3.525   2.835 -0.4915  1.2047 -0.5403
  430TIP3    H222926   1.388   3.525   2.795  0.6874 -3.6580  2.9279
  431TIP3   OH222927   3.020   2.126   1.848 -0.0553  0.5676 -0.1624
  431TIP3    H122928   3.057   2.213   1.833  0.6194  0.4004  0.4856
  431TIP3    H222929   2.941   2.142   1.900 -0.1412  0.8183 -0.3657
  432TIP3   OH222930   4.598   3.363   3.250  0.0719  0.3432 -0.8582
  432TIP3    H122931   4.532   3.343   3.184 -1.4784 -0.8664  0.9445
  432TIP3    H222932   4.601   3.458   3.253 -3.6236  0.5660  0.8051
  433TIP3   OH222933   4.617   3.729   3.551 -0.3119 -0.5638 -1.0924
  433TIP3    H122934   4.562   3.741   3.629  0.5285  2.0348 -0.8267
  433TIP3    H222935   4.681   3.663   3.578  0.5086  0.9084  0.8034
  434TIP3   OH222936   0.387   1.925   1.924  0.5673 -0.6025  0.3948
  434TIP3    H122937   0.405   1.888   2.011 -1.5031 -0.7146  0.8482
  434TIP3    H222938   0.428   1.864   1.863  1.5778 -0.8304  1.2771
  435TIP3   OH222939   4.498   3.656   2.746 -0.1254  0.2776 -0.3054
  435TIP3    H122940   4.586   3.654   2.708  0.4338 -1.6407  0.9225
  435TIP3    H222941   4.503   3.723   2.814  0.9454 -0.9240  0.8623
  436TIP3   OH222942   3.631   5.591   4.020 -0.1193 -0.4455  0.0249
  436TIP3    H122943   3.631   5.569   3.927  2.3105 -0.2360 -0.0753
  436TIP3    H222944   3.718   5.627   4.037 -0.2957 -0.9922  2.5035
  437TIP3   OH222945   4.382   2.177   8.648  0.0426  0.1605  0.1261
  437TIP3    H122946   4.295   2.163   8.683 -0.6970  3.9523  0.2670
  437TIP3    H222947   4.371   2.175   8.553  0.0632 -0.5573  0.1378
  438TIP3   OH222948   1.432   5.137   1.926  0.2336  0.4150  0.1361
  438TIP3    H122949   1.412   5.171   2.013  2.2674  1.4061  0.2746
  438TIP3    H222950   1.437   5.043   1.938  1.4252  0.5929  1.3529
  439TIP3   OH222951   5.165   4.050   1.935 -0.0348  0.4050  0.1951
  439TIP3    H122952   5.152   4.033   2.028 -1.1094  0.1333  0.0077
  439TIP3    H222953   5.239   4.111   1.932 -0.5666  1.1316  1.2801
  440TIP3   OH222954   1.565   3.059   0.354  0.0710  0.1368  0.0865
  440TIP3    H122955   1.559   3.073   0.448 -0.2992 -1.5419  0.3520
  440TIP3    H222956   1.494   3.110   0.317 -0.2226  0.2540  0.7994
  441TIP3   OH222957   6.760   2.441   4.077 -0.4441 -0.2375 -0.0393
  441TIP3    H122958   6.806   2.499   4.138 -2.0098 -0.7110  1.6860
  441TIP3    H222959   6.790   2.469   3.990  1.1726  1.0796  0.8780
  442TIP3   OH222960   2.301   4.387   3.733 -0.5053  0.2311 -0.5782
  442TIP3    H122961   2.329   4.413   3.821 -1.7672  3.2270 -0.9396
  442TIP3    H222962   2.373   4.411   3.676 -0.8840  1.1414 -0.6844
  443TIP3   OH222963   5.891   5.855   3.887 -0.2726 -0.5727  0.0223
  443TIP3    H122964   5.972   5.903   3.865  0.3175 -2.0683 -1.2431
  443TIP3    H222965   5.851   5.908   3.956  2.0470 -0.0387  1.0745
  444TIP3   OH222966   5.492   3.015   3.784 -0.0263 -0.0591 -0.0521
  444TIP3    H122967   5.499   2.920   3.787  0.6881 -0.1056 -1.7686
  444TIP3    H222968   5.572   3.043   3.738 -0.6433  1.2870 -0.3592
  445TIP3   OH222969   1.492   2.544   1.196  0.2415 -0.1990 -0.3577
  445TIP3    H122970   1.481   2.629   1.240 -0.5848 -0.1448 -0.6497
  445TIP3    H222971   1.405   2.523   1.163  0.0277 -1.9937  1.1776
  446TIP3   OH222972   1.689   3.079   2.419 -0.0397 -0.4698 -0.6830
  446TIP3    H122973   1.709   3.160   2.372 -0.5210  0.2448  0.3027
  446TIP3    H222974   1.773   3.048   2.452 -0.2175  2.4044  3.2795
  447TIP3   OH222975   3.444   4.097   0.455 -0.4427 -0.6154 -0.0645
  447TIP3    H122976   3.446   4.098   0.359  1.7434  2.1100 -0.0983
  447TIP3    H222977   3.524   4.051   0.480  0.1161  0.5742  0.3984
  448TIP3   OH222978   1.697   5.135   3.691 -0.0234  0.0943 -0.8504
  448TIP3    H122979   1.732   5.169   3.773  3.2674  0.2072 -2.1358
  448TIP3    H222980   1.661   5.049   3.714 -1.5382  1.1523  1.0673
  449TIP3   OH222981   1.248   2.454   2.816  0.4375 -0.0749 -0.1021
  449TIP3    H122982   1.270   2.444   2.908 -3.5985  0.8452  1.1743
  449TIP3    H222983   1.290   2.536   2.790 -1.0231  1.4546  2.0253
  450TIP3   OH222984   0.265   3.513   0.813 -0.0028  0.5798  0.6121
  450TIP3    H122985   0.178   3.479   0.792  1.0650 -1.6942 -0.4694
  450TIP3    H222986   0.256   3.608   0.806 -2.0527  0.3340 -0.9417
  451TIP3   OH222987   6.077   3.792   3.295 -0.7906  0.3101  0.6238
  451TIP3    H122988   6.114   3.879   3.306  0.7805  0.2074 -2.5936
  451TIP3    H222989   6.112   3.741   3.368 -1.4645  2.2251  2.3625
  452TIP3   OH222990   5.178   4.265   0.853 -0.2521 -0.4304 -0.8628
  452TIP3    H122991   5.269   4.265   0.824 -0.3529 -1.1797 -1.1934
  452TIP3    H222992   5.136   4.335   0.802 -0.3768 -1.5757 -2.3796
  453TIP3   OH222993   3.975   3.042   4.057 -0.3221 -0.6030 -0.0681
  453TIP3    H122994   3.993   2.991   3.978 -0.3049 -1.1141  0.2591
  453TIP3    H222995   3.942   3.126   4.025  1.1491 -0.2116 -0.6481
  454TIP3   OH222996   0.420   2.888   1.904  0.2985 -0.2636  0.2906
  454TIP3    H122997   0.489   2.953   1.889 -0.4623  0.4209 -0.3069
  454TIP3    H222998   0.438   2.855   1.992  1.8755 -0.7081 -0.1560
  455TIP3   OH222999   2.857   3.354   3.259 -0.4643  0.2542  0.9090
  455TIP3    H123000   2.762   3.355   3.265 -0.6469 -0.7602 -0.8521
  455TIP3    H223001   2.886   3.429   3.311 -2.1645  0.1317  2.0997
  456TIP3   OH223002   5.873   4.335   4.926  0.7038 -0.1027  0.2693
  456TIP3    H123003   5.963   4.306   4.936  0.9915  0.7179  0.1665
  456TIP3    H223004   5.879   4.430   4.912 -0.2500  0.1782  1.5688
  457TIP3   OH223005   2.332   3.610   2.453  0.1016  0.4932  0.3688
  457TIP3    H123006   2.311   3.703   2.445  1.1311  0.7670  0.6360
  457TIP3    H223007   2.407   3.608   2.513 -0.8663 -0.6343  1.5890
  458TIP3   OH223008   4.775   5.973   3.637 -0.5506 -0.1883 -0.1758
  458TIP3    H123009   4.855   5.997   3.683 -0.8239  0.5188 -0.0564
  458TIP3    H223010   4.709   6.034   3.670 -1.1050 -0.6657 -0.3832
  459TIP3   OH223011   4.534   3.626   3.185 -0.0926  0.2443  0.4025
  459TIP3    H123012   4.610   3.669   3.145 -1.3077  0.9829 -1.2456
  459TIP3    H223013   4.520   3.675   3.266  1.1634  0.1005  0.7307
  460TIP3   OH223014   3.260   1.683   1.027 -0.0498  0.0639 -0.5014
  460TIP3    H123015   3.198   1.735   0.977  0.6619 -0.2052 -1.7002
  460TIP3    H223016   3.230   1.689   1.118 -1.7097  0.0820 -1.0343
  461TIP3   OH223017   0.672   4.657   2.211 -0.2943  0.1794  0.1732
  461TIP3    H123018   0.627   4.574   2.197 -1.5874  0.7698  0.6635
  461TIP3    H223019   0.738   4.638   2.278  0.2468 -0.7097 -0.5871
  462TIP3   OH223020   6.094   6.098   1.254  0.2062  0.1740 -0.1774
  462TIP3    H123021   6.006   6.107   1.217 -0.3434 -2.4966  0.3300
  462TIP3    H223022   6.085   6.033   1.324  2.3419  0.8565  0.8267
  463TIP3   OH223023   2.076   4.054   2.127  0.3476 -0.2357  0.5595
  463TIP3    H123024   2.069   4.128   2.067  1.0070 -0.8912 -0.3607
  463TIP3    H223025   2.029   3.983   2.082  2.4777 -1.2852 -0.1156
  464TIP3   OH223026   5.682   6.684   3.471 -0.2278  0.0486 -0.1587
  464TIP3    H123027   5.697   6.624   3.544  1.3831  0.4043 -0.1525
  464TIP3    H223028   5.740   6.653   3.401  0.2801  1.2662 -0.3184
  465TIP3   OH223029   0.291   6.650   0.880  0.4050 -0.2325  0.2065
  465TIP3    H123030   0.218   6.596   0.849  1.0698 -0.9663 -0.0944
  465TIP3    H223031   0.341   6.670   0.801  0.2851  0.6683  0.3432
  466TIP3   OH223032   4.646   1.678   0.952 -0.3692 -0.0317  0.0925
  466TIP3    H123033   4.655   1.742   0.881  0.6265 -1.8244 -1.4795
  466TIP3    H223034   4.553   1.656   0.952 -0.7126  1.3191  0.5999
  467TIP3   OH223035   0.837   5.601   0.272  0.0341 -0.6331 -0.1491
  467TIP3    H123036   0.906   5.624   0.211  0.1843  0.5730  0.4332
  467TIP3    H223037   0.809   5.685   0.310 -0.8480 -1.2222  0.5763
  468TIP3   OH223038   5.142   2.986   4.445  0.0492 -0.7215  0.4952
  468TIP3    H123039   5.168   3.074   4.420  0.4778 -0.9427  0.1490
  468TIP3    H223040   5.182   2.972   4.531 -1.2032 -0.0592  1.2134
  469TIP3   OH223041   1.103   1.212   4.214  0.4410  0.5134 -0.2391
  469TIP3    H123042   1.049   1.148   4.167 -0.2325  0.8003  0.1292
  469TIP3    H223043   1.110   1.178   4.302  0.2801  0.8249 -0.1034
  470TIP3   OH223044   4.487   0.573   4.018  0.5191 -0.3491  0.1111
  470TIP3    H123045   4.443   0.534   4.093  1.3478 -0.8172  0.3696
  470TIP3    H223046   4.471   0.667   4.026 -0.6283 -0.5291  0.0551
  471TIP3   OH223047   3.804   5.100   0.825  0.1017 -0.6647  0.0538
  471TIP3    H123048   3.817   5.034   0.894  0.4189 -0.3390  0.3096
  471TIP3    H223049   3.788   5.049   0.746  3.0158 -1.1654 -0.3245
  472TIP3   OH223050   5.688   2.137   2.137 -0.0209 -0.2026 -0.7824
  472TIP3    H123051   5.649   2.052   2.122 -1.1763  0.1353  0.1394
  472TIP3    H223052   5.726   2.162   2.053 -0.1366 -1.3803 -1.1929
  473TIP3   OH223053   5.871   6.100   3.677 -0.6672 -0.9383 -0.4124
  473TIP3    H123054   5.961   6.109   3.706 -0.7961  1.4562 -0.5195
  473TIP3    H223055   5.874   6.121   3.583 -1.2625 -1.3474 -0.5302
  474TIP3   OH223056   6.367   0.178   3.608  0.0243 -0.8111 -0.4559
  474TIP3    H123057   6.442   0.224   3.647 -0.0435 -1.0146 -0.0787
  474TIP3    H223058   6.377   0.191   3.514  0.4905 -0.7719 -0.4017
  475TIP3   OH223059   6.370   3.255   2.883 -0.3313 -0.6894 -0.2837
  475TIP3    H123060   6.417   3.322   2.834  1.8148  0.6254  3.2113
  475TIP3    H223061   6.282   3.290   2.893  0.2714  0.7966  0.0026
  476TIP3   OH223062   4.357   0.591   1.147  0.0352  0.3574 -0.2371
  476TIP3    H123063   4.332   0.653   1.214 -2.5198 -1.0472  0.2504
  476TIP3    H223064   4.388   0.514   1.195 -0.6133 -0.1827 -0.6460
  477TIP3   OH223065   6.138   0.889   3.803 -0.4532  0.2520 -0.0092
  477TIP3    H123066   6.076   0.843   3.747 -1.0167 -1.9223  2.2299
  477TIP3    H223067   6.191   0.942   3.743 -0.5852 -2.4014 -2.6393
  478TIP3   OH223068   1.119   1.625   0.349  0.4810  0.5124 -0.4095
  478TIP3    H123069   1.209   1.654   0.332  1.1099 -0.3164  1.2681
  478TIP3    H223070   1.083   1.607   0.262  1.8112  1.1928 -1.1354
  479TIP3   OH223071   2.621   5.680   2.202  0.7180  0.4052 -0.0190
  479TIP3    H123072   2.714   5.700   2.214  0.7208  0.5905 -0.3400
  479TIP3    H223073   2.609   5.680   2.107  0.3251  0.6738  0.0305
  480TIP3   OH223074   6.808   0.845   0.916  0.6705 -0.0060  0.0389
  480TIP3    H123075   6.739   0.852   0.983 -0.2193  0.7458 -0.9227
  480TIP3    H223076   6.807   0.753   0.890 -0.8790  0.2284 -0.8609
  481TIP3   OH223077   4.131   0.596   3.273 -0.1435  0.0036 -0.1915
  481TIP3    H123078   4.210   0.573   3.224 -0.1513 -0.1673 -0.1222
  481TIP3    H223079   4.067   0.621   3.206 -0.4227 -1.0313 -0.3208
  482TIP3   OH223080   1.769   1.223   3.888  0.3951 -0.2683 -0.4829
  482TIP3    H123081   1.697   1.217   3.825 -0.0076 -0.9529  0.0329
  482TIP3    H223082   1.727   1.227   3.973  0.8914  2.0262 -0.2756
  483TIP3   OH223083   1.821   2.041   2.660 -0.0883  0.4882 -0.4092
  483TIP3    H123084   1.781   1.994   2.587 -0.2415  1.1063 -0.7282
  483TIP3    H223085   1.855   2.121   2.621  0.1715  0.6432  0.1292
  484TIP3   OH223086   4.992   2.876   1.551 -1.0065 -0.2584 -0.3159
  484TIP3    H123087   4.900   2.900   1.545 -1.4643 -2.0973 -1.6661
  484TIP3    H223088   4.995   2.806   1.616 -0.8746 -1.3317 -1.4282
  485TIP3   OH223089   2.782   1.664   0.488  0.4422  0.5174 -0.4565
  485TIP3    H123090   2.737   1.612   0.421 -0.4197  0.5366  0.0925
  485TIP3    H223091   2.876   1.650   0.470  0.2545  1.4114 -2.3441
  486TIP3   OH223092   0.152   6.287   0.480 -0.6217  0.0583 -0.1382
  486TIP3    H123093   0.140   6.249   0.393  1.9244 -0.9032 -0.1662
  486TIP3    H223094   0.194   6.217   0.531 -0.7426  1.0788  1.4333
  487TIP3   OH223095   6.712   6.213   2.298 -0.2991 -0.6286 -0.0541
  487TIP3    H123096   6.695   6.242   2.388 -0.7724 -0.7304 -0.1100
  487TIP3    H223097   6.780   6.272   2.267  0.6386 -1.2582  0.7317
  488TIP3   OH223098   3.517   5.198   1.101 -0.3544 -0.3461 -0.2347
  488TIP3    H123099   3.575   5.274   1.108 -0.4058 -0.3775  0.5311
  488TIP3    H223100   3.518   5.177   1.007 -0.6438  0.8375 -0.5291
  489TIP3   OH223101   3.947   4.020   4.358  0.2128  0.0646 -0.1708
  489TIP3    H123102   3.983   3.936   4.328 -0.2506 -0.1700 -0.0765
  489TIP3    H223103   3.935   4.071   4.278 -0.6381 -0.4096 -0.3616
  490TIP3   OH223104   2.414   1.747   1.370 -0.0693 -0.2507 -0.0485
  490TIP3    H123105   2.453   1.685   1.431  0.4064  0.0542 -0.0377
  490TIP3    H223106   2.350   1.696   1.322  0.3870 -0.7824 -0.1059
  491TIP3   OH223107   6.522   2.634   0.494  0.3742 -0.1960  0.3825
  491TIP3    H123108   6.601   2.673   0.454  0.8220  0.1696  1.5943
  491TIP3    H223109   6.553   2.594   0.575 -0.9697  1.6455  1.8918
  492TIP3   OH223110   0.446   3.533   4.316  0.3449 -0.1311 -0.3240
  492TIP3    H123111   0.481   3.618   4.290 -0.3297  0.0722 -0.5928
  492TIP3    H223112   0.356   3.534   4.285  0.4738 -1.1413 -0.7589
  493TIP3   OH223113   4.133   2.194   0.930 -0.4164 -0.0979 -0.3954
  493TIP3    H123114   4.198   2.259   0.954 -0.2867  0.3161 -1.7676
  493TIP3    H223115   4.116   2.145   1.011  1.4669 -0.1145  0.0286
  494TIP3   OH223116   1.715   0.314   0.293  0.5618 -0.2391 -0.0786
  494TIP3    H123117   1.632   0.331   0.337  0.8593  2.0428 -0.2961
  494TIP3    H223118   1.692   0.259   0.218 -0.3163 -1.9623  1.3840
  495TIP3   OH223119   4.989   5.679   4.497 -0.3292  0.5060 -0.3305
  495TIP3    H123120   5.080   5.651   4.484  0.2135  2.3684 -0.8794
  495TIP3    H223121   4.987   5.711   4.587  0.2679  2.7867 -1.0740
  496TIP3   OH223122   2.879   2.035   2.201 -0.3664  0.1517  0.1826
  496TIP3    H123123   2.880   2.091   2.279 -0.8468  0.2273  0.1356
  496TIP3    H223124   2.944   1.967   2.220 -1.8357 -0.9732  1.4998
  497TIP3   OH223125   4.269   6.060   2.866 -0.3375  0.2490 -0.4927
  497TIP3    H123126   4.224   6.049   2.950  0.8552  1.9708  0.4400
  497TIP3    H223127   4.342   5.998   2.869 -1.7945 -1.6081 -1.4539
  498TIP3   OH223128   4.464   0.482   1.795 -0.2589  0.9087  0.0583
  498TIP3    H123129   4.372   0.459   1.805  0.1101  0.0236  2.0056
  498TIP3    H223130   4.480   0.549   1.861  0.5764  0.7430  0.0399
  499TIP3   OH223131   2.601   0.157   1.880  0.2018  0.1110 -0.4889
  499TIP3    H123132   2.577   0.249   1.891  0.3639  0.1199 -0.1826
  499TIP3    H223133   2.631   0.150   1.790 -1.1786  0.0475 -0.9709
  500TIP3   OH223134   2.495   3.310   1.962 -0.4677 -0.0747  0.3242
  500TIP3    H123135   2.552   3.234   1.975  0.6450  0.5786 -0.5386
  500TIP3    H223136   2.513   3.366   2.037  0.3398  0.3020 -0.1361
  501TIP3   OH223137   0.268   1.469   0.769 -0.4048  0.0821 -0.1669
  501TIP3    H123138   0.332   1.404   0.800 -0.0396 -0.3580 -1.7644
  501TIP3    H223139   0.308   1.506   0.691 -0.7402  2.0716  0.5630
  502TIP3   OH223140   4.783   5.729   2.485 -0.8965  0.2157  0.0363
  502TIP3    H123141   4.812   5.690   2.567  0.4465 -0.1465 -0.5868
  502TIP3    H223142   4.859   5.725   2.427 -1.5827  1.1380 -0.9969
  503TIP3   OH223143   2.828   1.065   2.703  0.6040  0.2962 -0.1686
  503TIP3    H123144   2.849   0.981   2.662  0.6171 -0.4103  1.2155
  503TIP3    H223145   2.900   1.080   2.765  0.0019  0.7334  0.4422
  504TIP3   OH223146   2.393   1.637   8.781  0.8836 -0.5530  0.3835
  504TIP3    H123147   2.471   1.591   8.750  1.4637 -0.2769  1.3642
  504TIP3    H223148   2.340   1.569   8.824  0.7367 -0.6794  0.0069
  505TIP3   OH223149   0.749   5.137   8.748 -0.2049  0.2865  0.7104
  505TIP3    H123150   0.788   5.224   8.759  0.0393  0.1952  0.5877
  505TIP3    H223151   0.659   5.148   8.776 -1.2386  1.4839 -2.5440
  506TIP3   OH223152   4.906   2.140   2.943  0.6647 -0.1735 -0.4041
  506TIP3    H123153   4.905   2.233   2.924  1.6882 -0.1530 -0.3983
  506TIP3    H223154   4.975   2.129   3.009  0.1968 -0.8580 -0.0106
  507TIP3   OH223155   4.987   2.499   4.334 -0.3057 -0.7487 -0.6546
  507TIP3    H123156   5.069   2.529   4.297 -0.4400 -0.1125 -0.4450
  507TIP3    H223157   4.938   2.464   4.260  0.2778 -1.4323 -0.7286
  508TIP3   OH223158   3.714   6.798   3.803 -0.6644 -0.2604  0.0902
  508TIP3    H123159   3.710   6.894   3.793 -1.9307 -0.3673 -0.6766
  508TIP3    H223160   3.772   6.770   3.732 -0.3435 -0.0758  0.2750
  509TIP3   OH223161   3.358   2.295   3.780  0.1110  0.2342 -0.4005
  509TIP3    H123162   3.432   2.253   3.737 -0.2357 -1.6522  0.7330
  509TIP3    H223163   3.316   2.225   3.830 -2.3726  1.2500 -0.8866
  510TIP3   OH223164   6.061   0.289   1.410 -0.1949  0.0074  0.3819
  510TIP3    H123165   6.089   0.375   1.377  1.4341 -1.5305 -2.7638
  510TIP3    H223166   5.966   0.296   1.418 -0.1872  1.8697 -0.5914
  511TIP3   OH223167   0.227   0.734   4.869 -0.5804 -0.4463  0.1096
  511TIP3    H123168   0.146   0.740   4.920 -0.6546 -0.0681 -0.0425
  511TIP3    H223169   0.203   0.681   4.793 -0.1479 -2.0461  1.0580
  512TIP3   OH223170   1.475   2.818   2.527  0.3130  0.0835 -0.1904
  512TIP3    H123171   1.440   2.847   2.443 -0.3842 -0.6095 -0.1516
  512TIP3    H223172   1.464   2.894   2.585 -0.0589  0.2626 -0.4868
  513TIP3   OH223173   0.984   3.492   3.225  0.5300 -0.1702 -0.0411
  513TIP3    H123174   0.955   3.431   3.293 -1.8600 -2.2110 -2.7027
  513TIP3    H223175   1.053   3.446   3.179  0.5958  0.2778 -0.3945
  514TIP3   OH223176   0.902   5.715   3.510 -0.1476 -0.0649 -0.4776
  514TIP3    H123177   0.983   5.678   3.544 -0.0193  0.9508  0.3888
  514TIP3    H223178   0.880   5.784   3.572 -0.9016  0.6390 -1.5021
  515TIP3   OH223179   0.545   0.128   2.540 -0.7481 -0.4341 -0.0941
  515TIP3    H123180   0.507   0.134   2.628  0.9959 -1.3435  0.7927
  515TIP3    H223181   0.630   0.171   2.548 -0.4131 -0.8509 -1.2382
  516TIP3   OH223182   5.029   6.144   1.146 -0.0267 -0.7117 -0.0784
  516TIP3    H123183   4.998   6.067   1.099 -0.5993 -0.0224 -0.8684
  516TIP3    H223184   5.072   6.198   1.079  1.2269 -0.7691  0.6412
  517TIP3   OH223185   0.137   1.261   3.681 -0.4940 -0.1086 -0.5258
  517TIP3    H123186   0.155   1.355   3.686  0.6658 -0.1315 -2.7701
  517TIP3    H223187   0.052   1.250   3.724 -0.5975  1.9352 -0.1203
  518TIP3   OH223188   3.650   6.668   4.044 -0.2153 -0.4212  0.3396
  518TIP3    H123189   3.677   6.721   3.969 -0.4349  0.1945  0.6864
  518TIP3    H223190   3.640   6.731   4.116 -2.9346 -0.4976  0.1461
  519TIP3   OH223191   2.404   1.519   0.775 -0.0421 -0.3414  0.1873
  519TIP3    H123192   2.395   1.568   0.693  0.2296  0.2627  0.5115
  519TIP3    H223193   2.358   1.572   0.839 -0.6843 -1.0680  0.3274
  520TIP3   OH223194   3.869   5.326   4.691 -0.0487  0.1999 -0.8637
  520TIP3    H123195   3.853   5.352   4.782 -0.1022  0.1534 -0.8598
  520TIP3    H223196   3.873   5.230   4.694 -1.9056  0.0793 -1.2000
  521TIP3   OH223197   5.299   5.661   4.709 -0.1424  0.2975  0.1624
  521TIP3    H123198   5.377   5.689   4.757 -1.0848 -0.7210  2.4100
  521TIP3    H223199   5.226   5.702   4.755 -1.0405  0.2861 -1.1851
  522TIP3   OH223200   1.819   3.658   3.592  0.1779 -0.0959 -0.6385
  522TIP3    H123201   1.782   3.573   3.612  0.4321 -0.5661 -2.0561
  522TIP3    H223202   1.747   3.707   3.552  0.3160 -0.0210 -0.7977
  523TIP3   OH223203   3.881   4.985   4.413  0.0612  0.3117  0.1862
  523TIP3    H123204   3.892   5.027   4.499  1.6262  0.1758  0.0742
  523TIP3    H223205   3.911   4.895   4.427  0.7480  0.4091 -0.6051
  524TIP3   OH223206   2.858   0.451   1.903  0.6542  0.0550 -0.1938
  524TIP3    H123207   2.878   0.412   1.987  0.6985  0.1507 -0.1596
  524TIP3    H223208   2.772   0.493   1.915  1.1658  1.0454  0.1420
  525TIP3   OH223209   4.390   3.235   2.207 -0.3474  1.1368 -0.0817
  525TIP3    H123210   4.442   3.213   2.284  0.7904 -1.5803 -1.4913
  525TIP3    H223211   4.313   3.279   2.242 -0.1292 -0.4599  2.6640
  526TIP3   OH223212   5.895   2.629   2.075 -0.2773 -0.1417 -0.1406
  526TIP3    H123213   5.934   2.597   2.156 -1.8850  0.9283  1.0984
  526TIP3    H223214   5.934   2.716   2.063  1.9027 -1.2604 -1.9651
  527TIP3   OH223215   3.098   5.281   3.042  0.0986  0.0975 -0.0154
  527TIP3    H123216   3.056   5.194   3.042  1.0820 -0.4370 -1.7453
  527TIP3    H223217   3.129   5.292   3.132 -1.2640 -0.7085  0.6000
  528TIP3   OH223218   5.591   3.713   2.100  0.5947  0.2259  0.2953
  528TIP3    H123219   5.619   3.783   2.160  2.0974  0.7839 -0.9733
  528TIP3    H223220   5.616   3.746   2.013 -2.1463 -0.2419 -0.7458
  529TIP3   OH223221   4.789   4.035   1.258 -0.5528  0.0029  0.0774
  529TIP3    H123222   4.817   4.055   1.169  0.2820 -0.6076  0.1911
  529TIP3    H223223   4.844   4.089   1.314  1.5114 -2.2229  0.3696
  530TIP3   OH223224   6.112   3.515   3.081  0.0768  0.0108  0.1479
  530TIP3    H123225   6.118   3.548   2.991  1.4617 -0.0537  0.1934
  530TIP3    H223226   6.021   3.490   3.091  0.1414 -1.1367 -1.6647
  531TIP3   OH223227   6.245   0.316   0.888 -0.0920  0.0265 -0.3126
  531TIP3    H123228   6.324   0.329   0.940 -0.4933  1.0416  0.0668
  531TIP3    H223229   6.249   0.384   0.821 -0.9179  0.4472  0.0562
  532TIP3   OH223230   1.902   0.611   3.328  0.4309  0.2887  0.4280
  532TIP3    H123231   1.979   0.662   3.355  0.2802  0.4662  0.5166
  532TIP3    H223232   1.846   0.609   3.406  0.9440 -0.9612  0.7940
  533TIP3   OH223233   5.764   1.305   3.794 -0.5863 -0.7432 -0.1322
  533TIP3    H123234   5.853   1.286   3.822 -0.4444 -1.9973 -1.3213
  533TIP3    H223235   5.772   1.324   3.700 -1.4924 -0.3625 -0.1415
  534TIP3   OH223236   6.313   3.178   2.496 -0.0334 -0.0931  0.2810
  534TIP3    H123237   6.276   3.261   2.524 -1.9738 -0.3533 -1.2790
  534TIP3    H223238   6.251   3.112   2.528  1.3859 -0.9625  1.3635
  535TIP3   OH223239   2.103   4.390   3.465 -0.0082 -0.2436 -0.1206
  535TIP3    H123240   2.105   4.471   3.515  1.5314  0.3387 -1.0426
  535TIP3    H223241   2.017   4.353   3.482 -0.7108  1.5252  0.4103
  536TIP3   OH223242   2.112   2.819   4.142 -0.1990 -0.0252  0.4757
  536TIP3    H123243   2.086   2.887   4.203 -2.3060 -0.0247 -0.3271
  536TIP3    H223244   2.097   2.737   4.189 -0.5738  0.0116  0.4280
  537TIP3   OH223245   4.890   0.687   2.244  0.3577 -0.4045  0.0802
  537TIP3    H123246   4.984   0.669   2.237  0.5604  0.8026 -0.5362
  537TIP3    H223247   4.849   0.622   2.187  0.9106 -0.1428 -0.6201
  538TIP3   OH223248   3.683   1.516   4.358  0.0157  0.2322 -0.0474
  538TIP3    H123249   3.728   1.598   4.338  1.8432 -0.2290  1.8417
  538TIP3    H223250   3.720   1.452   4.297 -1.9973  0.8789 -2.0836
  539TIP3   OH223251   2.661   3.011   3.138 -0.1550  0.0414  0.1879
  539TIP3    H123252   2.601   2.994   3.211 -0.4359  0.9886  0.1836
  539TIP3    H223253   2.638   2.944   3.073  0.0557 -0.7692  0.9262
  540TIP3   OH223254   1.601   3.709   2.290 -0.0199  0.2832  0.0302
  540TIP3    H123255   1.665   3.641   2.270 -0.7500 -0.7655  1.1756
  540TIP3    H223256   1.651   3.775   2.339  0.7200  0.6826 -1.2049
  541TIP3   OH223257   1.422   0.875   3.656 -0.2952 -0.2524  0.2628
  541TIP3    H123258   1.367   0.808   3.614  1.5508 -1.8449  0.2550
  541TIP3    H223259   1.443   0.935   3.584 -0.8739 -0.4068 -0.0488
  542TIP3   OH223260   1.466   6.283   2.639 -0.7344 -0.7135  0.6865
  542TIP3    H123261   1.449   6.191   2.661  3.4325 -1.6759  0.8785
  542TIP3    H223262   1.471   6.284   2.543 -0.4155 -0.8146  0.6989
  543TIP3   OH223263   4.717   2.356   4.152  0.0566 -0.0770 -0.1033
  543TIP3    H123264   4.621   2.348   4.153  0.1744 -2.0134 -0.7264
  543TIP3    H223265   4.734   2.429   4.092 -1.0218  0.4819  0.2341
  544TIP3   OH223266   4.982   5.902   3.393  0.5396 -0.6861  0.2229
  544TIP3    H123267   4.961   5.820   3.437 -1.6894  0.5241  1.6572
  544TIP3    H223268   4.980   5.967   3.463  3.1323  0.5176 -0.7154
  545TIP3   OH223269   4.303   4.667   2.974 -0.0484  0.4034 -0.5717
  545TIP3    H123270   4.320   4.576   2.996 -2.2056  0.5081  1.9876
  545TIP3    H223271   4.356   4.717   3.036 -0.7628  0.8571 -0.3226
  546TIP3   OH223272   5.093   5.191   3.057 -0.4449  0.0511 -0.1828
  546TIP3    H123273   5.094   5.209   3.151  0.6297 -0.8799  0.0144
  546TIP3    H223274   5.074   5.275   3.016 -0.2991  0.5951  0.8416
  547TIP3   OH223275   5.574   0.885   1.243  0.5457  0.1892 -0.1061
  547TIP3    H123276   5.644   0.861   1.182  2.1055  1.0077  1.2754
  547TIP3    H223277   5.494   0.857   1.200  1.7353 -1.0073 -1.6542
  548TIP3   OH223278   1.931   3.586   3.976 -0.4724  0.3854  0.0590
  548TIP3    H123279   2.001   3.651   3.983 -0.2957  0.0849  1.3535
  548TIP3    H223280   1.899   3.576   4.066 -0.7348 -1.0581 -0.1821
  549TIP3   OH223281   4.973   3.429   0.443 -0.1497  0.3676  0.1149
  549TIP3    H123282   4.935   3.373   0.376  1.2134  1.0141 -1.2558
  549TIP3    H223283   5.067   3.425   0.427  0.1531  1.1399  1.5266
  550TIP3   OH223284   5.918   2.800   4.092  0.0560  0.1443 -0.3072
  550TIP3    H123285   5.885   2.789   4.003  0.2528  0.2802 -0.3997
  550TIP3    H223286   5.847   2.843   4.139  0.4180  1.2794 -0.7422
  551TIP3   OH223287   6.477   0.955   2.613  0.7407  0.3479 -0.1062
  551TIP3    H123288   6.459   0.934   2.522 -0.3959  1.1159 -0.0721
  551TIP3    H223289   6.517   1.042   2.611  1.9774 -0.1916  0.0414
  552TIP3   OH223290   2.575   5.609   1.254 -0.0380 -0.1866 -0.0807
  552TIP3    H123291   2.498   5.659   1.227  1.7095  3.1617  0.6313
  552TIP3    H223292   2.619   5.586   1.172  1.1225  2.9954 -0.4699
  553TIP3   OH223293   2.852   3.058   4.020  0.2227 -0.0300 -0.3514
  553TIP3    H123294   2.760   3.058   3.994 -0.1585  1.8153  0.8622
  553TIP3    H223295   2.861   2.981   4.077 -0.9595  0.6285  0.7663
  554TIP3   OH223296   0.525   5.367   3.865  0.0927 -0.0676  0.1624
  554TIP3    H123297   0.552   5.452   3.898 -0.5597  1.3231 -2.5607
  554TIP3    H223298   0.440   5.384   3.824 -0.4174 -2.2143  0.2337
  555TIP3   OH223299   3.269   3.071   3.565  0.0691 -0.2394 -0.5166
  555TIP3    H123300   3.185   3.093   3.606  0.7715  1.3703  0.1242
  555TIP3    H223301   3.284   2.979   3.589 -2.0762 -0.9702 -1.7038
  556TIP3   OH223302   5.744   0.654   3.542  0.2751 -0.2755  0.5998
  556TIP3    H123303   5.749   0.741   3.504  1.9074  0.3418  2.0963
  556TIP3    H223304   5.787   0.597   3.478 -1.0907 -0.0898 -0.5348
  557TIP3   OH223305   5.567   0.494   0.396  0.5161  0.2849  0.2909
  557TIP3    H123306   5.633   0.432   0.366  0.6060 -0.1007  1.2692
  557TIP3    H223307   5.523   0.450   0.468 -0.3097  0.8398  0.1410
  558TIP3   OH223308   0.285   3.094   0.436 -0.5062 -0.2945 -0.1315
  558TIP3    H123309   0.289   3.027   0.368  0.1797  1.5990 -2.0853
  558TIP3    H223310   0.194   3.123   0.437 -0.5873 -0.5495  0.0130
  559TIP3   OH223311   3.641   3.630   1.850 -0.0525 -0.1212  0.1628
  559TIP3    H123312   3.727   3.644   1.888  0.6806 -1.6420 -0.8592
  559TIP3    H223313   3.581   3.633   1.925  1.0282 -0.3854  1.0639
  560TIP3   OH223314   2.827   1.367   3.396  0.2312  0.1277 -0.3339
  560TIP3    H123315   2.917   1.369   3.430  0.0392  1.9207  0.2011
  560TIP3    H223316   2.790   1.286   3.431  0.7008  0.8710  2.0960
  561TIP3   OH223317   2.224   3.551   4.862 -0.1910 -0.6390 -0.5193
  561TIP3    H123318   2.208   3.457   4.860  1.8820 -1.0287 -0.5823
  561TIP3    H223319   2.267   3.567   4.946  1.5921 -0.1701 -1.4718
  562TIP3   OH223320   6.074   1.796   4.503  0.0426  0.0266  0.0886
  562TIP3    H123321   5.991   1.799   4.552  0.3078  0.1057  0.5354
  562TIP3    H223322   6.116   1.715   4.532  0.5397  0.4469  0.5414
  563TIP3   OH223323   0.137   2.281   3.238 -0.3977  0.3762 -0.2011
  563TIP3    H123324   0.176   2.356   3.194 -0.1683  0.3119 -0.1093
  563TIP3    H223325   0.051   2.312   3.267  0.0937  0.9077  0.7180
  564TIP3   OH223326   3.636   2.997   1.259 -0.5463 -0.1417  0.1243
  564TIP3    H123327   3.617   2.927   1.322  1.7517 -0.3732  0.6669
  564TIP3    H223328   3.696   3.056   1.306  0.9467 -0.1246 -1.6757
  565TIP3   OH223329   5.399   3.655   2.886  0.1300  0.3727 -0.0908
  565TIP3    H123330   5.305   3.670   2.884  0.3159  1.5074 -1.0615
  565TIP3    H223331   5.432   3.714   2.954 -0.2060 -2.5544  2.9074
  566TIP3   OH223332   3.213   6.793   4.524  0.3787 -0.2495  0.4297
  566TIP3    H123333   3.146   6.752   4.579  1.7425  0.2856  2.5885
  566TIP3    H223334   3.214   6.885   4.552  0.6603  0.2089 -0.9971
  567TIP3   OH223335   5.557   0.720   3.232 -0.1448  0.2570  0.0994
  567TIP3    H123336   5.597   0.641   3.268 -2.2458 -0.5608  0.8137
  567TIP3    H223337   5.515   0.692   3.151  0.5501  1.0551 -0.5608
  568TIP3   OH223338   2.491   4.943   1.074  0.0732 -0.2042  0.2929
  568TIP3    H123339   2.536   4.859   1.068 -1.9349 -1.2320 -1.7033
  568TIP3    H223340   2.562   5.008   1.069  1.6327 -1.7103  1.4854
  569TIP3   OH223341   0.538   1.985   1.414 -0.1599  0.1420  0.8068
  569TIP3    H123342   0.563   2.049   1.348 -1.1117  0.0843  0.3628
  569TIP3    H223343   0.576   2.017   1.495  0.9870  0.2445  0.2493
  570TIP3   OH223344   6.047   5.165   2.744 -0.3142  0.2030  0.5601
  570TIP3    H123345   5.979   5.194   2.682 -0.6408 -1.4058  0.1238
  570TIP3    H223346   6.127   5.208   2.713 -0.5014 -0.4665 -0.9374
  571TIP3   OH223347   5.037   1.246   4.868  0.0742  0.1005 -0.1323
  571TIP3    H123348   5.074   1.172   4.819  0.6685 -1.3237  2.2860
  571TIP3    H223349   4.945   1.222   4.881  0.0827  0.1477  0.0120
  572TIP3   OH223350   3.458   3.595   2.336 -0.8321  0.0826  0.2131
  572TIP3    H123351   3.404   3.630   2.407 -1.5101  0.1722 -0.3322
  572TIP3    H223352   3.548   3.599   2.369 -0.7698  2.9958 -0.0529
  573TIP3   OH223353   5.088   2.834   0.355  0.5904  0.4319  0.2790
  573TIP3    H123354   5.049   2.850   0.269  3.8396  2.0732 -1.0803
  573TIP3    H223355   5.179   2.812   0.336  0.7971 -1.8698  3.2364
  574TIP3   OH223356   4.117   6.723   4.683  0.1113  0.2116  0.0615
  574TIP3    H123357   4.188   6.759   4.735 -0.8534  1.1520  0.7856
  574TIP3    H223358   4.037   6.756   4.725 -0.7990 -1.6466 -0.0934
  575TIP3   OH223359   4.224   6.281   2.619  0.0641 -0.2542 -0.3638
  575TIP3    H123360   4.149   6.224   2.635 -0.1595 -0.2955 -1.4541
  575TIP3    H223361   4.283   6.265   2.692  0.3216 -2.4136 -0.9679
  576TIP3   OH223362   6.439   1.931   1.200 -0.6289 -0.5403 -0.3606
  576TIP3    H123363   6.482   1.948   1.116 -0.3585 -0.3802 -0.1930
  576TIP3    H223364   6.509   1.940   1.265 -1.2909  1.7853  0.1431
  577TIP3   OH223365   3.323   2.237   2.089  0.8296 -0.6723 -0.9402
  577TIP3    H123366   3.332   2.311   2.030  1.8235 -0.6957 -0.8328
  577TIP3    H223367   3.260   2.266   2.154  0.6911 -0.1755 -1.2894
  578TIP3   OH223368   1.407   1.659   1.006  0.0872 -0.2748  0.3957
  578TIP3    H123369   1.482   1.702   0.963  0.6659 -0.1267  1.5199
  578TIP3    H223370   1.349   1.635   0.934  0.8774  0.2632 -0.4446
  579TIP3   OH223371   5.505   4.356   4.329 -0.5841 -0.2028 -0.3923
  579TIP3    H123372   5.508   4.423   4.260 -0.4312 -1.2615 -1.4522
  579TIP3    H223373   5.424   4.374   4.377 -1.4635 -0.3179 -1.7775
  580TIP3   OH223374   5.126   1.640   3.357 -0.0541  0.4866  0.1306
  580TIP3    H123375   5.094   1.559   3.316  0.1536  0.0261  0.8643
  580TIP3    H223376   5.086   1.710   3.305  0.3102 -0.0720 -0.9553
  581TIP3   OH223377   3.091   2.312   1.190 -0.0451  0.3621  0.0929
  581TIP3    H123378   3.162   2.370   1.218 -1.0694  1.5682  0.3217
  581TIP3    H223379   3.109   2.296   1.097  0.2307  1.1141  0.0048
  582TIP3   OH223380   3.238   4.889   2.062 -0.2379 -0.3081  0.4271
  582TIP3    H123381   3.315   4.879   2.117  0.3116  1.1870 -0.0154
  582TIP3    H223382   3.272   4.884   1.972 -0.2017  2.6945  0.1751
  583TIP3   OH223383   4.667   2.328   4.807  0.0081  0.8286  0.1247
  583TIP3    H123384   4.734   2.266   4.780  0.1750 -0.0723  2.3352
  583TIP3    H223385   4.700   2.363   4.890 -1.1622  2.1730  0.0594
  584TIP3   OH223386   5.053   2.272   2.234  0.1919  0.0584  0.2005
  584TIP3    H123387   5.057   2.180   2.260 -0.7198  0.5270  2.2253
  584TIP3    H223388   5.119   2.315   2.288  2.0114  0.3656 -2.1430
  585TIP3   OH223389   1.984   3.058   2.487  0.2438  0.3800 -0.5714
  585TIP3    H123390   2.076   3.086   2.483  0.6359 -0.4349  1.6711
  585TIP3    H223391   1.987   2.964   2.469 -0.0810  0.2377  0.1110
  586TIP3   OH223392   6.656   5.156   5.279  0.0037 -0.2688 -0.6715
  586TIP3    H123393   6.660   5.242   5.322 -0.4221 -1.4988  2.0490
  586TIP3    H223394   6.588   5.166   5.212 -0.1289  1.4670 -0.3283
  587TIP3   OH223395   4.864   5.307   5.234  0.6380  0.5717 -0.0723
  587TIP3    H123396   4.892   5.360   5.309  1.1938 -0.0760  0.1890
  587TIP3    H223397   4.945   5.286   5.187  0.3396  0.6074 -0.6122
  588TIP3   OH223398   5.618   5.964   1.132 -0.6224  0.3393 -0.0825
  588TIP3    H123399   5.569   5.891   1.170 -2.4549  2.1413  1.2293
  588TIP3    H223400   5.586   5.969   1.041  1.2278 -1.8358 -0.9406
  589TIP3   OH223401   5.169   2.697   3.413  0.0615  0.6850  0.1168
  589TIP3    H123402   5.105   2.749   3.463 -0.2764  0.4767 -0.0935
  589TIP3    H223403   5.116   2.647   3.351  0.3259 -0.3429  0.6947
  590TIP3   OH223404   1.439   0.834   1.952  0.1657 -0.8311  0.5241
  590TIP3    H123405   1.459   0.760   2.009 -1.2366 -0.5667  1.3867
  590TIP3    H223406   1.408   0.794   1.871 -0.3193 -1.1860  0.8865
  591TIP3   OH223407   2.229   1.676   1.971 -0.2116 -0.0061  0.1315
  591TIP3    H123408   2.242   1.688   2.065  0.6086 -3.6070  0.6220
  591TIP3    H223409   2.137   1.653   1.962 -0.4900  1.1622 -0.0796
  592TIP3   OH223410   0.797   6.053   3.162 -0.0973  0.0406  0.4255
  592TIP3    H123411   0.847   6.039   3.243  0.9708  1.9211  0.1656
  592TIP3    H223412   0.706   6.051   3.189  0.2519  0.8771  1.7528
  593TIP3   OH223413   2.832   2.861   2.380 -0.2762 -0.1236 -0.6330
  593TIP3    H123414   2.918   2.897   2.361  0.0156 -1.0394 -1.0815
  593TIP3    H223415   2.848   2.771   2.408 -1.0991 -0.4063 -1.0203
  594TIP3   OH223416   3.653   1.502   0.500  0.3309 -0.1165  0.2003
  594TIP3    H123417   3.637   1.541   0.415 -0.9206  0.2250  0.5760
  594TIP3    H223418   3.576   1.524   0.552  0.7115 -0.9932  1.1801
  595TIP3   OH223419   2.751   5.751   0.763  0.4410  0.0537 -0.3716
  595TIP3    H123420   2.703   5.680   0.721 -0.2064 -0.3324  0.9914
  595TIP3    H223421   2.697   5.829   0.747 -0.2704 -0.2519  0.5192
  596TIP3   OH223422   6.428   0.804   0.026  0.3482  0.1640  0.1336
  596TIP3    H123423   6.385   0.722   0.048  1.5305 -0.0503  1.8249
  596TIP3    H223424   6.357   0.869   0.024 -0.5059 -0.7687 -0.6244
  597TIP3   OH223425   2.731   3.861   1.384  0.2999  0.6125  0.0991
  597TIP3    H123426   2.669   3.897   1.320 -1.1645 -1.5550  0.2098
  597TIP3    H223427   2.676   3.827   1.454  1.7188  0.0273  0.9585
  598TIP3   OH223428   2.607   6.567   2.567  0.2066 -0.0219  0.0282
  598TIP3    H123429   2.693   6.524   2.561  0.3569  0.2129  0.4329
  598TIP3    H223430   2.566   6.550   2.483  0.9385  0.4634 -0.4414
  599TIP3   OH223431   6.720   1.719   2.409  0.7385 -0.4533 -0.1098
  599TIP3    H123432   6.661   1.697   2.337  1.5127 -1.0833 -0.5621
  599TIP3    H223433   6.698   1.810   2.431 -0.2897 -0.6291 -0.3657
  600TIP3   OH223434   2.881   3.320   2.981  0.5404 -0.4910 -0.2843
  600TIP3    H123435   2.955   3.260   2.971  2.0091  0.6649  2.5118
  600TIP3    H223436   2.887   3.350   3.072 -1.5476  2.0414 -0.8697
  601TIP3   OH223437   5.850   6.272   2.950 -0.1412 -0.2340  0.3482
  601TIP3    H123438   5.773   6.242   2.901  0.9148 -1.2975 -0.7337
  601TIP3    H223439   5.860   6.364   2.923 -0.3372 -0.4340 -0.4523
  602TIP3   OH223440   1.734   0.940   3.778 -0.5104  0.2330  0.0962
  602TIP3    H123441   1.793   1.000   3.733  0.0502 -0.7541 -0.5268
  602TIP3    H223442   1.679   0.996   3.833 -1.1453  1.4855 -1.7066
  603TIP3   OH223443   5.084   5.892   2.909 -0.4382  0.4420 -0.6917
  603TIP3    H123444   5.046   5.842   2.981  0.3788  0.3631 -0.3029
  603TIP3    H223445   5.008   5.926   2.860 -1.0125 -1.1525 -0.9664
  604TIP3   OH223446   1.514   6.355   1.506  0.0289  0.2441 -0.6762
  604TIP3    H123447   1.602   6.358   1.542 -0.1460 -0.8486 -0.1248
  604TIP3    H223448   1.512   6.276   1.452 -1.0133 -0.5303  0.4407
  605TIP3   OH223449   5.896   3.069   0.952 -0.4938 -0.0762 -0.2831
  605TIP3    H123450   5.871   3.126   0.879 -1.9709 -1.6206 -1.0461
  605TIP3    H223451   5.971   3.018   0.918 -0.5087 -0.0526 -0.3521
  606TIP3   OH223452   0.030   0.764   2.319  0.0955  0.2143  0.5130
  606TIP3    H123453  -0.006   0.753   2.406 -0.1447 -0.8140  0.3018
  606TIP3    H223454   0.113   0.715   2.321 -0.8401 -1.5082 -0.3765
  607TIP3   OH223455   1.929   6.673   0.180  0.4073  0.1183  0.5914
  607TIP3    H123456   1.897   6.585   0.159 -0.3360  0.0750  1.7991
  607TIP3    H223457   2.015   6.678   0.137  1.5198 -2.0610  2.2904
  608TIP3   OH223458   0.910   2.322   2.699  0.2782 -0.3377  0.2031
  608TIP3    H123459   0.969   2.248   2.711  0.3167 -0.4661 -0.7648
  608TIP3    H223460   0.967   2.396   2.677  0.2362 -0.0148  1.1227
  609TIP3   OH223461   0.693   2.466   0.819 -0.2788 -0.3620  0.3815
  609TIP3    H123462   0.677   2.399   0.753 -1.2920  0.7196 -0.5208
  609TIP3    H223463   0.772   2.511   0.788  0.0256 -0.7130  0.6397
  610TIP3   OH223464   5.757   0.456   0.111 -0.3923 -0.3096  0.4978
  610TIP3    H123465   5.749   0.402   0.189 -0.5108 -0.0048  0.6975
  610TIP3    H223466   5.832   0.513   0.128 -0.7912  0.1733  0.6420
  611TIP3   OH223467   1.360   4.991   2.825 -0.1992  0.2606 -0.1576
  611TIP3    H123468   1.399   4.927   2.884 -0.9556 -0.1018 -0.0363
  611TIP3    H223469   1.424   5.061   2.819 -0.5596  0.8351  1.9704
  612TIP3   OH223470   0.384   1.069   2.913  0.3786  0.1022  0.4179
  612TIP3    H123471   0.408   1.022   2.994  0.3370  0.4754  0.6468
  612TIP3    H223472   0.295   1.101   2.929 -0.0448 -0.7271 -0.1858
  613TIP3   OH223473   1.453   3.561   3.494  0.9436 -0.1062  0.1938
  613TIP3    H123474   1.394   3.588   3.424  0.5137 -0.9118  0.2341
  613TIP3    H223475   1.495   3.642   3.522 -0.8263  0.6564  0.7833
  614TIP3   OH223476   1.441   4.440   0.817 -0.3824 -0.3174  0.5994
  614TIP3    H123477   1.525   4.394   0.815  0.9627  1.9111  1.5828
  614TIP3    H223478   1.406   4.430   0.728 -0.0866 -2.9587  0.7088
  615TIP3   OH223479   4.800   5.293   2.905 -0.8845  0.4307  0.0019
  615TIP3    H123480   4.868   5.355   2.932 -1.6937  0.2782  2.7891
  615TIP3    H223481   4.725   5.315   2.960 -1.8589 -1.6887 -0.3815
  616TIP3   OH223482   1.801   6.768   2.445  0.3503  0.1274  0.3608
  616TIP3    H123483   1.884   6.723   2.463  0.9910  0.5930 -1.2536
  616TIP3    H223484   1.744   6.700   2.409  0.4516  0.0589  0.3290
  617TIP3   OH223485   3.564   2.897   2.257  0.0936  0.4865  0.3139
  617TIP3    H123486   3.648   2.876   2.216  0.4266 -1.3857  1.8298
  617TIP3    H223487   3.499   2.851   2.205  0.2356  0.2931  0.3058
  618TIP3   OH223488   1.751   6.394   2.048 -0.0110  0.2319 -0.3017
  618TIP3    H123489   1.757   6.342   2.128  1.7293  0.2801 -0.3543
  618TIP3    H223490   1.827   6.453   2.052 -2.1300  3.1469 -0.0275
  619TIP3   OH223491   3.543   5.545   0.945  0.0177  0.1303  0.0321
  619TIP3    H123492   3.535   5.587   0.859  0.7638  0.4438  0.1081
  619TIP3    H223493   3.598   5.469   0.929 -1.3439 -0.8560 -0.1070
  620TIP3   OH223494   2.147   5.162   3.603 -0.8072  0.4436 -0.0100
  620TIP3    H123495   2.204   5.229   3.643 -0.8019  0.4105  0.0381
  620TIP3    H223496   2.172   5.162   3.511 -0.1451 -0.1528  0.1583
  621TIP3   OH223497   5.165   4.089   2.227 -0.5599 -0.3104  0.4374
  621TIP3    H123498   5.130   4.004   2.254 -1.1135 -0.3036 -0.2116
  621TIP3    H223499   5.090   4.134   2.189 -0.0400  0.0637 -0.1623
  622TIP3   OH223500   5.005   4.189   1.067 -0.0399  0.0992 -0.4817
  622TIP3    H123501   5.052   4.207   0.986 -1.0475  1.3763 -0.8061
  622TIP3    H223502   4.954   4.268   1.084  2.2646  1.0814  2.9429
  623TIP3   OH223503   0.838   0.379   2.775 -0.8344 -0.0617  0.2569
  623TIP3    H123504   0.880   0.433   2.842  0.6720 -0.5371 -0.2630
  623TIP3    H223505   0.748   0.368   2.806 -0.5603  0.9043  1.4777
  624TIP3   OH223506   1.395   3.909   4.767  0.4033 -0.3019 -0.0690
  624TIP3    H123507   1.472   3.962   4.787  1.0024 -0.2635 -2.2156
  624TIP3    H223508   1.321   3.964   4.793  1.0018 -0.8626  3.2945
  625TIP3   OH223509   2.221   0.778   4.108  0.0867  0.2316 -0.1734
  625TIP3    H123510   2.210   0.846   4.042 -0.0925  0.4684  0.0956
  625TIP3    H223511   2.299   0.805   4.156 -0.5950  0.8410  0.6274
  626TIP3   OH223512   1.638   6.204   1.261 -0.3613  0.6251  0.8853
  626TIP3    H123513   1.667   6.289   1.228 -1.8655  0.5355 -0.8352
  626TIP3    H223514   1.688   6.140   1.210 -1.0326  0.4807  0.4021
  627TIP3   OH223515   0.763   5.911   0.998  0.0969 -0.1785  0.5892
  627TIP3    H123516   0.797   5.966   0.928  2.1346 -0.9720  0.8798
  627TIP3    H223517   0.831   5.845   1.012 -1.3907 -1.5741  1.5919
  628TIP3   OH223518   4.986   4.951   1.086 -0.0508  0.0888  0.0753
  628TIP3    H123519   4.966   4.916   0.999  2.1853 -1.1292 -0.0166
  628TIP3    H223520   5.064   5.005   1.073 -0.7402  1.3605  1.0391
  629TIP3   OH223521   1.722   0.284   2.593 -0.2728 -0.2195  0.8920
  629TIP3    H123522   1.642   0.335   2.603 -0.5662 -0.5691  0.3795
  629TIP3    H223523   1.783   0.323   2.655 -0.6739  0.3812  0.9196
  630TIP3   OH223524   5.822   5.510   4.654  0.6890 -0.6334 -0.0149
  630TIP3    H123525   5.829   5.463   4.737  0.0759  0.8810  0.9286
  630TIP3    H223526   5.883   5.583   4.662  2.0628 -1.4963 -1.6913
  631TIP3   OH223527   1.214   4.117   4.800  0.0019  0.7866  0.2255
  631TIP3    H123528   1.250   4.204   4.817  0.7118  0.6564 -0.5615
  631TIP3    H223529   1.143   4.133   4.738  0.6861  0.7281 -0.5908
  632TIP3   OH223530   5.575   4.487   1.150 -0.0499  0.4241 -0.8772
  632TIP3    H123531   5.630   4.518   1.222  0.0821  2.4277 -1.7855
  632TIP3    H223532   5.604   4.396   1.135  2.3808  1.0992 -0.7133
  633TIP3   OH223533   1.379   4.741   1.481 -0.5034  0.0012 -0.5903
  633TIP3    H123534   1.439   4.803   1.522 -0.0975 -0.4325 -0.5091
  633TIP3    H223535   1.378   4.766   1.389  0.3151 -0.3731 -0.7154
  634TIP3   OH223536   6.329   0.834   0.537 -0.5673  0.1295 -0.3729
  634TIP3    H123537   6.399   0.793   0.590 -0.7008  0.8873  0.4083
  634TIP3    H223538   6.372   0.855   0.454 -0.2445 -0.7173 -0.4344
  635TIP3   OH223539   1.088   5.377   2.535  0.8526 -0.3936 -0.2217
  635TIP3    H123540   1.106   5.411   2.623  0.0725 -0.5167 -0.0048
  635TIP3    H223541   1.111   5.284   2.540  0.5016 -0.4724 -0.0508
  636TIP3   OH223542   3.106   5.536   2.940 -0.1780  0.5337  0.6261
  636TIP3    H123543   3.087   5.444   2.961 -0.4111  0.2451 -0.7564
  636TIP3    H223544   3.097   5.582   3.023 -1.3580 -0.5060  1.1027
  637TIP3   OH223545   2.075   2.138   2.129  0.1141 -0.4264 -0.1377
  637TIP3    H123546   2.117   2.183   2.056 -0.7106 -0.1321 -0.4451
  637TIP3    H223547   1.995   2.188   2.146 -0.7294 -1.6374 -0.3553
  638TIP3   OH223548   5.598   6.238   1.121  0.0332  0.0507  0.3250
  638TIP3    H123549   5.596   6.152   1.163  2.8374  0.9708  2.6585
  638TIP3    H223550   5.601   6.301   1.194  3.9356  1.8171 -1.0632
  639TIP3   OH223551   6.816   5.265   1.693 -0.4068  0.0757 -0.2666
  639TIP3    H123552   6.845   5.244   1.604 -0.3254  1.2884 -0.5439
  639TIP3    H223553   6.726   5.233   1.697 -0.3361 -0.1815 -0.7222
  640TIP3   OH223554   2.713   6.254   3.722 -0.2294 -0.8686  0.0208
  640TIP3    H123555   2.659   6.183   3.687  0.8297 -1.3530 -0.6774
  640TIP3    H223556   2.652   6.326   3.734 -1.3816 -1.9457  0.9529
  641TIP3   OH223557   0.322   2.772   3.025 -0.7767 -0.2979 -0.2749
  641TIP3    H123558   0.383   2.765   2.952  0.6647 -4.8494  1.0559
  641TIP3    H223559   0.370   2.822   3.092 -0.2499 -0.1253 -0.7727
  642TIP3   OH223560   4.274   1.822   1.473 -0.1442 -0.2287 -0.0461
  642TIP3    H123561   4.261   1.917   1.469 -0.9241 -0.2903  0.6216
  642TIP3    H223562   4.361   1.808   1.437  1.1951  1.0241  2.4377
  643TIP3   OH223563   3.729   0.847   2.994 -0.4569 -0.6471 -0.1977
  643TIP3    H123564   3.680   0.770   2.966 -1.0840 -0.6544  0.8614
  643TIP3    H223565   3.664   0.903   3.037 -0.0348  0.5332 -1.0542
  644TIP3   OH223566   3.033   4.305   1.440 -0.2604 -0.0776 -0.7187
  644TIP3    H123567   3.102   4.312   1.505  0.5634  0.0672 -1.5842
  644TIP3    H223568   2.974   4.238   1.474  0.1401  0.0125  0.1734
  645TIP3   OH223569   0.789   2.429   3.949 -0.0651 -0.1287 -0.2127
  645TIP3    H123570   0.812   2.518   3.921 -0.9297 -0.2514 -1.4539
  645TIP3    H223571   0.841   2.372   3.892 -0.8494 -0.3966 -0.6809
  646TIP3   OH223572   0.985   2.065   3.172 -0.1953 -0.5020  0.0524
  646TIP3    H123573   0.997   2.159   3.156 -0.5234 -0.9768 -4.4199
  646TIP3    H223574   1.074   2.031   3.180 -0.0873  0.1667  2.3868
  647TIP3   OH223575   5.082   4.426   2.305 -0.2001 -0.1230  0.1569
  647TIP3    H123576   5.173   4.457   2.302 -0.6234  1.4348  1.4936
  647TIP3    H223577   5.030   4.506   2.317 -1.9900 -0.7010 -2.8160
  648TIP3   OH223578   1.396   4.482   1.761  0.4631  0.0477 -0.1800
  648TIP3    H123579   1.404   4.409   1.699 -0.1560  1.2668 -1.7551
  648TIP3    H223580   1.469   4.539   1.739  0.0802  0.6287  0.0491
  649TIP3   OH223581   0.109   4.880   3.851  0.0993 -0.2232  0.2093
  649TIP3    H123582   0.193   4.871   3.806 -0.9555 -0.7956 -1.7966
  649TIP3    H223583   0.097   4.796   3.895 -0.1201 -0.7825 -0.8654
  650TIP3   OH223584   6.621   1.953   0.652 -0.0176  0.3115 -0.7069
  650TIP3    H123585   6.593   1.947   0.560 -0.8081 -1.3073 -0.4099
  650TIP3    H223586   6.573   2.028   0.687 -0.6608  0.2073 -1.3271
  651TIP3   OH223587   3.890   3.249   2.368  0.1578  0.3131  0.1900
  651TIP3    H123588   3.820   3.184   2.373  0.9229 -0.4486  1.5242
  651TIP3    H223589   3.850   3.324   2.325 -0.8455 -0.9005 -1.0819
  652TIP3   OH223590   5.018   1.834   4.149 -0.4069 -0.3413 -0.0838
  652TIP3    H123591   5.024   1.767   4.217 -1.6625 -0.5942 -0.1898
  652TIP3    H223592   4.961   1.901   4.187  1.9827  1.4238  0.5925
  653TIP3   OH223593   5.263   2.669   4.632 -0.0833  0.5142 -0.3199
  653TIP3    H123594   5.170   2.658   4.615  0.0057 -1.1338  0.0044
  653TIP3    H223595   5.268   2.690   4.726 -0.0482 -3.4233  0.7560
  654TIP3   OH223596   0.932   4.807   1.460  0.2140  0.1277  0.2697
  654TIP3    H123597   0.931   4.901   1.439  0.6935 -0.1966 -1.3789
  654TIP3    H223598   1.020   4.791   1.495  0.1507  0.2738  0.4999
  655TIP3   OH223599   5.734   2.357   3.920 -0.3655 -0.2400 -0.3237
  655TIP3    H123600   5.658   2.413   3.903 -0.9598 -0.2815  1.8616
  655TIP3    H223601   5.781   2.402   3.990  2.1745  0.2272 -2.1937
  656TIP3   OH223602   5.714   6.646   1.144 -0.0899 -0.9455 -0.2806
  656TIP3    H123603   5.684   6.645   1.053  1.4383  2.7008 -1.0334
  656TIP3    H223604   5.809   6.637   1.138  0.1679  0.6231  0.7462
  657TIP3   OH223605   2.889   6.020   1.423 -0.1930 -0.1934  0.4392
  657TIP3    H123606   2.901   5.940   1.372  1.0129  1.5767 -2.2829
  657TIP3    H223607   2.840   6.078   1.365 -0.9825  1.1046  2.3136
  658TIP3   OH223608   4.399   3.491   0.552  0.1044 -0.5035 -0.0336
  658TIP3    H123609   4.423   3.400   0.536  2.7402 -0.2004  1.6139
  658TIP3    H223610   4.303   3.490   0.556 -0.2889 -2.3233 -4.4881
  659TIP3   OH223611   2.607   4.048   2.920 -0.1104  0.3431  0.2205
  659TIP3    H123612   2.690   4.026   2.963  1.2154 -1.2604 -2.8243
  659TIP3    H223613   2.607   4.143   2.916  2.1741  0.3686 -0.6321
  660TIP3   OH223614   6.620   3.501   2.925 -0.3419 -0.0087  0.6936
  660TIP3    H123615   6.556   3.509   2.996 -0.3144 -1.0144  0.8533
  660TIP3    H223616   6.568   3.473   2.850 -0.3183  0.7188  0.3951
  661TIP3   OH223617   3.417   6.212   1.173  0.9109 -0.3541 -0.4612
  661TIP3    H123618   3.443   6.120   1.170 -0.3674 -0.7727  0.4493
  661TIP3    H223619   3.392   6.227   1.264 -0.8589  0.3183 -1.0117
  662TIP3   OH223620   4.330   2.332   1.291 -0.0791 -0.1756 -0.1539
  662TIP3    H123621   4.341   2.360   1.200  1.4666  1.4105  0.4709
  662TIP3    H223622   4.277   2.401   1.331 -0.9455 -0.9759  0.1174
  663TIP3   OH223623   4.245   5.734   2.865  0.9036  0.2954  0.3210
  663TIP3    H123624   4.322   5.757   2.918  0.9488 -0.8099  0.7678
  663TIP3    H223625   4.265   5.768   2.778  1.8560  0.1417  0.4669
  664TIP3   OH223626   0.177   0.307   4.442  0.0208  0.2679  0.0620
  664TIP3    H123627   0.097   0.359   4.455 -0.1951 -0.4085  1.8545
  664TIP3    H223628   0.247   0.361   4.479  0.3039  0.5781 -0.9055
  665TIP3   OH223629   3.362   4.764   1.594  0.5290 -0.5727  0.3561
  665TIP3    H123630   3.368   4.671   1.619 -0.3922 -0.9646 -0.7662
  665TIP3    H223631   3.341   4.762   1.501 -1.2394  0.7264  0.6657
  666TIP3   OH223632   1.619   0.684   4.109  0.1985 -0.2273  0.1320
  666TIP3    H123633   1.579   0.685   4.023  0.1176  0.0201  0.1692
  666TIP3    H223634   1.545   0.683   4.170  0.1849  1.8911  0.2232
  667TIP3   OH223635   6.413   4.777   3.443  0.1950 -0.4116  0.3509
  667TIP3    H123636   6.460   4.764   3.525 -0.1232  1.0009  0.7810
  667TIP3    H223637   6.381   4.867   3.447 -1.1366 -0.8034 -0.6570
  668TIP3   OH223638   3.153   2.356   1.806 -0.1045  0.1559 -0.4512
  668TIP3    H123639   3.157   2.425   1.873  1.0924  0.7198 -1.0734
  668TIP3    H223640   3.188   2.397   1.727  0.1519 -1.0169 -0.9652
  669TIP3   OH223641   4.204   3.990   3.987 -0.7234 -0.0778 -0.1173
  669TIP3    H123642   4.232   3.968   3.898 -1.7280 -1.3652 -0.1521
  669TIP3    H223643   4.182   3.906   4.027 -2.3301  0.6401  0.6240
  670TIP3   OH223644   4.443   3.793   3.806  0.3358  0.0958 -0.0842
  670TIP3    H123645   4.503   3.839   3.865 -1.6186  0.4628  1.7492
  670TIP3    H223646   4.386   3.862   3.773 -0.6230 -0.5686  0.1692
  671TIP3   OH223647   0.680   1.421   2.988  0.2126  0.2152  0.0531
  671TIP3    H123648   0.635   1.495   2.948  0.2554 -0.5825 -1.5763
  671TIP3    H223649   0.758   1.460   3.029 -0.2794  1.1845  0.0917
  672TIP3   OH223650   6.537   6.694   2.561 -0.0104 -0.4257 -0.3210
  672TIP3    H123651   6.449   6.669   2.591  0.8483 -4.5119 -0.5313
  672TIP3    H223652   6.533   6.685   2.465  1.4055 -4.8483 -0.2065
  673TIP3   OH223653   5.642   5.068   1.131  0.1856  0.0063  0.4370
  673TIP3    H123654   5.701   5.139   1.157 -0.6507  0.5376  0.9520
  673TIP3    H223655   5.636   5.074   1.036  2.2879 -1.1442  0.1920
  674TIP3   OH223656   0.237   4.685   0.671 -0.7323  0.0972  0.3632
  674TIP3    H123657   0.305   4.663   0.607 -0.5550  4.1993 -1.1715
  674TIP3    H223658   0.276   4.666   0.756  0.8226 -1.2146 -0.5891
  675TIP3   OH223659   1.450   1.704   4.124  0.2010  0.1425  0.0454
  675TIP3    H123660   1.386   1.645   4.165 -0.2080  0.5570  0.0126
  675TIP3    H223661   1.485   1.755   4.197  0.3005  0.1005  0.0268
  676TIP3   OH223662   0.280   6.116   8.523 -0.2564 -0.2313  0.4144
  676TIP3    H123663   0.361   6.120   8.472 -0.5167  0.5476  0.0527
  676TIP3    H223664   0.267   6.022   8.538 -0.0930 -0.4748 -0.8393
  677TIP3   OH223665   0.593   0.814   2.851 -0.0206 -0.0340  0.7398
  677TIP3    H123666   0.536   0.818   2.775 -0.5513 -1.3334  1.0342
  677TIP3    H223667   0.542   0.852   2.922 -0.1038 -0.1808  0.7600
  678TIP3   OH223668   6.771   6.765   2.298  0.2967  0.1878 -0.1093
  678TIP3    H123669   6.790   6.771   2.204  0.7641 -0.5247 -0.0637
  678TIP3    H223670   6.715   6.689   2.307  1.1981 -0.4406  0.3230
  679TIP3   OH223671   4.699   1.438   4.833  0.2877  0.1486  0.1363
  679TIP3    H123672   4.610   1.465   4.854 -0.0615  0.2831 -1.3659
  679TIP3    H223673   4.711   1.354   4.878  0.0467  0.9483  1.7563
  680TIP3   OH223674   3.578   4.401   2.167 -0.0319 -0.3113 -0.0975
  680TIP3    H123675   3.624   4.463   2.224 -0.0220 -0.9883  0.6407
  680TIP3    H223676   3.567   4.323   2.220 -1.5690 -0.3561 -0.4559
  681TIP3   OH223677   0.934   4.695   3.974 -1.1272 -0.0347 -0.4107
  681TIP3    H123678   1.019   4.738   3.965 -0.4132 -0.9593  1.3073
  681TIP3    H223679   0.876   4.744   3.917  0.1253  1.8630 -0.1532
  682TIP3   OH223680   3.973   2.740   0.584  0.0595  0.1404  0.0170
  682TIP3    H123681   4.019   2.824   0.589  0.5080 -0.1681  1.4395
  682TIP3    H223682   3.976   2.717   0.491 -1.4667  2.4339 -0.6736
  683TIP3   OH223683   5.246   5.600   4.460 -0.9487 -0.1110  0.3182
  683TIP3    H123684   5.264   5.623   4.551 -4.9628  0.9260  1.0384
  683TIP3    H223685   5.245   5.504   4.459  1.8057 -0.2349  0.6013
  684TIP3   OH223686   5.857   4.538   1.599 -0.2431  0.4686  0.3503
  684TIP3    H123687   5.840   4.444   1.614  0.0837  0.2228 -0.7544
  684TIP3    H223688   5.774   4.572   1.567  0.4872 -0.1670 -2.4422
  685TIP3   OH223689   2.220   3.148   3.417 -0.1449  0.2936  0.6085
  685TIP3    H123690   2.195   3.203   3.343  0.9885  0.5329  0.3781
  685TIP3    H223691   2.201   3.059   3.388  0.6739  0.3475 -0.1621
  686TIP3   OH223692   2.881   3.890   0.423  0.7348 -0.2323  0.0129
  686TIP3    H123693   2.820   3.902   0.351  0.3078 -1.5501  0.1251
  686TIP3    H223694   2.944   3.962   0.414  0.7212 -0.4003 -1.6835
  687TIP3   OH223695   5.106   3.039   4.161 -0.5215  0.3158  0.6141
  687TIP3    H123696   5.119   2.996   4.246 -1.6459 -1.4632 -0.0665
  687TIP3    H223697   5.175   3.002   4.105  1.0712  2.4562  1.0029
  688TIP3   OH223698   2.240   0.920   1.951  0.3520 -0.1160  0.1240
  688TIP3    H123699   2.242   0.945   2.044 -0.1048  0.1561  0.0674
  688TIP3    H223700   2.259   0.826   1.951  0.3179 -0.1271  0.5006
  689TIP3   OH223701   6.513   5.088   2.095  0.2994 -0.0680 -0.4755
  689TIP3    H123702   6.466   5.098   2.177 -1.6343 -2.3801 -1.1978
  689TIP3    H223703   6.536   5.178   2.069  1.8661  0.6902  2.9579
  690TIP3   OH223704   4.322   1.613   2.121 -0.5784  0.5003 -0.5740
  690TIP3    H123705   4.286   1.701   2.113 -1.7868 -0.0332 -1.2712
  690TIP3    H223706   4.270   1.560   2.060  0.0097 -0.7260 -0.0412
  691TIP3   OH223707   4.888   2.486   1.804 -0.1181  0.4697  0.2623
  691TIP3    H123708   4.864   2.461   1.715 -0.9688  1.3491  0.2323
  691TIP3    H223709   4.927   2.406   1.841  2.3163  0.6814 -1.5737
  692TIP3   OH223710   0.222   0.921   1.006 -0.7255 -0.1046 -0.1525
  692TIP3    H123711   0.129   0.900   0.997 -1.4767  2.9880 -0.7445
  692TIP3    H223712   0.264   0.881   0.930 -1.9596  0.3164 -1.0794
  693TIP3   OH223713   1.787   5.439   2.787 -0.6975 -0.3555  0.5292
  693TIP3    H123714   1.692   5.447   2.801 -0.8580 -1.3034  0.0499
  693TIP3    H223715   1.801   5.477   2.700 -0.5277  0.4109  0.8841
  694TIP3   OH223716   0.399   4.784   4.480 -0.0420  0.6927  0.2482
  694TIP3    H123717   0.368   4.694   4.476 -1.1746  1.1075 -1.1023
  694TIP3    H223718   0.409   4.802   4.574  0.7631 -0.9926  0.5183
  695TIP3   OH223719   5.433   2.024   0.576 -0.0592 -0.6985  0.1278
  695TIP3    H123720   5.432   2.101   0.632  0.1178  1.3197 -2.4529
  695TIP3    H223721   5.348   2.026   0.531 -0.5724 -2.7651  0.8922
  696TIP3   OH223722   2.246   6.686   1.384 -0.3294 -0.3051  0.8118
  696TIP3    H123723   2.323   6.715   1.433  0.8411 -1.6692 -0.1505
  696TIP3    H223724   2.199   6.768   1.363  0.4095  0.4811  2.0867
  697TIP3   OH223725   4.527   4.142   1.045  0.1339  0.6356  0.2588
  697TIP3    H123726   4.565   4.165   0.960 -0.1513  0.4327  0.0753
  697TIP3    H223727   4.549   4.049   1.056 -0.2407  0.5345  0.1843
  698TIP3   OH223728   3.125   4.715   2.681  0.0076  0.5658  0.3186
  698TIP3    H123729   3.113   4.747   2.592 -0.3120  3.6655  1.3362
  698TIP3    H223730   3.187   4.778   2.720  0.4555 -0.9440  2.1706
  699TIP3   OH223731   0.031   6.442   3.346 -0.9625  0.5686  0.2529
  699TIP3    H123732   0.007   6.350   3.352 -2.8361  1.1006  1.8601
  699TIP3    H223733  -0.022   6.485   3.413  0.2368  2.7514 -0.1151
  700TIP3   OH223734   4.858   6.423   5.004 -0.3609  0.9645 -0.3630
  700TIP3    H123735   4.853   6.393   5.095 -0.4831  1.6296 -0.1458
  700TIP3    H223736   4.768   6.414   4.971 -0.5890  1.8858 -0.0308
  701TIP3   OH223737   3.715   1.899   4.280  0.0182 -0.5600 -0.1859
  701TIP3    H123738   3.715   1.841   4.356 -0.9996  0.6950  0.8375
  701TIP3    H223739   3.630   1.883   4.238  0.0490 -0.3683 -0.3235
  702TIP3   OH223740   4.808   3.272   2.324  0.0115  0.2898  0.1067
  702TIP3    H123741   4.797   3.366   2.339  0.7409  0.3069  0.6001
  702TIP3    H223742   4.893   3.265   2.280  0.3364 -0.1997  0.7981
  703TIP3   OH223743   3.261   0.532   3.207 -0.0783 -0.3428  0.6877
  703TIP3    H123744   3.205   0.594   3.160 -0.5622  0.2861  2.0184
  703TIP3    H223745   3.200   0.474   3.253  0.3778 -1.2080  0.2261
  704TIP3   OH223746   1.852   1.068   1.620  0.0632  0.9338  0.2396
  704TIP3    H123747   1.802   1.084   1.540 -1.1458  0.7810  0.9358
  704TIP3    H223748   1.915   1.140   1.623  0.4826  0.6514 -1.1001
  705TIP3   OH223749   4.630   1.088   3.077  0.7624 -0.3663  0.6278
  705TIP3    H123750   4.715   1.092   3.033 -0.9095  2.1336 -2.8971
  705TIP3    H223751   4.584   1.015   3.035 -0.4810  1.4044 -1.3224
  706TIP3   OH223752   2.371   1.595   4.857  0.3534  0.6112  0.0889
  706TIP3    H123753   2.410   1.564   4.775  0.5638  1.9968 -0.3556
  706TIP3    H223754   2.288   1.635   4.831 -0.9285 -1.3585  0.9044
  707TIP3   OH223755   6.024   4.762   1.462  0.3595  0.3376 -0.0872
  707TIP3    H123756   5.966   4.811   1.520 -3.5037 -2.5770 -1.0706
  707TIP3    H223757   6.038   4.679   1.507  5.5932  1.4027  0.9186
  708TIP3   OH223758   5.169   2.939   0.589  0.8961 -0.4333 -0.0332
  708TIP3    H123759   5.194   3.031   0.578  0.2953 -0.0614  1.4566
  708TIP3    H223760   5.158   2.907   0.499 -1.3787  1.6621 -0.6261
  709TIP3   OH223761   2.702   0.655   3.389 -0.0984  0.2114  0.5437
  709TIP3    H123762   2.793   0.671   3.412  0.5634  0.0065 -1.7158
  709TIP3    H223763   2.683   0.567   3.422  1.1409 -0.5214 -0.6376
  710TIP3   OH223764   5.616   5.077   4.030  0.2706 -0.6319 -0.3170
  710TIP3    H123765   5.584   5.002   4.080 -1.1787  0.4988  0.5594
  710TIP3    H223766   5.708   5.058   4.013  0.1575 -2.1953  0.6400
  711TIP3   OH223767   5.443   1.640   1.941  0.3256  0.5211  0.1203
  711TIP3    H123768   5.449   1.579   2.014 -0.6637 -0.7155 -0.7708
  711TIP3    H223769   5.369   1.608   1.889  0.8296  1.5031 -1.2775
  712TIP3   OH223770   0.122   4.087   3.991  0.5777  0.2838 -0.3254
  712TIP3    H123771   0.157   4.105   3.904 -0.8495  1.1642 -0.7471
  712TIP3    H223772   0.097   3.995   3.989 -2.3810  1.0004 -1.9916
  713TIP3   OH223773   3.024   4.751   4.239 -0.0006  0.1874  0.1173
  713TIP3    H123774   3.016   4.830   4.292  0.2819  0.3291 -0.0467
  713TIP3    H223775   2.994   4.680   4.296 -2.1370  0.6397 -0.3639
  714TIP3   OH223776   4.739   1.285   1.625  0.1465  0.4533 -0.1719
  714TIP3    H123777   4.814   1.228   1.610  0.5426  0.7090  0.7704
  714TIP3    H223778   4.697   1.292   1.539  2.2306  1.7481 -1.1720
  715TIP3   OH223779   4.152   5.416   3.821 -0.1531 -0.1355  0.2055
  715TIP3    H123780   4.179   5.501   3.785 -0.3579  0.1917  0.8177
  715TIP3    H223781   4.058   5.412   3.804  0.0359 -0.7178 -0.7823
  716TIP3   OH223782   4.833   1.484   0.995 -0.0703  0.7407 -0.2929
  716TIP3    H123783   4.812   1.417   1.060  2.2519 -0.4408 -0.6612
  716TIP3    H223784   4.754   1.539   0.992 -0.7452  0.1309  2.5820
  717TIP3   OH223785   5.368   2.767   0.282 -0.5098  0.1879  0.1282
  717TIP3    H123786   5.399   2.678   0.301  0.3667  0.8978  2.4029
  717TIP3    H223787   5.435   2.824   0.321 -1.4531  1.8454 -0.5809
  718TIP3   OH223788   4.661   0.982   3.926  0.1953  0.2232  0.2080
  718TIP3    H123789   4.689   1.022   4.008  1.1307  0.1708 -0.0774
  718TIP3    H223790   4.740   0.978   3.872 -0.0205 -1.3703 -0.0296
  719TIP3   OH223791   2.836   5.779   3.022  0.3403  0.1108  0.1659
  719TIP3    H123792   2.766   5.842   3.042 -0.9757 -1.1933 -0.1276
  719TIP3    H223793   2.868   5.751   3.107 -0.1944 -0.0085  0.3357
  720TIP3   OH223794   3.078   1.329   0.893 -0.2361 -0.9036  0.0609
  720TIP3    H123795   3.132   1.261   0.934 -0.6105 -0.1467  1.9260
  720TIP3    H223796   3.037   1.375   0.967 -2.9308 -1.0208 -1.2333
  721TIP3   OH223797   1.127   2.824   2.625  0.0210 -0.4875  0.4903
  721TIP3    H123798   1.139   2.829   2.530 -0.4659  0.7489  0.4757
  721TIP3    H223799   1.213   2.843   2.661 -0.3170  1.6279  0.3021
  722TIP3   OH223800   2.066   1.233   2.272  0.5643 -0.1831  0.1668
  722TIP3    H123801   2.116   1.291   2.215  2.1988 -2.5858 -1.0351
  722TIP3    H223802   2.110   1.240   2.357 -0.7632  2.0500  0.7521
  723TIP3   OH223803   2.246   2.134   0.600 -0.5801 -0.1421 -0.0587
  723TIP3    H123804   2.319   2.186   0.567 -0.5271 -0.0786  0.1576
  723TIP3    H223805   2.168   2.179   0.569 -0.5349  0.0856  0.1574
  724TIP3   OH223806   4.521   0.822   3.295 -0.1899  0.2768 -0.1624
  724TIP3    H123807   4.503   0.794   3.205 -0.7907 -0.6795  0.2508
  724TIP3    H223808   4.511   0.743   3.348 -1.1550  1.1018  0.9277
  725TIP3   OH223809   5.905   5.531   0.979  0.0425 -0.4163  0.0842
  725TIP3    H123810   5.895   5.605   0.919  1.7903 -0.9222 -0.9118
  725TIP3    H223811   5.844   5.465   0.946 -0.8722  0.2257  0.4417
  726TIP3   OH223812   0.691   6.085   1.195 -0.4191  0.3856  0.0975
  726TIP3    H123813   0.664   6.026   1.265  1.5165  1.0295  1.4712
  726TIP3    H223814   0.726   6.028   1.127  2.0306 -0.1839  1.6707
  727TIP3   OH223815   3.220   2.138   1.579 -0.3474  0.1117  0.5574
  727TIP3    H123816   3.181   2.059   1.541  0.8604 -1.0226  1.5878
  727TIP3    H223817   3.162   2.160   1.652 -0.4005 -0.1140  0.5841
  728TIP3   OH223818   2.805   6.208   1.232 -0.1044  0.3500  0.1078
  728TIP3    H123819   2.748   6.243   1.164  0.8822  0.5523 -0.6417
  728TIP3    H223820   2.887   6.257   1.223  0.5420 -0.6247  0.4798
  729TIP3   OH223821   3.359   5.360   4.347 -0.4518  0.0285  0.2708
  729TIP3    H123822   3.432   5.403   4.391 -0.8957  0.9956  0.0752
  729TIP3    H223823   3.393   5.338   4.260 -0.4041  0.5089  0.1669
  730TIP3   OH223824   2.482   1.811   4.462 -0.3235 -0.2844  0.0163
  730TIP3    H123825   2.519   1.826   4.549  0.3903  1.9568 -0.6070
  730TIP3    H223826   2.398   1.769   4.478  0.3952 -1.1351  1.7077
  731TIP3   OH223827   3.379   4.345   1.328 -0.0528 -0.1919  0.6561
  731TIP3    H123828   3.428   4.264   1.314  0.4966  0.1777  0.4145
  731TIP3    H223829   3.289   4.323   1.303 -0.4285 -1.3960  2.8010
  732TIP3   OH223830   1.061   0.732   2.472  0.5454  0.3377 -0.0702
  732TIP3    H123831   0.993   0.669   2.446 -1.2395  2.0153  0.2307
  732TIP3    H223832   1.059   0.730   2.568  0.1372  1.1474 -0.0527
  733TIP3   OH223833   0.463   5.582   0.197 -0.3894 -0.6448  0.2191
  733TIP3    H123834   0.539   5.616   0.150  0.0793 -3.4328 -1.2940
  733TIP3    H223835   0.476   5.487   0.199 -1.0128 -0.9193  5.0092
  734TIP3   OH223836   2.292   3.823   3.338 -0.1932  0.7180  0.3004
  734TIP3    H123837   2.262   3.910   3.365 -3.2739 -0.4615  1.1001
  734TIP3    H223838   2.255   3.812   3.250  0.4275  0.3241  0.0895
  735TIP3   OH223839   5.192   4.742   1.671  0.4036 -0.3873 -0.6177
  735TIP3    H123840   5.177   4.647   1.669  0.9072 -0.5199  0.8205
  735TIP3    H223841   5.123   4.776   1.729  1.9626 -0.2752  1.2604
  736TIP3   OH223842   2.408   1.180   1.986 -0.0099  0.2987 -0.5273
  736TIP3    H123843   2.460   1.257   1.964 -0.3513  0.2507 -1.5889
  736TIP3    H223844   2.339   1.178   1.920 -1.8335  0.7659  1.2773
  737TIP3   OH223845   1.745   6.643   3.153  0.5507 -0.6954 -0.4567
  737TIP3    H123846   1.759   6.682   3.067 -2.2077  0.9508 -0.2672
  737TIP3    H223847   1.687   6.568   3.136  0.7282 -0.9144 -0.1204
  738TIP3   OH223848   2.768   0.185   2.191  0.0489 -0.3973 -0.0534
  738TIP3    H123849   2.752   0.137   2.272  0.0123 -0.1294  0.0971
  738TIP3    H223850   2.684   0.226   2.170 -0.1773 -1.1696 -0.6901
  739TIP3   OH223851   3.864   1.432   8.671  0.0930  0.5347 -0.6647
  739TIP3    H123852   3.832   1.518   8.700  0.2323  0.1346  0.7760
  739TIP3    H223853   3.902   1.394   8.750  1.1090 -0.3742 -1.5697
  740TIP3   OH223854   5.025   5.987   2.234  0.1700 -0.5991  0.7466
  740TIP3    H123855   5.082   6.059   2.264 -0.0672 -0.5642  1.1145
  740TIP3    H223856   5.044   5.915   2.295 -0.2794 -0.5431  0.9556
  741TIP3   OH223857   3.125   2.593   1.371 -0.2569 -0.7112 -0.1489
  741TIP3    H123858   3.038   2.633   1.374 -1.1646 -2.4073 -1.5619
  741TIP3    H223859   3.162   2.622   1.287  1.3111  1.3341  1.1494
  742TIP3   OH223860   6.315   1.146   2.034  0.0881 -0.0195 -0.1433
  742TIP3    H123861   6.382   1.095   2.081 -0.4852 -0.6243  0.0246
  742TIP3    H223862   6.337   1.134   1.941 -0.4765 -1.1800 -0.1320
  743TIP3   OH223863   2.161   5.109   1.137 -0.0740  0.3415  0.0453
  743TIP3    H123864   2.187   5.070   1.054  0.2949  0.3566  0.1504
  743TIP3    H223865   2.066   5.120   1.130  0.0249  0.8532 -0.5932
  744TIP3   OH223866   4.361   0.298   0.334 -0.0757 -0.1067 -0.4119
  744TIP3    H123867   4.316   0.216   0.312 -2.4029  1.1586 -0.7099
  744TIP3    H223868   4.445   0.292   0.289 -1.1112 -1.3684 -2.3177
  745TIP3   OH223869   3.910   1.008   2.367 -0.7540 -0.0468  0.4558
  745TIP3    H123870   3.919   0.947   2.440 -1.3063  0.6359  1.1056
  745TIP3    H223871   3.879   0.953   2.295  2.0426 -1.2111 -0.0087
  746TIP3   OH223872   0.269   4.678   1.659 -0.3458  0.3665 -0.0335
  746TIP3    H123873   0.205   4.663   1.729  0.4730 -0.6748  0.5287
  746TIP3    H223874   0.340   4.727   1.701 -0.6885  1.3887 -0.6176
  747TIP3   OH223875   1.980   0.118   3.767  0.2555 -0.0987  0.0435
  747TIP3    H123876   2.044   0.108   3.837 -0.0218 -0.0839  0.3047
  747TIP3    H223877   2.002   0.050   3.704 -0.0519 -0.7110  0.5823
  748TIP3   OH223878   2.099   3.101   4.384 -0.9560  0.4986 -0.5107
  748TIP3    H123879   2.077   3.084   4.475 -0.0156 -1.6407 -0.6218
  748TIP3    H223880   2.018   3.134   4.345 -1.5380  0.8419  0.9367
  749TIP3   OH223881   5.277   3.245   0.045  0.2009 -0.5273  0.1963
  749TIP3    H123882   5.286   3.303  -0.030  0.7763 -0.0538  0.6212
  749TIP3    H223883   5.356   3.260   0.097 -0.0954 -0.9874  0.7962
  750TIP3   OH223884   3.455   1.712   2.790 -0.6463 -0.4859 -0.2221
  750TIP3    H123885   3.375   1.672   2.757  0.1734 -0.2173 -2.7758
  750TIP3    H223886   3.526   1.667   2.744  0.7254 -0.7445  1.9969
  751TIP3   OH223887   4.349   1.421   4.348  0.2600 -0.1687 -0.3830
  751TIP3    H123888   4.300   1.502   4.356  0.9895  0.3297 -0.8932
  751TIP3    H223889   4.437   1.442   4.380  0.8344 -0.3760 -1.7260
  752TIP3   OH223890   3.059   4.251   2.991  0.0664  0.0541  0.1538
  752TIP3    H123891   3.018   4.328   2.951 -1.2245  0.5085  2.1750
  752TIP3    H223892   3.023   4.177   2.943  1.1204  0.6396 -1.6463
  753TIP3   OH223893   0.474   6.819   1.945  0.0461 -0.2601  0.0422
  753TIP3    H123894   0.528   6.816   2.024 -0.0816  1.6965  0.2584
  753TIP3    H223895   0.390   6.855   1.975 -0.1356  0.1249 -0.9014
  754TIP3   OH223896   5.671   5.885   2.202  0.2275 -0.3532  0.1043
  754TIP3    H123897   5.620   5.943   2.259 -1.5486 -1.4372 -0.2817
  754TIP3    H223898   5.668   5.926   2.116 -0.9201 -0.8860 -0.1395
  755TIP3   OH223899   5.565   0.194   1.520 -0.3229 -0.0330 -0.4868
  755TIP3    H123900   5.557   0.107   1.560  1.8372 -0.1673 -0.2219
  755TIP3    H223901   5.482   0.207   1.475 -1.5531 -1.2966  1.2750
  756TIP3   OH223902   3.459   4.646   3.662 -0.2880  0.2885 -0.2854
  756TIP3    H123903   3.521   4.575   3.678 -0.7178  0.0664  0.4727
  756TIP3    H223904   3.375   4.601   3.648 -0.2757  0.5772 -1.4019
  757TIP3   OH223905   0.248   4.061   1.709 -0.9187 -0.6000 -0.3542
  757TIP3    H123906   0.203   4.130   1.660  0.2397 -1.2085 -2.4060
  757TIP3    H223907   0.341   4.080   1.696 -0.5735 -1.3750  0.8111
  758TIP3   OH223908   3.140   6.755   2.092  0.0399 -0.1061 -0.2917
  758TIP3    H123909   3.161   6.825   2.154  1.5166  0.4798 -1.4121
  758TIP3    H223910   3.204   6.687   2.110  0.8748  0.3184 -1.5511
  759TIP3   OH223911   5.437   2.404   3.567 -0.3394  0.1096  0.1657
  759TIP3    H123912   5.395   2.469   3.510 -0.7134 -2.0574 -2.2289
  759TIP3    H223913   5.492   2.353   3.508 -1.0227 -2.5410  1.6550
  760TIP3   OH223914   3.429   0.394   4.058 -0.1888  0.9687  0.5273
  760TIP3    H123915   3.445   0.349   4.140 -0.2651  0.1434  0.0996
  760TIP3    H223916   3.341   0.367   4.032  0.4210 -0.0416 -0.5991
  761TIP3   OH223917   0.126   1.554   3.680  0.1191  0.4752  0.0924
  761TIP3    H123918   0.066   1.534   3.608 -0.5995  0.6321  0.6300
  761TIP3    H223919   0.213   1.555   3.640 -0.2561  0.4261 -0.7431
  762TIP3   OH223920   4.558   2.183   1.810 -0.6139  0.1363  0.8209
  762TIP3    H123921   4.633   2.187   1.752  0.0095 -0.4771  1.5734
  762TIP3    H223922   4.492   2.238   1.767 -0.8680 -1.7477 -1.4184
  763TIP3   OH223923   6.744   2.193   2.988  0.2327  0.2613  0.7254
  763TIP3    H123924   6.706   2.154   2.909  0.3644  1.1784  0.2005
  763TIP3    H223925   6.809   2.255   2.955  0.9047  0.0322  1.5808
  764TIP3   OH223926   6.469   6.506   0.462 -0.6662  0.2248  0.1791
  764TIP3    H123927   6.431   6.420   0.481 -1.6932  1.0357  2.0995
  764TIP3    H223928   6.561   6.488   0.441 -0.8344 -1.3233  0.6488
  765TIP3   OH223929   1.718   3.433   2.614 -0.6512  0.2257  0.1705
  765TIP3    H123930   1.705   3.515   2.661 -1.9020  0.1645 -0.0121
  765TIP3    H223931   1.759   3.458   2.532 -0.0409  0.5342  0.5669
  766TIP3   OH223932   1.248   6.447   8.481 -0.4538  0.3601 -0.0430
  766TIP3    H123933   1.169   6.435   8.428 -0.8152 -1.6305  0.8529
  766TIP3    H223934   1.264   6.361   8.519  1.2935  1.1056  1.0091
  767TIP3   OH223935   3.033   2.975   0.460 -0.1295 -0.0995 -0.0764
  767TIP3    H123936   2.975   3.023   0.402  0.7425 -0.8345 -1.6050
  767TIP3    H223937   3.105   3.036   0.478 -1.1509  0.6920  1.5546
  768TIP3   OH223938   1.541   2.729   4.617  0.2107  0.1479  1.0027
  768TIP3    H123939   1.483   2.687   4.552 -1.0946  0.7875  1.7103
  768TIP3    H223940   1.556   2.816   4.582  0.6837  0.0207  0.8772
  769TIP3   OH223941   2.912   5.214   2.555  0.1682 -0.3781  0.6941
  769TIP3    H123942   2.819   5.210   2.531  0.0879  0.3871  0.8518
  769TIP3    H223943   2.958   5.219   2.471  0.0400 -0.3732  0.6232
  770TIP3   OH223944   5.004   2.735   1.802 -0.1549  0.2434  0.1998
  770TIP3    H123945   5.095   2.722   1.828 -0.5357 -0.7842  1.1462
  770TIP3    H223946   4.966   2.647   1.804 -1.3360  0.7343  0.4946
  771TIP3   OH223947   1.803   4.760   3.232 -0.0323  1.0604  0.0961
  771TIP3    H123948   1.765   4.718   3.155  2.2982  0.8404 -1.0415
  771TIP3    H223949   1.829   4.847   3.202  1.3986  0.7766  0.4251
  772TIP3   OH223950   1.339   1.003   4.170  0.0161 -0.0251 -0.2258
  772TIP3    H123951   1.312   0.911   4.164  1.4563 -0.4772 -0.2134
  772TIP3    H223952   1.282   1.041   4.236  1.0031 -1.5646  1.6257
  773TIP3   OH223953   4.087   1.212   3.626  0.4674 -0.4863 -0.2898
  773TIP3    H123954   4.178   1.241   3.636 -0.3704  2.7272 -0.8382
  773TIP3    H223955   4.093   1.117   3.621  3.6412 -0.5031  1.1492
  774TIP3   OH223956   1.885   3.009   2.878 -0.2066 -0.0577  0.3350
  774TIP3    H123957   1.872   3.095   2.839  1.1483  0.8736  1.8121
  774TIP3    H223958   1.884   2.948   2.803 -1.5896  1.1622 -0.6846
  775TIP3   OH223959   2.015   2.874   3.061  0.0989  0.4315 -0.3296
  775TIP3    H123960   2.077   2.814   3.020 -0.5562 -0.5049  0.0118
  775TIP3    H223961   1.982   2.927   2.989 -0.6493 -0.8354 -0.9475
  776TIP3   OH223962   6.004   2.027   3.312  0.4020 -1.1737 -0.2304
  776TIP3    H123963   6.001   1.981   3.229 -0.9837 -0.7047 -0.4506
  776TIP3    H223964   5.915   2.022   3.347  0.7001 -0.4155  0.6998
  777TIP3   OH223965   0.133   2.242   3.726  0.1639 -0.2051  0.1532
  777TIP3    H123966   0.164   2.175   3.787  0.9023 -0.8337 -0.8728
  777TIP3    H223967   0.045   2.214   3.702  0.0881 -0.2642  0.5029
  778TIP3   OH223968   6.015   4.109   1.746  0.1553 -0.0343 -0.2291
  778TIP3    H123969   6.098   4.074   1.712  0.5344 -0.0910  0.7252
  778TIP3    H223970   6.030   4.118   1.840 -1.9893 -3.2377  0.5992
  779TIP3   OH223971   5.518   3.084   1.064  0.1013 -0.0552 -0.2503
  779TIP3    H123972   5.488   3.007   1.112 -1.3141  0.5053 -0.1991
  779TIP3    H223973   5.531   3.150   1.132 -4.4401  1.5942 -0.6495
  780TIP3   OH223974   3.505   0.056   2.638  0.0055  0.0952 -0.2218
  780TIP3    H123975   3.501   0.015   2.725 -1.5734  2.0095  0.7086
  780TIP3    H223976   3.462  -0.006   2.580  0.7427 -1.0499  0.4271
  781TIP3   OH223977   2.348   3.205   2.237 -0.5536  0.0079 -0.4077
  781TIP3    H123978   2.380   3.133   2.183 -0.2246 -1.1535  1.2616
  781TIP3    H223979   2.295   3.163   2.304  0.1590  1.2429  0.9927
  782TIP3   OH223980   0.912   5.098   2.290 -0.0665  0.0260  0.3026
  782TIP3    H123981   0.850   5.039   2.247 -0.1064 -0.2324  0.7095
  782TIP3    H223982   0.899   5.082   2.384  1.0618 -0.4855  0.3787
  783TIP3   OH223983   1.104   4.795   4.313 -0.1582 -0.2623 -0.1058
  783TIP3    H123984   1.179   4.735   4.312  0.6407  0.6155  1.9175
  783TIP3    H223985   1.123   4.857   4.242 -1.0864 -2.3673 -2.3512
  784TIP3   OH223986   6.518   0.639   0.648  0.6334  0.2745  0.1395
  784TIP3    H123987   6.518   0.552   0.609  0.0002  0.3678 -0.0761
  784TIP3    H223988   6.611   0.664   0.651  0.8648 -0.6020  0.6625
  785TIP3   OH223989   0.144   3.416   1.430 -0.0501  0.4581  0.0232
  785TIP3    H123990   0.091   3.487   1.466 -0.9759  0.0808 -0.5763
  785TIP3    H223991   0.082   3.347   1.409  0.3389  0.7881 -2.6658
  786TIP3   OH223992   5.696   6.022   1.956  0.4254 -0.2595  0.7431
  786TIP3    H123993   5.618   5.983   1.915  1.3885 -0.7892 -0.6600
  786TIP3    H223994   5.714   6.100   1.904  1.0408 -0.3424  0.8295
  787TIP3   OH223995   1.828   0.525   2.355  0.5570 -0.2451 -0.5704
  787TIP3    H123996   1.774   0.487   2.285 -0.6964  1.8524 -0.8380
  787TIP3    H223997   1.777   0.511   2.435 -0.4770  1.7787 -0.8290
  788TIP3   OH223998   2.388   3.658   2.834  0.4921  0.4077  0.1774
  788TIP3    H123999   2.301   3.634   2.865  0.2250  1.2791  0.1316
  788TIP3    H224000   2.416   3.729   2.892  0.5241  1.1704 -0.7266
  789TIP3   OH224001   4.479   4.519   4.369 -0.2489 -0.2909 -0.1641
  789TIP3    H124002   4.515   4.441   4.327 -0.3594  0.2028 -1.1883
  789TIP3    H224003   4.539   4.590   4.343 -1.3830  0.3645 -1.0846
  790TIP3   OH224004   1.576   2.933   4.006  0.1934  0.6386 -0.2470
  790TIP3    H124005   1.507   2.990   3.974  1.8927  3.4236  0.7304
  790TIP3    H224006   1.641   2.931   3.936 -0.2154 -0.8874 -0.6230
  791TIP3   OH224007   2.917   5.361   3.362 -0.1995 -0.0042 -0.4163
  791TIP3    H124008   2.919   5.428   3.293 -2.7135  0.1417 -0.4288
  791TIP3    H224009   2.933   5.410   3.443  1.4400  0.0204 -0.7126
  792TIP3   OH224010   5.385   1.364   4.565 -0.1629  0.2586 -0.1049
  792TIP3    H124011   5.343   1.278   4.560 -0.3702  0.4215 -2.9946
  792TIP3    H224012   5.311   1.426   4.563  0.0505  0.5005 -1.6079
  793TIP3   OH224013   6.024   4.135   1.307 -0.2925 -0.0563 -0.5123
  793TIP3    H124014   6.051   4.125   1.216 -1.2399  0.8859 -0.9099
  793TIP3    H224015   6.105   4.124   1.357  0.2090 -0.7218 -1.4481
  794TIP3   OH224016   1.448   1.421   2.781 -0.0414 -0.2757  0.0014
  794TIP3    H124017   1.424   1.335   2.748  1.0101 -0.4626 -0.3329
  794TIP3    H224018   1.540   1.432   2.754  0.0022  0.7174  0.5029
  795TIP3   OH224019   3.598   1.440   4.089  0.0309 -0.4688  0.2235
  795TIP3    H124020   3.679   1.488   4.071 -0.1001 -1.1750 -2.8393
  795TIP3    H224021   3.626   1.355   4.122  0.5539 -0.5590 -0.4334
  796TIP3   OH224022   6.827   2.568   2.151  0.2095  0.6697  0.6477
  796TIP3    H124023   6.916   2.544   2.173  0.3458 -0.8701 -1.3109
  796TIP3    H224024   6.830   2.663   2.136  1.5080  0.6320  0.5928
  797TIP3   OH224025   5.984   0.896   3.036 -0.4053 -0.1046 -0.7050
  797TIP3    H124026   5.959   0.846   3.114 -1.3403  1.0980 -0.2059
  797TIP3    H224027   5.902   0.930   3.001  0.2309  1.5174 -0.7166
  798TIP3   OH224028   3.082   0.707   3.095  0.0324  0.3330  0.3892
  798TIP3    H124029   2.998   0.731   3.055  0.7417  1.0907 -0.6655
  798TIP3    H224030   3.147   0.762   3.052  1.0561 -0.0430  1.3936
  799TIP3   OH224031   4.593   6.700   0.763 -0.2284  0.5323 -0.7824
  799TIP3    H124032   4.539   6.628   0.797  0.6071 -0.6998 -1.9858
  799TIP3    H224033   4.535   6.747   0.703 -1.2825  1.8901  1.1944
  800TIP3   OH224034   1.848   5.998   1.830  0.3061 -0.0932 -0.0428
  800TIP3    H124035   1.769   6.035   1.871  1.4267 -0.1373  2.3244
  800TIP3    H224036   1.919   6.056   1.857  1.3737 -1.1304 -0.5389
  801TIP3   OH224037   0.762   4.859   1.642  0.0318 -0.3918 -0.1822
  801TIP3    H124038   0.802   4.873   1.728 -0.5362 -1.4649  0.2729
  801TIP3    H224039   0.836   4.842   1.584  0.4064  0.1767  0.1176
  802TIP3   OH224040   5.234   4.945   2.613  0.2747  0.4435  0.0381
  802TIP3    H124041   5.181   5.008   2.565 -1.2176 -2.6279 -2.7414
  802TIP3    H224042   5.318   4.945   2.569  0.0654  0.1033 -0.3722
  803TIP3   OH224043   6.601   5.249   4.233  0.0451  0.3866  0.0789
  803TIP3    H124044   6.693   5.224   4.246 -0.3302 -0.3519  1.5818
  803TIP3    H224045   6.554   5.165   4.235 -0.4485  0.3886 -3.6709
  804TIP3   OH224046   3.878   4.510   3.878 -0.2890  0.4174  0.4683
  804TIP3    H124047   3.857   4.560   3.799  0.0433  1.5527  1.0751
  804TIP3    H224048   3.871   4.574   3.949  0.6352 -0.2883  1.2164
  805TIP3   OH224049   3.569   3.087   3.905  0.0437  0.0431 -0.7011
  805TIP3    H124050   3.646   3.056   3.953  0.1245 -1.6410 -1.8275
  805TIP3    H224051   3.566   3.032   3.827 -1.3429  1.2275 -1.5372
  806TIP3   OH224052   0.231   0.276   2.998 -0.0058 -0.3782 -0.0177
  806TIP3    H124053   0.255   0.195   2.953  3.4008 -0.0302  0.8408
  806TIP3    H224054   0.244   0.255   3.091 -0.5552  0.7240  0.3194
  807TIP3   OH224055   2.058   2.048   3.493  0.2088  0.5242 -0.0828
  807TIP3    H124056   2.115   1.972   3.478 -2.1736 -1.5357  0.6641
  807TIP3    H224057   2.115   2.113   3.534  1.7752 -1.8523  1.7588
  808TIP3   OH224058   3.967   2.415   2.958 -0.6769  0.1831 -0.2863
  808TIP3    H124059   3.904   2.345   2.938  0.5834 -1.2416  0.5092
  808TIP3    H224060   3.961   2.426   3.053 -0.2183  0.5255 -0.2932
  809TIP3   OH224061   2.963   0.048   0.405 -0.4281 -0.4557  0.1696
  809TIP3    H124062   3.020   0.001   0.465 -2.2104 -1.2901  1.2791
  809TIP3    H224063   3.021   0.074   0.333  1.2161 -1.7332  0.9602
  810TIP3   OH224064   4.192   5.239   2.341  0.2911 -0.2405  0.0729
  810TIP3    H124065   4.132   5.167   2.363 -1.5679  0.1357 -3.0488
  810TIP3    H224066   4.151   5.316   2.379 -2.7086  0.3609 -3.7088
  811TIP3   OH224067   4.705   4.787   2.746  0.3612 -0.5819 -0.0215
  811TIP3    H124068   4.639   4.839   2.700 -2.9417 -2.2303  2.4283
  811TIP3    H224069   4.727   4.840   2.823 -0.0652 -1.1172  0.4727
  812TIP3   OH224070   5.198   4.303   0.500  0.0045 -0.2251 -0.5513
  812TIP3    H124071   5.180   4.215   0.534 -0.2180 -0.0448 -0.1881
  812TIP3    H224072   5.145   4.361   0.556  1.2747  0.2755  0.1817
  813TIP3   OH224073   0.863   0.376   8.796  0.0560  0.3889  0.1581
  813TIP3    H124074   0.770   0.360   8.778 -0.1119  1.7054 -0.2254
  813TIP3    H224075   0.870   0.470   8.805  1.7951  0.6406 -2.5264
  814TIP3   OH224076   4.165   4.042   3.207 -0.2313 -0.6045 -0.1167
  814TIP3    H124077   4.077   4.055   3.170 -0.4397 -0.8981  0.2672
  814TIP3    H224078   4.214   4.000   3.137  0.5073  2.2618 -1.4578
  815TIP3   OH224079   2.003   1.970   4.344 -0.2072 -0.7165 -0.1123
  815TIP3    H124080   1.948   2.004   4.415  0.0454 -0.3398 -0.0958
  815TIP3    H224081   2.062   1.908   4.387  1.3679  1.0276  0.4049
  816TIP3   OH224082   3.304   4.652   0.986  0.8492  0.4366  0.2706
  816TIP3    H124083   3.287   4.744   0.968 -0.6341 -0.2368 -2.4910
  816TIP3    H224084   3.217   4.611   0.989  1.3361 -0.6805  3.3680
  817TIP3   OH224085   0.848   3.176   0.835 -0.1323  0.4421  0.0012
  817TIP3    H124086   0.805   3.169   0.920 -1.4575 -1.1419 -0.7360
  817TIP3    H224087   0.905   3.099   0.831 -0.6701  0.0750 -0.8373
  818TIP3   OH224088   6.800   3.693   1.307  0.1283 -0.8054  0.1490
  818TIP3    H124089   6.810   3.667   1.399  0.5374 -1.6969 -0.1365
  818TIP3    H224090   6.773   3.613   1.263 -0.4294 -0.2907 -0.4537
  819TIP3   OH224091   0.822   5.397   2.517 -0.0018 -0.2086  0.4964
  819TIP3    H124092   0.913   5.369   2.512 -0.5453 -2.3945  1.5784
  819TIP3    H224093   0.775   5.320   2.549 -2.3183  0.6912 -0.5347
  820TIP3   OH224094   1.367   3.144   1.032  0.1278  0.2502  0.3288
  820TIP3    H124095   1.333   3.086   1.101  1.7819 -3.7913 -1.9063
  820TIP3    H224096   1.460   3.155   1.053  0.3254  0.1946 -0.5107
  821TIP3   OH224097   6.594   6.761   3.771  0.2300  0.5820 -0.5046
  821TIP3    H124098   6.615   6.673   3.802  0.4196  0.6050 -0.5654
  821TIP3    H224099   6.597   6.815   3.850 -3.0593  0.0224  0.1700
  822TIP3   OH224100   0.512   4.147   1.699  0.1285 -0.0006  0.0893
  822TIP3    H124101   0.497   4.241   1.698 -0.3377 -0.0739 -0.3916
  822TIP3    H224102   0.535   4.125   1.608 -2.2500 -0.7090 -0.4098
  823TIP3   OH224103   1.719   6.752   1.970 -0.2022 -0.0977  0.1538
  823TIP3    H124104   1.789   6.818   1.975  0.9297 -1.2706  0.4695
  823TIP3    H224105   1.749   6.681   2.028 -0.2064 -1.9186 -1.9344
  824TIP3   OH224106   0.941   6.459   0.781  0.5573 -0.5374  0.1298
  824TIP3    H124107   1.034   6.475   0.773  0.9966 -3.2297 -1.4728
  824TIP3    H224108   0.904   6.542   0.812  3.3753  0.7293  0.3468
  825TIP3   OH224109   1.141   6.610   2.744  0.2348  0.0355  0.0381
  825TIP3    H124110   1.134   6.526   2.788  1.2907 -0.1607 -0.1433
  825TIP3    H224111   1.224   6.647   2.775 -0.3270  1.1141  0.2953
  826TIP3   OH224112   3.207   0.352   0.225 -0.1569 -0.1796 -0.6147
  826TIP3    H124113   3.226   0.441   0.193 -1.4028  0.5746  0.6393
  826TIP3    H224114   3.112   0.347   0.227 -0.1196 -0.8287  1.2179
  827TIP3   OH224115   0.120   3.236   3.813  0.3207  0.6945  0.3102
  827TIP3    H124116   0.136   3.252   3.720  0.1305  1.5356  0.4129
  827TIP3    H224117   0.065   3.157   3.815 -0.5616  1.2662 -0.3603
  828TIP3   OH224118   3.824   5.451   2.610  0.4062 -0.2219  0.6846
  828TIP3    H124119   3.836   5.533   2.658  2.4654  0.1380 -0.3310
  828TIP3    H224120   3.853   5.383   2.671  0.2621 -0.0589  0.9401
  829TIP3   OH224121   4.139   3.569   0.618 -0.1688 -0.6396 -0.0474
  829TIP3    H124122   4.105   3.573   0.708 -1.1390  0.8981 -0.4431
  829TIP3    H224123   4.195   3.646   0.611  0.3649 -1.0705 -0.5983
  830TIP3   OH224124   0.534   2.745   1.167  0.6243  0.2459  0.3857
  830TIP3    H124125   0.509   2.837   1.170 -1.0656 -0.0687 -1.7396
  830TIP3    H224126   0.478   2.703   1.233  0.1957  0.4905  0.1819
  831TIP3   OH224127   5.002   5.043   1.752  0.2353  0.2965 -0.7673
  831TIP3    H124128   4.934   5.098   1.713 -0.2090  1.4539  1.4747
  831TIP3    H224129   5.084   5.076   1.714 -0.2238  0.9016 -1.2506
  832TIP3   OH224130   4.242   4.246   2.400  0.0553  0.2879 -0.0733
  832TIP3    H124131   4.310   4.301   2.361  0.2776 -0.4629 -0.7708
  832TIP3    H224132   4.191   4.306   2.455  0.2011  1.2161 -0.9262
  833TIP3   OH224133   5.864   1.811   2.369  0.6051  0.0246 -0.3589
  833TIP3    H124134   5.830   1.725   2.391  0.3337 -0.2724 -1.8384
  833TIP3    H224135   5.856   1.816   2.274  2.3437  0.9459 -0.4894
  834TIP3   OH224136   6.695   6.191   3.272 -0.0521 -0.0436  0.4597
  834TIP3    H124137   6.747   6.186   3.192 -0.6675  2.7973 -0.2083
  834TIP3    H224138   6.605   6.175   3.244 -0.0077 -1.5544  1.0611
  835TIP3   OH224139   2.659   3.918   0.725 -0.5483  0.3709  0.1611
  835TIP3    H124140   2.602   3.994   0.733 -1.0982 -0.0134 -0.1245
  835TIP3    H224141   2.630   3.873   0.646  1.2395  1.0758 -0.9623
  836TIP3   OH224142   3.034   3.519   4.043 -0.8885 -0.3215 -0.6180
  836TIP3    H124143   3.014   3.581   3.973  0.0872 -0.8733 -1.4104
  836TIP3    H224144   3.030   3.433   4.000 -0.0517 -0.6520 -0.0574
  837TIP3   OH224145   1.490   0.403   2.638  0.0299 -0.3768 -0.3110
  837TIP3    H124146   1.425   0.365   2.696 -0.6092 -1.0495 -1.4425
  837TIP3    H224147   1.473   0.497   2.641 -1.2874 -0.5745 -0.9123
  838TIP3   OH224148   3.723   5.168   3.013  0.1139 -0.2567 -0.2583
  838TIP3    H124149   3.733   5.248   3.065  0.6388 -0.6309  0.2251
  838TIP3    H224150   3.650   5.122   3.054 -0.6971  0.3210 -1.0050
  839TIP3   OH224151   1.557   2.174   3.901 -0.6522 -0.6018  0.2231
  839TIP3    H124152   1.522   2.235   3.966 -1.9031 -1.3463  0.2747
  839TIP3    H224153   1.529   2.210   3.816  1.2191  0.5254  0.0145
  840TIP3   OH224154   3.044   1.755   0.485  0.0533 -0.6478 -0.1689
  840TIP3    H124155   3.104   1.791   0.551  2.0209 -0.8345 -1.7615
  840TIP3    H224156   3.092   1.765   0.402 -3.0667  1.4082 -1.9265
  841TIP3   OH224157   0.125   2.659   2.597 -0.2889  0.0281  0.2979
  841TIP3    H124158   0.085   2.578   2.629  1.7546 -1.2232 -0.0841
  841TIP3    H224159   0.203   2.629   2.550  0.9478  2.2814  0.7847
  842TIP3   OH224160   4.559   5.279   2.641 -0.2907  0.1949 -0.2197
  842TIP3    H124161   4.631   5.340   2.633 -1.3503  1.5003 -0.0846
  842TIP3    H224162   4.528   5.266   2.552  1.1266 -1.6945 -0.5010
  843TIP3   OH224163   3.397   2.285   1.395 -0.1582  0.6477  0.3534
  843TIP3    H124164   3.459   2.214   1.380 -1.5666 -0.6490  0.4072
  843TIP3    H224165   3.324   2.244   1.441 -1.7929  1.7569 -1.1250
  844TIP3   OH224166   4.325   1.254   2.691 -0.4550  0.3083 -0.6906
  844TIP3    H124167   4.255   1.191   2.675  0.8097 -1.0738 -0.9558
  844TIP3    H224168   4.312   1.283   2.781 -1.3353  0.0412 -0.7277
  845TIP3   OH224169   1.683   3.013   0.042  0.0644  0.1594 -0.8318
  845TIP3    H124170   1.744   2.970  -0.017  0.2985 -0.5008 -0.1246
  845TIP3    H224171   1.617   2.947   0.062  0.6695 -0.0603  0.6125
  846TIP3   OH224172   5.039   5.738   2.338 -0.7244  0.3553  0.0925
  846TIP3    H124173   5.119   5.686   2.341 -0.3148  0.9970  2.2435
  846TIP3    H224174   4.997   5.714   2.255  0.9304 -1.1106 -0.3711
  847TIP3   OH224175   6.528   6.582   4.958 -0.2189 -1.2213 -0.5509
  847TIP3    H124176   6.459   6.647   4.972  0.7352 -0.2664 -0.1169
  847TIP3    H224177   6.489   6.499   4.984 -0.5919 -0.4173  1.6310
  848TIP3   OH224178   3.699   3.904   0.042  0.2227 -0.1412 -0.2224
  848TIP3    H124179   3.739   3.906  -0.045  1.5810  0.1257  0.3847
  848TIP3    H224180   3.769   3.874   0.100 -0.6563 -0.2819  0.7874
  849TIP3   OH224181   6.096   6.004   1.833 -0.7124  0.2934 -0.0844
  849TIP3    H124182   6.176   5.980   1.880  0.2816 -0.1073 -1.8941
  849TIP3    H224183   6.052   5.921   1.816 -1.3836  0.4887  0.6412
  850TIP3   OH224184   4.088   0.760   2.147 -0.2367  0.1919 -0.9594
  850TIP3    H124185   4.105   0.711   2.227 -3.5662  1.0862  0.4399
  850TIP3    H224186   4.153   0.830   2.148  0.7672 -0.6940  0.0931
  851TIP3   OH224187   4.351   6.473   1.186  0.5939  0.3500  0.2418
  851TIP3    H124188   4.414   6.415   1.230  0.3818  0.3737  0.5744
  851TIP3    H224189   4.268   6.425   1.189  0.2923  0.9141  1.0114
  852TIP3   OH224190   5.263   6.027   0.818 -0.3501  0.1579  0.0874
  852TIP3    H124191   5.323   6.089   0.859 -0.9458 -0.2177  1.5687
  852TIP3    H224192   5.318   5.953   0.792 -0.0062  0.2957  0.4295
  853TIP3   OH224193   1.122   5.239   1.806  0.2472 -0.2036 -0.2507
  853TIP3    H124194   1.129   5.332   1.788  0.6341 -0.2871 -0.5523
  853TIP3    H224195   1.165   5.227   1.890 -0.9879  0.0876  0.4497
  854TIP3   OH224196   5.188   3.298   4.694  0.1721  0.2838 -0.2976
  854TIP3    H124197   5.258   3.239   4.722 -0.3896  0.1513  0.8642
  854TIP3    H224198   5.108   3.261   4.733 -0.4940  0.6577 -1.2642
  855TIP3   OH224199   4.126   5.616   0.800  0.7221 -0.1137 -0.1401
  855TIP3    H124200   4.136   5.589   0.709 -1.4950 -1.4194 -0.0642
  855TIP3    H224201   4.051   5.675   0.799  0.3878 -0.4979  0.8852
  856TIP3   OH224202   3.839   0.109   1.280  0.4429  0.2156  0.1926
  856TIP3    H124203   3.805   0.135   1.366  3.7018  0.6723  1.4821
  856TIP3    H224204   3.804   0.021   1.266 -0.7019  0.3991  1.6448
  857TIP3   OH224205   0.908   4.555   3.065 -0.2202 -0.4532  0.0550
  857TIP3    H124206   0.992   4.523   3.031  0.4747  2.3030 -1.1676
  857TIP3    H224207   0.859   4.580   2.987 -1.5650 -0.5925  0.8321
  858TIP3   OH224208   4.813   4.397   1.033  0.2788 -0.0420  0.2435
  858TIP3    H124209   4.888   4.457   1.036 -0.6226  1.2268 -0.8262
  858TIP3    H224210   4.742   4.451   0.996 -0.9939 -1.3629  0.6958
  859TIP3   OH224211   4.734   1.853   4.231 -0.0485  0.4984  0.3288
  859TIP3    H124212   4.664   1.793   4.205 -0.2587  1.2451 -0.9189
  859TIP3    H224213   4.770   1.815   4.311 -1.5623 -0.1485  0.7327
  860TIP3   OH224214   0.586   2.396   4.621  0.2649  0.0765  1.0990
  860TIP3    H124215   0.506   2.442   4.593 -0.2469 -1.6787 -0.5881
  860TIP3    H224216   0.560   2.350   4.701  0.0151  0.6371  1.3474
  861TIP3   OH224217   1.430   3.899   0.044 -0.1834  0.0007  0.5369
  861TIP3    H124218   1.367   3.928   0.109 -1.0232 -0.3686 -0.0851
  861TIP3    H224219   1.393   3.927  -0.040 -0.2918 -1.5287  0.0381
  862TIP3   OH224220   0.098   6.603   0.186 -0.4461  0.3104 -0.0029
  862TIP3    H124221   0.189   6.623   0.162 -0.7392  1.3626 -0.2715
  862TIP3    H224222   0.048   6.619   0.106 -0.8535 -0.4684  0.0848
  863TIP3   OH224223   4.118   6.433   1.586 -0.4336  0.1379  0.2863
  863TIP3    H124224   4.177   6.362   1.561 -1.0841 -0.5857  0.8015
  863TIP3    H224225   4.030   6.398   1.573 -0.7708  1.0259  0.0464
  864TIP3   OH224226   4.454   3.192   4.804 -0.4145 -0.2222 -0.4305
  864TIP3    H124227   4.491   3.278   4.823  0.2865  0.0507 -2.7056
  864TIP3    H224228   4.399   3.207   4.727 -2.8590 -1.2401  0.9869
  865TIP3   OH224229   2.768   6.542   3.542 -0.0208  0.7866 -0.0964
  865TIP3    H124230   2.711   6.466   3.553  1.8766 -0.5082  1.7128
  865TIP3    H224231   2.847   6.507   3.500  0.1005  2.1970 -1.1044
  866TIP3   OH224232   5.372   4.503   2.345 -0.2524  0.2258 -0.2133
  866TIP3    H124233   5.375   4.409   2.358  4.2856  0.4247  1.8373
  866TIP3    H224234   5.355   4.539   2.432  1.0847  1.3141 -0.3705
  867TIP3   OH224235   1.869   6.034   8.573  0.0239 -0.0033 -0.3668
  867TIP3    H124236   1.830   6.033   8.485  0.1513 -1.3108 -0.4363
  867TIP3    H224237   1.955   5.993   8.561 -0.4377 -1.3121  0.5525
  868TIP3   OH224238   2.525   6.809   2.080 -0.6690 -0.3092  0.3867
  868TIP3    H124239   2.439   6.838   2.048 -0.4985 -0.4322 -0.1972
  868TIP3    H224240   2.587   6.866   2.036 -0.4700  0.0706  1.1509
  869TIP3   OH224241   0.259   3.175   1.882 -0.4110 -0.0799  0.2406
  869TIP3    H124242   0.326   3.106   1.877  0.4285  0.7584 -0.4693
  869TIP3    H224243   0.205   3.151   1.958  1.5146 -0.0570  1.6948
  870TIP3   OH224244   1.670   0.018   2.686  0.7462 -0.6810  0.1121
  870TIP3    H124245   1.609  -0.031   2.630 -0.2316  0.1135  0.4502
  870TIP3    H224246   1.702   0.089   2.631  1.2912 -1.0246 -0.0259
  871TIP3   OH224247   0.834   2.992   1.782  0.2101  0.3717  0.2167
  871TIP3    H124248   0.837   2.959   1.872 -0.5018 -0.2635  0.0191
  871TIP3    H224249   0.858   3.084   1.790  1.1435  0.0807  0.9201
  872TIP3   OH224250   4.269   1.073   2.955 -0.0057 -0.1633 -0.1371
  872TIP3    H124251   4.321   1.154   2.950 -0.7299  0.2250 -2.2652
  872TIP3    H224252   4.291   1.026   2.875  1.5545 -2.8901  1.7307
  873TIP3   OH224253   2.419   2.617   1.151 -0.2673  0.4661  0.1916
  873TIP3    H124254   2.408   2.550   1.084  0.5774  0.0600  0.4467
  873TIP3    H224255   2.503   2.597   1.192 -0.4703  1.0875  0.9452
  874TIP3   OH224256   0.671   3.624   3.394 -0.2627  0.3513  0.7020
  874TIP3    H124257   0.734   3.693   3.416 -0.3310  0.4518  0.5835
  874TIP3    H224258   0.594   3.643   3.447 -0.1620  0.1808  0.9081
  875TIP3   OH224259   4.324   3.201   4.534 -0.1062 -0.2419 -0.3280
  875TIP3    H124260   4.236   3.179   4.563 -1.3447  0.4921 -3.2264
  875TIP3    H224261   4.344   3.138   4.465  0.8001  0.8673 -1.1123
  876TIP3   OH224262   6.802   3.417   2.077  0.0320 -0.3845  0.2598
  876TIP3    H124263   6.869   3.397   2.142  0.4902  0.5769  0.0914
  876TIP3    H224264   6.850   3.435   1.997 -0.0498  3.9920  0.9585
  877TIP3   OH224265   1.192   4.380   3.281 -0.2608  0.2670 -0.3666
  877TIP3    H124266   1.101   4.362   3.303 -0.5805  1.7709 -0.3287
  877TIP3    H224267   1.243   4.333   3.347 -1.0752  1.0358  0.8440
  878TIP3   OH224268   1.259   1.041   3.851 -0.5469  0.0404 -0.1092
  878TIP3    H124269   1.325   0.977   3.825  0.4384  0.6006  0.9252
  878TIP3    H224270   1.231   1.012   3.938 -1.1687  0.1964 -0.2556
  879TIP3   OH224271   0.688   0.535   2.140 -0.3145 -0.0632  0.1284
  879TIP3    H124272   0.729   0.451   2.159  1.1939  0.6510  0.1924
  879TIP3    H224273   0.689   0.542   2.045 -0.3963 -0.0789  0.1256
  880TIP3   OH224274   5.852   3.933   2.588 -0.1414 -0.2167 -0.2302
  880TIP3    H124275   5.924   3.981   2.629  0.5344 -0.2706 -1.3135
  880TIP3    H224276   5.784   3.999   2.573 -0.0116 -0.0100  0.0945
  881TIP3   OH224277   0.157   2.083   2.783 -0.2937 -0.6269  0.2807
  881TIP3    H124278   0.181   2.037   2.863 -0.0313 -0.2677  0.4107
  881TIP3    H224279   0.063   2.072   2.775 -0.7482  1.4443  1.9857
  882TIP3   OH224280   4.942   4.786   2.505  0.3056  0.1892 -0.3266
  882TIP3    H124281   4.948   4.829   2.420  0.1038 -1.7856 -1.4058
  882TIP3    H224282   4.895   4.704   2.487 -0.3186  0.0133  1.8075
  883TIP3   OH224283   0.204   1.267   2.470 -0.2910 -0.6093  0.0147
  883TIP3    H124284   0.184   1.175   2.457  0.0857 -0.7396  0.3221
  883TIP3    H224285   0.120   1.312   2.464 -0.3667 -0.8620 -1.0657
  884TIP3   OH224286   4.632   5.354   3.606 -0.1502 -0.7480 -0.4039
  884TIP3    H124287   4.587   5.437   3.619 -0.9339 -0.9629 -1.5740
  884TIP3    H224288   4.721   5.370   3.637 -0.3384  0.4776 -0.4495
  885TIP3   OH224289   1.975   5.075   0.785  0.3081 -0.2989 -0.1053
  885TIP3    H124290   2.024   5.153   0.760 -1.7312  0.7688 -1.0344
  885TIP3    H224291   1.918   5.104   0.856 -1.5680 -0.4442 -1.4580
  886TIP3   OH224292   4.131   3.628   2.395 -0.4310 -0.1413  0.0419
  886TIP3    H124293   4.058   3.638   2.455 -1.0969  0.1355 -0.7924
  886TIP3    H224294   4.100   3.566   2.329 -0.2937  0.7427 -0.8739
  887TIP3   OH224295   3.650   1.374   2.389 -0.2103 -0.3161 -0.4802
  887TIP3    H124296   3.736   1.389   2.350  0.3180 -0.9703  0.3809
  887TIP3    H224297   3.601   1.325   2.323  0.7613 -1.6597 -0.2408
  888TIP3   OH224298   5.948   0.459   3.433  0.0868  1.0178 -0.0778
  888TIP3    H124299   5.984   0.374   3.409  0.0765  0.3040  2.1977
  888TIP3    H224300   6.021   0.505   3.474 -0.3580  1.3985  0.3056
  889TIP3   OH224301   3.434   4.355   0.166 -0.0716 -0.2482 -0.9457
  889TIP3    H124302   3.376   4.281   0.183 -0.1038  0.4732  3.0969
  889TIP3    H224303   3.376   4.429   0.151 -0.2323  0.0811  1.1104
  890TIP3   OH224304   5.870   2.010   0.923  0.2146  0.1097  0.1389
  890TIP3    H124305   5.944   1.980   0.977 -0.5494 -2.1930  0.0158
  890TIP3    H224306   5.909   2.073   0.863  1.7339  0.2460  1.2030
  891TIP3   OH224307   4.400   4.928   2.276 -0.4631 -0.3382 -0.2605
  891TIP3    H124308   4.342   4.954   2.347  1.0320  1.0862  0.4896
  891TIP3    H224309   4.419   4.836   2.294 -1.4554 -0.4668  0.1971
  892TIP3   OH224310   3.635   6.019   2.959  0.0330  0.0217 -0.1580
  892TIP3    H124311   3.693   6.089   2.929 -0.2839  0.2493 -0.2392
  892TIP3    H224312   3.674   5.939   2.923 -0.8089  0.3658 -1.9259
  893TIP3   OH224313   2.980   3.121   0.736 -0.4875 -0.4390 -0.0797
  893TIP3    H124314   2.891   3.144   0.762 -0.2079  1.0559 -0.3585
  893TIP3    H224315   2.988   3.154   0.647  1.0066  1.4263  0.6735
  894TIP3   OH224316   2.885   0.305   1.456  0.7040  0.1225  0.6852
  894TIP3    H124317   2.855   0.300   1.365  1.4854  0.0175  0.4209
  894TIP3    H224318   2.909   0.397   1.468  0.4805  0.1623  0.8261
  895TIP3   OH224319   3.741   2.770   2.565 -0.5027  0.2305 -0.2979
  895TIP3    H124320   3.769   2.702   2.627  0.6496 -0.5922 -1.6388
  895TIP3    H224321   3.777   2.851   2.600  0.8408 -0.3497 -0.2730
  896TIP3   OH224322   1.088   3.288   3.039  0.4347 -0.0438 -0.0705
  896TIP3    H124323   1.061   3.358   2.979 -0.4490 -1.4172 -1.3597
  896TIP3    H224324   1.171   3.257   3.004 -0.4231 -1.3275 -1.1132
  897TIP3   OH224325   1.558   0.612   2.074 -0.5788  0.4441 -0.4763
  897TIP3    H124326   1.492   0.547   2.052  0.2218 -0.0767 -1.4147
  897TIP3    H224327   1.637   0.561   2.091 -0.4219  1.0464  0.7534
  898TIP3   OH224328   3.551   4.719   4.228 -0.1476 -0.3979 -0.3013
  898TIP3    H124329   3.544   4.685   4.317 -1.6349  0.1049 -0.2131
  898TIP3    H224330   3.530   4.644   4.172 -2.0491 -0.0212 -0.1403
  899TIP3   OH224331   3.322   3.287   1.596 -0.0470 -0.2743 -0.5403
  899TIP3    H124332   3.336   3.382   1.596 -0.3332 -0.1843  1.6579
  899TIP3    H224333   3.410   3.250   1.594  0.0940  0.0526 -0.5011
  900TIP3   OH224334   1.609   5.726   1.121 -0.1393  0.3776 -0.5247
  900TIP3    H124335   1.610   5.695   1.212 -2.0036  0.3354 -0.4879
  900TIP3    H224336   1.534   5.786   1.117  0.7796  1.5075 -1.6928
  901TIP3   OH224337   6.128   2.790   2.582  0.3666 -0.3197 -0.0842
  901TIP3    H124338   6.104   2.873   2.623  0.7601 -1.4536  2.6610
  901TIP3    H224339   6.220   2.778   2.605  0.6516 -0.9780 -1.4786
  902TIP3   OH224340   0.858   3.713   1.226  0.5070  0.2538  0.2849
  902TIP3    H124341   0.830   3.719   1.317 -0.9053 -4.0531  0.3420
  902TIP3    H224342   0.939   3.661   1.229  0.9111  0.7665 -0.9003
  903TIP3   OH224343   6.293   3.940   0.744 -0.5621 -0.3785 -0.4324
  903TIP3    H124344   6.224   3.971   0.685 -0.3225  0.5837 -0.2246
  903TIP3    H224345   6.356   3.897   0.686 -0.4821  0.2869 -0.8604
  904TIP3   OH224346   6.780   1.229   1.109 -0.4707  0.1930 -0.7881
  904TIP3    H124347   6.775   1.142   1.149  1.2478  1.4990  2.6776
  904TIP3    H224348   6.724   1.284   1.165  2.0376  2.1448 -0.0214
  905TIP3   OH224349   2.708   0.573   2.777 -0.4089  0.2547 -0.1652
  905TIP3    H124350   2.665   0.615   2.703  0.4995 -0.1797 -0.9701
  905TIP3    H224351   2.754   0.498   2.738 -0.1041 -0.1134  0.8742
  906TIP3   OH224352   6.182   2.575   4.456 -1.0591  0.2069  0.2385
  906TIP3    H124353   6.211   2.502   4.511 -0.8595  0.0715 -0.0421
  906TIP3    H224354   6.203   2.653   4.507 -0.4590  0.0965  0.1670
  907TIP3   OH224355   3.731   0.222   1.502 -0.0851  0.1697 -0.4658
  907TIP3    H124356   3.661   0.158   1.489  0.1436  0.4372 -3.7036
  907TIP3    H224357   3.692   0.305   1.475  0.9789  0.6007 -0.6863
  908TIP3   OH224358   4.431   4.432   2.972 -0.1523  0.1123  0.3860
  908TIP3    H124359   4.514   4.387   2.958 -0.4680 -0.3414 -0.0800
  908TIP3    H224360   4.365   4.368   2.946 -0.6338  0.6021  0.3912
  909TIP3   OH224361   6.704   1.632   4.071  0.4488  0.3232  0.0501
  909TIP3    H124362   6.699   1.654   4.164  4.5281 -1.8032  0.9786
  909TIP3    H224363   6.749   1.706   4.031 -2.3299  1.7880 -0.6447
  910TIP3   OH224364   0.478   4.904   2.342 -0.4135 -0.2722 -0.4554
  910TIP3    H124365   0.568   4.897   2.309 -0.0749  0.1133  0.3593
  910TIP3    H224366   0.426   4.927   2.265 -0.0219 -1.6940 -1.1869
  911TIP3   OH224367   1.970   5.146   3.141  0.0894  0.1754  0.3699
  911TIP3    H124368   2.052   5.096   3.136 -0.7225 -1.0282 -3.1156
  911TIP3    H224369   1.985   5.222   3.085 -0.7442  0.6855  0.8250
  912TIP3   OH224370   1.841   0.395   2.871 -0.2171 -0.2914  0.3951
  912TIP3    H124371   1.925   0.351   2.868  1.1294  1.7290  3.3818
  912TIP3    H224372   1.779   0.328   2.901  0.2795 -1.7352 -1.6200
  913TIP3   OH224373   3.865   3.733   2.894 -0.5719 -0.4582 -0.1461
  913TIP3    H124374   3.812   3.767   2.967 -1.8987  2.5020 -2.2907
  913TIP3    H224375   3.944   3.786   2.896 -0.1468 -1.0801 -0.2840
  914TIP3   OH224376   0.660   0.564   0.042 -0.4635 -0.0847 -0.0773
  914TIP3    H124377   0.675   0.658   0.047 -0.4641 -0.1496  1.5995
  914TIP3    H224378   0.567   0.555   0.019 -1.7277  0.4313  4.0425
  915TIP3   OH224379   6.555   1.276   4.112 -0.4965 -0.0109  0.1379
  915TIP3    H124380   6.609   1.284   4.191  0.8659  0.1439 -0.7716
  915TIP3    H224381   6.505   1.358   4.108 -0.5688 -0.0184  0.8256
  916TIP3   OH224382   1.518   2.040   1.166  0.3498 -0.6254 -0.1881
  916TIP3    H124383   1.528   2.117   1.223  0.6578 -0.4509 -0.4749
  916TIP3    H224384   1.490   1.970   1.225  0.2136 -0.3285  0.0997
  917TIP3   OH224385   1.166   2.692   2.375 -0.4381 -0.3171  0.2538
  917TIP3    H124386   1.229   2.633   2.417 -1.2389 -1.0935  0.3842
  917TIP3    H224387   1.081   2.650   2.387 -0.8267  0.0018 -1.1579
  918TIP3   OH224388   4.572   5.017   3.752 -0.3103  0.3941  0.0534
  918TIP3    H124389   4.556   5.097   3.802  0.6048  0.3153  0.4782
  918TIP3    H224390   4.494   4.963   3.768  0.0274  0.3069  1.5354
  919TIP3   OH224391   5.399   6.373   3.715  0.4940 -0.4359 -0.0550
  919TIP3    H124392   5.484   6.357   3.757  2.1757  1.5776 -2.4281
  919TIP3    H224393   5.398   6.467   3.698 -1.6882 -0.6104 -1.2364
  920TIP3   OH224394   5.460   6.765   4.104 -0.4187  0.2706  0.4308
  920TIP3    H124395   5.377   6.813   4.096 -1.0915 -0.8273  0.5597
  920TIP3    H224396   5.487   6.749   4.014 -1.3207 -0.9409  0.3398
  921TIP3   OH224397   6.429   1.675   1.287  0.8015 -0.0805  0.2318
  921TIP3    H124398   6.395   1.673   1.376  0.4316  0.0035  0.0928
  921TIP3    H224399   6.441   1.768   1.267 -1.8142  0.1275 -0.8135
  922TIP3   OH224400   5.843   2.974   3.081 -0.5696  0.4155  0.2416
  922TIP3    H124401   5.911   2.907   3.078 -0.6878  0.2605  0.7321
  922TIP3    H224402   5.769   2.930   3.124 -1.8049 -0.1399 -2.2871
  923TIP3   OH224403   0.003   5.217   1.964 -0.1117 -0.0858  0.4528
  923TIP3    H124404  -0.087   5.245   1.981  0.4111  1.8887  0.1586
  923TIP3    H224405   0.021   5.245   1.874  0.7992 -0.4384  0.5137
  924TIP3   OH224406   0.809   4.357   1.163  0.2182  0.2349  0.0238
  924TIP3    H124407   0.829   4.415   1.090 -0.8955  1.7851  0.8782
  924TIP3    H224408   0.894   4.337   1.202  0.6453  1.2407 -0.3605
  925TIP3   OH224409   0.042   5.743   0.386  0.6159  0.7464 -0.5954
  925TIP3    H124410   0.137   5.748   0.397  0.2946  2.3193  3.0889
  925TIP3    H224411   0.020   5.654   0.413  1.0746  0.0085 -2.5411
  926TIP3   OH224412   3.180   5.623   1.360 -0.1001 -0.3800 -0.5802
  926TIP3    H124413   3.170   5.548   1.301 -2.6895 -1.3450  0.9575
  926TIP3    H224414   3.091   5.653   1.377  0.7594  1.7538  0.5153
  927TIP3   OH224415   2.324   4.933   0.558 -0.0941 -0.1818 -0.2836
  927TIP3    H124416   2.299   4.996   0.626 -2.2144 -0.1814 -0.9762
  927TIP3    H224417   2.346   4.986   0.482  0.8779 -0.2256 -0.0453
  928TIP3   OH224418   3.236   1.005   3.947  0.1745 -0.1238 -0.0590
  928TIP3    H124419   3.240   1.086   3.998  0.4464 -0.8231  1.0547
  928TIP3    H224420   3.296   1.020   3.874 -1.2378  1.4111 -0.9798
  929TIP3   OH224421   1.238   1.870   3.120 -0.3789  0.3675  0.0787
  929TIP3    H124422   1.276   1.782   3.125 -2.1243 -0.5517 -1.5240
  929TIP3    H224423   1.277   1.908   3.041  0.6885  1.2401  0.9935
  930TIP3   OH224424   5.475   4.420   2.610 -0.0531  0.0008  0.3723
  930TIP3    H124425   5.446   4.331   2.629 -0.7242 -0.3506 -1.9084
  930TIP3    H224426   5.570   4.416   2.614 -0.0042 -1.2346 -1.0545
  931TIP3   OH224427   0.059   1.020   3.947  0.1621 -0.2504  0.2052
  931TIP3    H124428   0.117   0.991   3.876  1.5515 -0.2420  1.3060
  931TIP3    H224429  -0.024   1.038   3.903  0.1157 -2.9741 -1.0026
  932TIP3   OH224430   5.297   1.225   2.996  0.2737 -0.9001 -0.3584
  932TIP3    H124431   5.391   1.223   3.015  0.1484 -2.8804  0.3251
  932TIP3    H224432   5.269   1.313   3.021  2.1452  0.1763 -1.7704
  933TIP3   OH224433   3.317   4.638   0.667 -0.5795  0.3654 -0.2895
  933TIP3    H124434   3.263   4.652   0.745 -0.0523  1.4215 -0.0873
  933TIP3    H224435   3.328   4.544   0.661 -1.2669  0.2276  0.4747
  934TIP3   OH224436   5.586   4.046   3.890  0.1050  0.2617 -0.3499
  934TIP3    H124437   5.566   4.095   3.810  3.0114  1.9760 -0.1601
  934TIP3    H224438   5.583   4.112   3.960 -0.5744 -0.8380  0.6997
  935TIP3   OH224439   5.558   2.652   4.824  0.5564 -0.1515 -0.2098
  935TIP3    H124440   5.636   2.695   4.861 -0.1613  1.6783 -0.7114
  935TIP3    H224441   5.585   2.624   4.737  1.0730 -0.8590  0.1685
  936TIP3   OH224442   0.018   4.582   1.782  0.1103  0.1272 -0.1769
  936TIP3    H124443   0.014   4.500   1.732 -0.8459  0.7344 -1.1429
  936TIP3    H224444  -0.064   4.584   1.830  0.8056 -0.2014  1.0708
  937TIP3   OH224445   0.991   3.542   0.147  0.2250 -0.7041 -0.2637
  937TIP3    H124446   0.972   3.462   0.098 -0.5146 -1.4444  1.1519
  937TIP3    H224447   1.085   3.541   0.161  0.3235 -0.9213 -0.9123
  938TIP3   OH224448   4.533   6.181   2.204 -0.7297  0.4319 -0.5848
  938TIP3    H124449   4.468   6.148   2.141 -0.3798 -1.2005 -0.1374
  938TIP3    H224450   4.503   6.150   2.289  2.1790 -3.2506 -0.6382
  939TIP3   OH224451   3.676   6.014   0.712  0.1757  0.1373  0.6577
  939TIP3    H124452   3.613   6.054   0.651  0.3167 -0.6341 -0.0150
  939TIP3    H224453   3.658   5.920   0.706 -0.4214  0.0998  2.5146
  940TIP3   OH224454   0.042   1.626   2.873 -0.6357 -0.2034  0.0237
  940TIP3    H124455   0.117   1.678   2.843  0.0460 -2.1181 -1.8261
  940TIP3    H224456  -0.025   1.639   2.805 -1.3667  0.1457  0.7925
  941TIP3   OH224457   2.993   0.667   3.518 -0.1715 -0.0856  0.6125
  941TIP3    H124458   3.075   0.675   3.567  0.8472 -0.6620 -0.9078
  941TIP3    H224459   3.004   0.588   3.466 -0.0044  1.8495 -2.5830
  942TIP3   OH224460   2.375   1.739   5.146  0.2303  0.1250  0.5145
  942TIP3    H124461   2.379   1.660   5.092  0.4590 -0.3773  1.2463
  942TIP3    H224462   2.284   1.745   5.173  0.1360  0.3207  0.1478
  943TIP3   OH224463   4.542   2.357   2.050 -0.4010 -0.1245  0.3296
  943TIP3    H124464   4.524   2.305   1.972 -2.9842  1.1454 -0.0281
  943TIP3    H224465   4.607   2.422   2.022  0.0981 -0.8447 -0.2101
  944TIP3   OH224466   4.858   5.294   0.705  0.4491 -0.4551 -0.3964
  944TIP3    H124467   4.911   5.292   0.625  1.4687 -0.4574  0.2564
  944TIP3    H224468   4.773   5.327   0.677  1.2018  0.8248 -1.2462
  945TIP3   OH224469   4.904   4.430   2.023  0.0672  0.4214 -0.5528
  945TIP3    H124470   4.954   4.468   1.951 -1.6323  2.7236 -0.6223
  945TIP3    H224471   4.959   4.443   2.101  0.6187  0.6288 -0.9764
  946TIP3   OH224472   5.268   3.105   1.811  0.1957  0.3909 -0.2327
  946TIP3    H124473   5.317   3.119   1.730 -0.4632 -0.4514 -0.7994
  946TIP3    H224474   5.294   3.018   1.840 -1.1099 -0.1668 -0.6699
  947TIP3   OH224475   5.772   4.877   1.329 -0.0084  0.0198 -0.1961
  947TIP3    H124476   5.762   4.782   1.316 -0.0376 -0.2992  1.8444
  947TIP3    H224477   5.704   4.916   1.275 -0.9786 -1.2179  0.0941
  948TIP3   OH224478   0.250   6.603   3.432  0.5451  0.1184  0.3080
  948TIP3    H124479   0.221   6.687   3.465 -0.3257 -0.3227  0.6810
  948TIP3    H224480   0.171   6.550   3.425  1.0358 -0.5804 -0.2063
  949TIP3   OH224481   5.368   3.496   4.647  0.0515  0.1664 -0.3690
  949TIP3    H124482   5.437   3.431   4.639  0.3110  0.1080  1.6552
  949TIP3    H224483   5.287   3.445   4.648  0.2402 -0.1531  0.9446
  950TIP3   OH224484   3.942   3.927   0.903 -0.6722  0.4329 -0.5461
  950TIP3    H124485   4.009   3.953   0.966 -0.1712  1.2191 -1.3928
  950TIP3    H224486   3.964   3.836   0.881 -1.8926 -0.4845  1.7234
  951TIP3   OH224487   6.406   0.554   3.710  0.0765 -0.0273  0.1934
  951TIP3    H124488   6.427   0.638   3.669 -0.4633  0.1451  0.2644
  951TIP3    H224489   6.402   0.573   3.804  1.7073 -0.5031  0.4012
  952TIP3   OH224490   4.344   3.043   2.496 -0.3644  0.2104 -0.1966
  952TIP3    H124491   4.334   3.070   2.587 -3.0318 -0.0170 -0.3246
  952TIP3    H224492   4.429   3.076   2.469  0.2205  0.7955  2.2022
  953TIP3   OH224493   5.570   5.952   1.582  0.0023  0.0247 -0.1961
  953TIP3    H124494   5.564   5.857   1.583 -2.0480  0.1075  0.0114
  953TIP3    H224495   5.538   5.978   1.495  0.9483  0.5189 -0.4097
  954TIP3   OH224496   3.878   5.378   3.721 -0.0633 -0.1327 -0.2489
  954TIP3    H124497   3.897   5.285   3.711 -2.9786 -0.8578  0.0576
  954TIP3    H224498   3.904   5.417   3.638  0.3581 -1.3688 -0.7265
  955TIP3   OH224499   4.049   0.035   1.996 -0.7056  0.6768 -0.2996
  955TIP3    H124500   4.089   0.094   1.933 -2.0771  1.2539 -0.6619
  955TIP3    H224501   3.984   0.088   2.041 -1.0387 -0.2188  0.3153
  956TIP3   OH224502   1.367   4.790   2.365 -0.0912  0.5151  0.2626
  956TIP3    H124503   1.431   4.723   2.341 -0.2439  0.6668 -0.6003
  956TIP3    H224504   1.418   4.871   2.370 -0.0672  0.4918  0.3893
  957TIP3   OH224505   2.865   1.298   3.092 -0.0848  0.4487  0.3697
  957TIP3    H124506   2.934   1.335   3.037  1.7189 -2.0628  0.7440
  957TIP3    H224507   2.891   1.320   3.182 -0.3965  0.4597  0.4591
  958TIP3   OH224508   1.631   4.090   3.073 -0.1565  0.5137  0.4557
  958TIP3    H124509   1.567   4.019   3.074  0.1852  0.1300  3.1746
  958TIP3    H224510   1.580   4.168   3.094  0.1247  0.2974  2.0521
  959TIP3   OH224511   5.472   0.532   3.027 -0.2488 -0.2124  0.2993
  959TIP3    H124512   5.423   0.545   2.945  0.0930 -0.8185 -0.0083
  959TIP3    H224513   5.421   0.579   3.093 -1.2868 -0.8731 -0.0041
  960TIP3   OH224514   6.290   2.308   0.838 -0.5114  0.0526 -0.4198
  960TIP3    H124515   6.274   2.363   0.761 -0.8427  0.9182  0.2492
  960TIP3    H224516   6.218   2.329   0.898 -0.4426 -0.8593 -0.0087
  961TIP3   OH224517   6.374   0.351   4.135 -0.1102  0.2553 -0.5376
  961TIP3    H124518   6.285   0.335   4.168  0.2307  0.3699  0.4777
  961TIP3    H224519   6.400   0.268   4.095 -1.5551  0.9167 -3.0382
  962TIP3   OH224520   2.566   3.640   2.612 -0.1712 -0.5457  1.0490
  962TIP3    H124521   2.566   3.736   2.619 -0.6841 -0.4318 -0.1180
  962TIP3    H224522   2.523   3.610   2.692 -1.8865  0.3305  0.5133
  963TIP3   OH224523   2.818   1.272   1.571 -0.1921 -0.0525 -0.9165
  963TIP3    H124524   2.850   1.356   1.537 -0.2133  0.3133 -0.0368
  963TIP3    H224525   2.877   1.207   1.532  1.2361  0.5625  0.1306
  964TIP3   OH224526   1.785   6.076   1.463  0.2973  0.3876 -0.1461
  964TIP3    H124527   1.718   6.111   1.404  0.1266 -1.5437 -1.1588
  964TIP3    H224528   1.740   6.009   1.514  0.3381  2.2570  2.5585
  965TIP3   OH224529   2.385   1.582   0.274 -0.6805  0.3244  0.3337
  965TIP3    H124530   2.455   1.631   0.232 -1.7127  1.6676  0.1331
  965TIP3    H224531   2.347   1.529   0.203 -0.0177 -0.2666  0.4048
  966TIP3   OH224532   5.271   0.012   2.811  0.1457 -0.5252  0.2133
  966TIP3    H124533   5.180   0.016   2.781 -0.3767  0.2996  1.7677
  966TIP3    H224534   5.296   0.103   2.827  1.0831 -0.7748  0.2466
  967TIP3   OH224535   6.197   3.302   0.805 -0.0109 -0.2032  0.0514
  967TIP3    H124536   6.122   3.270   0.754 -0.0168  0.0221 -0.0859
  967TIP3    H224537   6.267   3.310   0.741 -0.7527  2.7066 -0.5437
  968TIP3   OH224538   4.011   4.740   3.425  0.5662  0.2055  0.4184
  968TIP3    H124539   3.986   4.670   3.364 -1.9409 -2.3075  3.9378
  968TIP3    H224540   3.963   4.817   3.394 -0.2396 -0.8438 -1.0404
  969TIP3   OH224541   4.570   2.809   4.280 -0.1108 -0.5862  0.1077
  969TIP3    H124542   4.649   2.771   4.318  0.0844 -0.9361 -0.6189
  969TIP3    H224543   4.521   2.734   4.245 -1.5416 -0.5629  1.8856
  970TIP3   OH224544   5.950   6.510   4.887 -0.4341  0.1622  0.0464
  970TIP3    H124545   6.018   6.446   4.907 -1.3141 -0.9997 -0.5476
  970TIP3    H224546   5.903   6.521   4.969  1.6669  2.5462  1.0430
  971TIP3   OH224547   0.818   0.210   2.556 -0.3305 -0.1836 -0.3347
  971TIP3    H124548   0.851   0.253   2.635  0.1912 -1.5177  0.2194
  971TIP3    H224549   0.878   0.137   2.542 -1.7452 -1.3601 -0.6065
  972TIP3   OH224550   4.528   1.669   4.171  0.0893  0.6353  0.5371
  972TIP3    H124551   4.546   1.595   4.229 -0.1911  1.1619  1.3115
  972TIP3    H224552   4.446   1.705   4.204 -0.5260  0.4364 -0.7146
  973TIP3   OH224553   2.894   4.292   3.362  0.2488  0.0850  0.0341
  973TIP3    H124554   2.848   4.281   3.445 -1.2327 -1.2337 -0.8981
  973TIP3    H224555   2.851   4.365   3.319  0.7681  0.5214  0.2344
  974TIP3   OH224556   6.395   4.204   4.435  0.0161 -0.8196  0.1965
  974TIP3    H124557   6.366   4.113   4.444  0.0792 -0.7644  1.0155
  974TIP3    H224558   6.346   4.252   4.501 -0.3570 -0.1687 -0.5437
  975TIP3   OH224559   4.885   1.958   1.832 -0.1700  0.3742 -0.0496
  975TIP3    H124560   4.878   2.026   1.899 -1.9157 -0.2090  0.4164
  975TIP3    H224561   4.967   1.913   1.851 -0.3196  0.6385  1.3058
  976TIP3   OH224562   1.931   1.516   2.511  0.0528  0.2226  0.3547
  976TIP3    H124563   2.005   1.472   2.553 -0.1466  0.2106  0.7005
  976TIP3    H224564   1.856   1.461   2.531 -0.0789  0.3307  0.1586
  977TIP3   OH224565   1.046   3.584   1.429 -0.0785  0.0341 -0.3027
  977TIP3    H124566   1.081   3.540   1.352  1.9872 -1.1796  1.2265
  977TIP3    H224567   1.110   3.651   1.450 -0.4587  0.1469  0.5296
  978TIP3   OH224568   3.363   4.584   3.363 -0.1743  0.4220  0.7721
  978TIP3    H124569   3.280   4.538   3.376  0.6503 -1.2951  0.2243
  978TIP3    H224570   3.347   4.672   3.398 -1.5402 -0.5297  2.7214
  979TIP3   OH224571   4.935   0.609   2.953  0.4290  0.4357 -0.6084
  979TIP3    H124572   4.990   0.578   3.025 -0.0864  0.7281 -0.0828
  979TIP3    H224573   4.917   0.530   2.902  1.4363  0.3563 -0.8663
  980TIP3   OH224574   6.147   4.449   2.531  0.5728  0.2465 -0.1792
  980TIP3    H124575   6.101   4.427   2.612  0.1129  1.0170 -0.2233
  980TIP3    H224576   6.161   4.543   2.537 -2.3046  0.9557 -2.4287
  981TIP3   OH224577   3.596   2.174   1.204  0.8370  0.7540  0.5261
  981TIP3    H124578   3.635   2.259   1.180  3.2803 -0.1201  1.1129
  981TIP3    H224579   3.509   2.176   1.164  1.9280  2.3161 -2.0799
  982TIP3   OH224580   3.262   6.215   3.346 -0.1159 -0.0512  0.2694
  982TIP3    H124581   3.193   6.162   3.386 -0.5023  1.4247  1.6498
  982TIP3    H224582   3.248   6.206   3.252 -1.4119 -0.7821  0.5173
  983TIP3   OH224583   5.834   3.562   3.124 -0.2207 -0.7363  0.7070
  983TIP3    H124584   5.849   3.657   3.121  2.1625 -1.0371  1.1686
  983TIP3    H224585   5.760   3.548   3.066 -0.1864  1.3431  0.0797
  984TIP3   OH224586   5.434   1.102   1.286  0.0720 -0.4787 -0.3922
  984TIP3    H124587   5.491   1.025   1.287  0.6682 -0.0755 -1.5363
  984TIP3    H224588   5.347   1.067   1.268  0.0371 -1.0415  0.7693
  985TIP3   OH224589   4.386   5.732   2.076  0.3190  0.3227 -0.0213
  985TIP3    H124590   4.446   5.806   2.070 -1.3409  1.9053  1.6712
  985TIP3    H224591   4.384   5.710   2.169  0.3989 -1.5669 -0.4264
  986TIP3   OH224592   1.264   3.412   2.310 -0.0413  0.8064  0.1261
  986TIP3    H124593   1.331   3.347   2.289  0.1437  0.7862  0.7653
  986TIP3    H224594   1.181   3.366   2.295  0.0851  0.5871  0.0888
  987TIP3   OH224595   5.985   4.811   4.098  0.2917 -0.6589 -0.5584
  987TIP3    H124596   5.961   4.750   4.168  0.1086  0.6737  0.5893
  987TIP3    H224597   6.065   4.855   4.130  1.0162 -0.9948 -1.8105
  988TIP3   OH224598   5.984   1.533   3.468 -0.8705 -0.0170 -0.3268
  988TIP3    H124599   6.074   1.524   3.499 -0.3753  0.5618 -1.5308
  988TIP3    H224600   5.959   1.622   3.495 -0.6852  0.2286 -0.9596
  989TIP3   OH224601   2.994   6.542   1.768 -0.1250  0.6321 -0.5781
  989TIP3    H124602   3.061   6.506   1.827 -0.5650  1.4143  0.4216
  989TIP3    H224603   3.008   6.636   1.771  1.6039  0.6451 -3.8624
  990TIP3   OH224604   4.810   5.580   4.157 -0.6817 -0.2201 -0.2179
  990TIP3    H124605   4.805   5.670   4.191  1.3604 -0.4879  0.9895
  990TIP3    H224606   4.740   5.534   4.203 -0.7537  0.4104  0.3286
  991TIP3   OH224607   6.251   0.977   1.075 -0.4488 -0.0377 -0.6913
  991TIP3    H124608   6.296   0.946   1.154 -0.0684 -0.8186 -1.2106
  991TIP3    H224609   6.299   0.938   1.003 -1.8480 -0.7594 -1.2637
  992TIP3   OH224610   3.740   4.428   2.399  0.2021 -0.1683 -0.4914
  992TIP3    H124611   3.792   4.508   2.410  1.1447 -0.8745  0.3803
  992TIP3    H224612   3.792   4.360   2.443 -1.9740 -0.7019  1.4262
  993TIP3   OH224613   2.958   1.796   0.826  0.2371 -0.1299 -0.5396
  993TIP3    H124614   3.003   1.718   0.793  0.8036  0.5449 -1.4219
  993TIP3    H224615   2.865   1.772   0.825  0.4975 -1.4140  0.9594
  994TIP3   OH224616   6.152   1.134   0.386  0.2148 -0.3322 -0.4697
  994TIP3    H124617   6.140   1.150   0.292 -0.6357 -2.0473 -0.6948
  994TIP3    H224618   6.147   1.039   0.395 -0.5036 -0.1584  1.4338
  995TIP3   OH224619   2.201   3.550   2.975 -0.1899  0.7340  0.0637
  995TIP3    H124620   2.169   3.465   2.948 -1.1302  0.6183  1.4310
  995TIP3    H224621   2.128   3.610   2.958 -0.6049  0.7483  1.7148
  996TIP3   OH224622   3.376   5.804   1.408  0.0220  0.1983 -0.1359
  996TIP3    H124623   3.324   5.884   1.416  1.1280  1.0482 -0.9805
  996TIP3    H224624   3.314   5.738   1.377 -0.1898  1.7698 -3.5271
  997TIP3   OH224625   1.290   2.069   2.089  0.1390  0.2484  0.1968
  997TIP3    H124626   1.336   2.080   2.173  1.2259  0.9769 -0.4715
  997TIP3    H224627   1.259   1.979   2.091  2.9801 -0.8368  0.0530
  998TIP3   OH224628   6.165   2.449   2.492 -0.2658  0.2887  0.0517
  998TIP3    H124629   6.161   2.410   2.579 -0.1798 -2.1747 -0.9652
  998TIP3    H224630   6.247   2.416   2.455 -0.1270  1.5671 -0.8672
  999TIP3   OH224631   0.325   3.199   4.174 -0.2560 -0.0874  0.1301
  999TIP3    H124632   0.331   3.121   4.229  2.1449 -0.3305 -0.3547
  999TIP3    H224633   0.411   3.205   4.132 -1.5317  0.8199 -2.5995
 1000TIP3   OH224634   3.928   0.758   3.163  0.1972  1.2159  0.0190
 1000TIP3    H124635   3.884   0.760   3.248 -1.5325 -0.8338 -0.7565
 1000TIP3    H224636   3.869   0.804   3.104 -0.8741 -1.2195 -0.9493
 1001TIP3   OH224637   5.172   3.010   3.290 -0.6894 -0.3952  0.1477
 1001TIP3    H124638   5.112   2.936   3.279  0.0443 -1.0734  0.5653
 1001TIP3    H224639   5.241   2.996   3.225 -1.1165  0.5328 -0.5244
 1002TIP3   OH224640   1.507   1.223   3.757  0.2560 -0.2366  0.0469
 1002TIP3    H124641   1.430   1.191   3.803  2.3819 -2.6914  2.2936
 1002TIP3    H224642   1.501   1.184   3.670 -2.1253  1.6461 -0.7511
 1003TIP3   OH224643   6.812   1.681   4.810 -0.0909 -0.0416 -0.2730
 1003TIP3    H124644   6.810   1.597   4.855  0.7134  0.4955  0.7994
 1003TIP3    H224645   6.893   1.679   4.759  1.5520  1.2289  2.1225
 1004TIP3   OH224646   1.846   5.166   0.382 -0.2397 -0.0130  0.0404
 1004TIP3    H124647   1.768   5.144   0.330  0.4468 -1.1516 -0.5458
 1004TIP3    H224648   1.894   5.229   0.327 -1.3205  1.6721  0.9412
 1005TIP3   OH224649   1.378   6.028   3.160  0.7714  0.2191  0.2062
 1005TIP3    H124650   1.292   6.019   3.119  1.1511 -1.4618 -0.3082
 1005TIP3    H224651   1.421   6.098   3.111  0.7733 -0.9481 -1.5327
 1006TIP3   OH224652   1.727   5.868   4.399  0.4349 -0.2911 -0.0515
 1006TIP3    H124653   1.790   5.806   4.362  0.7538 -0.4139  0.6617
 1006TIP3    H224654   1.767   5.896   4.482  0.8371  1.7668 -0.8904
 1007TIP3   OH224655   3.740   0.126   2.310  0.2738 -0.2699 -0.9229
 1007TIP3    H124656   3.742   0.169   2.395  1.2094 -0.5695 -0.7943
 1007TIP3    H224657   3.685   0.049   2.323 -0.7281  0.4150 -0.9476
 1008TIP3   OH224658   3.340   0.417   1.246 -0.0764  0.3703 -0.4135
 1008TIP3    H124659   3.393   0.462   1.179 -0.0244  0.4939 -0.2907
 1008TIP3    H224660   3.387   0.433   1.328 -0.1448  0.2265 -0.3462
 1009TIP3   OH224661   4.909   4.155   1.953  0.1962  0.0349  0.7723
 1009TIP3    H124662   4.999   4.145   1.925 -0.4267  1.0931 -1.8718
 1009TIP3    H224663   4.903   4.247   1.981 -0.1219  0.0586  0.6330
 1010TIP3   OH224664   0.899   4.829   0.735  0.2851 -0.4368 -0.0886
 1010TIP3    H124665   0.844   4.755   0.710 -2.0359  0.9815  0.5540
 1010TIP3    H224666   0.877   4.897   0.672  0.7250  0.4261  0.6666
 1011TIP3   OH224667   0.076   0.072   4.434 -0.0767  0.1504 -0.0685
 1011TIP3    H124668  -0.002   0.086   4.486  1.2276  1.6705  1.5945
 1011TIP3    H224669   0.118   0.158   4.429  2.2686 -0.8877  0.4137
 1012TIP3   OH224670   3.957   0.277   4.042 -0.2582 -1.0165 -0.1090
 1012TIP3    H124671   4.003   0.355   4.011  0.8383 -1.3076  0.7146
 1012TIP3    H224672   3.864   0.296   4.025  0.0607  0.0289 -0.8466
 1013TIP3   OH224673   0.677   2.757   0.600 -0.5137 -0.4220 -0.6118
 1013TIP3    H124674   0.612   2.692   0.573 -0.9567  0.6715 -2.3884
 1013TIP3    H224675   0.742   2.708   0.649 -2.5169 -1.6089  1.0232
 1014TIP3   OH224676   0.180   4.075   3.709 -0.3622 -0.4283  0.5464
 1014TIP3    H124677   0.088   4.066   3.684 -1.0831  0.7299  2.5914
 1014TIP3    H224678   0.218   3.988   3.692 -1.0650 -0.2210 -2.9140
 1015TIP3   OH224679   5.033   6.037   0.684 -0.3252  0.3928  0.2012
 1015TIP3    H124680   5.115   6.045   0.732  0.2086  2.9857 -0.9419
 1015TIP3    H224681   5.040   5.954   0.637  1.7751  0.6633 -0.0428
 1016TIP3   OH224682   2.496   5.625   2.812  0.5644  0.0332 -0.5240
 1016TIP3    H124683   2.433   5.642   2.882 -0.1770 -1.0374 -0.9051
 1016TIP3    H224684   2.545   5.707   2.803 -1.2011  1.1228 -0.6548
 1017TIP3   OH224685   4.443   4.200   2.600 -0.2421  0.1890  0.4258
 1017TIP3    H124686   4.371   4.173   2.543 -0.0130 -0.2195  0.3245
 1017TIP3    H224687   4.441   4.138   2.673  0.2963 -0.1293  0.1848
 1018TIP3   OH224688   2.013   1.760   2.957  0.7938  0.2085 -0.1419
 1018TIP3    H124689   2.035   1.795   2.871  2.2092  1.6298  0.7363
 1018TIP3    H224690   2.089   1.708   2.983 -0.0878 -1.1650 -0.1799
 1019TIP3   OH224691   4.126   2.337   4.431 -0.5746 -0.2647 -0.3657
 1019TIP3    H124692   4.127   2.297   4.518 -0.5997 -1.4729 -0.8927
 1019TIP3    H224693   4.094   2.267   4.373 -2.7630  1.1847 -1.0299
 1020TIP3   OH224694   2.503   1.378   8.796 -0.6236  0.1639 -0.4635
 1020TIP3    H124695   2.426   1.386   8.852 -0.2056  3.0728 -0.1514
 1020TIP3    H224696   2.571   1.341   8.853 -1.0276  0.2299  0.0619
 1021TIP3   OH224697   5.804   2.258   3.640  0.3981  0.2371 -0.1933
 1021TIP3    H124698   5.806   2.296   3.728  0.7624 -1.6421  0.6501
 1021TIP3    H224699   5.835   2.328   3.584  0.6732  1.3188  1.2418
 1022TIP3   OH224700   2.020   4.702   3.807 -0.3278  0.4119  0.1897
 1022TIP3    H124701   2.109   4.737   3.804  0.2660 -0.9980  0.8649
 1022TIP3    H224702   2.016   4.652   3.888 -2.2941  1.8217  1.0531
 1023TIP3   OH224703   5.070   2.687   1.042  0.5705 -0.0888 -0.1696
 1023TIP3    H124704   5.149   2.679   0.989  1.9500 -1.0676  1.9118
 1023TIP3    H224705   5.101   2.724   1.125 -0.8885 -1.8200  1.2141
 1024TIP3   OH224706   5.764   5.316   2.779  0.0701 -0.3168  0.1481
 1024TIP3    H124707   5.831   5.374   2.815  0.5469 -1.6184  1.4369
 1024TIP3    H224708   5.688   5.330   2.835  0.0016 -0.5184  0.1043
 1025TIP3   OH224709   5.486   0.588   3.647 -0.3006 -0.2668 -0.4745
 1025TIP3    H124710   5.416   0.591   3.582 -0.7823 -0.9297  0.0094
 1025TIP3    H224711   5.562   0.625   3.602 -0.8727  0.1528 -1.1092
 1026TIP3   OH224712   0.305   6.476   2.349 -0.2924 -0.0592 -0.0915
 1026TIP3    H124713   0.229   6.476   2.406  0.2341  0.6963  0.6243
 1026TIP3    H224714   0.286   6.542   2.283  1.1147  2.6541  2.0250
 1027TIP3   OH224715   2.923   3.861   1.704 -0.0691 -0.1135  0.3753
 1027TIP3    H124716   2.838   3.902   1.716 -1.0267 -1.2711 -1.9192
 1027TIP3    H224717   2.986   3.933   1.714 -1.4174  1.1011  0.4038
 1028TIP3   OH224718   1.609   1.170   4.432  0.5613  0.2146 -0.1650
 1028TIP3    H124719   1.597   1.079   4.460  2.5050  0.4228  1.7053
 1028TIP3    H224720   1.546   1.183   4.361 -1.1257 -1.9893  0.8130
 1029TIP3   OH224721   6.393   5.496   3.728 -0.1668 -0.1226  0.2636
 1029TIP3    H124722   6.299   5.481   3.726 -0.2914  0.6336  0.0959
 1029TIP3    H224723   6.417   5.510   3.637  0.3648 -1.7274  0.1245
 1030TIP3   OH224724   3.270   1.155   1.020  0.0692 -0.2433  0.8199
 1030TIP3    H124725   3.332   1.227   1.008 -1.7914  1.3680  0.3693
 1030TIP3    H224726   3.280   1.101   0.941  0.5697  0.2220  0.5606
 1031TIP3   OH224727   4.871   1.496   1.847 -0.1749  0.4798  0.2801
 1031TIP3    H124728   4.829   1.492   1.933 -2.0110  0.8254 -0.5461
 1031TIP3    H224729   4.798   1.505   1.785  1.0783  0.0112 -1.3375
 1032TIP3   OH224730   1.770   5.153   2.209 -0.4095  0.4463 -0.8729
 1032TIP3    H124731   1.838   5.094   2.242 -0.7041  0.4129 -0.3182
 1032TIP3    H224732   1.748   5.208   2.284 -0.2472  1.1651 -1.3458
 1033TIP3   OH224733   3.247   2.978   2.973 -0.0853 -0.3148  0.1209
 1033TIP3    H124734   3.163   3.006   3.010  0.4865  0.1391  1.1137
 1033TIP3    H224735   3.259   2.889   3.006 -0.0790 -0.3016  0.1542
 1034TIP3   OH224736   3.190   3.103   0.893 -0.4247  0.2183 -0.0794
 1034TIP3    H124737   3.223   3.025   0.848 -0.3561  0.3321 -0.2281
 1034TIP3    H224738   3.104   3.118   0.854 -0.6544 -0.0782  0.3083
 1035TIP3   OH224739   6.341   6.707   1.058 -0.2091  0.1964 -0.0146
 1035TIP3    H124740   6.249   6.730   1.059 -0.1955  0.3063  1.3425
 1035TIP3    H224741   6.386   6.787   1.083  0.1510 -0.1547  0.5006
 1036TIP3   OH224742   2.366   6.106   2.086 -0.2221  0.4288 -0.0186
 1036TIP3    H124743   2.411   6.041   2.142 -2.4702  0.4919  2.0296
 1036TIP3    H224744   2.273   6.093   2.105 -0.8710  2.7339 -1.3008
 1037TIP3   OH224745   5.322   5.754   2.909  0.2957 -0.1142  0.3977
 1037TIP3    H124746   5.239   5.800   2.892  0.7684  1.0673  1.2031
 1037TIP3    H224747   5.300   5.662   2.897 -0.2814  0.3351 -2.9921
 1038TIP3   OH224748   5.660   0.756   1.007  0.7293  0.0355  0.2111
 1038TIP3    H124749   5.696   0.741   0.920  3.6475 -1.1639  1.4968
 1038TIP3    H224750   5.658   0.669   1.047 -1.2576  0.4543  1.1534
 1039TIP3   OH224751   0.220   0.391   5.027  0.0534  0.2786  0.1316
 1039TIP3    H124752   0.154   0.458   5.045 -0.3358 -0.6725  2.5171
 1039TIP3    H224753   0.169   0.316   4.996  0.3460  0.5187 -0.9876
 1040TIP3   OH224754   1.005   3.525   1.769 -0.0363 -0.5656 -0.2393
 1040TIP3    H124755   0.952   3.579   1.828 -1.5140 -1.0112 -1.1079
 1040TIP3    H224756   1.095   3.544   1.794 -0.5807  0.4041  1.1383
 1041TIP3   OH224757   1.253   0.804   4.625  0.7970  0.7069  0.4269
 1041TIP3    H124758   1.255   0.896   4.601  1.7395  0.3593 -0.9518
 1041TIP3    H224759   1.224   0.759   4.546 -0.0762 -0.1593  1.2148
 1042TIP3   OH224760   1.855   2.372   2.941 -0.6562  0.1992 -0.3354
 1042TIP3    H124761   1.770   2.332   2.958  1.2011 -3.2320  1.9273
 1042TIP3    H224762   1.886   2.330   2.860 -0.0039 -0.7431  0.3753
 1043TIP3   OH224763   6.528   5.256   4.590 -0.4000 -0.3688 -0.2176
 1043TIP3    H124764   6.534   5.262   4.685 -0.6170  1.0380 -0.2726
 1043TIP3    H224765   6.471   5.180   4.575 -1.4092  0.1500  0.8112
 1044TIP3   OH224766   6.423   6.705   1.592 -0.3976  0.2420  0.6181
 1044TIP3    H124767   6.402   6.611   1.598  0.7933 -0.0620  0.2861
 1044TIP3    H224768   6.376   6.744   1.665 -1.2512 -0.5545  0.5114
 1045TIP3   OH224769   2.747   1.603   3.840  0.7388 -0.2107 -0.3107
 1045TIP3    H124770   2.725   1.652   3.919  2.4375  2.9785 -1.6221
 1045TIP3    H224771   2.662   1.579   3.802 -0.1146 -0.3317  1.5611
 1046TIP3   OH224772   5.637   4.609   3.339 -0.1153  0.6397  0.4943
 1046TIP3    H124773   5.546   4.632   3.355 -0.5624 -0.6300 -0.0511
 1046TIP3    H224774   5.686   4.651   3.410 -1.4605 -1.0004  2.5196
 1047TIP3   OH224775   5.839   2.242   1.504 -0.1286 -0.2141  0.1556
 1047TIP3    H124776   5.897   2.166   1.505 -0.3794 -0.4088  1.3875
 1047TIP3    H224777   5.898   2.317   1.500  0.1165 -0.4447 -1.4225
 1048TIP3   OH224778   3.764   2.056   4.612  0.0858  0.5266  0.3400
 1048TIP3    H124779   3.832   2.024   4.671 -0.2515  1.5105  1.2839
 1048TIP3    H224780   3.697   1.987   4.613  1.1233 -0.5531 -0.7698
 1049TIP3   OH224781   4.787   5.763   4.352 -0.2697 -0.3395  0.6802
 1049TIP3    H124782   4.753   5.812   4.426 -1.0087 -0.2102  0.2597
 1049TIP3    H224783   4.866   5.720   4.386  1.7238  2.8369  0.4961
 1050TIP3   OH224784   4.812   4.000   4.543 -0.2575  0.3528  0.1235
 1050TIP3    H124785   4.889   3.943   4.543 -1.8440 -1.9299 -0.8595
 1050TIP3    H224786   4.776   3.992   4.455 -0.7249  2.7185  0.0359
 1051TIP3   OH224787   4.866   2.379   2.820  0.1890 -0.7381  0.1910
 1051TIP3    H124788   4.953   2.363   2.783  0.9943  0.9181  1.2934
 1051TIP3    H224789   4.870   2.468   2.853 -1.1198 -1.4886  2.5510
 1052TIP3   OH224790   2.980   3.794   1.103  0.5095 -0.4768 -0.2816
 1052TIP3    H124791   2.907   3.836   1.149  0.5240 -1.2437  0.4885
 1052TIP3    H224792   2.946   3.774   1.016  0.6084  1.3793 -0.7887
 1053TIP3   OH224793   0.349   5.162   4.046 -0.0652  0.1813  0.3450
 1053TIP3    H124794   0.341   5.069   4.065  2.5687 -0.7917 -2.4693
 1053TIP3    H224795   0.408   5.196   4.113  0.0216 -0.4903  0.6114
 1054TIP3   OH224796   3.864   2.778   2.089  0.3831  0.5404  0.2232
 1054TIP3    H124797   3.795   2.765   2.024 -0.2977 -1.0514  1.2029
 1054TIP3    H224798   3.945   2.780   2.039 -0.3017  1.9129 -0.8976
 1055TIP3   OH224799   3.051   1.591   4.182  0.0589  0.3259  0.1034
 1055TIP3    H124800   3.114   1.630   4.122 -1.1739  0.1615 -1.3473
 1055TIP3    H224801   3.085   1.502   4.198  1.7322  1.1786  1.7310
 1056TIP3   OH224802   5.872   0.670   2.695 -0.2241 -0.1290  0.2944
 1056TIP3    H124803   5.792   0.694   2.648 -1.1283 -1.0769  1.2863
 1056TIP3    H224804   5.841   0.621   2.771  1.1962  0.9958  1.6846
 1057TIP3   OH224805   2.586   0.321   0.723  0.7307  0.3326 -0.3019
 1057TIP3    H124806   2.586   0.304   0.817  1.5394  0.6134 -0.2469
 1057TIP3    H224807   2.498   0.355   0.706  0.8599  1.1379  0.5233
 1058TIP3   OH224808   6.690   0.284   1.950 -0.1574 -0.2144 -0.3076
 1058TIP3    H124809   6.621   0.250   2.008 -0.3876 -2.6808 -1.9242
 1058TIP3    H224810   6.751   0.327   2.009 -1.5884 -0.5349  1.5012
 1059TIP3   OH224811   6.555   0.732   2.773 -0.0260  0.1508  0.4551
 1059TIP3    H124812   6.574   0.766   2.860 -1.0067 -1.5264  1.3677
 1059TIP3    H224813   6.542   0.811   2.719  1.6138  1.2238  1.5517
 1060TIP3   OH224814   5.498   4.171   1.668 -0.0046  0.2490 -0.4626
 1060TIP3    H124815   5.520   4.080   1.647 -0.9106  0.2482 -1.4981
 1060TIP3    H224816   5.570   4.222   1.631  0.9389 -0.0740  0.8515
 1061TIP3   OH224817   0.292   2.033   1.236  0.0924 -0.5239 -0.7778
 1061TIP3    H124818   0.380   2.064   1.258  0.5912 -1.6353 -1.1467
 1061TIP3    H224819   0.300   1.938   1.234 -1.5617 -0.7647  1.0561
 1062TIP3   OH224820   2.853   6.598   3.797 -0.2859 -0.0572  0.0474
 1062TIP3    H124821   2.855   6.572   3.705 -0.4923 -0.5033  0.1632
 1062TIP3    H224822   2.765   6.571   3.827 -0.2133  0.0667  0.3762
 1063TIP3   OH224823   0.769   4.163   3.087 -0.0130 -0.5655 -0.0913
 1063TIP3    H124824   0.696   4.164   3.148 -1.3228 -0.1390 -1.6160
 1063TIP3    H224825   0.828   4.096   3.122 -1.0707 -0.8595  1.2151
 1064TIP3   OH224826   4.521   0.856   2.973 -0.0918  0.2771  0.6967
 1064TIP3    H124827   4.516   0.884   2.882  0.4731 -0.3587  0.4573
 1064TIP3    H224828   4.583   0.783   2.972 -0.6600 -0.2335  1.4708
 1065TIP3   OH224829   3.481   5.039   3.112  0.0662  0.0355 -0.0320
 1065TIP3    H124830   3.398   4.993   3.126  0.3025 -0.2575  0.4391
 1065TIP3    H224831   3.471   5.121   3.162  0.3825 -0.3890  0.7464
 1066TIP3   OH224832   3.622   4.763   2.781 -0.3329 -0.0428 -0.0362
 1066TIP3    H124833   3.564   4.838   2.763  1.8687  1.6724 -0.4008
 1066TIP3    H224834   3.690   4.769   2.714 -0.4057 -2.7907 -0.4506
 1067TIP3   OH224835   3.959   0.729   0.983  0.0255  0.2449  0.0541
 1067TIP3    H124836   4.054   0.741   0.983  0.2018 -0.7896 -1.7161
 1067TIP3    H224837   3.944   0.654   1.041  0.4528 -0.4801 -0.7554
 1068TIP3   OH224838   1.145   4.992   4.077  0.3765 -0.0588 -0.1809
 1068TIP3    H124839   1.063   5.042   4.072 -1.7360 -2.9064  2.3431
 1068TIP3    H224840   1.140   4.931   4.003  1.8614  1.7646 -1.8961
 1069TIP3   OH224841   2.364   5.832   3.677 -0.0251  0.7521 -0.2045
 1069TIP3    H124842   2.273   5.862   3.678 -0.2635  0.0552 -0.7737
 1069TIP3    H224843   2.373   5.782   3.596  1.0002  1.2180 -0.4021
 1070TIP3   OH224844   3.584   5.646   2.439  0.0244 -0.4645  0.1840
 1070TIP3    H124845   3.503   5.671   2.393 -1.6588 -2.8523  1.6027
 1070TIP3    H224846   3.620   5.574   2.388  0.3320 -0.5051  0.4552
 1071TIP3   OH224847   0.578   6.380   3.958  0.3572  0.1758  0.4544
 1071TIP3    H124848   0.540   6.295   3.976  0.1805 -0.6840 -3.2207
 1071TIP3    H224849   0.530   6.441   4.014 -2.6604 -1.5751 -0.0335
 1072TIP3   OH224850   6.470   5.616   3.970 -0.0114  0.7153  0.0520
 1072TIP3    H124851   6.437   5.573   3.891 -1.7410 -1.2554  1.7088
 1072TIP3    H224852   6.563   5.626   3.955 -0.2333  0.0747 -2.0968
 1073TIP3   OH224853   2.363   0.285   4.608  0.1892  0.3679 -0.1007
 1073TIP3    H124854   2.416   0.251   4.680  2.0374 -2.4082 -2.5474
 1073TIP3    H224855   2.398   0.373   4.592  0.9709  0.3117  1.1873
 1074TIP3   OH224856   1.472   6.777   2.136 -0.0162  0.5165  0.0976
 1074TIP3    H124857   1.461   6.767   2.042  0.6065 -2.1700  0.2376
 1074TIP3    H224858   1.514   6.863   2.147  1.1382  0.2909 -2.1606
 1075TIP3   OH224859   5.821   4.373   2.383 -0.3993  0.2242 -0.3725
 1075TIP3    H124860   5.917   4.372   2.382 -0.3947  0.1441 -2.0396
 1075TIP3    H224861   5.799   4.440   2.448  0.7600 -0.3868  0.6940
 1076TIP3   OH224862   1.209   5.794   1.285 -0.5281  0.6851 -0.2172
 1076TIP3    H124863   1.199   5.710   1.241  0.9119  0.0464  0.6013
 1076TIP3    H224864   1.121   5.816   1.316 -1.2239  0.2997 -1.8519
 1077TIP3   OH224865   0.817   2.316   1.930  0.1822  0.5788 -0.1590
 1077TIP3    H124866   0.739   2.342   1.881  0.9520 -0.7212 -2.1869
 1077TIP3    H224867   0.843   2.396   1.977 -0.4199  2.0280 -2.1421
 1078TIP3   OH224868   6.793   6.489   1.092 -0.4847  0.2676  0.5539
 1078TIP3    H124869   6.722   6.528   1.042  0.2381 -1.5823 -2.1346
 1078TIP3    H224870   6.821   6.414   1.040 -0.9528 -3.1592  4.7116
 1079TIP3   OH224871   0.504   0.262   2.271  0.5192 -0.0347 -0.5757
 1079TIP3    H124872   0.495   0.252   2.365 -0.7916  1.5909 -0.4927
 1079TIP3    H224873   0.599   0.271   2.256  0.7325 -0.3020  0.5631
 1080TIP3   OH224874   3.223   4.495   3.617  0.2071  0.0216 -0.1425
 1080TIP3    H124875   3.198   4.464   3.529 -1.9146 -1.0471  0.7718
 1080TIP3    H224876   3.254   4.416   3.662  0.5877  0.4292  0.3169
 1081TIP3   OH224877   2.006   5.669   2.230  0.3808  0.9347  0.3179
 1081TIP3    H124878   1.940   5.702   2.169 -0.5102 -0.9221  0.2168
 1081TIP3    H224879   2.057   5.607   2.177  0.2973  0.1324  1.1630
 1082TIP3   OH224880   2.825   4.498   1.043 -0.3056 -0.1997  0.1163
 1082TIP3    H124881   2.873   4.532   1.118 -0.4550 -0.4418  0.3216
 1082TIP3    H224882   2.880   4.519   0.967 -0.5028  0.7224  0.2100
 1083TIP3   OH224883   1.245   1.617   3.877 -0.1980  0.5830 -0.3336
 1083TIP3    H124884   1.196   1.609   3.795 -1.6503  2.1553  0.3383
 1083TIP3    H224885   1.245   1.528   3.912  1.0282 -0.2700 -2.3041
 1084TIP3   OH224886   5.206   3.343   0.290 -0.3792  0.0903  0.2938
 1084TIP3    H124887   5.300   3.329   0.281 -0.4733 -0.3161 -0.0978
 1084TIP3    H224888   5.170   3.316   0.206 -0.8759 -0.0056  0.5356
 1085TIP3   OH224889   4.882   1.648   3.034  0.4082 -0.2448 -1.0066
 1085TIP3    H124890   4.832   1.724   3.004  2.3200  1.0668 -1.0809
 1085TIP3    H224891   4.973   1.678   3.035  1.1013 -2.1632  0.1828
 1086TIP3   OH224892   4.453   6.040   1.611  0.0199 -0.4611  0.0430
 1086TIP3    H124893   4.548   6.036   1.627 -0.1133 -1.1240  0.7720
 1086TIP3    H224894   4.420   5.957   1.646 -0.8510 -0.1659 -0.0576
 1087TIP3   OH224895   6.306   1.513   3.729  0.1402  0.5041  0.1815
 1087TIP3    H124896   6.349   1.554   3.804  0.0708  0.6864  0.1220
 1087TIP3    H224897   6.264   1.586   3.682 -0.8838  0.2504  0.6600
 1088TIP3   OH224898   4.421   0.968   1.847  0.5554  0.3326  0.0955
 1088TIP3    H124899   4.465   1.053   1.849 -1.8344  1.6295  1.5252
 1088TIP3    H224900   4.417   0.941   1.938 -0.1301 -0.5486 -0.1837
 1089TIP3   OH224901   0.023   0.843   2.018 -0.4843 -0.6040 -0.0121
 1089TIP3    H124902   0.038   0.850   2.112  2.1467  3.1155 -0.4813
 1089TIP3    H224903   0.105   0.810   1.983 -0.2572  1.0651 -1.1742
 1090TIP3   OH224904   3.749   4.184   3.853 -0.1106 -0.1329 -0.5367
 1090TIP3    H124905   3.762   4.189   3.758 -0.1456 -0.3761 -0.5536
 1090TIP3    H224906   3.734   4.091   3.871  0.2295 -0.1367 -0.2473
 1091TIP3   OH224907   3.959   4.566   2.861  0.1294 -0.3571  0.2929
 1091TIP3    H124908   3.988   4.635   2.802  0.8398  0.9518  2.1046
 1091TIP3    H224909   4.036   4.545   2.914 -0.4001 -1.7121  0.5613
 1092TIP3   OH224910   6.531   5.483   1.615  0.6913  0.4757 -0.1580
 1092TIP3    H124911   6.587   5.560   1.625  0.4054  0.8926 -1.5896
 1092TIP3    H224912   6.578   5.427   1.553  0.9361 -0.5752  0.9234
 1093TIP3   OH224913   1.685   5.316   3.376 -0.1046 -0.4794  0.4553
 1093TIP3    H124914   1.618   5.339   3.440 -0.4511 -2.2507  0.7754
 1093TIP3    H224915   1.731   5.242   3.415  0.5862 -0.7023 -0.7373
 1094TIP3   OH224916   5.617   5.948   3.420  0.1275 -0.5697  0.0830
 1094TIP3    H124917   5.647   5.933   3.509  1.2189  0.0279 -0.1566
 1094TIP3    H224918   5.545   6.010   3.428  1.6227  1.2327  0.4541
 1095TIP3   OH224919   4.079   3.844   1.927 -0.7875  1.0533  0.5267
 1095TIP3    H124920   4.165   3.878   1.951 -0.2459 -1.4795  2.5943
 1095TIP3    H224921   4.095   3.755   1.898 -2.7447  0.2816  1.5818
 1096TIP3   OH224922   5.007   6.255   4.716 -0.5334 -0.4052  0.3212
 1096TIP3    H124923   4.942   6.185   4.723  0.1790 -1.2894 -1.4570
 1096TIP3    H224924   5.091   6.209   4.709  0.0558  0.6649  0.1691
 1097TIP3   OH224925   0.696   5.313   1.377  0.0699  0.1336  0.2218
 1097TIP3    H124926   0.787   5.338   1.392  0.4195 -0.2197 -1.1957
 1097TIP3    H224927   0.672   5.357   1.295  0.6360 -3.7675 -2.2911
 1098TIP3   OH224928   6.460   0.403   2.069  0.6360  0.2381  0.0477
 1098TIP3    H124929   6.515   0.479   2.087  0.3572  0.2844  0.7469
 1098TIP3    H224930   6.403   0.396   2.146 -2.3857  1.9588 -1.8077
 1099TIP3   OH224931   4.290   0.324   3.533 -0.0263 -0.2707 -0.8518
 1099TIP3    H124932   4.263   0.310   3.624 -1.1771  0.6145 -1.0353
 1099TIP3    H224933   4.270   0.242   3.489  0.9070 -0.8462 -0.2396
 1100TIP3   OH224934   1.183   5.079   1.275 -0.1664  0.4798  0.3137
 1100TIP3    H124935   1.253   5.113   1.219  0.6140  0.1709  1.0905
 1100TIP3    H224936   1.202   5.115   1.361 -1.5779  1.2700  0.3250
 1101TIP3   OH224937   2.222   6.433   2.813  0.0149 -0.0483  0.3346
 1101TIP3    H124938   2.135   6.401   2.791 -0.3628 -0.4936  2.2850
 1101TIP3    H224939   2.225   6.522   2.778  0.1878 -1.2363 -3.0390
 1102TIP3   OH224940   1.400   1.196   1.521  0.0948 -0.2581  0.3264
 1102TIP3    H124941   1.324   1.158   1.564  0.0814 -1.2516 -0.5420
 1102TIP3    H224942   1.364   1.268   1.469  0.0629  0.7028  1.6223
 1103TIP3   OH224943   4.935   0.161   2.621 -0.6853 -0.1906  0.2681
 1103TIP3    H124944   4.849   0.151   2.581  0.2173 -0.8814 -1.6451
 1103TIP3    H224945   4.964   0.071   2.637 -0.4174  0.0422  1.1270
 1104TIP3   OH224946   0.389   5.946   1.923  0.1768  0.6529  0.5793
 1104TIP3    H124947   0.474   5.985   1.900  0.0353 -0.3678 -2.0860
 1104TIP3    H224948   0.408   5.852   1.929 -0.8121  0.3551 -0.5699
 1105TIP3   OH224949   6.430   3.598   3.754 -0.4417  0.4215 -0.2538
 1105TIP3    H124950   6.475   3.586   3.671 -1.8295 -0.9922 -0.8525
 1105TIP3    H224951   6.492   3.568   3.820  0.4074  0.8871 -0.8294
 1106TIP3   OH224952   6.725   3.974   1.721 -1.0059  0.3254 -0.2555
 1106TIP3    H124953   6.793   3.923   1.679 -0.2508  0.5167  0.6993
 1106TIP3    H224954   6.645   3.951   1.674 -0.6199 -1.3857 -0.1402
 1107TIP3   OH224955   3.377   4.633   3.930 -0.4898  0.0679 -0.4596
 1107TIP3    H124956   3.431   4.691   3.983 -0.2400  0.3360 -1.0082
 1107TIP3    H224957   3.388   4.663   3.840 -3.0600  1.3807 -0.4263
 1108TIP3   OH224958   6.269   5.502   4.807 -0.1365 -0.5401  0.6970
 1108TIP3    H124959   6.224   5.418   4.800  1.3686 -1.3909  0.9460
 1108TIP3    H224960   6.318   5.510   4.725 -0.7241  0.3936  0.4140
 1109TIP3   OH224961   0.103   3.600   3.754  0.4638 -0.3827  0.5358
 1109TIP3    H124962   0.105   3.545   3.832  1.6758 -0.2952  0.5919
 1109TIP3    H224963   0.194   3.603   3.725 -0.0531 -0.9976 -1.2972
 1110TIP3   OH224964   5.500   4.894   3.142  0.1064 -0.3857 -0.5548
 1110TIP3    H124965   5.436   4.944   3.192  1.9980  1.5972  0.0397
 1110TIP3    H224966   5.482   4.802   3.165 -3.8120 -0.1535 -2.1044
 1111TIP3   OH224967   4.138   0.554   0.676 -0.2495 -0.0426 -0.3882
 1111TIP3    H124968   4.067   0.494   0.652  0.5746 -1.2694  0.1374
 1111TIP3    H224969   4.167   0.591   0.592 -1.7526  0.7846 -0.5676
 1112TIP3   OH224970   1.194   1.531   1.609  0.0817 -0.4496 -0.4762
 1112TIP3    H124971   1.120   1.591   1.605 -0.3626 -0.9543 -0.0428
 1112TIP3    H224972   1.176   1.476   1.686 -0.8223 -2.8049 -2.2587
 1113TIP3   OH224973   3.996   3.969   2.653  0.1517  0.2970  0.2244
 1113TIP3    H124974   4.045   3.906   2.601  2.3030  0.4342  1.9473
 1113TIP3    H224975   4.040   3.970   2.738 -1.3812  2.2656  1.0893
 1114TIP3   OH224976   1.516   0.472   0.932  0.0689  0.1149  0.7565
 1114TIP3    H124977   1.509   0.559   0.972 -2.0355  0.5872 -0.4911
 1114TIP3    H224978   1.486   0.412   1.001 -0.2313  0.5684  1.0255
 1115TIP3   OH224979   3.110   5.460   4.291  0.2088 -0.3850 -0.7065
 1115TIP3    H124980   3.033   5.408   4.269  0.4030 -0.4206 -1.3270
 1115TIP3    H224981   3.176   5.395   4.316  0.0871 -0.3639 -0.3278
 1116TIP3   OH224982   4.021   4.788   2.733  0.6491  0.1387 -0.4925
 1116TIP3    H124983   3.989   4.838   2.657  0.5378 -0.6451 -0.9648
 1116TIP3    H224984   4.013   4.850   2.806 -0.0741  0.6147 -0.9535
 1117TIP3   OH224985   2.735   1.911   1.521 -0.6004 -0.1235 -0.3905
 1117TIP3    H124986   2.773   1.999   1.525  1.3078 -0.8847 -0.9763
 1117TIP3    H224987   2.643   1.924   1.546  0.2515  1.6378  2.2352
 1118TIP3   OH224988   2.700   0.153   1.614  0.2212 -0.0525  0.1234
 1118TIP3    H124989   2.754   0.210   1.558 -1.1494 -0.7868 -2.0675
 1118TIP3    H224990   2.754   0.075   1.627  0.6093  0.1787 -0.0440
 1119TIP3   OH224991   1.176   1.316   3.962 -0.0987 -0.0950 -0.2407
 1119TIP3    H124992   1.158   1.302   4.055 -1.2779  0.4783 -0.3653
 1119TIP3    H224993   1.208   1.231   3.931 -0.2067 -0.4421  0.5650
 1120TIP3   OH224994   4.149   2.094   2.009  0.0485  0.7084 -0.3399
 1120TIP3    H124995   4.054   2.090   2.000  0.1835  1.1341 -2.5927
 1120TIP3    H224996   4.165   2.168   2.068 -0.9979  1.6656 -1.2198
 1121TIP3   OH224997   5.510   0.466   1.179 -0.0658 -0.2803  0.0919
 1121TIP3    H124998   5.447   0.423   1.120 -0.1083  0.7977 -0.6644
 1121TIP3    H224999   5.594   0.425   1.158  0.0779  0.7061 -1.3662
 1122TIP3   OH225000   1.948   6.361   2.878 -0.3389 -0.2298  0.2336
 1122TIP3    H125001   1.880   6.427   2.866 -0.3019 -0.2778 -0.2513
 1122TIP3    H225002   1.910   6.281   2.840 -0.7433 -0.7229  1.5976
 1123TIP3   OH225003   0.908   5.082   1.378 -0.6215  0.5291  0.1735
 1123TIP3    H125004   0.972   5.133   1.328 -0.4059  1.2889  1.1768
 1123TIP3    H225005   0.843   5.146   1.405 -0.9708  0.0506  0.4738
 1124TIP3   OH225006   2.089   0.716   3.713  0.0502  0.2308  0.5071
 1124TIP3    H125007   2.017   0.668   3.753  0.4905 -0.6549  0.2663
 1124TIP3    H225008   2.080   0.805   3.746 -1.0740  0.1043  0.5791
 1125TIP3   OH225009   4.546   6.313   1.685  0.4840  0.3121 -0.5243
 1125TIP3    H125010   4.505   6.234   1.650  0.3935 -1.6582  3.4560
 1125TIP3    H225011   4.473   6.366   1.715  0.6448  0.8337 -1.0256
 1126TIP3   OH225012   0.741   3.309   3.232  0.1147  0.3815 -0.3864
 1126TIP3    H125013   0.794   3.353   3.299 -1.2132 -0.9882  1.7066
 1126TIP3    H225014   0.805   3.268   3.174  1.4876 -1.3038  2.0990
 1127TIP3   OH225015   0.652   0.233   0.535 -0.7942  0.2770  0.1567
 1127TIP3    H125016   0.633   0.272   0.450 -0.5412 -2.0395 -1.0329
 1127TIP3    H225017   0.741   0.263   0.556  0.2901 -1.3092 -1.7964
 1128TIP3   OH225018   1.914   1.004   2.197 -0.0079  0.3333  0.0642
 1128TIP3    H125019   1.959   1.086   2.219  0.6114  0.1950 -0.6705
 1128TIP3    H225020   1.860   1.027   2.121 -0.0972  0.1452  0.0719
 1129TIP3   OH225021   2.947   5.826   1.792  0.2609  0.0493  0.0902
 1129TIP3    H125022   2.945   5.761   1.862 -1.9011 -0.3620 -0.2669
 1129TIP3    H225023   2.920   5.778   1.714  3.2112  0.3593 -1.2422
 1130TIP3   OH225024   0.702   3.417   0.373 -0.0590 -0.1914  0.2062
 1130TIP3    H125025   0.619   3.418   0.420  0.5481 -0.5347  1.3171
 1130TIP3    H225026   0.680   3.382   0.286 -0.9112 -1.3395  0.8531
 1131TIP3   OH225027   5.484   1.406   3.791 -0.0355  0.7744 -0.4888
 1131TIP3    H125028   5.572   1.370   3.780 -0.1200  0.4061  0.0002
 1131TIP3    H225029   5.488   1.455   3.873 -0.4534  0.2254 -0.1342
 1132TIP3   OH225030   6.692   1.807   2.118 -0.1781 -0.3309 -0.1401
 1132TIP3    H125031   6.778   1.848   2.109 -0.7195  0.7130 -0.7133
 1132TIP3    H225032   6.644   1.834   2.040 -0.5203 -2.2231 -0.6391
 1133TIP3   OH225033   3.939   5.176   0.227 -0.1120  0.4231  0.3977
 1133TIP3    H125034   4.007   5.188   0.294  0.5513 -1.4322  0.1025
 1133TIP3    H225035   3.955   5.088   0.192 -0.5799  1.2299 -2.0454
 1134TIP3   OH225036   5.093   5.376   4.588 -0.1577 -0.1409  0.3099
 1134TIP3    H125037   5.066   5.366   4.497 -2.7157 -0.2155  1.0073
 1134TIP3    H225038   5.172   5.322   4.595  0.8182  0.8411 -2.1015
 1135TIP3   OH225039   6.752   1.438   3.449 -0.0695 -0.7106 -0.1736
 1135TIP3    H125040   6.803   1.426   3.369 -0.0124  1.1834 -0.4745
 1135TIP3    H225041   6.682   1.500   3.424  0.8289  1.1153  1.5340
 1136TIP3   OH225042   5.323   4.904   0.910  0.6582 -0.2717  0.6593
 1136TIP3    H125043   5.279   4.987   0.891 -1.3736 -0.9834  1.8999
 1136TIP3    H225044   5.380   4.889   0.834 -3.0008 -0.4164 -2.3687
 1137TIP3   OH225045   6.334   6.412   4.240 -0.0653  0.3558  0.1228
 1137TIP3    H125046   6.330   6.397   4.146  1.0598  0.4793  0.0448
 1137TIP3    H225047   6.354   6.327   4.278  0.5960  0.5234  0.1548
 1138TIP3   OH225048   3.551   3.652   4.071  0.3583  0.4112  0.3035
 1138TIP3    H125049   3.476   3.711   4.084  0.1866 -0.0757  1.6678
 1138TIP3    H225050   3.519   3.566   4.101  0.9350 -0.1671 -0.6833
 1139TIP3   OH225051   2.066   4.139   1.733  0.4846  0.5366  1.0666
 1139TIP3    H125052   2.115   4.152   1.652  2.0552  1.1879  2.0724
 1139TIP3    H225053   2.112   4.069   1.779 -1.6414 -1.3456  0.5115
 1140TIP3   OH225054   2.527   5.970   2.261 -0.0036 -0.2459 -0.3749
 1140TIP3    H125055   2.462   6.009   2.319 -0.0114 -0.7751 -0.0264
 1140TIP3    H225056   2.533   5.879   2.289  1.2071 -0.0976 -0.1244
 1141TIP3   OH225057   5.150   4.039   1.243  0.2875  0.3537 -0.1927
 1141TIP3    H125058   5.087   4.073   1.180  2.0930  1.1085 -1.7021
 1141TIP3    H225059   5.194   3.968   1.197  1.9558  1.2107 -0.0024
 1142TIP3   OH225060   0.078   4.680   4.044 -0.4622 -0.7185  0.5387
 1142TIP3    H125061   0.157   4.644   4.084  0.0194  0.7052  0.9088
 1142TIP3    H225062   0.009   4.617   4.067  0.1854 -0.9723  1.9141
 1143TIP3   OH225063   0.197   2.974   4.057 -0.3962  0.4138  0.0277
 1143TIP3    H125064   0.242   3.058   4.067 -0.1216  0.1624  1.0647
 1143TIP3    H225065   0.105   2.994   4.077 -0.0616  0.1735  1.9992
 1144TIP3   OH225066   6.638   2.960   0.804  0.5286 -0.3367 -0.6087
 1144TIP3    H125067   6.689   3.040   0.788 -0.6362  1.0775  2.0971
 1144TIP3    H225068   6.682   2.918   0.878  0.8411 -2.0190 -1.6906
 1145TIP3   OH225069   4.793   0.787   1.098 -0.0958  0.0269  0.0025
 1145TIP3    H125070   4.786   0.879   1.122  0.8089 -0.2488  1.4668
 1145TIP3    H225071   4.719   0.745   1.143  0.4511 -0.1924  0.7213
 1146TIP3   OH225072   5.780   3.696   2.749 -0.0643 -0.0036  0.3447
 1146TIP3    H125073   5.796   3.723   2.658  1.1800 -0.0053  0.5489
 1146TIP3    H225074   5.836   3.753   2.801 -1.3667  0.5568  1.2012
 1147TIP3   OH225075   1.819   3.228   2.217 -0.0053  0.0252  0.2590
 1147TIP3    H125076   1.805   3.278   2.137  1.0608  2.5201  1.5087
 1147TIP3    H225077   1.862   3.147   2.188 -0.6014  0.3738 -1.7479
 1148TIP3   OH225078   3.250   3.686   2.511  0.4555 -0.1947 -0.4417
 1148TIP3    H125079   3.156   3.684   2.526  0.2465  1.4044 -1.4243
 1148TIP3    H225080   3.288   3.690   2.598 -0.4890  1.7083 -0.0769
 1149TIP3   OH225081   0.382   2.962   4.292 -0.4144  0.5668  0.4883
 1149TIP3    H125082   0.375   2.874   4.326  1.8785 -1.3353 -3.2737
 1149TIP3    H225083   0.468   2.993   4.319 -1.0553  1.6008  1.4728
 1150TIP3   OH225084   6.295   2.510   0.632 -0.1420  0.3446  0.1300
 1150TIP3    H125085   6.348   2.529   0.554  0.0584  0.5093  0.3043
 1150TIP3    H225086   6.334   2.564   0.700 -0.9864  0.9966  0.0959
 1151TIP3   OH225087   6.523   6.070   4.615  0.3325  0.0755  0.3426
 1151TIP3    H125088   6.430   6.086   4.601  0.3134  1.1005  1.4930
 1151TIP3    H225089   6.556   6.041   4.530 -1.0148 -0.2245 -0.0921
 1152TIP3   OH225090   6.569   5.165   2.988  0.1519  0.3916  0.4817
 1152TIP3    H125091   6.517   5.099   2.942  1.4504 -0.3934  0.0875
 1152TIP3    H225092   6.628   5.114   3.044  0.8511  1.2332  0.5318
 1153TIP3   OH225093   0.400   0.484   1.269 -0.3792 -0.0894 -0.2429
 1153TIP3    H125094   0.485   0.510   1.305 -0.9083  0.0746  0.9186
 1153TIP3    H225095   0.383   0.398   1.308  0.0352 -0.9275 -1.8302
 1154TIP3   OH225096   2.147   6.305   3.303  0.3004  0.0037  0.1277
 1154TIP3    H125097   2.232   6.270   3.276  0.0614  1.2785 -2.6325
 1154TIP3    H225098   2.084   6.257   3.248 -1.0018 -1.7909  2.9581
 1155TIP3   OH225099   6.797   6.571   4.989  0.3909  0.8386  0.2659
 1155TIP3    H125100   6.842   6.620   4.920  0.0283  0.8070  0.0076
 1155TIP3    H225101   6.704   6.588   4.975  0.2043 -0.5310 -0.3140
 1156TIP3   OH225102   6.322   2.887   1.569  0.2085  0.0364  0.3541
 1156TIP3    H125103   6.346   2.803   1.528 -0.1980  0.1197 -0.0580
 1156TIP3    H225104   6.350   2.877   1.660  0.3189 -0.4864  0.2702
 1157TIP3   OH225105   1.397   2.453   3.865  0.1470  0.5754 -0.3403
 1157TIP3    H125106   1.361   2.540   3.883  1.3687  1.3728 -1.5336
 1157TIP3    H225107   1.381   2.440   3.771 -1.6247 -1.3009  0.1594
 1158TIP3   OH225108   3.137   4.227   0.603 -0.0829 -0.4463 -0.6392
 1158TIP3    H125109   3.220   4.270   0.582  0.0223  0.6463  1.6336
 1158TIP3    H225110   3.158   4.134   0.607  0.7602 -0.2873 -1.2002
 1159TIP3   OH225111   2.212   4.854   1.242 -0.1496  1.0983 -0.0120
 1159TIP3    H125112   2.233   4.939   1.205 -0.9163  0.9581 -0.8041
 1159TIP3    H225113   2.289   4.800   1.226 -0.4200  1.0749 -1.3271
 1160TIP3   OH225114   3.373   5.373   3.943 -0.1777  0.4897 -0.2275
 1160TIP3    H125115   3.331   5.300   3.990 -1.0216  1.0688 -0.0527
 1160TIP3    H225116   3.374   5.445   4.007 -0.9730  1.1660 -0.9505
 1161TIP3   OH225117   3.193   5.631   1.654  0.0333 -0.2860  0.5667
 1161TIP3    H125118   3.212   5.621   1.560 -1.0014  1.4629  0.1109
 1161TIP3    H225119   3.101   5.659   1.656  0.0796 -0.1869  2.1038
 1162TIP3   OH225120   2.556   0.742   2.126  0.0223  0.3416 -0.2049
 1162TIP3    H125121   2.568   0.821   2.074 -0.0964  0.8341  0.5081
 1162TIP3    H225122   2.466   0.748   2.160  0.8982  1.3255  2.1589
 1163TIP3   OH225123   4.713   4.889   1.162  0.3465 -0.4008 -0.4892
 1163TIP3    H125124   4.685   4.910   1.073  1.7797  0.2208 -0.8122
 1163TIP3    H225125   4.803   4.919   1.167  0.3035 -0.4479  1.1797
 1164TIP3   OH225126   3.823   4.244   2.835  0.0177  0.2429 -0.4303
 1164TIP3    H125127   3.886   4.271   2.903  0.4221 -1.8236  0.0959
 1164TIP3    H225128   3.757   4.313   2.835 -0.0669  0.2712  2.1738
 1165TIP3   OH225129   6.115   2.225   8.865 -0.0907 -0.4634 -0.5939
 1165TIP3    H125130   6.193   2.244   8.813  1.6592 -0.2585  1.9329
 1165TIP3    H225131   6.072   2.309   8.877  1.3363  0.0817  0.9976
 1166TIP3   OH225132   5.444   4.934   0.641 -0.2949 -0.0622 -0.5144
 1166TIP3    H125133   5.480   5.023   0.647 -0.3839 -0.1068  1.1892
 1166TIP3    H225134   5.518   4.880   0.613  0.8327 -0.0179  2.1229
 1167TIP3   OH225135   6.383   1.573   0.655  0.3465  0.0824 -0.0150
 1167TIP3    H125136   6.311   1.514   0.632  0.7036  0.1072 -1.2882
 1167TIP3    H225137   6.392   1.630   0.578 -0.0249  1.8546  1.1859
 1168TIP3   OH225138   4.791   5.145   4.572 -0.9251 -0.1210  0.0521
 1168TIP3    H125139   4.837   5.135   4.655 -2.0342 -0.1900  0.6758
 1168TIP3    H225140   4.701   5.118   4.590 -1.3871  0.6356 -0.9646
 1169TIP3   OH225141   3.704   0.718   2.494 -0.1060  0.0287 -0.1396
 1169TIP3    H125142   3.664   0.781   2.434 -0.1297  0.2212  0.0807
 1169TIP3    H225143   3.639   0.705   2.563 -0.0902 -0.2165 -0.1710
 1170TIP3   OH225144   4.786   5.158   0.965  0.1510 -0.6858  0.4791
 1170TIP3    H125145   4.805   5.218   0.893 -2.3761 -0.8675 -0.4274
 1170TIP3    H225146   4.796   5.071   0.926  0.9674 -0.8422  1.0072
 1171TIP3   OH225147   2.304   3.008   1.735  0.2452  0.2214 -0.2555
 1171TIP3    H125148   2.353   3.090   1.734 -0.4423  0.6621 -2.0927
 1171TIP3    H225149   2.213   3.034   1.721  0.0451 -0.8511 -1.1009
 1172TIP3   OH225150   6.072   1.307   3.803  0.0017 -0.2562  0.4846
 1172TIP3    H125151   6.133   1.367   3.762 -1.0744  1.4559  1.2510
 1172TIP3    H225152   6.110   1.220   3.789  2.3924  0.6867  0.6286
 1173TIP3   OH225153   6.182   1.108   3.330 -0.1428  0.2347  0.1357
 1173TIP3    H125154   6.270   1.084   3.358 -0.1255  0.5206  0.3301
 1173TIP3    H225155   6.195   1.182   3.270 -0.0263 -1.5067 -2.1387
 1174TIP3   OH225156   0.693   4.558   1.866 -0.0844  0.7623 -0.7497
 1174TIP3    H125157   0.646   4.515   1.937 -0.9655  0.8809 -1.2556
 1174TIP3    H225158   0.754   4.618   1.910  0.9991 -0.8008 -0.0381
 1175TIP3   OH225159   4.994   2.093   0.008 -0.4135 -0.4583 -0.1803
 1175TIP3    H125160   4.937   2.033   0.056  1.7638 -0.3677  2.7300
 1175TIP3    H225161   5.082   2.059   0.020  0.5842  1.5292 -1.2560
 1176TIP3   OH225162   5.912   5.453   3.952 -0.5391  0.3864  0.1014
 1176TIP3    H125163   5.843   5.409   4.002 -0.7983 -1.7101 -1.9511
 1176TIP3    H225164   5.865   5.512   3.893 -0.2990  1.8030  1.2513
 1177TIP3   OH225165   0.661   1.512   1.895  0.0819 -0.0710  0.4035
 1177TIP3    H125166   0.644   1.605   1.877  0.1005 -0.0005  0.7436
 1177TIP3    H225167   0.689   1.510   1.987  0.1026 -0.4109  0.3908
 1178TIP3   OH225168   3.454   3.243   1.877  0.5353 -0.3154 -0.2004
 1178TIP3    H125169   3.456   3.228   1.782  0.8039 -0.3788 -0.1871
 1178TIP3    H225170   3.532   3.198   1.909  1.5148  1.2980 -0.1884
 1179TIP3   OH225171   4.272   3.441   4.371  0.1709  0.1351  0.3510
 1179TIP3    H125172   4.326   3.510   4.409 -2.3211  2.6933 -0.3387
 1179TIP3    H225173   4.207   3.421   4.439 -0.6311  0.3399 -0.3270
 1180TIP3   OH225174   2.656   3.256   1.455 -0.6902  0.0988  0.2981
 1180TIP3    H125175   2.571   3.253   1.411 -1.2227  1.2613  1.1965
 1180TIP3    H225176   2.710   3.312   1.399 -0.9218  0.4183  0.3928
 1181TIP3   OH225177   3.964   3.102   3.360  0.6506 -0.0051  0.1307
 1181TIP3    H125178   3.925   3.124   3.275  0.9552 -0.1229 -0.0371
 1181TIP3    H225179   3.899   3.134   3.424 -0.5505 -1.7284 -0.1605
 1182TIP3   OH225180   5.736   1.574   2.430  0.5386 -0.1901  0.1041
 1182TIP3    H125181   5.752   1.531   2.514  0.4321 -2.2209 -0.8348
 1182TIP3    H225182   5.768   1.511   2.365 -1.5524  0.2278 -1.4535
 1183TIP3   OH225183   2.836   2.612   3.578  0.2829  0.3304  0.3536
 1183TIP3    H125184   2.834   2.673   3.505 -0.0101 -0.1422 -0.0361
 1183TIP3    H225185   2.770   2.547   3.557  0.2065  0.1784  1.0333
 1184TIP3   OH225186   1.539   0.999   1.381 -0.1260  0.2208  0.4073
 1184TIP3    H125187   1.515   1.037   1.297  0.4335  0.0167  0.1496
 1184TIP3    H225188   1.504   1.060   1.446 -2.2519 -0.5972  0.0948
 1185TIP3   OH225189   4.946   0.399   4.559 -0.6749 -0.2307  0.3379
 1185TIP3    H125190   4.930   0.352   4.641  1.5384  0.2143  1.1148
 1185TIP3    H225191   5.005   0.342   4.510 -0.0170  0.5875  0.1564
 1186TIP3   OH225192   5.135   3.483   3.561  0.9395  0.0943 -0.7067
 1186TIP3    H125193   5.147   3.440   3.646 -0.3614  0.0355 -0.5313
 1186TIP3    H225194   5.161   3.417   3.497  2.4655  0.3253 -0.3627
 1187TIP3   OH225195   4.270   3.520   3.901  0.0607 -0.0695  0.2085
 1187TIP3    H125196   4.235   3.562   3.823  1.3426 -0.1074 -0.4053
 1187TIP3    H225197   4.342   3.576   3.929  3.1185 -2.6814 -1.7359
 1188TIP3   OH225198   3.817   1.964   4.987  0.1887  0.5637 -0.0809
 1188TIP3    H125199   3.807   1.878   5.028 -0.2658 -0.4212 -2.1251
 1188TIP3    H225200   3.867   1.946   4.907  1.2107  2.4226  0.0988
 1189TIP3   OH225201   2.274   1.242   2.456  0.3158 -0.0948  0.2621
 1189TIP3    H125202   2.361   1.274   2.433  0.9723 -1.9047  0.0037
 1189TIP3    H225203   2.241   1.303   2.521  0.2532  2.6948 -2.2015
 1190TIP3   OH225204   6.090   0.854   0.675 -0.0660 -0.7417  0.0999
 1190TIP3    H125205   6.020   0.870   0.612 -0.4624 -2.5839  0.0043
 1190TIP3    H225206   6.171   0.858   0.623 -0.4345 -3.0354 -0.7846
 1191TIP3   OH225207   4.854   0.753   0.250 -0.2579 -0.1617  0.1340
 1191TIP3    H125208   4.777   0.765   0.196 -0.4605  0.8436  0.6206
 1191TIP3    H225209   4.821   0.750   0.340  0.1279 -1.2244  0.2571
 1192TIP3   OH225210   4.434   6.550   0.937  0.3875  0.1782  0.3257
 1192TIP3    H125211   4.403   6.522   1.023  0.3992 -0.5745  0.0937
 1192TIP3    H225212   4.486   6.476   0.905  2.7867  1.5413  0.8814
 1193TIP3   OH225213   0.566   4.189   1.395 -0.5025  0.6680 -0.0272
 1193TIP3    H125214   0.652   4.199   1.435 -1.0433  1.7575  0.9137
 1193TIP3    H225215   0.584   4.175   1.302  0.6875  0.7901  0.1736
 1194TIP3   OH225216   3.333   0.500   0.821 -0.9597 -0.2452 -0.3382
 1194TIP3    H125217   3.408   0.445   0.798 -0.3056  0.9822 -1.2316
 1194TIP3    H225218   3.309   0.544   0.739 -2.9191 -0.8955 -0.1674
 1195TIP3   OH225219   3.738   5.377   1.080 -0.3523 -0.0848  0.3631
 1195TIP3    H125220   3.776   5.451   1.126  0.2399  0.2373 -0.6198
 1195TIP3    H225221   3.813   5.327   1.048 -0.7481 -0.0558 -0.6357
 1196TIP3   OH225222   5.283   1.732   4.871 -0.5292  0.6987  0.4630
 1196TIP3    H125223   5.261   1.729   4.964 -0.1355 -0.8214  0.5337
 1196TIP3    H225224   5.335   1.653   4.856 -0.1266  1.2016 -0.9391
 1197TIP3   OH225225   5.127   0.238   3.518  0.2194 -0.1977 -0.1329
 1197TIP3    H125226   5.151   0.147   3.502  0.0958 -0.0724 -1.0794
 1197TIP3    H225227   5.035   0.234   3.545  0.3635 -0.3931  0.3429
 1198TIP3   OH225228   3.428   6.773   0.380  0.6721  0.7999 -0.5903
 1198TIP3    H125229   3.464   6.696   0.424 -0.2411  1.0897  0.7446
 1198TIP3    H225230   3.415   6.745   0.289 -1.2121 -1.2228  0.1916
 1199TIP3   OH225231   6.465   4.099   3.766 -0.0272 -0.3508 -0.2088
 1199TIP3    H125232   6.462   4.108   3.670  0.2595 -1.3400 -0.3243
 1199TIP3    H225233   6.387   4.146   3.797  1.0977  2.0380 -0.7247
 1200TIP3   OH225234   4.613   3.672   0.546 -0.2621 -0.1423  0.4157
 1200TIP3    H125235   4.703   3.642   0.564 -0.7784 -1.2773  1.2707
 1200TIP3    H225236   4.571   3.595   0.507 -0.5341  0.7778 -1.1541
 1201TIP3   OH225237   2.612   4.696   1.049  0.1153 -0.1861  0.1419
 1201TIP3    H125238   2.688   4.641   1.028 -1.4845 -1.7113 -2.1009
 1201TIP3    H225239   2.579   4.725   0.964 -0.3431  2.6239  1.1702
 1202TIP3   OH225240   6.251   5.572   2.913 -0.7359 -0.2408  0.0100
 1202TIP3    H125241   6.171   5.521   2.900 -0.9613  0.3456 -0.9881
 1202TIP3    H225242   6.306   5.517   2.968 -0.7527 -1.8205 -1.4667
 1203TIP3   OH225243   5.054   5.456   4.073  0.0480  0.4991  0.6582
 1203TIP3    H125244   5.123   5.516   4.101  0.1003 -0.2340  2.1871
 1203TIP3    H225245   4.977   5.511   4.060  0.8165  1.3060 -0.8864
 1204TIP3   OH225246   4.830   0.373   2.792 -0.2600  0.6063  0.1435
 1204TIP3    H125247   4.897   0.338   2.733  0.2769  1.2673  0.3490
 1204TIP3    H225248   4.813   0.302   2.854  2.5187  1.3907  2.0289
 1205TIP3   OH225249   0.813   2.335   1.503  0.3433  0.5875 -0.1636
 1205TIP3    H125250   0.868   2.273   1.455 -0.2893 -0.5528  0.5539
 1205TIP3    H225251   0.740   2.352   1.444 -0.4745 -0.8740  0.3725
 1206TIP3   OH225252   6.292   2.067   2.562 -0.2718  0.4714  0.6226
 1206TIP3    H125253   6.290   2.114   2.479 -0.0087 -0.7990 -0.1234
 1206TIP3    H225254   6.230   1.996   2.551 -1.3965  1.1750  2.0897
 1207TIP3   OH225255   4.300   1.454   3.353 -0.5211 -0.3579  0.7349
 1207TIP3    H125256   4.332   1.378   3.304  0.9581 -0.5482  1.9298
 1207TIP3    H225257   4.204   1.444   3.354 -0.3874 -1.8271  0.2847
 1208TIP3   OH225258   5.911   3.872   1.258 -0.5055 -0.0828  0.1577
 1208TIP3    H125259   5.973   3.935   1.294 -1.5521  0.4851  1.0185
 1208TIP3    H225260   5.833   3.881   1.312 -0.9571 -1.5810 -0.1899
 1209TIP3   OH225261   5.671   3.632   1.260 -0.1560 -0.3337  0.4383
 1209TIP3    H125262   5.594   3.623   1.204  1.1586  0.6416 -1.6568
 1209TIP3    H225263   5.666   3.722   1.293  0.2874 -0.0958 -0.1075
 1210TIP3   OH225264   0.364   1.843   4.244 -0.8501  0.3981 -0.1712
 1210TIP3    H125265   0.296   1.846   4.311 -0.1248  1.3926  0.5502
 1210TIP3    H225266   0.446   1.833   4.293 -0.4727 -1.0255 -1.0257
 1211TIP3   OH225267   0.185   2.153   1.876 -0.0478  0.4826 -0.5459
 1211TIP3    H125268   0.177   2.162   1.781  1.2612  1.0306 -0.6224
 1211TIP3    H225269   0.270   2.112   1.890  0.0254  0.9173  0.4087
 1212TIP3   OH225270   6.070   4.714   1.187  1.1271  0.3338 -0.0089
 1212TIP3    H125271   6.016   4.734   1.263  1.8655  0.4253  0.4969
 1212TIP3    H225272   6.121   4.637   1.213  0.9419 -0.0051 -0.6323
 1213TIP3   OH225273   2.189   3.437   2.294 -0.4233 -0.0090  0.0948
 1213TIP3    H125274   2.243   3.366   2.260 -0.7962 -0.7584  1.0412
 1213TIP3    H225275   2.251   3.495   2.338  0.0728  0.9890 -1.8144
 1214TIP3   OH225276   1.009   1.139   1.853 -0.0506  0.1742  0.2376
 1214TIP3    H125277   0.931   1.195   1.845 -0.4454 -0.2536  0.9613
 1214TIP3    H225278   1.011   1.115   1.945  1.7396  1.3019  0.5354
 1215TIP3   OH225279   5.040   6.082   3.646  0.1585  0.1225  0.1427
 1215TIP3    H125280   5.042   6.166   3.691 -1.8857 -0.3385  1.1872
 1215TIP3    H225281   5.126   6.043   3.664  0.7886  1.5783  0.3990
 1216TIP3   OH225282   5.616   3.283   1.253 -0.0456 -0.2420  0.4103
 1216TIP3    H125283   5.704   3.305   1.222  0.8251 -1.9739  1.4636
 1216TIP3    H225284   5.607   3.330   1.336 -1.5331  2.6645 -1.2409
 1217TIP3   OH225285   3.542   3.949   0.698  0.0746  0.3922 -0.1291
 1217TIP3    H125286   3.451   3.952   0.669  0.3287 -0.7390 -1.1452
 1217TIP3    H225287   3.538   3.964   0.793 -1.1842  0.1447 -0.1293
 1218TIP3   OH225288   4.191   4.989   5.173  0.3362 -0.2429  0.1529
 1218TIP3    H125289   4.269   4.933   5.166  0.5236 -0.2713  2.0789
 1218TIP3    H225290   4.222   5.069   5.215 -0.7986 -0.5689  1.6785
 1219TIP3   OH225291   2.627   6.451   4.106 -0.0577  0.2076  0.0163
 1219TIP3    H125292   2.701   6.399   4.074 -0.3687 -0.0191 -0.3496
 1219TIP3    H225293   2.585   6.395   4.172  1.3918  1.2263  1.8637
 1220TIP3   OH225294   3.200   2.732   2.534  0.3072 -0.7263 -0.0964
 1220TIP3    H125295   3.132   2.785   2.576  0.1063 -1.4023  0.4461
 1220TIP3    H225296   3.278   2.788   2.536 -0.1991  0.0202 -0.6528
 1221TIP3   OH225297   4.095   2.254   1.573 -0.2753 -0.4984  0.4495
 1221TIP3    H125298   4.000   2.262   1.580 -0.1931  0.0204  1.0471
 1221TIP3    H225299   4.115   2.169   1.612 -0.6887 -1.6003 -1.6062
 1222TIP3   OH225300   3.742   1.418   0.780 -0.1299  0.3651  0.1291
 1222TIP3    H125301   3.731   1.505   0.816 -4.6564 -0.6437  1.8321
 1222TIP3    H225302   3.710   1.425   0.690  1.1413  0.7492 -0.3091
 1223TIP3   OH225303   0.282   5.677   3.992  0.6029 -0.0856 -0.5331
 1223TIP3    H125304   0.206   5.619   3.996  0.2202  0.4603  0.5723
 1223TIP3    H225305   0.352   5.628   4.036 -0.2397  0.9739  2.2168
 1224TIP3   OH225306   3.040   3.021   3.809  0.2920  0.0991 -0.0836
 1224TIP3    H125307   2.999   3.029   3.895  1.9431  2.1640  0.6067
 1224TIP3    H225308   3.000   3.090   3.757 -0.2377 -0.7344 -0.8129
 1225TIP3   OH225309   5.281   1.125   4.522 -0.5510  0.2681 -0.3000
 1225TIP3    H125310   5.186   1.127   4.537 -0.6129 -0.1065 -0.6364
 1225TIP3    H225311   5.290   1.099   4.431 -0.0917 -2.3143  0.3982
 1226TIP3   OH225312   3.815   2.834   1.108 -0.1127 -0.4108 -0.0865
 1226TIP3    H125313   3.761   2.906   1.143  0.7322  1.2601 -1.9690
 1226TIP3    H225314   3.904   2.867   1.114  0.2103 -0.8779 -1.8792
 1227TIP3   OH225315   3.215   4.303   1.666  0.4813 -0.3654 -0.0071
 1227TIP3    H125316   3.282   4.371   1.676  0.3953 -0.0790 -1.2405
 1227TIP3    H225317   3.174   4.297   1.753  2.2491 -0.7285  0.8480
 1228TIP3   OH225318   3.588   1.752   8.621  0.1096 -0.0763 -0.1796
 1228TIP3    H125319   3.613   1.711   8.704 -1.5788 -0.0940  0.3560
 1228TIP3    H225320   3.494   1.766   8.628  0.1807  1.3850 -1.4700
 1229TIP3   OH225321   1.091   5.345   3.913 -0.7900 -0.1913 -0.5847
 1229TIP3    H125322   0.997   5.355   3.924 -0.6334  1.4696 -0.4814
 1229TIP3    H225323   1.127   5.358   4.001 -0.3399  1.5431 -0.9750
 1230TIP3   OH225324   5.967   3.211   0.689  0.4268 -0.1872 -0.0707
 1230TIP3    H125325   5.893   3.167   0.645  1.0236 -1.1387 -0.1454
 1230TIP3    H225326   6.026   3.140   0.714  0.9055  0.4912  0.7821
 1231TIP3   OH225327   6.439   6.400   2.012 -0.0385 -0.1034  0.3301
 1231TIP3    H125328   6.526   6.368   2.034  0.2446  0.5147  0.1426
 1231TIP3    H225329   6.446   6.495   2.020 -1.2804 -0.1272  2.4638
 1232TIP3   OH225330   2.578   5.940   0.448 -0.3207  0.2338  0.0965
 1232TIP3    H125331   2.624   5.856   0.449 -0.6839  0.0378  0.7954
 1232TIP3    H225332   2.507   5.928   0.385 -0.5295 -0.0763  0.3839
 1233TIP3   OH225333   3.086   4.753   0.213 -0.4351 -0.2113 -0.0112
 1233TIP3    H125334   3.096   4.788   0.302  2.5700 -1.4397  0.2675
 1233TIP3    H225335   3.009   4.796   0.178  0.2877  2.9904  1.9617
 1234TIP3   OH225336   3.761   1.730   5.109 -0.2326  0.0803 -1.0162
 1234TIP3    H125337   3.792   1.639   5.110 -1.9729 -0.5910 -2.6932
 1234TIP3    H225338   3.669   1.725   5.134  0.0879  1.6500  0.7005
 1235TIP3   OH225339   6.787   5.705   4.160 -0.1234 -0.2947 -0.4447
 1235TIP3    H125340   6.701   5.672   4.186  0.5545 -2.3817 -0.6527
 1235TIP3    H225341   6.849   5.651   4.211  1.0847  2.0882  0.7865
 1236TIP3   OH225342   3.442   4.128   3.907 -0.0838 -0.3586  0.2259
 1236TIP3    H125343   3.491   4.069   3.849  0.7131  0.6325 -0.1321
 1236TIP3    H225344   3.459   4.094   3.995  1.2032 -0.0878  0.1080
 1237TIP3   OH225345   3.550   3.415   1.202 -0.3646  0.0464 -0.0745
 1237TIP3    H125346   3.644   3.399   1.212 -0.8178 -2.4187  0.9173
 1237TIP3    H225347   3.526   3.365   1.124 -1.0872 -0.6043  0.5515
 1238TIP3   OH225348   3.414   1.569   1.402  0.0232 -0.7931  0.6479
 1238TIP3    H125349   3.420   1.625   1.479  3.3134  3.3454 -2.1654
 1238TIP3    H225350   3.347   1.611   1.347  0.9038 -0.9125 -0.5607
 1239TIP3   OH225351   4.816   3.044   3.557  0.1594 -0.5307  0.3034
 1239TIP3    H125352   4.832   3.101   3.482  2.0988 -1.4949 -0.0831
 1239TIP3    H225353   4.721   3.029   3.556 -0.2000  1.5235 -0.3880
 1240TIP3   OH225354   5.032   6.725   1.073  0.4321 -0.0695 -0.7001
 1240TIP3    H125355   5.113   6.680   1.050 -0.8852 -1.4434 -3.1083
 1240TIP3    H225356   4.972   6.656   1.101 -0.9425  0.3554 -2.3469
 1241TIP3   OH225357   0.449   3.429   4.578 -0.0866 -0.7206  0.6535
 1241TIP3    H125358   0.438   3.467   4.491  2.5016 -0.8167  0.2014
 1241TIP3    H225359   0.373   3.460   4.628 -1.7881 -0.8924 -1.6719
 1242TIP3   OH225360   0.671   5.572   2.949  0.4511  0.2534  0.1150
 1242TIP3    H125361   0.598   5.632   2.963  1.2094  1.2790 -0.2431
 1242TIP3    H225362   0.702   5.592   2.860  1.7126  0.4507  0.5784
 1243TIP3   OH225363   2.014   0.915   3.124  0.2319  0.5233 -0.0121
 1243TIP3    H125364   1.933   0.893   3.171 -0.1466  2.8020  0.5369
 1243TIP3    H225365   1.985   0.941   3.037  0.5251  0.0082 -0.2649
 1244TIP3   OH225366   1.307   4.834   3.279 -0.3621 -0.2032 -0.2556
 1244TIP3    H125367   1.360   4.754   3.283 -1.2179 -0.7601  0.4128
 1244TIP3    H225368   1.217   4.802   3.271 -0.6401  0.7171 -0.9426
 1245TIP3   OH225369   3.648   0.274   0.141 -0.5569 -0.1596  0.5348
 1245TIP3    H125370   3.711   0.346   0.153  1.1393 -0.8245 -3.0617
 1245TIP3    H225371   3.563   0.317   0.139  0.1376  1.3567  1.3170
 1246TIP3   OH225372   0.632   2.862   8.746  0.6358  0.4286  0.2066
 1246TIP3    H125373   0.682   2.802   8.691 -1.2907  0.2474 -1.4737
 1246TIP3    H225374   0.541   2.838   8.730 -0.0462  0.6575  3.1996
 1247TIP3   OH225375   6.368   3.021   4.069 -0.3034 -0.2236  0.3977
 1247TIP3    H125376   6.275   3.015   4.047 -0.1559  2.5834 -1.4278
 1247TIP3    H225377   6.411   2.957   4.012 -0.9119  0.0871 -0.4217
 1248TIP3   OH225378   1.195   6.194   8.585  0.7858  0.1545 -0.8303
 1248TIP3    H125379   1.183   6.237   8.669  0.0716  1.5471 -1.6147
 1248TIP3    H225380   1.219   6.104   8.607 -1.3826 -0.0833  0.8649
 1249TIP3   OH225381   0.859   2.712   3.975 -0.3350 -0.1565 -0.5181
 1249TIP3    H125382   0.798   2.784   3.991  0.6786  0.7220 -0.5278
 1249TIP3    H225383   0.883   2.681   4.063  1.2410  1.2745 -0.3841
 1250TIP3   OH225384   4.606   3.477   1.393 -0.2478  0.5614 -0.0702
 1250TIP3    H125385   4.549   3.554   1.402 -0.0701  0.8580 -1.2518
 1250TIP3    H225386   4.635   3.458   1.482 -0.2715  1.8855  0.2444
 1251TIP3   OH225387   1.447   6.246   2.363  0.5123 -0.1483 -0.0010
 1251TIP3    H125388   1.359   6.265   2.329  0.0344  0.1147  1.3260
 1251TIP3    H225389   1.464   6.156   2.337  0.3499  0.1834 -1.2954
 1252TIP3   OH225390   1.020   2.081   4.659 -0.0236  0.4155  0.3094
 1252TIP3    H125391   1.089   2.141   4.630  0.6215  0.1804  1.3032
 1252TIP3    H225392   0.955   2.138   4.701  0.3957  0.4848  0.8887
 1253TIP3   OH225393   1.906   5.119   3.429  0.2114 -0.6770  0.3364
 1253TIP3    H125394   1.860   5.035   3.430 -1.2602  0.0803 -0.8690
 1253TIP3    H225395   1.940   5.126   3.340 -1.8302  1.0841 -0.3783
 1254TIP3   OH225396   3.519   2.264   3.164 -0.3803  0.3740  0.3795
 1254TIP3    H125397   3.550   2.201   3.229 -0.2877  0.5771  0.5339
 1254TIP3    H225398   3.435   2.229   3.134  0.3432 -0.5926 -0.6022
 1255TIP3   OH225399   2.388   4.825   2.045 -0.6356 -0.1651 -0.1494
 1255TIP3    H125400   2.317   4.761   2.045 -2.2499  1.5179 -1.1400
 1255TIP3    H225401   2.438   4.806   1.966 -1.0877 -0.2507 -0.4174
 1256TIP3   OH225402   6.754   4.227   2.912  0.2731  0.7304 -0.1854
 1256TIP3    H125403   6.759   4.193   2.822  3.4258 -0.7441  0.4088
 1256TIP3    H225404   6.828   4.287   2.919 -0.0994  1.0392  1.3655
 1257TIP3   OH225405   4.789   2.832   2.025  0.1640  0.3636  0.4927
 1257TIP3    H125406   4.794   2.771   2.099  1.3218 -0.2818 -0.0927
 1257TIP3    H225407   4.875   2.875   2.024 -0.1578  0.9999  0.0592
 1258TIP3   OH225408   2.470   0.974   1.259 -0.5414 -0.7484 -0.5709
 1258TIP3    H125409   2.397   0.975   1.321 -1.5185  0.4281 -1.6858
 1258TIP3    H225410   2.521   0.898   1.284 -1.4622 -0.8842  1.0364
 1259TIP3   OH225411   1.994   4.431   3.012  0.0785  0.2666  0.0515
 1259TIP3    H125412   1.998   4.519   2.976  0.4925  0.4749  0.5922
 1259TIP3    H225413   1.993   4.374   2.935  2.1914  0.6505 -0.3396
 1260TIP3   OH225414   6.515   5.600   0.948  0.1185 -0.6566 -0.8674
 1260TIP3    H125415   6.561   5.662   1.004 -0.6989 -0.6974 -0.1398
 1260TIP3    H225416   6.560   5.607   0.863  1.5891 -0.8629 -0.1250
 1261TIP3   OH225417   6.446   6.056   3.520  0.2218 -0.6246 -0.0164
 1261TIP3    H125418   6.478   6.044   3.431  1.4193 -0.7596  0.4068
 1261TIP3    H225419   6.525   6.053   3.574 -0.1774  1.7830  0.8265
 1262TIP3   OH225420   3.867   6.669   1.981  0.2990  0.3148 -0.3307
 1262TIP3    H125421   3.848   6.647   1.890  0.7928 -2.6702  0.2038
 1262TIP3    H225422   3.923   6.747   1.975  1.8651 -0.8778 -2.7100
 1263TIP3   OH225423   5.478   3.577   2.617  0.2802 -0.2572 -0.2548
 1263TIP3    H125424   5.501   3.668   2.639  0.1950 -0.8434  2.6008
 1263TIP3    H225425   5.393   3.563   2.658  0.3648 -1.6921 -0.5206
 1264TIP3   OH225426   3.936   6.550   0.881  0.0425  0.6157 -0.2161
 1264TIP3    H125427   3.877   6.551   0.956 -0.2150  3.0035 -0.3770
 1264TIP3    H225428   3.900   6.614   0.821  1.1004 -0.1372 -1.7206
 1265TIP3   OH225429   1.246   0.303   3.290 -0.7863 -0.4531 -0.4323
 1265TIP3    H125430   1.327   0.267   3.252  0.5115  1.0632  0.7243
 1265TIP3    H225431   1.227   0.247   3.365  0.1067  0.0562  0.2004
 1266TIP3   OH225432   2.054   6.718   2.297  0.0091 -0.0759 -0.3090
 1266TIP3    H125433   2.047   6.806   2.334 -1.3443  0.0246 -0.7570
 1266TIP3    H225434   2.060   6.661   2.374 -1.3971  0.2400  0.0653
 1267TIP3   OH225435   6.003   4.721   4.509 -0.1781 -0.2314  0.1929
 1267TIP3    H125436   5.961   4.673   4.580 -1.2572  0.1021 -0.1932
 1267TIP3    H225437   5.953   4.803   4.504  1.7191  1.0311  0.9603
 1268TIP3   OH225438   4.773   4.465   3.381  0.1128 -0.5207 -0.2772
 1268TIP3    H125439   4.761   4.552   3.342 -0.3779 -0.5418 -0.1782
 1268TIP3    H225440   4.839   4.478   3.448 -0.2943 -0.1234  0.0508
 1269TIP3   OH225441   6.181   2.049   4.041 -0.4318  0.3264  0.5537
 1269TIP3    H125442   6.263   2.086   4.009 -1.7291  2.3756 -0.5987
 1269TIP3    H225443   6.165   2.094   4.124 -0.5866  0.1986  0.5934
 1270TIP3   OH225444   2.555   0.286   1.319 -0.0372 -0.5044  0.4172
 1270TIP3    H125445   2.567   0.320   1.408  0.6792  1.0579 -0.2366
 1270TIP3    H225446   2.641   0.295   1.278 -0.6953  0.1579 -0.8768
 1271TIP3   OH225447   2.879   4.327   4.968  0.1499 -0.0557  0.1149
 1271TIP3    H125448   2.859   4.420   4.970  0.8475  0.0902  1.6899
 1271TIP3    H225449   2.798   4.285   4.938  0.2184  1.1192 -1.8840
 1272TIP3   OH225450   2.033   3.311   2.944  0.9002  0.5991 -0.1933
 1272TIP3    H125451   2.022   3.278   2.854 -0.0452  0.3852 -0.0131
 1272TIP3    H225452   1.951   3.288   2.987  2.0430 -0.9771  1.2580
 1273TIP3   OH225453   1.087   1.688   1.857 -0.1441 -0.0363  0.2880
 1273TIP3    H125454   1.088   1.592   1.857 -0.6142 -0.0676  1.9050
 1273TIP3    H225455   1.070   1.712   1.948 -1.8302  1.5677 -0.3816
 1274TIP3   OH225456   0.277   4.377   1.272 -0.5825  0.3398  0.3261
 1274TIP3    H125457   0.330   4.408   1.199 -2.3757  2.7380 -0.0784
 1274TIP3    H225458   0.333   4.388   1.349  0.4726  0.0832 -0.3799
 1275TIP3   OH225459   6.589   0.880   3.862  0.0744 -0.3469 -0.0166
 1275TIP3    H125460   6.531   0.805   3.875  0.6523 -1.4523 -3.0109
 1275TIP3    H225461   6.533   0.956   3.877 -1.6796 -1.3828 -0.9145
 1276TIP3   OH225462   4.709   2.844   2.955 -0.1724  0.0761  0.1919
 1276TIP3    H125463   4.691   2.924   3.005 -1.0451  0.1105 -0.1509
 1276TIP3    H225464   4.707   2.872   2.863 -0.9412 -0.4099  0.0509
 1277TIP3   OH225465   0.874   3.403   2.639  0.0314  1.0256  0.1997
 1277TIP3    H125466   0.812   3.474   2.620 -1.1404 -0.3006 -1.2338
 1277TIP3    H225467   0.878   3.353   2.557  1.5325 -0.0323  0.8863
 1278TIP3   OH225468   2.417   1.552   2.853 -0.4433  0.2275  0.2533
 1278TIP3    H125469   2.476   1.490   2.895 -1.0112  0.2629  1.1282
 1278TIP3    H225470   2.359   1.499   2.799  0.8266  0.2495 -1.2073
 1279TIP3   OH225471   6.048   2.433   1.568  0.0837  0.1655  0.3873
 1279TIP3    H125472   6.046   2.527   1.585 -1.1627 -0.2126  2.7808
 1279TIP3    H225473   6.076   2.394   1.651 -1.9522 -1.6789  0.3180
 1280TIP3   OH225474   4.864   0.551   2.497  0.4164  0.5304 -0.0977
 1280TIP3    H125475   4.938   0.591   2.543 -0.3840  3.4115 -1.0642
 1280TIP3    H225476   4.857   0.602   2.416 -1.0145 -1.4168 -1.2715
 1281TIP3   OH225477   3.894   5.907   1.126  0.1293  0.0277  0.2147
 1281TIP3    H125478   3.902   5.822   1.168  0.2663 -0.5321 -0.9152
 1281TIP3    H225479   3.815   5.900   1.071 -0.0996  0.7694  0.4356
 1282TIP3   OH225480   5.953   1.151   0.572  0.1020  0.4477  0.0884
 1282TIP3    H125481   6.034   1.138   0.524  0.2498 -0.2860  0.5213
 1282TIP3    H225482   5.910   1.066   0.571 -0.3817  0.6799  0.3792
 1283TIP3   OH225483   2.222   5.790   1.722 -0.4264  0.2696 -0.7664
 1283TIP3    H125484   2.310   5.776   1.686  0.0403  1.7556 -0.2796
 1283TIP3    H225485   2.225   5.879   1.758 -1.4767 -0.4502  1.2164
 1284TIP3   OH225486   5.841   3.992   3.863  0.0526 -0.1705  1.3068
 1284TIP3    H125487   5.750   4.009   3.888  0.0126  0.4419  0.7722
 1284TIP3    H225488   5.837   3.975   3.769  0.4169 -0.7353  1.3915
 1285TIP3   OH225489   3.917   1.307   2.317  0.4006  0.7201  0.2160
 1285TIP3    H125490   4.008   1.323   2.340  0.8351 -0.5569 -0.5108
 1285TIP3    H225491   3.897   1.222   2.357  0.4430 -0.3975 -1.9779
 1286TIP3   OH225492   0.270   4.357   1.813  0.2488 -0.4610 -0.3002
 1286TIP3    H125493   0.205   4.325   1.751  0.8304 -2.6942  0.1599
 1286TIP3    H225494   0.317   4.426   1.765 -0.5005 -0.8805 -1.6848
 1287TIP3   OH225495   2.453   0.772   3.370 -0.3975 -0.1040 -0.3862
 1287TIP3    H125496   2.473   0.837   3.302 -0.0263  0.8382  0.5917
 1287TIP3    H225497   2.533   0.720   3.376 -0.3877 -0.1143 -0.5895
 1288TIP3   OH225498   1.178   3.088   1.842 -0.3820 -0.2500 -0.8105
 1288TIP3    H125499   1.172   3.117   1.751  1.7588  1.7469 -0.3827
 1288TIP3    H225500   1.116   3.143   1.889 -0.4616 -0.3207 -0.8311
 1289TIP3   OH225501   4.181   0.654   2.709  0.0791  0.6027 -0.4944
 1289TIP3    H125502   4.114   0.702   2.757  0.3786 -0.0103  0.5517
 1289TIP3    H225503   4.240   0.620   2.776  1.2295  0.8121 -1.3761
 1290TIP3   OH225504   2.990   5.862   4.390  0.1624  0.6781 -0.1452
 1290TIP3    H125505   2.957   5.784   4.345  1.1045  0.6188 -0.7654
 1290TIP3    H225506   3.070   5.833   4.433 -0.5635  0.8153  1.3500
 1291TIP3   OH225507   6.589   6.768   0.347  0.1405 -0.2219 -0.3729
 1291TIP3    H125508   6.523   6.824   0.388 -0.9359 -1.4350 -0.3758
 1291TIP3    H225509   6.542   6.723   0.276  1.7276  1.0914 -2.3617
 1292TIP3   OH225510   6.514   3.806   1.060  0.1245 -0.4791  0.1832
 1292TIP3    H125511   6.425   3.807   1.026  0.4845  0.6228 -0.7934
 1292TIP3    H225512   6.522   3.722   1.105 -1.0818 -1.0261 -0.5865
 1293TIP3   OH225513   0.124   2.955   8.865 -0.2762  0.7779 -0.3013
 1293TIP3    H125514   0.083   2.991   8.786 -1.3687 -0.7744 -0.5060
 1293TIP3    H225515   0.081   2.869   8.876 -0.6300  1.2170  2.3427
 1294TIP3   OH225516   4.032   2.964   2.874  0.1831  0.1759 -0.0639
 1294TIP3    H125517   4.050   2.918   2.956 -0.9550 -0.0425  0.0793
 1294TIP3    H225518   3.936   2.968   2.869  0.2337  0.1812 -1.3832
 1295TIP3   OH225519   4.807   2.970   0.093  0.1331 -0.0544  0.0321
 1295TIP3    H125520   4.726   2.953   0.046  0.0819 -1.0413  0.4573
 1295TIP3    H225521   4.863   2.895   0.074  0.4010 -0.0904  0.9097
 1296TIP3   OH225522   5.167   6.424   1.660  0.6951 -0.0817  0.3806
 1296TIP3    H125523   5.209   6.365   1.597 -2.5100 -0.5907 -1.4967
 1296TIP3    H225524   5.137   6.367   1.730  3.0128  0.2985  1.7844
 1297TIP3   OH225525   5.399   5.970   3.121  0.0842 -0.1368 -0.4998
 1297TIP3    H125526   5.365   5.889   3.085  0.8571 -0.1286 -1.2842
 1297TIP3    H225527   5.359   6.039   3.069  0.0516 -0.0494 -0.3619
 1298TIP3   OH225528   6.548   5.996   2.831  0.0007 -0.4682 -0.1688
 1298TIP3    H125529   6.480   5.938   2.795 -1.1130  1.0120 -0.5210
 1298TIP3    H225530   6.630   5.953   2.806 -0.7772 -1.7458 -0.6623
 1299TIP3   OH225531   3.113   4.586   4.045  0.2413 -0.3194 -0.1034
 1299TIP3    H125532   3.181   4.642   4.006  1.1287  0.3927  2.2968
 1299TIP3    H225533   3.078   4.638   4.117 -0.5768 -1.9652  0.7426
 1300TIP3   OH225534   4.826   1.277   3.686  0.7702  0.2865  0.0987
 1300TIP3    H125535   4.776   1.357   3.700 -3.4446 -2.3380  1.9189
 1300TIP3    H225536   4.862   1.255   3.772 -1.8323 -1.8566  0.7466
 1301TIP3   OH225537   0.773   6.362   4.861  0.2416  0.2203  0.1217
 1301TIP3    H125538   0.704   6.298   4.877  0.1998  0.0410 -0.7496
 1301TIP3    H225539   0.750   6.437   4.916 -0.7991  0.2702 -0.3643
 1302TIP3   OH225540   1.709   2.762   2.322 -0.4317  0.0494  0.7225
 1302TIP3    H125541   1.653   2.822   2.372 -0.9108  1.0855 -0.9767
 1302TIP3    H225542   1.650   2.694   2.291 -0.3228 -0.0646  0.7642
 1303TIP3   OH225543   6.512   0.599   2.273 -0.0882  0.3207  0.3911
 1303TIP3    H125544   6.516   0.638   2.186  0.2815 -0.7703 -0.0959
 1303TIP3    H225545   6.551   0.665   2.331 -1.2364  1.4601 -0.0981
 1304TIP3   OH225546   5.597   4.624   1.534  0.1638  0.2575 -0.1967
 1304TIP3    H125547   5.586   4.686   1.461  0.3619  1.8135  1.0277
 1304TIP3    H225548   5.598   4.538   1.493 -0.6095  1.0324 -1.9377
 1305TIP3   OH225549   1.555   1.256   1.197  0.4139 -0.4646 -0.3013
 1305TIP3    H125550   1.586   1.326   1.140  1.3585 -0.6491 -0.0314
 1305TIP3    H225551   1.522   1.301   1.275  2.0257 -0.3427  0.3467
 1306TIP3   OH225552   4.172   5.046   4.524  0.3164 -0.1496 -0.1164
 1306TIP3    H125553   4.220   5.052   4.606 -0.3077  2.0042  0.1532
 1306TIP3    H225554   4.240   5.055   4.456  0.6638 -0.5089  0.1752
 1307TIP3   OH225555   2.422   2.479   2.276  0.3911 -0.4316  0.3904
 1307TIP3    H125556   2.331   2.498   2.253  0.4452 -0.3802  0.2145
 1307TIP3    H225557   2.469   2.485   2.193  0.3217 -1.8483  0.2089
 1308TIP3   OH225558   4.612   2.389   2.744 -0.3172  0.2393 -0.0648
 1308TIP3    H125559   4.581   2.313   2.792  0.6499 -0.6411 -0.7893
 1308TIP3    H225560   4.707   2.390   2.759 -0.4099  1.7965  0.6200
 1309TIP3   OH225561   0.823   1.308   1.712 -0.1781  0.0471  0.2419
 1309TIP3    H125562   0.808   1.402   1.720  2.2181  0.4728  0.6105
 1309TIP3    H225563   0.809   1.288   1.620  0.7979  1.1160 -0.1656
 1310TIP3   OH225564   6.257   4.949   0.723 -0.2878  0.0483  0.4372
 1310TIP3    H125565   6.314   4.876   0.703 -0.7410 -0.2385  0.1767
 1310TIP3    H225566   6.308   5.027   0.699  0.4116 -0.1424  1.2454
 1311TIP3   OH225567   1.480   2.842   8.580  0.1868 -0.1473 -0.3572
 1311TIP3    H125568   1.441   2.901   8.645  0.2013  0.2361 -0.6935
 1311TIP3    H225569   1.474   2.755   8.620 -0.5919 -0.0322 -0.2046
 1312TIP3   OH225570   0.686   6.723   2.640 -0.2605  0.2081  0.3135
 1312TIP3    H125571   0.663   6.631   2.628 -1.6232  0.5019  0.4806
 1312TIP3    H225572   0.632   6.769   2.576 -0.1217  0.9461  0.7225
 1313TIP3   OH225573   3.147   5.156   0.923 -0.4362 -0.0569  0.0533
 1313TIP3    H125574   3.141   5.109   0.839  1.6920  0.2473 -0.3348
 1313TIP3    H225575   3.179   5.243   0.900  0.4281 -0.0494  1.1837
 1314TIP3   OH225576   6.746   5.973   4.156  0.4031 -0.2732  0.2559
 1314TIP3    H125577   6.661   5.983   4.115  1.1451 -0.5281 -1.4270
 1314TIP3    H225578   6.756   5.878   4.168  1.3946 -0.4765 -1.7700
 1315TIP3   OH225579   4.518   6.354   3.088 -0.1106  0.6860  0.2474
 1315TIP3    H125580   4.430   6.325   3.113  0.3862 -0.9941  0.1467
 1315TIP3    H225581   4.576   6.311   3.150  0.7367  0.7675 -0.4756
 1316TIP3   OH225582   1.166   0.030   3.790  0.0169  0.9999 -0.2671
 1316TIP3    H125583   1.131   0.105   3.743 -0.1065  2.7592  2.4471
 1316TIP3    H225584   1.109   0.021   3.867 -0.1011 -2.0469 -0.5903
 1317TIP3   OH225585   3.366   1.239   0.759  0.6706  0.0213  0.2376
 1317TIP3    H125586   3.289   1.197   0.721  0.6447 -0.5266  0.8816
 1317TIP3    H225587   3.374   1.322   0.711  0.3175 -0.4000 -0.5723
 1318TIP3   OH225588   4.456   5.714   4.598 -0.5516  0.2256  0.2154
 1318TIP3    H125589   4.471   5.767   4.519 -0.4935 -1.1182 -0.7224
 1318TIP3    H225590   4.404   5.770   4.655  0.1781  1.5774 -0.3808
 1319TIP3   OH225591   3.913   4.917   1.546 -0.7208  0.7611  0.1509
 1319TIP3    H125592   3.914   4.982   1.617 -0.8869  2.2369 -1.1519
 1319TIP3    H225593   3.823   4.919   1.513 -0.9584 -0.7768  0.6292
 1320TIP3   OH225594   4.533   4.364   1.425  0.3416 -0.7661 -0.3102
 1320TIP3    H125595   4.500   4.356   1.336  0.0912 -0.4512 -0.2473
 1320TIP3    H225596   4.621   4.402   1.414 -0.4804  1.2536 -0.3271
 1321TIP3   OH225597   2.985   6.400   2.803 -0.1620  0.6200  0.1672
 1321TIP3    H125598   2.922   6.471   2.792 -1.6771 -0.7417 -0.2911
 1321TIP3    H225599   2.941   6.337   2.860  0.4886 -0.6975 -0.7447
 1322TIP3   OH225600   4.400   6.734   3.260 -0.1499 -0.2627  0.2154
 1322TIP3    H125601   4.357   6.701   3.181 -1.5325  0.8112  0.4690
 1322TIP3    H225602   4.481   6.774   3.229  0.3491 -1.6672 -0.3795
 1323TIP3   OH225603   1.617   5.119   1.551 -0.7751  0.2530 -0.4126
 1323TIP3    H125604   1.705   5.154   1.540  0.1900 -1.6370  0.7806
 1323TIP3    H225605   1.581   5.167   1.625 -0.6324  0.7617 -0.6647
 1324TIP3   OH225606   3.212   6.717   3.796  0.1685 -0.2392 -0.8519
 1324TIP3    H125607   3.229   6.625   3.816  0.2224 -0.0927 -0.1908
 1324TIP3    H225608   3.264   6.765   3.860  1.6938  0.2878 -2.4078
 1325TIP3   OH225609   0.161   2.771   4.248 -0.4423  0.4152  0.3310
 1325TIP3    H125610   0.171   2.830   4.323 -1.3834  0.8210  0.1526
 1325TIP3    H225611   0.172   2.827   4.171 -1.0091  0.2971  0.1597
 1326TIP3   OH225612   1.277   6.429   1.614  0.0337  0.6533 -0.0822
 1326TIP3    H125613   1.355   6.439   1.559  1.3380 -0.9841  1.3784
 1326TIP3    H225614   1.261   6.517   1.648  0.1466  1.3682 -1.7770
 1327TIP3   OH225615   2.117   5.603   0.576  0.0328  0.7298 -0.5640
 1327TIP3    H125616   2.173   5.627   0.502  2.6969 -1.2329  0.6561
 1327TIP3    H225617   2.167   5.537   0.623 -1.7599  1.5314  2.7460
 1328TIP3   OH225618   1.909   6.375   2.515  0.2654 -0.2969 -0.3770
 1328TIP3    H125619   1.967   6.377   2.439  1.5940 -0.6752  0.5965
 1328TIP3    H225620   1.948   6.436   2.577  1.1839 -2.4817  1.3394
 1329TIP3   OH225621   5.835   0.142   3.302  0.0328 -0.1305  0.3795
 1329TIP3    H125622   5.903   0.189   3.351 -0.3477  1.2003 -0.3268
 1329TIP3    H225623   5.769   0.120   3.369  1.8525 -2.9738  1.4203
 1330TIP3   OH225624   3.627   4.859   3.302  0.4117 -0.0161  0.0579
 1330TIP3    H125625   3.627   4.766   3.280  0.9538  0.0528 -0.2594
 1330TIP3    H225626   3.586   4.902   3.227  0.5305  0.0350  0.0212
 1331TIP3   OH225627   3.962   0.477   3.774  0.3665 -0.4497  0.3422
 1331TIP3    H125628   4.055   0.470   3.795  0.3719 -1.4717  0.0348
 1331TIP3    H225629   3.959   0.484   3.679  0.1892  1.1822  0.4350
 1332TIP3   OH225630   0.746   5.190   3.356  0.1327  0.2796  0.0609
 1332TIP3    H125631   0.685   5.207   3.427  0.9219 -1.8334  1.3353
 1332TIP3    H225632   0.806   5.265   3.356  0.3805  0.1175  1.9402
 1333TIP3   OH225633   5.966   6.684   1.317  0.7179 -0.7072 -0.0920
 1333TIP3    H125634   5.921   6.759   1.355  0.1136 -0.5534 -1.0747
 1333TIP3    H225635   5.989   6.629   1.392  3.4344  1.5869  0.9547
 1334TIP3   OH225636   2.503   0.603   1.479  0.9227 -0.3878 -0.0229
 1334TIP3    H125637   2.422   0.610   1.429  0.7721 -5.0936 -0.9833
 1334TIP3    H225638   2.567   0.651   1.427 -0.9480  2.8839  0.4216
 1335TIP3   OH225639   4.022   4.256   3.037 -0.0457 -0.1147 -0.0373
 1335TIP3    H125640   4.087   4.254   2.967  0.4019  0.9755  0.3242
 1335TIP3    H225641   4.050   4.327   3.094 -1.4329  0.2491  0.2376
 1336TIP3   OH225642   3.716   1.136   2.015  0.8152  0.1281  0.3947
 1336TIP3    H125643   3.697   1.219   1.972  2.1153 -0.8780 -2.3321
 1336TIP3    H225644   3.748   1.161   2.102  1.7268  2.5209 -0.5463
 1337TIP3   OH225645   3.779   6.016   2.355  0.0533 -0.0502  0.6330
 1337TIP3    H125646   3.815   5.927   2.354 -0.2072 -0.2549  3.1308
 1337TIP3    H225647   3.844   6.068   2.402 -0.5719  0.7080  0.6898
 1338TIP3   OH225648   5.802   2.093   2.823 -0.0218 -0.7427  0.4436
 1338TIP3    H125649   5.714   2.108   2.858  0.1865  0.7463  0.3793
 1338TIP3    H225650   5.788   2.069   2.731 -0.4065 -1.6133  0.7225
 1339TIP3   OH225651   4.368   5.525   1.556 -0.2978 -0.3037  0.2013
 1339TIP3    H125652   4.404   5.443   1.589  0.8787  0.4913  0.9819
 1339TIP3    H225653   4.417   5.543   1.476  0.6381  0.4499  0.9163
 1340TIP3   OH225654   2.379   6.669   3.479 -0.1318 -0.4145  0.0466
 1340TIP3    H125655   2.341   6.728   3.414 -1.6839 -1.6463 -0.2321
 1340TIP3    H225656   2.313   6.663   3.548 -0.0259 -1.8082  0.0599
 1341TIP3   OH225657   5.240   3.747   5.049  0.3879 -0.3828  0.0802
 1341TIP3    H125658   5.168   3.685   5.058 -0.0199 -0.2686 -1.9790
 1341TIP3    H225659   5.263   3.745   4.956  1.1160  1.7155  0.1628
 1342TIP3   OH225660   0.020   1.359   4.110  0.2268 -0.0047 -0.2082
 1342TIP3    H125661  -0.049   1.416   4.078  0.7836  0.7951 -0.0131
 1342TIP3    H225662   0.094   1.373   4.050 -0.2897 -2.0960 -1.4228
 1343TIP3   OH225663   3.455   4.392   2.892 -0.2795 -0.0542  0.1076
 1343TIP3    H125664   3.461   4.306   2.851  0.3909  0.0802 -0.0949
 1343TIP3    H225665   3.538   4.434   2.870 -1.2338  1.2629 -1.1762
 1344TIP3   OH225666   1.844   4.116   2.328 -0.0887 -0.1102 -0.1851
 1344TIP3    H125667   1.818   4.136   2.238  0.7862  3.0369  0.1451
 1344TIP3    H225668   1.924   4.064   2.318 -0.3285 -0.3101 -1.2058
 1345TIP3   OH225669   3.736   1.663   1.772 -0.0895 -0.0726 -0.3252
 1345TIP3    H125670   3.749   1.625   1.685 -1.0228  0.5026 -0.7299
 1345TIP3    H225671   3.809   1.724   1.782  0.2553 -0.4428 -0.5248
 1346TIP3   OH225672   3.296   2.244   2.601 -0.6203  0.3051  0.4659
 1346TIP3    H125673   3.309   2.155   2.634  0.2485  0.6165  1.0008
 1346TIP3    H225674   3.351   2.248   2.522  0.6192  0.8431  1.3268
 1347TIP3   OH225675   3.185   0.304   4.062  0.1111  0.1192  0.2918
 1347TIP3    H125676   3.110   0.357   4.035 -0.7574 -0.6160  1.1683
 1347TIP3    H225677   3.174   0.294   4.157  0.5385 -1.1814  0.2255
 1348TIP3   OH225678   2.815   0.604   1.681  0.0217  0.4491 -0.1922
 1348TIP3    H125679   2.830   0.583   1.588  0.5752 -0.8270  0.1571
 1348TIP3    H225680   2.854   0.531   1.728 -1.0883  0.6006  1.0250
 1349TIP3   OH225681   4.832   6.444   0.931 -0.2645  0.1337  0.3363
 1349TIP3    H125682   4.827   6.418   1.023  0.3446 -1.2346  0.0113
 1349TIP3    H225683   4.920   6.419   0.904 -0.3093  0.8737 -0.5224
 1350TIP3   OH225684   2.088   2.279   3.196 -0.3997 -0.2434 -0.3830
 1350TIP3    H125685   2.153   2.276   3.266  0.4571 -0.1627 -1.1594
 1350TIP3    H225686   2.069   2.187   3.177  0.9616 -0.3370 -1.4674
 1351TIP3   OH225687   3.742   2.347   1.955 -0.0999 -0.5059  0.9892
 1351TIP3    H125688   3.792   2.266   1.940  0.8988  0.2445  0.1663
 1351TIP3    H225689   3.803   2.417   1.933 -0.3679  0.5515  3.3358
 1352TIP3   OH225690   3.230   1.734   3.465 -0.2272 -0.3672  0.5653
 1352TIP3    H125691   3.211   1.644   3.491 -0.0748  0.1354  2.6049
 1352TIP3    H225692   3.321   1.748   3.491  0.2239 -0.0659 -1.1082
 1353TIP3   OH225693   5.738   5.432   2.038  0.6917 -0.5184  0.7041
 1353TIP3    H125694   5.833   5.443   2.040  0.6589  0.0139 -0.0772
 1353TIP3    H225695   5.709   5.493   1.970 -0.2558 -0.3134  1.2767
 1354TIP3   OH225696   3.400   6.477   0.466 -0.3771  0.1099 -0.5075
 1354TIP3    H125697   3.316   6.459   0.509 -0.6030  1.0649 -0.5207
 1354TIP3    H225698   3.396   6.429   0.384 -1.1988  0.6835 -0.8102
 1355TIP3   OH225699   1.453   1.776   1.259 -0.2296  0.1609 -0.0015
 1355TIP3    H125700   1.467   1.699   1.314 -0.0596  0.6722  0.6905
 1355TIP3    H225701   1.425   1.741   1.174  3.6311 -0.9414 -1.0290
 1356TIP3   OH225702   1.382   1.722   1.785 -0.3829  0.1399  0.1257
 1356TIP3    H125703   1.321   1.794   1.771 -1.1165 -0.7205 -1.3176
 1356TIP3    H225704   1.335   1.645   1.755  1.0357 -0.7013 -0.0152
 1357TIP3   OH225705   2.522   2.666   3.462 -0.4256 -0.0667  0.3296
 1357TIP3    H125706   2.539   2.717   3.541 -0.5749  0.4192  0.0499
 1357TIP3    H225707   2.548   2.577   3.485 -0.2241  0.1221  0.8409
 1358TIP3   OH225708   0.117   0.515   1.223 -0.2624  0.2450 -0.1501
 1358TIP3    H125709   0.134   0.498   1.316 -0.0414 -0.8254 -0.3688
 1358TIP3    H225710   0.203   0.507   1.182 -0.2305  1.4602 -0.3616
 1359TIP3   OH225711   1.768   4.396   1.137  0.1623  0.3884 -0.1889
 1359TIP3    H125712   1.780   4.491   1.131  0.3400  0.4338  0.7905
 1359TIP3    H225713   1.799   4.373   1.225  0.2977 -0.6040 -0.4823
 1360TIP3   OH225714   1.188   2.708   1.694  0.3102  0.3067  0.3018
 1360TIP3    H125715   1.127   2.642   1.661  0.7261  1.2007 -2.4978
 1360TIP3    H225716   1.270   2.692   1.647  1.2385  1.1900  1.5366
 1361TIP3   OH225717   1.783   3.518   8.811  0.0991  0.1545 -0.0440
 1361TIP3    H125718   1.804   3.465   8.734 -1.8126 -0.1824 -0.3845
 1361TIP3    H225719   1.769   3.454   8.881  1.6042  0.4481  0.5471
 1362TIP3   OH225720   6.464   4.053   3.054 -0.0836  0.1457  0.3674
 1362TIP3    H125721   6.400   4.065   2.983  0.1644  2.7175  0.4888
 1362TIP3    H225722   6.546   4.034   3.009 -0.2456  0.2425  0.0267
 1363TIP3   OH225723   1.354   6.298   3.462  0.3240  0.0056  0.2677
 1363TIP3    H125724   1.324   6.389   3.460  0.0018 -0.1145 -0.5741
 1363TIP3    H225725   1.415   6.295   3.536  1.1244  1.1512 -0.3119
 1364TIP3   OH225726   6.659   4.432   1.167  0.0062  0.3384  0.4183
 1364TIP3    H125727   6.726   4.477   1.117 -0.0722 -0.2849 -0.2669
 1364TIP3    H225728   6.686   4.441   1.259  1.1866 -0.1591  0.1344
 1365TIP3   OH225729   5.060   5.827   1.860  0.4739 -0.3470  0.3580
 1365TIP3    H125730   5.126   5.771   1.900  1.8722 -1.0839 -2.6836
 1365TIP3    H225731   4.997   5.766   1.822  0.5621  0.1784 -0.6771
 1366TIP3   OH225732   3.463   5.251   2.207  0.2470 -0.2011  0.0339
 1366TIP3    H125733   3.382   5.293   2.177  0.5686 -1.1248 -2.3437
 1366TIP3    H225734   3.527   5.272   2.139  1.8591 -0.0661  1.5294
 1367TIP3   OH225735   5.178   5.494   1.546  0.0220  0.2610 -0.1288
 1367TIP3    H125736   5.242   5.500   1.475  0.7514 -1.0724  0.3789
 1367TIP3    H225737   5.094   5.509   1.503  0.6595  2.4769 -0.7419
 1368TIP3   OH225738   2.521   2.822   2.919  0.9001 -0.2270 -1.0589
 1368TIP3    H125739   2.588   2.859   2.861 -0.4676  2.0515 -1.2928
 1368TIP3    H225740   2.440   2.826   2.868 -0.7287  3.4712  1.3725
 1369TIP3   OH225741   1.005   0.015   4.012 -0.2697  0.0460 -0.2544
 1369TIP3    H125742   1.001   0.029   4.106 -1.2392  0.0087 -0.2782
 1369TIP3    H225743   0.919  -0.020   3.989 -0.1864  0.4277 -1.2067
 1370TIP3   OH225744   3.550   2.609   2.411 -0.2876 -0.2271  0.3820
 1370TIP3    H125745   3.615   2.666   2.454  1.0721 -1.2159 -0.2836
 1370TIP3    H225746   3.586   2.593   2.324 -2.5296  0.9706 -0.8638
 1371TIP3   OH225747   3.263   0.249   2.670 -0.4132  0.5757  0.4101
 1371TIP3    H125748   3.303   0.331   2.698 -1.3277  0.9792  0.5878
 1371TIP3    H225749   3.210   0.221   2.744 -0.9699  0.4025 -0.0419
 1372TIP3   OH225750   3.399   0.347   8.690  0.2982  0.8478 -0.4276
 1372TIP3    H125751   3.328   0.288   8.716 -1.1140  2.9414  0.8052
 1372TIP3    H225752   3.385   0.361   8.596  0.3342 -0.3328 -0.6201
 1373TIP3   OH225753   5.804   6.583   5.121  0.2040  0.1673 -0.1248
 1373TIP3    H125754   5.857   6.596   5.199  0.3234  1.3021 -0.3819
 1373TIP3    H225755   5.779   6.671   5.093  0.2907 -0.1941 -1.4413
 1374TIP3   OH225756   1.002   2.504   1.708 -0.2355  0.2195 -0.4161
 1374TIP3    H125757   1.042   2.425   1.672  2.0543  2.0433 -2.2513
 1374TIP3    H225758   0.908   2.486   1.707 -0.1875 -1.0599 -4.8433
 1375TIP3   OH225759   5.813   3.315   2.046 -0.2132  0.1298  0.0137
 1375TIP3    H125760   5.816   3.401   2.086  0.1563  0.4575 -0.7128
 1375TIP3    H225761   5.869   3.321   1.969  0.7133 -1.0783  0.5536
 1376TIP3   OH225762   3.844   1.823   8.611 -0.0904  0.4307 -0.1953
 1376TIP3    H125763   3.752   1.805   8.631 -0.5083  0.3606 -2.0373
 1376TIP3    H225764   3.869   1.754   8.550  0.8607  1.0957 -0.5771
 1377TIP3   OH225765   2.769   2.189   2.819  0.3196  0.1012 -0.4041
 1377TIP3    H125766   2.812   2.126   2.877  2.5917  0.8531 -1.1678
 1377TIP3    H225767   2.817   2.270   2.830 -1.1890  1.1320 -1.0452
 1378TIP3   OH225768   5.109   2.364   1.528 -0.2368  0.1337 -0.4936
 1378TIP3    H125769   5.116   2.342   1.435 -0.5687  1.5947 -0.8804
 1378TIP3    H225770   5.197   2.349   1.563 -0.2656 -1.0674 -0.8674
 1379TIP3   OH225771   3.287   2.919   4.201 -0.4441  0.4436  0.5317
 1379TIP3    H125772   3.269   2.853   4.134 -3.5498  1.8145 -0.1176
 1379TIP3    H225773   3.361   2.882   4.251 -0.4177 -2.3071 -1.3304
 1380TIP3   OH225774   0.095   1.577   2.545 -0.2972  0.6678 -0.8199
 1380TIP3    H125775   0.179   1.574   2.500 -1.1285 -0.7496 -2.3761
 1380TIP3    H225776   0.038   1.627   2.487 -1.5133 -1.5915 -1.6876
 1381TIP3   OH225777   5.168   1.545   4.589 -0.1965  0.1167  0.2292
 1381TIP3    H125778   5.132   1.604   4.656  1.2557  1.4006 -0.0499
 1381TIP3    H225779   5.105   1.473   4.584 -1.3315  0.9511  1.5870
 1382TIP3   OH225780   2.316   0.718   2.438 -0.4259 -0.8330  0.2818
 1382TIP3    H125781   2.249   0.781   2.463  1.7177  1.6264  0.1536
 1382TIP3    H225782   2.323   0.727   2.343 -0.6461 -1.9165  0.1448
 1383TIP3   OH225783   4.137   2.931   3.586  0.3871  0.4052 -0.3896
 1383TIP3    H125784   4.111   3.020   3.610 -2.0200 -0.5534  0.9381
 1383TIP3    H225785   4.066   2.900   3.530  1.1990 -0.6826 -0.8546
 1384TIP3   OH225786   3.767   1.259   4.237  0.4255 -0.2287 -0.6160
 1384TIP3    H125787   3.855   1.276   4.269  0.2334 -0.7214  0.2163
 1384TIP3    H225788   3.723   1.214   4.310 -0.2161 -0.8542 -1.3705
 1385TIP3   OH225789   6.061   6.325   3.762  0.2119  0.1377  0.1664
 1385TIP3    H125790   6.069   6.235   3.793  0.2097  0.0769 -0.0053
 1385TIP3    H225791   6.106   6.325   3.678 -0.1220  0.2006 -0.0160
 1386TIP3   OH225792   5.026   5.360   4.324  0.7470 -0.0208 -0.4021
 1386TIP3    H125793   5.043   5.420   4.251  0.2828  0.1778 -0.3459
 1386TIP3    H225794   4.953   5.305   4.294  2.4895 -1.9992 -1.3179
 1387TIP3   OH225795   0.758   3.609   2.527  0.1440  0.0461 -0.1585
 1387TIP3    H125796   0.850   3.635   2.519  0.4719 -0.1468  2.2149
 1387TIP3    H225797   0.710   3.692   2.536  0.2705  0.0883  0.1218
 1388TIP3   OH225798   0.712   3.201   1.471  0.6067  0.4494 -0.1230
 1388TIP3    H125799   0.785   3.141   1.456  1.2446  0.3827  2.6836
 1388TIP3    H225800   0.753   3.286   1.488  0.0859  0.4400  1.3580
 1389TIP3   OH225801   0.498   2.013   2.500 -0.2220  0.1512 -0.1422
 1389TIP3    H125802   0.490   2.056   2.586  1.0660  2.5258 -1.1207
 1389TIP3    H225803   0.589   1.986   2.495  0.2898  1.9157 -1.5066
 1390TIP3   OH225804   4.492   1.616   3.862  0.0668 -0.4221  0.2069
 1390TIP3    H125805   4.426   1.661   3.809  0.0269 -0.0439  0.5661
 1390TIP3    H225806   4.455   1.616   3.951 -0.7615 -2.8081 -0.0921
 1391TIP3   OH225807   3.665   2.072   3.428 -0.6374 -0.1914 -0.1289
 1391TIP3    H125808   3.731   2.022   3.476 -0.5186  0.2913  0.2191
 1391TIP3    H225809   3.602   2.006   3.399 -0.4817 -0.5450  0.3181
 1392TIP3   OH225810   2.426   4.615   2.382  0.3290  0.3252 -0.3519
 1392TIP3    H125811   2.476   4.596   2.302 -0.7955 -0.3463 -0.9099
 1392TIP3    H225812   2.351   4.665   2.352 -0.1705 -0.0395  0.2745
 1393TIP3   OH225813   0.327   0.604   3.240 -0.4580  0.2756  0.4398
 1393TIP3    H125814   0.389   0.590   3.312 -0.2603  0.7510  0.3682
 1393TIP3    H225815   0.244   0.624   3.283 -1.5142 -3.7404  0.6318
 1394TIP3   OH225816   4.299   4.195   0.019  0.0526  0.1173 -0.3021
 1394TIP3    H125817   4.207   4.215  -0.001  0.2548 -0.1889 -1.6285
 1394TIP3    H225818   4.317   4.114  -0.029  1.6152  1.3059 -1.8697
 1395TIP3   OH225819   3.316   2.899   8.869  0.4579  0.3965 -0.1726
 1395TIP3    H125820   3.297   2.808   8.891  1.5071  0.2203  0.0566
 1395TIP3    H225821   3.345   2.896   8.778  2.5001  0.1815  0.4397
 1396TIP3   OH225822   4.195   4.808   1.092  0.0578 -0.2931 -0.2639
 1396TIP3    H125823   4.159   4.803   1.181  2.5306 -2.5244  0.7503
 1396TIP3    H225824   4.250   4.886   1.093 -0.9448  0.4331 -0.2974
 1397TIP3   OH225825   5.571   2.264   4.537  0.3640  0.0803  0.4922
 1397TIP3    H125826   5.631   2.195   4.565  3.0254  1.3934 -1.5213
 1397TIP3    H225827   5.600   2.287   4.449 -2.2062  1.8762  0.0002
 1398TIP3   OH225828   5.264   1.085   4.806  0.5140 -0.2891  0.8622
 1398TIP3    H125829   5.238   1.095   4.715 -2.2201 -2.1547  1.2706
 1398TIP3    H225830   5.359   1.074   4.804  0.8159  1.8859 -1.4608
 1399TIP3   OH225831   3.398   0.639   1.709 -0.6306  0.3026  0.1092
 1399TIP3    H125832   3.375   0.597   1.792 -1.1771 -1.2203 -0.7896
 1399TIP3    H225833   3.315   0.653   1.664 -0.2374 -0.2585 -0.8218
 1400TIP3   OH225834   3.767   3.483   2.309  0.3340 -0.9641 -0.2159
 1400TIP3    H125835   3.815   3.565   2.306 -1.6423  0.4538  2.3640
 1400TIP3    H225836   3.751   3.460   2.217  1.4194  1.2356 -1.0016
 1401TIP3   OH225837   0.832   3.249   1.839  0.3414 -0.0213 -0.0059
 1401TIP3    H125838   0.911   3.279   1.795  0.5151 -0.0568  0.2810
 1401TIP3    H225839   0.778   3.328   1.848 -0.6857 -0.3823 -2.2894
 1402TIP3   OH225840   5.026   6.444   3.025  0.1049 -0.6705 -0.3096
 1402TIP3    H125841   5.116   6.476   3.028 -0.5546  1.3424 -0.7518
 1402TIP3    H225842   5.027   6.367   3.082  2.0845 -0.6786 -0.2748
 1403TIP3   OH225843   2.880   6.413   2.543  0.3250 -0.2412  0.3724
 1403TIP3    H125844   2.896   6.352   2.471 -2.1139  1.6058 -1.9558
 1403TIP3    H225845   2.937   6.383   2.614  2.0279 -2.8640 -1.9160
 1404TIP3   OH225846   0.920   1.095   3.988  0.3206  0.4923  0.5695
 1404TIP3    H125847   0.836   1.063   4.019  0.1039  1.7548  1.3453
 1404TIP3    H225848   0.899   1.174   3.939  1.0372  0.6779  0.5472
 1405TIP3   OH225849   6.526   5.799   3.072 -0.1348  0.7771 -0.9702
 1405TIP3    H125850   6.549   5.792   3.164  1.3680 -0.2946 -1.3990
 1405TIP3    H225851   6.432   5.778   3.069  0.0087 -0.1173  0.1983
 1406TIP3   OH225852   5.625   4.380   1.446 -0.3435  0.3932  0.5444
 1406TIP3    H125853   5.543   4.333   1.431 -0.1016 -0.0823  0.6982
 1406TIP3    H225854   5.693   4.314   1.438 -0.1798 -0.0229  3.9002
 1407TIP3   OH225855   1.504   2.177   2.703 -0.6167  0.5850 -0.5432
 1407TIP3    H125856   1.527   2.192   2.795 -0.4415 -1.0730 -0.2749
 1407TIP3    H225857   1.571   2.223   2.653  2.3640 -2.5036  0.2223
 1408TIP3   OH225858   5.699   2.823   1.367  0.4030  0.1332 -0.1524
 1408TIP3    H125859   5.691   2.836   1.272 -0.6797  0.3415 -0.0427
 1408TIP3    H225860   5.650   2.895   1.405  0.3738 -0.2594  0.5627
 1409TIP3   OH225861   4.627   6.051   1.197  0.1212  0.1123 -0.4283
 1409TIP3    H125862   4.599   5.983   1.136 -0.6410  0.2933 -0.2881
 1409TIP3    H225863   4.720   6.064   1.177  0.4899 -1.5092  0.0736
 1410TIP3   OH225864   1.835   2.560   1.187 -0.1944  0.2116 -0.6719
 1410TIP3    H125865   1.801   2.620   1.121  0.5734 -0.3372 -1.5917
 1410TIP3    H225866   1.796   2.476   1.166  0.7002 -0.1438 -0.9379
 1411TIP3   OH225867   4.751   2.382   3.480  0.7179 -0.4848  0.6326
 1411TIP3    H125868   4.693   2.308   3.498 -0.3859 -0.1336 -1.1588
 1411TIP3    H225869   4.763   2.380   3.385  2.0213  0.6577  0.7455
 1412TIP3   OH225870   1.811   2.224   2.164  0.2907  0.1143  0.6483
 1412TIP3    H125871   1.762   2.276   2.227  1.6996  2.4603 -0.0328
 1412TIP3    H225872   1.748   2.161   2.129 -1.5526  1.4139  1.4941
 1413TIP3   OH225873   4.789   6.690   2.104  0.2270 -0.4765 -0.0707
 1413TIP3    H125874   4.730   6.616   2.114  1.3963 -1.5651 -0.9371
 1413TIP3    H225875   4.808   6.719   2.193  0.3092 -1.6863  0.3252
 1414TIP3   OH225876   0.073   6.509   0.750  0.2528 -0.3229 -0.2022
 1414TIP3    H125877   0.053   6.431   0.801 -1.2912  1.1943  1.6822
 1414TIP3    H225878  -0.012   6.545   0.726  0.8161  1.9493  0.9142
 1415TIP3   OH225879   6.704   2.605   2.409 -0.2175 -0.0748  0.3401
 1415TIP3    H125880   6.744   2.578   2.326 -1.1949  2.4347 -1.0626
 1415TIP3    H225881   6.777   2.615   2.469  1.0489  1.6333 -1.3452
 1416TIP3   OH225882   3.891   1.955   3.551 -0.3921  0.1032  0.0623
 1416TIP3    H125883   3.884   1.891   3.622 -2.0828 -1.6613 -1.5997
 1416TIP3    H225884   3.981   1.944   3.518  0.2840  0.6729  1.5915
 1417TIP3   OH225885   5.216   6.588   4.773  0.6182 -1.2774 -0.0755
 1417TIP3    H125886   5.282   6.656   4.759  1.5161 -1.9875  0.6156
 1417TIP3    H225887   5.266   6.511   4.797 -0.5669 -1.1660  3.2616
 1418TIP3   OH225888   0.451   5.402   4.503 -0.1608 -0.0619  0.2263
 1418TIP3    H125889   0.385   5.333   4.493 -0.7358  0.3240  1.2437
 1418TIP3    H225890   0.469   5.404   4.597  2.0252 -0.8064 -0.1177
 1419TIP3   OH225891   0.967   4.347   2.137  0.1009 -0.5595 -0.1997
 1419TIP3    H125892   0.979   4.269   2.082 -0.3119 -0.1806 -0.8387
 1419TIP3    H225893   0.873   4.352   2.151 -0.0178  0.5452 -1.2499
 1420TIP3   OH225894   6.450   1.935   2.222  0.1280 -0.4589 -0.1721
 1420TIP3    H125895   6.528   1.881   2.211 -0.8984 -2.6186  1.9637
 1420TIP3    H225896   6.391   1.880   2.275 -1.4703  2.3582  1.2108
 1421TIP3   OH225897   2.346   5.997   0.787  0.3729 -0.1440 -0.0785
 1421TIP3    H125898   2.341   5.970   0.696 -1.3027  1.8655 -0.6507
 1421TIP3    H225899   2.257   6.026   0.809  0.9295  0.2152  1.9242
 1422TIP3   OH225900   1.880   0.207   1.147 -0.2596  0.3342  0.2423
 1422TIP3    H125901   1.966   0.165   1.152 -0.6386 -0.4181  0.5917
 1422TIP3    H225902   1.819   0.140   1.179 -1.2833 -0.0515 -2.3094
 1423TIP3   OH225903   2.684   1.611   4.784  0.3097 -0.1860  0.6451
 1423TIP3    H125904   2.724   1.614   4.697  0.3890 -1.0136  0.6463
 1423TIP3    H225905   2.605   1.559   4.773 -0.3075  0.6853  0.8369
 1424TIP3   OH225906   3.387   1.158   1.254  0.1397 -0.5289 -0.1498
 1424TIP3    H125907   3.396   1.066   1.228  0.5932 -0.1571 -1.4112
 1424TIP3    H225908   3.307   1.187   1.209 -0.1093 -0.3483  0.3992
 1425TIP3   OH225909   5.904   6.139   2.162  0.1743  0.7494 -0.0254
 1425TIP3    H125910   5.882   6.089   2.084 -0.0661 -0.8296  1.0188
 1425TIP3    H225911   5.911   6.230   2.131  0.2601  0.1417 -1.8917
 1426TIP3   OH225912   3.386   2.921   1.817 -0.4358 -0.1878 -0.5274
 1426TIP3    H125913   3.368   2.913   1.723  0.9449 -2.1229 -0.6849
 1426TIP3    H225914   3.323   2.861   1.858  0.1871 -0.7636 -0.3971
 1427TIP3   OH225915   6.556   3.325   1.440  0.0332 -0.1946 -0.8162
 1427TIP3    H125916   6.499   3.261   1.398  0.3110  0.3246 -2.0554
 1427TIP3    H225917   6.612   3.274   1.498  0.4442 -1.1342 -1.9870
 1428TIP3   OH225918   1.616   6.344   4.654  0.2241  0.1736  0.6009
 1428TIP3    H125919   1.581   6.413   4.598  2.7584  1.8567  0.9346
 1428TIP3    H225920   1.541   6.314   4.705 -1.1491  2.0360 -0.2250
 1429TIP3   OH225921   6.414   0.951   0.865 -0.1823 -0.1680 -0.5451
 1429TIP3    H125922   6.419   0.975   0.772  1.9327 -0.2516 -0.5081
 1429TIP3    H225923   6.476   0.878   0.874  1.6209  1.4853  1.3713
 1430TIP3   OH225924   5.804   2.735   3.871 -0.1209 -0.3541  0.2022
 1430TIP3    H125925   5.716   2.735   3.833 -0.1284 -1.3837  0.2031
 1430TIP3    H225926   5.855   2.679   3.813  0.9620  1.4796 -0.7010
 1431TIP3   OH225927   4.310   3.193   1.321 -0.1010 -0.2543  0.4730
 1431TIP3    H125928   4.281   3.259   1.258 -0.7998 -0.9911 -0.0057
 1431TIP3    H225929   4.399   3.172   1.295  0.2659  0.7714  0.8692
 1432TIP3   OH225930   4.889   5.958   0.993 -0.4653  0.4501 -0.3894
 1432TIP3    H125931   4.828   5.981   0.924 -0.5154 -0.5401 -0.6897
 1432TIP3    H225932   4.845   5.889   1.042 -0.1685  0.7087  0.2536
 1433TIP3   OH225933   0.134   1.723   3.304  0.6283 -0.3852 -0.0018
 1433TIP3    H125934   0.219   1.685   3.325  1.2569  1.3983  0.9314
 1433TIP3    H225935   0.114   1.780   3.378 -0.3585  0.8582 -1.1509
 1434TIP3   OH225936   0.907   0.516   1.684  0.0401  0.0471 -0.4495
 1434TIP3    H125937   0.930   0.478   1.769  1.5190 -0.6065 -1.1117
 1434TIP3    H225938   0.856   0.594   1.706  1.8335  0.8600  1.1032
 1435TIP3   OH225939   3.029   0.443   2.870  0.3143 -0.1214  0.1195
 1435TIP3    H125940   3.009   0.353   2.899 -0.7454 -0.9998 -2.9704
 1435TIP3    H225941   3.089   0.476   2.937  1.1845 -3.3076  1.1109
 1436TIP3   OH225942   6.190   5.651   3.453 -0.2098 -0.5630 -0.7218
 1436TIP3    H125943   6.268   5.597   3.467 -0.2166 -0.6244 -0.9180
 1436TIP3    H225944   6.215   5.737   3.486  0.0558 -0.4985 -1.0842
 1437TIP3   OH225945   0.660   1.120   0.723  0.2873  0.1397 -0.2854
 1437TIP3    H125946   0.644   1.030   0.748 -0.4479  0.0054 -1.2095
 1437TIP3    H225947   0.610   1.133   0.642  0.5949  1.2883 -0.3185
 1438TIP3   OH225948   1.335   6.014   3.435 -0.5284  0.6163 -0.2675
 1438TIP3    H125949   1.317   6.108   3.438 -1.0704  0.4983  0.8118
 1438TIP3    H225950   1.351   5.995   3.343 -2.0428  1.4748 -0.7467
 1439TIP3   OH225951   3.117   2.321   2.279 -0.0417 -0.2687 -0.2431
 1439TIP3    H125952   3.027   2.289   2.283 -0.1826 -0.0185 -1.2121
 1439TIP3    H225953   3.165   2.264   2.340 -0.4651 -1.7302 -1.2294
 1440TIP3   OH225954   6.761   5.355   4.505 -0.6358  0.3328 -0.3426
 1440TIP3    H125955   6.803   5.288   4.450 -0.2628  0.5736 -0.3577
 1440TIP3    H225956   6.669   5.329   4.509 -0.4815 -0.2211 -0.2884
 1441TIP3   OH225957   6.475   0.852   0.295  0.2385  0.1553  0.4073
 1441TIP3    H125958   6.470   0.932   0.243 -0.2633 -0.7687 -1.0355
 1441TIP3    H225959   6.492   0.783   0.231  0.5431 -0.9163  1.6023
 1442TIP3   OH225960   0.120   4.607   1.239 -0.6810  0.4623 -0.2236
 1442TIP3    H125961   0.178   4.531   1.235 -2.3438 -0.9286  0.5819
 1442TIP3    H225962   0.077   4.609   1.154  0.8849  1.8519 -1.0438
 1443TIP3   OH225963   4.255   6.824   4.987 -1.0774 -0.1792  0.0071
 1443TIP3    H125964   4.188   6.882   5.024 -1.2911 -0.5850  0.2620
 1443TIP3    H225965   4.245   6.742   5.035 -2.3071 -1.1929 -1.8761
 1444TIP3   OH225966   0.628   4.424   4.328  0.0662  0.1081 -0.0511
 1444TIP3    H125967   0.665   4.342   4.296 -0.0645  0.2575 -0.6015
 1444TIP3    H225968   0.536   4.404   4.345  0.1879 -0.0315  0.4630
 1445TIP3   OH225969   4.556   3.626   0.822 -0.5095 -0.0399  0.1914
 1445TIP3    H125970   4.548   3.653   0.731  0.4013 -2.1445 -0.5517
 1445TIP3    H225971   4.466   3.625   0.854 -0.9206 -0.1009 -0.9243
 1446TIP3   OH225972   0.729   5.276   0.672  0.4018 -0.2664  0.1307
 1446TIP3    H125973   0.724   5.304   0.580 -0.9226 -0.7092  0.0441
 1446TIP3    H225974   0.721   5.357   0.722  1.2158 -0.0137 -0.1363
 1447TIP3   OH225975   0.472   1.853   2.848  0.1186  0.1660 -0.3655
 1447TIP3    H125976   0.433   1.804   2.776  0.5342 -1.2391  0.3328
 1447TIP3    H225977   0.400   1.863   2.911 -0.2588  1.4398 -0.9731
 1448TIP3   OH225978   0.729   4.926   4.138 -0.0921 -0.7379  0.0287
 1448TIP3    H125979   0.696   4.905   4.051 -2.7864 -0.8773  0.9844
 1448TIP3    H225980   0.784   5.003   4.125 -2.8219  1.1478 -1.5169
 1449TIP3   OH225981   4.080   1.602   3.899 -0.1659 -0.1958 -0.3485
 1449TIP3    H125982   4.001   1.626   3.948  1.5589  0.6427  2.2289
 1449TIP3    H225983   4.147   1.589   3.966  1.8394 -1.2042 -2.4098
 1450TIP3   OH225984   0.892   3.116   0.272  0.7098  0.3133  0.5778
 1450TIP3    H125985   0.818   3.113   0.333  1.2876  1.8533  1.3906
 1450TIP3    H225986   0.854   3.146   0.190  0.0791 -0.9635  0.3729
 1451TIP3   OH225987   4.958   1.868   3.242  0.3107 -0.3791  0.1824
 1451TIP3    H125988   4.934   1.904   3.327 -0.5091 -0.2384 -0.1017
 1451TIP3    H225989   4.883   1.885   3.186 -0.2872 -2.8716  0.1189
 1452TIP3   OH225990   1.418   2.173   3.646 -0.5662  0.3208  0.4205
 1452TIP3    H125991   1.364   2.230   3.590  0.1282  1.1648  0.5882
 1452TIP3    H225992   1.478   2.130   3.585 -0.5566  0.3832  0.3852
 1453TIP3   OH225993   6.691   3.726   4.362  0.5163 -0.4473 -0.2900
 1453TIP3    H125994   6.691   3.700   4.454 -0.2267  1.0926  0.1761
 1453TIP3    H225995   6.654   3.815   4.362  0.9005 -0.2542 -2.0253
 1454TIP3   OH225996   6.507   6.595   0.018 -0.0650 -0.8770 -0.5361
 1454TIP3    H125997   6.561   6.531  -0.029  0.3002 -0.9717 -0.0009
 1454TIP3    H225998   6.483   6.660  -0.048  2.6744  0.4757 -0.3642
 1455TIP3   OH225999   2.769   2.816   3.349 -0.1540  0.4314 -1.0343
 1455TIP3    H126000   2.812   2.738   3.313 -1.3222 -0.0285 -1.4977
 1455TIP3    H226001   2.676   2.793   3.350 -0.4739  1.6781 -0.7943
 1456TIP3   OH226002   1.249   3.420   1.922  0.6625  0.0567  0.5030
 1456TIP3    H126003   1.192   3.343   1.922  1.2224 -0.3704  0.8182
 1456TIP3    H226004   1.338   3.384   1.926  0.9041  0.7138  2.2524
 1457TIP3   OH226005   3.711   0.259   0.987  0.7269 -0.6071  0.2265
 1457TIP3    H126006   3.698   0.291   1.077  4.0250  0.8560  0.3191
 1457TIP3    H226007   3.700   0.164   0.994 -0.1627 -0.4331  1.9284
 1458TIP3   OH226008   4.329   0.380   8.835 -0.7213  0.4026 -0.0462
 1458TIP3    H126009   4.371   0.299   8.806 -1.6344 -1.2425  2.7960
 1458TIP3    H226010   4.235   0.361   8.832 -1.0144  1.8252 -0.4947
 1459TIP3   OH226011   1.598   5.511   1.773  0.4227  0.2314 -0.3867
 1459TIP3    H126012   1.662   5.557   1.720  0.9668 -1.0116 -0.8405
 1459TIP3    H226013   1.637   5.506   1.860  0.5848  0.1771 -0.4628
 1460TIP3   OH226014   6.418   2.124   3.920  0.1899 -0.1407 -0.0185
 1460TIP3    H126015   6.397   2.204   3.872 -0.5761 -1.0855 -1.3369
 1460TIP3    H226016   6.510   2.135   3.945  0.3822  0.7544 -1.0092
 1461TIP3   OH226017   2.069   4.668   1.722  0.9977 -0.2205 -0.5403
 1461TIP3    H126018   2.116   4.714   1.653  1.0034 -0.8409 -0.9578
 1461TIP3    H226019   1.995   4.725   1.742  2.4473  1.2969  0.8679
 1462TIP3   OH226020   3.803   1.166   0.875 -0.3675 -0.2083 -0.1967
 1462TIP3    H126021   3.758   1.238   0.832 -0.5827 -1.2142 -1.7388
 1462TIP3    H226022   3.836   1.203   0.957 -1.7590  1.2300 -0.2456
 1463TIP3   OH226023   3.426   4.488   1.568 -0.4418 -0.1313 -0.3682
 1463TIP3    H126024   3.396   4.412   1.519 -0.1770 -0.6858  0.3115
 1463TIP3    H226025   3.506   4.515   1.523  0.4202 -1.3240  0.3970
 1464TIP3   OH226026   5.065   5.919   1.484 -0.2897 -0.1440 -0.4784
 1464TIP3    H126027   4.983   5.942   1.440 -0.6783  1.2878  0.9078
 1464TIP3    H226028   5.053   5.948   1.574  1.6796 -0.0787 -0.1967
 1465TIP3   OH226029   0.758   5.489   4.245  0.1013  0.2007  0.3061
 1465TIP3    H126030   0.777   5.400   4.274  0.2788  0.1026 -0.1080
 1465TIP3    H226031   0.747   5.539   4.327  1.4661  0.1217  0.5640
 1466TIP3   OH226032   4.137   4.607   2.509 -0.1354  0.5912  0.1646
 1466TIP3    H126033   4.205   4.572   2.452 -0.1115 -1.8648  1.6018
 1466TIP3    H226034   4.184   4.661   2.572  0.2079  0.6328 -0.1208
 1467TIP3   OH226035   2.458   3.506   3.920 -0.3395 -0.5729  0.4585
 1467TIP3    H126036   2.429   3.478   4.006 -0.0897 -0.2223  0.6561
 1467TIP3    H226037   2.384   3.555   3.884 -1.0313 -1.9783 -0.1450
 1468TIP3   OH226038   3.434   1.187   3.553 -0.0504 -0.6112 -0.3305
 1468TIP3    H126039   3.454   1.155   3.465 -0.6764 -0.3762 -0.5628
 1468TIP3    H226040   3.415   1.280   3.541 -0.0533 -0.5581  0.0708
 1469TIP3   OH226041   3.576   6.054   0.948 -0.0851  0.0673 -0.3620
 1469TIP3    H126042   3.579   6.041   0.854 -0.6793 -1.0367 -0.2479
 1469TIP3    H226043   3.653   6.108   0.968 -0.6260  1.3374 -1.6151
 1470TIP3   OH226044   4.107   3.261   1.497  0.0401  0.3986  0.2798
 1470TIP3    H126045   4.169   3.237   1.428  0.5720  2.1622  0.1196
 1470TIP3    H226046   4.133   3.348   1.525 -2.7962  1.5747 -0.3396
 1471TIP3   OH226047   0.330   4.212   0.398 -0.1394 -0.2266  0.1137
 1471TIP3    H126048   0.364   4.126   0.373  0.6684  0.0046  0.3744
 1471TIP3    H226049   0.408   4.261   0.424 -0.4295  1.0072 -1.2352
 1472TIP3   OH226050   4.805   6.668   0.240 -0.7909  0.1167  0.2008
 1472TIP3    H126051   4.865   6.619   0.183 -0.7363 -1.1410  1.2799
 1472TIP3    H226052   4.844   6.755   0.247  0.5116 -0.4539  0.2688
 1473TIP3   OH226053   1.378   2.015   2.932  0.0685  0.1328  0.1332
 1473TIP3    H126054   1.320   2.081   2.894  0.1539  1.5124  2.2587
 1473TIP3    H226055   1.450   2.066   2.969  2.1736 -1.4529 -1.4986
 1474TIP3   OH226056   4.878   6.570   4.696 -0.4466  0.2492  0.0987
 1474TIP3    H126057   4.925   6.633   4.640 -0.1450 -1.6352 -1.9398
 1474TIP3    H226058   4.788   6.571   4.663 -0.6739  0.3187  0.7153
 1475TIP3   OH226059   6.821   2.760   3.536 -0.3192 -0.5370 -0.1141
 1475TIP3    H126060   6.903   2.729   3.498 -0.1755  0.1812 -0.4045
 1475TIP3    H226061   6.765   2.777   3.460 -1.4473 -2.8343  0.0998
 1476TIP3   OH226062   4.160   6.238   3.778 -0.6866 -0.1375  0.0345
 1476TIP3    H126063   4.158   6.219   3.872  1.0115 -1.6440 -0.1770
 1476TIP3    H226064   4.192   6.328   3.772  0.9722 -0.6231  0.8977
 1477TIP3   OH226065   5.735   4.259   3.493 -0.5682 -0.2780 -0.0182
 1477TIP3    H126066   5.761   4.316   3.566  1.7726 -2.3256  0.8823
 1477TIP3    H226067   5.789   4.288   3.420 -1.1993  0.2305 -0.2960
 1478TIP3   OH226068   2.401   4.920   4.609 -0.2836 -0.1825  0.1622
 1478TIP3    H126069   2.326   4.879   4.566 -1.1674 -0.5649  1.9783
 1478TIP3    H226070   2.403   4.881   4.696  3.0842 -1.4357 -0.3424
 1479TIP3   OH226071   5.934   3.661   1.863 -0.4164  0.4165  0.0867
 1479TIP3    H126072   5.871   3.635   1.795  0.6408  1.1588 -1.2249
 1479TIP3    H226073   6.018   3.663   1.818 -0.0595  3.6831  0.6567
 1480TIP3   OH226074   0.744   2.251   2.369  0.1222  0.1301 -0.2959
 1480TIP3    H126075   0.838   2.244   2.384 -0.2378 -0.9371  1.8733
 1480TIP3    H226076   0.725   2.345   2.377  1.0799  0.4544 -1.5489
 1481TIP3   OH226077   1.388   0.394   1.498 -0.2067 -1.3129 -0.3693
 1481TIP3    H126078   1.327   0.450   1.449  0.0709  0.3976  1.1109
 1481TIP3    H226079   1.472   0.404   1.452 -0.1135 -0.3023 -0.0157
 1482TIP3   OH226080   2.148   5.550   1.029  0.3810 -0.0626  0.5703
 1482TIP3    H126081   2.132   5.640   1.002  0.5616  0.0540  0.8479
 1482TIP3    H226082   2.237   5.532   0.999 -1.4655 -2.1219 -4.8515
 1483TIP3   OH226083   5.575   3.789   4.211  0.0378  0.0017 -0.0451
 1483TIP3    H126084   5.608   3.736   4.138 -0.0106 -0.0935  0.0020
 1483TIP3    H226085   5.542   3.725   4.274  0.8346  0.0461  0.4282
 1484TIP3   OH226086   3.246   3.949   0.559  0.7212 -0.0878  0.0120
 1484TIP3    H126087   3.317   4.001   0.522 -0.7425  3.5707  1.9014
 1484TIP3    H226088   3.171   3.968   0.503  0.0889  0.0270  0.8866
 1485TIP3   OH226089   2.148   3.227   3.925  0.3062  0.2143 -0.2286
 1485TIP3    H126090   2.158   3.133   3.910  0.0954  0.1910 -0.2266
 1485TIP3    H226091   2.119   3.263   3.842 -1.0339  0.0567  0.1545
 1486TIP3   OH226092   2.363   2.352   3.385  0.4079 -0.5634 -0.3483
 1486TIP3    H126093   2.427   2.388   3.446 -0.3096  0.6758 -0.2903
 1486TIP3    H226094   2.343   2.425   3.326 -0.7577 -0.9932 -0.5067
 1487TIP3   OH226095   0.574   2.791   2.538  0.2857  0.2386 -0.1307
 1487TIP3    H126096   0.481   2.808   2.521  0.3318  0.7487  0.1062
 1487TIP3    H226097   0.577   2.771   2.632  0.5185  0.9885  0.0243
 1488TIP3   OH226098   0.820   2.611   1.983 -0.2403  0.0312  0.0814
 1488TIP3    H126099   0.749   2.654   2.030 -0.0447 -0.3008  0.6925
 1488TIP3    H226100   0.778   2.573   1.905 -0.5869  0.4808  0.0471
 1489TIP3   OH226101   1.216   3.032   2.398  0.2465  0.7145  0.6381
 1489TIP3    H126102   1.235   2.967   2.330 -1.2054  0.7626  0.1362
 1489TIP3    H226103   1.280   3.101   2.384 -0.1048  0.7840 -0.8000
 1490TIP3   OH226104   3.071   6.602   1.001  0.7473  0.1272  0.9601
 1490TIP3    H126105   3.050   6.560   1.085 -0.8056 -1.0962  0.0173
 1490TIP3    H226106   2.989   6.643   0.973  1.2518  0.5408  0.0445
 1491TIP3   OH226107   4.439   5.772   1.662 -0.0121 -0.4638  0.2286
 1491TIP3    H126108   4.401   5.688   1.636  0.4116 -0.7551  0.5480
 1491TIP3    H226109   4.509   5.750   1.723  1.9825 -0.0896 -1.7704
 1492TIP3   OH226110   3.748   5.034   4.694  0.0052 -0.3526  0.2523
 1492TIP3    H126111   3.735   4.944   4.725 -0.4619  0.4447  2.5696
 1492TIP3    H226112   3.682   5.085   4.741  1.4829  1.4774  0.4532
 1493TIP3   OH226113   3.530   0.891   1.829 -0.5877 -0.3054  0.0844
 1493TIP3    H126114   3.450   0.934   1.859 -1.4314 -1.4920 -0.4230
 1493TIP3    H226115   3.500   0.816   1.779  0.5903  1.8877 -4.5227
 1494TIP3   OH226116   5.621   1.551   3.187  0.1135  0.1939 -0.2446
 1494TIP3    H126117   5.553   1.618   3.186 -0.0271  0.0833 -2.2925
 1494TIP3    H226118   5.703   1.600   3.179 -0.0309  0.1777 -2.6458
 1495TIP3   OH226119   4.679   2.756   2.404  0.2065 -0.9526 -0.0111
 1495TIP3    H126120   4.737   2.691   2.366 -0.3077 -0.1533 -2.3179
 1495TIP3    H226121   4.607   2.705   2.441 -1.2976 -1.7959 -3.6433
 1496TIP3   OH226122   2.505   6.820   1.429  0.2625 -0.0899  0.2118
 1496TIP3    H126123   2.549   6.844   1.510 -0.4919  1.1273  0.2720
 1496TIP3    H226124   2.540   6.881   1.364 -1.0954  0.7256  0.2034
 1497TIP3   OH226125   3.817   2.454   0.808  0.3427 -0.2546  0.1154
 1497TIP3    H126126   3.861   2.415   0.733  0.0086 -0.9842  0.2879
 1497TIP3    H226127   3.731   2.479   0.775 -0.2009 -1.5335  0.4873
 1498TIP3   OH226128   3.759   1.131   1.395 -0.0542  0.3753  0.2736
 1498TIP3    H126129   3.737   1.038   1.393 -1.3172  0.6510  0.6287
 1498TIP3    H226130   3.681   1.174   1.432  0.3587  1.6174 -0.2339
 1499TIP3   OH226131   3.997   0.376   1.995  0.1644  0.1671  0.0603
 1499TIP3    H126132   4.004   0.367   2.090 -0.1644 -0.3527  0.0358
 1499TIP3    H226133   3.939   0.305   1.968 -1.6217  1.6319 -0.2536
 1500TIP3   OH226134   2.984   2.049   0.496 -0.5347  0.1480  0.0467
 1500TIP3    H126135   2.890   2.035   0.496 -0.7608  1.1527  2.3392
 1500TIP3    H226136   3.022   1.961   0.498 -1.4365 -0.2499  0.0768
 1501TIP3   OH226137   6.231   6.047   5.490 -0.9304 -0.3343  0.0326
 1501TIP3    H126138   6.189   5.963   5.473 -0.7760 -0.1062 -1.6086
 1501TIP3    H226139   6.307   6.048   5.433  0.7301 -0.2420  2.1101
 1502TIP3   OH226140   0.220   6.763   3.938  0.8748  0.1377  0.4857
 1502TIP3    H126141   0.205   6.782   4.031 -2.4156  0.7180 -0.0382
 1502TIP3    H226142   0.190   6.842   3.892  1.1182 -0.6802 -1.1427
 1503TIP3   OH226143   2.136   2.195   1.496  0.7614 -0.1796 -0.2132
 1503TIP3    H126144   2.165   2.105   1.478 -0.6324 -0.2603 -2.4728
 1503TIP3    H226145   2.091   2.222   1.416 -0.0922  2.0552  0.9331
 1504TIP3   OH226146   2.687   6.304   0.525  0.2310  0.3390  0.3074
 1504TIP3    H126147   2.597   6.274   0.537 -0.0028  1.6405  2.3572
 1504TIP3    H226148   2.738   6.252   0.587  0.7092  0.3589 -0.0648
 1505TIP3   OH226149   6.593   6.223   2.647  0.4649 -0.1996 -0.2039
 1505TIP3    H126150   6.608   6.153   2.711  1.7648 -1.0406 -1.3638
 1505TIP3    H226151   6.647   6.296   2.678  0.4489 -0.3121  0.0963
 1506TIP3   OH226152   2.599   1.195   3.115  0.4280 -0.0313  0.7057
 1506TIP3    H126153   2.691   1.217   3.106  0.6896 -1.1235  0.5672
 1506TIP3    H226154   2.586   1.187   3.210  0.1683  1.3194  0.7982
 1507TIP3   OH226155   0.872   6.097   3.446 -0.0351  0.3541 -0.2829
 1507TIP3    H126156   0.942   6.057   3.395 -0.5403 -0.8992 -0.0312
 1507TIP3    H226157   0.916   6.139   3.520  0.4975  0.0448 -0.4206
 1508TIP3   OH226158   2.936   3.691   3.094  0.5912  0.0969  0.3235
 1508TIP3    H126159   2.869   3.732   3.148  1.2705 -1.2051  2.2582
 1508TIP3    H226160   3.017   3.699   3.145  2.0340  1.7896 -2.0190
 1509TIP3   OH226161   0.319   5.747   0.355 -0.1548  0.4711 -0.0783
 1509TIP3    H126162   0.394   5.779   0.405 -0.0824 -0.8580  0.7159
 1509TIP3    H226163   0.357   5.700   0.281 -0.2516  1.4434 -0.7693
 1510TIP3   OH226164   5.235   4.806   3.484 -0.1231 -0.6541 -0.2045
 1510TIP3    H126165   5.273   4.758   3.558 -0.0840 -0.2452  0.0411
 1510TIP3    H226166   5.256   4.753   3.408 -0.6909 -1.4028  0.1403
 1511TIP3   OH226167   6.231   5.879   4.098 -0.4278  0.1113  0.3561
 1511TIP3    H126168   6.192   5.802   4.058 -1.7503  0.7067  0.4436
 1511TIP3    H226169   6.189   5.953   4.055 -1.0008  0.7701  1.9591
 1512TIP3   OH226170   5.309   2.343   2.425 -0.9094  0.2910  0.2325
 1512TIP3    H126171   5.323   2.270   2.485 -0.4362  0.4430  0.3112
 1512TIP3    H226172   5.384   2.340   2.365 -1.2894  0.2454 -0.2435
 1513TIP3   OH226173   5.478   3.470   2.332  0.7003 -0.3532  0.5166
 1513TIP3    H126174   5.387   3.444   2.348  1.2193 -2.1836  0.7104
 1513TIP3    H226175   5.529   3.422   2.398  1.8176  0.6242  0.3944
 1514TIP3   OH226176   4.354   2.831   3.724 -0.4042  0.6428 -0.1201
 1514TIP3    H126177   4.296   2.839   3.648  2.7431 -0.7964 -2.9617
 1514TIP3    H226178   4.380   2.920   3.744 -0.8224  1.0125 -1.1472
 1515TIP3   OH226179   0.154   6.453   2.581 -0.0291 -0.6804 -0.7392
 1515TIP3    H126180   0.166   6.385   2.647  1.2655 -0.3314 -0.5818
 1515TIP3    H226181   0.081   6.505   2.613  2.3145  1.2417  2.0345
 1516TIP3   OH226182   0.726   1.222   8.233 -0.3867 -0.3061  0.2524
 1516TIP3    H126183   0.678   1.234   8.151  0.5625 -2.3304 -0.6567
 1516TIP3    H226184   0.666   1.256   8.300 -1.4145  0.8876 -1.1811
 1517TIP3   OH226185   1.042   5.220   2.806  0.4483  0.0209 -0.1482
 1517TIP3    H126186   0.960   5.250   2.845  0.0261 -1.4892  0.1547
 1517TIP3    H226187   1.104   5.218   2.878  0.5327  0.3137 -0.2085
 1518TIP3   OH226188   2.899   5.093   3.043  0.4260 -0.1842  0.4616
 1518TIP3    H126189   2.815   5.048   3.034  1.1858 -1.2548 -2.6789
 1518TIP3    H226190   2.877   5.186   3.036 -0.5633 -0.4158  0.2934
 1519TIP3   OH226191   0.172   0.772   4.393 -0.2645  0.7096 -0.1789
 1519TIP3    H126192   0.231   0.771   4.317 -0.7440 -1.6765 -0.5924
 1519TIP3    H226193   0.228   0.753   4.467 -0.1300  0.9472 -0.2178
 1520TIP3   OH226194   4.881   4.295   3.150  0.1827  0.0695 -0.3485
 1520TIP3    H126195   4.858   4.349   3.226  2.8023 -0.6341  1.0537
 1520TIP3    H226196   4.907   4.358   3.083  1.2749  0.6583  0.5886
 1521TIP3   OH226197   1.591   6.254   3.302 -0.2893  0.2996 -0.1050
 1521TIP3    H126198   1.599   6.321   3.234  1.7459  0.6674  0.4487
 1521TIP3    H226199   1.514   6.281   3.353 -1.8173  0.0508 -2.1661
 1522TIP3   OH226200   1.481   6.607   1.058  0.2789 -0.3519 -0.0324
 1522TIP3    H126201   1.507   6.618   0.966 -0.7039  0.1329 -0.2675
 1522TIP3    H226202   1.509   6.688   1.100 -2.3062  0.9707 -0.6599
 1523TIP3   OH226203   5.980   3.798   4.108 -0.4404 -0.5527 -0.5921
 1523TIP3    H126204   6.064   3.843   4.093 -1.6169  1.7113 -0.8831
 1523TIP3    H226205   6.005   3.710   4.136  2.0246 -0.0899 -1.0459
 1524TIP3   OH226206   1.347   5.518   2.426  0.5733  0.3651 -0.5827
 1524TIP3    H126207   1.405   5.442   2.426 -0.2997 -0.3355  0.6715
 1524TIP3    H226208   1.262   5.484   2.453  0.0487  1.7125 -0.4314
 1525TIP3   OH226209   6.030   5.014   2.968  0.3348 -0.0224 -0.0163
 1525TIP3    H126210   6.055   5.042   2.880  0.7032  0.3238  0.1948
 1525TIP3    H226211   6.045   4.919   2.968 -0.1769 -0.1133 -0.4895
 1526TIP3   OH226212   1.961   0.383   8.542 -0.5026 -0.1466 -0.2240
 1526TIP3    H126213   1.920   0.297   8.543  0.2727 -0.5170  0.2359
 1526TIP3    H226214   1.889   0.444   8.525 -0.8688 -0.9750 -1.7794
 1527TIP3   OH226215   5.378   4.705   4.438  0.0111 -0.0709 -0.6563
 1527TIP3    H126216   5.408   4.738   4.354  1.4065  1.2849  0.3214
 1527TIP3    H226217   5.283   4.723   4.438  0.0648  0.2950 -1.7526
 1528TIP3   OH226218   6.120   1.364   2.233  1.0616  0.5696 -0.0055
 1528TIP3    H126219   6.176   1.305   2.284  0.1857 -0.4130 -0.1597
 1528TIP3    H226220   6.123   1.330   2.144 -0.7102 -0.2446  0.2023
 1529TIP3   OH226221   0.227   0.819   0.754  0.5146 -0.5123  0.0574
 1529TIP3    H126222   0.210   0.911   0.734 -0.4703 -1.0743 -2.0057
 1529TIP3    H226223   0.142   0.775   0.740  0.8421 -1.6702  1.4848
 1530TIP3   OH226224   1.069   6.817   1.056  0.2280 -0.0945  0.1918
 1530TIP3    H126225   1.046   6.724   1.055  1.1345 -0.3226 -0.7709
 1530TIP3    H226226   1.005   6.857   1.115 -0.7060 -1.1858 -0.0570
 1531TIP3   OH226227   4.648   2.676   4.622 -0.1074  0.6559  0.2358
 1531TIP3    H126228   4.704   2.665   4.544 -0.0660 -0.2839  0.3928
 1531TIP3    H226229   4.621   2.768   4.618  0.3976  0.7860 -0.5526
 1532TIP3   OH226230   4.518   4.271   2.180  0.3433 -0.6340  0.2834
 1532TIP3    H126231   4.433   4.249   2.142  1.2739  0.1633 -2.4970
 1532TIP3    H226232   4.581   4.223   2.126  1.7784  0.6248  0.7828
 1533TIP3   OH226233   1.511   4.602   1.138  0.5198  0.3271 -0.5249
 1533TIP3    H126234   1.477   4.692   1.139  1.0824  0.5416 -0.0490
 1533TIP3    H226235   1.590   4.608   1.084  1.4640  0.4699  0.8347
 1534TIP3   OH226236   2.109   0.322   4.543 -0.0057  0.7418 -0.3039
 1534TIP3    H126237   2.202   0.305   4.557  0.0013 -0.2340 -1.4029
 1534TIP3    H226238   2.065   0.275   4.613  0.3224  1.2789  0.2709
 1535TIP3   OH226239   4.947   1.739   4.459 -0.1745  0.0431 -0.3805
 1535TIP3    H126240   4.908   1.800   4.521 -0.7532 -0.2672 -0.4387
 1535TIP3    H226241   4.953   1.656   4.506  0.7557  0.1707 -0.2489
 1536TIP3   OH226242   1.972   4.103   4.039 -0.6576  0.1968 -0.9706
 1536TIP3    H126243   2.003   4.161   3.969 -0.4773  0.3868 -0.7345
 1536TIP3    H226244   1.975   4.015   4.000  1.4226  0.0269 -0.5621
 1537TIP3   OH226245   2.190   0.945   3.879  0.9153  0.1471 -0.3958
 1537TIP3    H126246   2.205   1.040   3.882 -1.8300  0.8056 -2.7767
 1537TIP3    H226247   2.269   0.910   3.839  1.5720  1.5671 -0.4233
 1538TIP3   OH226248   5.744   3.660   4.032 -0.7067 -0.5199  0.6124
 1538TIP3    H126249   5.773   3.599   4.100 -0.1016 -0.8839  0.0480
 1538TIP3    H226250   5.783   3.744   4.056 -0.1953 -0.7280  0.5274
 1539TIP3   OH226251   0.669   3.473   1.795 -0.2051  0.0615  0.3979
 1539TIP3    H126252   0.588   3.469   1.846 -0.1641  0.2282  0.4765
 1539TIP3    H226253   0.641   3.490   1.705 -0.1665  2.3042  0.7441
 1540TIP3   OH226254   4.534   0.528   3.735  0.1040 -0.0111 -0.5013
 1540TIP3    H126255   4.543   0.435   3.754 -0.9606  0.0287  0.2489
 1540TIP3    H226256   4.503   0.567   3.817 -1.2932  0.6995 -1.3248
 1541TIP3   OH226257   5.981   0.608   0.217 -0.7568  0.3215 -0.1779
 1541TIP3    H126258   6.066   0.603   0.259  0.3660  3.5891 -1.6907
 1541TIP3    H226259   5.921   0.631   0.288 -0.3035 -1.2115  0.7572
 1542TIP3   OH226260   1.070   6.085   3.960  0.1032 -0.3848  0.8786
 1542TIP3    H126261   1.158   6.069   3.994  0.6939  0.2737 -0.2463
 1542TIP3    H226262   1.076   6.172   3.918 -0.3480 -1.3953 -1.4602
 1543TIP3   OH226263   1.559   3.677   3.888  0.4043  0.3435 -0.1567
 1543TIP3    H126264   1.606   3.752   3.925  0.7717 -0.2648  0.6647
 1543TIP3    H226265   1.471   3.710   3.872  0.5148  0.9171  0.3428
 1544TIP3   OH226266   0.016   2.801   4.953 -0.4260 -0.1266  0.0113
 1544TIP3    H126267   0.034   2.708   4.965 -0.6142 -0.1850 -0.1553
 1544TIP3    H226268   0.101   2.844   4.961 -0.0099 -0.5007 -1.8307
 1545TIP3   OH226269   4.530   6.248   4.064  0.1122 -0.3482  0.6477
 1545TIP3    H126270   4.543   6.222   4.155  0.4451  1.5275  1.1629
 1545TIP3    H226271   4.464   6.317   4.067  0.7621  0.3517 -0.4225
 1546TIP3   OH226272   1.041   1.517   8.648  0.6610 -0.7162  0.2151
 1546TIP3    H126273   1.098   1.592   8.667 -0.1324  0.0243 -0.2809
 1546TIP3    H226274   0.993   1.542   8.569 -0.1352 -1.4547  0.4511
 1547TIP3   OH226275   2.768   3.518   4.867  0.4949 -0.9135 -0.0304
 1547TIP3    H126276   2.725   3.512   4.952 -1.6228  0.0067 -0.9645
 1547TIP3    H226277   2.813   3.602   4.868  1.8729 -1.6287  0.7416
 1548TIP3   OH226278   5.227   0.375   1.908  0.3408 -0.0722 -0.3460
 1548TIP3    H126279   5.298   0.368   1.844  1.6036  0.0326  0.9986
 1548TIP3    H226280   5.268   0.357   1.992 -1.7033 -2.3479  0.2697
 1549TIP3   OH226281   2.036   5.859   4.103 -0.3179  0.3282  0.4602
 1549TIP3    H126282   2.091   5.852   4.182  1.5036  0.5971 -0.7215
 1549TIP3    H226283   2.077   5.929   4.052 -0.1907 -1.2184 -1.6684
 1550TIP3   OH226284   2.329   3.530   1.923  0.1509  0.2540 -0.2587
 1550TIP3    H126285   2.385   3.560   1.851  1.7946  0.7077  1.1471
 1550TIP3    H226286   2.361   3.442   1.942  1.3204  0.9606  1.3534
 1551TIP3   OH226287   1.171   0.215   0.938  0.0278  0.2194  0.0379
 1551TIP3    H126288   1.090   0.262   0.916 -0.2490 -0.9558 -1.7256
 1551TIP3    H226289   1.143   0.124   0.951  1.0587 -0.2370 -0.7758
 1552TIP3   OH226290   5.341   4.646   3.680 -0.0888 -0.2784 -0.3564
 1552TIP3    H126291   5.436   4.657   3.688  0.3761 -1.9789 -2.6970
 1552TIP3    H226292   5.313   4.619   3.768  1.3360  1.4152  0.7132
 1553TIP3   OH226293   0.780   6.707   0.938 -0.2473 -0.1205 -0.6659
 1553TIP3    H126294   0.770   6.675   1.028  1.3675  3.2939  0.9088
 1553TIP3    H226295   0.702   6.761   0.923  0.4829  1.0400 -0.4270
 1554TIP3   OH226296   2.532   6.107   0.936 -0.1656 -0.1496  0.3018
 1554TIP3    H126297   2.462   6.066   0.886  0.2609 -1.5635  0.8064
 1554TIP3    H226298   2.606   6.110   0.875 -0.8232  2.0179 -0.4709
 1555TIP3   OH226299   3.042   5.697   3.541 -0.0500 -0.3207  0.4520
 1555TIP3    H126300   3.002   5.673   3.457 -2.0027 -0.7063  1.4335
 1555TIP3    H226301   3.069   5.613   3.579  2.0434 -0.0503 -0.2992
 1556TIP3   OH226302   2.109   1.322   1.313  0.8864 -0.5508  0.1897
 1556TIP3    H126303   2.181   1.282   1.264  1.6961  1.5510 -0.4406
 1556TIP3    H226304   2.141   1.329   1.402  0.7719 -1.1586  0.2872
 1557TIP3   OH226305   3.814   2.220   3.153  0.0087 -0.1301  0.0211
 1557TIP3    H126306   3.807   2.125   3.159  0.5269 -0.2556 -1.0917
 1557TIP3    H226307   3.726   2.249   3.128  0.0111 -0.3899 -0.3011
 1558TIP3   OH226308   1.505   3.987   3.925 -0.6790 -0.0041  0.5259
 1558TIP3    H126309   1.600   3.991   3.936 -0.3143 -1.7742 -1.3265
 1558TIP3    H226310   1.476   4.077   3.937  1.0927  0.4326  2.0225
 1559TIP3   OH226311   3.262   0.939   3.384 -0.1941  0.4147 -0.2922
 1559TIP3    H126312   3.267   0.920   3.478 -0.3560 -0.7657 -0.5023
 1559TIP3    H226313   3.172   0.919   3.360 -0.0527  0.3333 -0.7680
 1560TIP3   OH226314   4.640   0.800   0.090 -0.1143  0.5738  0.1050
 1560TIP3    H126315   4.618   0.879   0.041 -2.4189 -0.0459  0.0341
 1560TIP3    H226316   4.591   0.731   0.046  0.9157 -0.6964  0.9061
 1561TIP3   OH226317   0.546   2.763   2.834  0.3901 -0.3456 -0.2485
 1561TIP3    H126318   0.629   2.718   2.815  0.4707  0.0348 -0.8036
 1561TIP3    H226319   0.565   2.815   2.913  1.0229  0.5967 -0.9921
 1562TIP3   OH226320   6.233   5.546   4.225 -0.1318  0.0159  0.1112
 1562TIP3    H126321   6.170   5.573   4.291 -0.3534 -0.1777 -0.0191
 1562TIP3    H226322   6.213   5.599   4.148 -0.8518 -0.8093 -0.2880
 1563TIP3   OH226323   0.140   4.366   2.903 -0.3081  0.2301  0.4412
 1563TIP3    H126324   0.217   4.309   2.910 -0.9698 -1.0142 -1.6667
 1563TIP3    H226325   0.174   4.454   2.919  1.9113 -0.0862 -1.9576
 1564TIP3   OH226326   5.077   3.737   3.464 -0.3440 -0.0789  0.1117
 1564TIP3    H126327   5.162   3.771   3.436  0.4960 -0.3015  2.2086
 1564TIP3    H226328   5.097   3.654   3.507 -1.7230 -0.4919  0.0196
 1565TIP3   OH226329   1.049   1.843   2.665 -0.4149  0.0443 -0.0492
 1565TIP3    H126330   1.091   1.854   2.580 -1.3138 -0.1717 -0.5292
 1565TIP3    H226331   1.109   1.786   2.714 -0.1761 -0.3209 -0.7483
 1566TIP3   OH226332   3.330   2.080   0.515  0.4574  0.8128  0.0234
 1566TIP3    H126333   3.284   2.035   0.586 -1.2428  1.4743 -0.6155
 1566TIP3    H226334   3.355   2.010   0.455 -1.2172  0.5580 -0.4353
 1567TIP3   OH226335   3.282   0.212   4.601 -0.4521  0.2062  0.3597
 1567TIP3    H126336   3.257   0.258   4.681  0.1118  3.3459 -1.0750
 1567TIP3    H226337   3.378   0.208   4.605 -0.3607  1.0756 -0.4192
 1568TIP3   OH226338   5.347   6.224   1.815  0.1882  0.0172  0.2689
 1568TIP3    H126339   5.375   6.134   1.829 -1.3674 -0.3879  1.1038
 1568TIP3    H226340   5.323   6.255   1.903 -2.5301  0.0486 -0.3917
 1569TIP3   OH226341   0.368   4.993   1.648 -0.1349  0.2224 -0.7383
 1569TIP3    H126342   0.275   4.973   1.642 -0.2800  0.8692 -0.7381
 1569TIP3    H226343   0.386   4.997   1.742 -0.3445  1.1160 -0.7250
 1570TIP3   OH226344   5.816   0.050   1.420 -0.2371  0.2300 -0.1779
 1570TIP3    H126345   5.762   0.113   1.467 -0.7029 -0.4456  0.2160
 1570TIP3    H226346   5.769   0.035   1.338 -0.0858  0.4568 -0.3052
 1571TIP3   OH226347   0.107   6.040   0.775 -0.3879  0.1705  0.8188
 1571TIP3    H126348   0.113   5.959   0.825 -1.3761  0.1746  0.9799
 1571TIP3    H226349   0.160   6.025   0.697 -1.6007 -1.1373  0.1928
 1572TIP3   OH226350   0.826   4.651   2.822 -0.0920  0.0044 -0.3003
 1572TIP3    H126351   0.793   4.669   2.734 -2.2610 -0.0135  0.4511
 1572TIP3    H226352   0.876   4.729   2.845 -0.3031  0.4181 -1.1928
 1573TIP3   OH226353   1.599   1.774   3.420 -0.1197 -0.5031  0.4464
 1573TIP3    H126354   1.634   1.695   3.461 -0.6342 -0.8589  0.2018
 1573TIP3    H226355   1.642   1.778   3.335  1.7273  0.7802  1.3536
 1574TIP3   OH226356   4.017   6.263   0.555  0.0791  0.4733 -0.2000
 1574TIP3    H126357   3.951   6.326   0.525  1.5761  2.6070  0.7273
 1574TIP3    H226358   4.016   6.271   0.651  1.9905  0.9164 -0.1904
 1575TIP3   OH226359   0.726   6.349   3.703 -0.0026 -0.4360  0.0872
 1575TIP3    H126360   0.648   6.358   3.758  0.5682  0.6237  0.7722
 1575TIP3    H226361   0.692   6.326   3.617 -1.3487  2.8104 -0.3900
 1576TIP3   OH226362   6.799   4.823   0.610 -0.3074 -0.2716  0.3876
 1576TIP3    H126363   6.822   4.771   0.687 -0.4788 -0.8862  0.0356
 1576TIP3    H226364   6.797   4.913   0.641  1.3135 -0.3232  0.7293
 1577TIP3   OH226365   1.820   5.381   1.094 -0.3689 -0.4707  0.6550
 1577TIP3    H126366   1.748   5.351   1.149 -0.0844  1.6970  2.3671
 1577TIP3    H226367   1.869   5.442   1.150  2.1232 -0.9616 -0.8274
 1578TIP3   OH226368   2.601   3.473   1.673  0.3097 -0.2945 -0.3300
 1578TIP3    H126369   2.618   3.407   1.606  1.8575 -1.3315  1.0049
 1578TIP3    H226370   2.678   3.469   1.730  0.1654  2.2521  0.1439
 1579TIP3   OH226371   2.132   1.810   2.726 -0.4630  0.1044  0.2537
 1579TIP3    H126372   2.158   1.729   2.681 -0.3546  0.3527 -0.1273
 1579TIP3    H226373   2.197   1.875   2.700  0.4321 -0.0849  1.8709
 1580TIP3   OH226374   1.903   6.017   3.063 -0.0366  0.0561 -0.5235
 1580TIP3    H126375   1.972   5.952   3.052  0.1112  0.3064 -1.1139
 1580TIP3    H226376   1.846   6.005   2.987 -0.9587 -0.5222  0.2375
 1581TIP3   OH226377   2.067   2.665   4.374 -0.3299  0.4861  0.0943
 1581TIP3    H126378   2.099   2.732   4.435 -1.3803 -0.4936  1.7804
 1581TIP3    H226379   2.130   2.594   4.382 -0.7404  0.1563  0.4148
 1582TIP3   OH226380   4.010   6.722   2.380  0.5406 -0.1098  0.9591
 1582TIP3    H126381   4.098   6.756   2.365  0.4022 -0.0220  0.2706
 1582TIP3    H226382   3.956   6.801   2.389  0.6721 -0.1572  2.3726
 1583TIP3   OH226383   1.956   6.503   8.822 -0.3916  0.7171  0.4061
 1583TIP3    H126384   2.004   6.424   8.845 -1.0944  0.1562  0.0136
 1583TIP3    H226385   2.018   6.556   8.772 -1.0422 -1.4487 -3.0506
 1584TIP3   OH226386   2.475   2.632   2.514  0.2499  0.2952 -0.4636
 1584TIP3    H126387   2.399   2.611   2.568 -0.0668  1.8287 -0.2517
 1584TIP3    H226388   2.463   2.580   2.434  1.4565 -3.1255  1.3963
 1585TIP3   OH226389   5.370   1.078   1.806 -0.3895  0.2332  0.7838
 1585TIP3    H126390   5.325   1.154   1.769 -1.9973  0.5241  3.1229
 1585TIP3    H226391   5.344   1.005   1.749 -0.7209  1.0370 -0.1286
 1586TIP3   OH226392   0.939   4.639   2.010  0.2531  0.1885 -0.0233
 1586TIP3    H126393   1.005   4.667   2.074  0.6793  2.6073 -1.4187
 1586TIP3    H226394   0.928   4.546   2.027  1.9657  0.2908  2.1035
 1587TIP3   OH226395   4.621   6.054   0.526  0.1955  0.0150 -0.0074
 1587TIP3    H126396   4.709   6.086   0.509  0.4857 -1.3296 -1.2810
 1587TIP3    H226397   4.569   6.133   0.542  1.3175  0.9446 -0.7585
 1588TIP3   OH226398   3.804   1.295   2.600 -0.2187 -0.0126 -0.3868
 1588TIP3    H126399   3.836   1.376   2.641 -0.3075 -0.4135  0.4875
 1588TIP3    H226400   3.747   1.326   2.529 -1.0003  0.7040  0.5195
 1589TIP3   OH226401   1.395   4.214   0.985 -0.8370 -0.3358 -0.1423
 1589TIP3    H126402   1.393   4.300   0.942 -1.0380 -0.7696 -1.0099
 1589TIP3    H226403   1.385   4.151   0.914 -0.4485 -1.0928  0.4597
 1590TIP3   OH226404   5.958   3.206   3.012 -0.0789 -0.2335 -0.0257
 1590TIP3    H126405   5.970   3.259   3.090 -0.7959  0.8487 -0.6218
 1590TIP3    H226406   5.929   3.121   3.045  1.8937 -0.5721  0.9850
 1591TIP3   OH226407   3.025   0.013   2.608  0.0861  0.2738 -0.0410
 1591TIP3    H126408   2.987  -0.060   2.559  0.8317 -0.0880 -0.1105
 1591TIP3    H226409   3.110   0.028   2.565  0.5744  0.2210  0.8747
 1592TIP3   OH226410   2.392   1.365   1.178  0.0703  0.1279  0.1843
 1592TIP3    H126411   2.390   1.310   1.100  1.9879  2.0778 -1.3805
 1592TIP3    H226412   2.485   1.371   1.201 -0.2701  1.2341  1.3860
 1593TIP3   OH226413   4.387   3.747   5.048 -0.7231 -0.6591  0.3253
 1593TIP3    H126414   4.397   3.668   5.102 -0.2079  1.5147  3.7260
 1593TIP3    H226415   4.451   3.808   5.083 -0.5189  1.0911 -2.7529
 1594TIP3   OH226416   1.674   3.644   0.958 -0.3155 -0.0946  0.5278
 1594TIP3    H126417   1.672   3.575   0.891 -1.9522  0.7302 -0.3201
 1594TIP3    H226418   1.673   3.725   0.908  1.6833  0.5871  1.5204
 1595TIP3   OH226419   5.735   0.350   1.108 -0.5391  1.0369 -0.5618
 1595TIP3    H126420   5.827   0.332   1.130 -0.7581  0.7991  0.1929
 1595TIP3    H226421   5.714   0.287   1.039 -0.3890  0.4775 -0.1108
 1596TIP3   OH226422   1.168   0.521   3.012 -0.2919  0.5450 -0.4023
 1596TIP3    H126423   1.079   0.511   3.046 -0.3084  0.7592 -0.3766
 1596TIP3    H226424   1.175   0.614   2.991 -0.2098  0.4527 -0.7904
 1597TIP3   OH226425   5.298   5.588   2.461  0.3168  0.3175 -0.1969
 1597TIP3    H126426   5.308   5.493   2.453 -1.4180  0.0818  0.0792
 1597TIP3    H226427   5.385   5.623   2.442  0.9026 -1.3041 -0.6468
 1598TIP3   OH226428   3.974   0.992   1.906  0.3208  0.4009 -0.0216
 1598TIP3    H126429   4.052   0.983   1.851  0.4857 -1.3852  0.4437
 1598TIP3    H226430   4.003   1.047   1.979  0.9811  0.2417 -0.1535
 1599TIP3   OH226431   4.350   3.262   0.875 -0.7336 -0.1495 -0.3336
 1599TIP3    H126432   4.445   3.252   0.867 -0.7465  0.5414 -1.5029
 1599TIP3    H226433   4.321   3.289   0.788 -1.9113  0.3883  0.2062
 1600TIP3   OH226434   5.857   6.430   4.554  0.4638 -0.2057  0.3331
 1600TIP3    H126435   5.870   6.466   4.466 -1.5040 -0.4013 -0.0799
 1600TIP3    H226436   5.839   6.337   4.539  1.7082 -0.5948  1.0937
 1601TIP3   OH226437   0.003   5.209   0.514  0.4801  0.0111 -0.2648
 1601TIP3    H126438  -0.047   5.154   0.574 -2.4494  1.0748 -1.5629
 1601TIP3    H226439  -0.021   5.177   0.427  1.6570  0.9509 -0.9634
 1602TIP3   OH226440   5.746   6.275   5.028 -0.2490 -0.1204 -0.0764
 1602TIP3    H126441   5.772   6.359   5.066  0.8541 -0.2025 -0.6151
 1602TIP3    H226442   5.772   6.210   5.094  1.0598 -0.2107 -0.6591
 1603TIP3   OH226443   6.271   1.130   3.722  0.5014  0.3604  0.2115
 1603TIP3    H126444   6.335   1.124   3.794 -0.4952 -0.6405  1.0595
 1603TIP3    H226445   6.324   1.146   3.644  1.7447  0.1222  0.9724
 1604TIP3   OH226446   0.614   3.421   2.273  0.0018 -0.2343 -0.4053
 1604TIP3    H126447   0.574   3.499   2.235 -1.4192 -0.4618  0.5324
 1604TIP3    H226448   0.657   3.453   2.353 -0.1135 -0.3146 -0.3099
 1605TIP3   OH226449   2.202   2.653   3.818 -0.3486  0.0414 -0.3975
 1605TIP3    H126450   2.284   2.677   3.862 -0.4639 -0.8174  0.3088
 1605TIP3    H226451   2.209   2.558   3.804 -1.3593 -0.0975 -0.0391
 1606TIP3   OH226452   4.177   1.691   0.862  0.0502 -1.0335  0.0639
 1606TIP3    H126453   4.116   1.618   0.845 -0.1169 -0.8158 -0.2974
 1606TIP3    H226454   4.121   1.769   0.858  0.4881 -0.7625 -1.1035
 1607TIP3   OH226455   6.711   1.850   3.865  0.3294 -0.2468  0.6989
 1607TIP3    H126456   6.699   1.911   3.792  1.6545  0.9020  1.3983
 1607TIP3    H226457   6.632   1.859   3.917 -0.6486 -1.0937 -0.5705
 1608TIP3   OH226458   4.544   1.186   1.436 -0.2063 -0.0479  0.8336
 1608TIP3    H126459   4.515   1.143   1.356  0.0850  0.2847  0.5419
 1608TIP3    H226460   4.472   1.244   1.461  0.1563  0.7120  0.1617
 1609TIP3   OH226461   1.101   4.870   2.428  0.0375 -0.1097 -0.6766
 1609TIP3    H126462   1.191   4.837   2.436 -0.0906 -0.0550  1.6035
 1609TIP3    H226463   1.089   4.926   2.504 -3.3853 -3.6931  1.8157
 1610TIP3   OH226464   2.828   2.312   2.322 -0.0933  0.0114  0.1878
 1610TIP3    H126465   2.850   2.260   2.399  1.2815 -0.2458 -0.3388
 1610TIP3    H226466   2.735   2.297   2.308 -0.1786 -0.6011  1.2935
 1611TIP3   OH226467   0.024   3.123   2.742 -0.7042  0.0669 -0.1304
 1611TIP3    H126468  -0.053   3.149   2.794 -0.2974 -0.1206  0.5856
 1611TIP3    H226469   0.058   3.046   2.788 -0.6698 -0.4578 -1.0241
 1612TIP3   OH226470   1.784   6.695   0.410 -0.6309  0.3665  0.5046
 1612TIP3    H126471   1.857   6.692   0.349  0.1693  1.4339  1.3692
 1612TIP3    H226472   1.706   6.700   0.354  0.0063  0.1605 -0.4167
 1613TIP3   OH226473   6.085   3.066   1.481  0.6371  0.0352  0.2769
 1613TIP3    H126474   6.180   3.071   1.488  0.7719 -1.1576 -0.4076
 1613TIP3    H226475   6.054   3.065   1.571  1.2947  0.1247  0.5060
 1614TIP3   OH226476   0.547   1.053   2.616  0.4906 -0.3485 -0.0751
 1614TIP3    H126477   0.462   1.021   2.647  0.9315 -1.4620  0.0298
 1614TIP3    H226478   0.584   1.099   2.692  0.3488 -0.6097  0.1567
 1615TIP3   OH226479   0.444   1.405   1.776  0.5057  0.1622  0.1690
 1615TIP3    H126480   0.531   1.434   1.804  1.3037 -0.7257 -1.2753
 1615TIP3    H226481   0.417   1.470   1.711 -1.3095  2.1749  2.7119
 1616TIP3   OH226482   2.026   2.281   0.517 -0.5919 -0.2800 -0.1282
 1616TIP3    H126483   1.982   2.359   0.481 -1.2394  0.9342  2.9750
 1616TIP3    H226484   1.975   2.207   0.483 -3.2336  0.9463  0.8677
 1617TIP3   OH226485   4.544   5.003   4.342  0.1898 -0.4689  0.8569
 1617TIP3    H126486   4.470   5.063   4.355 -1.9387 -2.5101 -0.8496
 1617TIP3    H226487   4.611   5.057   4.299 -2.2888  0.4633 -2.2408
 1618TIP3   OH226488   3.618   3.485   3.088 -0.2608 -0.7284  0.1486
 1618TIP3    H126489   3.572   3.426   3.028 -0.2436  0.8698 -1.5134
 1618TIP3    H226490   3.549   3.518   3.146 -0.7969 -0.2764 -0.7173
 1619TIP3   OH226491   3.589   5.687   4.573  0.1104 -0.0119  0.3494
 1619TIP3    H126492   3.655   5.738   4.620 -0.0958 -1.3156  2.1801
 1619TIP3    H226493   3.615   5.596   4.588 -2.4234 -0.6106  1.7361
 1620TIP3   OH226494   1.973   4.813   0.945 -0.5717  0.4456 -0.1413
 1620TIP3    H126495   2.029   4.879   0.986  0.6780 -0.1778 -0.7874
 1620TIP3    H226496   1.924   4.862   0.878 -1.1698  1.0871  0.7453
 1621TIP3   OH226497   4.197   0.907   1.738  0.3914  0.1072  0.3621
 1621TIP3    H126498   4.206   0.814   1.714  2.9419  0.6360 -1.2018
 1621TIP3    H226499   4.276   0.926   1.788  0.8334  1.8062 -0.8920
 1622TIP3   OH226500   6.266   3.007   2.848 -0.5243  0.0347  0.3818
 1622TIP3    H126501   6.204   3.001   2.775 -0.7562  0.4359  0.5408
 1622TIP3    H226502   6.310   3.091   2.835  0.1245 -0.3356  0.1660
 1623TIP3   OH226503   1.980   3.298   1.629  0.2843 -0.4764  0.4329
 1623TIP3    H126504   2.015   3.379   1.666 -0.0392  0.4997 -1.2512
 1623TIP3    H226505   1.892   3.290   1.666  0.4504 -0.2591  0.8776
 1624TIP3   OH226506   6.214   3.323   1.973  0.2552 -0.3191 -0.2731
 1624TIP3    H126507   6.151   3.351   1.907 -0.4262  0.1863  0.5773
 1624TIP3    H226508   6.192   3.231   1.990  0.5129 -0.4906 -0.8181
 1625TIP3   OH226509   0.504   5.604   1.614  0.0028  0.8535 -0.1898
 1625TIP3    H126510   0.421   5.650   1.601 -0.7026 -0.4395 -0.4555
 1625TIP3    H226511   0.479   5.513   1.630  1.3708  0.4305 -0.2910
 1626TIP3   OH226512   6.101   5.355   2.389 -0.5019 -0.5995  0.6609
 1626TIP3    H126513   6.032   5.308   2.435 -1.6031 -0.8132 -1.1237
 1626TIP3    H226514   6.062   5.381   2.306  1.0551  0.7543  0.2874
 1627TIP3   OH226515   5.389   0.667   1.382 -0.2745  0.1168  0.0737
 1627TIP3    H126516   5.322   0.644   1.446  0.0472 -1.7232 -0.2015
 1627TIP3    H226517   5.401   0.588   1.329  0.1334  1.2923 -1.6852
 1628TIP3   OH226518   1.497   6.501   1.955  0.3246 -0.2597  0.8673
 1628TIP3    H126519   1.587   6.470   1.968  0.7330 -1.0426 -2.7533
 1628TIP3    H226520   1.444   6.422   1.955  0.3057 -0.2849 -1.2119
 1629TIP3   OH226521   2.983   5.652   2.004 -0.4614 -0.3762  0.7283
 1629TIP3    H126522   2.920   5.587   2.037  0.3493 -0.8589  1.3676
 1629TIP3    H226523   3.068   5.618   2.032  0.1139  0.1156 -0.3763
 1630TIP3   OH226524   6.619   0.077   4.011  0.1886 -0.1810 -0.3249
 1630TIP3    H126525   6.525   0.076   4.028  0.5042  0.8988  1.8155
 1630TIP3    H226526   6.657   0.117   4.089  2.4966 -1.1413 -0.8838
 1631TIP3   OH226527   0.857   0.761   0.862  0.1160 -0.2155  0.0821
 1631TIP3    H126528   0.840   0.719   0.777  0.4066 -0.0745 -0.0475
 1631TIP3    H226529   0.771   0.767   0.903  0.1933 -1.8809  0.5453
 1632TIP3   OH226530   2.715   2.646   2.097 -0.0819  0.6223  0.2747
 1632TIP3    H126531   2.731   2.717   2.159 -0.3528 -0.7548  2.0006
 1632TIP3    H226532   2.795   2.593   2.100 -0.2907  0.2727 -0.1829
 1633TIP3   OH226533   3.816   3.256   3.985 -0.5097 -0.3790  0.4313
 1633TIP3    H126534   3.789   3.319   4.052 -1.8004 -0.1172 -0.2869
 1633TIP3    H226535   3.813   3.306   3.903 -0.5765 -1.1070 -0.0214
 1634TIP3   OH226536   6.359   4.228   3.233 -0.1896 -0.8652 -0.5642
 1634TIP3    H126537   6.391   4.172   3.162  0.1650  0.3239 -1.3677
 1634TIP3    H226538   6.349   4.314   3.193 -1.3151 -0.4752  0.4955
 1635TIP3   OH226539   3.241   1.253   3.204  0.1765  0.1322  0.7291
 1635TIP3    H126540   3.172   1.205   3.250  0.4798  0.7283  1.8578
 1635TIP3    H226541   3.316   1.192   3.205  0.0590 -0.0127  0.6814
 1636TIP3   OH226542   4.984   4.933   3.524 -0.4231  0.4402  0.0244
 1636TIP3    H126543   5.076   4.909   3.539 -0.4197 -0.3593 -1.1278
 1636TIP3    H226544   4.940   4.849   3.510 -1.5269  0.7497  1.4597
 1637TIP3   OH226545   1.944   5.401   0.225  0.0287 -0.1268 -0.4769
 1637TIP3    H126546   1.947   5.385   0.130 -0.0427  0.5129 -0.5909
 1637TIP3    H226547   2.030   5.435   0.247  0.7569 -2.2159  0.0650
 1638TIP3   OH226548   0.491   4.471   3.647  0.1099  0.3185 -0.5550
 1638TIP3    H126549   0.552   4.545   3.645 -0.6780  1.0017  0.1856
 1638TIP3    H226550   0.445   4.476   3.563  1.9705 -1.0213 -1.7452
 1639TIP3   OH226551   2.223   2.526   3.245 -0.1245  0.2711 -0.1251
 1639TIP3    H126552   2.288   2.576   3.197  0.1382  0.5036  0.4589
 1639TIP3    H226553   2.176   2.476   3.178 -1.3873  2.3977 -0.9247
 1640TIP3   OH226554   6.059   3.619   0.605 -0.1574 -0.0468  0.2521
 1640TIP3    H126555   6.097   3.654   0.525  1.4164  0.4047  1.1411
 1640TIP3    H226556   6.032   3.696   0.655 -2.1427 -0.3555 -0.2679
 1641TIP3   OH226557   6.748   3.040   2.332  0.6785 -0.1638 -0.1030
 1641TIP3    H126558   6.707   3.124   2.355  1.0610  0.5014 -1.6944
 1641TIP3    H226559   6.819   3.030   2.396 -0.8397 -0.4946  1.6125
 1642TIP3   OH226560   2.870   0.886   4.054  0.0286 -0.2927 -0.2787
 1642TIP3    H126561   2.944   0.828   4.070  0.2323 -0.4531 -1.6904
 1642TIP3    H226562   2.833   0.902   4.141  0.8345 -1.3693  0.2868
 1643TIP3   OH226563   0.884   5.523   1.193 -0.3949 -0.0904 -0.2617
 1643TIP3    H126564   0.855   5.548   1.281  0.7669 -1.7292  0.6424
 1643TIP3    H226565   0.978   5.542   1.192 -0.6003  1.0783 -1.6340
 1644TIP3   OH226566   2.343   5.442   8.569 -0.4374  0.3336 -0.0493
 1644TIP3    H126567   2.269   5.388   8.542 -1.2114  1.8786 -1.1515
 1644TIP3    H226568   2.375   5.399   8.648 -2.3086 -0.5749  0.2896
 1645TIP3   OH226569   2.227   1.236   3.915  0.5150  0.6292  0.4707
 1645TIP3    H126570   2.142   1.275   3.933  0.1264 -0.4133  0.9679
 1645TIP3    H226571   2.274   1.241   3.999  0.6679  0.5167  0.3928
 1646TIP3   OH226572   3.631   0.447   2.438 -0.0862 -0.6946 -0.2913
 1646TIP3    H126573   3.726   0.447   2.434 -0.0903 -1.6573 -0.4628
 1646TIP3    H226574   3.611   0.418   2.527 -0.2224  1.0624  0.3006
 1647TIP3   OH226575   3.345   2.833   4.490  0.7737  0.2272  0.1243
 1647TIP3    H126576   3.427   2.822   4.538  0.5534  0.1772  0.4906
 1647TIP3    H226577   3.300   2.749   4.500 -0.5721  1.1264  2.2878
 1648TIP3   OH226578   5.452   1.835   4.123  0.6140  0.2004  0.4841
 1648TIP3    H126579   5.380   1.801   4.070  0.0857  0.7366  0.8456
 1648TIP3    H226580   5.531   1.816   4.071  0.1647  0.1520 -0.1966
 1649TIP3   OH226581   6.525   2.152   4.197 -0.5747  0.8819  0.3815
 1649TIP3    H126582   6.585   2.157   4.122  0.1539  0.1931  0.9005
 1649TIP3    H226583   6.486   2.065   4.190 -1.7970  1.4501 -0.1433
 1650TIP3   OH226584   6.730   4.138   2.652  0.9604  0.1453  0.1573
 1650TIP3    H126585   6.723   4.161   2.559 -0.5116  0.9303  0.4304
 1650TIP3    H226586   6.678   4.059   2.661 -1.7554  1.8763  0.8529
 1651TIP3   OH226587   1.823   0.901   3.331 -0.1263  0.1278  0.0720
 1651TIP3    H126588   1.779   0.822   3.299 -0.9107  1.2292 -1.7598
 1651TIP3    H226589   1.752   0.957   3.362  0.1265  1.1223 -1.0583
 1652TIP3   OH226590   4.148   4.621   0.831  0.5039  0.0323 -0.3129
 1652TIP3    H126591   4.226   4.624   0.775  1.2961  2.2628  0.7758
 1652TIP3    H226592   4.088   4.563   0.785  2.9029 -2.1059 -1.0344
 1653TIP3   OH226593   3.067   5.133   3.349  0.0084 -0.7124  0.2930
 1653TIP3    H126594   3.024   5.086   3.420 -0.3318 -0.2239  0.4152
 1653TIP3    H226595   3.005   5.202   3.325  0.5246 -0.2918  0.1513
 1654TIP3   OH226596   6.462   3.358   2.218  0.1933 -0.3701 -0.1759
 1654TIP3    H126597   6.372   3.359   2.249  0.4990 -1.8205  0.8938
 1654TIP3    H226598   6.486   3.265   2.218  2.1286  0.0816  0.9476
 1655TIP3   OH226599   6.298   2.183   2.287  0.1056  0.4235 -0.0143
 1655TIP3    H126600   6.244   2.233   2.226 -2.4269 -0.4069  1.3964
 1655TIP3    H226601   6.298   2.094   2.253  0.1174  0.3007  0.3034
 1656TIP3   OH226602   2.113   5.986   2.082 -0.1524  0.3163 -0.4786
 1656TIP3    H126603   2.109   5.890   2.083  0.8022  0.2602 -0.9130
 1656TIP3    H226604   2.049   6.014   2.147  0.4244 -0.6520  0.5279
 1657TIP3   OH226605   3.406   6.651   3.154  0.0316  0.6112  0.1389
 1657TIP3    H126606   3.406   6.561   3.122 -1.6835  0.5400  0.2588
 1657TIP3    H226607   3.463   6.649   3.231  1.2906  0.0054 -0.7727
 1658TIP3   OH226608   3.564   1.235   1.567 -0.6610  0.1015  0.1253
 1658TIP3    H126609   3.526   1.323   1.562  0.5809  0.5764 -2.1083
 1658TIP3    H226610   3.493   1.181   1.602 -1.4625  1.9599  1.5246
 1659TIP3   OH226611   2.691   3.216   2.160  0.1080  0.3043  0.3110
 1659TIP3    H126612   2.775   3.246   2.194  1.2741 -1.7524 -0.6037
 1659TIP3    H226613   2.634   3.293   2.165  1.7290  1.4650  1.9064
 1660TIP3   OH226614   5.875   3.574   2.144 -0.3393  0.2788 -0.7288
 1660TIP3    H126615   5.964   3.577   2.107  0.2723 -1.2865  0.5108
 1660TIP3    H226616   5.830   3.647   2.102  1.2922  0.6270 -2.0053
 1661TIP3   OH226617   6.728   1.944   1.319 -0.1859 -0.1448 -0.0509
 1661TIP3    H126618   6.684   2.027   1.302 -1.7350 -0.5234  1.7736
 1661TIP3    H226619   6.731   1.937   1.415  1.5323 -1.3672 -0.1511
 1662TIP3   OH226620   5.556   0.162   2.169 -0.1642 -0.1403  0.4671
 1662TIP3    H126621   5.645   0.172   2.134 -0.1208 -0.8286  0.3741
 1662TIP3    H226622   5.568   0.165   2.264 -0.0320 -0.3175  0.4566
 1663TIP3   OH226623   0.473   2.883   3.980 -0.8825 -0.0175  0.5660
 1663TIP3    H126624   0.559   2.892   4.022 -0.3542 -3.7145  0.6360
 1663TIP3    H226625   0.412   2.926   4.040  0.9214  3.9721 -0.1729
 1664TIP3   OH226626   5.029   2.696   2.598 -0.3986 -1.0375  0.4006
 1664TIP3    H126627   5.046   2.790   2.601 -0.1167 -1.0905  0.5139
 1664TIP3    H226628   5.034   2.673   2.505  0.2791 -1.0699  0.4374
 1665TIP3   OH226629   0.626   6.810   2.167  0.0045  0.6438  0.2766
 1665TIP3    H126630   0.645   6.903   2.150  0.8477  0.0298 -2.8094
 1665TIP3    H226631   0.703   6.777   2.211  0.3692  1.0955 -0.0087
 1666TIP3   OH226632   1.932   1.300   0.689  0.6356 -0.6108  0.0250
 1666TIP3    H126633   1.985   1.336   0.618 -0.0011  1.7457  0.6761
 1666TIP3    H226634   1.982   1.318   0.769  0.8416 -2.2742  0.3055
 1667TIP3   OH226635   0.998   3.479   0.913 -0.9028  0.4432  0.3594
 1667TIP3    H126636   1.020   3.395   0.952  0.5183  1.3610  1.6555
 1667TIP3    H226637   0.919   3.508   0.959 -0.2106  0.7390  1.3770
 1668TIP3   OH226638   2.853   6.758   1.394  0.7721 -0.1764  0.0100
 1668TIP3    H126639   2.797   6.800   1.329  2.4785  3.6934  0.7340
 1668TIP3    H226640   2.889   6.682   1.349 -2.9162 -1.3269 -1.2988
 1669TIP3   OH226641   2.006   2.086   1.812  0.4215 -0.5741 -0.1851
 1669TIP3    H126642   1.934   2.139   1.846 -0.8596 -1.0808 -1.9508
 1669TIP3    H226643   2.021   2.120   1.724  0.9020 -1.8775 -0.6248
 1670TIP3   OH226644   2.483   3.563   3.173  1.2631 -0.1228 -0.2228
 1670TIP3    H126645   2.463   3.641   3.224  3.2565 -0.0423  0.5197
 1670TIP3    H226646   2.536   3.595   3.100  0.4012 -0.5521 -1.0668
 1671TIP3   OH226647   1.861   0.691   4.236  0.4176  0.5391 -0.6961
 1671TIP3    H126648   1.893   0.775   4.201 -1.5517  1.4438 -0.4924
 1671TIP3    H226649   1.776   0.679   4.194  0.1185 -0.7485  0.2203
 1672TIP3   OH226650   3.788   2.766   4.174 -0.1842  0.3729  0.0277
 1672TIP3    H126651   3.854   2.697   4.172  1.0328  1.4991 -0.1131
 1672TIP3    H226652   3.793   2.806   4.088 -2.2666 -0.5718 -0.5995
 1673TIP3   OH226653   6.630   3.180   1.945  0.3330 -0.1816 -0.2088
 1673TIP3    H126654   6.658   3.194   1.854 -0.4654  0.9780 -0.2922
 1673TIP3    H226655   6.680   3.244   1.995 -2.4238  2.4088 -0.4356
 1674TIP3   OH226656   4.623   2.369   0.389  0.0649  0.6388  0.2296
 1674TIP3    H126657   4.608   2.335   0.301 -2.7968  2.6898 -0.2197
 1674TIP3    H226658   4.718   2.365   0.400  0.4562 -0.3540 -2.6547
 1675TIP3   OH226659   2.871   3.258   4.379 -0.2736 -0.5287  0.0861
 1675TIP3    H126660   2.828   3.259   4.465 -1.2238 -1.2614 -0.3574
 1675TIP3    H226661   2.947   3.201   4.391  0.8404  1.0562  0.9741
 1676TIP3   OH226662   5.453   5.979   2.802 -0.7886  0.3422 -0.0762
 1676TIP3    H126663   5.435   5.893   2.839 -0.4545 -0.3208 -1.3711
 1676TIP3    H226664   5.381   6.034   2.832 -0.5375 -0.1440  1.4987
 1677TIP3   OH226665   3.059   6.800   1.828  0.0110 -0.2998 -0.3240
 1677TIP3    H126666   3.035   6.890   1.850  0.8464 -0.4373  1.3138
 1677TIP3    H226667   3.071   6.757   1.913  0.3822 -1.7529 -1.0793
 1678TIP3   OH226668   6.008   2.045   2.111  0.1977 -0.6757 -0.6233
 1678TIP3    H126669   6.040   1.956   2.100 -1.6713 -1.4613 -0.0435
 1678TIP3    H226670   5.914   2.041   2.091  0.2513  1.3737 -1.5917
 1679TIP3   OH226671   2.203   5.486   0.215  0.5258 -0.0465 -0.7057
 1679TIP3    H126672   2.230   5.398   0.242  0.6975  0.6784  1.7380
 1679TIP3    H226673   2.248   5.544   0.276 -1.4587  1.6039 -0.7119
 1680TIP3   OH226674   2.281   1.347   3.206 -0.0289 -0.5641 -0.1231
 1680TIP3    H126675   2.342   1.344   3.280  0.1623 -0.1265 -0.2617
 1680TIP3    H226676   2.233   1.264   3.212 -0.4128 -0.2878  0.8208
 1681TIP3   OH226677   0.725   3.523   3.678 -0.2042  0.5704  0.2397
 1681TIP3    H126678   0.801   3.546   3.625 -0.8137  0.2459 -0.8076
 1681TIP3    H226679   0.715   3.428   3.666 -0.3811  0.5071  0.8889
 1682TIP3   OH226680   2.132   6.250   1.637  0.4393  0.0085 -0.2062
 1682TIP3    H126681   2.079   6.231   1.560 -0.7307 -0.3912  0.6788
 1682TIP3    H226682   2.174   6.167   1.659 -1.9920 -0.8750  1.6205
 1683TIP3   OH226683   4.896   2.089   4.180  0.5504 -0.3355  0.0211
 1683TIP3    H126684   4.881   2.180   4.207 -0.7384 -0.6238  0.3236
 1683TIP3    H226685   4.815   2.044   4.201  0.5449 -1.2037 -1.6824
 1684TIP3   OH226686   1.853   0.457   1.263 -0.5209 -0.2405 -0.3298
 1684TIP3    H126687   1.834   0.521   1.195  0.3051  0.4603  0.0830
 1684TIP3    H226688   1.861   0.374   1.216  0.8318  0.3542 -1.2193
 1685TIP3   OH226689   0.496   2.659   0.926 -0.1256  0.0862  0.1991
 1685TIP3    H126690   0.582   2.635   0.893  0.5155 -2.4146  3.2183
 1685TIP3    H226691   0.514   2.716   1.001 -1.1248 -0.0910  0.5908
 1686TIP3   OH226692   3.763   0.006   2.754 -1.0638 -0.2615 -0.1025
 1686TIP3    H126693   3.804   0.088   2.727 -0.8225 -0.4763 -0.3902
 1686TIP3    H226694   3.696  -0.010   2.688 -0.3135 -0.9101 -0.7224
 1687TIP3   OH226695   4.576   3.286   4.076  0.0316  0.0531 -0.0050
 1687TIP3    H126696   4.589   3.308   3.984 -1.9603  0.0369 -0.3294
 1687TIP3    H226697   4.562   3.191   4.077 -0.4022  0.1122  0.2331
 1688TIP3   OH226698   0.054   3.876   1.004  0.0106  0.4012  0.3032
 1688TIP3    H126699   0.132   3.932   0.999 -0.2482  0.9553  1.9427
 1688TIP3    H226700   0.079   3.807   1.066 -0.2229 -0.4429 -0.5091
 1689TIP3   OH226701   4.009   1.316   1.738  0.1617  0.0249  0.2763
 1689TIP3    H126702   3.966   1.231   1.753  1.3139 -0.8096 -0.9389
 1689TIP3    H226703   4.022   1.320   1.643  1.5534  0.8561  0.4726
 1690TIP3   OH226704   1.286   6.564   1.264  0.2624 -0.0354 -0.3684
 1690TIP3    H126705   1.258   6.646   1.305 -0.0668 -0.2112 -0.2329
 1690TIP3    H226706   1.334   6.591   1.186  0.3707  0.2914 -0.1903
 1691TIP3   OH226707   4.683   1.245   1.902 -0.1108 -0.3081  0.2019
 1691TIP3    H126708   4.693   1.153   1.927 -0.7985 -0.1655  1.0585
 1691TIP3    H226709   4.674   1.243   1.807 -2.6583 -1.4074  0.3726
 1692TIP3   OH226710   3.534   0.055   0.603 -0.0990  0.1971  0.3131
 1692TIP3    H126711   3.501   0.046   0.514  0.6125  0.9273 -0.0290
 1692TIP3    H226712   3.583   0.137   0.603  0.4909 -0.1404  1.1906
 1693TIP3   OH226713   2.574   2.292   0.595 -0.1330  0.5582 -0.1599
 1693TIP3    H126714   2.572   2.218   0.536 -1.6612 -0.2199  0.7961
 1693TIP3    H226715   2.526   2.361   0.549 -1.6758 -0.1762  0.2863
 1694TIP3   OH226716   4.084   3.067   1.924  0.2167  0.0600  0.5324
 1694TIP3    H126717   4.017   3.099   1.863 -0.2749 -0.7954  0.5986
 1694TIP3    H226718   4.159   3.045   1.868  0.1409  0.2503  0.3555
 1695TIP3   OH226719   3.202   2.926   1.519 -0.0688 -0.4978 -0.0962
 1695TIP3    H126720   3.289   2.886   1.511  0.2662 -0.3891  2.2790
 1695TIP3    H226721   3.219   3.016   1.548 -0.9461 -0.6527  0.9853
 1696TIP3   OH226722   3.172   6.398   3.649 -0.1492  0.1653 -0.1154
 1696TIP3    H126723   3.260   6.360   3.638 -0.8499 -1.7876  0.6189
 1696TIP3    H226724   3.179   6.485   3.608  2.5335  0.7251  1.2611
 1697TIP3   OH226725   1.279   5.089   3.607 -0.3089 -0.6067 -0.3056
 1697TIP3    H126726   1.274   5.160   3.671 -1.3119 -0.7090 -0.2596
 1697TIP3    H226727   1.345   5.118   3.544 -0.1130 -0.0107  0.1621
 1698TIP3   OH226728   3.707   5.754   0.975 -0.5928 -0.4842  0.1565
 1698TIP3    H126729   3.650   5.745   0.899  0.4044 -0.5175 -0.6039
 1698TIP3    H226730   3.707   5.667   1.016  0.3202 -0.9917 -0.8759
 1699TIP3   OH226731   2.263   0.522   3.969 -0.5622 -0.2468 -0.7118
 1699TIP3    H126732   2.234   0.612   3.986 -1.3954 -0.7865  0.9236
 1699TIP3    H226733   2.260   0.514   3.874 -2.6836  0.7827 -0.8029
 1700TIP3   OH226734   6.148   2.288   2.095  0.0911  0.1376  0.1676
 1700TIP3    H126735   6.084   2.217   2.086  0.8493 -0.7601  1.5662
 1700TIP3    H226736   6.121   2.353   2.029 -2.1134 -0.3124  0.5325
 1701TIP3   OH226737   1.501   0.094   1.854  0.0353 -0.2856 -0.4547
 1701TIP3    H126738   1.554   0.024   1.815  0.3700  0.5329 -1.5150
 1701TIP3    H226739   1.423   0.099   1.799  1.5392  2.4205 -2.5868
 1702TIP3   OH226740   0.911   5.013   3.540 -0.8211 -0.0712 -0.1638
 1702TIP3    H126741   0.964   5.085   3.507 -1.3421  0.7140  0.6675
 1702TIP3    H226742   0.842   5.003   3.475 -0.7459  0.1825 -0.2856
 1703TIP3   OH226743   3.023   6.607   3.143 -0.0995 -0.8426 -0.0665
 1703TIP3    H126744   3.069   6.540   3.195  0.2512 -0.1581  0.5276
 1703TIP3    H226745   3.094   6.662   3.108 -0.3521 -1.1136 -1.0262
 1704TIP3   OH226746   6.317   5.240   2.768 -0.1075  0.2036  0.1666
 1704TIP3    H126747   6.329   5.300   2.842 -0.7323  1.8518 -1.0151
 1704TIP3    H226748   6.358   5.158   2.797  1.3291  1.3636  1.6069
 1705TIP3   OH226749   2.428   0.410   3.213 -0.7099 -0.5596  0.1105
 1705TIP3    H126750   2.519   0.440   3.207 -0.9486  0.2368  0.3494
 1705TIP3    H226751   2.415   0.355   3.136 -0.2544 -0.0429 -0.3433
 1706TIP3   OH226752   0.870   6.357   4.328  0.6759  0.2115  0.5142
 1706TIP3    H126753   0.922   6.277   4.334  0.9358  0.3843  0.5769
 1706TIP3    H226754   0.882   6.400   4.413 -0.8553 -0.5245  1.1300
 1707TIP3   OH226755   2.967   3.121   3.337  0.0425 -0.1527 -0.2122
 1707TIP3    H126756   2.929   3.042   3.298  0.0013 -0.4564  0.4188
 1707TIP3    H226757   2.899   3.188   3.327 -0.5197 -0.5877  0.5422
 1708TIP3   OH226758   0.846   4.887   0.078  0.4883  0.5086 -0.2258
 1708TIP3    H126759   0.860   4.976   0.112  1.2090  0.6471 -0.8577
 1708TIP3    H226760   0.778   4.897   0.012  0.3405  0.5386 -0.0696
 1709TIP3   OH226761   3.596   5.304   4.166  0.2017 -0.2880 -0.4229
 1709TIP3    H126762   3.576   5.299   4.073  0.3122 -0.4490 -0.4364
 1709TIP3    H226763   3.628   5.394   4.179 -1.5583  0.3579 -0.2025
 1710TIP3   OH226764   3.356   1.115   1.681  0.0531  0.4826  0.1410
 1710TIP3    H126765   3.302   1.039   1.659 -0.7287  0.6326  1.4535
 1710TIP3    H226766   3.358   1.116   1.776  1.5178  1.1086  0.1254
 1711TIP3   OH226767   2.077   6.387   2.300 -0.4372  0.1064 -0.0617
 1711TIP3    H126768   2.162   6.428   2.280  1.0635 -1.7529  1.9890
 1711TIP3    H226769   2.083   6.300   2.260 -0.9921 -0.3851  0.9094
 1712TIP3   OH226770   2.568   2.501   0.393 -0.1822 -0.5487 -0.0309
 1712TIP3    H126771   2.597   2.474   0.306  0.6610 -1.5379  0.5361
 1712TIP3    H226772   2.477   2.471   0.398 -0.8476  1.1358 -1.2234
 1713TIP3   OH226773   6.718   6.465   4.716 -0.9574  0.2130 -0.8374
 1713TIP3    H126774   6.781   6.533   4.742  0.5992 -1.6172  0.4730
 1713TIP3    H226775   6.765   6.411   4.653 -1.4236 -0.7885 -0.3565
 1714TIP3   OH226776   1.507   2.023   1.908 -0.4874  0.1518 -0.5106
 1714TIP3    H126777   1.435   1.993   1.964  2.1977  0.3706  3.4554
 1714TIP3    H226778   1.524   2.113   1.936  0.7156  0.4477 -2.0656
 1715TIP3   OH226779   2.182   1.964   8.819 -0.5091  0.2064 -0.3468
 1715TIP3    H126780   2.169   1.918   8.736  1.3047  0.7706 -0.9917
 1715TIP3    H226781   2.270   1.938   8.848 -0.1524  1.8653  0.1727
 1716TIP3   OH226782   5.209   3.259   4.393  0.1395 -0.0884  0.7994
 1716TIP3    H126783   5.191   3.346   4.357 -2.9552 -0.5406  1.0167
 1716TIP3    H226784   5.209   3.271   4.488 -3.1591 -0.6340  0.9928
 1717TIP3   OH226785   2.397   6.331   3.800 -0.2269 -1.2208 -0.3909
 1717TIP3    H126786   2.308   6.356   3.777 -0.2391 -1.8783 -1.0813
 1717TIP3    H226787   2.387   6.265   3.869 -0.2007  0.3803  1.2194
 1718TIP3   OH226788   4.232   0.737   0.925  0.3515 -0.6756 -0.5053
 1718TIP3    H126789   4.209   0.675   0.856  0.4061 -1.1166 -0.1275
 1718TIP3    H226790   4.272   0.684   0.993  0.1767 -0.2606 -0.0721
 1719TIP3   OH226791   1.473   4.181   4.541 -0.0783 -0.0488  0.5558
 1719TIP3    H126792   1.430   4.265   4.525 -1.5692 -1.0643 -1.1444
 1719TIP3    H226793   1.408   4.130   4.591  0.1609 -0.7094  0.2126
 1720TIP3   OH226794   1.551   5.660   4.249 -0.6437  0.2313  0.2753
 1720TIP3    H126795   1.500   5.656   4.330 -0.5772  0.6359  0.3391
 1720TIP3    H226796   1.634   5.700   4.275 -0.4270 -0.0996  0.1030
 1721TIP3   OH226797   2.465   5.675   3.470  0.3245 -0.1695 -0.5287
 1721TIP3    H126798   2.434   5.588   3.444 -1.2449  0.0722  0.3694
 1721TIP3    H226799   2.545   5.689   3.419 -0.0436 -1.6418 -1.5712
 1722TIP3   OH226800   0.172   4.992   1.905 -0.1053 -0.1653  0.0597
 1722TIP3    H126801   0.121   5.071   1.922  1.4638  1.1153 -0.9209
 1722TIP3    H226802   0.157   4.973   1.812  0.9982  0.1078 -0.1858
 1723TIP3   OH226803   4.595   1.555   2.944  0.4196 -0.3335  0.3009
 1723TIP3    H126804   4.621   1.636   2.900  0.6114  0.3931  1.7105
 1723TIP3    H226805   4.655   1.489   2.908  0.6224  0.2411 -0.4584
 1724TIP3   OH226806   1.602   3.212   3.664 -0.1655 -0.7554  0.7482
 1724TIP3    H126807   1.636   3.295   3.697 -4.5298  0.9430  1.6589
 1724TIP3    H226808   1.598   3.223   3.569 -2.2655  0.9382  0.9540
 1725TIP3   OH226809   2.993   4.883   1.053  0.4198  0.2017  0.2739
 1725TIP3    H126810   3.043   4.808   1.086  1.1363  0.5300 -0.0453
 1725TIP3    H226811   2.981   4.938   1.130 -1.4113 -0.9256  0.8449
 1726TIP3   OH226812   4.527   0.297   2.235 -0.1247  0.0938  0.0405
 1726TIP3    H126813   4.518   0.291   2.140  0.3761 -0.5846  0.0369
 1726TIP3    H226814   4.584   0.225   2.259 -0.5652  0.0222  0.9094
 1727TIP3   OH226815   6.012   3.223   2.203  0.1944  0.1298  0.1369
 1727TIP3    H126816   5.947   3.262   2.144  2.1680  0.8857 -1.6785
 1727TIP3    H226817   6.045   3.298   2.253  2.8901  0.6943 -2.2624
 1728TIP3   OH226818   2.993   3.492   2.237  0.3220 -0.1744 -0.5516
 1728TIP3    H126819   2.952   3.445   2.164 -0.1697  0.0972 -0.4599
 1728TIP3    H226820   2.928   3.487   2.308  0.5680  0.0192 -0.3094
 1729TIP3   OH226821   3.729   6.004   1.357  0.2353 -0.4389  0.1655
 1729TIP3    H126822   3.820   5.975   1.360  0.6064  0.6280 -0.1334
 1729TIP3    H226823   3.733   6.091   1.317 -0.8666 -0.1737  0.5908
 1730TIP3   OH226824   0.745   3.502   1.048 -0.9661 -0.0805 -0.2917
 1730TIP3    H126825   0.748   3.555   1.128  1.1819 -0.2846 -0.2002
 1730TIP3    H226826   0.667   3.448   1.060 -0.4635 -0.4446  1.8982
 1731TIP3   OH226827   3.449   2.869   8.621  0.3901 -0.0880  0.1452
 1731TIP3    H126828   3.456   2.918   8.539 -0.8409 -0.0342  0.0621
 1731TIP3    H226829   3.505   2.792   8.607 -1.2451 -1.0515 -1.4977
 1732TIP3   OH226830   0.644   2.884   3.070 -0.1224  0.3965 -0.4051
 1732TIP3    H126831   0.691   2.810   3.107 -1.5036 -0.7397 -0.8532
 1732TIP3    H226832   0.713   2.944   3.041  1.1532 -1.9029 -2.5060
 1733TIP3   OH226833   6.765   1.754   3.134 -0.5063 -0.5845  0.4477
 1733TIP3    H126834   6.843   1.752   3.189 -0.7945 -2.9727  0.8551
 1733TIP3    H226835   6.796   1.734   3.046 -0.3903  0.7803  0.1500
 1734TIP3   OH226836   5.388   0.787   0.905  0.1739  0.0073  0.5740
 1734TIP3    H126837   5.476   0.821   0.922  0.1824  0.5193 -0.4781
 1734TIP3    H226838   5.387   0.766   0.812 -0.0216 -2.3622  1.0518
 1735TIP3   OH226839   5.986   3.731   3.778 -0.2246 -0.1115  0.0034
 1735TIP3    H126840   5.941   3.778   3.848  0.2248  0.2505  0.0491
 1735TIP3    H226841   5.922   3.729   3.707 -2.0064 -3.3619  1.4647
 1736TIP3   OH226842   1.450   0.235   2.416  0.4109  0.2078 -0.4672
 1736TIP3    H126843   1.440   0.150   2.458 -0.4367  0.4920 -0.0601
 1736TIP3    H226844   1.469   0.295   2.488 -1.6086  0.7963 -0.3623
 1737TIP3   OH226845   5.856   6.728   3.175 -0.1104 -0.2525  0.5674
 1737TIP3    H126846   5.858   6.817   3.212 -0.0216 -0.6517  1.5464
 1737TIP3    H226847   5.906   6.735   3.093 -0.3470  0.6588  0.4877
 1738TIP3   OH226848   0.545   4.541   1.426 -0.2243 -0.8344 -0.6907
 1738TIP3    H126849   0.534   4.504   1.338  2.5612 -2.0777 -0.5970
 1738TIP3    H226850   0.639   4.537   1.443 -0.8323 -3.1623  3.4224
 1739TIP3   OH226851   1.894   3.937   1.067  0.2301  0.1603 -0.3551
 1739TIP3    H126852   1.813   3.985   1.049  0.6179  0.9060 -0.1570
 1739TIP3    H226853   1.866   3.856   1.109 -0.4487  0.1444 -0.8360
 1740TIP3   OH226854   3.443   5.931   1.181 -0.1422 -0.1631  0.0492
 1740TIP3    H126855   3.469   5.880   1.259  0.8512  0.0317 -0.1353
 1740TIP3    H226856   3.524   5.938   1.130 -0.7447 -0.1328 -0.9179
 1741TIP3   OH226857   3.420   0.815   4.349 -0.0834  0.5621  0.2101
 1741TIP3    H126858   3.510   0.847   4.361  0.1033  0.5389 -1.0254
 1741TIP3    H226859   3.412   0.800   4.255 -1.0218 -0.5358  0.4489
 1742TIP3   OH226860   6.108   3.456   1.623  0.1120 -0.1206 -0.3390
 1742TIP3    H126861   6.051   3.513   1.572 -0.3156 -0.2089  0.0439
 1742TIP3    H226862   6.177   3.514   1.656  0.4103 -0.0662 -1.0335
 1743TIP3   OH226863   6.153   2.776   2.259 -0.2706  0.2836  0.3369
 1743TIP3    H126864   6.123   2.748   2.345 -1.7239  0.2945 -0.1442
 1743TIP3    H226865   6.106   2.858   2.242 -0.2779  0.0934 -0.6255
 1744TIP3   OH226866   0.316   4.577   2.409  0.4959  0.5049  0.4539
 1744TIP3    H126867   0.369   4.638   2.460  0.0873  0.7161  0.6326
 1744TIP3    H226868   0.260   4.633   2.355 -0.5437  0.3154  1.3011
 1745TIP3   OH226869   1.360   4.267   2.508  0.0587 -0.2783 -0.5408
 1745TIP3    H126870   1.455   4.275   2.503  0.2004 -1.9338 -1.1454
 1745TIP3    H226871   1.334   4.242   2.419 -1.1205  1.4873 -0.7471
 1746TIP3   OH226872   2.611   1.473   4.361  0.4874  0.0599  0.7884
 1746TIP3    H126873   2.642   1.562   4.378  0.0149  0.1174  1.3714
 1746TIP3    H226874   2.648   1.421   4.432  0.8920 -0.2460  0.3624
 1747TIP3   OH226875   2.956   3.684   0.605 -0.3648 -0.0742  0.4024
 1747TIP3    H126876   2.970   3.734   0.524  0.8198 -0.3252  0.4226
 1747TIP3    H226877   2.878   3.631   0.588 -1.8205  1.9466  0.4813
 1748TIP3   OH226878   2.900   0.492   1.034 -0.2133 -0.3629 -0.6194
 1748TIP3    H126879   2.994   0.471   1.038  0.0468  0.6420 -1.1004
 1748TIP3    H226880   2.895   0.583   1.062 -1.0765 -0.4716 -0.4068
 1749TIP3   OH226881   2.103   5.112   8.659 -0.0508 -0.2796 -0.4003
 1749TIP3    H126882   2.042   5.134   8.588  1.5186  0.1506 -1.6851
 1749TIP3    H226883   2.082   5.174   8.729 -1.2619 -0.3399 -0.6841
 1750TIP3   OH226884   1.651   4.229   2.482 -0.7989  0.3652  0.4929
 1750TIP3    H126885   1.723   4.173   2.452  0.1044  1.5716  0.3090
 1750TIP3    H226886   1.625   4.277   2.403 -1.6938  0.0787  0.6047
 1751TIP3   OH226887   5.336   3.737   1.991  0.0257  0.0303 -0.4179
 1751TIP3    H126888   5.410   3.740   2.052  1.1990 -0.3387 -1.7670
 1751TIP3    H226889   5.323   3.828   1.965 -0.4340  0.1802  0.2933
 1752TIP3   OH226890   3.117   1.674   2.384  0.7687  0.3014  0.4179
 1752TIP3    H126891   3.062   1.718   2.449 -0.6329 -1.2876  0.3692
 1752TIP3    H226892   3.068   1.595   2.360  2.0354 -0.0137 -1.3363
 1753TIP3   OH226893   6.654   1.027   1.252  0.6247 -0.1446 -0.3061
 1753TIP3    H126894   6.581   1.080   1.221  0.5585  1.6820  2.5609
 1753TIP3    H226895   6.616   0.941   1.270 -0.4232  0.2747 -0.4719
 1754TIP3   OH226896   4.915   5.535   1.169  0.1001  0.2117  0.6231
 1754TIP3    H126897   4.969   5.460   1.146  0.5051  1.2712 -2.2870
 1754TIP3    H226898   4.835   5.523   1.118 -0.7441  0.6904  1.8004
 1755TIP3   OH226899   1.049   2.989   3.322 -0.4893 -0.0114  0.2995
 1755TIP3    H126900   1.077   2.942   3.401  0.9010 -0.1387 -0.2522
 1755TIP3    H226901   1.129   3.005   3.273 -1.1521  1.3884 -0.3877
 1756TIP3   OH226902   2.335   2.804   4.847  0.0189  0.0373 -0.1247
 1756TIP3    H126903   2.255   2.838   4.807 -0.1426  1.3385  1.2112
 1756TIP3    H226904   2.394   2.788   4.774 -0.8570  0.7001 -0.9971
 1757TIP3   OH226905   2.254   0.088   2.977  0.3954 -0.6960 -0.0747
 1757TIP3    H126906   2.318   0.157   2.962  1.8424 -2.2116 -1.3378
 1757TIP3    H226907   2.170   0.133   2.984  1.1974  1.1313 -1.5167
 1758TIP3   OH226908   0.958   0.309   0.297 -0.6508  0.6685  0.4094
 1758TIP3    H126909   0.947   0.392   0.251 -1.2224  0.1751 -0.3755
 1758TIP3    H226910   1.012   0.330   0.373  1.1831  1.3221 -1.0000
 1759TIP3   OH226911   1.761   3.305   3.064  0.3116  0.2172  0.5757
 1759TIP3    H126912   1.698   3.371   3.036 -1.1731 -1.0733  0.7701
 1759TIP3    H226913   1.780   3.327   3.155  0.3476  0.7638  0.4370
 1760TIP3   OH226914   5.263   3.174   0.508  0.1064  0.0588  0.0285
 1760TIP3    H126915   5.306   3.244   0.557 -1.9598  0.3860  1.4861
 1760TIP3    H226916   5.220   3.219   0.435  1.0624 -0.0842 -0.6330
 1761TIP3   OH226917   6.640   1.665   0.630  0.5173  0.4127 -0.1916
 1761TIP3    H126918   6.551   1.651   0.662  0.3505  1.8442  0.0436
 1761TIP3    H226919   6.666   1.749   0.668  0.9827  1.2945 -2.3526
 1762TIP3   OH226920   4.454   6.817   2.854  0.1280  0.0924  0.2947
 1762TIP3    H126921   4.436   6.730   2.819  0.9934  0.3136 -0.7335
 1762TIP3    H226922   4.549   6.825   2.852  0.0546  1.0901  0.3366
 1763TIP3   OH226923   2.134   3.386   3.216  0.1235 -0.2993  0.8240
 1763TIP3    H126924   2.118   3.371   3.123 -0.9108  1.1471  0.7345
 1763TIP3    H226925   2.225   3.416   3.220  0.6037 -1.6451  0.4572
 1764TIP3   OH226926   0.889   4.889   1.886  0.3114  0.2988  0.2323
 1764TIP3    H126927   0.923   4.805   1.915  0.5645  0.5738  0.7349
 1764TIP3    H226928   0.959   4.926   1.833 -0.4100 -0.5083 -1.3547
 1765TIP3   OH226929   0.039   5.511   3.445 -0.0789 -0.0805 -0.2638
 1765TIP3    H126930   0.024   5.419   3.422 -0.4802 -0.3573  1.0074
 1765TIP3    H226931   0.048   5.556   3.361 -0.8178 -1.1271 -0.9248
 1766TIP3   OH226932   3.652   4.056   3.291  0.4055 -0.2298  0.1155
 1766TIP3    H126933   3.639   3.965   3.318  1.5428 -0.0954  1.2310
 1766TIP3    H226934   3.569   4.082   3.252  0.1809 -1.8514 -0.5509
 1767TIP3   OH226935   5.967   6.308   4.143 -0.8918 -0.0259  0.0079
 1767TIP3    H126936   6.008   6.360   4.075  2.0540 -1.4403  0.5364
 1767TIP3    H226937   5.949   6.370   4.214  0.0103  0.7538 -0.4249
 1768TIP3   OH226938   2.297   3.023   1.250  0.7295 -0.5694 -0.2809
 1768TIP3    H126939   2.280   2.932   1.277 -0.9389 -0.6023 -1.3386
 1768TIP3    H226940   2.252   3.076   1.315 -2.7271 -0.6425 -2.3543
 1769TIP3   OH226941   0.614   4.718   4.254  0.6472  0.4319 -0.5092
 1769TIP3    H126942   0.653   4.790   4.205 -0.3795  0.0049 -2.0282
 1769TIP3    H226943   0.529   4.752   4.284  0.7911  0.3242  0.0380
 1770TIP3   OH226944   2.867   2.883   1.806 -0.0269  0.1198 -0.0666
 1770TIP3    H126945   2.907   2.866   1.891  1.5059  2.1513 -0.3163
 1770TIP3    H226946   2.827   2.969   1.816  0.0221  0.3015 -1.3466
 1771TIP3   OH226947   6.419   1.090   3.480 -0.6882 -0.1032 -0.3268
 1771TIP3    H126948   6.504   1.083   3.523  0.6791  0.8742 -2.6796
 1771TIP3    H226949   6.405   1.185   3.469 -1.4336 -0.2873 -1.1270
 1772TIP3   OH226950   5.440   1.451   0.025  0.1787 -0.5983  0.5227
 1772TIP3    H126951   5.516   1.500   0.057 -0.6282  0.5748  0.7384
 1772TIP3    H226952   5.447   1.366   0.067  0.6517 -0.0419  1.6283
 1773TIP3   OH226953   6.039   3.886   4.952  0.2316 -0.0412 -0.0236
 1773TIP3    H126954   6.130   3.857   4.960  0.0071 -1.2815 -1.4608
 1773TIP3    H226955   5.990   3.806   4.937 -1.4178  0.3736  2.5924
 1774TIP3   OH226956   4.545   3.859   2.909 -0.2360 -0.0140 -0.5427
 1774TIP3    H126957   4.634   3.889   2.888  0.3578 -0.7421  0.8065
 1774TIP3    H226958   4.525   3.901   2.992 -1.6541  1.0784 -1.3907
 1775TIP3   OH226959   1.706   4.092   0.973  0.0142 -0.3656 -0.2022
 1775TIP3    H126960   1.739   4.141   1.048 -0.5953 -1.1568  0.6038
 1775TIP3    H226961   1.613   4.116   0.969 -0.2249 -1.2414  0.0304
 1776TIP3   OH226962   1.393   2.689   0.786  0.1942 -0.2051  0.2741
 1776TIP3    H126963   1.312   2.686   0.838  0.0367 -1.7872 -0.0252
 1776TIP3    H226964   1.424   2.779   0.797 -0.3752 -0.1968  2.2792
 1777TIP3   OH226965   6.640   4.111   4.605  0.3051  0.1305 -0.2738
 1777TIP3    H126966   6.609   4.061   4.530 -0.9174 -0.3910  0.5604
 1777TIP3    H226967   6.567   4.169   4.628  0.6317  0.2275  0.5699
 1778TIP3   OH226968   4.630   3.317   5.043  0.0877  0.2281 -0.8907
 1778TIP3    H126969   4.628   3.361   4.958  1.3779  1.0146 -0.5470
 1778TIP3    H226970   4.634   3.389   5.107  1.8116 -0.3550 -0.2919
 1779TIP3   OH226971   5.461   5.738   1.203 -0.1052 -0.4063  0.4371
 1779TIP3    H126972   5.388   5.697   1.251 -1.2879 -0.0464 -1.0115
 1779TIP3    H226973   5.445   5.715   1.112  2.3374 -1.4142  0.1943
 1780TIP3   OH226974   5.366   2.711   3.760  0.5481 -0.8507  0.6925
 1780TIP3    H126975   5.428   2.716   3.687  0.4610  1.1118  0.6967
 1780TIP3    H226976   5.400   2.642   3.816  1.4654 -1.3529 -0.4541
 1781TIP3   OH226977   4.621   5.098   0.462 -0.1941  0.2766 -0.5565
 1781TIP3    H126978   4.696   5.093   0.403  0.6299  0.9151  0.4088
 1781TIP3    H226979   4.636   5.030   0.527 -2.4962 -2.3782 -2.5448
 1782TIP3   OH226980   4.700   4.615   2.071  0.2152  0.3512 -0.1745
 1782TIP3    H126981   4.766   4.546   2.077 -1.3583 -1.1060  2.5013
 1782TIP3    H226982   4.623   4.571   2.034 -0.9412  0.4471  1.9480
 1783TIP3   OH226983   4.503   0.710   2.493  0.2824 -0.5521  0.0825
 1783TIP3    H126984   4.432   0.773   2.477 -0.2573 -1.2442 -0.3557
 1783TIP3    H226985   4.577   0.745   2.443  0.8851  1.2034  2.0765
 1784TIP3   OH226986   6.448   6.176   1.384  0.4569  0.3769 -0.2253
 1784TIP3    H126987   6.423   6.138   1.469  0.4923 -0.8568 -0.7378
 1784TIP3    H226988   6.377   6.237   1.364 -0.1590 -0.1851  0.1689
 1785TIP3   OH226989   6.011   2.058   4.810  0.2817 -0.0162 -0.0978
 1785TIP3    H126990   6.081   2.022   4.755 -1.3227 -2.3580 -0.7244
 1785TIP3    H226991   5.935   2.004   4.792 -1.4248  1.6992  1.4542
 1786TIP3   OH226992   0.036   1.061   3.252  0.0601 -0.5122 -0.6038
 1786TIP3    H126993   0.014   1.153   3.237 -2.0250 -1.3342 -3.6023
 1786TIP3    H226994   0.097   1.063   3.325 -2.2393  2.9858  1.5822
 1787TIP3   OH226995   1.457   0.698   3.074  0.3213  0.3783 -0.1428
 1787TIP3    H126996   1.538   0.655   3.046 -0.2187  0.2269 -1.5936
 1787TIP3    H226997   1.427   0.745   2.996  0.0680  2.1356  0.9640
 1788TIP3   OH226998   5.777   1.485   0.636 -0.2175 -0.1793  0.2486
 1788TIP3    H126999   5.851   1.481   0.696  0.1989  1.1773 -0.1412
 1788TIP3    H227000   5.800   1.425   0.565 -1.0494 -2.3885  1.7310
 1789TIP3   OH227001   2.116   0.204   3.310  0.0249 -0.4828 -0.0776
 1789TIP3    H127002   2.058   0.129   3.326  0.5622 -0.7759  0.5185
 1789TIP3    H227003   2.068   0.258   3.247 -0.6244 -1.0337 -0.0653
 1790TIP3   OH227004   0.827   1.204   3.101  0.0250  0.0744  0.3481
 1790TIP3    H127005   0.773   1.247   3.035 -0.6874 -0.5072  0.5358
 1790TIP3    H227006   0.914   1.199   3.061 -0.6564 -1.4015 -1.1095
 1791TIP3   OH227007   4.335   2.339   1.734  0.2778  0.2898  0.5166
 1791TIP3    H127008   4.283   2.328   1.654  2.1546  2.3217 -1.0999
 1791TIP3    H227009   4.271   2.358   1.802 -1.2105  1.9680 -1.2298
 1792TIP3   OH227010   3.270   0.045   3.149 -0.0549 -0.4215 -0.1337
 1792TIP3    H127011   3.335  -0.024   3.140  0.6365  0.1861  0.0909
 1792TIP3    H227012   3.243   0.042   3.240  0.5077  0.0659  0.0529
 1793TIP3   OH227013   5.674   5.475   3.532  0.6112 -0.1487 -0.1808
 1793TIP3    H127014   5.607   5.527   3.575 -0.0265 -1.4769  0.4769
 1793TIP3    H227015   5.748   5.536   3.521 -0.5835  1.2670 -0.7256
 1794TIP3   OH227016   6.767   6.464   0.368  0.3758 -0.3286  0.0221
 1794TIP3    H127017   6.822   6.387   0.384  0.7743  0.4028  2.6754
 1794TIP3    H227018   6.818   6.518   0.307  1.4968 -0.7911  0.5215
 1795TIP3   OH227019   3.514   5.986   2.432  0.0258 -0.0391  0.3711
 1795TIP3    H127020   3.606   5.993   2.405 -0.6836  2.1809 -1.9311
 1795TIP3    H227021   3.483   5.906   2.391  0.9947 -1.0908  1.5961
 1796TIP3   OH227022   2.223   3.457   4.083  0.1466 -0.2906  0.2651
 1796TIP3    H127023   2.185   3.395   4.021 -1.3565  0.8252  0.0191
 1796TIP3    H227024   2.288   3.406   4.131 -0.8696 -1.9941 -0.0963
 1797TIP3   OH227025   5.665   6.065   3.059 -0.0893  0.6332  0.0570
 1797TIP3    H127026   5.583   6.025   3.028 -0.7873  0.4629  2.0235
 1797TIP3    H227027   5.638   6.143   3.107  0.9725  1.0033  0.0791
 1798TIP3   OH227028   5.767   3.444   1.060 -0.0454  0.0786  0.8595
 1798TIP3    H127029   5.685   3.460   1.014  1.2619  1.7841 -1.0731
 1798TIP3    H227030   5.750   3.472   1.150 -1.3573  1.1488  0.3133
 1799TIP3   OH227031   4.095   6.634   3.469 -0.0098  0.6189 -0.5891
 1799TIP3    H127032   4.157   6.706   3.483 -0.3384  1.0281 -1.2180
 1799TIP3    H227033   4.074   6.638   3.376 -1.8076  1.1539 -0.1988
 1800TIP3   OH227034   2.861   0.275   4.741  0.7316 -0.2748 -0.4047
 1800TIP3    H127035   2.871   0.368   4.720  1.4016 -0.1308  0.4764
 1800TIP3    H227036   2.841   0.234   4.657  1.4357  0.5251 -0.9848
 1801TIP3   OH227037   5.243   0.165   4.076  0.6205  0.4837 -0.8529
 1801TIP3    H127038   5.273   0.112   4.002  1.9526 -0.6020  0.4046
 1801TIP3    H227039   5.322   0.212   4.105 -0.0271  1.3941 -0.5135
 1802TIP3   OH227040   4.518   5.923   4.005 -0.5031 -0.6332 -0.0799
 1802TIP3    H127041   4.470   5.988   4.057  1.3283  0.0630  0.8543
 1802TIP3    H227042   4.519   5.959   3.917  0.5859  0.7508  0.4430
 1803TIP3   OH227043   2.740   5.713   3.389  0.1196 -0.0907  0.1172
 1803TIP3    H127044   2.810   5.704   3.323  0.1439  0.8406  0.0079
 1803TIP3    H227045   2.737   5.806   3.409 -0.6898 -0.2032  0.5749
 1804TIP3   OH227046   5.182   0.725   2.889 -0.3920 -0.0674  0.3927
 1804TIP3    H127047   5.169   0.819   2.882  1.1402  0.1921  0.8015
 1804TIP3    H227048   5.100   0.687   2.855 -0.2865  1.3543 -1.6565
 1805TIP3   OH227049   1.200   1.799   2.138  0.3639 -0.7938 -0.0368
 1805TIP3    H127050   1.107   1.778   2.125  0.4953 -0.9795 -0.6776
 1805TIP3    H227051   1.246   1.717   2.122  0.8300 -0.2088 -1.9903
 1806TIP3   OH227052   3.492   6.766   2.877  0.1735 -0.0100 -0.2844
 1806TIP3    H127053   3.525   6.681   2.904 -1.4054 -1.0161 -1.3371
 1806TIP3    H227054   3.400   6.765   2.903 -0.6249  0.1753 -2.8118
 1807TIP3   OH227055   6.659   1.442   4.574  0.0662 -0.1239  0.3923
 1807TIP3    H127056   6.700   1.518   4.532 -0.4690  0.2085  0.4568
 1807TIP3    H227057   6.719   1.419   4.646 -0.7189  1.4862  1.6373
 1808TIP3   OH227058   0.539   0.803   4.787  0.6346  0.0370 -0.3636
 1808TIP3    H127059   0.475   0.785   4.856  0.5526 -0.9657 -0.6789
 1808TIP3    H227060   0.486   0.819   4.709  0.7474 -1.3020 -0.7430
 1809TIP3   OH227061   4.525   4.007   3.147  0.0639 -0.4082 -0.2357
 1809TIP3    H127062   4.537   4.098   3.172 -3.1035 -0.0717  0.4139
 1809TIP3    H227063   4.517   3.959   3.229 -0.9062 -0.8373 -0.5649
 1810TIP3   OH227064   6.442   0.158   1.533 -0.1619  0.1343  0.1661
 1810TIP3    H127065   6.414   0.066   1.534 -0.9636  0.3780  0.2676
 1810TIP3    H227066   6.404   0.197   1.611  0.5164  0.4682  0.3454
 1811TIP3   OH227067   0.476   3.678   2.274  0.1333  0.3205  1.1697
 1811TIP3    H127068   0.489   3.725   2.192 -0.8271  0.2435  0.9716
 1811TIP3    H227069   0.490   3.744   2.342  0.5014  0.4805  0.9429
 1812TIP3   OH227070   4.990   4.950   2.734 -0.2663  0.2872 -0.0640
 1812TIP3    H127071   5.079   4.929   2.708  0.1613  1.5307  0.3222
 1812TIP3    H227072   4.935   4.914   2.664  0.6969  1.6188 -1.5770
 1813TIP3   OH227073   4.770   3.999   2.902  0.4496 -0.3952 -0.1692
 1813TIP3    H127074   4.826   3.988   2.826  0.1854  1.1652 -0.6252
 1813TIP3    H227075   4.830   4.001   2.976  1.1361  2.0315 -0.7140
 1814TIP3   OH227076   3.879   0.787   4.380  0.1842 -0.2199  0.4908
 1814TIP3    H127077   3.848   0.802   4.470 -1.4706 -0.1192 -0.0562
 1814TIP3    H227078   3.800   0.797   4.326  1.4632  1.4805 -1.1736
 1815TIP3   OH227079   5.662   6.711   4.736 -0.1471 -0.6562  0.2631
 1815TIP3    H127080   5.663   6.616   4.746  0.1583 -0.4958  2.1781
 1815TIP3    H227081   5.570   6.733   4.722 -0.7426 -1.0218  3.0279
 1816TIP3   OH227082   1.508   6.674   0.781  0.4843  0.4067 -0.4339
 1816TIP3    H127083   1.446   6.651   0.712  0.4664 -0.5604 -0.1154
 1816TIP3    H227084   1.589   6.695   0.734  0.5108 -0.3669 -0.7517
 1817TIP3   OH227085   5.762   4.724   3.953  0.3213 -0.3629 -0.0672
 1817TIP3    H127086   5.835   4.758   4.005  0.6567 -2.7649  1.1791
 1817TIP3    H227087   5.687   4.728   4.013 -0.0721  0.0404 -0.5842
 1818TIP3   OH227088   1.809   1.358   1.433 -0.3352 -0.0723 -0.4226
 1818TIP3    H127089   1.769   1.282   1.390 -1.2835  0.8111 -1.1844
 1818TIP3    H227090   1.861   1.321   1.504  0.3179 -1.5200 -1.5906
 1819TIP3   OH227091   4.367   5.352   3.434  0.1790  0.1514  0.4055
 1819TIP3    H127092   4.405   5.265   3.445  0.9077  0.0284 -2.3046
 1819TIP3    H227093   4.421   5.408   3.489 -0.4150 -1.0927  2.3405
 1820TIP3   OH227094   5.799   6.173   3.966 -0.0609  0.0342  0.3928
 1820TIP3    H127095   5.862   6.200   4.034  0.4784  1.0540 -0.4753
 1820TIP3    H227096   5.853   6.158   3.888 -0.8514  0.6696 -0.3008
 1821TIP3   OH227097   1.197   6.087   2.765 -0.0761  0.1901 -0.0750
 1821TIP3    H127098   1.154   6.169   2.740 -1.5035 -0.7209 -0.7491
 1821TIP3    H227099   1.187   6.031   2.688  0.4826 -0.7791  0.5368
 1822TIP3   OH227100   2.107   5.806   0.765  0.1559 -0.2750  0.1782
 1822TIP3    H127101   2.134   5.864   0.694 -2.0095 -0.1937 -0.6521
 1822TIP3    H227102   2.140   5.720   0.741 -0.3835 -0.2080 -0.8375
 1823TIP3   OH227103   3.455   2.190   4.678  0.3525 -0.0338 -0.6020
 1823TIP3    H127104   3.363   2.201   4.653 -0.2059 -1.4623  0.6921
 1823TIP3    H227105   3.483   2.110   4.634  0.9332  0.2721 -0.8080
 1824TIP3   OH227106   2.884   0.222   3.855  0.9651  0.1456 -0.2262
 1824TIP3    H127107   2.792   0.209   3.833  1.0279 -1.1975  0.2150
 1824TIP3    H227108   2.930   0.152   3.807  1.5737 -0.1219  0.7289
 1825TIP3   OH227109   5.978   1.461   0.138 -0.6498 -0.6513  0.2875
 1825TIP3    H127110   5.911   1.428   0.199 -0.4147 -0.8505  0.4381
 1825TIP3    H227111   5.965   1.556   0.138 -1.1801 -0.7220  0.0269
 1826TIP3   OH227112   5.009   0.957   0.742  0.1475 -0.4063 -0.0491
 1826TIP3    H127113   4.984   0.868   0.718  0.2584 -0.0958 -1.4333
 1826TIP3    H227114   4.973   1.011   0.672 -2.3838  1.0152  2.1804
 1827TIP3   OH227115   2.196   5.995   1.459 -0.6013  1.0169  0.0114
 1827TIP3    H127116   2.153   6.060   1.404  0.5845 -0.4075 -2.7700
 1827TIP3    H227117   2.128   5.929   1.474 -0.9803  1.4948  0.4535
 1828TIP3   OH227118   0.881   0.222   0.908 -0.4236 -0.2692 -0.3847
 1828TIP3    H127119   0.856   0.182   0.992  0.6143  0.0480  0.0884
 1828TIP3    H227120   0.825   0.299   0.901 -1.4808 -1.0362 -0.6521
 1829TIP3   OH227121   2.828   0.114   0.988 -0.6211  0.0957  0.4829
 1829TIP3    H127122   2.790   0.062   0.916 -0.1029  0.6289 -0.1874
 1829TIP3    H227123   2.918   0.129   0.962  0.6528 -2.5208  2.8037
 1830TIP3   OH227124   1.980   6.652   8.578 -0.0874 -0.5355 -0.0746
 1830TIP3    H127125   1.900   6.704   8.586 -0.5414 -1.1410 -0.5961
 1830TIP3    H227126   1.949   6.562   8.570  0.5591 -0.6276 -1.9687
 1831TIP3   OH227127   2.282   4.776   3.866 -0.1452 -0.5078  0.3500
 1831TIP3    H127128   2.267   4.849   3.925  1.4985  0.4504 -0.3348
 1831TIP3    H227129   2.374   4.752   3.881 -0.3419 -1.7049 -0.2281
 1832TIP3   OH227130   3.180   1.890   0.678 -0.1035 -0.2266 -0.4029
 1832TIP3    H127131   3.247   1.938   0.726 -0.7113  1.1398 -0.8722
 1832TIP3    H227132   3.108   1.879   0.740 -0.0707 -0.3005 -0.3776
 1833TIP3   OH227133   0.426   2.317   1.546 -0.7606 -0.6363  0.0969
 1833TIP3    H127134   0.485   2.254   1.589  0.2291  1.0550  1.3416
 1833TIP3    H227135   0.478   2.353   1.475 -1.5215 -1.5679 -0.9703
 1834TIP3   OH227136   0.122   4.710   2.665 -0.2999  0.4225 -0.2589
 1834TIP3    H127137   0.162   4.748   2.743 -0.7276 -0.2646  0.3077
 1834TIP3    H227138   0.148   4.768   2.594 -1.2482  1.9818  0.6180
 1835TIP3   OH227139   4.427   2.105   0.976  0.4190 -0.1490 -0.1940
 1835TIP3    H127140   4.417   2.199   0.959  0.8366  0.0750  0.7441
 1835TIP3    H227141   4.510   2.098   1.024  0.4333 -1.0078 -0.3376
 1836TIP3   OH227142   2.245   5.045   3.987  0.2240  0.4916  0.4589
 1836TIP3    H127143   2.306   5.081   3.924 -0.5647  1.0644 -0.0071
 1836TIP3    H227144   2.160   5.083   3.962  0.1540  2.1761  2.8880
 1837TIP3   OH227145   0.791   0.516   0.654  0.3318 -0.4470 -0.2512
 1837TIP3    H127146   0.865   0.487   0.600  0.0994 -0.6852 -0.4440
 1837TIP3    H227147   0.716   0.511   0.595  0.2804  0.5591 -0.3029
 1838TIP3   OH227148   2.463   5.690   1.970  0.0514  0.2624 -0.2220
 1838TIP3    H127149   2.481   5.638   1.892 -0.4279 -1.2993  0.6779
 1838TIP3    H227150   2.475   5.781   1.941  1.3592 -0.3358 -1.7102
 1839TIP3   OH227151   1.657   4.302   0.690  0.2087  0.2763 -0.3467
 1839TIP3    H127152   1.640   4.221   0.643 -0.1236 -0.0152  0.2603
 1839TIP3    H227153   1.728   4.344   0.641  0.8788 -0.7183 -0.2542
 1840TIP3   OH227154   5.014   1.737   2.317  0.2767 -0.3779 -0.0477
 1840TIP3    H127155   5.030   1.680   2.392 -0.0924 -1.8743 -1.0721
 1840TIP3    H227156   5.054   1.691   2.243 -1.5419 -0.1757 -1.2083
 1841TIP3   OH227157   3.462   4.989   2.809 -0.3284 -0.1942  0.0948
 1841TIP3    H127158   3.411   4.931   2.866 -0.1319 -0.1554  0.3114
 1841TIP3    H227159   3.470   5.071   2.859  0.6713 -0.4811  0.4251
 1842TIP3   OH227160   4.853   0.114   1.067  0.3323  0.1822 -0.7577
 1842TIP3    H127161   4.772   0.082   1.028 -1.0937  0.9326  1.4623
 1842TIP3    H227162   4.912   0.038   1.067 -0.9617 -0.8412 -0.8307
 1843TIP3   OH227163   2.039   6.302   1.885 -0.3415  0.0025  0.0817
 1843TIP3    H127164   2.052   6.397   1.893 -2.1577  0.2941 -0.0479
 1843TIP3    H227165   2.070   6.282   1.796  0.6795  0.3380  0.3464
 1844TIP3   OH227166   2.081   2.925   3.320  0.5456 -0.3397  0.2984
 1844TIP3    H127167   2.067   2.847   3.373 -2.5194 -0.3932 -0.3706
 1844TIP3    H227168   2.032   2.908   3.239 -0.5526  2.3723  0.2672
 1845TIP3   OH227169   4.849   0.623   1.529  0.4721  0.0952  0.0115
 1845TIP3    H127170   4.891   0.560   1.470  1.3398 -0.6044  1.3434
 1845TIP3    H227171   4.830   0.573   1.608  0.7794  1.4010  0.9368
 1846TIP3   OH227172   6.484   2.774   3.630  0.1471 -0.1877 -0.1558
 1846TIP3    H127173   6.516   2.691   3.595 -1.1428 -1.0330  0.6359
 1846TIP3    H227174   6.445   2.818   3.554  0.6073 -0.3990 -0.5220
 1847TIP3   OH227175   3.157   5.643   4.486  0.0867 -0.1365 -0.1397
 1847TIP3    H127176   3.136   5.598   4.568 -1.3641  1.1662  0.2520
 1847TIP3    H227177   3.136   5.579   4.418 -1.4153 -0.2845  0.4259
 1848TIP3   OH227178   6.001   4.244   3.733  0.1047  0.0071  0.6254
 1848TIP3    H127179   6.026   4.335   3.747 -1.2655  0.4854  0.1711
 1848TIP3    H227180   5.955   4.219   3.814  0.3558 -0.2332  0.6938
 1849TIP3   OH227181   0.521   6.733   1.245 -0.6471  0.5931 -0.2608
 1849TIP3    H127182   0.467   6.656   1.263 -0.4071  0.6398  0.6733
 1849TIP3    H227183   0.491   6.763   1.159 -0.5873 -0.6741 -0.7552
 1850TIP3   OH227184   1.399   5.762   2.520 -0.1966  0.3148  0.0134
 1850TIP3    H127185   1.380   5.669   2.507 -1.5804  0.6468 -0.5267
 1850TIP3    H227186   1.455   5.785   2.446 -1.1912  0.2613 -0.7859
 1851TIP3   OH227187   5.426   1.766   0.771 -0.3901  0.4235 -0.4474
 1851TIP3    H127188   5.469   1.690   0.811 -0.0504  1.0037  0.3143
 1851TIP3    H227189   5.493   1.834   0.772 -0.5775  0.6349 -1.4628
 1852TIP3   OH227190   0.352   2.936   1.222  0.4456  0.6060 -0.3865
 1852TIP3    H127191   0.266   2.979   1.218  0.9317  1.7629  0.8546
 1852TIP3    H227192   0.378   2.944   1.314  1.3152 -0.8854 -0.4845
 1853TIP3   OH227193   0.828   0.772   4.126  0.7003  0.4572  0.1101
 1853TIP3    H127194   0.746   0.819   4.140  0.3763  0.8124 -2.4832
 1853TIP3    H227195   0.896   0.831   4.156  0.1436  1.4316 -0.5081
 1854TIP3   OH227196   5.173   3.832   2.333  0.0375 -0.0915 -1.0414
 1854TIP3    H127197   5.255   3.788   2.354 -0.4501 -0.4051  0.2841
 1854TIP3    H227198   5.115   3.762   2.303 -1.4747 -0.9210  3.1683
 1855TIP3   OH227199   1.236   3.067   3.141  0.5899 -0.4329 -0.2192
 1855TIP3    H127200   1.324   3.030   3.148  0.9096 -0.1383 -2.0014
 1855TIP3    H227201   1.250   3.162   3.149  0.0676 -0.5045  2.0704
 1856TIP3   OH227202   6.516   6.559   3.372  0.3061  0.2089 -0.8004
 1856TIP3    H127203   6.509   6.643   3.419 -0.2955 -0.2952  0.0336
 1856TIP3    H227204   6.579   6.508   3.423 -1.6720 -1.0153  0.5440
 1857TIP3   OH227205   6.183   2.327   8.597 -0.4818  0.4356  0.1384
 1857TIP3    H127206   6.169   2.307   8.505 -0.5393 -0.0071  0.2410
 1857TIP3    H227207   6.095   2.334   8.634 -0.4573  0.4581  0.1939
 1858TIP3   OH227208   0.599   1.931   4.361 -0.2998 -0.2270 -0.2819
 1858TIP3    H127209   0.678   1.975   4.391 -1.7485  1.6386  1.0206
 1858TIP3    H227210   0.624   1.839   4.355  1.9389  0.2998  0.1207
 1859TIP3   OH227211   2.931   5.701   1.534  0.1922 -0.4822  0.3754
 1859TIP3    H127212   2.885   5.743   1.461  2.1849 -2.1408 -2.0105
 1859TIP3    H227213   2.867   5.640   1.570 -0.8006  0.2673 -0.0574
 1860TIP3   OH227214   3.112   6.826   1.479 -0.0066 -0.9049  0.1610
 1860TIP3    H127215   3.025   6.800   1.450 -1.3190  1.1712  1.9015
 1860TIP3    H227216   3.122   6.916   1.448  2.8696 -1.9960 -2.6196
 1861TIP3   OH227217   1.824   5.713   4.183 -0.2230  0.9254  0.0526
 1861TIP3    H127218   1.789   5.644   4.127 -2.4630  2.1504 -0.1877
 1861TIP3    H227219   1.898   5.749   4.134 -0.4374  0.1765 -0.8448
 1862TIP3   OH227220   2.214   3.863   4.333  0.6983 -0.2952  0.3308
 1862TIP3    H127221   2.307   3.877   4.314  0.3203 -0.4769 -1.8103
 1862TIP3    H227222   2.168   3.911   4.264 -0.8527  0.6918  1.9698
 1863TIP3   OH227223   4.877   5.027   0.322  0.2725  0.0584  0.3484
 1863TIP3    H127224   4.928   5.100   0.286 -0.9576  1.2036  0.8481
 1863TIP3    H227225   4.858   4.971   0.246  0.4728  0.7184 -0.1952
 1864TIP3   OH227226   2.253   0.700   2.161  0.1739 -0.0558  0.9410
 1864TIP3    H127227   2.214   0.659   2.083  0.7813  1.7109 -0.3680
 1864TIP3    H227228   2.187   0.688   2.229 -0.8296 -0.7892 -0.1038
 1865TIP3   OH227229   0.359   4.833   1.400  0.6436 -0.1462 -0.1344
 1865TIP3    H127230   0.327   4.766   1.460  2.1540  0.1131  1.0481
 1865TIP3    H227231   0.418   4.887   1.454  1.3844  0.6322 -1.6477
 1866TIP3   OH227232   5.581   4.055   3.589  0.0595  0.6035  0.6043
 1866TIP3    H127233   5.647   4.109   3.545  0.3026  0.3266  0.6204
 1866TIP3    H227234   5.498   4.093   3.563  0.2119  0.6282  0.1447
 1867TIP3   OH227235   0.600   4.301   2.381  0.5568  0.6171  0.6847
 1867TIP3    H127236   0.668   4.255   2.429 -0.3391  0.4875  1.8916
 1867TIP3    H227237   0.526   4.304   2.442 -0.4585  0.8915 -0.5221
 1868TIP3   OH227238   0.956   0.830   0.233  0.2670 -0.1616 -0.3368
 1868TIP3    H127239   1.035   0.877   0.208  1.0893 -0.8292  0.8786
 1868TIP3    H227240   0.897   0.840   0.159  1.9687 -0.7244 -1.8436
 1869TIP3   OH227241   2.468   3.181   3.662  0.1871  0.3783 -0.0499
 1869TIP3    H127242   2.480   3.111   3.598  1.8111  1.4786 -1.0392
 1869TIP3    H227243   2.394   3.231   3.630 -0.2465 -0.1999  0.0314
 1870TIP3   OH227244   4.752   1.454   2.667  0.3698 -0.6389  0.0002
 1870TIP3    H127245   4.707   1.377   2.632  1.5166 -0.6889 -1.4537
 1870TIP3    H227246   4.700   1.528   2.637  0.3376 -0.7615 -0.2442
 1871TIP3   OH227247   0.825   1.455   1.345  0.1868  0.7334  0.0853
 1871TIP3    H127248   0.813   1.488   1.434 -0.3835  0.6102  0.0576
 1871TIP3    H227249   0.772   1.512   1.290  0.9372  1.1236 -0.2495
 1872TIP3   OH227250   1.857   1.625   2.270 -0.1002 -0.1418  0.4292
 1872TIP3    H127251   1.907   1.604   2.348 -1.3752 -0.0906  1.2913
 1872TIP3    H227252   1.913   1.685   2.220  1.2221 -1.1084  0.6980
 1873TIP3   OH227253   3.125   6.358   3.950 -0.5602 -0.4087 -0.6248
 1873TIP3    H127254   3.143   6.369   3.857 -0.4743 -1.7077 -0.7833
 1873TIP3    H227255   3.208   6.329   3.988 -1.0430 -1.7141 -0.5018
 1874TIP3   OH227256   1.148   1.933   0.782  0.1411  0.1902  0.0214
 1874TIP3    H127257   1.129   1.907   0.873 -0.6443 -0.1767 -0.2338
 1874TIP3    H227258   1.093   1.876   0.729 -1.8711  2.4665 -0.5696
 1875TIP3   OH227259   3.359   0.516   2.647  0.0108 -0.8168 -0.1236
 1875TIP3    H127260   3.431   0.461   2.617  0.7325  1.2610 -2.5370
 1875TIP3    H227261   3.400   0.582   2.702 -0.2525 -0.4183 -0.4009
 1876TIP3   OH227262   5.978   5.053   1.664 -0.5225 -0.0928 -1.4183
 1876TIP3    H127263   5.960   4.962   1.688  5.1490 -1.4384 -0.8818
 1876TIP3    H227264   5.925   5.105   1.725 -0.5213 -3.2014  1.5361
 1877TIP3   OH227265   3.956   1.960   2.629 -0.1813  0.1470 -0.5456
 1877TIP3    H127266   3.921   1.910   2.703 -1.0133 -0.9194 -1.6133
 1877TIP3    H227267   3.992   2.039   2.668 -1.3294 -0.0098  0.9211
 1878TIP3   OH227268   4.450   4.627   4.895 -0.0244 -0.2277  0.1664
 1878TIP3    H127269   4.435   4.612   4.802  1.0406  0.7826 -0.1968
 1878TIP3    H227270   4.415   4.549   4.939 -2.3348  0.1552 -0.8951
 1879TIP3   OH227271   0.198   6.027   4.588 -0.2393 -0.0157  0.0087
 1879TIP3    H127272   0.180   5.949   4.640 -2.0083  0.2451 -0.1774
 1879TIP3    H227273   0.119   6.040   4.535  1.1484  0.2251 -2.1497
 1880TIP3   OH227274   1.621   0.695   0.647 -0.4389 -0.4942  0.0361
 1880TIP3    H127275   1.526   0.692   0.659 -0.3374 -2.1979  0.5613
 1880TIP3    H227276   1.634   0.763   0.581 -1.8226  1.5615  1.7415
 1881TIP3   OH227277   4.017   6.311   1.251 -0.4560  0.5917  0.0899
 1881TIP3    H127278   4.001   6.405   1.265 -1.9791  0.0771  2.2647
 1881TIP3    H227279   4.002   6.271   1.337  1.2710 -1.5393 -0.5205
 1882TIP3   OH227280   5.795   5.994   2.613 -0.4175  0.7557 -0.5227
 1882TIP3    H127281   5.866   6.019   2.672  0.0831 -1.5144 -0.1043
 1882TIP3    H227282   5.816   6.038   2.531  0.5860  1.3960  0.0483
 1883TIP3   OH227283   3.973   5.007   2.918  0.2204 -0.4737  0.0460
 1883TIP3    H127284   3.942   5.095   2.897  0.1765 -0.4956  0.0172
 1883TIP3    H227285   3.912   4.974   2.984  1.2220  0.1437  1.3063
 1884TIP3   OH227286   2.028   5.572   1.692  0.9481  0.0582  0.0556
 1884TIP3    H127287   2.080   5.651   1.680  0.7517 -0.0272 -1.5752
 1884TIP3    H227288   2.092   5.501   1.697  1.0864 -0.2151 -3.2666
 1885TIP3   OH227289   4.342   4.003   2.755  0.2768 -0.1910 -0.0039
 1885TIP3    H127290   4.281   3.930   2.742 -0.9109  0.5763  1.0139
 1885TIP3    H227291   4.403   3.972   2.821 -0.6287 -0.0661  0.9230
 1886TIP3   OH227292   3.935   5.789   1.455 -0.1528  0.0391  0.2994
 1886TIP3    H127293   3.953   5.873   1.497  0.0573 -0.5219  1.3941
 1886TIP3    H227294   3.968   5.724   1.518  0.7823 -0.8447 -1.0338
 1887TIP3   OH227295   3.486   6.451   2.357  0.0803  0.4669  0.2143
 1887TIP3    H127296   3.448   6.495   2.280  1.3013  1.4825  0.1577
 1887TIP3    H227297   3.492   6.521   2.423 -0.9078 -0.3809  1.2423
 1888TIP3   OH227298   2.748   3.454   1.271  0.3720 -0.1967  0.4732
 1888TIP3    H127299   2.718   3.491   1.188 -0.7829 -0.1204  0.8977
 1888TIP3    H227300   2.742   3.526   1.333 -0.4277 -0.6860  0.9789
 1889TIP3   OH227301   3.370   5.201   2.472 -0.2125 -0.2496 -0.0739
 1889TIP3    H127302   3.388   5.287   2.510  0.3826 -0.2506 -0.3390
 1889TIP3    H227303   3.388   5.212   2.378  1.7669 -1.1476  0.1614
 1890TIP3   OH227304   0.952   1.938   2.371 -0.4725 -0.3765  0.0348
 1890TIP3    H127305   1.041   1.932   2.406 -0.9101 -0.0461  1.2254
 1890TIP3    H227306   0.944   2.028   2.340 -0.1873 -0.5844 -0.6631
 1891TIP3   OH227307   1.306   3.263   2.853  0.4086 -0.4919  0.6525
 1891TIP3    H127308   1.392   3.239   2.821 -1.0688 -3.4219 -1.5960
 1891TIP3    H227309   1.270   3.321   2.785  0.1720 -0.2034  1.0174
 1892TIP3   OH227310   3.065   1.463   3.202  0.1147  0.5597 -0.0515
 1892TIP3    H127311   3.136   1.399   3.193  0.3108  0.8980 -0.9941
 1892TIP3    H227312   3.060   1.480   3.296  0.0729 -0.8236  0.2223
 1893TIP3   OH227313   6.213   1.848   2.838 -0.3477 -0.2118 -0.3766
 1893TIP3    H127314   6.274   1.788   2.881 -0.2858 -0.0765 -0.2761
 1893TIP3    H227315   6.156   1.791   2.786 -0.8250 -0.4267  0.3710
 1894TIP3   OH227316   3.058   4.113   3.212 -0.5690 -0.4800  0.3254
 1894TIP3    H127317   2.977   4.125   3.261 -0.7400  1.1394 -0.3063
 1894TIP3    H227318   3.051   4.172   3.137  1.8565  0.9632  1.1058
 1895TIP3   OH227319   1.345   6.345   8.770  0.3972  0.5848 -0.5175
 1895TIP3    H127320   1.397   6.266   8.756  0.1334  0.3023  0.0867
 1895TIP3    H227321   1.397   6.415   8.730  0.3373  0.0163 -1.6257
 1896TIP3   OH227322   2.159   2.933   3.904 -0.1026  0.4814  0.6264
 1896TIP3    H127323   2.144   2.888   3.987  1.0652  0.0168  0.6019
 1896TIP3    H227324   2.173   2.863   3.841  2.2738  0.8455  0.6901
 1897TIP3   OH227325   4.762   2.878   0.809 -0.1312 -0.2973  0.3739
 1897TIP3    H127326   4.849   2.918   0.811  0.2510 -1.1031  0.5311
 1897TIP3    H227327   4.736   2.881   0.717  1.0069 -1.9818 -0.0411
 1898TIP3   OH227328   0.189   0.023   3.538 -0.0814  0.1500  0.7727
 1898TIP3    H127329   0.106   0.041   3.582  0.0518  0.8857  0.7348
 1898TIP3    H227330   0.239   0.104   3.547 -0.3712  0.6299 -1.4697
 1899TIP3   OH227331   6.751   3.074   4.685 -0.2500 -1.0804  0.4133
 1899TIP3    H127332   6.707   3.043   4.764 -1.1798  0.1138  0.3903
 1899TIP3    H227333   6.699   3.150   4.657  0.8222 -0.7023 -0.6105
 1900TIP3   OH227334   4.781   0.549   3.390 -0.6623 -0.2684  0.1326
 1900TIP3    H127335   4.790   0.586   3.478 -0.1843 -1.9250  0.8020
 1900TIP3    H227336   4.774   0.455   3.403  0.1895 -0.6296 -1.6547
 1901TIP3   OH227337   3.890   5.448   4.137  0.4168 -0.1510 -0.3582
 1901TIP3    H127338   3.953   5.390   4.094 -0.1418 -1.0905  0.0387
 1901TIP3    H227339   3.882   5.523   4.078 -1.0034 -1.7942 -2.4241
 1902TIP3   OH227340   5.556   3.224   0.824  0.4017 -0.2654  0.0434
 1902TIP3    H127341   5.553   3.167   0.901  0.3227 -2.8557 -1.7427
 1902TIP3    H227342   5.534   3.166   0.750  1.7802  1.7662 -2.1147
 1903TIP3   OH227343   1.796   0.176   3.224 -0.1019  0.2177 -0.2711
 1903TIP3    H127344   1.730   0.195   3.291  1.1222 -0.2593  1.1408
 1903TIP3    H227345   1.832   0.091   3.250  1.1049  0.5015 -0.9501
 1904TIP3   OH227346   5.754   3.161   3.689 -0.3099 -0.1288 -0.6811
 1904TIP3    H127347   5.782   3.251   3.675 -1.7016  0.1408 -1.9582
 1904TIP3    H227348   5.727   3.130   3.603  0.7160 -1.9908 -0.3770
 1905TIP3   OH227349   0.936   1.970   4.108  0.0029 -0.7598  0.0553
 1905TIP3    H127350   1.026   1.949   4.133  0.9885 -0.7116 -3.1011
 1905TIP3    H227351   0.899   1.887   4.078  0.3944 -0.1195 -2.4106
 1906TIP3   OH227352   2.779   1.964   3.237  0.4086 -0.2845 -0.3739
 1906TIP3    H127353   2.705   2.023   3.249  1.3382  0.6903  0.8464
 1906TIP3    H227354   2.764   1.894   3.301  0.4960 -0.1288 -0.1824
 1907TIP3   OH227355   6.500   3.622   1.451  0.2451  0.2753  0.2356
 1907TIP3    H127356   6.538   3.536   1.437 -0.4032  0.0338 -0.0826
 1907TIP3    H227357   6.512   3.668   1.367 -0.3591  0.1198  0.0638
 1908TIP3   OH227358   6.300   3.364   0.289  0.3417 -0.0153 -0.1801
 1908TIP3    H127359   6.382   3.357   0.241 -0.5321 -0.3024 -1.6818
 1908TIP3    H227360   6.232   3.343   0.225 -0.8843 -0.3621  1.1661
 1909TIP3   OH227361   3.213   5.232   2.782  0.4840 -0.1726 -0.2124
 1909TIP3    H127362   3.159   5.157   2.759 -1.3040  1.0746 -0.2656
 1909TIP3    H227363   3.188   5.254   2.871  2.4761 -0.8306  0.5752
 1910TIP3   OH227364   0.059   4.084   1.897  0.2835 -0.6382 -0.1314
 1910TIP3    H127365   0.149   4.087   1.864  0.4576 -3.5811 -0.1834
 1910TIP3    H227366   0.005   4.071   1.819 -0.1971  0.8445 -0.0701
 1911TIP3   OH227367   5.952   2.697   5.165  0.3929 -0.3476  0.1369
 1911TIP3    H127368   5.979   2.779   5.124 -2.2277  0.6468  0.2082
 1911TIP3    H227369   5.901   2.652   5.097  0.4788 -1.1900  0.6112
 1912TIP3   OH227370   5.899   5.692   1.878  0.4684  0.2589 -0.3591
 1912TIP3    H127371   5.812   5.660   1.858  0.3733 -0.3223  0.8747
 1912TIP3    H227372   5.958   5.634   1.830  0.2424 -0.8871  0.6853
 1913TIP3   OH227373   6.195   0.229   1.708  0.3088  0.3232  0.9063
 1913TIP3    H127374   6.111   0.268   1.734 -1.0762 -1.2995 -0.8605
 1913TIP3    H227375   6.172   0.165   1.641  3.1563  0.9437 -0.8236
 1914TIP3   OH227376   1.944   4.516   1.933  0.4796 -0.2393 -0.5062
 1914TIP3    H127377   1.978   4.543   2.019  1.5888 -1.4093 -0.5487
 1914TIP3    H227378   2.005   4.555   1.870  0.8883 -1.0805 -0.6505
 1915TIP3   OH227379   0.382   3.591   3.775  0.0499 -0.0131 -0.0748
 1915TIP3    H127380   0.344   3.549   3.852  4.3222  1.2805  3.0909
 1915TIP3    H227381   0.423   3.519   3.727 -0.5804 -0.5301  0.1395
 1916TIP3   OH227382   6.103   3.282   2.802  0.1084  0.0422  0.3473
 1916TIP3    H127383   6.055   3.252   2.879 -1.7261 -0.7396 -1.0125
 1916TIP3    H227384   6.061   3.365   2.779 -0.3667 -0.4516 -0.6311
 1917TIP3   OH227385   3.705   2.668   0.552 -0.0312 -0.5481 -0.3062
 1917TIP3    H127386   3.794   2.682   0.585 -1.0982  0.7590  2.2948
 1917TIP3    H227387   3.668   2.756   0.545 -1.7071 -1.1452  0.4549
 1918TIP3   OH227388   0.545   3.945   4.535  0.3746  0.1379  0.1550
 1918TIP3    H127389   0.576   3.923   4.447 -0.9317  0.8595 -0.5193
 1918TIP3    H227390   0.614   3.915   4.593  0.9259 -1.0548 -1.0628
 1919TIP3   OH227391   5.323   2.853   0.020  0.4762  0.9498  0.1349
 1919TIP3    H127392   5.339   2.830   0.112 -0.3558  0.8417  0.2650
 1919TIP3    H227393   5.380   2.794  -0.029 -0.6922 -0.5504  0.5130
 1920TIP3   OH227394   6.682   3.878   0.510  0.3953 -0.2610  0.6301
 1920TIP3    H127395   6.733   3.866   0.590 -0.0842 -1.5666  0.7638
 1920TIP3    H227396   6.593   3.853   0.535  0.0325  0.3029 -0.0549
 1921TIP3   OH227397   1.906   5.714   1.916 -0.2012  0.1045  0.0246
 1921TIP3    H127398   1.919   5.636   1.861  1.2745 -0.8219  1.5927
 1921TIP3    H227399   1.928   5.787   1.858  1.8613 -0.8651 -0.5244
 1922TIP3   OH227400   4.287   2.721   2.388 -0.1748  0.0716  0.2310
 1922TIP3    H127401   4.358   2.711   2.452  0.4985  1.2553 -0.2885
 1922TIP3    H227402   4.327   2.696   2.304 -0.2613  1.0271 -0.1101
 1923TIP3   OH227403   5.393   6.323   4.072 -0.1161  0.1928 -0.0901
 1923TIP3    H127404   5.318   6.352   4.020 -0.0189 -0.8748 -0.8624
 1923TIP3    H227405   5.385   6.371   4.155  0.4347  2.9391 -1.5065
 1924TIP3   OH227406   4.117   1.085   0.302 -0.1594 -0.3250 -0.0846
 1924TIP3    H127407   4.043   1.131   0.264  0.6620 -0.0790 -1.4664
 1924TIP3    H227408   4.104   0.993   0.275  1.2188  0.0745 -2.4623
 1925TIP3   OH227409   6.659   6.490   1.750 -0.6311 -0.9008  0.0944
 1925TIP3    H127410   6.576   6.470   1.706  0.0637 -3.5400 -0.1776
 1925TIP3    H227411   6.713   6.412   1.735  0.8806 -0.4502  2.7133
 1926TIP3   OH227412   6.527   3.177   4.569  0.0108  0.6250 -0.0772
 1926TIP3    H127413   6.467   3.251   4.562 -1.7528 -0.6343  0.7038
 1926TIP3    H227414   6.514   3.127   4.488  1.2451  1.1686 -0.6352
 1927TIP3   OH227415   4.491   1.398   4.631  0.3927 -0.3243 -0.0576
 1927TIP3    H127416   4.507   1.465   4.565  2.2718  0.7437  1.3969
 1927TIP3    H227417   4.577   1.359   4.647  0.0886 -0.2035  2.0997
 1928TIP3   OH227418   6.384   1.371   0.224  0.0529  0.5835 -0.2432
 1928TIP3    H127419   6.425   1.445   0.178  2.8841  0.2669  1.4865
 1928TIP3    H227420   6.422   1.375   0.312 -1.8233 -1.3594  0.7199
 1929TIP3   OH227421   3.863   1.908   3.216  0.1274  0.0252  0.3912
 1929TIP3    H127422   3.907   1.863   3.143  0.7241  1.6063 -0.2577
 1929TIP3    H227423   3.778   1.863   3.223 -0.1699  0.1500 -1.6235
 1930TIP3   OH227424   2.003   3.691   2.418  0.0932  0.5415 -0.3927
 1930TIP3    H127425   1.955   3.611   2.394  1.4025 -0.3294 -0.2417
 1930TIP3    H227426   2.094   3.662   2.425  0.2760  1.4662  2.2499
 1931TIP3   OH227427   0.966   2.944   2.348 -0.2020 -0.2999  0.3520
 1931TIP3    H127428   1.005   2.883   2.286 -0.0960  0.3045 -0.1913
 1931TIP3    H227429   1.039   3.001   2.373 -1.0286  2.0835 -2.1481
 1932TIP3   OH227430   6.169   3.274   4.296 -0.0539  0.1464  0.5582
 1932TIP3    H127431   6.260   3.301   4.286  0.2417 -0.2685  1.9329
 1932TIP3    H227432   6.154   3.275   4.391 -1.1083 -0.9960  0.4283
 1933TIP3   OH227433   5.483   1.101   3.277  0.4561 -0.5068 -0.4711
 1933TIP3    H127434   5.498   1.164   3.348  0.6445  0.3600 -1.2618
 1933TIP3    H227435   5.516   1.145   3.198  0.3849 -1.5102 -1.0793
 1934TIP3   OH227436   0.285   5.346   1.730 -0.0363 -0.6654  0.6313
 1934TIP3    H127437   0.213   5.400   1.697  0.9948  1.1765  1.2659
 1934TIP3    H227438   0.343   5.335   1.654  0.1818 -0.1104  0.7103
 1935TIP3   OH227439   5.794   2.502   0.498  0.2191 -0.2192  0.5613
 1935TIP3    H127440   5.785   2.597   0.500  0.3204 -0.1838 -0.3374
 1935TIP3    H227441   5.872   2.486   0.444 -0.2018 -0.8354  0.1245
 1936TIP3   OH227442   6.577   2.934   1.789 -0.3615  0.4094  0.4341
 1936TIP3    H127443   6.666   2.969   1.788 -0.5018  0.7757 -0.5262
 1936TIP3    H227444   6.589   2.841   1.810  0.1675  0.6336  1.1751
 1937TIP3   OH227445   2.729   6.368   1.960  0.4157  0.5234  0.1756
 1937TIP3    H127446   2.808   6.340   2.007  0.9362  0.9610 -0.4276
 1937TIP3    H227447   2.688   6.432   2.018  0.5147  0.3105  0.4833
 1938TIP3   OH227448   2.817   6.743   1.662  0.2488  0.2421  0.2360
 1938TIP3    H127449   2.833   6.749   1.568 -1.6526  0.2079 -0.1259
 1938TIP3    H227450   2.886   6.685   1.695  0.9257  0.2439 -1.1268
 1939TIP3   OH227451   4.219   1.865   2.168  0.2056 -0.1353 -0.3689
 1939TIP3    H127452   4.173   1.936   2.124  0.0492 -0.9605 -1.6153
 1939TIP3    H227453   4.189   1.868   2.258 -1.9132 -0.2977 -1.0202
 1940TIP3   OH227454   0.928   0.828   3.867  0.3685  0.2091 -0.1116
 1940TIP3    H127455   0.911   0.915   3.905 -0.1551  1.0007 -2.0033
 1940TIP3    H227456   0.860   0.772   3.904  0.5000  0.6876  0.8734
 1941TIP3   OH227457   0.741   4.838   3.390 -0.2774 -0.6756  0.5389
 1941TIP3    H127458   0.769   4.901   3.323  0.9149 -0.4684  1.2108
 1941TIP3    H227459   0.675   4.785   3.346  0.6673 -0.7310 -0.9012
 1942TIP3   OH227460   1.422   2.446   0.649 -0.6693  0.3589  0.0025
 1942TIP3    H127461   1.472   2.463   0.569 -3.7544  2.3495 -1.7304
 1942TIP3    H227462   1.410   2.533   0.688 -1.3097 -0.2746  1.2816
 1943TIP3   OH227463   1.109   5.662   0.354  0.0263 -0.2816  0.0142
 1943TIP3    H127464   1.044   5.662   0.423 -0.4131 -0.1842 -0.3965
 1943TIP3    H227465   1.152   5.577   0.362  1.3732  0.4880  1.6892
 1944TIP3   OH227466   0.902   2.792   0.227  0.3754 -0.3454 -0.2340
 1944TIP3    H127467   0.907   2.834   0.141  0.5144  2.4627  1.0169
 1944TIP3    H227468   0.809   2.777   0.241  0.3377 -0.6446 -0.8006
 1945TIP3   OH227469   1.323   4.780   4.985  0.3211  0.1386 -0.5233
 1945TIP3    H127470   1.407   4.762   5.026  1.5087  0.9371 -2.4932
 1945TIP3    H227471   1.306   4.704   4.929 -1.1056 -0.7675  1.0332
 1946TIP3   OH227472   6.506   0.974   2.104  0.0502 -0.1839  0.1700
 1946TIP3    H127473   6.528   0.888   2.068  1.7268  0.5592 -0.6973
 1946TIP3    H227474   6.590   1.010   2.133 -0.4867  1.4736 -0.2214
 1947TIP3   OH227475   0.041   3.559   2.991 -0.1038  0.4247  0.2268
 1947TIP3    H127476   0.042   3.604   2.907  0.4984 -2.1674 -1.2430
 1947TIP3    H227477  -0.047   3.523   2.999  0.3129 -0.7051 -0.0989
 1948TIP3   OH227478   4.099   1.450   3.040 -0.5201 -0.1447 -0.2135
 1948TIP3    H127479   4.093   1.544   3.056 -0.5791  0.3215 -2.6571
 1948TIP3    H227480   4.192   1.431   3.043 -0.4569  0.1301 -0.3545
 1949TIP3   OH227481   0.327   3.215   0.674 -0.5720  0.1770 -0.0202
 1949TIP3    H127482   0.342   3.160   0.598 -0.0103  0.8978 -0.4419
 1949TIP3    H227483   0.412   3.224   0.715 -0.8279 -0.0047  0.5614
 1950TIP3   OH227484   1.983   6.602   4.070 -0.1087  0.1721  0.2194
 1950TIP3    H127485   2.048   6.610   4.139  0.4456 -0.6387 -0.1937
 1950TIP3    H227486   1.935   6.685   4.071 -0.4233 -0.0019  1.8843
 1951TIP3   OH227487   5.146   1.110   1.145  0.2982  0.1438  0.6029
 1951TIP3    H127488   5.145   1.016   1.164  0.8344 -0.2557 -1.1661
 1951TIP3    H227489   5.062   1.128   1.105  0.4244  0.2982  0.4029
 1952TIP3   OH227490   5.855   1.223   1.857 -0.2177  0.2406 -0.2406
 1952TIP3    H127491   5.775   1.202   1.808  0.1371  0.6510 -0.9915
 1952TIP3    H227492   5.835   1.306   1.900 -0.4331  0.0087  0.1177
 1953TIP3   OH227493   2.777   6.692   3.063 -0.3590  0.3040 -0.1225
 1953TIP3    H127494   2.851   6.653   3.109 -0.3151  0.4273 -0.0882
 1953TIP3    H227495   2.809   6.778   3.035 -0.1615 -0.0327 -0.9594
 1954TIP3   OH227496   1.322   2.723   3.896  0.0410  0.4884 -0.1243
 1954TIP3    H127497   1.401   2.770   3.869  0.2774  0.1838  0.0353
 1954TIP3    H227498   1.291   2.771   3.973  1.1547 -0.5258  0.9884
 1955TIP3   OH227499   6.226   4.419   4.755  0.2606  0.3333  0.7224
 1955TIP3    H127500   6.300   4.361   4.773  1.5971  1.4503 -0.9864
 1955TIP3    H227501   6.213   4.466   4.838  0.3991 -0.9772  1.5286
 1956TIP3   OH227502   0.344   0.510   2.966 -0.2790  0.3395 -1.1893
 1956TIP3    H127503   0.350   0.542   3.056 -0.3560  0.6013 -1.2751
 1956TIP3    H227504   0.297   0.427   2.973 -1.5996  1.0670 -1.1463
 1957TIP3   OH227505   3.834   1.556   2.645 -0.2751  0.4457 -0.3251
 1957TIP3    H127506   3.739   1.566   2.632 -0.4727 -1.6704 -0.8282
 1957TIP3    H227507   3.853   1.609   2.723 -1.7461  1.4012 -0.5721
 1958TIP3   OH227508   6.648   2.817   4.254 -0.5400 -0.8628  0.0214
 1958TIP3    H127509   6.687   2.734   4.283 -0.7888 -1.1344 -0.4080
 1958TIP3    H227510   6.554   2.805   4.269 -0.5576 -0.5775  0.1480
 1959TIP3   OH227511   6.705   4.497   4.723 -0.3521 -0.6293  0.3113
 1959TIP3    H127512   6.788   4.478   4.679 -0.0365 -0.2198  0.7199
 1959TIP3    H227513   6.730   4.521   4.813 -0.8889 -0.2793  0.3757
 1960TIP3   OH227514   4.297   0.257   1.426 -0.1897 -0.0114 -0.3471
 1960TIP3    H127515   4.357   0.188   1.456  2.3329  2.3434  0.4403
 1960TIP3    H227516   4.350   0.310   1.367 -1.6831  1.8788 -0.0627
 1961TIP3   OH227517   2.609   4.324   2.923 -0.9934  0.2857  0.2337
 1961TIP3    H127518   2.590   4.358   3.010 -1.0658 -0.3973  0.4860
 1961TIP3    H227519   2.606   4.402   2.866 -0.3888  0.8204  0.9183
 1962TIP3   OH227520   0.103   2.086   3.956 -0.0577 -0.5540 -0.0377
 1962TIP3    H127521   0.151   2.132   4.024  0.1887  0.5314 -0.9162
 1962TIP3    H227522   0.129   1.994   3.966  0.0605 -0.4011  1.2350
 1963TIP3   OH227523   2.186   0.085   3.933  0.2539 -0.0918  0.0821
 1963TIP3    H127524   2.274   0.106   3.902  0.4798 -2.1390 -0.8024
 1963TIP3    H227525   2.199   0.016   3.998 -0.6733 -0.1008  0.2741
 1964TIP3   OH227526   4.511   2.533   8.566 -0.2623  0.4526  0.0408
 1964TIP3    H127527   4.423   2.507   8.538 -0.5452 -0.0089  1.2935
 1964TIP3    H227528   4.533   2.472   8.636  0.2277  1.8380  1.1427
 1965TIP3   OH227529   0.606   5.050   1.472  0.5230 -0.6592 -0.2253
 1965TIP3    H127530   0.650   4.965   1.471  0.9285 -0.4458 -1.2653
 1965TIP3    H227531   0.673   5.111   1.503  0.8357 -0.4042 -1.3895
 1966TIP3   OH227532   3.085   3.996   3.939 -0.3997 -0.3086 -0.2034
 1966TIP3    H127533   3.159   3.962   3.888 -0.1432  1.9552 -1.4559
 1966TIP3    H227534   3.116   4.081   3.971 -1.6512 -0.3704  1.2401
 1967TIP3   OH227535   1.980   3.749   3.353 -0.6131 -0.2814 -0.1801
 1967TIP3    H127536   1.915   3.680   3.340  0.8075 -1.6133 -0.5686
 1967TIP3    H227537   1.930   3.824   3.385 -2.3651 -1.1368 -0.7878
 1968TIP3   OH227538   2.970   0.606   4.257  0.4204  0.0341 -0.1251
 1968TIP3    H127539   3.036   0.660   4.214  0.5250  0.0435  0.0496
 1968TIP3    H227540   3.010   0.579   4.339  0.1916  0.0786  0.0022
 1969TIP3   OH227541   3.712   0.467   4.306 -0.1118 -0.5108  0.3302
 1969TIP3    H127542   3.689   0.551   4.344  0.8734  0.0955 -0.3602
 1969TIP3    H227543   3.704   0.405   4.378  1.7852  0.5980  1.5938
 1970TIP3   OH227544   1.417   4.364   1.216  0.5816 -0.1409  0.2726
 1970TIP3    H127545   1.440   4.456   1.203 -1.2164  0.5495  1.4805
 1970TIP3    H227546   1.413   4.327   1.128 -1.6794  1.7825 -0.5512
 1971TIP3   OH227547   4.501   3.361   3.782 -0.2506  0.0649 -0.5088
 1971TIP3    H127548   4.484   3.292   3.717 -0.4228  0.4120 -0.8333
 1971TIP3    H227549   4.424   3.416   3.779  0.1515  0.6231 -0.6845
 1972TIP3   OH227550   5.834   5.264   1.210 -0.0517  0.3421  0.4854
 1972TIP3    H127551   5.795   5.336   1.259  1.5374  0.2057  2.0924
 1972TIP3    H227552   5.886   5.217   1.275  1.7343 -0.2015 -1.2305
 1973TIP3   OH227553   6.541   2.631   2.730 -0.1452  0.0926  0.2798
 1973TIP3    H127554   6.582   2.587   2.656  0.0239  0.0269  0.4117
 1973TIP3    H227555   6.605   2.698   2.757  0.1800 -0.4512  0.9109
 1974TIP3   OH227556   1.406   3.405   0.737 -0.0423 -0.6686 -0.1184
 1974TIP3    H127557   1.340   3.474   0.728  1.2853  0.6621 -0.0476
 1974TIP3    H227558   1.483   3.441   0.695  0.6589 -2.1882 -0.1788
 1975TIP3   OH227559   2.563   4.252   4.192 -0.6648 -0.3911 -0.3082
 1975TIP3    H127560   2.631   4.237   4.126 -0.9991 -1.2025 -0.4803
 1975TIP3    H227561   2.604   4.223   4.274  0.1060  1.5314  0.0422
 1976TIP3   OH227562   1.276   2.288   3.440 -0.9090 -0.1251  0.0838
 1976TIP3    H127563   1.329   2.315   3.365  1.4262 -1.7897  1.0232
 1976TIP3    H227564   1.189   2.322   3.421 -0.0110  0.9590 -2.5481
 1977TIP3   OH227565   4.280   2.102   3.320 -0.6718 -0.0309  0.3586
 1977TIP3    H127566   4.371   2.079   3.340  0.5896  3.1502 -0.9470
 1977TIP3    H227567   4.234   2.091   3.403  0.3323 -3.6924  0.5874
 1978TIP3   OH227568   2.162   3.724   4.032  0.0902  0.4910  0.0782
 1978TIP3    H127569   2.187   3.637   4.062  1.2909  1.4847  2.2522
 1978TIP3    H227570   2.202   3.732   3.946 -0.5178 -1.2765 -0.4126
 1979TIP3   OH227571   4.195   3.781   2.653 -0.0081 -0.4483  0.6393
 1979TIP3    H127572   4.265   3.720   2.630  1.5505  1.0894  1.0417
 1979TIP3    H227573   4.138   3.731   2.711  0.9854 -1.6419  0.6344
 1980TIP3   OH227574   3.376   4.866   8.786  0.2409 -0.4154 -0.2724
 1980TIP3    H127575   3.330   4.782   8.794  0.0081 -0.4003 -1.2545
 1980TIP3    H227576   3.374   4.903   8.873  1.8620 -2.2020  0.6198
 1981TIP3   OH227577   4.464   6.003   4.475 -0.2737 -0.5115 -0.2270
 1981TIP3    H127578   4.370   6.014   4.490 -0.0041 -0.3258  1.5877
 1981TIP3    H227579   4.469   5.946   4.399 -1.8081  2.4478 -2.7973
 1982TIP3   OH227580   4.758   6.406   1.453  0.7587  0.4315 -0.0560
 1982TIP3    H127581   4.679   6.356   1.472  1.0601  0.8168  2.5848
 1982TIP3    H227582   4.830   6.351   1.484  1.4271  0.7518 -0.9894
 1983TIP3   OH227583   3.479   6.693   0.963 -0.3649 -0.1258  0.0073
 1983TIP3    H127584   3.510   6.743   1.039  0.1344 -0.8613  0.2998
 1983TIP3    H227585   3.444   6.612   1.000 -2.1392  0.4213 -0.3700
 1984TIP3   OH227586   4.488   0.979   2.119  0.3487 -0.2129 -0.0065
 1984TIP3    H127587   4.566   0.998   2.171  0.1601 -1.0620  0.6229
 1984TIP3    H227588   4.415   0.987   2.182 -0.0764  0.5613 -0.5811
 1985TIP3   OH227589   6.583   3.695   3.531 -0.3342 -0.1796 -0.1867
 1985TIP3    H127590   6.642   3.626   3.562  0.2791 -0.2987 -1.5171
 1985TIP3    H227591   6.541   3.656   3.453 -0.7739  0.5825 -0.3391
 1986TIP3   OH227592   1.009   4.853   2.855 -0.0834 -0.9144  0.4525
 1986TIP3    H127593   1.006   4.917   2.926 -2.2949  0.1171 -0.4738
 1986TIP3    H227594   1.091   4.807   2.868  0.4167  0.4365  2.6229
 1987TIP3   OH227595   6.650   6.061   1.594 -0.0660  0.3129  0.0737
 1987TIP3    H127596   6.706   6.061   1.517  0.7975  0.3228  0.6886
 1987TIP3    H227597   6.576   6.004   1.571 -1.0112  2.0742 -1.5916
 1988TIP3   OH227598   5.600   1.341   4.741 -0.4967  0.5819 -0.0409
 1988TIP3    H127599   5.528   1.346   4.678 -1.4587  1.0734  1.0598
 1988TIP3    H227600   5.558   1.353   4.827  0.7073 -0.5839  0.7480
 1989TIP3   OH227601   6.550   0.586   0.180  0.2309 -0.0965 -0.1905
 1989TIP3    H127602   6.631   0.619   0.140  2.5226 -2.6876  1.9125
 1989TIP3    H227603   6.531   0.505   0.132 -1.0485  0.3393 -0.4766
 1990TIP3   OH227604   2.501   3.787   1.837  0.3938 -0.8904 -0.0899
 1990TIP3    H127605   2.560   3.745   1.899  0.9558 -0.8278 -0.5690
 1990TIP3    H227606   2.536   3.764   1.751 -0.2441 -0.7936 -0.3806
 1991TIP3   OH227607   5.062   4.909   3.032  0.5104  0.6758 -0.4770
 1991TIP3    H127608   5.036   4.992   2.993  0.7010  1.5754  1.2214
 1991TIP3    H227609   5.157   4.918   3.045  0.6901 -0.1835 -1.1051
 1992TIP3   OH227610   4.066   2.512   2.375 -0.3215  0.4693  0.5649
 1992TIP3    H127611   4.023   2.595   2.396 -0.4138  0.3742  0.7495
 1992TIP3    H227612   4.131   2.500   2.445  0.8411  1.2091 -0.3478
 1993TIP3   OH227613   6.810   6.143   2.860  0.2130 -0.1679 -0.0093
 1993TIP3    H127614   6.890   6.168   2.813  0.3071  1.0818  0.7811
 1993TIP3    H227615   6.794   6.053   2.833  3.3513 -1.4352  1.7133
 1994TIP3   OH227616   6.646   2.383   2.006 -0.5944 -0.4549  0.7505
 1994TIP3    H127617   6.562   2.409   2.045 -0.5808  1.6300 -0.4582
 1994TIP3    H227618   6.711   2.435   2.053 -0.1153 -1.0701  0.7752
 1995TIP3   OH227619   5.143   0.606   2.555  0.2300  0.7681  0.2438
 1995TIP3    H127620   5.120   0.687   2.601 -0.7127  0.9914 -0.5785
 1995TIP3    H227621   5.169   0.635   2.468 -0.6744  0.1563 -0.2448
 1996TIP3   OH227622   1.961   3.674   4.465  0.1689 -0.2599 -0.5860
 1996TIP3    H127623   1.870   3.684   4.491  0.2267  0.2990 -0.5843
 1996TIP3    H227624   1.984   3.584   4.488  0.3003  0.2704  1.5259
 1997TIP3   OH227625   6.247   3.454   2.534  0.5701  0.0896 -0.0671
 1997TIP3    H127626   6.152   3.440   2.536  0.7334 -1.0178  0.3600
 1997TIP3    H227627   6.258   3.548   2.552 -0.3806 -0.0455  1.3594
 1998TIP3   OH227628   4.810   3.256   0.253  0.1051 -0.0406  0.3816
 1998TIP3    H127629   4.833   3.168   0.222 -0.4128 -0.1101  0.1754
 1998TIP3    H227630   4.763   3.296   0.180  2.2745  1.2690 -0.3993
 1999TIP3   OH227631   4.045   6.677   4.282  0.1851  0.4171  0.8893
 1999TIP3    H127632   3.984   6.741   4.244  1.0049  1.0096  0.5114
 1999TIP3    H227633   4.001   6.593   4.273  0.8316  0.2709 -2.7503
 2000TIP3   OH227634   5.719   2.094   3.986 -0.3205 -0.4437  0.0227
 2000TIP3    H127635   5.626   2.078   3.969 -0.8693  0.1464  2.1548
 2000TIP3    H227636   5.733   2.185   3.958 -0.3772 -0.5314 -0.2960
 2001TIP3   OH227637   4.107   0.123   1.231  0.3235 -0.1678 -0.3924
 2001TIP3    H127638   4.153   0.176   1.297  1.7009 -0.5638 -0.9939
 2001TIP3    H227639   4.016   0.124   1.259  0.8834 -0.4570  1.6440
 2002TIP3   OH227640   3.391   3.879   4.198  0.2799 -0.1705  0.4787
 2002TIP3    H127641   3.311   3.828   4.217 -0.4231  0.7576  0.1004
 2002TIP3    H227642   3.372   3.967   4.230 -0.2293  0.9723 -2.5862
 2003TIP3   OH227643   0.810   6.005   2.161  0.5043  0.2241 -0.3575
 2003TIP3    H127644   0.734   5.958   2.193 -0.1530  1.1730 -0.4717
 2003TIP3    H227645   0.802   6.002   2.066 -0.0387  1.3137 -0.3626
 2004TIP3   OH227646   3.430   2.923   3.261  0.0881 -0.7908 -0.3294
 2004TIP3    H127647   3.407   2.910   3.353 -0.3845 -0.5925 -0.4147
 2004TIP3    H227648   3.346   2.920   3.215  0.2307 -0.0972 -0.6530
 2005TIP3   OH227649   1.682   2.180   0.523 -1.2908  0.3230  0.5558
 2005TIP3    H127650   1.656   2.256   0.472 -1.4673  0.1990  0.4601
 2005TIP3    H227651   1.740   2.131   0.465 -1.5340  0.1546  0.4529
 2006TIP3   OH227652   1.462   2.997   0.819  0.1720 -0.1857 -0.2724
 2006TIP3    H127653   1.398   3.047   0.870 -0.5609  0.6909 -1.9561
 2006TIP3    H227654   1.442   3.019   0.728 -1.8403 -5.3669 -1.4355
 2007TIP3   OH227655   2.518   3.925   3.690 -0.2250 -0.7837  0.3745
 2007TIP3    H127656   2.518   3.889   3.601  1.3288 -2.4052  0.9595
 2007TIP3    H227657   2.604   3.967   3.698 -1.4588  1.9844  0.1997
 2008TIP3   OH227658   4.132   2.762   3.121  0.4030  0.4694  0.0068
 2008TIP3    H127659   4.196   2.803   3.180  0.0096 -0.1928  0.9119
 2008TIP3    H227660   4.047   2.795   3.151  0.1786 -0.0955 -0.0081
 2009TIP3   OH227661   2.129   1.157   0.400  0.5459 -0.0515  0.1497
 2009TIP3    H127662   2.185   1.085   0.375 -0.8760 -1.0191 -0.3998
 2009TIP3    H227663   2.106   1.200   0.318 -2.5164 -2.0172 -0.2182
 2010TIP3   OH227664   4.445   2.292   2.298  0.4561  0.3179  0.3880
 2010TIP3    H127665   4.491   2.284   2.215 -1.4574 -0.1301 -0.6911
 2010TIP3    H227666   4.378   2.223   2.296 -1.1183  1.7267  1.2532
 2011TIP3   OH227667   4.266   0.155   3.000 -0.5442  0.0169 -0.4228
 2011TIP3    H127668   4.199   0.090   3.022  0.2415  0.2539  3.4746
 2011TIP3    H227669   4.312   0.117   2.925 -2.2252 -2.2958 -0.4054
 2012TIP3   OH227670   6.128   2.977   0.792 -0.4663 -0.4671  0.7503
 2012TIP3    H127671   6.126   2.899   0.736  0.7197  1.1476 -1.6876
 2012TIP3    H227672   6.218   2.983   0.822  0.6800  2.1582 -2.6048
 2013TIP3   OH227673   3.212   6.076   2.329 -0.1063  0.3031  0.4135
 2013TIP3    H127674   3.236   6.020   2.403 -1.1996 -1.5010 -0.5270
 2013TIP3    H227675   3.295   6.109   2.295  0.4781  0.2458  1.7414
 2014TIP3   OH227676   0.454   5.279   3.278  0.3482  0.7717  0.0940
 2014TIP3    H127677   0.468   5.311   3.367  2.1972  0.4726 -0.0526
 2014TIP3    H227678   0.527   5.314   3.227  0.6184 -0.9393 -0.7777
 2015TIP3   OH227679   3.230   6.648   3.527 -0.2305 -0.0880 -0.0994
 2015TIP3    H127680   3.191   6.734   3.518  0.2283  0.1295 -0.0500
 2015TIP3    H227681   3.324   6.665   3.540 -0.3514 -0.5194  1.5584
 2016TIP3   OH227682   5.424   2.387   2.821  0.7911  0.2884  0.0764
 2016TIP3    H127683   5.502   2.333   2.808  0.5144  0.3790 -2.3480
 2016TIP3    H227684   5.455   2.477   2.810  0.1736  0.2674 -2.2717
 2017TIP3   OH227685   0.471   6.647   4.078  0.4651 -0.0500 -0.2993
 2017TIP3    H127686   0.401   6.649   4.012 -0.4496 -0.0948  0.6468
 2017TIP3    H227687   0.537   6.707   4.044 -0.8000  1.3602 -0.4089
 2018TIP3   OH227688   6.110   2.192   3.492  0.0395 -0.3068  0.5206
 2018TIP3    H127689   6.067   2.136   3.427 -1.0888 -0.4722  1.3768
 2018TIP3    H227690   6.203   2.186   3.471 -0.2673 -0.6309 -0.8567
 2019TIP3   OH227691   2.349   4.816   1.701  0.2742  0.2411  0.6633
 2019TIP3    H127692   2.332   4.725   1.728 -0.0887  0.1473  0.1432
 2019TIP3    H227693   2.279   4.835   1.638  0.0855  1.0331  1.1035
 2020TIP3   OH227694   4.963   5.133   2.046 -0.4151 -0.3216 -0.3693
 2020TIP3    H127695   5.009   5.180   2.116 -2.2003  0.6386  0.2061
 2020TIP3    H227696   5.008   5.161   1.966  1.9527 -1.7756  0.3340
 2021TIP3   OH227697   2.737   3.253   2.741 -0.4786 -0.2339 -0.0370
 2021TIP3    H127698   2.686   3.315   2.689 -1.1897  0.2987  1.2282
 2021TIP3    H227699   2.759   3.302   2.821 -2.6275 -2.1203  1.8409
 2022TIP3   OH227700   2.138   0.914   4.365 -0.0066  0.3333  1.1211
 2022TIP3    H127701   2.214   0.971   4.380  0.8006 -0.5916  0.6847
 2022TIP3    H227702   2.141   0.851   4.437  1.0709 -1.1592 -0.1324
 2023TIP3   OH227703   0.927   1.498   3.459 -0.0442 -0.2074  0.1567
 2023TIP3    H127704   0.907   1.543   3.377 -1.7800  0.6177  0.9781
 2023TIP3    H227705   0.921   1.405   3.437 -0.6014  0.0014 -0.6339
 2024TIP3   OH227706   1.732   1.787   3.936  0.0641  0.0009  0.1008
 2024TIP3    H127707   1.723   1.804   4.030  0.7122  0.3590  0.1047
 2024TIP3    H227708   1.788   1.858   3.905  0.2659 -0.4067 -0.4666
 2025TIP3   OH227709   5.291   6.483   1.369 -0.0410  0.4154  0.5502
 2025TIP3    H127710   5.274   6.392   1.393  2.0796  0.7297  3.9057
 2025TIP3    H227711   5.207   6.527   1.379 -1.4373 -1.2108 -2.3721
 2026TIP3   OH227712   0.343   0.210   1.647 -0.0784  0.5462 -0.0247
 2026TIP3    H127713   0.368   0.120   1.623 -0.0101  0.7117 -0.5801
 2026TIP3    H227714   0.257   0.201   1.688  0.5618  0.0500  1.2711
 2027TIP3   OH227715   5.753   4.154   1.409  0.1285  0.5210  0.3211
 2027TIP3    H127716   5.762   4.087   1.477  1.2725 -0.0230 -0.3459
 2027TIP3    H227717   5.843   4.170   1.380 -0.3306  0.8996 -0.9205
 2028TIP3   OH227718   4.306   4.031   3.740 -0.1326  0.2658 -0.3523
 2028TIP3    H127719   4.221   4.062   3.709  0.0097  1.2882  0.2161
 2028TIP3    H227720   4.368   4.099   3.713  0.6210 -0.7552 -1.2904
 2029TIP3   OH227721   4.072   0.984   1.512 -0.0744  0.6320  0.1052
 2029TIP3    H127722   4.136   0.988   1.442 -0.0102 -1.7746 -0.0361
 2029TIP3    H227723   4.123   0.977   1.592 -0.1154 -0.7475  0.0337
 2030TIP3   OH227724   1.774   2.254   1.826 -0.3078  0.5055  0.2267
 2030TIP3    H127725   1.703   2.253   1.891 -2.0420  1.0560 -1.5362
 2030TIP3    H227726   1.768   2.340   1.785  0.3485 -0.0086 -1.0174
 2031TIP3   OH227727   4.754   2.581   2.197 -0.3950  0.2485  0.2632
 2031TIP3    H127728   4.801   2.515   2.248 -0.9176  0.0773  0.5301
 2031TIP3    H227729   4.661   2.559   2.209 -0.6722  1.9858  1.7060
 2032TIP3   OH227730   3.511   6.336   4.379 -0.1842 -0.0280  0.3442
 2032TIP3    H127731   3.459   6.397   4.431 -0.0526  2.7137 -2.4394
 2032TIP3    H227732   3.600   6.371   4.384  0.2774 -1.1340  0.1960
 2033TIP3   OH227733   3.404   6.717   2.430 -0.2165  0.3958 -0.1605
 2033TIP3    H127734   3.396   6.749   2.340 -1.4791  0.6676  0.0326
 2033TIP3    H227735   3.321   6.673   2.447 -0.3571  1.1298  1.1755
 2034TIP3   OH227736   5.913   6.355   1.220 -0.2440 -0.3753 -0.1708
 2034TIP3    H127737   5.838   6.378   1.274  0.7364 -3.0976  2.6516
 2034TIP3    H227738   5.984   6.411   1.251 -0.4905  0.5256 -1.1758
 2035TIP3   OH227739   5.529   3.853   2.577  0.1669 -0.8315  0.3635
 2035TIP3    H127740   5.532   3.889   2.666 -1.2480  2.0223 -0.6277
 2035TIP3    H227741   5.584   3.912   2.526 -0.3844 -1.4337 -0.9690
 2036TIP3   OH227742   1.358   5.634   1.662  0.2848 -0.0242  0.5862
 2036TIP3    H127743   1.440   5.603   1.700 -0.0287 -0.6363  0.7852
 2036TIP3    H227744   1.369   5.728   1.655  1.2320 -0.1695  0.0438
 2037TIP3   OH227745   6.436   2.375   2.417  0.0406 -0.2758 -0.5076
 2037TIP3    H127746   6.525   2.394   2.386 -0.4705  0.1647 -1.7590
 2037TIP3    H227747   6.409   2.297   2.367 -1.1089  0.9426 -1.8956
 2038TIP3   OH227748   5.074   1.662   1.811 -0.2191 -0.0769 -0.0629
 2038TIP3    H127749   4.994   1.615   1.789  0.4155 -0.7658 -0.9047
 2038TIP3    H227750   5.143   1.596   1.810  0.6210  0.7804 -0.8778
 2039TIP3   OH227751   1.034   0.334   0.573  0.0562 -0.3596  0.0531
 2039TIP3    H127752   1.091   0.260   0.595 -0.6193 -1.1992 -0.9187
 2039TIP3    H227753   1.090   0.410   0.583  1.2820 -1.1428 -0.5597
 2040TIP3   OH227754   6.458   1.422   5.218 -0.0591 -0.4189  0.2222
 2040TIP3    H127755   6.484   1.379   5.299 -0.7095  0.4381  0.9172
 2040TIP3    H227756   6.363   1.409   5.213  0.0492 -0.9419 -0.7023
 2041TIP3   OH227757   5.744   6.816   5.001 -0.2087 -0.4090 -0.3062
 2041TIP3    H127758   5.741   6.777   4.914  0.8197 -1.2044  0.0008
 2041TIP3    H227759   5.664   6.869   5.006 -0.1440 -0.1255 -1.8277
 2042TIP3   OH227760   1.777   2.291   0.756 -0.4811  0.4512 -0.0891
 2042TIP3    H127761   1.713   2.275   0.686 -1.2212  0.5637  0.5472
 2042TIP3    H227762   1.820   2.373   0.731 -1.0860  0.7510 -0.1660
 2043TIP3   OH227763   5.165   5.210   1.611 -0.0687  0.3169  0.2479
 2043TIP3    H127764   5.073   5.216   1.583 -0.5265  0.3327  1.6799
 2043TIP3    H227765   5.204   5.294   1.585 -0.3525  0.1680 -0.6962
 2044TIP3   OH227766   4.259   1.282   0.999 -0.0262 -0.4455  0.5274
 2044TIP3    H127767   4.213   1.347   0.947  1.0365  0.8195  1.0848
 2044TIP3    H227768   4.242   1.198   0.955 -2.3784  0.0124  0.4420
 2045TIP3   OH227769   3.661   6.620   4.377  0.1662 -0.0913  0.0120
 2045TIP3    H127770   3.670   6.539   4.327 -1.5381 -1.0152  1.0881
 2045TIP3    H227771   3.666   6.593   4.469 -0.3583  1.0099  0.3916
 2046TIP3   OH227772   0.894   2.147   1.334 -0.3546  0.2987 -0.2213
 2046TIP3    H127773   0.902   2.129   1.240  3.1394 -1.0352  0.2005
 2046TIP3    H227774   0.905   2.062   1.376 -3.2797  0.6187  1.4970
 2047TIP3   OH227775   1.619   6.586   2.317 -0.0080 -0.5691 -0.0191
 2047TIP3    H127776   1.598   6.618   2.229 -1.2031 -1.8677 -0.2433
 2047TIP3    H227777   1.609   6.491   2.310  0.0222 -0.6982  1.4910
 2048TIP3   OH227778   5.406   5.444   1.783  0.3619 -0.3485  0.5017
 2048TIP3    H127779   5.450   5.359   1.778 -0.7834 -1.0820  1.9275
 2048TIP3    H227780   5.313   5.423   1.790 -0.0840  1.0937 -0.5531
 2049TIP3   OH227781   5.577   1.621   4.992  0.7793 -0.0804 -0.3838
 2049TIP3    H127782   5.524   1.548   4.960  1.7131 -1.4230  0.9974
 2049TIP3    H227783   5.513   1.686   5.022 -0.0780  0.1997 -2.6568
 2050TIP3   OH227784   6.574   2.320   2.664  0.1854  0.1795 -0.7186
 2050TIP3    H127785   6.526   2.355   2.589  0.7465  0.7396 -0.8330
 2050TIP3    H227786   6.524   2.244   2.692 -1.3537  1.3476 -0.1703
 2051TIP3   OH227787   0.528   2.037   3.205  0.2613  0.2374  0.0486
 2051TIP3    H127788   0.477   2.007   3.280 -0.5344  0.3732 -0.4200
 2051TIP3    H227789   0.467   2.091   3.155  0.5546 -0.4155 -1.0642
 2052TIP3   OH227790   1.244   0.216   8.501 -0.9362 -0.6647 -0.1941
 2052TIP3    H127791   1.313   0.251   8.445  0.4026  0.7068  2.1585
 2052TIP3    H227792   1.227   0.128   8.466 -0.9391  0.4511 -3.3078
 2053TIP3   OH227793   1.581   3.350   0.955  0.0531  0.0050 -0.0033
 2053TIP3    H127794   1.674   3.366   0.941  0.0650 -0.8768 -1.1471
 2053TIP3    H227795   1.542   3.360   0.868 -0.5840 -1.6275  0.0518
 2054TIP3   OH227796   5.267   3.999   2.920  0.0490  0.8779  0.0648
 2054TIP3    H127797   5.359   4.008   2.894  0.1466  2.5337  0.8465
 2054TIP3    H227798   5.270   3.986   3.015 -0.5433  1.7202  0.2075
 2055TIP3   OH227799   6.613   1.868   0.970 -0.0832  0.1061 -0.4216
 2055TIP3    H127800   6.692   1.830   1.008  0.9747  2.2030 -0.3519
 2055TIP3    H227801   6.645   1.931   0.906 -1.7505  0.0483 -1.3834
 2056TIP3   OH227802   2.304   5.209   2.202  0.4519  0.2946 -0.1325
 2056TIP3    H127803   2.390   5.238   2.232  0.7927 -0.9235  0.1455
 2056TIP3    H227804   2.275   5.277   2.142  2.7824 -0.4283 -2.2717
 2057TIP3   OH227805   1.193   3.632   4.416  0.0299  0.4176 -0.0890
 2057TIP3    H127806   1.265   3.692   4.401  1.0877  0.1764  3.1991
 2057TIP3    H227807   1.122   3.687   4.450 -0.4401  0.3256 -0.9127
 2058TIP3   OH227808   5.045   6.312   4.443  0.2011  0.4765  0.3260
 2058TIP3    H127809   5.042   6.291   4.536  1.3762 -0.7068  0.1383
 2058TIP3    H227810   4.957   6.293   4.411  0.1111 -0.2560  0.9821
 2059TIP3   OH227811   0.685   5.627   4.468 -0.1888  0.6170  0.2163
 2059TIP3    H127812   0.622   5.582   4.524 -0.5473 -0.9500 -1.3488
 2059TIP3    H227813   0.631   5.670   4.402  0.3121  0.7268 -0.1265
 2060TIP3   OH227814   6.082   4.076   1.040 -0.2844 -0.1461 -0.3864
 2060TIP3    H127815   6.173   4.054   1.022 -0.6891 -1.9803 -0.3920
 2060TIP3    H227816   6.062   4.149   0.982  1.0580  0.0329 -0.6462
 2061TIP3   OH227817   3.746   1.814   0.415 -0.5577 -0.6685  1.0031
 2061TIP3    H127818   3.705   1.825   0.501  0.7506  1.2810  1.4493
 2061TIP3    H227819   3.686   1.757   0.367 -2.5581  0.1425  2.3924
 2062TIP3   OH227820   4.182   2.756   1.622 -0.0504 -0.3405 -0.4051
 2062TIP3    H127821   4.262   2.705   1.607  0.0333 -0.0958 -0.8151
 2062TIP3    H227822   4.207   2.846   1.602  0.3338  0.1854  2.1666
 2063TIP3   OH227823   4.492   1.988   8.852  0.4007 -0.3744 -0.1715
 2063TIP3    H127824   4.442   2.055   8.805  0.4124  0.4538  0.9515
 2063TIP3    H227825   4.473   1.907   8.805  0.8271  0.4825 -1.9002
 2064TIP3   OH227826   4.254   1.046   3.895  0.6217  0.3401 -0.3189
 2064TIP3    H127827   4.274   1.128   3.940 -0.8736  0.8629 -0.5579
 2064TIP3    H227828   4.269   1.065   3.802  0.9638  0.1197 -0.3105
 2065TIP3   OH227829   5.770   0.799   2.208 -0.1450 -0.1941  0.2555
 2065TIP3    H127830   5.676   0.799   2.227 -0.3443  1.1897 -0.5422
 2065TIP3    H227831   5.785   0.717   2.161 -0.9196 -0.5183  0.5590
 2066TIP3   OH227832   5.879   5.261   2.542 -0.4971 -0.7955 -0.3034
 2066TIP3    H127833   5.832   5.300   2.616 -0.5308 -0.6676 -0.3918
 2066TIP3    H227834   5.813   5.254   2.473  0.2187  2.0197 -1.4227
 2067TIP3   OH227835   5.113   2.018   2.321  0.3868 -0.7141  0.8404
 2067TIP3    H127836   5.077   1.930   2.317 -0.5053 -0.3788 -2.8500
 2067TIP3    H227837   5.201   2.010   2.283  0.2311 -0.0252  0.2980
 2068TIP3   OH227838   4.089   4.341   2.606  0.5616 -0.3841  0.0824
 2068TIP3    H127839   4.085   4.435   2.594 -1.3678 -0.1387  1.9800
 2068TIP3    H227840   4.010   4.307   2.563 -0.7676 -0.6277  2.5319
 2069TIP3   OH227841   5.380   6.187   0.155 -0.1351  0.4289 -0.4804
 2069TIP3    H127842   5.437   6.229   0.219  0.7697 -0.9963 -0.3086
 2069TIP3    H227843   5.292   6.194   0.193  0.0921  1.4354 -0.0971
 2070TIP3   OH227844   2.686   2.650   1.494 -0.1052  0.3082 -0.7664
 2070TIP3    H127845   2.765   2.694   1.524 -0.4956  2.2410 -2.3880
 2070TIP3    H227846   2.614   2.693   1.541 -0.2923 -0.6683 -0.1354
 2071TIP3   OH227847   0.954   0.858   8.572  0.0651 -0.1419  0.6335
 2071TIP3    H127848   0.878   0.877   8.626 -1.2858 -0.3229 -1.1415
 2071TIP3    H227849   0.950   0.920   8.500  1.1789 -0.6454  0.1058
 2072TIP3   OH227850   6.245   5.890   3.595 -0.1925  0.4877  0.2664
 2072TIP3    H127851   6.214   5.937   3.672 -0.3967 -0.3976  0.7440
 2072TIP3    H227852   6.320   5.940   3.564 -0.4208  1.1332  0.7373
 2073TIP3   OH227853   5.860   4.937   3.694  0.2496  0.6780 -0.4990
 2073TIP3    H127854   5.848   4.969   3.783 -2.6978 -0.5170 -0.3645
 2073TIP3    H227855   5.845   5.014   3.639 -0.7802  0.8277 -0.0309
 2074TIP3   OH227856   4.516   5.553   1.311 -0.3218 -0.0100  0.1781
 2074TIP3    H127857   4.493   5.639   1.275 -2.3635  0.6321  2.7160
 2074TIP3    H227858   4.511   5.494   1.236 -2.4158  1.5471 -1.0264
 2075TIP3   OH227859   1.501   2.014   1.460  0.0036 -0.9788  0.2250
 2075TIP3    H127860   1.596   2.032   1.461 -0.3874  1.4387  0.8481
 2075TIP3    H227861   1.494   1.922   1.483  2.1933 -1.0472  0.8896
 2076TIP3   OH227862   4.024   1.125   3.227 -0.1968  0.1410 -0.1090
 2076TIP3    H127863   4.013   1.214   3.261  2.4872  1.1240 -1.5243
 2076TIP3    H227864   4.029   1.070   3.305  1.7415  1.7624  1.0052
 2077TIP3   OH227865   5.156   6.338   0.986 -0.1176  0.4055  0.1975
 2077TIP3    H127866   5.103   6.314   0.911 -0.6004 -1.1002  0.9920
 2077TIP3    H227867   5.247   6.329   0.956 -0.2858 -1.7772  0.2361
 2078TIP3   OH227868   5.568   1.024   4.323 -0.1567 -0.2815 -0.3532
 2078TIP3    H127869   5.608   0.950   4.277  0.0910 -0.1246 -0.3935
 2078TIP3    H227870   5.624   1.099   4.301  0.0851 -0.2430  0.3664
 2079TIP3   OH227871   3.489   6.196   2.254  0.4338  0.2319 -0.3072
 2079TIP3    H127872   3.482   6.279   2.300  1.0891 -0.3675  0.9183
 2079TIP3    H227873   3.512   6.132   2.322 -1.2707 -1.2042 -0.9805
 2080TIP3   OH227874   3.524   0.321   0.778 -0.7016  0.1602 -0.0738
 2080TIP3    H127875   3.598   0.302   0.835 -0.4989  2.8819  0.6719
 2080TIP3    H227876   3.559   0.317   0.690 -0.3354 -1.1795  0.1078
 2081TIP3   OH227877   2.836   1.716   4.263  0.1141 -0.0154  0.1050
 2081TIP3    H127878   2.797   1.741   4.179 -0.1005 -1.1018 -0.1245
 2081TIP3    H227879   2.929   1.707   4.244  0.0208 -0.5843 -0.0999
 2082TIP3   OH227880   1.266   2.886   4.124 -0.0165  0.4743 -0.1409
 2082TIP3    H127881   1.189   2.878   4.180 -0.5172 -1.0931 -0.9824
 2082TIP3    H227882   1.340   2.866   4.181 -0.4677 -0.5297  0.1078
 2083TIP3   OH227883   5.021   1.301   4.511  0.4046  0.1750  0.1598
 2083TIP3    H127884   4.928   1.322   4.520 -0.2638 -1.2428 -2.3045
 2083TIP3    H227885   5.036   1.231   4.574 -0.7393 -0.8408 -0.6376
 2084TIP3   OH227886   3.535   4.142   2.253 -0.2441 -0.1707  0.0509
 2084TIP3    H127887   3.470   4.083   2.215 -0.8882 -0.0117  0.8795
 2084TIP3    H227888   3.534   4.122   2.346  0.7546 -0.0140  0.1067
 2085TIP3   OH227889   5.895   1.800   0.441  0.1724  0.4426 -0.1430
 2085TIP3    H127890   5.806   1.832   0.457 -0.2779 -0.6349 -0.4184
 2085TIP3    H227891   5.890   1.755   0.357  0.9521  0.2591 -0.1033
 2086TIP3   OH227892   1.338   4.874   2.008  0.4360 -0.1655 -0.5710
 2086TIP3    H127893   1.256   4.907   2.042  1.2822  0.6733  0.7556
 2086TIP3    H227894   1.313   4.801   1.952 -1.1813 -0.1779  0.1099
 2087TIP3   OH227895   0.314   5.453   3.727  0.4621 -0.9441  0.0656
 2087TIP3    H127896   0.379   5.455   3.657  2.3083  0.0407  1.7026
 2087TIP3    H227897   0.245   5.513   3.697  0.2333 -2.0252 -1.7179
 2088TIP3   OH227898   2.468   5.038   3.801 -0.5087  0.1598 -0.1263
 2088TIP3    H127899   2.537   5.019   3.738  0.6452  1.1307  0.7933
 2088TIP3    H227900   2.491   4.984   3.877 -0.6502  0.6184  0.2465
 2089TIP3   OH227901   4.928   2.658   2.845  0.5420  0.2807 -0.2648
 2089TIP3    H127902   4.974   2.662   2.761  1.8003  1.3338  0.4266
 2089TIP3    H227903   4.851   2.713   2.833 -0.3781 -1.1712 -1.3173
 2090TIP3   OH227904   1.048   2.985   2.830 -0.4883  0.0992  0.1868
 2090TIP3    H127905   1.034   2.902   2.876 -1.2353  0.4563  0.6372
 2090TIP3    H227906   1.084   2.960   2.745 -1.5685 -0.7644 -0.0467
 2091TIP3   OH227907   4.120   3.711   3.777 -0.5692 -0.8496 -0.0237
 2091TIP3    H127908   4.082   3.734   3.861  0.9667  0.7750  0.2948
 2091TIP3    H227909   4.057   3.744   3.712 -0.5452  0.2861  0.5017
 2092TIP3   OH227910   6.068   5.261   3.482  0.3054  0.0248  0.4353
 2092TIP3    H127911   6.097   5.319   3.552 -1.9522  0.4208  1.1307
 2092TIP3    H227912   5.977   5.239   3.505  0.9122 -3.4901  0.0136
 2093TIP3   OH227913   1.904   5.366   3.756  0.1384  0.0294  0.6353
 2093TIP3    H127914   1.985   5.411   3.780 -0.1081  0.5048  0.5817
 2093TIP3    H227915   1.840   5.436   3.744  0.6528  0.0464 -3.2064
 2094TIP3   OH227916   6.549   5.933   1.865 -0.3928  0.2873 -0.3828
 2094TIP3    H127917   6.537   5.945   1.959  0.7565  0.3627 -0.2312
 2094TIP3    H227918   6.512   6.012   1.826 -2.1040 -0.3229 -0.1215
 2095TIP3   OH227919   3.536   4.796   0.766  0.1003  0.7671  0.3753
 2095TIP3    H127920   3.466   4.752   0.718  1.4644 -0.0828 -0.9629
 2095TIP3    H227921   3.528   4.764   0.856 -0.9553  0.3744  0.1527
 2096TIP3   OH227922   0.536   4.711   3.983  0.1464 -0.0146  0.3327
 2096TIP3    H127923   0.570   4.672   4.064  1.3822  0.4116  0.0518
 2096TIP3    H227924   0.468   4.651   3.954  0.0130 -0.4265  1.4349
 2097TIP3   OH227925   5.393   1.444   2.152 -0.0466  0.1380 -0.2729
 2097TIP3    H127926   5.462   1.384   2.180  0.3853  0.8254  0.1761
 2097TIP3    H227927   5.318   1.421   2.206 -0.0243 -0.2903 -0.4194
 2098TIP3   OH227928   1.578   1.634   2.256  0.6301  0.2308 -0.2392
 2098TIP3    H127929   1.591   1.698   2.187  0.8716 -1.2581 -1.6140
 2098TIP3    H227930   1.666   1.610   2.284  0.5366  0.6038  0.4111
 2099TIP3   OH227931   2.307   4.574   0.800 -0.3711 -0.2219  0.0779
 2099TIP3    H127932   2.354   4.498   0.766  0.7525  0.5687 -0.1958
 2099TIP3    H227933   2.373   4.621   0.852 -1.4343 -0.1994  1.4678
 2100TIP3   OH227934   0.983   0.798   0.525 -0.1396  0.3902 -0.0082
 2100TIP3    H127935   0.996   0.823   0.434 -1.6355 -0.7389 -0.5760
 2100TIP3    H227936   0.952   0.878   0.567  3.2308  1.7350  0.2572
 2101TIP3   OH227937   4.144   1.577   1.469 -1.1607 -0.3152 -0.7622
 2101TIP3    H127938   4.089   1.578   1.391 -1.5514  2.6655 -0.5766
 2101TIP3    H227939   4.203   1.651   1.457  0.2044 -1.0860  0.8316
 2102TIP3   OH227940   0.097   4.946   1.598  0.5462  0.3970 -0.3579
 2102TIP3    H127941   0.068   4.878   1.537 -0.8072  0.0886  0.5909
 2102TIP3    H227942   0.023   4.958   1.658  1.7692  0.7870  1.1329
 2103TIP3   OH227943   6.348   6.830   4.316  0.2110  0.3554 -0.3661
 2103TIP3    H127944   6.393   6.868   4.392 -1.2018 -0.7822  1.1280
 2103TIP3    H227945   6.396   6.862   4.240  1.4615  1.8493  0.9940
 2104TIP3   OH227946   0.302   5.131   2.955  0.1986 -0.8091  0.1057
 2104TIP3    H127947   0.396   5.125   2.974  0.0380  0.4916  1.4586
 2104TIP3    H227948   0.281   5.224   2.966 -1.4058 -1.2029  0.5888
 2105TIP3   OH227949   4.638   2.808   1.495 -0.0963 -0.2814 -0.5630
 2105TIP3    H127950   4.639   2.855   1.578 -0.8442 -1.3946  0.1069
 2105TIP3    H227951   4.559   2.837   1.451 -0.4110 -0.6879 -0.2734
 2106TIP3   OH227952   5.228   5.099   1.125  0.3163 -0.4064 -0.0999
 2106TIP3    H127953   5.288   5.139   1.063  0.9359 -0.3994  0.5001
 2106TIP3    H227954   5.263   5.011   1.140  0.8698  0.0117  1.1732
 2107TIP3   OH227955   4.803   2.503   0.061 -0.2356  0.1225 -0.1676
 2107TIP3    H127956   4.846   2.508   0.147 -1.0456  1.8278  0.1889
 2107TIP3    H227957   4.875   2.515  -0.001  0.1740  0.3607  0.3338
 2108TIP3   OH227958   2.862   0.930   0.613  0.5637  0.0547  0.0000
 2108TIP3    H127959   2.952   0.953   0.638  1.0341 -0.3857 -1.2163
 2108TIP3    H227960   2.872   0.877   0.534 -0.8093  0.6920 -0.6339
 2109TIP3   OH227961   1.564   5.801   3.404  0.0144  0.0707 -0.6986
 2109TIP3    H127962   1.610   5.874   3.361  0.0314 -0.4144 -1.5176
 2109TIP3    H227963   1.610   5.723   3.375  0.6641 -0.2323  1.0021
 2110TIP3   OH227964   3.368   2.042   3.537 -0.8822 -0.1540 -0.3410
 2110TIP3    H127965   3.418   2.085   3.607 -1.7902 -0.4251  0.5044
 2110TIP3    H227966   3.414   1.960   3.521 -1.5860 -0.8878  1.1544
 2111TIP3   OH227967   5.389   1.056   2.448 -0.7920  0.4920 -0.2175
 2111TIP3    H127968   5.402   1.031   2.540  3.5318  0.8510 -0.5023
 2111TIP3    H227969   5.415   0.978   2.399  0.2540  1.3484 -1.0755
 2112TIP3   OH227970   6.789   6.030   1.370  0.0866 -0.5606 -0.1586
 2112TIP3    H127971   6.876   6.050   1.335  0.7477 -0.7440  1.3224
 2112TIP3    H227972   6.729   6.057   1.301  1.2168  1.3089 -0.4849
 2113TIP3   OH227973   4.911   2.636   3.131  0.3867 -0.6862 -0.4098
 2113TIP3    H127974   4.898   2.715   3.183  1.9098 -0.1871 -0.7366
 2113TIP3    H227975   4.904   2.665   3.040 -0.2094 -1.1532 -0.5142
 2114TIP3   OH227976   3.794   1.158   1.679 -0.1276  0.7094 -0.2945
 2114TIP3    H127977   3.831   1.133   1.594 -2.1090 -0.3035 -0.8991
 2114TIP3    H227978   3.715   1.208   1.658 -1.7713 -1.2337  0.8822
 2115TIP3   OH227979   0.324   4.892   4.090 -0.0294  0.2433  0.1660
 2115TIP3    H127980   0.393   4.825   4.097  0.9633  0.9494 -1.9343
 2115TIP3    H227981   0.287   4.879   4.002 -0.6089  1.6946  0.1710
 2116TIP3   OH227982   5.963   5.094   1.408 -0.0254  0.0248  0.6448
 2116TIP3    H127983   5.909   5.016   1.393  0.2660 -0.0491 -0.0379
 2116TIP3    H227984   5.986   5.089   1.501  1.4538 -1.6666  0.2489
 2117TIP3   OH227985   3.093   6.160   3.116 -0.7296 -0.6293 -0.5986
 2117TIP3    H127986   3.138   6.076   3.110  1.0331  0.2771 -0.6892
 2117TIP3    H227987   3.000   6.138   3.111 -0.3869 -2.7005  0.9041
 2118TIP3   OH227988   1.181   1.425   4.427 -0.5002 -0.3192  0.4455
 2118TIP3    H127989   1.244   1.391   4.363  0.8173 -0.3271  1.7024
 2118TIP3    H227990   1.138   1.348   4.462 -1.5604 -0.2915 -0.7128
 2119TIP3   OH227991   5.849   0.088   1.862  0.0394 -0.1816  0.0347
 2119TIP3    H127992   5.925   0.110   1.916  0.5586 -1.5784 -0.0755
 2119TIP3    H227993   5.787   0.159   1.878  1.5275  1.2387 -0.2327
 2120TIP3   OH227994   0.375   2.811   3.456 -0.4658 -0.2224  0.3103
 2120TIP3    H127995   0.325   2.733   3.478 -0.7299 -0.0828  0.2116
 2120TIP3    H227996   0.375   2.863   3.536  1.2764 -1.1390  0.9665
 2121TIP3   OH227997   5.601   2.888   3.217  0.5453  0.3237  0.0126
 2121TIP3    H127998   5.566   2.810   3.174  2.6457 -0.3443 -0.6032
 2121TIP3    H227999   5.635   2.855   3.300  0.9767  0.6725 -0.0267
 2122TIP3   OH228000   1.719   0.996   8.677 -0.3039 -0.1215 -0.0367
 2122TIP3    H128001   1.778   0.971   8.606  0.0887  0.9804 -0.1207
 2122TIP3    H228002   1.776   1.033   8.744 -0.9027  1.2682 -0.2616
 2123TIP3   OH228003   1.408   5.520   2.031  0.1934  0.2400  0.3733
 2123TIP3    H128004   1.376   5.513   1.941  0.1660 -0.8769  0.4540
 2123TIP3    H228005   1.340   5.568   2.077 -1.3937 -1.9785  0.5129
 2124TIP3   OH228006   3.652   5.136   1.877 -0.2363  0.1959  0.1006
 2124TIP3    H128007   3.607   5.209   1.834 -0.2520 -0.0735 -0.3496
 2124TIP3    H228008   3.581   5.082   1.913 -0.2690 -0.1244 -0.4373
 2125TIP3   OH228009   1.043   4.760   3.268 -0.2249 -0.4561  0.2291
 2125TIP3    H128010   1.000   4.691   3.217 -0.4624 -0.0069 -0.1905
 2125TIP3    H228011   0.992   4.765   3.349 -1.2331  0.3344 -0.4252
 2126TIP3   OH228012   2.628   4.332   1.227 -0.1338  0.5308 -0.2957
 2126TIP3    H128013   2.691   4.404   1.223  1.4108 -0.6392  1.5191
 2126TIP3    H228014   2.667   4.269   1.288 -3.8016  0.4733  2.3030
 2127TIP3   OH228015   5.563   3.021   4.944 -0.2829  0.0727  0.0503
 2127TIP3    H128016   5.573   2.969   5.024  3.7979 -0.7895 -0.7899
 2127TIP3    H228017   5.582   3.111   4.971 -1.0597  0.1415  0.3898
 2128TIP3   OH228018   3.853   4.711   0.761 -0.0052 -0.1305 -0.6948
 2128TIP3    H128019   3.902   4.648   0.708  1.1248  0.9960 -1.0465
 2128TIP3    H228020   3.845   4.788   0.705 -0.8727  0.2431 -0.0746
 2129TIP3   OH228021   5.572   0.878   3.442 -0.3395  0.0603 -0.3893
 2129TIP3    H128022   5.550   0.948   3.381 -1.3895 -0.4385 -0.6009
 2129TIP3    H228023   5.566   0.798   3.390 -1.0037 -0.3521  0.3028
 2130TIP3   OH228024   2.995   0.953   0.936  0.2965 -0.2510  0.2498
 2130TIP3    H128025   2.925   1.010   0.968  0.5374 -0.2139  0.7070
 2130TIP3    H228026   3.028   0.997   0.858  0.7067  0.4121  0.7852
 2131TIP3   OH228027   2.506   5.490   1.794 -0.5666  0.7981  0.5290
 2131TIP3    H128028   2.500   5.531   1.708 -0.3564  0.2847  0.2647
 2131TIP3    H228029   2.592   5.446   1.794 -1.4666 -1.0581  0.1570
 2132TIP3   OH228030   6.712   5.464   3.724 -0.4670  0.6321  0.4738
 2132TIP3    H128031   6.672   5.548   3.701  0.4345  0.5163 -1.8563
 2132TIP3    H228032   6.773   5.447   3.652  0.1237 -1.5388  1.4146
 2133TIP3   OH228033   4.639   6.652   1.257  0.1982 -0.6005  0.0020
 2133TIP3    H128034   4.629   6.643   1.352 -0.5141  0.1437  0.0120
 2133TIP3    H228035   4.557   6.693   1.228  1.1846  0.9854 -0.6666
 2134TIP3   OH228036   4.678   3.333   0.482 -0.1999  0.7955  0.6836
 2134TIP3    H128037   4.730   3.339   0.402  2.7606 -1.5013  2.2420
 2134TIP3    H228038   4.742   3.329   0.552 -2.6178  0.5443  3.0559
 2135TIP3   OH228039   5.140   1.779   1.152  0.0609  0.2082 -0.1354
 2135TIP3    H128040   5.067   1.836   1.127  0.6027  1.5912  1.2563
 2135TIP3    H228041   5.103   1.718   1.216  0.0579  0.7807  0.4214
 2136TIP3   OH228042   4.694   1.412   4.018 -0.2368  0.6663  0.0579
 2136TIP3    H128043   4.711   1.505   4.002 -2.8099  1.3456  0.8940
 2136TIP3    H228044   4.612   1.394   3.972  0.5225 -1.4127 -0.6336
 2137TIP3   OH228045   4.072   5.797   3.177 -0.0116  0.0675  0.2063
 2137TIP3    H128046   4.069   5.884   3.138  1.7131  0.4420  0.8301
 2137TIP3    H228047   4.026   5.806   3.260  1.6303  0.8782  1.0845
 2138TIP3   OH228048   3.246   3.841   1.361 -0.7832 -0.0342  0.1370
 2138TIP3    H128049   3.328   3.790   1.361 -0.7823 -0.1307 -2.2932
 2138TIP3    H228050   3.188   3.792   1.419 -0.8856 -3.0924 -2.3156
 2139TIP3   OH228051   2.700   0.156   2.625 -0.0191 -0.3508  0.2966
 2139TIP3    H128052   2.768   0.214   2.590 -0.6039 -0.6036 -1.3540
 2139TIP3    H228053   2.628   0.163   2.563 -1.0040 -1.0930  1.3120
 2140TIP3   OH228054   0.670   5.168   2.609  0.1860  0.1684  0.1500
 2140TIP3    H128055   0.741   5.104   2.608 -0.3951 -0.4978 -0.1151
 2140TIP3    H228056   0.601   5.126   2.661 -1.1787 -0.5615 -2.0971
 2141TIP3   OH228057   2.909   4.050   0.670 -0.5315 -0.1616 -0.6762
 2141TIP3    H128058   2.876   4.005   0.593 -0.8998 -1.0182 -0.0323
 2141TIP3    H228059   2.914   3.982   0.737  1.1937  0.2501 -0.3545
 2142TIP3   OH228060   5.220   6.111   2.372 -0.0640 -0.0528  0.0522
 2142TIP3    H128061   5.207   6.071   2.458  0.9313 -0.0808  0.1955
 2142TIP3    H228062   5.253   6.199   2.392  1.3363 -0.4809 -0.3077
 2143TIP3   OH228063   0.651   2.206   0.606 -0.2010 -0.1397 -0.0358
 2143TIP3    H128064   0.706   2.158   0.544 -0.3828 -0.4881  0.0714
 2143TIP3    H228065   0.562   2.196   0.572 -0.0323  2.2725 -1.4635
 2144TIP3   OH228066   3.356   5.943   2.817  0.3949  0.0143 -0.7332
 2144TIP3    H128067   3.340   5.877   2.884  0.1705  1.5677  0.8016
 2144TIP3    H228068   3.450   5.958   2.820  0.5467 -0.6479 -1.5395
 2145TIP3   OH228069   5.805   4.510   2.638 -0.0110 -0.1420 -0.0981
 2145TIP3    H128070   5.755   4.587   2.663  0.3372  0.4542 -1.1936
 2145TIP3    H228071   5.854   4.486   2.717 -0.9727  0.0669  0.5798
 2146TIP3   OH228072   4.240   3.748   3.151 -0.4755  0.1401 -0.2487
 2146TIP3    H128073   4.328   3.744   3.187 -1.2626 -2.0675  1.6418
 2146TIP3    H228074   4.248   3.708   3.064  0.9711  3.2585 -1.6997
 2147TIP3   OH228075   0.843   6.418   2.370 -0.5113  0.0495 -0.1972
 2147TIP3    H128076   0.756   6.451   2.347 -1.1768 -0.4533  1.4484
 2147TIP3    H228077   0.869   6.364   2.295 -0.6350  1.9396 -1.6723
 2148TIP3   OH228078   5.275   3.286   1.267  0.1620 -0.6210 -0.4917
 2148TIP3    H128079   5.368   3.296   1.284 -0.2059  2.4618  0.2984
 2148TIP3    H228080   5.233   3.349   1.326 -2.3137 -0.8262 -1.9001
 2149TIP3   OH228081   4.837   3.826   2.048 -0.0426  0.3512 -0.4142
 2149TIP3    H128082   4.882   3.791   1.971  2.3329  2.5105 -0.1540
 2149TIP3    H228083   4.866   3.917   2.054 -0.5508  0.4318  2.7282
 2150TIP3   OH228084   2.404   0.513   0.847  0.1197  0.6152 -0.1032
 2150TIP3    H128085   2.482   0.527   0.900  2.2326 -1.2737 -2.4652
 2150TIP3    H228086   2.350   0.453   0.899  2.6251 -2.0633 -0.3696
 2151TIP3   OH228087   2.394   0.011   1.124  0.3109 -0.3570  0.0287
 2151TIP3    H128088   2.397  -0.043   1.203 -0.5891  2.1736  1.9604
 2151TIP3    H228089   2.485   0.025   1.100  0.5731 -1.8276  0.0878
 2152TIP3   OH228090   4.145   5.894   2.310 -1.2992  0.2405 -0.5711
 2152TIP3    H128091   4.080   5.848   2.363 -1.5957  1.4828  0.1855
 2152TIP3    H228092   4.094   5.951   2.253 -0.8925  1.3898  0.1838
 2153TIP3   OH228093   0.050   1.110   1.429  0.5516  0.4412 -0.4004
 2153TIP3    H128094  -0.029   1.069   1.394  0.2143  0.5905  0.1676
 2153TIP3    H228095   0.018   1.165   1.501  1.1053  0.9676 -0.5524
 2154TIP3   OH228096   5.918   0.446   1.744 -0.2515 -0.4611 -0.0850
 2154TIP3    H128097   5.859   0.392   1.795 -1.1386 -1.6082 -2.2006
 2154TIP3    H228098   5.906   0.417   1.654  4.0673 -1.2858 -0.6199
 2155TIP3   OH228099   1.119   4.911   1.734  0.0674  0.0763 -0.2488
 2155TIP3    H128100   1.193   4.866   1.775  2.1035  2.1263 -1.4165
 2155TIP3    H228101   1.143   4.920   1.642 -0.5354  2.7246 -0.2579
 2156TIP3   OH228102   3.180   0.171   2.935  0.4836  0.8012  0.0238
 2156TIP3    H128103   3.245   0.241   2.942 -0.2044  1.2634  2.6435
 2156TIP3    H228104   3.208   0.106   3.000 -0.7666  0.2537  0.0311
 2157TIP3   OH228105   4.273   6.312   0.474 -0.3426  0.5935  0.0726
 2157TIP3    H128106   4.293   6.223   0.447  0.7461  0.4358  1.3005
 2157TIP3    H228107   4.182   6.308   0.504 -0.5655  0.1000 -0.6415
 2158TIP3   OH228108   2.369   2.000   4.061 -0.3205  0.6117  0.6325
 2158TIP3    H128109   2.445   1.978   4.115 -0.9061 -0.6426  0.9870
 2158TIP3    H228110   2.307   1.929   4.077 -0.1103 -0.4355 -2.5345
 2159TIP3   OH228111   0.627   6.220   1.543 -0.0585  0.5263  0.3525
 2159TIP3    H128112   0.689   6.147   1.551  1.0682  1.4973  0.8819
 2159TIP3    H228113   0.553   6.184   1.495  1.5463 -0.3243 -1.6170
 2160TIP3   OH228114   0.974   6.167   1.297 -0.2567  0.5896 -0.3715
 2160TIP3    H128115   0.880   6.176   1.281 -0.6004 -0.0997  1.1227
 2160TIP3    H228116   0.995   6.238   1.357  0.1918  0.7275 -0.6838
 2161TIP3   OH228117   6.632   2.851   3.358  0.3753  0.6005 -0.0312
 2161TIP3    H128118   6.539   2.830   3.369  0.0654  1.7936 -0.2402
 2161TIP3    H228119   6.643   2.861   3.263  1.2869 -1.9343 -0.2530
 2162TIP3   OH228120   6.664   0.180   3.286  0.4838  0.3213  0.1065
 2162TIP3    H128121   6.675   0.095   3.245 -2.3500  0.3761 -0.9600
 2162TIP3    H228122   6.624   0.235   3.218 -0.6844  1.5606  1.7171
 2163TIP3   OH228123   5.378   5.331   3.679  0.3393 -0.0311  0.1945
 2163TIP3    H128124   5.318   5.331   3.753 -0.7520  2.4405 -0.6008
 2163TIP3    H228125   5.452   5.384   3.708 -0.0358  0.8437 -0.3767
 2164TIP3   OH228126   1.689   6.026   3.893  0.2552 -0.2828 -0.2056
 2164TIP3    H128127   1.630   5.992   3.825  1.1379 -2.0636 -0.1482
 2164TIP3    H228128   1.642   6.101   3.930 -1.1938 -0.5829 -1.3191
 2165TIP3   OH228129   2.144   0.422   2.963 -0.2407 -0.2230 -0.1092
 2165TIP3    H128130   2.064   0.389   3.003  0.8992 -1.7818  1.0522
 2165TIP3    H228131   2.175   0.490   3.023 -0.4437  0.0304 -0.2935
 2166TIP3   OH228132   5.553   2.352   2.253 -0.0494  0.2114  0.0899
 2166TIP3    H128133   5.577   2.414   2.184  2.0485 -0.7067 -0.0971
 2166TIP3    H228134   5.597   2.271   2.229 -2.9061 -1.4919  0.2088
 2167TIP3   OH228135   2.084   1.482   0.882 -0.5705 -0.2743 -0.0804
 2167TIP3    H128136   2.161   1.516   0.928 -1.0456  1.0176 -0.2117
 2167TIP3    H228137   2.013   1.487   0.946 -1.5759  2.8942 -1.2797
 2168TIP3   OH228138   3.592   6.271   1.774 -0.2315 -0.5680  0.1676
 2168TIP3    H128139   3.564   6.180   1.785 -1.7402 -0.0719  0.7069
 2168TIP3    H228140   3.656   6.268   1.703 -0.8459 -1.9432 -0.3692
 2169TIP3   OH228141   2.558   5.335   0.249  0.6050  0.4444  0.1636
 2169TIP3    H128142   2.572   5.308   0.159 -0.2450  0.0738  0.1295
 2169TIP3    H228143   2.619   5.408   0.263 -1.2995  2.4937 -1.6225
 2170TIP3   OH228144   3.693   4.603   1.518  0.0259  0.7063 -0.0978
 2170TIP3    H128145   3.701   4.695   1.544  0.8993  0.6435 -0.1215
 2170TIP3    H228146   3.752   4.556   1.577 -0.7745  0.0867  0.2363
 2171TIP3   OH228147   3.760   3.068   0.408  0.5336  0.0722 -0.6377
 2171TIP3    H128148   3.752   2.981   0.369  1.8981 -0.7401  0.7719
 2171TIP3    H228149   3.695   3.121   0.361  0.6255 -1.3348 -2.4847
 2172TIP3   OH228150   3.083   0.600   2.645 -0.3832  0.5598  0.2565
 2172TIP3    H128151   3.173   0.566   2.638 -0.4789  0.5224 -1.0253
 2172TIP3    H228152   3.048   0.560   2.724  0.2841 -0.5018  0.0310
 2173TIP3   OH228153   3.530   3.083   4.498 -0.1649  0.1958  0.1419
 2173TIP3    H128154   3.550   3.124   4.582 -1.2530 -0.1209  0.5724
 2173TIP3    H228155   3.536   3.154   4.435  2.3053  0.1113  0.2091
 2174TIP3   OH228156   5.479   2.586   1.295 -0.2839  0.1404  0.9680
 2174TIP3    H128157   5.456   2.674   1.266 -1.7549 -0.2265  0.9805
 2174TIP3    H228158   5.463   2.586   1.389  0.8972  0.2065  1.1869
 2175TIP3   OH228159   1.075   0.967   4.880 -0.1631 -0.1080 -0.1656
 2175TIP3    H128160   1.013   0.997   4.814  0.0977  2.7075  0.7441
 2175TIP3    H228161   1.155   1.016   4.861  0.1201  0.2553  1.7822
 2176TIP3   OH228162   3.938   6.169   0.088 -0.4576  0.0060 -0.0036
 2176TIP3    H128163   3.913   6.261   0.098 -1.0674 -0.0035 -1.2461
 2176TIP3    H228164   3.855   6.122   0.088 -0.1700 -0.5137  0.1957
 2177TIP3   OH228165   1.572   3.772   0.488  0.0530 -0.0277 -0.1332
 2177TIP3    H128166   1.539   3.705   0.429  1.1897 -1.0337  0.3366
 2177TIP3    H228167   1.499   3.790   0.547 -0.8066  0.3658 -1.2739
 2178TIP3   OH228168   4.451   2.628   1.198  0.6112 -0.1894  0.3191
 2178TIP3    H128169   4.428   2.709   1.243  0.5791  0.1171 -0.2373
 2178TIP3    H228170   4.379   2.613   1.137  0.7239 -0.5155  0.2659
 2179TIP3   OH228171   6.822   4.392   3.620 -0.5634 -0.9847  0.0790
 2179TIP3    H128172   6.812   4.329   3.692 -1.3378 -0.8397  0.1000
 2179TIP3    H228173   6.863   4.341   3.550 -1.5201 -1.6234 -0.0378
 2180TIP3   OH228174   2.382   3.075   4.368  0.4214  0.1451  0.1800
 2180TIP3    H128175   2.429   3.005   4.322 -1.6714 -0.9363 -0.4492
 2180TIP3    H228176   2.290   3.064   4.341 -0.1592  2.4221  0.9891
 2181TIP3   OH228177   1.991   4.555   2.445 -0.1355  0.0519  0.6170
 2181TIP3    H128178   1.915   4.503   2.472 -1.1488 -0.0525 -2.1729
 2181TIP3    H228179   2.066   4.501   2.468 -1.1347 -2.5060 -1.6056
 2182TIP3   OH228180   5.343   0.313   2.773 -0.2388  0.0066  0.0329
 2182TIP3    H128181   5.423   0.364   2.759 -0.8515  0.9096 -0.3489
 2182TIP3    H228182   5.290   0.332   2.695 -0.3620 -1.4817 -0.2663
 2183TIP3   OH228183   5.899   3.874   0.814  0.4511 -0.0297 -0.2263
 2183TIP3    H128184   5.887   3.910   0.901 -2.5361 -0.7544 -0.2523
 2183TIP3    H228185   5.910   3.780   0.828 -0.9803 -0.2735 -0.6577
 2184TIP3   OH228186   4.273   2.174   0.425 -0.1400 -0.2724 -0.0342
 2184TIP3    H128187   4.258   2.266   0.405 -2.2648 -0.8061 -1.1333
 2184TIP3    H228188   4.242   2.164   0.516 -0.9433 -0.1022 -0.2796
 2185TIP3   OH228189   2.844   0.816   2.024  0.7067 -0.4808 -0.1444
 2185TIP3    H128190   2.890   0.793   2.105  0.2890 -1.4437 -0.1695
 2185TIP3    H228191   2.900   0.781   1.954  0.4540 -0.7399 -0.2175
 2186TIP3   OH228192   6.566   6.827   3.516  0.0995  0.2738 -0.0715
 2186TIP3    H128193   6.660   6.822   3.496 -0.2476 -1.2521 -1.4985
 2186TIP3    H228194   6.559   6.791   3.605  0.8000 -0.0562 -0.1457
 2187TIP3   OH228195   3.942   3.655   1.213 -0.1868 -0.0658  0.3992
 2187TIP3    H128196   3.917   3.747   1.217  0.2127  0.0349  0.7557
 2187TIP3    H228197   3.989   3.646   1.130 -2.9393 -0.6751 -1.2052
 2188TIP3   OH228198   6.401   2.849   2.618 -0.0411  0.5675  0.0454
 2188TIP3    H128199   6.426   2.783   2.682 -0.0186 -0.0096 -0.5541
 2188TIP3    H228200   6.473   2.912   2.617  1.1788 -0.7930 -1.2844
 2189TIP3   OH228201   4.041   6.064   3.097  0.2279 -0.1657 -0.4771
 2189TIP3    H128202   4.002   6.107   3.021  0.6554  1.3404  0.1255
 2189TIP3    H228203   4.005   6.111   3.173  0.3827 -1.1548  0.2232
 2190TIP3   OH228204   2.505   0.941   3.160 -0.6834  0.1343  0.2415
 2190TIP3    H128205   2.545   1.021   3.127 -1.4613  1.2477  1.8525
 2190TIP3    H228206   2.499   0.884   3.083  0.0149  1.5499 -0.9224
 2191TIP3   OH228207   3.405   0.276   3.245 -0.2635  0.3997 -0.0467
 2191TIP3    H128208   3.477   0.215   3.237 -0.3810  0.3446 -0.7301
 2191TIP3    H228209   3.331   0.233   3.203 -0.5365  0.7100  0.1030
 2192TIP3   OH228210   5.461   6.615   2.524 -0.7706  0.5448  0.8785
 2192TIP3    H128211   5.460   6.520   2.519 -0.2597  0.5835 -0.4619
 2192TIP3    H228212   5.410   6.643   2.448  2.4401  1.3272 -1.1805
 2193TIP3   OH228213   4.581   2.045   4.331  0.3240  0.5816 -0.3754
 2193TIP3    H128214   4.631   1.991   4.269  1.7812  0.8653  0.5162
 2193TIP3    H228215   4.646   2.076   4.394 -1.1276  0.3071  1.3122
 2194TIP3   OH228216   4.608   4.447   2.376  0.6440 -0.9398  0.0943
 2194TIP3    H128217   4.546   4.437   2.449  1.0957 -0.6838  0.5187
 2194TIP3    H228218   4.574   4.388   2.309 -1.5875  1.1241 -0.7497
 2195TIP3   OH228219   2.846   2.269   0.867 -0.2061 -0.2822 -0.1756
 2195TIP3    H128220   2.775   2.234   0.814 -1.1636  0.8975  0.2678
 2195TIP3    H228221   2.803   2.326   0.931  0.8621 -1.7091  1.9741
 2196TIP3   OH228222   4.868   6.298   5.240 -0.4588  0.3751 -0.0191
 2196TIP3    H128223   4.923   6.302   5.318 -0.0492 -0.0808 -0.2819
 2196TIP3    H228224   4.864   6.205   5.218 -1.8247  0.3341  0.3327
 2197TIP3   OH228225   5.639   4.692   2.778 -0.3422 -0.1785  0.0865
 2197TIP3    H128226   5.546   4.712   2.778 -0.0228  1.6517 -1.3153
 2197TIP3    H228227   5.677   4.750   2.844 -0.2659 -1.5334  1.2743
 2198TIP3   OH228228   1.864   2.767   3.640  0.4921  0.0049 -0.2915
 2198TIP3    H128229   1.818   2.789   3.559  0.6563 -0.2030 -0.4406
 2198TIP3    H228230   1.947   2.729   3.612  0.0190 -1.2550 -0.0523
 2199TIP3   OH228231   0.131   4.750   0.383 -0.2784 -0.2826 -0.3483
 2199TIP3    H128232   0.164   4.661   0.370 -0.7888 -0.4355 -0.6380
 2199TIP3    H228233   0.086   4.747   0.468 -1.3384 -0.6288 -0.9035
 2200TIP3   OH228234   2.597   1.835   2.358  0.2294  0.6697  0.0237
 2200TIP3    H128235   2.590   1.826   2.453  1.0800 -0.1538  0.0271
 2200TIP3    H228236   2.691   1.846   2.342  0.5654 -2.5448 -0.9321
 2201TIP3   OH228237   4.287   1.049   0.629  0.0348 -0.4618 -0.4071
 2201TIP3    H128238   4.213   1.109   0.620 -0.4110 -0.8961  0.2712
 2201TIP3    H228239   4.255   0.966   0.592  1.0489 -0.0055 -2.4549
 2202TIP3   OH228240   4.522   6.603   4.645 -0.1005  0.2404  0.2268
 2202TIP3    H128241   4.511   6.694   4.670  1.4370  0.3167  0.6874
 2202TIP3    H228242   4.435   6.564   4.657 -0.5198  1.3925  1.0177
 2203TIP3   OH228243   0.563   4.725   3.216  0.0318 -0.4032  0.1142
 2203TIP3    H128244   0.566   4.754   3.125  0.2221 -1.2067 -0.1469
 2203TIP3    H228245   0.581   4.631   3.212  0.1823 -0.4233  0.9962
 2204TIP3   OH228246   1.530   5.701   3.671  0.1629  0.5498  0.0075
 2204TIP3    H128247   1.554   5.757   3.597 -1.1104  1.9960  0.6127
 2204TIP3    H228248   1.443   5.733   3.697  0.5956  0.1414  2.1435
 2205TIP3   OH228249   5.564   3.328   4.469  0.5415  0.2312 -0.2000
 2205TIP3    H128250   5.535   3.256   4.413  1.4186  0.6053 -1.1742
 2205TIP3    H228251   5.599   3.285   4.547  0.7656 -0.3983 -0.6341
 2206TIP3   OH228252   2.965   3.177   1.137 -0.2483  0.1185 -0.5130
 2206TIP3    H128253   2.876   3.169   1.102  0.3147 -3.5321 -1.4549
 2206TIP3    H228254   3.007   3.242   1.080 -1.5470 -0.0959 -1.7684
 2207TIP3   OH228255   0.010   3.403   0.801  0.6379  0.1073  0.2251
 2207TIP3    H128256  -0.041   3.398   0.882  1.0151  1.4328  0.5650
 2207TIP3    H228257  -0.046   3.452   0.740 -0.0125 -1.6118 -0.6530
 2208TIP3   OH228258   3.872   3.112   1.410  0.1162  0.4700  0.8953
 2208TIP3    H128259   3.935   3.180   1.433 -0.2310  0.7465  1.0316
 2208TIP3    H228260   3.910   3.069   1.334 -0.5816  2.0652 -0.3945
 2209TIP3   OH228261   2.673   4.181   3.957  0.6734 -0.5357 -0.4392
 2209TIP3    H128262   2.609   4.139   3.900  2.8499 -1.5103 -2.3157
 2209TIP3    H228263   2.737   4.112   3.976  1.9493  0.7661  0.1725
 2210TIP3   OH228264   2.528   5.489   2.410 -0.0725  0.7538  0.0113
 2210TIP3    H128265   2.549   5.534   2.328 -1.1491  0.6215 -0.3534
 2210TIP3    H228266   2.511   5.560   2.472 -1.2811  0.8830 -0.4347
 2211TIP3   OH228267   4.208   2.268   2.997  0.9357 -0.0205  0.7230
 2211TIP3    H128268   4.130   2.323   2.986  0.5619 -0.1850  2.3618
 2211TIP3    H228269   4.279   2.320   2.961  0.4117  1.0868  1.2448
 2212TIP3   OH228270   5.266   4.526   3.914 -0.7469 -0.0634 -0.0268
 2212TIP3    H128271   5.250   4.444   3.961  1.2285 -2.0935 -2.5667
 2212TIP3    H228272   5.360   4.541   3.923 -0.7633  0.8714 -1.1921
 2213TIP3   OH228273   0.127   0.594   4.660 -0.3126 -0.4441 -0.0024
 2213TIP3    H128274   0.062   0.527   4.638 -0.5948  0.4799 -2.2975
 2213TIP3    H228275   0.204   0.570   4.609  0.2847 -0.1247  0.7304
 2214TIP3   OH228276   0.995   0.717   4.992 -0.1590  0.3357 -0.6507
 2214TIP3    H128277   1.039   0.787   4.943 -0.2278 -0.1369 -1.4123
 2214TIP3    H228278   0.906   0.750   5.007 -0.5001  0.0245 -1.8850
 2215TIP3   OH228279   1.728   0.439   0.575  0.2075 -0.5602  0.2443
 2215TIP3    H128280   1.636   0.412   0.581  0.7514 -2.2326  1.7673
 2215TIP3    H228281   1.727   0.532   0.594 -1.3618 -0.1478 -1.5973
 2216TIP3   OH228282   0.088   5.170   1.448 -0.1000  0.6007 -0.4143
 2216TIP3    H128283   0.083   5.088   1.497  1.3814  1.6205  1.5846
 2216TIP3    H228284   0.131   5.147   1.366 -2.1245 -1.0518 -1.0966
 2217TIP3   OH228285   4.568   6.227   4.334 -0.4220  0.3276 -0.6827
 2217TIP3    H128286   4.609   6.299   4.382 -0.1629  0.1179 -0.5859
 2217TIP3    H228287   4.567   6.155   4.397 -0.8513  0.3034 -0.7186
 2218TIP3   OH228288   1.556   6.564   2.590  0.4573 -0.1055 -0.1324
 2218TIP3    H128289   1.462   6.558   2.571  0.5444 -1.7795 -0.2731
 2218TIP3    H228290   1.596   6.570   2.503  0.4265  3.1170 -0.0197
 2219TIP3   OH228291   1.787   3.475   1.299 -0.1558 -0.4241 -0.1617
 2219TIP3    H128292   1.835   3.437   1.372 -0.0781 -0.5021 -0.2514
 2219TIP3    H228293   1.850   3.474   1.226  0.2199  0.9426  0.1289
 2220TIP3   OH228294   2.164   1.762   0.258 -0.2973  0.5978  0.4033
 2220TIP3    H128295   2.227   1.693   0.279 -0.2536  0.5150  0.0090
 2220TIP3    H228296   2.216   1.842   0.257 -0.3978  0.6818  1.1326
 2221TIP3   OH228297   6.306   6.134   4.228 -0.6608 -0.5000  0.3231
 2221TIP3    H128298   6.318   6.173   4.141  2.7527 -2.4610 -0.2266
 2221TIP3    H228299   6.246   6.061   4.213 -1.2528  0.0471 -0.0521
 2222TIP3   OH228300   5.745   5.472   3.274  0.2735  0.0349  0.4505
 2222TIP3    H128301   5.730   5.566   3.263 -1.9065 -0.2221  0.7075
 2222TIP3    H228302   5.713   5.453   3.362  0.8896 -0.9214  0.4789
 2223TIP3   OH228303   0.138   5.776   2.061 -0.7306  0.5277 -0.1230
 2223TIP3    H128304   0.056   5.745   2.024 -0.5428 -0.2491  0.1017
 2223TIP3    H228305   0.183   5.697   2.091 -0.8270  1.0912  1.6555
 2224TIP3   OH228306   1.864   3.497   3.288 -0.4976  0.0916 -0.4279
 2224TIP3    H128307   1.956   3.471   3.288  0.1034  2.1129 -0.6833
 2224TIP3    H228308   1.819   3.422   3.327  1.5133 -0.0607  1.8596
 2225TIP3   OH228309   4.337   4.085   1.235 -0.0515 -0.3578 -0.5225
 2225TIP3    H128310   4.264   4.145   1.220  0.4889  0.4514 -0.0004
 2225TIP3    H228311   4.405   4.113   1.174  1.6598  2.1041  2.2563
 2226TIP3   OH228312   6.771   2.978   3.752 -0.2790 -0.3847  0.9357
 2226TIP3    H128313   6.686   2.976   3.796 -0.5554 -2.2019  0.4213
 2226TIP3    H228314   6.752   2.946   3.664  0.9500 -0.9793  0.8692
 2227TIP3   OH228315   5.991   3.015   1.744  0.1163 -0.4750 -0.0434
 2227TIP3    H128316   5.973   2.960   1.668  0.6189  1.0255 -1.3307
 2227TIP3    H228317   5.975   2.959   1.820 -2.1696 -1.5165 -1.2070
 2228TIP3   OH228318   0.847   5.678   4.688  0.0594 -0.4373  0.5638
 2228TIP3    H128319   0.849   5.754   4.746 -1.6972  0.4549 -0.4779
 2228TIP3    H228320   0.755   5.668   4.664  0.5180 -1.7521 -0.8233
 2229TIP3   OH228321   2.948   2.951   3.052 -0.0631 -0.1165  0.4795
 2229TIP3    H128322   2.952   2.859   3.029  2.5968 -0.0841  0.5623
 2229TIP3    H228323   2.855   2.967   3.069 -0.8398 -2.3328 -1.1908
 2230TIP3   OH228324   2.749   5.527   0.345 -0.4243  0.4739 -0.0199
 2230TIP3    H128325   2.759   5.619   0.318 -0.1559  0.5464  0.3307
 2230TIP3    H228326   2.692   5.531   0.422  0.1031  0.4056  0.3798
 2231TIP3   OH228327   3.670   6.404   3.418  0.7367  0.0127 -0.5451
 2231TIP3    H128328   3.648   6.368   3.333  1.4202 -0.4924 -0.5170
 2231TIP3    H228329   3.671   6.499   3.405 -2.0099  0.1461 -0.3986
 2232TIP3   OH228330   4.637   2.925   0.315 -0.7435 -0.2423 -1.0340
 2232TIP3    H128331   4.696   2.937   0.241 -0.8410 -1.2193 -1.2813
 2232TIP3    H228332   4.554   2.899   0.275 -1.0944  0.2276 -0.6316
 2233TIP3   OH228333   4.622   2.346   1.204  0.5101  0.4943 -0.2997
 2233TIP3    H128334   4.541   2.323   1.249 -0.8418  1.4910 -2.1324
 2233TIP3    H228335   4.689   2.295   1.250 -0.9584  0.4088  1.9106
 2234TIP3   OH228336   0.929   1.804   1.688  0.0688 -0.1939 -0.0212
 2234TIP3    H128337   0.885   1.876   1.734  1.1300  1.3564 -1.3361
 2234TIP3    H228338   1.002   1.781   1.746 -0.6933 -0.7373  0.7498
 2235TIP3   OH228339   4.227   5.609   1.147  0.1677  0.3948 -0.5080
 2235TIP3    H128340   4.257   5.689   1.190 -2.3497  1.9143 -1.3468
 2235TIP3    H228341   4.215   5.634   1.055 -0.3581 -1.0548 -0.8662
 2236TIP3   OH228342   6.519   4.540   1.612  0.2236  0.2232  0.3462
 2236TIP3    H128343   6.546   4.560   1.701  1.5904  0.0067  0.0088
 2236TIP3    H228344   6.431   4.578   1.604 -1.0513 -2.0089  2.5570
 2237TIP3   OH228345   0.212   5.797   4.743 -0.7494  0.4835  0.4408
 2237TIP3    H128346   0.258   5.759   4.668 -1.1055 -0.1168  0.5215
 2237TIP3    H228347   0.245   5.747   4.818  0.8163  2.1383  0.9084
 2238TIP3   OH228348   1.005   3.745   2.550 -0.2177  0.4736 -0.3525
 2238TIP3    H128349   1.099   3.753   2.566 -0.5886 -0.8156  3.4192
 2238TIP3    H228350   0.968   3.827   2.584 -0.5367  0.6165 -1.0353
 2239TIP3   OH228351   5.425   0.175   3.024 -0.5891 -0.1702 -0.3021
 2239TIP3    H128352   5.433   0.204   2.933  0.1283  1.1900  0.1657
 2239TIP3    H228353   5.505   0.205   3.066 -0.9431 -0.7203  0.8070
 2240TIP3   OH228354   1.009   5.692   1.542 -0.3460 -0.3957  0.2191
 2240TIP3    H128355   0.951   5.704   1.618  0.5128  0.5396  0.7613
 2240TIP3    H228356   1.009   5.777   1.498  1.2744 -0.0831  0.7407
 2241TIP3   OH228357   1.868   6.086   3.658  0.5154 -0.3573 -0.4052
 2241TIP3    H128358   1.864   6.080   3.753  1.8973 -1.1514 -0.3593
 2241TIP3    H228359   1.786   6.047   3.628 -0.6613  1.3630  0.4623
 2242TIP3   OH228360   3.333   3.095   0.263  0.1223 -0.0936 -0.2826
 2242TIP3    H128361   3.424   3.126   0.268 -0.0956  0.3998  1.0846
 2242TIP3    H228362   3.338   3.014   0.213  1.2716  0.1106 -0.5231
 2243TIP3   OH228363   4.742   1.392   2.130 -0.0989  0.3560 -0.9739
 2243TIP3    H128364   4.678   1.426   2.192 -0.3290 -0.3513 -0.8214
 2243TIP3    H228365   4.689   1.354   2.059  0.1540  0.1678 -1.0648
 2244TIP3   OH228366   3.961   0.998   4.102 -0.5319 -0.1066 -0.5128
 2244TIP3    H128367   3.891   0.971   4.161 -0.2710 -1.4272 -0.7836
 2244TIP3    H228368   3.972   1.092   4.119 -0.6790 -0.3836  1.3097
 2245TIP3   OH228369   4.413   2.599   4.194 -0.3694  0.0726  0.1764
 2245TIP3    H128370   4.337   2.590   4.252 -0.0460  0.1445  0.6236
 2245TIP3    H228371   4.438   2.509   4.174  0.3439  0.0019  1.2723
 2246TIP3   OH228372   2.781   5.135   3.869 -0.3328 -0.1885  0.4535
 2246TIP3    H128373   2.726   5.204   3.907  1.2776  1.1226  0.5296
 2246TIP3    H228374   2.853   5.125   3.931  0.1908 -0.9321 -0.2556
 2247TIP3   OH228375   2.760   1.091   3.494 -0.9393  0.0253 -0.1106
 2247TIP3    H128376   2.850   1.090   3.460 -0.1112  1.1189  1.8678
 2247TIP3    H228377   2.764   1.040   3.574 -1.8706  0.7985  0.4509
 2248TIP3   OH228378   5.856   0.601   1.999  0.2791  0.1240 -0.2458
 2248TIP3    H128379   5.839   0.610   1.905  1.5477  1.7057 -0.3617
 2248TIP3    H228380   5.949   0.580   2.005  0.4717  1.1652  0.6865
 2249TIP3   OH228381   2.764   1.816   2.823 -0.1950 -0.1420  0.7474
 2249TIP3    H128382   2.714   1.832   2.902  0.3780 -0.3004  1.1475
 2249TIP3    H228383   2.830   1.885   2.822  1.1118 -1.3109  1.5099
 2250TIP3   OH228384   3.090   1.075   0.707 -0.2754  0.3229  0.3544
 2250TIP3    H128385   3.057   1.146   0.650  1.3346  2.1652  1.5825
 2250TIP3    H228386   3.160   1.035   0.656 -2.3974 -1.7786 -1.1291
 2251TIP3   OH228387   6.421   0.529   1.358  0.1355  0.0922  0.0236
 2251TIP3    H128388   6.472   0.449   1.372  0.4882  0.4322  0.7380
 2251TIP3    H228389   6.458   0.592   1.420 -1.2377  0.3045  0.6663
 2252TIP3   OH228390   4.242   1.308   4.625 -0.3829  0.1611  0.0397
 2252TIP3    H128391   4.332   1.335   4.645 -0.7860  0.2549  1.9194
 2252TIP3    H228392   4.204   1.384   4.582  0.1340  0.5374  0.2233
 2253TIP3   OH228393   0.656   6.364   1.231  0.7778 -0.0999 -0.0918
 2253TIP3    H128394   0.617   6.333   1.313  0.8907 -0.2614 -0.1000
 2253TIP3    H228395   0.665   6.285   1.177 -1.8236  0.3372 -1.3353
 2254TIP3   OH228396   6.572   1.517   0.920  0.4129 -0.0527  0.5495
 2254TIP3    H128397   6.608   1.444   0.971  1.7261 -0.2382 -0.5955
 2254TIP3    H228398   6.645   1.578   0.910  0.1407  0.0649 -0.9562
 2255TIP3   OH228399   2.366   6.142   2.771 -0.8036  0.4350  0.2355
 2255TIP3    H128400   2.295   6.078   2.769 -0.3443 -0.0961 -2.0103
 2255TIP3    H228401   2.323   6.225   2.794 -2.0760  0.0248 -0.5854
 2256TIP3   OH228402   4.194   3.336   2.006 -0.8389 -0.6353  0.1531
 2256TIP3    H128403   4.281   3.326   2.045 -0.2434 -0.8987 -1.2142
 2256TIP3    H228404   4.168   3.248   1.980 -1.3052 -0.4884  0.1042
 2257TIP3   OH228405   1.114   0.080   2.425 -0.1917  0.0386 -0.1265
 2257TIP3    H128406   1.088   0.045   2.510 -0.6316  0.1371 -0.2142
 2257TIP3    H228407   1.194   0.034   2.403 -0.9656 -1.2184 -0.4277
 2258TIP3   OH228408   5.095   3.305   4.105  0.2378 -0.0311  0.1043
 2258TIP3    H128409   5.101   3.213   4.128  0.6354 -0.4046 -1.4027
 2258TIP3    H228410   5.186   3.336   4.104  0.3461 -0.2899 -1.8500
 2259TIP3   OH228411   3.732   5.173   0.514  0.0554 -0.0946  0.4074
 2259TIP3    H128412   3.655   5.226   0.491 -0.9087 -0.2927  2.8446
 2259TIP3    H228413   3.805   5.235   0.509 -0.6598  0.8031  0.6161
 2260TIP3   OH228414   0.352   0.863   1.232  0.2090 -0.0281 -0.0102
 2260TIP3    H128415   0.275   0.865   1.289  0.9985 -1.3074  1.1372
 2260TIP3    H228416   0.318   0.890   1.146 -1.4324 -0.1642  0.5634
 2261TIP3   OH228417   5.041   1.918   2.871 -0.6086  0.7403 -0.1641
 2261TIP3    H128418   5.006   2.001   2.903  0.9505  1.2664  0.2831
 2261TIP3    H228419   5.046   1.930   2.776  0.3528  1.4866 -0.0348
 2262TIP3   OH228420   0.913   6.326   3.024 -0.2957 -0.1746  0.2295
 2262TIP3    H128421   0.856   6.254   3.048  0.4017 -0.9126 -0.2645
 2262TIP3    H228422   0.975   6.334   3.096  2.0650 -2.6676 -1.3241
 2263TIP3   OH228423   0.347   2.454   1.968  0.4339  0.1349  0.5589
 2263TIP3    H128424   0.326   2.503   2.047 -0.8706 -0.4229  0.5951
 2263TIP3    H228425   0.401   2.381   1.997  0.6754  0.4111  0.8030
 2264TIP3   OH228426   5.808   1.754   0.814  0.0747  0.2689  0.0903
 2264TIP3    H128427   5.812   1.843   0.849 -1.4521 -0.3468  1.9886
 2264TIP3    H228428   5.716   1.729   0.822  0.6168 -1.7984  0.4488
 2265TIP3   OH228429   6.076   4.262   1.995 -0.2546  0.3048 -0.1829
 2265TIP3    H128430   6.097   4.281   2.087  0.9358 -1.4568 -0.0413
 2265TIP3    H228431   6.116   4.335   1.947 -0.5446  1.0422  0.6544
 2266TIP3   OH228432   2.865   4.807   3.268 -0.1459 -0.2712 -0.4220
 2266TIP3    H128433   2.911   4.788   3.186  0.6565 -0.0727 -0.0389
 2266TIP3    H228434   2.871   4.725   3.318 -0.3821 -0.3059 -0.4522
 2267TIP3   OH228435   6.369   4.519   2.081 -0.0435  0.3406  0.0922
 2267TIP3    H128436   6.290   4.489   2.126  0.1073 -0.0058  0.1344
 2267TIP3    H228437   6.408   4.583   2.140 -0.4898  0.7907 -0.0975
 2268TIP3   OH228438   0.571   3.120   0.291 -0.9931 -0.4766 -0.0426
 2268TIP3    H128439   0.583   3.196   0.235  1.3678 -0.6402  0.1576
 2268TIP3    H228440   0.562   3.046   0.230  1.6893 -0.6746 -0.3427
 2269TIP3   OH228441   5.109   6.048   1.731  0.0393  0.5477  0.2702
 2269TIP3    H128442   5.164   6.092   1.795 -0.5294 -0.1982  1.2891
 2269TIP3    H228443   5.092   5.961   1.768  1.0765 -0.5586 -1.6391
 2270TIP3   OH228444   4.248   3.865   2.333 -0.3773  0.1364 -0.2602
 2270TIP3    H128445   4.190   3.793   2.357 -0.7010  0.5369  0.1936
 2270TIP3    H228446   4.214   3.940   2.383  1.2120  0.1343  0.9153
 2271TIP3   OH228447   1.737   4.726   0.389  0.7098 -0.3450  0.6727
 2271TIP3    H128448   1.650   4.757   0.415  0.4875 -0.3565 -0.0555
 2271TIP3    H228449   1.780   4.804   0.354  0.4984 -0.6329 -0.2489
 2272TIP3   OH228450   5.544   6.083   4.074  0.4663  0.0372  0.4561
 2272TIP3    H128451   5.634   6.108   4.050  0.8950 -0.9855  0.9211
 2272TIP3    H228452   5.496   6.165   4.077  1.5329  0.6652  0.7865
 2273TIP3   OH228453   1.165   2.662   0.939  0.0187  0.0221  0.1483
 2273TIP3    H128454   1.125   2.732   0.990 -0.5219  0.3377 -0.6904
 2273TIP3    H228455   1.173   2.589   1.001  0.4559  0.7694  0.9878
 2274TIP3   OH228456   2.290   0.633   3.135  0.6484  0.2103 -0.8930
 2274TIP3    H128457   2.225   0.663   3.198  0.1925  0.6419 -1.5609
 2274TIP3    H228458   2.338   0.564   3.181 -0.2663 -0.1018 -0.3930
 2275TIP3   OH228459   5.043   5.054   4.008  0.0710 -0.5716  0.4245
 2275TIP3    H128460   5.114   5.003   3.969  0.6703  1.1997 -0.9025
 2275TIP3    H228461   4.963   5.014   3.974  0.4862 -1.2060  0.1783
 2276TIP3   OH228462   6.214   6.280   2.107  0.6879  0.1083  0.1366
 2276TIP3    H128463   6.293   6.324   2.075  0.1491  0.2297 -1.0566
 2276TIP3    H228464   6.183   6.229   2.032 -1.9443  2.2203 -0.3583
 2277TIP3   OH228465   6.610   6.465   0.822  0.9014  0.1977 -0.3209
 2277TIP3    H128466   6.613   6.407   0.746 -1.7183 -0.2574 -0.1906
 2277TIP3    H228467   6.530   6.516   0.809  1.9588  2.2408  0.6899
 2278TIP3   OH228468   2.747   3.772   4.239 -0.1401  0.7574  0.2453
 2278TIP3    H128469   2.790   3.857   4.229 -3.0750  2.3587  0.1654
 2278TIP3    H228470   2.663   3.792   4.282 -1.4668 -1.9377 -0.8478
 2279TIP3   OH228471   5.200   2.143   4.173  0.6392 -0.5070  0.4336
 2279TIP3    H128472   5.109   2.147   4.146  0.6937  0.1491  0.3508
 2279TIP3    H228473   5.228   2.054   4.150 -1.0732 -2.1625  3.9929
 2280TIP3   OH228474   5.955   2.388   1.865  0.0521  0.2609  0.3390
 2280TIP3    H128475   5.899   2.461   1.893  0.0310  0.3029  0.1897
 2280TIP3    H228476   5.897   2.313   1.860 -0.6280  0.8589 -2.4763
 2281TIP3   OH228477   0.171   3.397   2.778  0.6677  0.2512  0.2604
 2281TIP3    H128478   0.129   3.311   2.790 -3.7685  1.9804 -0.8451
 2281TIP3    H228479   0.163   3.439   2.864  1.5247  0.0877  0.4250
 2282TIP3   OH228480   2.584   1.453   3.657  0.7114 -0.2638 -0.4573
 2282TIP3    H128481   2.523   1.388   3.691 -1.3842  0.8432 -1.8363
 2282TIP3    H228482   2.669   1.411   3.661 -0.0595 -1.8074  1.7919
 2283TIP3   OH228483   6.590   5.527   4.260  0.1921 -0.0963  0.5359
 2283TIP3    H128484   6.612   5.433   4.256  0.7253 -0.0506  1.7577
 2283TIP3    H228485   6.495   5.529   4.262  0.1813 -0.6721  1.1712
 2284TIP3   OH228486   3.954   5.270   0.962  0.2214 -0.6887  0.0256
 2284TIP3    H128487   4.044   5.264   0.930  0.3629 -0.6123  0.4063
 2284TIP3    H228488   3.901   5.232   0.892  0.1635  2.4716 -1.8040
 2285TIP3   OH228489   3.313   0.471   1.908 -0.6158  0.3842  0.0893
 2285TIP3    H128490   3.395   0.463   1.956 -1.2281  0.1806  1.1193
 2285TIP3    H228491   3.313   0.395   1.848 -0.0067  0.4570 -0.0068
 2286TIP3   OH228492   4.115   0.015   3.959 -0.1758  0.4703  0.2610
 2286TIP3    H128493   4.097   0.106   3.986 -0.3434  0.6389 -0.4138
 2286TIP3    H228494   4.120  -0.033   4.042  1.4979  1.3689  0.7315
 2287TIP3   OH228495   4.002   0.488   3.480 -0.0775  0.0633 -0.4416
 2287TIP3    H128496   4.041   0.535   3.406 -1.1462  1.3834 -0.2109
 2287TIP3    H228497   4.056   0.411   3.491  1.0212  0.6333 -1.6304
 2288TIP3   OH228498   4.752   0.517   1.760 -0.5007 -0.1649 -0.0588
 2288TIP3    H128499   4.778   0.426   1.776 -1.0121  0.0109  2.1624
 2288TIP3    H228500   4.656   0.513   1.750 -0.6854  0.2280  1.3160
 2289TIP3   OH228501   1.668   0.807   1.670  0.5201  0.2267  0.4470
 2289TIP3    H128502   1.694   0.746   1.601  0.5576 -2.0959  2.4206
 2289TIP3    H228503   1.702   0.892   1.640  1.4464 -0.8688 -1.8512
 2290TIP3   OH228504   3.129   5.921   2.115  0.2635  0.5534 -0.0028
 2290TIP3    H128505   3.140   5.977   2.192 -3.3044  0.7034  0.5735
 2290TIP3    H228506   3.104   5.980   2.045  2.1670  0.2503 -0.9913
 2291TIP3   OH228507   6.537   1.628   3.438 -0.6022  0.1528 -0.5933
 2291TIP3    H128508   6.535   1.719   3.407  2.1430  0.4182 -0.2101
 2291TIP3    H228509   6.553   1.635   3.532  0.5362 -0.7051 -0.7045
 2292TIP3   OH228510   4.155   2.093   3.554  0.7503 -0.2978  0.4845
 2292TIP3    H128511   4.206   2.153   3.608  2.0156 -0.0149 -0.9499
 2292TIP3    H228512   4.096   2.150   3.505  0.1253 -0.4831  1.0149
 2293TIP3   OH228513   4.782   4.451   1.308  0.6765  0.4851  0.3358
 2293TIP3    H128514   4.836   4.376   1.337  1.9865  0.9480 -0.7918
 2293TIP3    H228515   4.735   4.418   1.232  0.2141  0.4263  0.6416
 2294TIP3   OH228516   5.929   5.777   4.985 -0.7817  0.0649  0.1363
 2294TIP3    H128517   5.855   5.717   4.988 -0.2345 -0.6761 -0.5465
 2294TIP3    H228518   5.949   5.796   5.077 -2.2219  0.8238  0.3194
 2295TIP3   OH228519   5.038   2.397   3.942 -0.0606  0.2822  0.2889
 2295TIP3    H128520   4.982   2.339   3.891 -1.1167  0.0347  1.6777
 2295TIP3    H228521   5.077   2.455   3.877  1.2366 -2.0797 -1.1997
 2296TIP3   OH228522   1.610   2.600   4.859 -0.2759 -0.1319  0.1359
 2296TIP3    H128523   1.595   2.623   4.767 -0.7497 -0.1748  0.2012
 2296TIP3    H228524   1.619   2.504   4.859 -1.1468 -0.2235  0.2458
 2297TIP3   OH228525   5.081   3.346   3.030 -0.3489 -0.0380 -0.2520
 2297TIP3    H128526   5.135   3.269   3.015 -1.0434 -1.0037  1.7776
 2297TIP3    H228527   5.142   3.412   3.063  0.1594  0.1534 -1.5043
 2298TIP3   OH228528   5.648   0.694   2.523 -0.3466  0.8341 -0.6287
 2298TIP3    H128529   5.596   0.737   2.591  0.0268 -0.9486  0.8384
 2298TIP3    H228530   5.605   0.719   2.441 -3.5208 -0.4819  0.4943
 2299TIP3   OH228531   5.393   6.111   3.383 -0.0269 -0.1650  0.1474
 2299TIP3    H128532   5.311   6.161   3.381 -0.2375 -0.4788  0.8116
 2299TIP3    H228533   5.436   6.135   3.301 -0.3087  0.7901  0.2555
 2300TIP3   OH228534   5.398   0.414   2.440 -0.3557  0.5653  0.4412
 2300TIP3    H128535   5.334   0.366   2.492 -0.6956  1.2476  0.6593
 2300TIP3    H228536   5.417   0.492   2.491  2.2325 -0.5823  1.4142
 2301TIP3   OH228537   0.435   0.877   1.553  0.6408 -0.0653  0.0024
 2301TIP3    H128538   0.456   0.878   1.460  0.8047 -0.5893  0.0293
 2301TIP3    H228539   0.484   0.951   1.590  1.5773 -0.6157 -0.1210
 2302TIP3   OH228540   3.544   6.139   0.511 -0.1475 -0.0158  0.4068
 2302TIP3    H128541   3.633   6.158   0.481 -0.3844  1.9649  0.8015
 2302TIP3    H228542   3.515   6.221   0.552 -2.2595 -0.5212  0.0345
 2303TIP3   OH228543   5.499   2.721   4.450  0.6900  0.2388 -0.3000
 2303TIP3    H128544   5.556   2.656   4.489  0.0628  0.2785  0.7223
 2303TIP3    H228545   5.417   2.713   4.499  0.1150  0.7812 -1.1491
 2304TIP3   OH228546   3.024   3.905   1.986 -0.1240  0.1890  0.2282
 2304TIP3    H128547   3.097   3.843   1.978 -0.0320  0.1568  1.2092
 2304TIP3    H228548   2.985   3.907   1.898  0.9735  0.1156 -0.2781
 2305TIP3   OH228549   2.165   5.482   3.683 -0.2315 -0.3964  0.0151
 2305TIP3    H128550   2.153   5.556   3.742 -0.6110 -0.1469 -0.3701
 2305TIP3    H228551   2.246   5.440   3.712 -0.4455 -0.3086  0.7475
 2306TIP3   OH228552   6.042   5.679   4.689 -0.1798 -0.1563  0.1438
 2306TIP3    H128553   6.031   5.708   4.779 -0.5139  1.3583 -0.3617
 2306TIP3    H228554   6.113   5.614   4.693  0.5179  0.6395  1.3484
 2307TIP3   OH228555   0.884   3.791   3.497  0.5616  0.2016 -0.4931
 2307TIP3    H128556   0.904   3.716   3.552 -0.9575 -0.7714 -1.1906
 2307TIP3    H228557   0.857   3.859   3.559  0.1053 -0.4588  0.0532
 2308TIP3   OH228558   2.814   4.011   2.647  0.4092  0.1785 -0.4735
 2308TIP3    H128559   2.844   4.095   2.612 -1.0986  0.1787 -1.9040
 2308TIP3    H228560   2.877   3.990   2.715  0.5544  2.7203  0.2966
 2309TIP3   OH228561   6.189   4.384   3.412  0.3457 -0.2426 -0.1157
 2309TIP3    H128562   6.223   4.309   3.363 -1.6559 -0.2901 -1.5640
 2309TIP3    H228563   6.248   4.456   3.390  0.8008 -0.8062 -0.7770
 2310TIP3   OH228564   4.554   0.927   1.581 -0.4176  0.2476  0.2493
 2310TIP3    H128565   4.526   1.014   1.552 -1.0817 -0.3858 -1.0417
 2310TIP3    H228566   4.500   0.909   1.658 -1.2930  0.3781 -0.3294
 2311TIP3   OH228567   0.368   4.314   3.193  0.2694  0.1246  0.5337
 2311TIP3    H128568   0.331   4.244   3.139 -1.2816  0.9091  0.5244
 2311TIP3    H228569   0.423   4.364   3.133  1.8877 -1.3784  0.6694
 2312TIP3   OH228570   5.472   1.427   2.526  0.4822 -0.1081  0.2942
 2312TIP3    H128571   5.505   1.399   2.440  0.9595  0.6280  0.2332
 2312TIP3    H228572   5.390   1.379   2.537 -0.0850  0.5241 -1.0134
 2313TIP3   OH228573   3.981   6.069   1.495 -0.3684  0.1323 -0.3792
 2313TIP3    H128574   3.935   6.151   1.509 -1.6601 -0.4346 -1.1544
 2313TIP3    H228575   4.063   6.078   1.544  0.4235  2.6264 -2.0068
 2314TIP3   OH228576   0.010   0.561   0.911 -0.5343  0.0119 -0.2056
 2314TIP3    H128577  -0.066   0.523   0.954 -0.3017  0.6095  0.7509
 2314TIP3    H228578   0.082   0.502   0.933 -0.3740  0.4320  0.4180
 2315TIP3   OH228579   2.771   1.942   3.620  0.0262 -0.0557 -0.1184
 2315TIP3    H128580   2.684   1.963   3.585  0.3352  0.4435 -0.5811
 2315TIP3    H228581   2.791   1.856   3.583 -1.6513 -1.7442  2.5277
 2316TIP3   OH228582   3.218   5.372   2.102  0.2282 -0.0544 -0.8690
 2316TIP3    H128583   3.190   5.367   2.011 -2.0740 -1.0512 -0.1996
 2316TIP3    H228584   3.228   5.466   2.119  2.9982  0.0802 -2.6976
 2317TIP3   OH228585   1.819   1.669   3.222  0.2522  0.0453  0.5445
 2317TIP3    H128586   1.869   1.714   3.154  1.1586 -1.8066 -0.0702
 2317TIP3    H228587   1.756   1.615   3.175 -0.1099 -0.1469  1.2273
 2318TIP3   OH228588   1.935   0.930   8.482  0.2964 -0.7411 -0.1570
 2318TIP3    H128589   1.982   0.871   8.541 -0.0195 -2.0919 -1.1879
 2318TIP3    H228590   2.002   0.989   8.448  0.9388 -1.5609 -0.3333
 2319TIP3   OH228591   0.913   4.404   4.074  0.0541  0.3137 -0.4092
 2319TIP3    H128592   1.007   4.413   4.063  0.0378 -0.8945 -1.9398
 2319TIP3    H228593   0.887   4.480   4.126  2.0606 -0.1407  1.3760
 2320TIP3   OH228594   0.765   6.604   1.182  0.0320  0.3944 -0.4032
 2320TIP3    H128595   0.744   6.512   1.200  2.2818 -0.1193 -0.1276
 2320TIP3    H228596   0.686   6.652   1.209 -0.3670 -1.2430  1.6568
 2321TIP3   OH228597   1.352   0.007   4.222  0.1985 -0.3089 -0.2609
 2321TIP3    H128598   1.368  -0.082   4.189 -0.0354 -0.4877  0.0954
 2321TIP3    H228599   1.440   0.042   4.238  0.3022 -0.3506 -0.7291
 2322TIP3   OH228600   0.210   3.862   3.423 -0.1532  0.6394  0.1276
 2322TIP3    H128601   0.246   3.838   3.337 -1.2105  2.9084 -1.0430
 2322TIP3    H228602   0.115   3.857   3.410 -0.3597 -1.2008  1.9099
 2323TIP3   OH228603   2.650   2.242   1.719  0.5349 -0.3166 -0.3852
 2323TIP3    H128604   2.713   2.313   1.724  0.9990 -0.7035 -0.7043
 2323TIP3    H228605   2.624   2.227   1.810 -0.1126  0.7334 -0.3715
 2324TIP3   OH228606   3.454   2.849   1.566  0.4895 -0.1717 -0.7373
 2324TIP3    H128607   3.504   2.887   1.639 -1.5735  1.4784 -0.0870
 2324TIP3    H228608   3.521   2.814   1.507  2.3455  0.7234  0.7280
 2325TIP3   OH228609   2.908   2.426   2.800  0.0763  0.5470 -0.1391
 2325TIP3    H128610   2.909   2.457   2.709 -0.4205 -0.0626 -0.3640
 2325TIP3    H228611   2.998   2.398   2.817  0.6615  2.5058  0.2282
 2326TIP3   OH228612   4.973   3.436   1.885 -0.3652  0.2135  0.0247
 2326TIP3    H128613   4.890   3.395   1.908 -0.7887 -0.0158 -1.7461
 2326TIP3    H228614   5.040   3.385   1.931 -1.1162 -0.3478  0.5067
 2327TIP3   OH228615   3.386   2.477   2.652  0.6269 -0.9085 -0.3685
 2327TIP3    H128616   3.336   2.419   2.594 -0.8731 -1.1604  1.0871
 2327TIP3    H228617   3.442   2.527   2.593  0.7115 -2.6005 -1.8328
 2328TIP3   OH228618   0.398   5.824   2.570  0.2613 -0.3081 -0.1609
 2328TIP3    H128619   0.372   5.736   2.598  0.6858 -0.5104 -0.3993
 2328TIP3    H228620   0.340   5.843   2.495 -0.7114  0.1397  0.6748
 2329TIP3   OH228621   5.520   5.691   2.346  0.4022 -0.0028 -0.4086
 2329TIP3    H128622   5.585   5.731   2.289  1.0397  0.5167  0.6312
 2329TIP3    H228623   5.541   5.726   2.433 -1.6731  0.7050 -0.1389
 2330TIP3   OH228624   2.629   1.268   2.711 -0.1076 -0.4123 -0.3312
 2330TIP3    H128625   2.554   1.241   2.765  1.0725 -2.3477  0.4632
 2330TIP3    H228626   2.681   1.188   2.700  2.6950  1.1166  0.5503
 2331TIP3   OH228627   5.676   4.788   3.542 -0.3347  0.3477 -0.0626
 2331TIP3    H128628   5.675   4.738   3.623  0.1277  0.3524 -0.0534
 2331TIP3    H228629   5.659   4.879   3.569  0.1560  0.4021  0.0663
 2332TIP3   OH228630   6.767   0.285   3.021 -0.2696  0.1190  0.4931
 2332TIP3    H128631   6.856   0.250   3.011 -0.6398 -1.2794  1.6839
 2332TIP3    H228632   6.712   0.224   2.972 -0.8067 -0.3200  1.6190
 2333TIP3   OH228633   4.225   1.587   4.118  0.0150  0.1144  0.3122
 2333TIP3    H128634   4.295   1.532   4.153  1.2114  0.2335 -1.7552
 2333TIP3    H228635   4.208   1.651   4.187  0.2648 -1.3462  1.7924
 2334TIP3   OH228636   0.362   1.491   1.479  0.7527  0.1199  0.1573
 2334TIP3    H128637   0.342   1.406   1.440 -1.1486  0.7323 -0.2762
 2334TIP3    H228638   0.440   1.521   1.433  0.5239 -0.6865 -0.7753
 2335TIP3   OH228639   6.156   3.563   2.100  0.0697  0.6704  0.3571
 2335TIP3    H128640   6.201   3.489   2.058 -1.4589  1.2918 -2.6715
 2335TIP3    H228641   6.198   3.641   2.063  1.2795  1.4167  3.0837
 2336TIP3   OH228642   1.889   2.232   4.226  0.4349  0.6394 -0.5504
 2336TIP3    H128643   1.812   2.188   4.262  1.6698 -0.5653  0.7474
 2336TIP3    H228644   1.854   2.311   4.185 -1.3670  0.6985  0.9444
 2337TIP3   OH228645   1.918   3.234   4.119  0.0288  0.4648  0.5738
 2337TIP3    H128646   1.982   3.233   4.048  1.9090  0.5295  2.1821
 2337TIP3    H228647   1.893   3.143   4.130  0.4342  0.3302  0.4117
 2338TIP3   OH228648   2.708   1.936   0.529  0.4021  0.1397  0.0640
 2338TIP3    H128649   2.669   1.960   0.614 -0.9505  0.3254 -0.5851
 2338TIP3    H228650   2.742   1.848   0.543 -0.2603 -0.0338  0.6643
 2339TIP3   OH228651   0.894   5.153   4.102 -0.7522  0.5923 -0.8857
 2339TIP3    H128652   0.889   5.198   4.186 -1.9176 -1.0718 -0.0008
 2339TIP3    H228653   0.861   5.217   4.039 -1.9897  1.1417  0.2584
 2340TIP3   OH228654   0.171   0.399   3.763  0.3515  0.1023 -0.4769
 2340TIP3    H128655   0.121   0.364   3.836 -1.9275 -1.4384 -2.5972
 2340TIP3    H228656   0.262   0.384   3.787 -0.3299 -0.6825  1.8684
 2341TIP3   OH228657   5.761   3.867   1.915  0.5241 -0.0219 -0.1751
 2341TIP3    H128658   5.840   3.813   1.918  0.4397 -0.2119 -1.0722
 2341TIP3    H228659   5.791   3.954   1.943  0.5838 -0.5895  1.6204
 2342TIP3   OH228660   1.869   4.398   4.340  0.1662 -0.4300  0.4115
 2342TIP3    H128661   1.822   4.399   4.423  0.5333  0.4669  0.6288
 2342TIP3    H228662   1.952   4.443   4.360 -0.2489  0.9147 -0.7079
 2343TIP3   OH228663   2.145   4.341   2.474  0.2250  0.0313  0.2462
 2343TIP3    H128664   2.194   4.272   2.429  0.9253  0.9104 -0.3925
 2343TIP3    H228665   2.206   4.372   2.541 -0.6936 -1.0524  1.6206
 2344TIP3   OH228666   0.851   0.566   2.555 -0.5836  0.3211 -0.5488
 2344TIP3    H128667   0.818   0.550   2.467 -2.8393 -0.4086  0.3415
 2344TIP3    H228668   0.839   0.482   2.600  3.4144 -0.2958 -0.2916
 2345TIP3   OH228669   5.396   5.020   3.522 -0.0070 -0.0656 -0.0708
 2345TIP3    H128670   5.376   5.050   3.611  0.0488 -0.8163  0.2016
 2345TIP3    H228671   5.337   4.947   3.507 -0.4335  0.4405 -0.8907
 2346TIP3   OH228672   5.154   4.124   1.502  0.0672  0.6390  0.5063
 2346TIP3    H128673   5.149   4.087   1.414  0.5054  0.4934  0.5369
 2346TIP3    H228674   5.116   4.057   1.558 -0.6423  0.9271  0.3797
 2347TIP3   OH228675   1.256   1.692   4.381 -0.3696 -0.3237 -0.3640
 2347TIP3    H128676   1.218   1.609   4.408  1.5284 -1.1097  0.0596
 2347TIP3    H228677   1.347   1.687   4.408  0.2384  1.1809 -1.8993
 2348TIP3   OH228678   0.300   1.572   2.371 -0.4722 -0.0114 -0.2835
 2348TIP3    H128679   0.392   1.592   2.391 -0.5483  1.2790 -1.0840
 2348TIP3    H228680   0.304   1.518   2.292 -0.3814 -0.6748  0.1663
 2349TIP3   OH228681   0.064   4.039   2.164  0.1386  0.1374 -0.0301
 2349TIP3    H128682   0.088   4.069   2.076 -0.5159 -0.4038 -0.4038
 2349TIP3    H228683  -0.010   3.980   2.150  0.7340 -0.8524  0.7698
 2350TIP3   OH228684   2.659   3.458   4.448  0.0929 -0.1494  0.2529
 2350TIP3    H128685   2.661   3.441   4.354 -1.3284  0.4533  0.0976
 2350TIP3    H228686   2.589   3.402   4.482 -1.2295  1.5938  0.5126
 2351TIP3   OH228687   0.719   3.070   1.073 -0.2670  0.4577  0.1301
 2351TIP3    H128688   0.659   3.133   1.112 -0.6184  0.3733 -0.2647
 2351TIP3    H228689   0.667   3.027   1.004 -0.2629 -0.7651  0.8523
 2352TIP3   OH228690   2.120   5.132   2.706  0.0335  0.0791  0.2045
 2352TIP3    H128691   2.071   5.181   2.771  0.6355 -0.3046  0.9682
 2352TIP3    H228692   2.175   5.073   2.757  0.9893  0.2131 -0.6360
 2353TIP3   OH228693   0.145   4.901   3.164 -0.4886  0.2028  0.4599
 2353TIP3    H128694   0.221   4.948   3.198 -0.4137 -0.5050  1.2860
 2353TIP3    H228695   0.131   4.830   3.225 -0.2281 -1.2354 -1.0847
 2354TIP3   OH228696   3.131   2.195   8.608  0.1220 -0.4911  0.1326
 2354TIP3    H128697   3.169   2.279   8.634  0.8592 -0.2642 -1.4994
 2354TIP3    H228698   3.040   2.200   8.636 -0.5181  1.8825 -1.9612
 2355TIP3   OH228699   0.356   0.843   2.693  0.2824 -0.3158  0.5858
 2355TIP3    H128700   0.288   0.892   2.739 -0.4222 -2.3634  1.8449
 2355TIP3    H228701   0.333   0.751   2.706  1.1345 -1.0462 -2.2805
 2356TIP3   OH228702   4.655   2.597   1.904 -0.0706  0.3240 -0.0037
 2356TIP3    H128703   4.689   2.672   1.953 -0.4437  0.0754  0.6528
 2356TIP3    H228704   4.729   2.566   1.853  0.2399  0.7904  0.1560
 2357TIP3   OH228705   4.664   1.616   1.257  0.6324 -0.0993  0.2866
 2357TIP3    H128706   4.583   1.573   1.230  0.5341  0.0972  0.2620
 2357TIP3    H228707   4.634   1.694   1.305  0.8060  0.0623  0.1328
 2358TIP3   OH228708   2.625   0.744   0.074  0.2084 -0.0691 -0.3401
 2358TIP3    H128709   2.680   0.666   0.089 -1.4045 -1.9237 -3.0403
 2358TIP3    H228710   2.555   0.737   0.138  0.5759 -0.3369  0.0375
 2359TIP3   OH228711   1.145   5.122   0.492  0.1268  0.0597 -0.1352
 2359TIP3    H128712   1.238   5.115   0.475  0.3865 -0.3460  1.2646
 2359TIP3    H228713   1.136   5.202   0.545 -0.1820 -0.3509  0.4521
 2360TIP3   OH228714   3.481   6.446   2.678 -0.3381 -0.0541 -0.0041
 2360TIP3    H128715   3.394   6.452   2.639  0.2727 -0.1504 -1.4471
 2360TIP3    H228716   3.476   6.370   2.737 -1.1615 -0.1804 -0.2282
 2361TIP3   OH228717   4.728   3.106   4.907  0.8647  0.5681  0.3119
 2361TIP3    H128718   4.696   3.184   4.951 -0.9612  2.5239 -3.8729
 2361TIP3    H228719   4.665   3.037   4.929  0.4835  1.2149  1.2818
 2362TIP3   OH228720   5.280   0.886   1.209 -0.4202  0.0504  0.0997
 2362TIP3    H128721   5.259   0.815   1.269  1.6968 -0.0763  0.7530
 2362TIP3    H228722   5.279   0.844   1.122  2.3396 -1.2624  0.5870
 2363TIP3   OH228723   5.470   3.402   2.038  0.2230 -0.2355  0.0066
 2363TIP3    H128724   5.512   3.317   2.044 -0.1402 -0.3497  1.1900
 2363TIP3    H228725   5.488   3.444   2.123 -0.3017  0.5259 -0.2454
 2364TIP3   OH228726   0.251   4.440   0.962  0.0976 -0.2644 -0.7244
 2364TIP3    H128727   0.161   4.457   0.990  0.0907 -1.0020 -0.2654
 2364TIP3    H228728   0.244   4.420   0.869 -0.3319 -1.1277 -0.5152
 2365TIP3   OH228729   0.230   5.834   2.956  0.0777  0.0217  0.3461
 2365TIP3    H128730   0.139   5.860   2.943  0.4866  0.9474 -0.7674
 2365TIP3    H228731   0.233   5.742   2.930 -0.3915  0.1836 -0.2935
 2366TIP3   OH228732   1.673   0.324   1.898 -0.2606 -0.3540 -0.1614
 2366TIP3    H128733   1.614   0.380   1.849 -1.4743 -1.1515  0.3420
 2366TIP3    H228734   1.624   0.243   1.912  0.6199 -0.7130  1.0318
 2367TIP3   OH228735   4.034   5.137   2.594 -0.0364  0.1587  0.0547
 2367TIP3    H128736   3.988   5.204   2.644  0.0465 -0.6946  1.3070
 2367TIP3    H228737   4.126   5.147   2.618  0.2790  0.9404 -1.3648
 2368TIP3   OH228738   4.860   0.964   4.197  0.9613 -0.0690  0.5320
 2368TIP3    H128739   4.948   0.959   4.159  0.3477  0.6707 -1.0386
 2368TIP3    H228740   4.859   1.048   4.242  0.5022  0.7726 -0.9850
 2369TIP3   OH228741   4.095   6.025   2.673  0.2858  0.1003 -0.0266
 2369TIP3    H128742   4.148   6.036   2.752  0.9773  1.2577 -0.6255
 2369TIP3    H228743   4.140   5.957   2.623 -0.6264 -1.2662  0.9232
 2370TIP3   OH228744   5.398   3.963   0.935 -0.5620 -0.6160 -0.1525
 2370TIP3    H128745   5.365   3.966   0.845  1.0956  0.9049 -0.7871
 2370TIP3    H228746   5.471   4.025   0.935  1.2544 -2.6152  1.5334
 2371TIP3   OH228747   6.196   2.039   4.623 -0.3770  0.6456 -0.6494
 2371TIP3    H128748   6.283   2.041   4.583 -0.7203  0.0193 -1.4432
 2371TIP3    H228749   6.145   1.982   4.566 -0.7826 -0.5886  0.9089
 2372TIP3   OH228750   3.895   5.282   4.981 -0.3331 -0.3882  0.4703
 2372TIP3    H128751   3.883   5.229   5.060 -0.0184 -0.7773  0.2598
 2372TIP3    H228752   3.981   5.322   4.992  1.1356 -2.8785 -1.0527
 2373TIP3   OH228753   5.184   6.619   3.836 -0.1560 -0.3832 -0.2712
 2373TIP3    H128754   5.252   6.687   3.838 -0.3972 -0.1461  0.0879
 2373TIP3    H228755   5.152   6.615   3.927 -0.2403 -0.8800 -0.3216
 2374TIP3   OH228756   4.465   3.582   2.406 -0.3581 -0.2666 -0.2565
 2374TIP3    H128757   4.485   3.673   2.429  2.7328 -0.0809 -3.0186
 2374TIP3    H228758   4.393   3.587   2.343  0.3635  0.3598 -1.0378
 2375TIP3   OH228759   1.549   6.033   1.881 -0.2015 -0.0407 -0.2863
 2375TIP3    H128760   1.510   6.108   1.836  0.9982 -0.3536 -1.9401
 2375TIP3    H228761   1.503   6.029   1.965  1.3962  4.0731  1.0045
 2376TIP3   OH228762   1.858   1.103   0.502 -0.0238  0.1214  0.2789
 2376TIP3    H128763   1.943   1.116   0.461 -0.5158  1.2779 -0.4248
 2376TIP3    H228764   1.866   1.145   0.588  0.2012  0.0055  0.3136
 2377TIP3   OH228765   2.206   0.359   1.263  0.5210  0.2615 -0.3176
 2377TIP3    H128766   2.141   0.307   1.309  0.3980 -0.4331 -1.2238
 2377TIP3    H228767   2.290   0.326   1.295  0.4585 -1.0217 -1.3724
 2378TIP3   OH228768   3.159   4.419   3.336  0.4041 -0.1948 -0.4844
 2378TIP3    H128769   3.074   4.378   3.354 -1.5297  4.0038  1.1872
 2378TIP3    H228770   3.174   4.401   3.243 -1.3037 -2.6309 -0.4006
 2379TIP3   OH228771   6.802   5.799   3.015  0.5708  0.0113  0.5602
 2379TIP3    H128772   6.788   5.765   2.926  1.5316 -0.6088  0.6262
 2379TIP3    H228773   6.715   5.817   3.047  0.1710 -0.2364 -0.3367
 2380TIP3   OH228774   0.496   4.468   1.694  0.0185  0.4910 -0.4753
 2380TIP3    H128775   0.572   4.507   1.737  0.0836  0.1191 -0.2479
 2380TIP3    H228776   0.490   4.514   1.610 -0.5277  1.7054  0.2151
 2381TIP3   OH228777   3.784   1.921   2.433 -0.6399 -0.7681 -0.6486
 2381TIP3    H128778   3.694   1.909   2.465 -0.8433  0.3043 -0.7766
 2381TIP3    H228779   3.837   1.921   2.512 -1.0963  1.4615 -0.2604
 2382TIP3   OH228780   4.506   1.351   3.600 -0.7583 -0.2318  0.2778
 2382TIP3    H128781   4.563   1.302   3.541 -0.3489  1.9961 -1.2837
 2382TIP3    H228782   4.565   1.405   3.652 -1.2902  2.1587 -1.4141
 2383TIP3   OH228783   2.297   0.372   3.447  0.2115 -0.1640 -0.4166
 2383TIP3    H128784   2.228   0.309   3.427 -0.8133  0.4097  1.1446
 2383TIP3    H228785   2.335   0.393   3.362 -2.3827  0.4366 -1.5401
 2384TIP3   OH228786   4.011   1.385   3.304 -0.1819 -0.4064  0.2522
 2384TIP3    H128787   3.961   1.445   3.359 -2.4881 -1.2227 -0.8288
 2384TIP3    H228788   4.006   1.423   3.216  2.8501  0.5142  0.3536
 2385TIP3   OH228789   1.251   3.644   0.784  0.6457  0.3903 -0.7064
 2385TIP3    H128790   1.311   3.714   0.760 -0.4330  1.8964  0.7847
 2385TIP3    H228791   1.232   3.658   0.876  0.4437 -1.9469 -0.3207
 2386TIP3   OH228792   2.368   3.322   2.622 -0.2620  0.1252  0.2056
 2386TIP3    H128793   2.391   3.306   2.714 -0.4454 -1.8932 -0.0336
 2386TIP3    H228794   2.317   3.402   2.623 -0.2579  0.1382  1.8818
 2387TIP3   OH228795   1.283   1.199   2.701 -0.8805 -0.0903 -0.6130
 2387TIP3    H128796   1.188   1.202   2.695 -0.8923  2.6585 -0.2495
 2387TIP3    H228797   1.314   1.230   2.616 -0.3681  0.8346 -0.1083
 2388TIP3   OH228798   3.494   3.516   2.067 -0.0625  0.1585 -0.1476
 2388TIP3    H128799   3.423   3.469   2.024 -0.4237 -0.5647  1.1582
 2388TIP3    H228800   3.451   3.565   2.138  0.7628 -0.7250  1.0127
 2389TIP3   OH228801   4.513   2.644   2.572 -0.6126  0.2857 -0.2049
 2389TIP3    H128802   4.585   2.582   2.578  1.5124  2.5214 -0.7730
 2389TIP3    H228803   4.472   2.643   2.658 -0.6510 -1.8519 -0.2126
 2390TIP3   OH228804   6.591   1.424   4.967 -0.6061  0.0133 -0.1806
 2390TIP3    H128805   6.675   1.381   4.984 -0.0157  1.4862  0.7896
 2390TIP3    H228806   6.549   1.429   5.053 -0.4697  1.7310 -0.1910
 2391TIP3   OH228807   4.478   3.845   3.352  0.4648  0.0514  0.2895
 2391TIP3    H128808   4.411   3.905   3.384  1.3002  2.4873 -2.1234
 2391TIP3    H228809   4.541   3.838   3.424 -0.1316  1.3215  0.9655
 2392TIP3   OH228810   0.436   3.392   2.484 -0.0180  0.1164 -0.2957
 2392TIP3    H128811   0.452   3.299   2.502  0.1536 -0.0736 -1.3509
 2392TIP3    H228812   0.462   3.403   2.393 -2.7612  0.5306 -1.1282
 2393TIP3   OH228813   3.665   1.623   0.247 -0.1888  0.3203  0.1268
 2393TIP3    H128814   3.712   1.548   0.210 -1.1590  0.1350 -0.7640
 2393TIP3    H228815   3.631   1.670   0.171 -2.2361 -0.0851  0.7458
 2394TIP3   OH228816   3.260   1.377   3.942 -0.0086  0.2500  0.5172
 2394TIP3    H128817   3.260   1.327   4.024 -0.0641 -2.5426 -1.0977
 2394TIP3    H228818   3.347   1.362   3.905 -0.3253  0.6907 -0.4149
 2395TIP3   OH228819   5.600   3.248   2.987  0.2414 -0.1229 -0.2333
 2395TIP3    H128820   5.665   3.248   3.057  0.8579 -1.9687 -0.7489
 2395TIP3    H228821   5.603   3.337   2.951  0.9226  0.4363  1.1532
 2396TIP3   OH228822   4.881   2.279   0.497 -0.2215 -0.0652  0.3574
 2396TIP3    H128823   4.895   2.244   0.409  0.6489 -0.0202  0.4684
 2396TIP3    H228824   4.960   2.255   0.545 -0.5800  0.1315  1.0561
 2397TIP3   OH228825   1.907   1.043   2.884  0.3761  0.3492  0.4916
 2397TIP3    H128826   1.862   1.039   2.799 -0.5243 -0.4395  0.9958
 2397TIP3    H228827   2.000   1.050   2.861  0.2544 -1.1352 -0.5715
 2398TIP3   OH228828   3.619   2.074   1.456 -0.2104  0.4541 -0.1784
 2398TIP3    H128829   3.657   2.103   1.373  1.5268 -0.0419  0.3832
 2398TIP3    H228830   3.594   1.983   1.441  0.9126  0.0871  0.0531
 2399TIP3   OH228831   4.567   3.227   1.236  0.0844 -0.5946  0.3527
 2399TIP3    H128832   4.616   3.306   1.257  0.8951 -1.3236  1.2869
 2399TIP3    H228833   4.629   3.171   1.190 -0.6275 -0.5131 -0.7596
 2400TIP3   OH228834   0.241   4.075   2.726  0.1613 -0.0178  0.1175
 2400TIP3    H128835   0.200   4.160   2.708  1.2000  0.1438 -1.7932
 2400TIP3    H228836   0.335   4.093   2.722  0.4133 -0.9920  1.1554
 2401TIP3   OH228837   3.177   5.073   0.411  0.1940  0.2571 -0.2825
 2401TIP3    H128838   3.251   5.124   0.377  0.5694  1.4954  2.1806
 2401TIP3    H228839   3.100   5.116   0.375  0.5540  1.8982  0.7812
 2402TIP3   OH228840   0.510   3.918   3.070  0.2305  0.8738  0.0444
 2402TIP3    H128841   0.571   3.909   2.996 -0.1699  0.9723 -0.3028
 2402TIP3    H228842   0.557   3.971   3.134  1.6949 -1.5199  1.0872
 2403TIP3   OH228843   6.586   4.325   3.084  0.3434  0.1953 -0.6631
 2403TIP3    H128844   6.647   4.264   3.044  0.6271  0.6481 -0.9385
 2403TIP3    H228845   6.611   4.329   3.176  0.4523  0.0460 -0.6869
 2404TIP3   OH228846   0.097   4.494   2.068 -0.5133 -0.5320 -0.7194
 2404TIP3    H128847   0.137   4.549   2.001  0.6905  0.1611  0.5155
 2404TIP3    H228848   0.080   4.411   2.023  1.7496 -0.6492 -1.5314
 2405TIP3   OH228849   5.995   6.578   1.704 -0.1451 -0.2153  0.2135
 2405TIP3    H128850   6.014   6.662   1.662 -1.3504 -0.0644 -0.0798
 2405TIP3    H228851   5.947   6.601   1.783  1.8744 -0.5167  1.5823
 2406TIP3   OH228852   1.908   5.111   1.046 -0.0700 -0.2636 -0.1793
 2406TIP3    H128853   1.866   5.197   1.053  1.8257  0.6429  0.9937
 2406TIP3    H228854   1.854   5.054   1.101 -0.4164  0.5984  0.4019
 2407TIP3   OH228855   0.601   2.932   0.852  0.1042 -0.6005  0.2421
 2407TIP3    H128856   0.649   2.882   0.786  1.3403  0.0503  0.6291
 2407TIP3    H228857   0.564   3.006   0.803 -0.5584 -1.1234 -0.0623
 2408TIP3   OH228858   3.803   4.925   0.565  0.0893 -0.1634 -0.2533
 2408TIP3    H128859   3.767   5.011   0.544  1.3776  1.3470  3.0956
 2408TIP3    H228860   3.862   4.906   0.492 -0.0652  1.8826 -0.9871
 2409TIP3   OH228861   2.322   4.177   2.716  0.1104  0.3664 -0.6771
 2409TIP3    H128862   2.412   4.208   2.703  0.0731  0.3039 -1.0818
 2409TIP3    H228863   2.293   4.222   2.796  0.8304 -0.3423  0.0118
 2410TIP3   OH228864   3.949   2.226   3.391  0.4311  0.0021 -0.0989
 2410TIP3    H128865   3.907   2.180   3.464 -1.5757  2.2242  0.2683
 2410TIP3    H228866   3.890   2.211   3.317 -1.6225  3.6786  0.5656
 2411TIP3   OH228867   6.589   5.346   2.049  0.1356 -0.3007 -0.2471
 2411TIP3    H128868   6.546   5.426   2.020 -3.8176 -1.8129  0.7888
 2411TIP3    H228869   6.628   5.369   2.133 -1.6857  0.4431  0.4571
 2412TIP3   OH228870   2.015   2.423   1.974 -0.0571 -0.3022  0.4297
 2412TIP3    H128871   1.944   2.478   1.942  1.0044  1.5528  1.0949
 2412TIP3    H228872   2.046   2.376   1.897 -1.4021 -0.4532 -0.0342
 2413TIP3   OH228873   0.459   3.319   3.716 -0.0878  0.0605  0.1568
 2413TIP3    H128874   0.550   3.291   3.708  0.6677  2.7143 -2.3981
 2413TIP3    H228875   0.419   3.294   3.633 -2.0896 -1.9807  1.6185
 2414TIP3   OH228876   2.428   3.595   1.325 -0.3125  0.2950  0.2909
 2414TIP3    H128877   2.385   3.621   1.244 -0.6556 -0.5203  0.2020
 2414TIP3    H228878   2.434   3.500   1.320  1.1502  0.3528  0.4858
 2415TIP3   OH228879   3.571   3.181   1.635 -0.1896 -0.0196  0.3127
 2415TIP3    H128880   3.623   3.259   1.656 -1.7059  1.0501  0.2869
 2415TIP3    H228881   3.635   3.112   1.621  1.1615  0.9456  1.4831
 2416TIP3   OH228882   5.727   5.605   4.989 -0.5499  0.2536 -0.0536
 2416TIP3    H128883   5.716   5.511   4.971 -1.3628  0.6336 -1.6800
 2416TIP3    H228884   5.664   5.648   4.932  0.6983  1.8760 -0.2809
 2417TIP3   OH228885   3.717   1.998   2.888 -0.5950 -0.4423 -0.3225
 2417TIP3    H128886   3.651   2.010   2.956  1.2885  1.3211  1.3195
 2417TIP3    H228887   3.725   2.085   2.848  0.6739 -0.6280 -0.5131
 2418TIP3   OH228888   2.459   1.957   1.569 -0.7565  0.4939  0.1204
 2418TIP3    H128889   2.428   1.885   1.515 -0.3960  0.5481 -0.1627
 2418TIP3    H228890   2.396   2.028   1.554 -0.3936  0.6728 -0.6082
 2419TIP3   OH228891   0.896   0.784   1.914  0.2672 -0.2490  0.2207
 2419TIP3    H128892   0.947   0.812   1.838 -0.9657  0.6315 -0.3203
 2419TIP3    H228893   0.956   0.793   1.988  1.3241 -0.6227 -0.5659
 2420TIP3   OH228894   0.959   1.903   0.214 -0.0374  0.1589 -0.3866
 2420TIP3    H128895   0.949   1.986   0.167 -0.7141  0.2908 -0.0079
 2420TIP3    H228896   1.054   1.892   0.221  0.0886  1.6528  0.8691
 2421TIP3   OH228897   3.434   2.590   0.048 -0.3560  0.4739  1.1678
 2421TIP3    H128898   3.466   2.503   0.024  0.4539  0.9958  0.2603
 2421TIP3    H228899   3.362   2.574   0.108 -2.1024 -0.9295 -1.1482
 2422TIP3   OH228900   5.153   4.420   1.828 -0.3178 -0.3176 -0.3094
 2422TIP3    H128901   5.205   4.371   1.764  0.4647  1.3023 -0.9729
 2422TIP3    H228902   5.214   4.438   1.899 -0.6209 -0.3730 -0.0381
 2423TIP3   OH228903   5.197   3.009   3.563  0.8146  0.0719 -0.2908
 2423TIP3    H128904   5.185   3.010   3.468  0.0180 -0.3470 -0.2004
 2423TIP3    H228905   5.156   2.928   3.592  0.3722  0.5619  0.5031
 2424TIP3   OH228906   1.482   3.988   1.177  0.0594  0.1074  0.3079
 2424TIP3    H128907   1.433   3.927   1.123 -0.1963 -0.1151  0.7845
 2424TIP3    H228908   1.450   4.075   1.152  2.5387  0.3563 -2.5766
 2425TIP3   OH228909   1.357   0.160   0.017 -0.2173  0.6542  0.9135
 2425TIP3    H128910   1.311   0.233  -0.025  0.4868  0.2704 -0.5838
 2425TIP3    H228911   1.440   0.153  -0.031 -1.2431 -2.6574 -0.6896
 2426TIP3   OH228912   6.639   3.304   2.419  0.5679  0.0457  0.5125
 2426TIP3    H128913   6.584   3.367   2.373  1.7410 -0.6285 -2.0188
 2426TIP3    H228914   6.717   3.353   2.444  1.1591 -0.1801 -0.8040
 2427TIP3   OH228915   1.668   5.369   0.205  0.4410 -0.2518  0.7400
 2427TIP3    H128916   1.759   5.352   0.226 -0.0125 -0.9418  2.2594
 2427TIP3    H228917   1.625   5.284   0.208 -0.5852  0.2696  1.8403
 2428TIP3   OH228918   4.918   0.330   1.899 -0.9124  0.0660  0.1923
 2428TIP3    H128919   4.899   0.237   1.908 -0.7950 -0.2674 -2.1577
 2428TIP3    H228920   5.013   0.336   1.907 -0.7634 -0.2740 -1.0534
 2429TIP3   OH228921   5.601   1.224   1.501 -0.7909  0.2819  0.1445
 2429TIP3    H128922   5.676   1.182   1.460 -0.5751  2.2046 -1.6008
 2429TIP3    H228923   5.527   1.200   1.445 -1.0952  0.2062  0.5762
 2430TIP3   OH228924   3.250   5.405   1.197 -0.1613 -0.1177 -0.6237
 2430TIP3    H128925   3.277   5.315   1.180  1.3472  0.3199 -0.7720
 2430TIP3    H228926   3.329   5.447   1.231 -0.9959  1.0097 -0.0010
 2431TIP3   OH228927   4.115   2.827   2.667 -0.3612 -0.5524  0.5986
 2431TIP3    H128928   4.085   2.892   2.731 -0.9226 -1.5235  1.3479
 2431TIP3    H228929   4.158   2.760   2.720  0.4360 -0.6843 -0.1907
 2432TIP3   OH228930   5.192   5.281   1.916  0.0808 -0.1134  0.2889
 2432TIP3    H128931   5.224   5.232   1.840  0.0521  0.9608 -0.4416
 2432TIP3    H228932   5.244   5.248   1.989  1.7310  0.4256 -0.5895
 2433TIP3   OH228933   2.498   3.871   4.316  0.1228 -0.3227  0.1601
 2433TIP3    H128934   2.538   3.955   4.340  0.0245  0.0413 -0.9041
 2433TIP3    H228935   2.496   3.872   4.221 -0.7511 -1.1333  0.1581
 2434TIP3   OH228936   6.234   5.780   1.317 -0.2112 -0.6234  0.1274
 2434TIP3    H128937   6.185   5.776   1.399 -1.4538  0.9716 -0.4846
 2434TIP3    H228938   6.173   5.749   1.251  0.5660 -1.2840 -0.3026
 2435TIP3   OH228939   1.288   6.203   2.083  0.4429 -0.6789 -0.1231
 2435TIP3    H128940   1.295   6.128   2.141  0.8866 -0.5746 -0.0318
 2435TIP3    H228941   1.229   6.175   2.013 -0.7825 -0.5114  0.8196
 2436TIP3   OH228942   1.818   6.388   8.555 -0.4951 -0.1947 -0.2573
 2436TIP3    H128943   1.729   6.361   8.577  0.3840 -2.9517  0.2864
 2436TIP3    H228944   1.868   6.306   8.550  1.6479  1.0902 -2.3416
 2437TIP3   OH228945   3.879   4.917   1.035  0.2428 -0.1079  0.3336
 2437TIP3    H128946   3.950   4.981   1.033 -1.5598  2.0901 -2.6522
 2437TIP3    H228947   3.835   4.932   1.119  2.9025 -1.2215  2.0416
 2438TIP3   OH228948   4.699   0.265   0.781 -0.1801  0.0344  0.0604
 2438TIP3    H128949   4.673   0.342   0.831  0.5897  0.1616  0.2786
 2438TIP3    H228950   4.661   0.191   0.828 -0.4559  0.2379  0.1586
 2439TIP3   OH228951   2.021   4.673   2.154 -0.3619 -0.0065 -0.3047
 2439TIP3    H128952   2.106   4.631   2.147 -0.0028  0.3621  1.4050
 2439TIP3    H228953   2.023   4.718   2.239 -2.0584  0.4472 -0.4662
 2440TIP3   OH228954   5.201   6.559   0.377  0.1311  0.4047  0.2790
 2440TIP3    H128955   5.169   6.607   0.301  1.2996  0.5686 -0.1298
 2440TIP3    H228956   5.123   6.543   0.431 -0.6770  0.4502 -0.8570
 2441TIP3   OH228957   4.207   5.529   2.694  0.6227 -0.0076  0.0860
 2441TIP3    H128958   4.211   5.591   2.766 -0.2132  0.7350 -0.4798
 2441TIP3    H228959   4.291   5.537   2.649  1.4731 -1.0672  1.4259
 2442TIP3   OH228960   5.110   1.600   1.390 -0.2516  0.0604 -0.4020
 2442TIP3    H128961   5.029   1.610   1.441 -0.7518  1.7262 -1.4530
 2442TIP3    H228962   5.088   1.536   1.322  0.3648 -2.0342  1.2456
 2443TIP3   OH228963   6.753   1.393   2.387 -0.1235 -0.1492 -0.4690
 2443TIP3    H128964   6.707   1.440   2.317  0.4118  0.5203 -0.3834
 2443TIP3    H228965   6.757   1.456   2.459  0.4315 -0.3924 -0.2802
 2444TIP3   OH228966   2.124   4.360   1.352  0.5170 -0.1670  0.1960
 2444TIP3    H128967   2.029   4.346   1.357  0.6635 -1.7550 -0.9255
 2444TIP3    H228968   2.143   4.370   1.259  1.8119 -3.0420  0.0615
 2445TIP3   OH228969   1.871   0.266   4.331  0.3236 -0.1275  0.2701
 2445TIP3    H128970   1.816   0.318   4.389 -0.0694  0.6742 -0.8021
 2445TIP3    H228971   1.837   0.177   4.339 -1.2072  0.3674 -0.4467
 2446TIP3   OH228972   2.673   3.835   0.977 -0.2035  0.2437  0.3736
 2446TIP3    H128973   2.628   3.901   1.031  0.4481  0.3760  0.7734
 2446TIP3    H228974   2.676   3.874   0.890 -1.3254  0.0023  0.2097
 2447TIP3   OH228975   0.530   6.716   3.724 -0.1479  0.0889  0.4803
 2447TIP3    H128976   0.619   6.736   3.696 -1.0325  0.2422 -2.4762
 2447TIP3    H228977   0.532   6.622   3.744  0.9367  0.3515  1.7377
 2448TIP3   OH228978   4.110   5.545   1.402 -0.2382 -0.1362 -0.2565
 2448TIP3    H128979   4.130   5.533   1.309  1.0235  0.1257 -0.0467
 2448TIP3    H228980   4.196   5.553   1.443 -0.7961  0.6766  0.8003
 2449TIP3   OH228981   2.313   0.023   2.419 -0.3200 -0.2999 -0.0020
 2449TIP3    H128982   2.287   0.005   2.510 -1.1612 -0.0865 -0.1879
 2449TIP3    H228983   2.237   0.067   2.381  0.5367  0.8654 -0.4290
 2450TIP3   OH228984   2.618   0.995   1.499 -0.3339  0.1093  0.5203
 2450TIP3    H128985   2.641   1.087   1.486 -0.2613  0.0932  0.5321
 2450TIP3    H228986   2.522   0.993   1.497 -0.4385  0.5380  2.9648
 2451TIP3   OH228987   4.856   5.152   1.506  0.0016  0.0715 -0.0807
 2451TIP3    H128988   4.890   5.082   1.451  0.0881  0.3904 -0.4366
 2451TIP3    H228989   4.768   5.169   1.474 -0.1612 -0.1320  0.2516
 2452TIP3   OH228990   4.177   3.312   2.339 -0.0953 -0.4976  0.1866
 2452TIP3    H128991   4.150   3.395   2.300 -0.1774 -0.8707 -0.5659
 2452TIP3    H228992   4.096   3.264   2.353 -0.1293 -0.0962  1.4752
 2453TIP3   OH228993   1.056   1.382   2.628  0.2576 -0.3568  0.1956
 2453TIP3    H128994   1.110   1.438   2.683  0.0578 -0.5949  0.6466
 2453TIP3    H228995   0.966   1.400   2.657  0.0817  0.1161 -0.6212
 2454TIP3   OH228996   5.256   6.570   1.096 -0.1451 -0.1556 -0.7581
 2454TIP3    H128997   5.225   6.489   1.056  2.1127 -1.0265 -0.8986
 2454TIP3    H228998   5.290   6.544   1.181 -0.5873  0.8897 -0.2355
 2455TIP3   OH228999   3.942   5.353   0.509 -0.4896  0.1817 -0.5110
 2455TIP3    H129000   3.986   5.426   0.464 -0.1070 -0.5402 -1.3309
 2455TIP3    H229001   4.008   5.284   0.513  0.2183  0.9040  3.0934
 2456TIP3   OH229002   2.656   6.776   2.334 -0.3020  0.0111 -0.4606
 2456TIP3    H129003   2.624   6.829   2.406  1.0421 -0.1079  0.2613
 2456TIP3    H229004   2.599   6.798   2.260 -0.7669  1.2494  0.2461
 2457TIP3   OH229005   0.716   5.607   1.452  0.0786 -0.4758  0.3859
 2457TIP3    H129006   0.768   5.587   1.529  1.4593  1.7983  0.1372
 2457TIP3    H229007   0.625   5.611   1.484  0.5917  0.1833  1.8473
 2458TIP3   OH229008   3.627   4.443   3.726  0.0583  0.0842 -0.5484
 2458TIP3    H129009   3.713   4.416   3.695 -1.0618 -1.4068 -2.6047
 2458TIP3    H229010   3.604   4.379   3.793 -1.1941 -2.3855 -3.1040
 2459TIP3   OH229011   1.523   6.601   8.658 -0.1223  0.0323  0.4876
 2459TIP3    H129012   1.514   6.514   8.619  0.6586  0.6765 -1.2461
 2459TIP3    H229013   1.573   6.586   8.739 -0.0258 -1.1205  0.2281
 2460TIP3   OH229014   5.954   2.978   2.270  0.3491  0.4057 -0.9086
 2460TIP3    H129015   5.859   2.976   2.271  0.2770 -0.6626  2.3749
 2460TIP3    H229016   5.976   3.070   2.259 -1.1269  0.8591 -0.3272
 2461TIP3   OH229017   3.680   5.172   2.429  0.6307  0.0192  0.0559
 2461TIP3    H129018   3.585   5.182   2.426  0.3713 -2.0215 -0.1016
 2461TIP3    H229019   3.699   5.148   2.519  1.0244  0.5039  0.1081
 2462TIP3   OH229020   5.500   1.343   0.634 -0.8339  0.0547  0.1565
 2462TIP3    H129021   5.564   1.414   0.641 -0.1318 -0.6495  1.0337
 2462TIP3    H229022   5.521   1.301   0.550 -0.7353  0.3685  0.0187
 2463TIP3   OH229023   2.765   2.032   4.910 -0.0175 -0.3234  0.3203
 2463TIP3    H129024   2.770   2.094   4.982 -1.0546 -0.0024  0.1401
 2463TIP3    H229025   2.736   1.951   4.950 -2.3390  0.3009  0.0872
 2464TIP3   OH229026   4.512   0.539   0.622 -0.7424 -0.7588  0.5396
 2464TIP3    H129027   4.541   0.557   0.533  0.2222 -3.0229  0.3207
 2464TIP3    H229028   4.545   0.612   0.674 -1.8345  0.9114 -0.9904
 2465TIP3   OH229029   0.879   3.167   4.249  0.6709  0.1382 -0.0909
 2465TIP3    H129030   0.803   3.204   4.292 -0.7565 -4.6955  2.3479
 2465TIP3    H229031   0.951   3.226   4.271 -1.6400  2.7678  0.9459
 2466TIP3   OH229032   0.356   6.628   2.872 -0.0987 -0.0125 -0.4213
 2466TIP3    H129033   0.429   6.683   2.899  1.7066 -1.8299 -1.2760
 2466TIP3    H229034   0.319   6.596   2.954 -1.0925  2.2402  0.0841
 2467TIP3   OH229035   5.882   3.360   8.602 -0.2675  0.2257 -0.1489
 2467TIP3    H129036   5.902   3.323   8.688 -0.1536  1.3347  0.3156
 2467TIP3    H229037   5.967   3.384   8.566 -0.1588 -1.6499 -1.2633
 2468TIP3   OH229038   3.196   1.652   3.932 -0.2789  0.4536 -0.1914
 2468TIP3    H129039   3.158   1.657   3.844  0.7487  0.3140 -0.6614
 2468TIP3    H229040   3.202   1.558   3.950  0.6020  0.4444 -0.4771
 2469TIP3   OH229041   4.085   2.305   5.138  0.3387 -0.2384 -0.2067
 2469TIP3    H129042   4.151   2.270   5.078  1.5210  0.5681  0.5815
 2469TIP3    H229043   4.054   2.228   5.186  2.3113 -0.4107  0.9256
 2470TIP3   OH229044   4.435   3.525   4.132 -0.7600  0.2226  0.4326
 2470TIP3    H129045   4.449   3.431   4.121  3.4804  0.5295  1.4851
 2470TIP3    H229046   4.422   3.537   4.226  0.9876  0.7819  0.6505
 2471TIP3   OH229047   0.782   1.356   3.964  0.0146  0.1547  0.3317
 2471TIP3    H129048   0.818   1.398   4.042  1.8745  0.8269 -0.8152
 2471TIP3    H229049   0.841   1.383   3.893  0.0377 -2.6307 -0.8623
 2472TIP3   OH229050   0.432   6.274   0.251  0.0790  0.1027 -0.3786
 2472TIP3    H129051   0.474   6.359   0.237  0.3577 -0.2009 -1.5555
 2472TIP3    H229052   0.368   6.268   0.179 -0.6630 -0.2480  0.2980
 2473TIP3   OH229053   0.128   2.242   0.884  0.2095  0.3117  0.4977
 2473TIP3    H129054   0.094   2.178   0.946 -2.3808 -0.0295 -1.1120
 2473TIP3    H229055   0.132   2.196   0.801  0.2384  1.6787 -0.2979
 2474TIP3   OH229056   6.359   0.082   2.657 -0.0011 -0.4285 -0.4516
 2474TIP3    H129057   6.280   0.136   2.664  0.9730  0.8700  1.0809
 2474TIP3    H229058   6.329  -0.006   2.682 -1.1755 -0.2015 -0.9682
 2475TIP3   OH229059   4.416   1.308   3.952 -0.1070 -0.3998  0.0582
 2475TIP3    H129060   4.352   1.294   4.022 -1.7930 -5.4363 -2.0048
 2475TIP3    H229061   4.367   1.354   3.884  0.1700  0.5317  0.4778
 2476TIP3   OH229062   3.000   0.891   3.366 -0.2346  0.0555 -0.1975
 2476TIP3    H129063   2.949   0.862   3.290  0.6424 -2.0833 -0.0515
 2476TIP3    H229064   2.985   0.823   3.432 -1.2979  2.0522  1.7647
 2477TIP3   OH229065   1.109   1.227   3.518  0.2258 -0.3573  0.5541
 2477TIP3    H129066   1.093   1.141   3.556 -1.6888  0.4676  1.7729
 2477TIP3    H229067   1.066   1.288   3.578  0.2326  1.3250 -1.0592
 2478TIP3   OH229068   2.424   3.713   4.536 -0.3238 -0.2078  0.4052
 2478TIP3    H129069   2.463   3.781   4.481 -2.2418  1.4275  0.9181
 2478TIP3    H229070   2.489   3.643   4.538  1.6475  1.4964 -0.3683
 2479TIP3   OH229071   4.142   5.889   1.727  0.4769  0.0676 -0.3117
 2479TIP3    H129072   4.220   5.838   1.748 -0.0130 -0.3215  0.6499
 2479TIP3    H229073   4.081   5.826   1.690 -0.2739 -0.1664  1.2396
 2480TIP3   OH229074   4.685   5.133   1.810  0.5339  0.3878  0.0116
 2480TIP3    H129075   4.590   5.139   1.822  0.5686  1.2296 -0.0693
 2480TIP3    H229076   4.708   5.045   1.842 -0.3625 -0.0893 -0.5976
 2481TIP3   OH229077   0.004   6.652   3.022 -0.1340 -0.1188 -0.1392
 2481TIP3    H129078   0.085   6.601   3.017  0.7888  0.9747  2.3073
 2481TIP3    H229079  -0.063   6.589   3.049 -0.0350 -0.8942 -1.5755
 2482TIP3   OH229080   4.998   0.612   3.245 -0.2883  0.3292  0.6101
 2482TIP3    H129081   4.951   0.687   3.208  0.3917  1.1152  1.2858
 2482TIP3    H229082   4.931   0.565   3.295 -0.5855  0.8832  0.7507
 2483TIP3   OH229083   1.809   0.961   1.373 -0.5396  0.3116  0.2769
 2483TIP3    H129084   1.717   0.966   1.401 -0.5718 -0.1304  0.2575
 2483TIP3    H229085   1.806   0.915   1.289 -0.2631 -0.0909  0.4847
 2484TIP3   OH229086   4.645   2.892   2.699 -0.0240 -0.4460  0.0401
 2484TIP3    H129087   4.656   2.984   2.675 -1.1510 -0.1737  0.4658
 2484TIP3    H229088   4.606   2.851   2.622 -0.6222 -0.2961  0.2587
 2485TIP3   OH229089   2.746   3.024   3.547 -0.1884  0.7353 -0.2363
 2485TIP3    H129090   2.794   2.977   3.479 -1.8893  0.1565 -1.0940
 2485TIP3    H229091   2.665   3.052   3.505 -0.7627  1.3953  1.2300
 2486TIP3   OH229092   2.681   1.410   1.166  0.0916  0.1900  0.4986
 2486TIP3    H129093   2.701   1.502   1.179 -1.0493  1.0883 -2.8307
 2486TIP3    H229094   2.664   1.403   1.071  1.5251 -3.7332  0.3670
 2487TIP3   OH229095   4.779   3.945   4.022 -0.4580 -0.2715 -0.6102
 2487TIP3    H129096   4.740   3.871   4.067  3.1336 -2.0212 -0.0292
 2487TIP3    H229097   4.801   3.911   3.935  0.5146  0.3413 -0.6193
 2488TIP3   OH229098   5.722   5.676   5.262 -0.0880  0.3522 -0.5873
 2488TIP3    H129099   5.713   5.651   5.170  1.6918 -0.4296 -0.5939
 2488TIP3    H229100   5.802   5.728   5.264  0.2122 -0.1314  0.6051
 2489TIP3   OH229101   3.624   2.641   8.569 -0.3583  0.1151 -0.0534
 2489TIP3    H129102   3.561   2.587   8.616  1.0619  0.3054  2.2534
 2489TIP3    H229103   3.708   2.622   8.611  0.9923  0.5931 -2.3398
 2490TIP3   OH229104   4.937   4.462   1.634  0.3158  0.4345  0.2146
 2490TIP3    H129105   4.895   4.548   1.638 -0.2737  0.1582  0.1952
 2490TIP3    H229106   5.010   4.468   1.695 -0.7838  0.3962  1.5938
 2491TIP3   OH229107   0.263   0.616   2.356 -0.1900  0.1826 -0.1772
 2491TIP3    H129108   0.333   0.634   2.292 -0.1358  0.5045 -0.0288
 2491TIP3    H229109   0.310   0.593   2.436 -0.2578 -0.1117 -0.2217
 2492TIP3   OH229110   3.207   1.637   2.703 -0.1953 -0.3208  0.6545
 2492TIP3    H129111   3.231   1.613   2.613 -0.5818 -0.7806  0.6697
 2492TIP3    H229112   3.126   1.687   2.694 -0.8456 -1.3183  0.8208
 2493TIP3   OH229113   1.374   2.850   2.272  0.2919  0.1368 -0.5552
 2493TIP3    H129114   1.309   2.780   2.263  0.4237  0.1504 -1.9563
 2493TIP3    H229115   1.406   2.863   2.182  0.7215  1.5566 -0.2121
 2494TIP3   OH229116   1.017   1.105   1.166 -0.0696 -0.1955 -0.1483
 2494TIP3    H129117   0.959   1.101   1.242  2.8672 -0.2017  2.2905
 2494TIP3    H229118   0.989   1.183   1.118 -1.3362  0.4604  1.5588
 2495TIP3   OH229119   4.034   1.093   1.087 -0.5462  0.0305  0.4070
 2495TIP3    H129120   4.065   1.076   0.998 -2.4322  2.4583 -0.8234
 2495TIP3    H229121   4.094   1.043   1.143  2.0221  0.0905 -2.0638
 2496TIP3   OH229122   3.025   1.123   1.492 -0.0806  0.2339 -0.3400
 2496TIP3    H129123   3.095   1.180   1.523  0.2218 -0.1166 -0.3729
 2496TIP3    H229124   3.048   1.104   1.401 -0.9872  1.2931 -0.8100
 2497TIP3   OH229125   4.747   2.607   4.014  0.1184  0.1057  0.1237
 2497TIP3    H129126   4.669   2.649   3.978  0.5242 -0.9747 -2.2132
 2497TIP3    H229127   4.817   2.671   4.002  0.3105 -0.3639 -1.3723
 2498TIP3   OH229128   2.223   2.218   3.613  0.1854 -0.0046  0.4221
 2498TIP3    H129129   2.190   2.261   3.692 -0.9278 -0.1418  0.0503
 2498TIP3    H229130   2.236   2.290   3.550 -0.6564 -0.0730  0.1521
 2499TIP3   OH229131   6.601   1.280   3.254  0.0653 -0.6631  0.2936
 2499TIP3    H129132   6.616   1.295   3.348  0.0147 -1.4225  0.4250
 2499TIP3    H229133   6.572   1.190   3.249 -1.7229 -0.0877 -0.2621
 2500TIP3   OH229134   5.361   6.450   4.314  0.0643  0.3820 -0.2770
 2500TIP3    H129135   5.352   6.394   4.391 -0.5298  0.2302 -0.4495
 2500TIP3    H229136   5.333   6.537   4.345  0.1170  0.3862 -0.2413
 2501TIP3   OH229137   0.695   5.758   4.035 -0.1110  0.0422  0.0361
 2501TIP3    H129138   0.656   5.686   3.986  0.4262 -0.6346  0.5717
 2501TIP3    H229139   0.784   5.729   4.053  0.4337  1.2812 -0.6058
 2502TIP3   OH229140   2.327   5.139   4.231 -0.3562 -0.3115 -0.3403
 2502TIP3    H129141   2.341   5.046   4.246 -1.5689 -0.3146  0.9643
 2502TIP3    H229142   2.287   5.144   4.144 -1.0829 -1.0850 -0.0624
 2503TIP3   OH229143   2.067   5.469   3.424  0.0459 -0.0392  0.1365
 2503TIP3    H129144   2.103   5.465   3.512  0.5715 -1.1699 -0.1050
 2503TIP3    H229145   2.090   5.384   3.385 -2.5451 -0.7060 -0.1591
 2504TIP3   OH229146   4.453   5.437   4.541 -0.5176 -0.5610 -0.1830
 2504TIP3    H129147   4.456   5.373   4.613 -2.2845 -0.5063 -0.0196
 2504TIP3    H229148   4.459   5.522   4.585  0.1158 -0.5597 -0.2604
 2505TIP3   OH229149   3.818   3.493   3.510  0.9233 -0.1905 -0.3861
 2505TIP3    H129150   3.881   3.492   3.438 -0.2119  1.3963 -1.4507
 2505TIP3    H229151   3.762   3.417   3.493  2.1138 -1.2422  0.2201
 2506TIP3   OH229152   3.476   4.892   4.035  0.0032  0.2511  0.2070
 2506TIP3    H129153   3.519   4.838   4.102 -0.3918  0.2447  0.4589
 2506TIP3    H229154   3.547   4.919   3.977  0.4795  0.9526  1.1057
 2507TIP3   OH229155   3.225   6.293   1.696 -0.1496  0.1210 -0.4091
 2507TIP3    H129156   3.235   6.319   1.787  1.1235 -1.7189  0.0480
 2507TIP3    H229157   3.287   6.349   1.648 -0.8189  1.0869 -0.1548
 2508TIP3   OH229158   0.774   0.009   1.654  0.1593  0.1341 -0.2092
 2508TIP3    H129159   0.740  -0.069   1.699  1.3560  0.1249  0.7223
 2508TIP3    H229160   0.708   0.029   1.588 -1.0043 -0.6531  0.6760
 2509TIP3   OH229161   1.765   5.422   0.635 -0.2684 -1.2622  0.3287
 2509TIP3    H129162   1.799   5.362   0.569 -0.9383 -2.0684  0.6957
 2509TIP3    H229163   1.828   5.418   0.707  0.6599 -0.1003 -0.3791
 2510TIP3   OH229164   1.231   4.423   2.192 -0.5717 -0.9274 -0.0782
 2510TIP3    H129165   1.137   4.418   2.172 -0.5464 -0.9805 -0.1867
 2510TIP3    H229166   1.255   4.333   2.215 -0.0873 -1.3917 -2.1436
 2511TIP3   OH229167   4.679   3.733   4.356 -0.9298 -0.4508 -0.4007
 2511TIP3    H129168   4.699   3.707   4.266 -0.9318 -1.6158 -0.0833
 2511TIP3    H229169   4.762   3.723   4.403 -1.0937 -0.5348 -0.1250
 2512TIP3   OH229170   2.100   2.581   0.482  0.4622 -0.2830 -0.2431
 2512TIP3    H129171   2.129   2.610   0.396  0.2156  1.9176  0.3468
 2512TIP3    H229172   2.018   2.536   0.466  1.0719 -1.0776 -1.2714
 2513TIP3   OH229173   4.570   5.841   1.393  0.3856 -0.1034 -0.4036
 2513TIP3    H129174   4.522   5.894   1.456 -0.4708 -1.9322  0.5755
 2513TIP3    H229175   4.627   5.786   1.447 -0.2607 -1.6138 -1.2100
 2514TIP3   OH229176   1.101   5.730   3.917 -0.1477  0.0649 -0.2206
 2514TIP3    H129177   1.158   5.796   3.878 -0.5637 -0.7443 -2.3818
 2514TIP3    H229178   1.074   5.767   4.001  1.0397  1.8281 -0.5686
 2515TIP3   OH229179   4.860   1.934   3.903  0.5660 -0.7608 -0.4065
 2515TIP3    H129180   4.837   2.026   3.915  1.4263 -0.4407 -1.1311
 2515TIP3    H229181   4.894   1.907   3.988  1.1695 -0.1493 -0.4456
 2516TIP3   OH229182   5.147   2.165   3.090 -0.9641  0.0304 -0.1813
 2516TIP3    H129183   5.142   2.209   3.175 -1.6942  1.7741 -1.0811
 2516TIP3    H229184   5.225   2.202   3.049 -0.8583 -0.4884 -0.4568
 2517TIP3   OH229185   6.293   6.771   1.843 -0.5488  0.0670  0.4208
 2517TIP3    H129186   6.260   6.861   1.842 -0.6294  0.0354 -0.5776
 2517TIP3    H229187   6.220   6.719   1.874 -1.7350 -0.0798 -2.3161
 2518TIP3   OH229188   3.327   0.035   4.301 -0.7701  0.7956  0.1640
 2518TIP3    H129189   3.300   0.017   4.392 -1.2441  1.5348  0.1796
 2518TIP3    H229190   3.347   0.128   4.300  0.9191  0.4647 -0.0901
 2519TIP3   OH229191   3.540   1.910   2.559 -0.4534 -0.3249 -0.1953
 2519TIP3    H129192   3.597   1.980   2.591 -1.1835  0.6107 -0.8870
 2519TIP3    H229193   3.501   1.874   2.639 -0.5121  0.4465  0.1357
 2520TIP3   OH229194   1.386   6.755   2.810 -0.1061  0.2308  0.5715
 2520TIP3    H129195   1.404   6.836   2.762  0.0421 -0.3254 -0.3343
 2520TIP3    H229196   1.339   6.784   2.888 -1.1699  1.0779 -0.3556
 2521TIP3   OH229197   1.314   1.568   2.109  0.0633  0.0553  0.1700
 2521TIP3    H129198   1.342   1.535   2.023  0.1584  1.1244 -0.2202
 2521TIP3    H229199   1.396   1.582   2.157  0.2054  2.0222 -0.5430
 2522TIP3   OH229200   4.380   2.992   1.077  0.1779 -0.0182 -0.2743
 2522TIP3    H129201   4.464   3.027   1.048 -0.3460  0.0968 -1.7709
 2522TIP3    H229202   4.315   3.051   1.038 -0.6021  0.5096  1.7129
 2523TIP3   OH229203   4.611   5.156   4.020 -0.6763  0.1695  0.1555
 2523TIP3    H129204   4.696   5.200   4.020 -0.6774  0.3179  2.6168
 2523TIP3    H229205   4.547   5.226   4.009 -0.5780  0.5047  1.5749
 2524TIP3   OH229206   5.949   0.205   3.717 -0.2620  0.1008  0.1077
 2524TIP3    H129207   5.931   0.144   3.788 -1.4974  1.6522  1.1901
 2524TIP3    H229208   5.866   0.217   3.673  0.3356 -0.2643 -1.1571
 2525TIP3   OH229209   6.454   1.203   1.163 -0.0440  0.6058  0.0704
 2525TIP3    H129210   6.469   1.295   1.187  0.9276  0.3723  0.4111
 2525TIP3    H229211   6.403   1.208   1.082  0.1345  1.4483 -0.0050
 2526TIP3   OH229212   2.817   4.285   3.630 -0.2138 -0.1799  0.1610
 2526TIP3    H129213   2.888   4.343   3.657 -1.3143  1.3935 -0.1813
 2526TIP3    H229214   2.737   4.327   3.662 -1.0095 -2.1529  0.9869
 2527TIP3   OH229215   3.906   0.039   4.179  0.5864  0.1030  0.3118
 2527TIP3    H129216   3.825   0.069   4.221  0.2234 -2.5430  1.7536
 2527TIP3    H229217   3.914   0.092   4.100 -1.6051  1.6507  1.0438
 2528TIP3   OH229218   2.074   2.435   1.049  0.3106 -0.1180  0.1785
 2528TIP3    H129219   2.043   2.502   1.111 -1.5432  0.3012 -1.1318
 2528TIP3    H229220   1.997   2.413   0.998  1.4756 -1.5195 -1.0327
 2529TIP3   OH229221   2.650   2.413   3.481  0.0464  0.0787  0.2518
 2529TIP3    H129222   2.671   2.379   3.394 -0.9906  0.6387 -0.2476
 2529TIP3    H229223   2.721   2.382   3.537  0.0055 -1.4768 -0.4984
 2530TIP3   OH229224   6.377   2.385   8.773  1.0736  0.0809  0.0699
 2530TIP3    H129225   6.468   2.407   8.756  1.2524  0.5787  1.4804
 2530TIP3    H229226   6.338   2.372   8.687  2.6072 -0.7352 -0.5316
 2531TIP3   OH229227   1.762   4.665   2.959 -0.1531  0.5076 -0.6562
 2531TIP3    H129228   1.821   4.687   2.888  0.7188 -1.8284 -0.7320
 2531TIP3    H229229   1.730   4.577   2.938 -0.4316  0.0499  1.4234
 2532TIP3   OH229230   1.171   2.251   0.804 -1.1872 -0.1628  0.3813
 2532TIP3    H129231   1.144   2.228   0.892 -1.0371 -0.5729  0.3241
 2532TIP3    H229232   1.105   2.211   0.747 -0.1759 -1.6744  0.2105
 2533TIP3   OH229233   1.983   4.248   1.969  0.0394 -0.2992 -0.0844
 2533TIP3    H129234   2.013   4.201   1.891  2.8570 -0.9281  1.2651
 2533TIP3    H229235   1.975   4.339   1.940  0.7504 -0.5683 -1.1771
 2534TIP3   OH229236   3.536   4.600   2.441 -0.3547  0.2469 -0.3607
 2534TIP3    H129237   3.467   4.584   2.505  0.1682  0.0610  0.1605
 2534TIP3    H229238   3.598   4.529   2.454  0.1093  0.6077 -0.5862
 2535TIP3   OH229239   2.055   1.054   3.419  0.2753 -0.4921 -0.6488
 2535TIP3    H129240   1.989   0.986   3.425  0.3279 -0.4423  0.8604
 2535TIP3    H229241   2.109   1.029   3.344 -0.6465 -1.2376 -1.0860
 2536TIP3   OH229242   5.140   3.383   0.766  0.7086 -0.2594 -0.2519
 2536TIP3    H129243   5.196   3.341   0.831  0.0845 -3.6651 -1.7393
 2536TIP3    H229244   5.188   3.374   0.683 -0.5088 -0.1238 -0.9958
 2537TIP3   OH229245   6.797   5.197   2.418 -0.4173  0.5997  0.0476
 2537TIP3    H129246   6.835   5.206   2.505  0.8875  0.9409 -0.5446
 2537TIP3    H229247   6.729   5.264   2.414  1.8554  3.0203 -0.4049
 2538TIP3   OH229248   0.185   1.831   4.448 -0.0693 -0.0062  0.5770
 2538TIP3    H129249   0.149   1.916   4.475  1.6591  0.0667  2.9354
 2538TIP3    H229250   0.198   1.783   4.530  1.9364 -1.3215 -0.4354
 2539TIP3   OH229251   5.853   0.064   0.535  0.3927 -0.0310 -0.2731
 2539TIP3    H129252   5.770   0.080   0.491  0.2263 -1.2059 -0.4108
 2539TIP3    H229253   5.851   0.122   0.611 -0.4567  0.1185 -0.4017
 2540TIP3   OH229254   2.025   0.856   8.831  0.2655  0.1880  0.0394
 2540TIP3    H129255   2.082   0.875   8.905 -1.5709  2.4469  0.9881
 2540TIP3    H229256   1.977   0.937   8.815 -1.1179 -0.9320 -2.1203
 2541TIP3   OH229257   1.258   6.527   2.509  0.6347 -0.9490  0.2048
 2541TIP3    H129258   1.249   6.435   2.482 -1.3444 -0.5209 -0.8525
 2541TIP3    H229259   1.203   6.535   2.587 -2.2526  0.0227 -1.7561
 2542TIP3   OH229260   5.487   6.399   4.555  0.1300  0.0946 -0.4804
 2542TIP3    H129261   5.581   6.384   4.565  0.4914  2.8844  1.3806
 2542TIP3    H229262   5.452   6.389   4.643 -0.9210  1.2982 -0.7421
 2543TIP3   OH229263   2.142   4.693   0.442  0.0971  0.3705 -1.1203
 2543TIP3    H129264   2.095   4.734   0.516  1.0318 -0.8178  0.1808
 2543TIP3    H229265   2.079   4.633   0.404  0.0056  0.0225 -0.4398
 2544TIP3   OH229266   6.342   4.065   4.156  0.5080 -0.1205 -0.0847
 2544TIP3    H129267   6.332   4.057   4.251 -0.6654 -1.0750 -0.2657
 2544TIP3    H229268   6.349   3.975   4.125  0.7418  0.1785 -0.9285
 2545TIP3   OH229269   0.660   4.129   1.083 -0.0375  0.7340  0.4096
 2545TIP3    H129270   0.706   4.045   1.074 -1.0957  0.2457 -0.8850
 2545TIP3    H229271   0.729   4.192   1.105  1.8617  0.5762 -4.0173
 2546TIP3   OH229272   4.263   5.591   2.322 -0.4910  0.3083  0.4991
 2546TIP3    H129273   4.229   5.594   2.232  1.9346  0.1970 -0.4985
 2546TIP3    H229274   4.216   5.518   2.362  0.1563 -1.3548 -1.5406
 2547TIP3   OH229275   3.984   1.859   0.916 -0.3727 -0.5261 -0.1331
 2547TIP3    H129276   4.039   1.866   0.994  1.1484  1.4621 -1.2992
 2547TIP3    H229277   3.958   1.949   0.896 -0.8076 -0.9916 -1.8636
 2548TIP3   OH229278   5.228   2.551   0.866 -0.4437  0.7424 -0.1694
 2548TIP3    H129279   5.276   2.569   0.785  1.0729 -0.6844  0.3427
 2548TIP3    H229280   5.138   2.536   0.838  0.0251  0.3979 -1.5789
 2549TIP3   OH229281   6.508   4.302   4.738 -0.0144  0.4989 -0.5237
 2549TIP3    H129282   6.555   4.241   4.796  1.0398 -0.6020 -2.4159
 2549TIP3    H229283   6.563   4.380   4.735 -2.1288  2.4331  3.1676
 2550TIP3   OH229284   4.130   5.324   1.184  0.2641  0.2802 -0.3883
 2550TIP3    H129285   4.072   5.274   1.127 -0.6887  1.5776 -0.5881
 2550TIP3    H229286   4.134   5.411   1.145 -1.4474  1.6028  2.1489
 2551TIP3   OH229287   1.585   6.428   3.078  0.1617 -0.3297 -0.2215
 2551TIP3    H129288   1.500   6.434   3.035  0.5236 -0.7057 -1.0092
 2551TIP3    H229289   1.648   6.427   3.006  0.7075 -2.4003  0.2034
 2552TIP3   OH229290   2.875   3.823   2.437  0.0275 -0.0298  0.3512
 2552TIP3    H129291   2.838   3.890   2.495  0.5067  1.3624 -0.8762
 2552TIP3    H229292   2.915   3.759   2.496  1.3894  1.8456  1.5937
 2553TIP3   OH229293   6.182   6.127   2.707 -0.6078  0.1693  0.0787
 2553TIP3    H129294   6.184   6.035   2.679  1.1575  0.2590 -0.2318
 2553TIP3    H229295   6.164   6.176   2.627 -0.8978  0.1268  0.1185
 2554TIP3   OH229296   1.023   5.693   1.947  0.3472  0.7752  0.3676
 2554TIP3    H129297   0.959   5.698   2.018  0.9267  0.4554  0.9222
 2554TIP3    H229298   1.013   5.776   1.900 -1.3269  0.2163 -0.3154
 2555TIP3   OH229299   1.574   4.612   2.370  0.1495 -0.2324  0.1293
 2555TIP3    H129300   1.612   4.534   2.331  1.9665  1.1072 -0.9413
 2555TIP3    H229301   1.541   4.583   2.455  0.0558 -2.2911 -0.5567
 2556TIP3   OH229302   0.146   5.641   3.640  0.1707  0.3918 -0.2603
 2556TIP3    H129303   0.068   5.682   3.677  0.2916 -0.9167  1.5764
 2556TIP3    H229304   0.117   5.605   3.556 -0.6821  1.5823 -0.4960
 2557TIP3   OH229305   6.739   1.024   1.839  0.2805 -0.1241 -0.5364
 2557TIP3    H129306   6.773   0.950   1.890 -1.1998  0.3608  1.2431
 2557TIP3    H229307   6.782   1.101   1.875 -1.7497  0.3747  1.0112
 2558TIP3   OH229308   6.588   6.282   4.055 -0.0633  0.0905 -0.3147
 2558TIP3    H129309   6.648   6.250   3.987 -1.0287 -0.1635 -1.0753
 2558TIP3    H229310   6.502   6.276   4.015 -0.6890 -0.2669  1.0245
 2559TIP3   OH229311   3.826   0.598   1.750 -0.3365  0.5220  0.2087
 2559TIP3    H129312   3.841   0.682   1.708  0.6703  0.8852  1.2333
 2559TIP3    H229313   3.864   0.608   1.838 -2.4933 -0.1405  1.2865
 2560TIP3   OH229314   0.177   5.544   1.534  0.1596  0.5451 -0.8235
 2560TIP3    H129315   0.093   5.537   1.579  1.0630 -4.0971  0.6291
 2560TIP3    H229316   0.155   5.584   1.449 -3.0873  1.3426  0.2439
 2561TIP3   OH229317   0.322   3.602   2.940 -0.1939  0.8207 -0.6271
 2561TIP3    H129318   0.411   3.635   2.946  0.3435 -0.8073  1.7499
 2561TIP3    H229319   0.275   3.646   3.011 -0.2580 -1.0766  0.5756
 2562TIP3   OH229320   1.248   2.836   3.530 -0.3274 -0.2860 -0.1134
 2562TIP3    H129321   1.335   2.864   3.560  0.0864 -2.8638  1.3918
 2562TIP3    H229322   1.210   2.791   3.606 -2.3504 -0.5816 -1.2356
 2563TIP3   OH229323   0.904   0.644   8.765  0.1861 -0.2162 -0.0357
 2563TIP3    H129324   0.835   0.699   8.804 -0.2229 -0.1203 -0.8688
 2563TIP3    H229325   0.927   0.689   8.683  1.2186 -0.2706  0.2091
 2564TIP3   OH229326   3.893   4.468   8.843  0.2407  0.2900 -0.1546
 2564TIP3    H129327   3.964   4.406   8.830  1.4711  1.7651 -0.7325
 2564TIP3    H229328   3.814   4.414   8.846  1.1155 -1.1973 -1.9801
 2565TIP3   OH229329   1.214   6.442   0.582  0.1829 -0.3108 -0.1048
 2565TIP3    H129330   1.156   6.517   0.569  0.9615  0.6976  1.8974
 2565TIP3    H229331   1.302   6.477   0.569  0.4978 -1.2295 -0.5263
 2566TIP3   OH229332   2.482   6.158   3.130 -0.0171 -0.7178  0.6091
 2566TIP3    H129333   2.478   6.172   3.225 -2.2602 -0.3676  0.5237
 2566TIP3    H229334   2.440   6.235   3.092  0.4144 -1.0763 -0.6472
 2567TIP3   OH229335   2.427   3.358   2.910 -0.7037  0.4920  0.2695
 2567TIP3    H129336   2.496   3.313   2.958 -0.8463 -0.7158 -0.6066
 2567TIP3    H229337   2.408   3.436   2.962  1.5421  1.0429  0.3853
 2568TIP3   OH229338   2.846   6.341   3.940  0.5793 -0.2938 -0.2130
 2568TIP3    H129339   2.800   6.322   3.858 -0.1424  0.2953  0.0484
 2568TIP3    H229340   2.925   6.388   3.913  0.2176  0.1215 -0.5475
 2569TIP3   OH229341   3.456   2.306   2.388  0.2732  0.2009 -0.2652
 2569TIP3    H129342   3.514   2.373   2.352  1.1883  0.6160  1.8414
 2569TIP3    H229343   3.464   2.232   2.328  2.6009  0.4306 -0.3351
 2570TIP3   OH229344   1.280   3.193   4.688  0.3945 -0.1683 -0.5057
 2570TIP3    H129345   1.353   3.145   4.726 -0.2083 -1.3668 -0.7987
 2570TIP3    H229346   1.233   3.128   4.635 -1.0445  0.4806 -0.0954
 2571TIP3   OH229347   5.174   2.990   4.746 -0.4140  0.0005  0.5655
 2571TIP3    H129348   5.179   2.911   4.798 -3.3752  0.3944  1.6091
 2571TIP3    H229349   5.262   3.028   4.752  1.2707 -3.3772 -0.4421
 2572TIP3   OH229350   3.083   4.128   2.202 -0.5361  0.1645  0.3458
 2572TIP3    H129351   3.124   4.171   2.277  0.5927 -2.0801  1.1196
 2572TIP3    H229352   3.093   4.035   2.220 -1.3477 -0.4456 -2.0196
 2573TIP3   OH229353   3.151   0.378   1.006 -0.1459 -0.0774 -0.2135
 2573TIP3    H129354   3.176   0.286   1.007 -2.7590 -0.8962  1.2986
 2573TIP3    H229355   3.233   0.425   0.994  1.6250 -2.5204  1.2329
 2574TIP3   OH229356   6.550   3.029   1.110  0.3534  0.2963  0.2612
 2574TIP3    H129357   6.507   3.016   1.195 -0.1870 -1.7347 -0.2612
 2574TIP3    H229358   6.488   2.996   1.046  1.8483 -0.8610 -0.6788
 2575TIP3   OH229359   3.362   4.027   2.539  0.1615  0.2306 -0.4330
 2575TIP3    H129360   3.449   4.068   2.549 -0.4055  2.2412 -2.7494
 2575TIP3    H229361   3.380   3.944   2.496  0.9938  0.3343 -0.3081
 2576TIP3   OH229362   2.060   5.425   4.028 -0.1398 -0.0406  0.3597
 2576TIP3    H129363   2.131   5.474   3.987 -0.2584 -0.0149  0.1846
 2576TIP3    H229364   2.082   5.424   4.121  0.1844 -0.1910  0.2827
 2577TIP3   OH229365   5.035   4.707   4.082  0.3988  0.0821 -0.3021
 2577TIP3    H129366   5.118   4.663   4.064  0.8269  0.8670 -0.2810
 2577TIP3    H229367   4.970   4.637   4.080  0.8516 -0.3346 -1.7886
 2578TIP3   OH229368   3.742   5.012   1.240 -0.2614  0.4232  0.1814
 2578TIP3    H129369   3.696   5.086   1.198  0.5179 -0.2033 -1.9127
 2578TIP3    H229370   3.678   4.941   1.239  0.2601 -0.0933 -1.6395
 2579TIP3   OH229371   3.077   2.483   4.077 -0.0792  0.3624  0.3017
 2579TIP3    H129372   3.009   2.440   4.025  0.8210 -0.4069 -0.2549
 2579TIP3    H229373   3.066   2.448   4.165  1.6165 -2.3201 -0.4300
 2580TIP3   OH229374   0.060   2.521   1.542 -0.2485 -0.0183  0.4271
 2580TIP3    H129375   0.129   2.475   1.590 -0.4030  0.5236  1.1878
 2580TIP3    H229376   0.088   2.519   1.451  0.6843  0.0311  0.7067
 2581TIP3   OH229377   4.348   1.816   1.773  0.0359  0.0586 -0.7406
 2581TIP3    H129378   4.325   1.730   1.738 -0.4303 -0.2010  0.2019
 2581TIP3    H229379   4.444   1.817   1.771  0.0462 -0.5135 -0.6807
 2582TIP3   OH229380   4.562   6.632   2.525 -0.0004  0.0039  0.4582
 2582TIP3    H129381   4.594   6.719   2.551  0.6607  0.6532 -2.2018
 2582TIP3    H229382   4.480   6.650   2.478 -0.0398 -0.8486  0.1905
 2583TIP3   OH229383   2.332   0.338   4.302 -0.0907 -0.0710 -0.5402
 2583TIP3    H129384   2.358   0.362   4.391 -0.3682 -0.4721 -0.3485
 2583TIP3    H229385   2.412   0.301   4.262  0.0329  0.1084 -0.4598
 2584TIP3   OH229386   2.512   5.408   2.121 -0.3655  0.0199 -0.0756
 2584TIP3    H129387   2.500   5.492   2.164  2.9009  0.8512 -0.5393
 2584TIP3    H229388   2.497   5.427   2.028  0.0337  0.0087 -0.1425
 2585TIP3   OH229389   5.771   5.741   1.286  0.2048 -0.4620  0.5002
 2585TIP3    H129390   5.719   5.738   1.205 -1.4946 -0.0180  1.5355
 2585TIP3    H229391   5.862   5.738   1.256 -0.3509  0.8140 -1.4895
 2586TIP3   OH229392   6.688   0.502   1.491  0.0842  0.3559  0.0989
 2586TIP3    H129393   6.697   0.592   1.459 -2.6669  0.6104 -0.2360
 2586TIP3    H229394   6.655   0.512   1.580 -2.4674 -0.2111 -0.7053
 2587TIP3   OH229395   5.614   6.410   2.625 -0.3051  0.1153 -0.5351
 2587TIP3    H129396   5.609   6.465   2.546 -1.3231 -0.2837 -0.7682
 2587TIP3    H229397   5.653   6.467   2.691  0.0174  0.6494 -1.1691
 2588TIP3   OH229398   4.096   2.207   2.722  0.3955  0.4866 -0.4646
 2588TIP3    H129399   4.177   2.216   2.672  1.0464 -0.5112  0.3686
 2588TIP3    H229400   4.125   2.199   2.813 -0.6301  0.0717 -0.1622
 2589TIP3   OH229401   1.816   4.651   1.474  0.5266 -0.4514 -0.3500
 2589TIP3    H129402   1.833   4.557   1.461  1.1944 -0.4213  0.2611
 2589TIP3    H229403   1.726   4.654   1.509  0.1793 -0.7963 -1.1947
 2590TIP3   OH229404   1.827   3.972   3.222  0.2474 -0.5382  0.1547
 2590TIP3    H129405   1.748   4.006   3.179 -0.6978 -0.5008  1.8672
 2590TIP3    H229406   1.899   4.019   3.179 -0.9011  2.5367  1.3022
 2591TIP3   OH229407   0.431   4.211   0.971  0.1258  0.3508  0.4353
 2591TIP3    H129408   0.399   4.298   0.995  2.4589  0.6175  3.1376
 2591TIP3    H229409   0.498   4.191   1.037  1.7282 -2.2890 -1.7643
 2592TIP3   OH229410   6.046   0.531   2.200  0.1609  0.2896  0.3624
 2592TIP3    H129411   6.118   0.487   2.244  2.1434  1.8690 -1.0949
 2592TIP3    H229412   6.010   0.591   2.265  0.6539  0.0205  0.8858
 2593TIP3   OH229413   2.154   0.093   4.327 -0.2983 -0.7217  0.1054
 2593TIP3    H129414   2.245   0.099   4.355 -0.1742 -0.2906 -0.3808
 2593TIP3    H229415   2.132   0.001   4.337 -0.7984 -0.3896  3.2975
 2594TIP3   OH229416   5.014   2.293   0.258 -0.0165 -0.3106 -0.3453
 2594TIP3    H129417   5.010   2.261   0.168  0.1039  0.8765 -0.7897
 2594TIP3    H229418   5.106   2.316   0.271 -0.0632 -0.3300  0.0299
 2595TIP3   OH229419   1.298   5.668   0.048  0.0098 -0.0793 -0.0076
 2595TIP3    H129420   1.369   5.706  -0.003 -0.0755 -1.8628 -1.5850
 2595TIP3    H229421   1.342   5.618   0.117  0.1849  0.8859  0.5890
 2596TIP3   OH229422   1.074   4.823   1.174 -0.6766  0.0030 -0.0975
 2596TIP3    H129423   1.083   4.908   1.216 -0.9144  1.9261 -3.5268
 2596TIP3    H229424   1.012   4.838   1.102 -0.4642 -2.9987 -1.0701
 2597TIP3   OH229425   3.693   2.709   1.877 -0.4409  0.0687 -0.5479
 2597TIP3    H129426   3.613   2.680   1.834  0.8177 -0.7836 -2.4577
 2597TIP3    H229427   3.762   2.693   1.812  1.4313 -0.2070  1.3992
 2598TIP3   OH229428   6.083   6.467   0.156  0.0098  0.0992  0.0155
 2598TIP3    H129429   6.000   6.420   0.153  0.2570 -0.3040 -1.3917
 2598TIP3    H229430   6.146   6.401   0.185  0.2332 -0.2810 -1.2681
 2599TIP3   OH229431   1.042   5.974   3.304 -0.2097  0.5123 -0.2798
 2599TIP3    H129432   1.079   5.984   3.216 -1.3345  1.6087 -0.6566
 2599TIP3    H229433   1.115   5.941   3.357  0.7702  0.8054 -1.3995
 2600TIP3   OH229434   3.515   4.463   1.049 -0.0201  0.1351  0.1910
 2600TIP3    H129435   3.530   4.503   1.135 -1.1868 -0.1705  0.5453
 2600TIP3    H229436   3.430   4.496   1.022 -0.8048 -1.7032  0.2808
 2601TIP3   OH229437   0.959   6.432   0.109 -0.6607  0.3987  0.4110
 2601TIP3    H129438   1.053   6.425   0.128 -0.7657 -1.1883  0.4674
 2601TIP3    H229439   0.955   6.443   0.014 -0.4394 -1.1736  0.1895
 2602TIP3   OH229440   5.353   1.433   1.599 -0.8333 -0.3475 -0.0436
 2602TIP3    H129441   5.298   1.408   1.525 -0.7405  0.9501 -0.5793
 2602TIP3    H229442   5.392   1.516   1.573 -0.3995 -0.1190  1.2581
 2603TIP3   OH229443   3.373   0.591   2.383  0.3136 -0.8521  0.2316
 2603TIP3    H129444   3.376   0.568   2.476 -1.9752  0.5847  0.7371
 2603TIP3    H229445   3.440   0.658   2.373 -0.1864 -0.1749  1.1620
 2604TIP3   OH229446   0.042   4.276   1.634 -0.1332  0.3582 -0.0935
 2604TIP3    H129447  -0.040   4.260   1.680  0.0595  0.4486  0.2902
 2604TIP3    H229448   0.021   4.264   1.541 -0.6498  0.6854 -0.0228
 2605TIP3   OH229449   4.427   0.639   0.014 -0.2486  0.5520 -1.1626
 2605TIP3    H129450   4.415   0.546  -0.001  0.4902  0.0776  0.8004
 2605TIP3    H229451   4.347   0.667   0.058  0.0721  0.5188 -0.5435
 2606TIP3   OH229452   0.114   2.101   5.050  0.4715 -0.5222 -0.5195
 2606TIP3    H129453   0.054   2.045   5.001 -0.7106  0.9597 -0.8464
 2606TIP3    H229454   0.076   2.105   5.138 -0.1243  0.6357 -0.7993
 2607TIP3   OH229455   0.902   0.559   0.210 -0.4182 -0.1586  0.2823
 2607TIP3    H129456   0.828   0.560   0.149  1.0885  1.3533 -1.6892
 2607TIP3    H229457   0.894   0.641   0.259  0.2706  0.3407 -0.4140
 2608TIP3   OH229458   3.277   1.321   4.805  0.3366  0.5440 -0.5054
 2608TIP3    H129459   3.338   1.371   4.859 -1.2644  1.6951  0.3073
 2608TIP3    H229460   3.232   1.263   4.867 -0.4511  0.7995 -0.8230
 2609TIP3   OH229461   4.855   0.149   3.921  0.1704  0.0172  0.5381
 2609TIP3    H129462   4.788   0.123   3.985  0.3572 -1.5997  0.1176
 2609TIP3    H229463   4.936   0.111   3.955  0.5121  0.2841  0.0182
 2610TIP3   OH229464   3.669   2.176   0.649 -0.2710 -0.2723  0.2074
 2610TIP3    H129465   3.724   2.179   0.726  0.6374 -0.7707 -0.4074
 2610TIP3    H229466   3.605   2.245   0.662  2.0214  2.0661 -0.1912
 2611TIP3   OH229467   0.571   0.185   4.269 -0.0708 -0.3776 -0.0859
 2611TIP3    H129468   0.637   0.167   4.202 -0.6779 -0.1376 -0.7556
 2611TIP3    H229469   0.488   0.156   4.231 -0.7355  1.6140 -0.2684
 2612TIP3   OH229470   5.310   0.870   1.652  0.2731 -0.4017 -0.5495
 2612TIP3    H129471   5.261   0.846   1.573 -2.7083  0.7771  0.7820
 2612TIP3    H229472   5.292   0.799   1.713 -1.5758  0.9624  0.6036
 2613TIP3   OH229473   2.282   6.723   4.121  0.1658  0.3688  0.3407
 2613TIP3    H129474   2.361   6.763   4.158  1.4333 -1.3696 -0.3879
 2613TIP3    H229475   2.233   6.692   4.196  0.5385  0.7777  0.7583
 2614TIP3   OH229476   3.199   6.072   4.140  0.2101  0.2227 -0.2766
 2614TIP3    H129477   3.111   6.080   4.102  0.2338 -0.9244 -0.5842
 2614TIP3    H229478   3.208   5.980   4.163  1.4718  0.2532 -0.5683
 2615TIP3   OH229479   1.255   5.984   2.240 -0.0763  0.1405  0.0624
 2615TIP3    H129480   1.252   5.985   2.335 -0.4276 -1.3487  0.0928
 2615TIP3    H229481   1.209   5.904   2.215  0.8942 -0.0284 -1.3196
 2616TIP3   OH229482   2.982   1.060   3.813 -0.9226 -0.1383  0.6485
 2616TIP3    H129483   3.048   1.065   3.883 -1.4823 -0.0465  1.1771
 2616TIP3    H229484   3.032   1.039   3.734 -0.2022  0.4008  0.9566
 2617TIP3   OH229485   3.811   0.789   2.016  0.1374 -0.3789 -0.0279
 2617TIP3    H129486   3.905   0.777   2.030  0.0765 -1.9730 -0.7422
 2617TIP3    H229487   3.770   0.742   2.088 -0.1634  2.0554  1.4913
 2618TIP3   OH229488   4.193   5.894   3.884 -0.2152  0.6535  0.3389
 2618TIP3    H129489   4.234   5.972   3.921 -1.6113  0.5401  2.2880
 2618TIP3    H229490   4.099   5.911   3.889 -0.5983 -1.3516  1.4363
 2619TIP3   OH229491   5.610   2.250   1.326  0.3810  0.1250  0.3254
 2619TIP3    H129492   5.680   2.305   1.360  1.2524 -1.0514  0.5001
 2619TIP3    H229493   5.649   2.164   1.317 -0.7056 -0.2867 -0.7687
 2620TIP3   OH229494   5.419   0.428   4.500 -0.0443 -0.3966  0.1273
 2620TIP3    H129495   5.441   0.374   4.576 -2.1782 -0.1767  0.9703
 2620TIP3    H229496   5.473   0.506   4.510 -1.7710  0.6164  2.6899
 2621TIP3   OH229497   3.843   5.688   2.208  0.0183 -0.2913 -0.0491
 2621TIP3    H129498   3.801   5.738   2.138 -0.1195 -0.5283 -0.1350
 2621TIP3    H229499   3.793   5.607   2.213  1.9940 -1.7187 -1.8497
 2622TIP3   OH229500   4.629   3.318   0.798 -0.1741  0.7506 -0.5443
 2622TIP3    H129501   4.712   3.307   0.752  0.0721  2.2076 -0.4950
 2622TIP3    H229502   4.614   3.412   0.799 -1.1972  0.6060  0.5745
 2623TIP3   OH229503   2.134   2.689   2.911  0.6136  0.2001 -0.0330
 2623TIP3    H129504   2.172   2.704   2.825  0.1320  0.5639 -0.1869
 2623TIP3    H229505   2.158   2.599   2.932  2.8137  0.8814  0.5447
 2624TIP3   OH229506   0.913   2.643   4.241 -0.7377 -0.2699  0.1723
 2624TIP3    H129507   1.004   2.621   4.259 -0.3369 -0.5868 -1.9432
 2624TIP3    H229508   0.907   2.736   4.260 -0.1602 -0.3848  0.9775
 2625TIP3   OH229509   0.637   5.828   1.321  0.8760  0.4856 -0.0203
 2625TIP3    H129510   0.673   5.749   1.359  1.7022  2.2123  3.1196
 2625TIP3    H229511   0.546   5.830   1.351  0.8257  0.6475 -0.1782
 2626TIP3   OH229512   2.939   4.439   2.369  0.0332  0.6299  0.3756
 2626TIP3    H129513   3.029   4.450   2.340  0.0052 -1.1337 -0.4422
 2626TIP3    H229514   2.906   4.529   2.378  1.0465  1.2771 -1.8688
 2627TIP3   OH229515   1.216   3.863   3.085  0.3522  0.0170  0.1747
 2627TIP3    H129516   1.143   3.812   3.121  0.6518 -0.8183 -0.3664
 2627TIP3    H229517   1.263   3.895   3.162  1.2218 -2.0790  0.5790
 2628TIP3   OH229518   3.954   0.792   2.545  0.3541 -0.1694 -0.3690
 2628TIP3    H129519   3.869   0.752   2.529  0.7769 -1.1185 -0.3123
 2628TIP3    H229520   3.954   0.814   2.638  0.0073  0.2495 -0.4641
 2629TIP3   OH229521   5.093   2.343   0.683 -0.3139 -0.4156  0.3366
 2629TIP3    H129522   5.150   2.285   0.633  0.1262  0.0384  0.3053
 2629TIP3    H229523   5.053   2.401   0.618  0.1935  0.1189  0.4961
 2630TIP3   OH229524   4.616   2.152   0.653  0.3122  0.1601 -0.2359
 2630TIP3    H129525   4.562   2.230   0.648  0.1033 -0.0413 -1.6925
 2630TIP3    H229526   4.700   2.179   0.615  0.4358 -0.1542 -0.1889
 2631TIP3   OH229527   2.238   1.037   3.210 -0.1903 -0.0581  0.1819
 2631TIP3    H129528   2.163   1.003   3.161 -0.3044 -0.0257  0.3319
 2631TIP3    H229529   2.315   0.998   3.168 -0.2202  0.7884 -0.6801
 2632TIP3   OH229530   5.278   4.773   0.458 -0.2669 -0.2834 -0.1644
 2632TIP3    H129531   5.350   4.832   0.481 -0.0877 -1.2216  1.9186
 2632TIP3    H229532   5.316   4.685   0.463 -1.1260 -0.7040 -0.7789
 2633TIP3   OH229533   0.330   1.688   4.032  0.1803  0.2898 -0.0094
 2633TIP3    H129534   0.287   1.747   3.970  1.4282  0.7068 -0.4980
 2633TIP3    H229535   0.324   1.733   4.116 -2.4067 -0.7218  0.4354
 2634TIP3   OH229536   1.148   3.851   1.332  0.0472 -0.1231  0.0101
 2634TIP3    H129537   1.116   3.828   1.245  0.4648  0.4508 -0.3007
 2634TIP3    H229538   1.243   3.841   1.325 -0.0135 -1.6101  0.8602
 2635TIP3   OH229539   3.938   5.126   3.700  0.4283 -0.1216 -0.3249
 2635TIP3    H129540   3.924   5.063   3.771 -0.3580 -1.2182 -1.4017
 2635TIP3    H229541   3.946   5.072   3.621 -0.5473  1.1427 -1.3377
 2636TIP3   OH229542   2.431   0.881   3.785  0.5286  0.6851 -0.3422
 2636TIP3    H129543   2.464   0.804   3.739 -1.1397 -1.0156  1.1275
 2636TIP3    H229544   2.481   0.885   3.866 -0.4542  0.1420  0.3163
 2637TIP3   OH229545   5.047   3.603   2.236  0.1393  0.1884 -0.3527
 2637TIP3    H129546   5.035   3.570   2.147  3.0705 -0.9951 -0.4161
 2637TIP3    H229547   5.084   3.529   2.285 -2.4506  0.4189  2.2406
 2638TIP3   OH229548   0.242   0.807   8.747 -0.0984 -0.0583  0.1784
 2638TIP3    H129549   0.288   0.773   8.670  0.0040  0.0339  0.1969
 2638TIP3    H229550   0.192   0.733   8.780 -0.5094  0.0242 -0.2496
 2639TIP3   OH229551   0.303   0.261   3.539  0.4410 -0.0883 -0.1044
 2639TIP3    H129552   0.257   0.316   3.602  0.6988 -1.0605  0.9584
 2639TIP3    H229553   0.388   0.303   3.527  1.3921 -1.1809  2.1549
 2640TIP3   OH229554   3.389   5.589   4.131 -0.7381 -0.3351  0.4778
 2640TIP3    H129555   3.479   5.585   4.099 -0.4570  2.6432  0.6602
 2640TIP3    H229556   3.397   5.601   4.225 -1.2962  0.1468  0.4730
 2641TIP3   OH229557   4.470   1.917   3.944  0.1271  0.2704  0.3695
 2641TIP3    H129558   4.401   1.872   3.894  0.1287  0.6385  0.0344
 2641TIP3    H229559   4.539   1.851   3.953 -0.6400 -0.4242  1.5303
 2642TIP3   OH229560   6.112   4.474   4.251  0.4896  0.4874 -0.1609
 2642TIP3    H129561   6.180   4.494   4.187  0.4300 -1.4128 -0.8653
 2642TIP3    H229562   6.158   4.471   4.335  1.1862 -0.2025 -0.5554
 2643TIP3   OH229563   2.072   3.185   4.680 -0.5025  0.1576  0.2516
 2643TIP3    H129564   2.060   3.174   4.774  5.6770  1.8935  1.7249
 2643TIP3    H229565   2.147   3.244   4.672 -0.6416  0.2009 -5.8596
 2644TIP3   OH229566   0.838   6.716   2.320 -0.0204 -0.2499  0.4616
 2644TIP3    H129567   0.821   6.668   2.402 -0.5085  1.3407  1.3286
 2644TIP3    H229568   0.922   6.760   2.335  0.8661 -1.4890 -0.6649
 2645TIP3   OH229569   1.881   3.225   2.703 -0.1086  0.1692 -0.5033
 2645TIP3    H129570   1.901   3.163   2.633 -1.0543 -1.4326  0.5706
 2645TIP3    H229571   1.839   3.299   2.659  1.2384  0.1628 -1.8452
 2646TIP3   OH229572   3.460   5.279   2.850 -0.1953 -0.0816 -0.1573
 2646TIP3    H129573   3.368   5.259   2.833 -0.5028  0.6121  0.6264
 2646TIP3    H229574   3.487   5.330   2.774 -0.9763  1.2366  0.4178
 2647TIP3   OH229575   2.706   4.473   3.969  0.0109 -0.5880 -0.1234
 2647TIP3    H129576   2.725   4.382   3.992  1.5508 -0.3634 -0.4007
 2647TIP3    H229577   2.734   4.480   3.878 -2.0433 -0.3539 -0.7720
 2648TIP3   OH229578   4.637   4.897   3.078 -0.0984  0.4068 -0.7766
 2648TIP3    H129579   4.635   4.956   3.154 -2.4306 -0.5330 -0.0071
 2648TIP3    H229580   4.701   4.936   3.019  0.5313  2.1239  0.9271
 2649TIP3   OH229581   5.980   1.654   1.102  0.4008 -0.3109 -0.1946
 2649TIP3    H129582   6.050   1.707   1.140  1.0190 -1.0822 -0.2279
 2649TIP3    H229583   6.014   1.629   1.015 -0.2886  0.0313 -0.5699
 2650TIP3   OH229584   4.752   6.407   1.807 -0.2426 -0.5877 -0.0127
 2650TIP3    H129585   4.667   6.373   1.778 -1.5360  0.9343  1.7535
 2650TIP3    H229586   4.776   6.351   1.881 -0.5393  0.0013  0.5358
 2651TIP3   OH229587   5.037   6.271   4.150 -0.1186 -0.9265 -0.3026
 2651TIP3    H129588   4.955   6.222   4.149 -1.0295  0.3273  2.5964
 2651TIP3    H229589   5.066   6.267   4.242  2.0803  0.2732 -0.8674
 2652TIP3   OH229590   6.642   1.984   3.630 -0.0546  0.2148 -0.3585
 2652TIP3    H129591   6.548   1.969   3.619  0.0999 -0.2522 -1.1718
 2652TIP3    H229592   6.651   2.079   3.640 -0.7977  0.0924  1.9211
 2653TIP3   OH229593   0.345   1.967   3.400 -0.1093 -0.0210  0.0013
 2653TIP3    H129594   0.253   1.960   3.377 -0.2172  0.7196  0.1756
 2653TIP3    H229595   0.345   1.987   3.494  0.2341 -0.2531  0.0519
 2654TIP3   OH229596   2.984   3.203   3.614  0.2022  0.1491 -0.1012
 2654TIP3    H129597   2.988   3.179   3.522  0.6746 -0.9414  0.1847
 2654TIP3    H229598   2.902   3.251   3.623  0.2145  0.3845 -1.1106
 2655TIP3   OH229599   2.175   2.182   0.905 -0.5793  0.1626 -0.0851
 2655TIP3    H129600   2.094   2.195   0.956 -1.1444 -0.1900 -0.8786
 2655TIP3    H229601   2.156   2.223   0.820 -0.3949 -1.0366 -0.7186
 2656TIP3   OH229602   3.021   0.056   3.663 -0.0228  0.2309 -0.0449
 2656TIP3    H129603   2.957   0.020   3.601  0.3221 -0.3581 -0.0642
 2656TIP3    H229604   3.091  -0.009   3.665  0.8653  1.1459 -0.4756
 2657TIP3   OH229605   1.050   2.263   2.328  0.4380  0.1011  0.3609
 2657TIP3    H129606   1.096   2.212   2.395  1.6501  0.2457 -0.3416
 2657TIP3    H229607   1.119   2.304   2.277 -0.3563 -1.3313 -2.0458
 2658TIP3   OH229608   1.301   3.471   4.731  0.4725  0.2535  0.4204
 2658TIP3    H129609   1.228   3.513   4.776  1.0383  0.0074  1.6153
 2658TIP3    H229610   1.282   3.377   4.738  1.7885  0.0660  2.4343
 2659TIP3   OH229611   5.880   4.063   0.285  0.3914  0.0435  0.6186
 2659TIP3    H129612   5.786   4.048   0.288  0.4745 -0.3757  1.3517
 2659TIP3    H229613   5.899   4.114   0.364  0.4599  2.0905 -0.6671
 2660TIP3   OH229614   0.682   5.696   3.334 -0.2237  0.0537  0.4069
 2660TIP3    H129615   0.619   5.764   3.309  1.7199  1.4990 -0.8364
 2660TIP3    H229616   0.758   5.744   3.367  1.7073 -1.3791 -1.6594
 2661TIP3   OH229617   4.912   5.687   3.550 -0.2692  0.3159 -0.7929
 2661TIP3    H129618   4.824   5.714   3.578 -0.0784 -0.4745  0.6880
 2661TIP3    H229619   4.968   5.703   3.627  0.4092 -1.3523 -0.8929
 2662TIP3   OH229620   2.455   6.165   3.400 -0.4126  0.1501 -0.4583
 2662TIP3    H129621   2.517   6.231   3.430  0.0172 -0.8046  0.8697
 2662TIP3    H229622   2.372   6.188   3.442  0.0976 -0.9635  1.3064
 2663TIP3   OH229623   0.271   5.381   3.090 -0.2700  0.1125 -0.2081
 2663TIP3    H129624   0.191   5.333   3.110  0.6861 -2.5672 -2.3198
 2663TIP3    H229625   0.339   5.340   3.144  0.0771  1.0046  0.0593
 2664TIP3   OH229626   6.769   5.162   0.154  0.4126 -0.2609 -0.6441
 2664TIP3    H129627   6.779   5.067   0.165  1.9607 -0.0647 -0.1190
 2664TIP3    H229628   6.835   5.186   0.089 -0.0078  0.4667 -0.8201
 2665TIP3   OH229629   6.711   4.148   1.182  0.5363  0.3187 -0.1070
 2665TIP3    H129630   6.684   4.087   1.113  0.0977  0.7846 -0.3504
 2665TIP3    H229631   6.678   4.233   1.153  0.2383  0.4945  0.7472
 2666TIP3   OH229632   3.554   2.813   4.286  0.1524  0.9021 -0.0331
 2666TIP3    H129633   3.637   2.798   4.241  0.9859 -0.7928  1.9082
 2666TIP3    H229634   3.575   2.802   4.379 -2.0909  1.1870  0.5538
 2667TIP3   OH229635   1.879   5.371   1.915  0.0970  0.5688 -0.8910
 2667TIP3    H129636   1.862   5.277   1.907  1.6413  0.1765 -0.0549
 2667TIP3    H229637   1.809   5.403   1.973 -1.2588  0.2430 -2.2884
 2668TIP3   OH229638   5.519   0.273   3.382  0.9164  0.5775  0.3015
 2668TIP3    H129639   5.428   0.302   3.384  0.4944 -0.6206  2.9705
 2668TIP3    H229640   5.516   0.187   3.341  1.1998  1.3533 -1.4422
 2669TIP3   OH229641   0.795   2.285   4.449  0.0374 -0.3983  0.1258
 2669TIP3    H129642   0.832   2.197   4.438  0.3992 -0.3042  0.5375
 2669TIP3    H229643   0.736   2.277   4.523 -0.8788 -0.5739 -0.6075
 2670TIP3   OH229644   4.188   6.071   1.136 -0.1572  0.0943 -0.2528
 2670TIP3    H129645   4.124   6.129   1.177 -0.4626 -0.0921 -0.4694
 2670TIP3    H229646   4.137   6.015   1.077  0.4386  1.6298 -2.3748
 2671TIP3   OH229647   3.663   0.901   4.254  0.0667 -0.0114 -0.3477
 2671TIP3    H129648   3.671   0.978   4.310  1.6454 -0.7599  0.5197
 2671TIP3    H229649   3.614   0.932   4.177 -0.9259  1.3742  0.7955
 2672TIP3   OH229650   1.970   1.557   0.242 -1.0369  0.0200  0.0789
 2672TIP3    H129651   2.020   1.479   0.216  0.1000  1.4003 -2.2580
 2672TIP3    H229652   2.027   1.630   0.219 -1.6054  1.5911  3.2008
 2673TIP3   OH229653   1.072   0.774   2.974 -0.0871  0.7326 -0.4197
 2673TIP3    H129654   1.013   0.810   3.040 -0.5867  1.5962 -1.3132
 2673TIP3    H229655   1.016   0.759   2.897  0.5378  0.0225 -0.7542
 2674TIP3   OH229656   2.750   0.519   4.099  0.2417  0.1120  0.0732
 2674TIP3    H129657   2.704   0.470   4.167 -1.5801  1.0847 -0.3957
 2674TIP3    H229658   2.819   0.565   4.145 -0.0010 -0.4450  1.0143
 2675TIP3   OH229659   3.692   3.826   2.509  0.3491  0.4180 -0.1810
 2675TIP3    H129660   3.696   3.888   2.436  0.4175  1.0975  0.3910
 2675TIP3    H229661   3.670   3.879   2.585 -0.5270 -0.4085  0.1583
 2676TIP3   OH229662   4.193   0.628   1.642 -0.4603 -0.1439  0.4422
 2676TIP3    H129663   4.112   0.605   1.597 -1.0937  1.4773  0.7128
 2676TIP3    H229664   4.196   0.569   1.718 -2.3734  1.0123  1.4894
 2677TIP3   OH229665   4.071   4.912   0.801 -0.1263 -0.1528 -0.2443
 2677TIP3    H129666   4.157   4.946   0.775 -0.3449  0.7638  0.2053
 2677TIP3    H229667   4.030   4.885   0.719 -0.2994  1.5140 -0.7419
 2678TIP3   OH229668   5.671   4.388   1.912  0.1856  0.3368  0.3697
 2678TIP3    H129669   5.650   4.481   1.917 -1.2032  0.0243  0.6928
 2678TIP3    H229670   5.670   4.358   2.003  1.8442  0.2312  0.3910
 2679TIP3   OH229671   2.423   3.347   5.109  0.2783 -0.3953  0.6641
 2679TIP3    H129672   2.516   3.350   5.133  0.3795  1.5134  0.1958
 2679TIP3    H229673   2.406   3.432   5.069 -2.2303  0.2477  2.7758
 2680TIP3   OH229674   6.322   6.330   2.864 -0.3934 -0.5406  0.0610
 2680TIP3    H129675   6.315   6.406   2.807 -0.3320 -0.0757  0.6593
 2680TIP3    H229676   6.256   6.269   2.831 -0.6878 -0.0825 -0.2109
 2681TIP3   OH229677   5.288   3.623   0.783 -0.3456  0.0701  0.2654
 2681TIP3    H129678   5.221   3.555   0.788 -1.5098  1.0417 -1.1731
 2681TIP3    H229679   5.239   3.705   0.780  0.8484  0.7887 -1.2695
 2682TIP3   OH229680   3.447   4.953   0.200  0.0952 -0.0556 -0.1288
 2682TIP3    H129681   3.508   4.980   0.269  0.3370  1.0060 -0.7426
 2682TIP3    H229682   3.381   4.901   0.246 -0.5034  1.7641  1.1465
 2683TIP3   OH229683   4.397   3.039   4.329  0.3057 -0.1513  0.5494
 2683TIP3    H129684   4.327   3.002   4.274  1.6680 -0.8222 -0.8225
 2683TIP3    H229685   4.455   2.965   4.346  0.0734  0.1116  2.7328
 2684TIP3   OH229686   3.553   4.585   3.145  0.4371  0.3790  0.7197
 2684TIP3    H129687   3.594   4.498   3.152  0.8457  0.5172  0.1184
 2684TIP3    H229688   3.476   4.580   3.202 -0.4675 -0.9194 -0.5479
 2685TIP3   OH229689   5.403   5.241   2.718 -0.6042 -0.0401 -0.2645
 2685TIP3    H129690   5.411   5.218   2.810  0.3884  0.2271 -0.2755
 2685TIP3    H229691   5.417   5.159   2.671  1.6334  0.2859 -0.2564
 2686TIP3   OH229692   4.486   0.281   1.966 -0.0948 -0.2197 -0.7996
 2686TIP3    H129693   4.464   0.324   1.884  0.4072 -0.9404 -1.3289
 2686TIP3    H229694   4.452   0.192   1.955 -1.6625  0.1785  0.5057
 2687TIP3   OH229695   1.025   3.412   4.292  0.3833 -0.4450  0.3320
 2687TIP3    H129696   1.083   3.463   4.348  0.7963  0.0610 -0.5431
 2687TIP3    H229697   0.961   3.475   4.259  0.2721 -0.6939  0.0633
 2688TIP3   OH229698   5.976   2.588   2.685  0.1606  0.1275  0.3866
 2688TIP3    H129699   6.055   2.617   2.639 -0.5885  1.9969  0.1809
 2688TIP3    H229700   5.908   2.650   2.658 -1.2211 -1.0081  1.1031
 2689TIP3   OH229701   0.275   6.140   4.995  0.9584  0.1273 -0.2596
 2689TIP3    H129702   0.309   6.055   4.967  0.5466  0.1398 -0.8157
 2689TIP3    H229703   0.287   6.141   5.089 -0.7604 -1.3495  0.0357
 2690TIP3   OH229704   0.060   2.085   1.081  0.3118  0.2123  0.0066
 2690TIP3    H129705   0.126   2.051   1.141  0.4464 -1.2478 -0.9184
 2690TIP3    H229706  -0.024   2.070   1.126  0.4928  0.3570  0.3914
 2691TIP3   OH229707   2.174   2.732   1.077  0.2058  0.0270 -0.1309
 2691TIP3    H129708   2.231   2.670   1.123  0.4706  0.3190 -0.0684
 2691TIP3    H229709   2.231   2.778   1.016 -0.1341 -0.3154 -0.7181
 2692TIP3   OH229710   5.463   2.994   4.509 -0.6335 -0.3033  0.6058
 2692TIP3    H129711   5.434   3.046   4.434 -1.2964  1.7497  2.1964
 2692TIP3    H229712   5.481   2.907   4.472 -2.7484  0.0782 -1.5967
 2693TIP3   OH229713   1.151   5.730   3.145 -0.2310  0.4648 -0.4268
 2693TIP3    H129714   1.209   5.741   3.220 -0.6481  0.0189 -0.0287
 2693TIP3    H229715   1.147   5.816   3.103 -0.8356  0.9953  0.6816
 2694TIP3   OH229716   3.483   5.049   4.852  0.2946  0.2926 -0.3039
 2694TIP3    H129717   3.471   4.955   4.868 -0.1211  0.4342  0.2235
 2694TIP3    H229718   3.529   5.081   4.929 -2.0809  1.0518  0.8906
 2695TIP3   OH229719   0.005   3.772   1.995 -0.1396 -0.0298  0.0852
 2695TIP3    H129720   0.064   3.696   1.996 -0.9288 -0.6558  0.3284
 2695TIP3    H229721   0.046   3.833   1.934  0.2524 -0.8658 -0.5120
 2696TIP3   OH229722   2.869   5.949   2.554  0.1780 -0.2895  0.2327
 2696TIP3    H129723   2.845   5.860   2.579  0.7827 -0.5438 -0.0936
 2696TIP3    H229724   2.894   5.991   2.637 -0.3168 -0.3520  0.4170
 2697TIP3   OH229725   5.562   0.819   1.868 -0.2383 -0.0909  0.3137
 2697TIP3    H129726   5.503   0.835   1.795  1.1613  1.7250 -0.5068
 2697TIP3    H229727   5.649   0.839   1.834  0.4666  0.8230  2.4571
 2698TIP3   OH229728   4.308   6.277   2.021 -0.0392 -0.3739  0.1799
 2698TIP3    H129729   4.250   6.214   1.979 -1.8889  0.9709  0.6284
 2698TIP3    H229730   4.265   6.298   2.104  1.5911 -0.0504  1.0040
 2699TIP3   OH229731   4.132   2.016   3.074  0.0640 -0.2862 -0.0053
 2699TIP3    H129732   4.124   2.020   3.170 -1.5496  1.9055 -0.1653
 2699TIP3    H229733   4.162   2.103   3.049 -0.2593 -0.6094 -1.5775
 2700TIP3   OH229734   2.968   0.446   3.962  0.2394 -0.0066  0.1605
 2700TIP3    H129735   2.945   0.361   3.924  1.1631 -0.0131 -0.3979
 2700TIP3    H229736   2.897   0.464   4.025 -1.1314 -0.1449 -1.2961
 2701TIP3   OH229737   4.523   3.922   2.315 -0.1711  0.3663 -0.5175
 2701TIP3    H129738   4.437   3.880   2.314 -0.0208 -0.0940  1.2508
 2701TIP3    H229739   4.505   4.014   2.297 -1.2466  0.5293  1.1113
 2702TIP3   OH229740   0.212   1.645   4.649  0.4915  0.9806  0.2705
 2702TIP3    H129741   0.206   1.566   4.595 -0.1794  2.0002 -1.2445
 2702TIP3    H229742   0.300   1.679   4.633  0.6706  0.7089  0.6752
 2703TIP3   OH229743   2.535   5.896   4.228  0.4521 -0.3865 -0.6230
 2703TIP3    H129744   2.479   5.971   4.245 -0.6165 -1.3999  0.5147
 2703TIP3    H229745   2.623   5.927   4.247 -0.0380  0.3868  0.5352
 2704TIP3   OH229746   4.504   4.219   3.606  0.3249  0.3921  0.4839
 2704TIP3    H129747   4.574   4.154   3.611 -1.1259 -1.2688  0.1876
 2704TIP3    H229748   4.478   4.219   3.514 -0.5981  0.4068  0.7363
 2705TIP3   OH229749   4.223   4.276   2.846 -0.1666 -0.2693 -0.4073
 2705TIP3    H129750   4.271   4.200   2.813 -1.1632 -0.9366 -0.3476
 2705TIP3    H229751   4.178   4.311   2.770  0.2347  0.2211 -0.4193
 2706TIP3   OH229752   1.494   1.080   3.484 -0.8167 -0.2992  0.5128
 2706TIP3    H129753   1.446   1.125   3.415  0.4721  5.0814  2.6507
 2706TIP3    H229754   1.580   1.121   3.483  0.4850 -2.7153  2.9595
 2707TIP3   OH229755   2.187   6.595   0.407  0.5636  0.1636  0.5183
 2707TIP3    H129756   2.174   6.689   0.424 -0.2941  0.0849  0.3263
 2707TIP3    H229757   2.212   6.592   0.314  2.3082  0.3369  0.9531
 2708TIP3   OH229758   5.945   5.903   3.189 -0.2928  0.0308  0.3808
 2708TIP3    H129759   5.940   5.808   3.184  0.0938  0.0380 -0.3065
 2708TIP3    H229760   6.004   5.920   3.263  1.4381 -0.3254 -0.8420
 2709TIP3   OH229761   5.890   3.714   2.445  0.2986  0.1271 -0.1985
 2709TIP3    H129762   5.880   3.803   2.479 -0.1947 -0.5725  1.5947
 2709TIP3    H229763   5.852   3.718   2.357 -1.4983  1.2589  0.5717
 2710TIP3   OH229764   4.417   3.878   4.708  0.0318  0.2083 -0.1674
 2710TIP3    H129765   4.471   3.952   4.682 -0.1194 -0.0477 -1.2603
 2710TIP3    H229766   4.478   3.806   4.722  0.0795  0.2361 -0.2342
 2711TIP3   OH229767   2.083   2.127   2.783  0.1983 -0.2259 -0.1362
 2711TIP3    H129768   2.001   2.079   2.790  1.2932 -2.5973 -2.1321
 2711TIP3    H229769   2.097   2.140   2.689  3.1333 -1.9358 -0.0628
 2712TIP3   OH229770   0.251   4.745   2.199  0.0680 -0.1655  0.1197
 2712TIP3    H129771   0.288   4.833   2.204  0.3882 -0.3531  1.2405
 2712TIP3    H229772   0.298   4.704   2.127 -0.3892  0.7058 -0.7083
 2713TIP3   OH229773   4.302   2.786   2.027  0.4049  0.6914 -0.1442
 2713TIP3    H129774   4.340   2.863   1.985  0.4722 -0.2003 -1.8117
 2713TIP3    H229775   4.235   2.821   2.085  1.1297  2.0592 -0.0831
 2714TIP3   OH229776   1.219   0.485   4.612  0.4131 -0.2741  0.2306
 2714TIP3    H129777   1.150   0.479   4.547  0.3391  0.2027  0.2618
 2714TIP3    H229778   1.278   0.553   4.579  0.1855  0.2273  0.8277
 2715TIP3   OH229779   5.085   1.976   3.707 -0.4223 -0.2332 -0.5283
 2715TIP3    H129780   4.998   2.015   3.703 -0.6822 -0.7187  0.1861
 2715TIP3    H229781   5.137   2.027   3.645 -1.1751  0.1560 -0.8516
 2716TIP3   OH229782   0.132   1.555   1.291  0.9615 -0.4803  0.2485
 2716TIP3    H129783   0.176   1.640   1.289  1.5045 -0.7489  0.3985
 2716TIP3    H229784   0.203   1.492   1.275  0.3278 -0.8169 -1.4405
 2717TIP3   OH229785   1.485   3.161   3.395  0.1258 -0.3306  0.2132
 2717TIP3    H129786   1.443   3.223   3.335 -0.1458 -0.6747  0.0448
 2717TIP3    H229787   1.477   3.076   3.352  1.0159 -0.4059  0.1785
 2718TIP3   OH229788   3.994   0.587   4.100 -0.0600  0.4264  0.4229
 2718TIP3    H129789   4.072   0.611   4.150 -0.0433  1.7258 -0.1820
 2718TIP3    H229790   4.027   0.533   4.028  0.5125  2.1035 -0.6299
 2719TIP3   OH229791   0.036   3.833   2.757 -0.0990  0.6429 -0.1100
 2719TIP3    H129792   0.114   3.888   2.741  0.9487 -0.9503 -0.7303
 2719TIP3    H229793   0.048   3.758   2.699 -0.5103 -1.1850  2.0309
 2720TIP3   OH229794   3.609   1.874   0.951  0.2100 -0.0263  0.2528
 2720TIP3    H129795   3.605   1.808   1.021  0.3456  0.2187  0.4928
 2720TIP3    H229796   3.680   1.933   0.977 -1.0460  1.2310  0.9422
 2721TIP3   OH229797   5.234   6.531   3.222 -0.3588  0.4455  0.2880
 2721TIP3    H129798   5.269   6.564   3.139 -1.6895  0.9099 -0.1094
 2721TIP3    H229799   5.225   6.608   3.277  0.5185  0.1371  0.8957
 2722TIP3   OH229800   1.368   4.833   1.227  0.2953 -0.2502  0.3286
 2722TIP3    H129801   1.394   4.918   1.191  1.7534 -1.2340 -1.0991
 2722TIP3    H229802   1.286   4.813   1.182 -0.4564  0.6852  1.2190
 2723TIP3   OH229803   4.570   1.801   2.151 -0.0929 -0.1964 -0.1718
 2723TIP3    H129804   4.505   1.742   2.112 -0.1948  0.8205 -1.5956
 2723TIP3    H229805   4.545   1.888   2.121  1.3648  0.3310  0.0446
 2724TIP3   OH229806   2.813   6.603   2.799  0.0753 -0.8087  0.0926
 2724TIP3    H129807   2.760   6.594   2.878  1.0127 -0.4107  0.7886
 2724TIP3    H229808   2.799   6.693   2.770  1.6153 -0.1745  1.2230
 2725TIP3   OH229809   4.220   0.089   0.211  0.0363  0.5519  0.1133
 2725TIP3    H129810   4.164   0.094   0.133 -0.2012 -1.9931  0.0311
 2725TIP3    H229811   4.288   0.026   0.187  1.5186  1.7004  1.1092
 2726TIP3   OH229812   2.823   4.474   1.368  0.1221  0.2049  0.0230
 2726TIP3    H129813   2.891   4.436   1.424  1.4896  1.6124 -0.5751
 2726TIP3    H229814   2.763   4.517   1.429  1.0467  0.8838  0.4790
 2727TIP3   OH229815   0.397   4.874   3.800  0.7418  0.0564  0.0932
 2727TIP3    H129816   0.463   4.830   3.854  1.8384  2.4211  0.7917
 2727TIP3    H229817   0.443   4.899   3.721  0.1688  0.0957 -0.2361
 2728TIP3   OH229818   5.783   1.107   2.196 -0.1400  0.0231 -0.3553
 2728TIP3    H129819   5.856   1.125   2.138 -0.3230 -0.1524 -0.6401
 2728TIP3    H229820   5.761   1.015   2.181 -0.0711 -0.0785  0.1251
 2729TIP3   OH229821   1.264   2.001   3.757  0.1119 -0.7687  0.2289
 2729TIP3    H129822   1.298   1.993   3.846 -0.2422 -1.4536  0.3113
 2729TIP3    H229823   1.288   2.090   3.730 -0.0480 -0.4464  1.1150
 2730TIP3   OH229824   2.327   5.768   3.019 -0.5162 -0.0888  0.0761
 2730TIP3    H129825   2.282   5.840   3.062 -0.0237  0.4993 -0.3764
 2730TIP3    H229826   2.326   5.697   3.084 -3.1890 -0.5698 -0.3647
 2731TIP3   OH229827   2.420   1.605   3.492  0.1191 -0.4566  0.0398
 2731TIP3    H129828   2.364   1.548   3.439  0.4401  0.4470 -1.3179
 2731TIP3    H229829   2.466   1.546   3.551 -1.8357 -1.2879  0.8061
 2732TIP3   OH229830   3.244   1.995   1.996  0.3587  0.0792 -0.4815
 2732TIP3    H129831   3.168   2.030   1.950 -1.6766 -1.1400  1.6843
 2732TIP3    H229832   3.290   2.072   2.030 -1.3067  0.8303  0.1795
 2733TIP3   OH229833   6.260   3.851   3.828 -0.1873 -0.2031  0.0620
 2733TIP3    H129834   6.270   3.901   3.909 -1.4312 -1.9436  1.3380
 2733TIP3    H229835   6.311   3.901   3.764 -1.2781  2.6466  1.2476
 2734TIP3   OH229836   0.514   0.330   0.213 -0.6372  0.2246 -0.2225
 2734TIP3    H129837   0.435   0.353   0.165 -0.8291  0.7642  0.3284
 2734TIP3    H229838   0.586   0.361   0.158 -0.7830 -0.7459 -0.9713
 2735TIP3   OH229839   1.016   1.624   0.104  0.2703  0.4285 -0.5783
 2735TIP3    H129840   0.941   1.683   0.102  1.5776  2.3635  2.0719
 2735TIP3    H229841   1.077   1.660   0.040 -1.2864 -1.7731 -3.5677
 2736TIP3   OH229842   6.703   3.569   0.636  0.2597  0.2770 -0.3610
 2736TIP3    H129843   6.763   3.643   0.628  0.1640  0.4365  0.2950
 2736TIP3    H229844   6.619   3.610   0.658 -0.0765  0.0522 -1.1745
 2737TIP3   OH229845   2.779   6.427   1.419 -0.3889 -0.7747 -0.1244
 2737TIP3    H129846   2.794   6.386   1.504 -0.1783 -0.7492 -0.1483
 2737TIP3    H229847   2.758   6.354   1.360 -0.6111 -0.7846 -0.0331
 2738TIP3   OH229848   6.274   6.089   1.635 -0.2243 -0.2717  0.3156
 2738TIP3    H129849   6.316   6.119   1.716  1.3899  1.8228 -1.1531
 2738TIP3    H229850   6.185   6.124   1.639 -0.1984 -0.3043  1.2424
 2739TIP3   OH229851   0.349   2.889   8.730 -0.0696 -0.4921 -0.3927
 2739TIP3    H129852   0.375   2.965   8.678  0.9890 -1.0285 -0.6657
 2739TIP3    H229853   0.288   2.925   8.795  0.5311  0.6260 -0.4148
 2740TIP3   OH229854   1.519   4.851   2.998  0.3629 -0.1084 -0.4043
 2740TIP3    H129855   1.563   4.767   2.980 -0.5819 -0.7295  0.1011
 2740TIP3    H229856   1.590   4.912   3.013  1.0737 -0.8577 -0.6201
 2741TIP3   OH229857   1.629   5.454   8.805 -0.3866 -0.2091  0.0951
 2741TIP3    H129858   1.662   5.423   8.889  1.3615 -1.2660 -0.9134
 2741TIP3    H229859   1.534   5.443   8.810 -0.4258  0.7180  2.2702
 2742TIP3   OH229860   6.706   6.831   0.782 -1.3164  0.7906  0.0200
 2742TIP3    H129861   6.752   6.802   0.861 -3.1696  0.5426  1.0566
 2742TIP3    H229862   6.703   6.752   0.727 -1.3922  0.5343  0.3857
 2743TIP3   OH229863   2.540   3.130   3.407 -0.0011 -0.1419  0.1045
 2743TIP3    H129864   2.447   3.143   3.389  0.3966  1.6224 -0.8775
 2743TIP3    H229865   2.574   3.218   3.421  1.5110 -0.7772  0.6148
 2744TIP3   OH229866   6.050   4.010   0.632 -0.7567 -0.5631 -0.3871
 2744TIP3    H129867   5.993   3.962   0.692 -0.6172 -0.3433 -0.0763
 2744TIP3    H229868   6.045   4.101   0.661  1.3497 -0.7995  0.9767
 2745TIP3   OH229869   3.353   6.491   1.563  0.1906  0.3308  0.6862
 2745TIP3    H129870   3.330   6.564   1.506 -1.6171 -0.2111  0.6573
 2745TIP3    H229871   3.386   6.532   1.642  1.4371  1.1171 -0.2027
 2746TIP3   OH229872   2.025   0.829   0.752 -0.2003 -0.3457  0.0573
 2746TIP3    H129873   2.094   0.869   0.805 -0.4901  0.5770 -0.2511
 2746TIP3    H229874   2.073   0.788   0.679  0.1921 -1.5781  0.9683
 2747TIP3   OH229875   6.580   3.423   0.431 -0.0153  0.6794 -0.5608
 2747TIP3    H129876   6.579   3.446   0.338  1.2439  0.6649 -0.5893
 2747TIP3    H229877   6.647   3.479   0.469  0.8370 -0.6555 -0.0242
 2748TIP3   OH229878   2.890   2.168   2.560  0.1919 -0.1454 -0.1997
 2748TIP3    H129879   2.960   2.110   2.589 -0.9064 -0.5585  1.7759
 2748TIP3    H229880   2.843   2.191   2.640 -0.7223  1.7422 -1.2234
 2749TIP3   OH229881   3.981   1.052   2.941  0.0825  0.5060 -0.6975
 2749TIP3    H129882   3.966   1.076   3.032 -0.6930 -0.1752 -0.6401
 2749TIP3    H229883   4.075   1.068   2.927 -0.2342  2.8762 -0.4792
 2750TIP3   OH229884   5.830   2.281   0.660 -0.5705 -0.0566  0.2621
 2750TIP3    H129885   5.884   2.215   0.616 -1.3761  0.2078 -1.1820
 2750TIP3    H229886   5.796   2.336   0.589 -0.2963  1.6420  1.3935
 2751TIP3   OH229887   1.123   1.793   1.053 -0.4891 -0.0955  0.1497
 2751TIP3    H129888   1.042   1.741   1.051 -0.2976 -0.6008  2.5735
 2751TIP3    H229889   1.193   1.728   1.048 -0.2566  0.0543  1.1625
 2752TIP3   OH229890   0.825   3.864   1.006  0.0288 -0.6608 -0.1971
 2752TIP3    H129891   0.809   3.815   0.926 -1.6732  0.4800 -0.6042
 2752TIP3    H229892   0.826   3.798   1.076 -0.0548 -1.4852 -0.9689
 2753TIP3   OH229893   2.534   3.441   2.223  0.3217  0.0735  0.0006
 2753TIP3    H129894   2.479   3.383   2.275 -1.0782  1.8496  0.6035
 2753TIP3    H229895   2.560   3.511   2.284  1.9532  0.1152 -0.6893
 2754TIP3   OH229896   1.271   0.006   3.039 -0.2492  0.1001  0.1505
 2754TIP3    H129897   1.365   0.005   3.060  0.0820 -0.9900 -1.1616
 2754TIP3    H229898   1.242  -0.084   3.056 -0.7013  0.0472 -0.8376
 2755TIP3   OH229899   3.578   0.599   3.157  0.3339  0.3398  0.0563
 2755TIP3    H129900   3.515   0.630   3.092  0.6067  1.7572  0.4288
 2755TIP3    H229901   3.607   0.679   3.202  2.0433 -0.3363  0.2149
 2756TIP3   OH229902   3.325   6.080   3.795 -0.6879 -0.4020 -0.5215
 2756TIP3    H129903   3.361   6.125   3.718  0.0405 -0.5752 -0.2776
 2756TIP3    H229904   3.269   6.011   3.757  0.6113 -1.2657 -0.9141
 2757TIP3   OH229905   5.292   6.435   8.833 -0.6376 -0.6689  0.5627
 2757TIP3    H129906   5.317   6.504   8.896 -0.3331 -0.1037 -0.1658
 2757TIP3    H229907   5.348   6.361   8.855  0.1881 -0.1315  0.3120
 2758TIP3   OH229908   5.443   0.358   4.145 -0.2848 -0.1659 -0.1367
 2758TIP3    H129909   5.432   0.411   4.066  0.4552  0.7889  0.3833
 2758TIP3    H229910   5.506   0.406   4.198  1.7148 -2.3846 -0.3462
 2759TIP3   OH229911   0.763   0.030   3.214 -0.6642 -0.2743 -0.3678
 2759TIP3    H129912   0.836   0.090   3.226 -0.7859 -0.1018 -0.4910
 2759TIP3    H229913   0.794  -0.053   3.252 -0.9757  0.2017  0.9934
 2760TIP3   OH229914   1.096   2.462   8.598  0.0125  0.6720  0.1563
 2760TIP3    H129915   1.066   2.378   8.632 -0.1511  1.1559  1.2382
 2760TIP3    H229916   1.109   2.517   8.675  0.5960  1.4911 -0.5002
 2761TIP3   OH229917   0.823   5.981   2.896  0.2387  0.6104 -0.4595
 2761TIP3    H129918   0.824   5.979   2.992  1.3281  1.8904 -0.4313
 2761TIP3    H229919   0.757   6.047   2.874  1.5320  1.9315 -0.5256
 2762TIP3   OH229920   0.996   5.808   2.764  0.1675 -0.5712  0.3171
 2762TIP3    H129921   0.942   5.876   2.805 -1.1373 -0.4140 -1.5256
 2762TIP3    H229922   0.943   5.729   2.770  1.3962 -1.3287  1.8464
 2763TIP3   OH229923   1.329   3.473   2.600 -0.4532  0.2174  0.0079
 2763TIP3    H129924   1.270   3.468   2.526  2.0602  3.0510 -2.4280
 2763TIP3    H229925   1.403   3.417   2.576  0.0253  0.4942  0.7799
 2764TIP3   OH229926   5.030   4.154   2.768  0.1355  0.0772  0.1754
 2764TIP3    H129927   5.097   4.148   2.836 -0.3047  4.0616  1.2581
 2764TIP3    H229928   5.066   4.107   2.694  2.4466 -1.0314  1.8897
 2765TIP3   OH229929   6.036   2.430   1.255  0.4491  0.1251  0.0245
 2765TIP3    H129930   6.090   2.491   1.305 -0.1240  1.2776 -0.7251
 2765TIP3    H229931   5.947   2.447   1.285  0.4209 -1.6296  1.1206
 2766TIP3   OH229932   2.972   1.091   1.783  0.4741  0.4077 -0.1772
 2766TIP3    H129933   3.016   1.012   1.752  1.0619  0.5972  0.1726
 2766TIP3    H229934   2.958   1.142   1.703 -0.1107 -0.1378 -0.4394
 2767TIP3   OH229935   0.771   6.535   2.915  0.5260  1.1095 -0.2392
 2767TIP3    H129936   0.790   6.543   2.821 -0.2007 -1.3575 -0.6654
 2767TIP3    H229937   0.800   6.447   2.937 -1.7214  0.6913  1.2450
 2768TIP3   OH229938   3.116   2.106   0.267 -0.2484  0.2136  0.6872
 2768TIP3    H129939   3.090   2.105   0.359 -3.1863  0.2215 -0.0435
 2768TIP3    H229940   3.088   2.192   0.235 -1.2344 -0.5763 -0.6708
 2769TIP3   OH229941   5.745   1.358   3.521 -0.1093 -0.2660 -0.0619
 2769TIP3    H129942   5.811   1.409   3.474 -2.0073  1.7463 -0.7103
 2769TIP3    H229943   5.666   1.364   3.467 -1.3832 -0.9155  1.6258
 2770TIP3   OH229944   1.824   2.723   3.183  0.7082 -0.7744  0.5299
 2770TIP3    H129945   1.860   2.634   3.185  2.0337 -0.3193 -1.0336
 2770TIP3    H229946   1.897   2.778   3.153 -0.1398  0.8291  1.2591
 2771TIP3   OH229947   5.479   5.662   3.590  0.3600  0.2391  0.2405
 2771TIP3    H129948   5.527   5.743   3.576 -0.0950  0.7663  1.5363
 2771TIP3    H229949   5.447   5.669   3.680 -0.6840 -0.8576 -0.0207
 2772TIP3   OH229950   2.824   3.979   3.075  0.1226 -0.0109  0.4221
 2772TIP3    H129951   2.896   3.986   3.137  0.8401  0.1067 -0.4166
 2772TIP3    H229952   2.859   3.927   3.003 -1.0464 -1.1002  0.5982
 2773TIP3   OH229953   3.270   3.356   0.907  0.3150 -0.4236  0.0177
 2773TIP3    H129954   3.220   3.278   0.933 -0.5523  0.2466  0.3813
 2773TIP3    H229955   3.207   3.428   0.911  1.4613  0.5502  1.0704
 2774TIP3   OH229956   3.868   0.748   3.760  0.3763 -0.3264  0.6275
 2774TIP3    H129957   3.931   0.803   3.806  1.9067  0.5879 -2.3408
 2774TIP3    H229958   3.903   0.659   3.768  0.3265 -0.2795  1.5709
 2775TIP3   OH229959   4.138   2.120   8.759 -0.3603  0.2911 -0.1049
 2775TIP3    H129960   4.085   2.194   8.788 -1.6044 -0.4087 -0.5215
 2775TIP3    H229961   4.088   2.043   8.786  1.4013 -0.4529  1.2654
 2776TIP3   OH229962   5.925   0.700   3.229 -0.3980  0.4354  0.2219
 2776TIP3    H129963   5.901   0.615   3.267 -0.3726 -0.3750 -1.4619
 2776TIP3    H229964   5.990   0.736   3.288  0.3561 -1.2024  0.4351
 2777TIP3   OH229965   5.757   1.729   2.679 -0.0447 -0.1340  0.5929
 2777TIP3    H129966   5.687   1.671   2.650  3.0153 -4.4566  0.8280
 2777TIP3    H229967   5.727   1.763   2.763 -1.9255 -1.6766  0.6031
 2778TIP3   OH229968   5.381   3.868   1.188  0.0107 -0.3984 -0.1273
 2778TIP3    H129969   5.391   3.774   1.172 -0.1545 -0.3037 -0.8365
 2778TIP3    H229970   5.368   3.906   1.101 -1.5906  0.0784  0.2787
 2779TIP3   OH229971   3.647   4.556   1.261 -0.2623 -0.4743 -0.0519
 2779TIP3    H129972   3.672   4.465   1.249 -0.3791 -0.5509  0.2982
 2779TIP3    H229973   3.681   4.579   1.347  1.3532  0.3416 -0.8492
 2780TIP3   OH229974   0.570   5.703   4.728 -0.0230 -0.2977 -0.0610
 2780TIP3    H129975   0.550   5.620   4.771 -0.7034  0.8026  1.8442
 2780TIP3    H229976   0.497   5.717   4.668 -0.1741 -0.8059 -0.0066
 2781TIP3   OH229977   3.992   1.590   2.083  0.2455  0.4103  0.4463
 2781TIP3    H129978   3.925   1.524   2.068  2.0151 -1.5282  0.5986
 2781TIP3    H229979   4.025   1.571   2.171  0.6950  1.6344  0.5724
 2782TIP3   OH229980   1.249   3.668   2.058  0.0724  0.2264 -0.4914
 2782TIP3    H129981   1.241   3.577   2.029 -0.1191 -0.2803  1.0258
 2782TIP3    H229982   1.219   3.720   1.984 -0.4425 -0.9766 -1.1579
 2783TIP3   OH229983   3.493   5.718   2.676  0.1274 -0.5188  0.2210
 2783TIP3    H129984   3.536   5.676   2.601 -1.7652  0.1492 -1.3330
 2783TIP3    H229985   3.467   5.804   2.643  1.6712  0.9302  2.5472
 2784TIP3   OH229986   5.890   1.111   3.614 -0.4592 -0.2792  0.3813
 2784TIP3    H129987   5.832   1.176   3.573 -1.2212 -1.2056 -0.0357
 2784TIP3    H229988   5.974   1.123   3.568 -0.6722  0.2023  0.1046
 2785TIP3   OH229989   6.263   6.654   4.947 -0.5588 -0.2034 -0.3222
 2785TIP3    H129990   6.232   6.563   4.949 -0.8061 -0.1113  1.2852
 2785TIP3    H229991   6.188   6.705   4.979 -0.0131  0.4411 -0.0663
 2786TIP3   OH229992   0.507   1.091   1.692 -0.5336  0.3240 -0.3867
 2786TIP3    H129993   0.544   1.032   1.758 -2.0679  3.5556  3.8363
 2786TIP3    H229994   0.417   1.106   1.721 -1.8648  0.8543 -4.2299
 2787TIP3   OH229995   3.438   6.430   1.004 -0.4118 -0.2215  0.1196
 2787TIP3    H129996   3.528   6.413   0.976 -0.8162 -0.6855 -0.9187
 2787TIP3    H229997   3.421   6.363   1.070  0.5682  0.9270  1.6127
 2788TIP3   OH229998   5.400   2.709   2.620  0.2338  0.4350  0.6269
 2788TIP3    H129999   5.394   2.715   2.525  1.1460 -2.0562  0.3548
 2788TIP3    H230000   5.490   2.737   2.641  0.3830 -0.0531  0.6423
 2789TIP3   OH230001   5.802   5.623   3.777 -0.1965  0.8290  0.0681
 2789TIP3    H130002   5.835   5.615   3.688  0.4168 -1.0029  0.4334
 2789TIP3    H230003   5.804   5.717   3.794  3.6535  0.9826 -0.3761
 2790TIP3   OH230004   6.809   2.560   3.199 -0.0022 -0.3441 -0.0525
 2790TIP3    H130005   6.851   2.645   3.214  0.9089 -1.0126  1.4754
 2790TIP3    H230006   6.719   2.573   3.230  0.4090 -0.1851  1.1609
 2791TIP3   OH230007   1.791   6.729   3.830 -0.0327 -0.0646 -0.6543
 2791TIP3    H130008   1.762   6.717   3.920  1.5226 -2.0384 -0.3475
 2791TIP3    H230009   1.838   6.812   3.831  0.0793 -0.1277  0.4046
 2792TIP3   OH230010   5.771   1.480   2.970  0.9173 -0.0783 -0.1810
 2792TIP3    H130011   5.755   1.569   2.940 -0.4153 -0.3009 -0.1878
 2792TIP3    H230012   5.723   1.473   3.052  0.3065 -1.0327 -0.5998
 2793TIP3   OH230013   0.874   4.280   2.481 -0.0900 -0.3145 -0.3696
 2793TIP3    H130014   0.959   4.322   2.494 -0.5934  0.6234  0.0050
 2793TIP3    H230015   0.861   4.227   2.560  0.3427 -0.8262 -0.6351
 2794TIP3   OH230016   4.396   4.065   0.654 -0.2041  0.6424  0.4968
 2794TIP3    H130017   4.417   4.144   0.604 -0.6363  0.1052 -0.5457
 2794TIP3    H230018   4.328   4.093   0.715 -3.4301  0.2241 -2.6225
 2795TIP3   OH230019   2.846   1.097   1.120  0.2888 -0.2433 -0.3704
 2795TIP3    H130020   2.774   1.034   1.114 -0.2443 -0.0064  2.2560
 2795TIP3    H230021   2.802   1.182   1.112  0.6759 -0.1235 -1.3946
 2796TIP3   OH230022   3.762   4.009   2.316  0.1750 -0.1084  0.1444
 2796TIP3    H130023   3.696   4.046   2.257 -0.8793 -0.0100  1.3401
 2796TIP3    H230024   3.832   3.981   2.258 -1.9929 -2.6147 -1.4969
 2797TIP3   OH230025   5.462   5.053   3.798 -0.1187 -0.1243 -0.2657
 2797TIP3    H130026   5.524   5.042   3.871 -1.7411 -1.6889  0.9634
 2797TIP3    H230027   5.495   5.128   3.750  2.0695 -0.1788  1.0154
 2798TIP3   OH230028   6.813   4.990   2.748  0.1876  0.2587 -0.4340
 2798TIP3    H130029   6.796   4.967   2.840 -0.6945  1.7748 -0.1704
 2798TIP3    H230030   6.771   4.921   2.698 -0.4037  0.0650  0.3055
 2799TIP3   OH230031   6.080   0.598   2.978  0.2113 -0.6627 -0.1320
 2799TIP3    H130032   6.005   0.635   3.025 -0.6564 -1.2878 -0.9912
 2799TIP3    H230033   6.156   0.644   3.015 -0.5438 -0.2972  1.0300
 2800TIP3   OH230034   2.182   5.917   4.325  0.2759 -0.3735 -0.2034
 2800TIP3    H130035   2.218   5.847   4.378  0.1112 -2.4408 -2.6306
 2800TIP3    H230036   2.247   5.987   4.328  0.7561 -0.8633  1.7392
 2801TIP3   OH230037   0.338   3.810   4.016 -0.1352 -0.1107  0.3796
 2801TIP3    H130038   0.394   3.756   4.071 -1.0906  0.0609  1.5536
 2801TIP3    H230039   0.251   3.770   4.022 -0.4287  0.3829 -0.3613
 2802TIP3   OH230040   5.385   4.179   4.737 -0.5942  0.1283 -0.8224
 2802TIP3    H130041   5.362   4.164   4.645  3.4317 -2.1408 -1.6831
 2802TIP3    H230042   5.416   4.269   4.740  0.1515 -0.0746 -1.9467
 2803TIP3   OH230043   0.107   3.409   1.819  0.0514  0.2131 -0.4682
 2803TIP3    H130044   0.170   3.338   1.801 -1.1860 -0.5188 -2.2784
 2803TIP3    H230045   0.161   3.487   1.825  1.7010 -0.9928  3.4690
 2804TIP3   OH230046   3.968   6.075   2.165 -0.5724  0.1840 -0.0314
 2804TIP3    H130047   4.003   6.109   2.082  0.0627  1.2893  0.6748
 2804TIP3    H230048   3.874   6.092   2.160 -0.4291  0.9884 -0.1974
 2805TIP3   OH230049   4.332   0.836   4.308 -0.0809  0.2120 -0.2464
 2805TIP3    H130050   4.343   0.829   4.214 -1.5628 -0.9379 -0.3581
 2805TIP3    H230051   4.416   0.872   4.339  2.5363 -4.0612 -1.4284
 2806TIP3   OH230052   5.377   1.367   0.990 -0.2365 -0.9041 -0.0871
 2806TIP3    H130053   5.402   1.396   0.902 -0.5207 -0.9861 -0.1957
 2806TIP3    H230054   5.282   1.373   0.991 -0.1567  1.6362  1.0673
 2807TIP3   OH230055   3.456   3.802   3.283 -0.2552  1.0032 -0.5612
 2807TIP3    H130056   3.386   3.834   3.340 -1.1396  2.6358 -2.4444
 2807TIP3    H230057   3.447   3.707   3.286 -2.0862  1.1468 -0.1452
 2808TIP3   OH230058   1.148   5.034   2.642  0.4545  0.2609  0.5385
 2808TIP3    H130059   1.229   5.007   2.686  1.1651  1.1742 -0.1719
 2808TIP3    H230060   1.103   5.089   2.706  0.1481 -0.6363  1.1129
 2809TIP3   OH230061   5.497   0.740   3.881  0.0930  0.3153  0.0030
 2809TIP3    H130062   5.587   0.733   3.913  1.0068  1.1901 -2.2029
 2809TIP3    H230063   5.503   0.718   3.788 -1.5730  2.4402 -0.6910
 2810TIP3   OH230064   0.492   4.433   2.944  0.0401 -0.0619 -0.1863
 2810TIP3    H130065   0.575   4.397   2.912  0.3083  0.6832 -0.3511
 2810TIP3    H230066   0.436   4.435   2.867  0.0885  0.0484 -0.2191
 2811TIP3   OH230067   5.165   3.050   8.756 -0.4117  0.0118  0.3378
 2811TIP3    H130068   5.156   3.121   8.819  1.7011 -1.0856  1.9980
 2811TIP3    H230069   5.249   3.010   8.776 -0.0332 -0.9838 -2.6394
 2812TIP3   OH230070   5.534   6.272   3.199  0.1089 -0.0702  0.2669
 2812TIP3    H130071   5.553   6.341   3.135 -0.0664 -1.0518 -0.8789
 2812TIP3    H230072   5.551   6.313   3.284  1.0838  1.0448 -0.4276
 2813TIP3   OH230073   2.675   0.003   3.312  0.1585  0.3523  0.1740
 2813TIP3    H130074   2.714   0.011   3.225 -0.3568  1.9077  0.0533
 2813TIP3    H230075   2.615  -0.071   3.304  0.0672  0.5115 -0.8304
 2814TIP3   OH230076   3.567   2.175   3.663  0.1924 -0.4457 -0.0630
 2814TIP3    H130077   3.631   2.155   3.732  1.2511 -2.0637 -1.4463
 2814TIP3    H230078   3.607   2.143   3.583 -0.7518  1.9201 -1.5956
 2815TIP3   OH230079   4.377   1.153   4.420  0.0880  0.0935  1.0006
 2815TIP3    H130080   4.377   1.247   4.405 -1.0681  0.2757  1.9503
 2815TIP3    H230081   4.345   1.143   4.509 -2.7555 -1.2663 -0.0171
 2816TIP3   OH230082   4.308   6.809   3.765  0.0499 -0.4269 -0.0753
 2816TIP3    H130083   4.255   6.795   3.843  0.0081  0.4227  0.0607
 2816TIP3    H230084   4.397   6.818   3.797  0.0477 -0.1894 -0.1302
 2817TIP3   OH230085   5.787   4.900   4.753 -0.3578  0.4632 -0.0397
 2817TIP3    H130086   5.737   4.849   4.689 -0.7090  1.5845 -0.7088
 2817TIP3    H230087   5.743   4.985   4.754 -0.8452  0.2490  2.2973
 2818TIP3   OH230088   6.488   1.463   3.085 -0.2274 -0.3574 -0.3175
 2818TIP3    H130089   6.558   1.528   3.077  0.0870 -0.7854 -1.2001
 2818TIP3    H230090   6.520   1.402   3.152 -0.2550  0.0440  0.0718
 2819TIP3   OH230091   6.694   0.819   3.002  0.3028 -0.7265 -0.4264
 2819TIP3    H130092   6.735   0.732   3.000  2.5304  0.1899  0.6972
 2819TIP3    H230093   6.699   0.844   3.094  2.0019  1.5332 -1.0493
 2820TIP3   OH230094   4.126   0.615   4.385  0.2608  0.7446 -0.1462
 2820TIP3    H130095   4.150   0.593   4.475  0.5010  1.3261 -0.0582
 2820TIP3    H230096   4.064   0.687   4.394  0.0472  0.5954 -0.4361
 2821TIP3   OH230097   6.798   6.505   5.337 -0.4469  0.3144  0.2575
 2821TIP3    H130098   6.826   6.516   5.246 -1.5182  0.9013 -0.0105
 2821TIP3    H230099   6.705   6.524   5.336 -0.4242  0.5507  1.5256
 2822TIP3   OH230100   1.044   4.155   1.313 -0.1929  0.1319 -0.1029
 2822TIP3    H130101   1.070   4.078   1.364  1.1306  1.8098  1.8783
 2822TIP3    H230102   1.108   4.222   1.335 -2.8719  2.7354  0.4783
 2823TIP3   OH230103   5.599   1.649   3.668 -0.2031  0.0723 -0.3335
 2823TIP3    H130104   5.527   1.712   3.677 -0.9572 -0.6727 -0.9873
 2823TIP3    H230105   5.558   1.564   3.682  1.2959 -0.2277  3.5677
 2824TIP3   OH230106   2.227   1.725   2.250  0.1230  0.5865 -0.0246
 2824TIP3    H130107   2.234   1.703   2.343  1.6022  1.1162  0.0221
 2824TIP3    H230108   2.138   1.756   2.239 -2.4212 -5.3052 -0.1320
 2825TIP3   OH230109   1.628   1.747   0.843 -0.0643  0.1058 -0.3301
 2825TIP3    H130110   1.700   1.684   0.834  0.3647  0.2887  1.5189
 2825TIP3    H230111   1.669   1.831   0.822 -0.0740  0.0588 -0.5463
 2826TIP3   OH230112   6.779   3.966   3.286 -0.1478  0.2118  0.4502
 2826TIP3    H130113   6.750   4.001   3.202  0.8915 -1.3051 -0.5821
 2826TIP3    H230114   6.781   3.871   3.274  0.2309 -0.0368  2.1311
 2827TIP3   OH230115   1.820   1.021   0.202 -0.1724 -0.4991 -0.0994
 2827TIP3    H130116   1.744   1.004   0.259 -0.1751  2.1074  0.7858
 2827TIP3    H230117   1.888   0.964   0.237 -1.1215 -1.3648  0.4180
 2828TIP3   OH230118   0.067   0.761   4.071  0.1636  0.4295  0.0698
 2828TIP3    H130119   0.006   0.692   4.045 -0.1094  0.6200  0.2043
 2828TIP3    H230120   0.045   0.835   4.016 -0.8071  1.0297  1.2190
 2829TIP3   OH230121   2.908   2.692   3.970  0.3441  0.2542 -0.1395
 2829TIP3    H130122   2.878   2.748   3.899 -1.9797  0.1157  0.6655
 2829TIP3    H230123   2.886   2.604   3.942 -0.1294  0.1572  0.5081
 2830TIP3   OH230124   5.888   3.769   3.510 -0.2553  0.3598 -0.6026
 2830TIP3    H130125   5.925   3.847   3.552 -1.4064  0.9915 -0.7107
 2830TIP3    H230126   5.922   3.773   3.420 -0.1242  0.6116 -0.5448
 2831TIP3   OH230127   1.760   6.751   1.122  0.2366 -0.0558  0.2097
 2831TIP3    H130128   1.735   6.778   1.034  0.4872  0.9951  0.4451
 2831TIP3    H230129   1.685   6.776   1.177  0.2951 -0.2319  0.3718
 2832TIP3   OH230130   6.201   5.173   3.258  0.9844  0.2340  0.3129
 2832TIP3    H130131   6.179   5.224   3.180  1.0282  2.2262  1.5354
 2832TIP3    H230132   6.132   5.195   3.321  0.7230 -1.6594  0.7514
 2833TIP3   OH230133   2.157   5.444   2.079  0.4124  0.3222 -0.4705
 2833TIP3    H130134   2.095   5.413   2.012 -0.6517  0.3642  0.4714
 2833TIP3    H230135   2.179   5.533   2.051 -2.0005  1.3129  0.5200
 2834TIP3   OH230136   6.437   1.326   2.563  0.6215 -0.0895  0.4828
 2834TIP3    H130137   6.515   1.271   2.554  1.4164  0.5526  2.8728
 2834TIP3    H230138   6.421   1.331   2.657 -2.5300 -0.4343  0.0716
 2835TIP3   OH230139   2.457   0.771   2.961 -0.4724 -0.1896 -0.0618
 2835TIP3    H130140   2.420   0.779   2.874 -1.5602  1.4440  0.4916
 2835TIP3    H230141   2.415   0.694   2.999  0.6619 -1.4380 -1.2370
 2836TIP3   OH230142   1.343   2.630   2.088 -0.0702  0.2608 -0.4052
 2836TIP3    H130143   1.406   2.698   2.065 -1.1631  2.3678  2.2908
 2836TIP3    H230144   1.258   2.667   2.065 -0.5973 -0.8352 -0.2726
 2837TIP3   OH230145   4.406   2.376   0.926  0.0232  0.0086 -0.5150
 2837TIP3    H130146   4.393   2.407   0.836  0.5183  2.3969  0.1583
 2837TIP3    H230147   4.484   2.422   0.956 -1.0713  0.5856  1.6702
 2838TIP3   OH230148   1.709   4.884   2.424 -0.4245 -0.0501  0.4602
 2838TIP3    H130149   1.666   4.798   2.433  0.2961 -0.4331  0.3311
 2838TIP3    H230150   1.637   4.946   2.422 -1.0706 -0.7755 -0.9263
 2839TIP3   OH230151   3.126   2.209   4.357 -0.1818 -0.3122 -0.1720
 2839TIP3    H130152   3.085   2.296   4.357 -0.6230 -0.5074 -0.8718
 2839TIP3    H230153   3.098   2.170   4.274  2.4886  0.0400 -1.3409
 2840TIP3   OH230154   2.603   4.133   3.248 -0.1968 -0.0372  0.5264
 2840TIP3    H130155   2.681   4.110   3.196 -1.1201  0.8223 -1.3273
 2840TIP3    H230156   2.620   4.095   3.334  3.5988  2.5371  1.1419
 2841TIP3   OH230157   0.302   5.867   1.086  0.4197 -0.0618  0.4059
 2841TIP3    H130158   0.388   5.828   1.098  0.8410  0.6585 -0.1792
 2841TIP3    H230159   0.243   5.793   1.076  0.8768 -0.5687  1.3846
 2842TIP3   OH230160   4.541   6.335   0.544  0.0810  0.3804  0.8475
 2842TIP3    H130161   4.446   6.341   0.554  0.3530  1.8849  3.3878
 2842TIP3    H230162   4.566   6.418   0.503  0.2733 -0.4462 -0.8172
 2843TIP3   OH230163   6.473   1.577   2.480  0.7696  0.4034 -0.1244
 2843TIP3    H130164   6.449   1.489   2.511 -0.1400  0.3219 -1.0017
 2843TIP3    H230165   6.512   1.562   2.394  3.2021  0.6333  0.8361
 2844TIP3   OH230166   1.180   5.497   1.813 -0.0526  0.1766 -0.0443
 2844TIP3    H130167   1.222   5.535   1.736  1.4840  2.7064  1.8980
 2844TIP3    H230168   1.126   5.567   1.848  0.3003 -0.4406  1.8618
 2845TIP3   OH230169   2.632   2.355   4.091 -0.0919  0.5344 -0.1894
 2845TIP3    H130170   2.699   2.287   4.092 -0.2017  0.4278  0.9156
 2845TIP3    H230171   2.621   2.380   4.182 -1.0952  1.0117 -0.4204
 2846TIP3   OH230172   3.473   0.698   4.068 -0.0121  0.3402 -0.2517
 2846TIP3    H130173   3.467   0.608   4.098 -0.1073  0.7498  1.0253
 2846TIP3    H230174   3.566   0.712   4.050 -0.0589 -0.1333 -0.8668
 2847TIP3   OH230175   2.219   5.646   2.725  0.0924  0.0230  0.5055
 2847TIP3    H130176   2.312   5.625   2.735  0.1012 -0.4074 -0.4336
 2847TIP3    H230177   2.174   5.564   2.741 -0.0340 -0.1083 -0.4656
 2848TIP3   OH230178   0.715   3.700   0.796 -0.7533 -0.3028 -0.6931
 2848TIP3    H130179   0.646   3.743   0.745 -0.6276 -2.3571 -2.7393
 2848TIP3    H230180   0.668   3.633   0.847 -0.6710  0.6965  0.7514
 2849TIP3   OH230181   0.774   0.521   4.971  0.0476 -0.4917 -0.1367
 2849TIP3    H130182   0.855   0.573   4.978  0.2135 -0.7930  0.2265
 2849TIP3    H230183   0.705   0.580   4.998  0.1388 -0.2014 -0.5386
 2850TIP3   OH230184   5.454   1.762   3.126 -0.7441 -0.0270  0.2543
 2850TIP3    H130185   5.433   1.799   3.212 -0.8156  2.3783 -0.7052
 2850TIP3    H230186   5.381   1.790   3.070  0.2168  0.1125 -0.9850
 2851TIP3   OH230187   6.723   6.643   0.561  0.0031 -0.6421  0.3758
 2851TIP3    H130188   6.687   6.672   0.477  1.4164 -1.6768 -0.6248
 2851TIP3    H230189   6.749   6.552   0.546  0.2189 -0.8665  1.9675
 2852TIP3   OH230190   6.471   6.032   3.250  0.0668 -0.7373 -0.2621
 2852TIP3    H130191   6.378   6.032   3.226 -0.2767  0.4502  0.9730
 2852TIP3    H230192   6.515   5.997   3.172 -1.5037 -2.6810 -0.3810
 2853TIP3   OH230193   5.528   2.433   0.552  0.2974 -0.5301 -0.0314
 2853TIP3    H130194   5.617   2.448   0.521 -0.1585  1.4873 -0.4915
 2853TIP3    H230195   5.472   2.472   0.485 -0.9079 -0.9170  0.7165
 2854TIP3   OH230196   3.777   0.054   1.765  0.1132  0.4396 -0.5782
 2854TIP3    H130197   3.776  -0.037   1.735  0.4583  0.1292  0.3016
 2854TIP3    H230198   3.689   0.070   1.797  0.7480 -0.5505  1.9214
 2855TIP3   OH230199   0.436   1.744   1.680  0.1180 -0.5722 -0.0379
 2855TIP3    H130200   0.355   1.730   1.631  0.1436 -0.3228 -0.1513
 2855TIP3    H230201   0.496   1.784   1.617 -0.3618  1.2437  0.6101
 2856TIP3   OH230202   3.440   3.499   3.313 -0.3816  0.3299  0.8801
 2856TIP3    H130203   3.487   3.446   3.377  2.6565 -1.8220 -2.7054
 2856TIP3    H230204   3.359   3.450   3.297  1.2374 -2.0851 -0.5374
 2857TIP3   OH230205   1.129   5.048   0.795 -0.2124  0.1754 -0.6021
 2857TIP3    H130206   1.062   4.998   0.749 -0.0674  0.6788 -1.3755
 2857TIP3    H230207   1.080   5.105   0.855 -0.4649  0.3343 -0.9567
 2858TIP3   OH230208   6.271   3.070   1.787  0.1444 -0.1336 -0.8146
 2858TIP3    H130209   6.182   3.036   1.794 -0.5505  1.7913  0.3451
 2858TIP3    H230210   6.266   3.133   1.714  0.5638 -0.0267 -0.7500
 2859TIP3   OH230211   5.831   5.099   3.147 -0.4974 -0.1489 -0.0295
 2859TIP3    H130212   5.821   5.045   3.226 -2.1169  0.3103  0.0998
 2859TIP3    H230213   5.905   5.059   3.101  0.6926 -0.2390  1.8567
 2860TIP3   OH230214   4.280   3.291   0.318 -0.4443 -0.1619  0.0030
 2860TIP3    H130215   4.235   3.215   0.282 -0.0008 -0.6309  0.4252
 2860TIP3    H230216   4.294   3.270   0.410  2.1675 -0.8126 -0.4489
 2861TIP3   OH230217   3.628   4.206   4.124 -0.4596 -0.5455  0.4857
 2861TIP3    H130218   3.665   4.133   4.172  2.0052  0.1090 -0.3059
 2861TIP3    H230219   3.670   4.203   4.038 -2.7744 -0.1150 -0.7664
 2862TIP3   OH230220   1.769   1.855   0.591  0.0294 -0.4197 -0.0383
 2862TIP3    H130221   1.691   1.852   0.536  1.4031 -1.2194 -2.0404
 2862TIP3    H230222   1.830   1.794   0.550  1.0927 -1.1865  2.4961
 2863TIP3   OH230223   3.066   4.352   3.974  0.1715  0.1117  0.3108
 2863TIP3    H130224   3.085   4.444   3.993  0.0455 -0.0174  1.0784
 2863TIP3    H230225   2.992   4.331   4.031 -0.6321 -0.1126 -0.7816
 2864TIP3   OH230226   0.734   1.681   0.035 -0.3618  0.0200 -0.2351
 2864TIP3    H130227   0.643   1.712   0.038 -0.4220  0.0054 -1.3318
 2864TIP3    H230228   0.726   1.588   0.011 -0.0422  0.3117 -1.5802
 2865TIP3   OH230229   3.167   6.097   2.687  0.4555 -0.4669 -0.6104
 2865TIP3    H130230   3.212   6.015   2.709 -1.3095 -1.3730 -0.1273
 2865TIP3    H230231   3.080   6.086   2.725  0.4660  2.0622  0.3279
 2866TIP3   OH230232   1.960   5.271   2.899  0.1163 -0.1358  0.2441
 2866TIP3    H130233   2.027   5.330   2.934 -0.4095  1.2104 -0.8900
 2866TIP3    H230234   1.903   5.328   2.848 -0.2644 -1.7007 -1.1596
 2867TIP3   OH230235   0.122   6.261   8.683 -0.3732 -0.3911 -0.3194
 2867TIP3    H130236   0.058   6.204   8.727  1.5824 -1.3720  1.4502
 2867TIP3    H230237   0.174   6.202   8.629  0.2973  0.0443 -0.1697
 2868TIP3   OH230238   6.615   0.518   4.277  0.2557 -0.4867  0.6870
 2868TIP3    H130239   6.559   0.475   4.212 -0.8739  0.6114  0.8899
 2868TIP3    H230240   6.574   0.497   4.361  0.3393  0.0547  0.8659
 2869TIP3   OH230241   3.307   0.108   1.925  0.3921  0.4430  0.2437
 2869TIP3    H130242   3.221   0.141   1.953 -0.5824 -3.2675  2.3282
 2869TIP3    H230243   3.299   0.095   1.831 -1.3177  0.3393  0.3762
 2870TIP3   OH230244   6.101   4.716   2.999 -0.3512  0.4934  0.1960
 2870TIP3    H130245   6.006   4.704   3.010 -0.5709  1.2862 -0.7514
 2870TIP3    H230246   6.135   4.709   3.088 -1.1018 -1.2639  0.4054
 2871TIP3   OH230247   4.864   6.823   1.453 -0.6806  0.5800 -0.2679
 2871TIP3    H130248   4.915   6.828   1.534  0.0088  1.3340 -0.7284
 2871TIP3    H230249   4.780   6.785   1.479 -0.5141  0.9283  0.8179
 2872TIP3   OH230250   6.009   4.202   4.349  0.4093  0.5861  0.5161
 2872TIP3    H130251   6.022   4.294   4.326 -0.9203  0.8449  0.6992
 2872TIP3    H230252   5.988   4.159   4.266 -0.9870  0.8574  0.7092
 2873TIP3   OH230253   2.928   6.788   3.402  0.5041  0.1755 -0.2103
 2873TIP3    H130254   2.937   6.713   3.343  1.7456 -0.4124  0.6828
 2873TIP3    H230255   2.834   6.807   3.403  0.2910 -0.7356 -1.2126
 2874TIP3   OH230256   1.826   0.006   1.453 -0.0246  0.0458  0.0621
 2874TIP3    H130257   1.863   0.057   1.381  1.1376 -0.1575  0.4871
 2874TIP3    H230258   1.744   0.050   1.474  0.4554  1.1222 -0.2584
 2875TIP3   OH230259   2.825   3.790   5.108 -0.0170 -0.4611  0.7861
 2875TIP3    H130260   2.872   3.873   5.117  1.1229 -0.8074 -1.4526
 2875TIP3    H230261   2.816   3.778   5.014 -1.2898 -2.2777  1.1087
 2876TIP3   OH230262   3.443   1.827   4.220  0.2680 -0.5611 -0.2166
 2876TIP3    H130263   3.426   1.734   4.208  0.9182 -0.8188  0.7610
 2876TIP3    H230264   3.368   1.860   4.269 -0.3295 -0.3943 -1.2109
 2877TIP3   OH230265   5.788   1.852   1.687  0.1989 -0.2146  0.1933
 2877TIP3    H130266   5.793   1.786   1.757 -1.5070 -0.9797 -0.3340
 2877TIP3    H230267   5.717   1.820   1.631  0.6558  1.0808 -1.1557
 2878TIP3   OH230268   4.201   3.645   3.478 -0.2864 -0.5412 -0.0883
 2878TIP3    H130269   4.274   3.680   3.529 -0.6101 -0.7787  0.5494
 2878TIP3    H230270   4.161   3.722   3.438 -1.4462 -0.0484  1.8982
 2879TIP3   OH230271   3.084   1.870   1.513 -0.4021 -0.4777  0.2416
 2879TIP3    H130272   3.021   1.827   1.570  1.1054 -1.8477  0.9710
 2879TIP3    H230273   3.047   1.861   1.425 -0.3496 -3.0430  0.3934
 2880TIP3   OH230274   1.937   2.452   1.424  0.2320  0.1636  0.5378
 2880TIP3    H130275   2.024   2.417   1.403  0.0713  0.2819 -0.3388
 2880TIP3    H230276   1.909   2.498   1.345 -1.4941 -1.5773  0.0650
 2881TIP3   OH230277   1.161   6.278   2.413 -0.4481  0.1987  0.3631
 2881TIP3    H130278   1.121   6.353   2.369 -1.8501  0.1716  1.4994
 2881TIP3    H230279   1.094   6.210   2.409  0.6064 -0.8151 -0.1800
 2882TIP3   OH230280   3.793   4.884   2.577  0.1913 -0.5230  0.3730
 2882TIP3    H130281   3.738   4.891   2.499  0.5158  0.3880  0.2089
 2882TIP3    H230282   3.783   4.970   2.620  1.5768 -0.2991  0.2719
 2883TIP3   OH230283   4.269   3.418   1.667 -0.1546  0.6600  0.4480
 2883TIP3    H130284   4.318   3.499   1.655 -0.2241  0.7573  0.8031
 2883TIP3    H230285   4.336   3.350   1.673 -0.1210  0.5825 -0.6195
 2884TIP3   OH230286   0.497   3.547   3.188 -0.2488 -0.1949  0.4410
 2884TIP3    H130287   0.506   3.474   3.127  1.5510  0.6160 -0.3106
 2884TIP3    H230288   0.584   3.558   3.226  0.2981  3.1831 -1.4155
 2885TIP3   OH230289   2.136   0.994   1.265 -1.1235  0.3780  0.0402
 2885TIP3    H130290   2.088   0.934   1.208 -0.0631 -1.0614  0.6129
 2885TIP3    H230291   2.072   1.021   1.331 -1.4865 -0.5183  0.0631
 2886TIP3   OH230292   2.295   2.771   1.346 -0.1288  0.6074 -0.2932
 2886TIP3    H130293   2.341   2.712   1.285  0.6087  1.6133 -0.7429
 2886TIP3    H230294   2.353   2.775   1.422 -1.1272 -0.7751  0.5785
 2887TIP3   OH230295   3.865   4.014   4.685  0.0166  0.2706  0.4976
 2887TIP3    H130296   3.783   3.965   4.677 -0.1834  0.6356  0.2373
 2887TIP3    H230297   3.853   4.089   4.626  0.8299 -0.0597 -0.1085
 2888TIP3   OH230298   1.856   3.347   0.907 -0.1687 -0.5637  0.4345
 2888TIP3    H130299   1.922   3.294   0.861 -1.0429 -2.7265  1.5357
 2888TIP3    H230300   1.904   3.386   0.981  0.7207  1.1377 -0.9635
 2889TIP3   OH230301   6.055   0.331   0.406 -0.5553 -0.5805 -0.0095
 2889TIP3    H130302   6.148   0.344   0.420 -0.7072 -1.2310  1.9620
 2889TIP3    H230303   6.048   0.296   0.317  1.0303 -0.2740 -0.2814
 2890TIP3   OH230304   2.206   3.793   0.373 -0.3283 -1.1319 -0.1901
 2890TIP3    H130305   2.129   3.754   0.415 -0.5733  0.2977  0.7487
 2890TIP3    H230306   2.224   3.736   0.299 -1.6866 -2.0656  0.1617
 2891TIP3   OH230307   3.816   1.408   1.928  0.9233 -0.0268 -0.3633
 2891TIP3    H130308   3.870   1.378   1.855  2.3320  0.7305  0.3335
 2891TIP3    H230309   3.762   1.478   1.891  0.0956 -1.0731 -1.1654
 2892TIP3   OH230310   1.359   2.514   0.151 -0.2606  0.2715 -0.1710
 2892TIP3    H130311   1.293   2.461   0.104 -0.6117 -0.0609  0.6827
 2892TIP3    H230312   1.442   2.490   0.109 -0.5924  0.1390 -0.7691
 2893TIP3   OH230313   3.558   2.528   3.127 -0.2708 -0.1534  0.1028
 2893TIP3    H130314   3.498   2.582   3.178  0.6466  1.1995 -0.1962
 2893TIP3    H230315   3.548   2.440   3.163 -4.0064 -0.4801 -1.3386
 2894TIP3   OH230316   2.216   3.261   4.925 -0.1265 -0.0657  0.0181
 2894TIP3    H130317   2.282   3.244   4.991 -0.9749 -0.4648  0.7879
 2894TIP3    H230318   2.143   3.203   4.948 -0.3183 -0.4745 -1.4663
 2895TIP3   OH230319   2.775   0.882   1.721  0.1422 -0.5146  0.2944
 2895TIP3    H130320   2.736   0.896   1.635 -4.1087 -1.1880  1.8786
 2895TIP3    H230321   2.782   0.787   1.730  2.0128 -0.4210  0.2005
 2896TIP3   OH230322   4.318   3.648   0.953  0.0343  0.5498  0.2502
 2896TIP3    H130323   4.239   3.632   0.901  1.3573 -2.8686 -1.0139
 2896TIP3    H230324   4.306   3.595   1.031  0.0386  2.0528  1.3044
 2897TIP3   OH230325   6.212   0.047   1.314 -0.2636  0.1777 -0.2878
 2897TIP3    H130326   6.150   0.112   1.348 -1.5336 -0.6509 -0.9525
 2897TIP3    H230327   6.204  -0.027   1.374  0.2696  0.1592 -0.2368
 2898TIP3   OH230328   1.871   5.721   0.613 -0.1359  0.3378 -0.3569
 2898TIP3    H130329   1.905   5.796   0.661  1.0872 -0.4159  0.0143
 2898TIP3    H230330   1.948   5.682   0.572 -0.3953 -1.7855  0.9965
 2899TIP3   OH230331   3.487   1.491   1.680  0.0216 -0.9489 -0.3557
 2899TIP3    H130332   3.429   1.567   1.669  0.2331 -0.9902 -1.9101
 2899TIP3    H230333   3.575   1.529   1.686  0.1180 -1.0622 -1.0364
 2900TIP3   OH230334   6.436   3.837   3.264  0.4142 -0.3700  0.0884
 2900TIP3    H130335   6.496   3.779   3.217  0.9899 -0.2009  0.6081
 2900TIP3    H230336   6.466   3.925   3.242  0.2173 -0.2816  0.1725
 2901TIP3   OH230337   2.725   4.296   2.287 -0.1725  0.2243  0.1125
 2901TIP3    H130338   2.803   4.344   2.313  0.0380  0.3423 -0.7082
 2901TIP3    H230339   2.755   4.207   2.273 -0.2676  0.1819  0.1721
 2902TIP3   OH230340   4.865   6.667   3.955  0.1375 -0.3911  0.0846
 2902TIP3    H130341   4.877   6.732   4.025 -0.7438 -2.0493  1.8643
 2902TIP3    H230342   4.919   6.593   3.982 -0.8541 -1.3706 -0.5627
 2903TIP3   OH230343   5.261   0.712   3.153 -0.6472  0.2588  0.3722
 2903TIP3    H130344   5.186   0.666   3.190  0.1594 -0.8501  0.6948
 2903TIP3    H230345   5.244   0.714   3.059 -0.5700 -1.0281  0.3032
 2904TIP3   OH230346   1.148   1.942   0.490 -0.3472 -0.2369 -0.2708
 2904TIP3    H130347   1.073   1.886   0.476 -0.6931  0.6282 -2.1750
 2904TIP3    H230348   1.206   1.924   0.416  0.6700  0.1297  0.4118
 2905TIP3   OH230349   2.215   6.346   1.001 -0.2741 -0.7881 -0.8298
 2905TIP3    H130350   2.204   6.433   0.964 -2.4133 -1.0430 -0.9123
 2905TIP3    H230351   2.270   6.360   1.079 -3.2899  1.2846  1.1616
 2906TIP3   OH230352   4.217   0.683   3.755 -0.1976  1.2368 -0.3167
 2906TIP3    H130353   4.205   0.692   3.660 -1.8682  0.1799 -0.2571
 2906TIP3    H230354   4.167   0.755   3.792 -1.5733  0.2829 -0.2201
 2907TIP3   OH230355   3.385   1.126   1.959 -0.6194  0.3679  0.2386
 2907TIP3    H130356   3.329   1.200   1.982 -1.0458 -0.1113  0.7728
 2907TIP3    H230357   3.359   1.057   2.020 -2.0299 -1.0772 -1.8699
 2908TIP3   OH230358   3.207   1.739   1.286  0.1052 -0.0514  0.0452
 2908TIP3    H130359   3.239   1.829   1.299  0.4910  0.2636 -2.5222
 2908TIP3    H230360   3.111   1.746   1.294  0.0859  0.7382 -0.7253
 2909TIP3   OH230361   2.595   1.703   4.017 -0.3477 -0.1533  0.1094
 2909TIP3    H130362   2.597   1.787   3.970 -1.7766  0.7202  1.5009
 2909TIP3    H230363   2.507   1.700   4.055  1.0948 -0.1431  3.7969
 2910TIP3   OH230364   6.311   2.933   0.980  0.4791 -0.1717 -0.0344
 2910TIP3    H130365   6.235   2.957   1.034  0.7190  0.3681  0.0637
 2910TIP3    H230366   6.338   2.848   1.014  0.9492  0.3910  1.0577
 2911TIP3   OH230367   5.000   0.117   2.301  0.6630 -0.0224  0.2118
 2911TIP3    H130368   4.956   0.032   2.302 -0.8860  0.7512  0.6955
 2911TIP3    H230369   4.960   0.165   2.374  0.4823  1.6137 -0.9297
 2912TIP3   OH230370   3.074   1.855   2.168  0.1919 -0.2944 -0.1851
 2912TIP3    H130371   3.131   1.798   2.219  0.4071  1.0580  1.1380
 2912TIP3    H230372   3.133   1.916   2.124 -0.1752  0.5591  0.4907
 2913TIP3   OH230373   4.085   5.597   2.111 -0.4127  0.3827 -0.2832
 2913TIP3    H130374   4.096   5.663   2.043  0.8278 -0.9354 -1.4481
 2913TIP3    H230375   4.004   5.620   2.155 -1.0510  1.5171 -1.9630
 2914TIP3   OH230376   6.100   5.026   0.232 -0.1980  0.1088 -0.5987
 2914TIP3    H130377   6.018   5.071   0.253  0.1195  0.9463 -1.0886
 2914TIP3    H230378   6.156   5.095   0.195  0.9917 -0.2811  0.4087
 2915TIP3   OH230379   2.499   4.310   5.125  0.0649 -0.3707 -0.3093
 2915TIP3    H130380   2.465   4.222   5.141  1.5804 -1.0467 -0.6002
 2915TIP3    H230381   2.567   4.297   5.059 -0.8166  1.2639 -1.5907
 2916TIP3   OH230382   3.340   1.348   2.747 -0.3577  0.3802 -0.2949
 2916TIP3    H130383   3.289   1.285   2.696  0.2897 -0.5814  0.2113
 2916TIP3    H230384   3.396   1.391   2.682  0.1608 -0.5380 -0.4847
 2917TIP3   OH230385   5.501   3.172   4.001  0.4324  0.3242  0.4657
 2917TIP3    H130386   5.480   3.129   3.918  0.3436  0.5611  0.3622
 2917TIP3    H230387   5.577   3.226   3.981 -2.0504  3.7890 -0.6646
 2918TIP3   OH230388   5.870   1.654   1.873 -0.0505 -0.3004 -0.2909
 2918TIP3    H130389   5.824   1.598   1.936 -2.5247  0.2459 -1.5093
 2918TIP3    H230390   5.913   1.592   1.814 -0.4875 -0.8710 -0.0261
 2919TIP3   OH230391   3.709   0.599   2.205  0.4802  0.0842  0.3330
 2919TIP3    H130392   3.680   0.650   2.281  0.5703 -0.8817  1.0291
 2919TIP3    H230393   3.772   0.537   2.240  1.6800  0.6224 -0.8007
 2920TIP3   OH230394   5.454   2.027   4.416 -0.1142  0.0468  0.5216
 2920TIP3    H130395   5.485   1.961   4.479  0.2259 -1.3524 -1.0560
 2920TIP3    H230396   5.414   1.977   4.346 -0.5057  1.5798 -0.3996
 2921TIP3   OH230397   3.123   2.672   1.113  0.1377 -0.2140 -0.3976
 2921TIP3    H130398   3.045   2.728   1.123 -1.1668 -1.4589 -2.6386
 2921TIP3    H230399   3.162   2.702   1.030  0.7644 -1.0720 -0.4177
 2922TIP3   OH230400   6.425   5.640   5.172  0.1699 -0.8179  0.2380
 2922TIP3    H130401   6.343   5.677   5.204  0.3453 -1.1406  1.0877
 2922TIP3    H230402   6.484   5.716   5.165 -1.0253 -0.0008 -3.3927
 2923TIP3   OH230403   0.760   5.967   1.543 -0.2754 -0.4785  0.3689
 2923TIP3    H130404   0.719   5.935   1.462  1.4412 -1.6452 -0.0810
 2923TIP3    H230405   0.730   5.906   1.611 -0.4206 -0.4656  0.3172
 2924TIP3   OH230406   1.522   1.590   2.552  0.3776 -0.2195 -0.1891
 2924TIP3    H130407   1.434   1.555   2.535 -0.2476  0.7173  0.9891
 2924TIP3    H230408   1.554   1.617   2.465 -0.3372 -0.9314 -0.6834
 2925TIP3   OH230409   0.057   4.364   3.226  0.2689 -0.7693  0.3662
 2925TIP3    H130410   0.116   4.321   3.164  0.3186  0.3932 -0.4231
 2925TIP3    H230411   0.085   4.456   3.227 -1.5861 -0.1413 -0.1583
 2926TIP3   OH230412   5.276   6.606   2.951 -0.7344 -0.3333 -0.5198
 2926TIP3    H130413   5.367   6.621   2.977 -0.5430 -2.4373  0.1812
 2926TIP3    H230414   5.248   6.690   2.914  1.2281  0.6016 -0.0275
 2927TIP3   OH230415   5.236   2.760   1.994  0.1730  0.1552 -0.3251
 2927TIP3    H130416   5.316   2.811   1.985  0.1571  0.8825  2.5233
 2927TIP3    H230417   5.193   2.797   2.071 -2.5140 -0.7700 -1.2782
 2928TIP3   OH230418   2.155   1.106   0.953 -0.1862 -0.2180 -0.3187
 2928TIP3    H130419   2.191   1.082   1.039 -1.1887 -0.5761  0.0114
 2928TIP3    H230420   2.186   1.038   0.894 -3.2535 -2.6727  0.6571
 2929TIP3   OH230421   5.250   1.331   4.225  0.3084 -0.0889  0.3598
 2929TIP3    H130422   5.284   1.243   4.245  1.0955  0.3121  0.8649
 2929TIP3    H230423   5.160   1.316   4.196  0.3566 -1.0442  0.6521
 2930TIP3   OH230424   1.934   4.308   0.909 -0.2665  0.3505 -0.3854
 2930TIP3    H130425   1.956   4.383   0.855 -0.6656  0.2673 -0.6731
 2930TIP3    H230426   1.840   4.319   0.928  0.0046  0.7211  0.8332
 2931TIP3   OH230427   0.598   0.782   2.500 -0.1340  0.0288 -0.1965
 2931TIP3    H130428   0.611   0.873   2.529 -3.0266  0.8720 -1.1841
 2931TIP3    H230429   0.686   0.748   2.488  1.0754  2.2283  1.6084
 2932TIP3   OH230430   5.438   3.102   3.148  0.2803 -0.4868  0.5400
 2932TIP3    H130431   5.500   3.151   3.094  1.1834 -2.1929 -0.0535
 2932TIP3    H230432   5.485   3.021   3.171 -1.7439 -1.8970 -0.0089
 2933TIP3   OH230433   3.766   0.410   2.812 -0.0475  0.0876 -0.7669
 2933TIP3    H130434   3.738   0.372   2.896  4.4423  0.8820  1.3795
 2933TIP3    H230435   3.740   0.502   2.819  0.3056  0.1521 -0.1929
 2934TIP3   OH230436   6.652   2.257   3.605  0.4398  0.3780  0.0481
 2934TIP3    H130437   6.654   2.343   3.647  0.0733  1.1582 -1.4620
 2934TIP3    H230438   6.652   2.276   3.511 -1.2924 -1.2303 -0.3276
 2935TIP3   OH230439   4.981   3.234   2.564  0.2480  0.1756 -0.4936
 2935TIP3    H130440   4.946   3.298   2.626  0.8137 -1.4786  1.6702
 2935TIP3    H230441   4.931   3.249   2.484 -0.4098  2.5376  0.2582
 2936TIP3   OH230442   1.970   5.547   1.251 -0.1662 -0.5030  0.1710
 2936TIP3    H130443   2.015   5.565   1.168 -2.9481  1.6392 -1.0561
 2936TIP3    H230444   2.019   5.596   1.316  1.7092 -1.7141 -0.2611
 2937TIP3   OH230445   1.686   4.058   0.566 -0.0518  0.1911 -0.2917
 2937TIP3    H130446   1.772   4.038   0.528  1.4185  0.8990  2.3971
 2937TIP3    H230447   1.650   3.973   0.591  0.5923 -0.0053 -0.0114
 2938TIP3   OH230448   3.548   6.665   3.402 -0.6486  0.8770 -0.3033
 2938TIP3    H130449   3.546   6.658   3.498 -3.2542  1.0440 -0.2804
 2938TIP3    H230450   3.600   6.743   3.384  0.3175  0.5481  0.9316
 2939TIP3   OH230451   6.123   5.391   3.749 -0.4871 -0.8394  0.0255
 2939TIP3    H130452   6.179   5.318   3.775 -0.4802 -0.1328  2.1680
 2939TIP3    H230453   6.037   5.370   3.785 -0.8853 -0.5152 -0.7099
 2940TIP3   OH230454   5.400   6.114   3.673 -0.6203  0.5573  0.1583
 2940TIP3    H130455   5.410   6.206   3.693 -2.3161  0.9644 -0.6622
 2940TIP3    H230456   5.393   6.110   3.578 -2.1029 -0.2026  0.2565
 2941TIP3   OH230457   0.719   0.141   1.903 -0.4132  0.3744  0.1552
 2941TIP3    H130458   0.743   0.119   1.813 -2.1677  2.5446 -0.9194
 2941TIP3    H230459   0.626   0.121   1.909  0.0315 -1.5574  2.1678
 2942TIP3   OH230460   5.963   4.462   3.074 -0.4244  0.2825  0.5063
 2942TIP3    H130461   5.989   4.452   2.982  0.8253  0.3908  0.8264
 2942TIP3    H230462   5.896   4.530   3.073 -0.8362 -0.1104 -0.3802
 2943TIP3   OH230463   0.953   0.989   2.491  0.2264 -0.1868  0.3012
 2943TIP3    H130464   1.005   1.042   2.430 -1.2088  1.5768  0.5472
 2943TIP3    H230465   0.971   0.899   2.464  1.4959  0.4505 -1.1696
 2944TIP3   OH230466   6.387   2.751   4.261  0.5154  0.1225  0.7378
 2944TIP3    H130467   6.328   2.678   4.280  0.7320 -0.2846 -0.0843
 2944TIP3    H230468   6.362   2.779   4.173  1.2611  0.2233  0.5519
 2945TIP3   OH230469   4.456   5.305   2.046 -0.1148 -0.4619 -0.3041
 2945TIP3    H130470   4.400   5.376   2.015 -0.8085 -1.1163 -0.5823
 2945TIP3    H230471   4.399   5.228   2.047  0.8203 -1.1791 -0.7495
 2946TIP3   OH230472   3.819   0.496   0.250 -0.2372  0.6206 -0.4175
 2946TIP3    H130473   3.827   0.417   0.303 -2.1602  1.9513  2.0369
 2946TIP3    H230474   3.910   0.522   0.232  0.4563 -0.5458  1.1887
 2947TIP3   OH230475   4.224   2.099   0.690 -0.0737 -0.2816  0.6219
 2947TIP3    H130476   4.249   2.124   0.779 -1.9450  0.3629  1.0019
 2947TIP3    H230477   4.167   2.023   0.703  0.4484 -0.8126 -0.1184
 2948TIP3   OH230478   5.847   4.552   4.670 -0.0852  0.2358  0.2591
 2948TIP3    H130479   5.793   4.625   4.701  0.5810  1.3034 -1.0019
 2948TIP3    H230480   5.786   4.496   4.621 -0.7608 -0.5102  1.8935
 2949TIP3   OH230481   2.187   0.270   2.709  0.2844  0.3350  0.0610
 2949TIP3    H130482   2.159   0.308   2.792  2.1486  0.8968  0.4800
 2949TIP3    H230483   2.275   0.304   2.696 -0.3108  1.0903 -2.6725
 2950TIP3   OH230484   6.665   5.649   0.693 -0.3287 -0.3164 -0.4859
 2950TIP3    H130485   6.686   5.605   0.611 -1.8324 -0.3876 -0.8723
 2950TIP3    H230486   6.651   5.740   0.668 -0.3149 -0.2441 -0.2314
 2951TIP3   OH230487   3.032   4.799   1.555  0.4970  0.2471  0.1240
 2951TIP3    H130488   3.064   4.744   1.627  0.1586 -0.9333 -0.5940
 2951TIP3    H230489   3.078   4.882   1.566 -0.0006  0.3093  2.0529
 2952TIP3   OH230490   3.567   4.817   1.207  0.9429 -0.1677  0.6794
 2952TIP3    H130491   3.580   4.802   1.114  2.4744 -0.0843  0.8482
 2952TIP3    H230492   3.588   4.732   1.248  0.7912 -0.0633  0.9755
 2953TIP3   OH230493   5.994   1.254   4.284 -0.3550 -0.5970  0.3583
 2953TIP3    H130494   5.943   1.277   4.361 -2.0865  0.1856 -0.9656
 2953TIP3    H230495   6.084   1.280   4.306 -0.8822  0.0200  1.9153
 2954TIP3   OH230496   1.238   0.435   2.079 -0.6839  0.7590 -0.5105
 2954TIP3    H130497   1.210   0.501   2.016  0.4013  0.0611 -1.7956
 2954TIP3    H230498   1.224   0.351   2.034  0.4087  0.2513  0.0459
 2955TIP3   OH230499   4.173   3.406   2.816  0.3360  0.0766 -0.1664
 2955TIP3    H130500   4.087   3.363   2.824 -0.1294  0.9576 -0.2479
 2955TIP3    H230501   4.206   3.377   2.731  0.1844 -0.3835 -0.0745
 2956TIP3   OH230502   4.451   2.330   4.173 -0.3085  0.6663 -0.1328
 2956TIP3    H130503   4.421   2.278   4.247  1.9491  0.0168  0.3932
 2956TIP3    H230504   4.411   2.288   4.097 -1.4277  0.3967  0.5871
 2957TIP3   OH230505   1.599   5.409   1.283 -0.3949  0.2774  0.2675
 2957TIP3    H130506   1.529   5.472   1.263  1.6169  2.2185 -1.2140
 2957TIP3    H230507   1.631   5.436   1.369 -2.0645 -1.2931  1.4512
 2958TIP3   OH230508   3.670   0.871   1.424 -0.3338 -0.1324  0.4997
 2958TIP3    H130509   3.706   0.851   1.337  0.8264  0.2340  0.8776
 2958TIP3    H230510   3.591   0.817   1.430  0.1733 -0.9973 -0.3510
 2959TIP3   OH230511   4.778   4.219   2.588  0.0595 -0.0051  0.4907
 2959TIP3    H130512   4.815   4.137   2.558 -1.0155 -0.6663  0.9197
 2959TIP3    H230513   4.686   4.215   2.561 -0.3818  0.3643  1.8837
 2960TIP3   OH230514   3.517   6.274   1.466  0.1425 -0.4200 -0.1945
 2960TIP3    H130515   3.472   6.358   1.460 -2.7034 -1.7146  0.8303
 2960TIP3    H230516   3.594   6.291   1.520  1.2791  2.0178 -2.3535
 2961TIP3   OH230517   6.331   3.620   1.659 -0.2634  0.0802  0.4663
 2961TIP3    H130518   6.395   3.627   1.588  1.1517  1.3447  1.7988
 2961TIP3    H230519   6.376   3.569   1.726 -2.2942 -2.8821 -0.1977
 2962TIP3   OH230520   1.920   2.829   1.151  0.2241 -0.3701  0.7912
 2962TIP3    H130521   2.005   2.821   1.107  1.1229 -0.7749  2.5288
 2962TIP3    H230522   1.923   2.765   1.222 -1.8605 -0.9304  0.4377
 2963TIP3   OH230523   2.499   5.278   3.394  0.7684  0.0489 -0.5530
 2963TIP3    H130524   2.542   5.223   3.460 -0.3357  1.0386  1.0554
 2963TIP3    H230525   2.553   5.267   3.315  1.7954 -1.6389  0.3129
 2964TIP3   OH230526   5.844   3.827   3.170 -0.1475 -0.1539  0.0119
 2964TIP3    H130527   5.838   3.908   3.220  0.8936  0.1382 -0.3276
 2964TIP3    H230528   5.931   3.793   3.189 -0.7450 -1.4678  0.5506
 2965TIP3   OH230529   1.776   3.259   0.440  0.0862 -0.5166  0.2462
 2965TIP3    H130530   1.834   3.331   0.465 -0.0939 -0.2795 -0.0144
 2965TIP3    H230531   1.694   3.301   0.414 -0.2243 -0.8529  0.6647
 2966TIP3   OH230532   4.723   1.270   4.265 -0.2052 -0.5632 -0.4393
 2966TIP3    H130533   4.655   1.204   4.278 -1.2676  0.4206 -0.8428
 2966TIP3    H230534   4.696   1.317   4.186  0.3052  0.6030  0.0516
 2967TIP3   OH230535   6.110   2.271   3.756 -0.0640 -0.4556  0.3867
 2967TIP3    H130536   6.065   2.194   3.791  0.7178 -0.6910  0.8977
 2967TIP3    H230537   6.108   2.259   3.661 -2.2647  0.2198  0.2873
 2968TIP3   OH230538   0.742   1.889   1.016 -0.0454 -0.0853 -0.5061
 2968TIP3    H130539   0.694   1.830   0.958  0.4291 -2.2077  1.1036
 2968TIP3    H230540   0.761   1.835   1.094  2.5862  1.4706  0.0538
 2969TIP3   OH230541   5.427   4.466   4.770  0.0693 -0.4455  0.3628
 2969TIP3    H130542   5.408   4.552   4.809  1.5446 -0.1698  0.5598
 2969TIP3    H230543   5.473   4.419   4.840 -1.0460 -1.5432  0.3749
 2970TIP3   OH230544   3.101   1.514   0.287 -0.1833  0.0809 -0.4884
 2970TIP3    H130545   3.124   1.438   0.340 -0.5214  0.9397  0.9393
 2970TIP3    H230546   3.007   1.505   0.270  0.0230 -0.4624 -1.4259
 2971TIP3   OH230547   1.796   1.737   4.447 -0.3638 -0.5364 -0.2706
 2971TIP3    H130548   1.879   1.704   4.483  0.6062  0.6020 -1.3531
 2971TIP3    H230549   1.765   1.800   4.512  2.2778  2.8446 -1.9849
 2972TIP3   OH230550   2.906   0.071   0.084 -0.2552  0.1320  0.1737
 2972TIP3    H130551   2.972   0.009   0.115 -0.4010 -2.0400 -3.2246
 2972TIP3    H230552   2.824   0.041   0.123  0.1697  0.4143  1.3142
 2973TIP3   OH230553   6.136   0.671   1.010  0.3310  0.6449 -0.0046
 2973TIP3    H130554   6.224   0.692   1.042 -0.0067  2.8063 -0.3372
 2973TIP3    H230555   6.093   0.627   1.084  1.2001  0.9554  0.6964
 2974TIP3   OH230556   4.348   1.638   3.555  0.0612  0.4270 -0.4319
 2974TIP3    H130557   4.351   1.565   3.492 -0.7150 -1.2707  1.4001
 2974TIP3    H230558   4.431   1.684   3.542  1.8524 -2.3668  0.1073
 2975TIP3   OH230559   5.417   5.944   1.845 -0.1073  0.2103  0.2140
 2975TIP3    H130560   5.388   5.857   1.869 -1.1031  0.3892 -0.2862
 2975TIP3    H230561   5.407   5.948   1.750 -2.3055  1.6149  0.4393
 2976TIP3   OH230562   4.666   6.827   4.151  0.0702 -0.1570 -0.0448
 2976TIP3    H130563   4.719   6.810   4.229 -0.4622  0.7301  0.5366
 2976TIP3    H230564   4.633   6.742   4.125  0.1189 -0.4443  0.8080
 2977TIP3   OH230565   3.163   0.232   1.339 -0.0629  0.5496 -0.2436
 2977TIP3    H130566   3.214   0.304   1.301 -0.0138  1.1663  0.9396
 2977TIP3    H230567   3.182   0.157   1.282  1.0881  1.0960 -0.6233
 2978TIP3   OH230568   4.855   5.265   3.989 -0.3474 -0.1936  0.0323
 2978TIP3    H130569   4.870   5.287   3.896  0.7706  0.1711  0.2788
 2978TIP3    H230570   4.931   5.301   4.034 -0.9066 -0.3284  1.1099
 2979TIP3   OH230571   3.663   2.209   2.214  0.4768 -0.1776  0.6935
 2979TIP3    H130572   3.747   2.167   2.231  1.4202  1.3859  0.2023
 2979TIP3    H230573   3.678   2.261   2.134 -1.7287 -1.8387 -0.9324
 2980TIP3   OH230574   1.830   3.696   1.920  0.2877 -0.3965  0.2874
 2980TIP3    H130575   1.751   3.666   1.876 -1.1016  1.3326  1.5004
 2980TIP3    H230576   1.869   3.616   1.956 -1.1127 -1.2234  0.0210
 2981TIP3   OH230577   0.572   6.155   4.931 -0.2958 -0.4571  0.2590
 2981TIP3    H130578   0.628   6.080   4.910  1.1003  0.6782 -0.2863
 2981TIP3    H230579   0.526   6.175   4.850 -0.1284 -0.2922  0.2040
 2982TIP3   OH230580   5.937   3.590   0.861  0.6935 -0.0589  0.2591
 2982TIP3    H130581   6.005   3.530   0.829  0.9480  0.1466  0.4169
 2982TIP3    H230582   5.900   3.545   0.938 -0.2123 -0.7549 -0.5542
 2983TIP3   OH230583   4.353   4.855   3.796 -0.4816  0.0128 -0.1427
 2983TIP3    H130584   4.267   4.895   3.795 -0.4530  0.1269  0.9087
 2983TIP3    H230585   4.360   4.816   3.883  0.7205  0.4511 -0.0247
 2984TIP3   OH230586   0.630   5.292   3.608 -0.4562 -0.6925  0.7617
 2984TIP3    H130587   0.620   5.385   3.589 -1.3686 -1.3606 -2.6173
 2984TIP3    H230588   0.607   5.284   3.700  2.4919  2.7832  2.0385
 2985TIP3   OH230589   2.016   5.903   3.370  0.1973  0.7099 -0.2243
 2985TIP3    H130590   2.039   5.922   3.461  0.0162 -1.2183  0.2707
 2985TIP3    H230591   1.928   5.938   3.360  0.0747  0.6192  0.4568
 2986TIP3   OH230592   5.532   3.797   3.830  0.2484  0.6059 -0.1544
 2986TIP3    H130593   5.565   3.886   3.842  1.4415  0.3944 -1.6331
 2986TIP3    H230594   5.442   3.809   3.801  0.2969  1.3109 -0.0470
 2987TIP3   OH230595   1.894   4.083   0.735 -0.1591 -0.0539 -0.2626
 2987TIP3    H130596   1.801   4.096   0.720 -0.4193 -0.3355  0.9985
 2987TIP3    H230597   1.914   4.137   0.812  0.4070 -1.0492  0.3087
 2988TIP3   OH230598   1.078   6.126   1.031  0.0414  0.0404 -0.3918
 2988TIP3    H130599   1.051   6.132   1.123 -0.2426 -1.7060 -0.3191
 2988TIP3    H230600   1.170   6.150   1.031  0.2455 -0.6809  0.4956
 2989TIP3   OH230601   5.779   0.724   3.906 -0.3392 -0.4741 -0.0569
 2989TIP3    H130602   5.764   0.806   3.859  0.8114 -0.0806  0.2269
 2989TIP3    H230603   5.789   0.658   3.838 -1.6203 -0.4660 -0.2817
 2990TIP3   OH230604   0.710   1.500   3.629 -0.3922  0.5545  0.8295
 2990TIP3    H130605   0.798   1.482   3.597 -0.4726  0.3869  0.7003
 2990TIP3    H230606   0.689   1.587   3.594 -0.9050 -0.0809 -0.5082
 2991TIP3   OH230607   3.774   2.798   3.916  0.0989  0.1316  0.3914
 2991TIP3    H130608   3.864   2.786   3.886 -0.4311  0.0491 -1.2304
 2991TIP3    H230609   3.734   2.712   3.907  0.0975 -0.0793  2.0706
 2992TIP3   OH230610   2.739   5.342   0.871  0.8635  0.5769  0.5458
 2992TIP3    H130611   2.792   5.305   0.942  0.4368  0.2745  0.7125
 2992TIP3    H230612   2.771   5.298   0.792 -0.0301 -0.6122  0.8132
 2993TIP3   OH230613   4.118   4.874   1.938 -0.2158 -0.2635  0.0254
 2993TIP3    H130614   4.063   4.877   2.016  1.7738  0.5158  1.4954
 2993TIP3    H230615   4.070   4.925   1.873 -0.5904  1.6613  1.7029
 2994TIP3   OH230616   2.645   4.572   2.794 -0.5306  0.0189 -0.4249
 2994TIP3    H130617   2.582   4.642   2.779 -0.2588  0.7035  1.3420
 2994TIP3    H230618   2.722   4.597   2.742 -1.5532 -0.6646 -2.3408
 2995TIP3   OH230619   2.747   3.788   4.572  0.4650 -0.0290  0.3625
 2995TIP3    H130620   2.768   3.788   4.666 -0.4484  1.5125  0.6006
 2995TIP3    H230621   2.786   3.869   4.539 -1.2827  0.6803 -0.0643
 2996TIP3   OH230622   2.741   2.964   2.723 -0.3946 -0.1706  0.4618
 2996TIP3    H130623   2.708   2.954   2.634 -0.2695 -1.3748  0.5367
 2996TIP3    H230624   2.742   3.059   2.738 -0.8019  0.0223 -0.6638
 2997TIP3   OH230625   0.417   4.734   4.781  0.6852 -0.2276 -0.1352
 2997TIP3    H130626   0.427   4.710   4.873  1.8196  0.6946  0.0020
 2997TIP3    H230627   0.379   4.821   4.782  1.6246  0.2084 -0.4888
 2998TIP3   OH230628   1.081   5.376   4.174 -0.2609 -0.7238 -0.2320
 2998TIP3    H130629   1.006   5.338   4.221 -0.0502 -2.0367 -0.9065
 2998TIP3    H230630   1.147   5.388   4.242  0.4851 -3.7488 -0.2554
 2999TIP3   OH230631   5.777   4.918   1.979  0.2272  0.4868 -0.0422
 2999TIP3    H130632   5.760   4.942   2.070  0.2998  1.0034 -0.1656
 2999TIP3    H230633   5.727   4.836   1.966  0.3149  0.3471  0.4928
 3000TIP3   OH230634   2.243   1.454   3.754  0.2959  0.2052  0.0119
 3000TIP3    H130635   2.289   1.508   3.819 -0.7428  0.7965  0.2840
 3000TIP3    H230636   2.255   1.364   3.784 -2.3738  0.5388  2.6412
 3001TIP3   OH230637   4.255   3.920   3.448  0.1369 -0.4336 -1.2560
 3001TIP3    H130638   4.231   3.964   3.366  0.2391 -0.7260 -1.4429
 3001TIP3    H230639   4.201   3.963   3.515 -0.1359 -0.3703 -1.5141
 3002TIP3   OH230640   1.869   2.009   0.779 -0.2842 -0.1995  0.5718
 3002TIP3    H130641   1.879   1.962   0.696  2.1373  2.4100 -0.7671
 3002TIP3    H230642   1.806   2.079   0.760 -0.6541 -0.3163  1.3246
 3003TIP3   OH230643   2.093   6.469   1.289  0.2619 -0.6283 -1.5804
 3003TIP3    H130644   2.140   6.516   1.358  0.2362 -1.2155 -1.1653
 3003TIP3    H230645   2.046   6.538   1.242 -1.9420 -0.4813  0.6711
 3004TIP3   OH230646   0.551   4.028   1.964  0.2199  0.1407  0.3554
 3004TIP3    H130647   0.485   4.088   2.001  0.2976  0.6155 -0.2602
 3004TIP3    H230648   0.556   4.053   1.872 -0.7503 -1.7196 -0.2572
 3005TIP3   OH230649   3.140   0.582   3.791  0.3831  0.1737 -0.3952
 3005TIP3    H130650   3.186   0.504   3.759 -0.6107 -0.2710 -0.7659
 3005TIP3    H230651   3.053   0.551   3.815  0.1298  1.0835 -0.0880
 3006TIP3   OH230652   0.445   1.368   2.619 -0.4873 -0.0129 -0.0835
 3006TIP3    H130653   0.352   1.349   2.611 -0.4631 -0.1038 -0.1458
 3006TIP3    H230654   0.475   1.310   2.689 -0.5929  0.4157  0.3267
 3007TIP3   OH230655   3.459   0.883   3.808  0.1692  0.1428  0.1251
 3007TIP3    H130656   3.429   0.807   3.860 -3.9735  1.9562  0.8039
 3007TIP3    H230657   3.509   0.936   3.871 -0.0889 -0.2863  0.7080
 3008TIP3   OH230658   5.200   5.639   2.016 -0.7139 -0.9402  0.2033
 3008TIP3    H130659   5.238   5.688   2.089 -1.6556  0.3565 -0.1410
 3008TIP3    H230660   5.241   5.553   2.020  0.1439 -0.4851  1.5222
 3009TIP3   OH230661   3.218   2.909   0.689  0.4452  0.0135 -0.1140
 3009TIP3    H130662   3.221   2.842   0.620 -1.3354 -1.1360  0.8448
 3009TIP3    H230663   3.210   2.991   0.641  0.2807 -0.6652 -1.3049
 3010TIP3   OH230664   0.974   1.421   3.802 -0.0877  0.2479  0.0817
 3010TIP3    H130665   1.044   1.377   3.850  0.3628 -0.9005 -1.5358
 3010TIP3    H230666   1.014   1.503   3.771  0.7648 -0.6677 -1.3225
 3011TIP3   OH230667   5.289   5.059   3.244 -0.5051 -0.1379  0.5463
 3011TIP3    H130668   5.201   5.041   3.278 -0.2501  0.3271  1.4923
 3011TIP3    H230669   5.317   5.139   3.290  0.9439 -1.0286  1.2789
 3012TIP3   OH230670   2.014   4.568   0.734 -0.5396 -0.6344 -0.2407
 3012TIP3    H130671   1.983   4.657   0.724  2.0534  0.4139  0.1812
 3012TIP3    H230672   2.082   4.573   0.801 -0.4529 -2.9688 -0.0462
 3013TIP3   OH230673   6.429   3.160   3.130  0.2737 -0.3147 -0.5585
 3013TIP3    H130674   6.350   3.117   3.164  0.3442 -0.4320 -0.5413
 3013TIP3    H230675   6.405   3.185   3.040 -0.2295  0.8424 -0.1241
 3014TIP3   OH230676   6.040   1.605   5.265 -0.0828 -0.7840 -0.0971
 3014TIP3    H130677   5.970   1.660   5.299  0.7580 -0.8728  1.9060
 3014TIP3    H230678   6.118   1.661   5.267  0.0709 -0.9012 -1.6410
 3015TIP3   OH230679   5.452   5.499   3.106  0.1837  0.2066 -0.0472
 3015TIP3    H130680   5.443   5.508   3.201 -1.6851  0.6100 -0.2317
 3015TIP3    H230681   5.534   5.450   3.095  1.0609  1.1834  1.7057
 3016TIP3   OH230682   2.610   6.336   1.092 -0.0060  0.2220 -0.9325
 3016TIP3    H130683   2.581   6.260   1.043  0.6586  0.8030 -2.2772
 3016TIP3    H230684   2.543   6.349   1.159  1.4018 -3.4325  1.5016
 3017TIP3   OH230685   6.088   2.498   3.019  0.3519  0.0490 -0.4797
 3017TIP3    H130686   6.125   2.416   3.052 -1.1276 -0.1853  0.7181
 3017TIP3    H230687   6.148   2.525   2.949 -0.1125 -3.0199 -2.2467
 3018TIP3   OH230688   0.138   6.555   3.765  0.0847  0.3770 -0.0917
 3018TIP3    H130689   0.058   6.559   3.818  0.2561  2.2247  0.1004
 3018TIP3    H230690   0.194   6.623   3.802  1.0628  0.2627 -1.3145
 3019TIP3   OH230691   3.469   4.990   0.512 -0.1539 -0.2269  0.0066
 3019TIP3    H130692   3.416   5.066   0.490 -0.2851 -0.6777 -1.2942
 3019TIP3    H230693   3.556   5.012   0.478  0.5536  0.5053  2.1113
 3020TIP3   OH230694   3.213   4.615   8.786 -0.1300  0.3801  0.1965
 3020TIP3    H130695   3.225   4.530   8.744  0.2629  0.4796  0.1075
 3020TIP3    H230696   3.219   4.596   8.880 -0.8543  0.1840  0.2064
 3021TIP3   OH230697   0.631   2.948   1.603  0.4637  0.2743  0.1124
 3021TIP3    H130698   0.605   3.036   1.575  0.1571  0.3483  0.6117
 3021TIP3    H230699   0.709   2.963   1.658  1.0970  0.1256 -0.7217
 3022TIP3   OH230700   3.895   3.918   1.291 -0.5594  0.1869  0.3181
 3022TIP3    H130701   3.977   3.902   1.337 -0.8485 -1.2340  0.3805
 3022TIP3    H230702   3.828   3.879   1.348 -1.0178 -0.7683 -0.8415
 3023TIP3   OH230703   4.957   3.537   4.088 -0.3411 -0.0595  0.0085
 3023TIP3    H130704   4.981   3.448   4.112 -1.8293 -0.3581  0.4868
 3023TIP3    H230705   5.017   3.592   4.137  1.1087 -0.7784 -0.8841
 3024TIP3   OH230706   1.036   2.963   0.451  0.3724  0.1499 -0.3736
 3024TIP3    H130707   0.971   3.016   0.497 -0.7101 -0.8938 -0.6475
 3024TIP3    H230708   1.016   2.975   0.358 -1.5046 -2.5620 -0.4350
 3025TIP3   OH230709   6.053   1.590   4.264  0.3414  0.5506 -0.0593
 3025TIP3    H130710   6.032   1.544   4.183  1.5396  1.5260 -0.9583
 3025TIP3    H230711   6.035   1.682   4.244  1.5226  0.9122  0.4655
 3026TIP3   OH230712   2.559   1.975   4.264  0.0821 -0.3909 -0.1650
 3026TIP3    H130713   2.535   1.917   4.336  0.9250 -0.9342 -0.3046
 3026TIP3    H230714   2.568   2.062   4.304 -0.8041 -0.4239  0.1159
 3027TIP3   OH230715   1.925   3.442   2.366 -0.2980  0.0251  0.2812
 3027TIP3    H130716   2.016   3.422   2.387 -0.0869 -1.0508 -1.4645
 3027TIP3    H230717   1.896   3.368   2.312 -1.5843  1.3339 -0.8873
 3028TIP3   OH230718   3.896   2.220   3.739 -0.4041 -0.1508  0.3915
 3028TIP3    H130719   3.957   2.146   3.733  0.5868  0.4856  1.9345
 3028TIP3    H230720   3.814   2.180   3.769 -0.3592 -0.8230 -0.3377
 3029TIP3   OH230721   2.045   5.656   3.219  0.0814  0.1983 -0.3367
 3029TIP3    H130722   2.077   5.587   3.277 -1.4689 -0.9210 -0.7549
 3029TIP3    H230723   2.039   5.733   3.275  0.5798 -0.3253  0.4688
 3030TIP3   OH230724   5.076   2.565   0.168  0.0576 -0.2137 -0.4091
 3030TIP3    H130725   5.092   2.656   0.145  2.3554 -0.6814 -0.9281
 3030TIP3    H230726   5.118   2.515   0.098  0.1299 -1.6728  0.6311
 3031TIP3   OH230727   0.938   0.001   0.752 -0.2913 -0.2384  1.1300
 3031TIP3    H130728   0.907  -0.049   0.827 -0.2509 -0.8857  0.7226
 3031TIP3    H230729   0.916   0.092   0.772 -2.4856 -0.6674  0.8257
 3032TIP3   OH230730   4.453   3.632   4.479 -0.7078 -0.4324 -0.1957
 3032TIP3    H130731   4.491   3.670   4.558  0.0560 -1.4616 -0.0498
 3032TIP3    H230732   4.506   3.668   4.408 -3.0439  2.6557 -0.5892
 3033TIP3   OH230733   6.049   4.476   2.790  0.1182  0.2913 -0.4659
 3033TIP3    H130734   6.130   4.426   2.797 -0.7197 -0.9198  1.1235
 3033TIP3    H230735   6.074   4.566   2.813  1.0214 -0.0439 -0.0841
 3034TIP3   OH230736   1.813   2.919   1.391 -0.0715  0.7364 -0.6040
 3034TIP3    H130737   1.835   2.898   1.300  0.2934 -0.0735 -0.3345
 3034TIP3    H230738   1.882   2.877   1.442 -0.3921  1.0181  0.0615
 3035TIP3   OH230739   5.395   3.128   4.739  0.0326 -0.0557  0.2038
 3035TIP3    H130740   5.429   3.089   4.820  0.7339  1.1397  0.5062
 3035TIP3    H230741   5.439   3.081   4.669 -1.7914 -2.2428  0.4229
 3036TIP3   OH230742   1.365   0.780   8.482 -0.3713  0.0929  0.5497
 3036TIP3    H130743   1.411   0.703   8.516 -0.6408 -0.1017  0.4757
 3036TIP3    H230744   1.378   0.776   8.387 -1.4974 -0.5902  0.4117
 3037TIP3   OH230745   0.689   0.140   4.034  0.5366  0.5058 -0.0843
 3037TIP3    H130746   0.693   0.195   3.956  2.0902  0.0382 -0.3697
 3037TIP3    H230747   0.704   0.051   4.001 -2.3599 -0.2486  0.2933
 3038TIP3   OH230748   4.997   6.525   0.113  0.0255  0.8427 -0.3342
 3038TIP3    H130749   5.072   6.584   0.108  0.2050  0.5421 -2.5597
 3038TIP3    H230750   5.032   6.439   0.088 -0.9159  0.5743 -0.8040
 3039TIP3   OH230751   5.770   1.466   2.010 -0.2454 -0.2158 -0.0967
 3039TIP3    H130752   5.695   1.407   2.004 -0.5280  0.1240  0.0826
 3039TIP3    H230753   5.797   1.462   2.101 -0.1446 -0.2161 -0.1264
 3040TIP3   OH230754   4.778   3.490   1.171 -0.1664  0.0524 -0.0726
 3040TIP3    H130755   4.781   3.579   1.135  0.6447 -0.2943 -0.8880
 3040TIP3    H230756   4.730   3.499   1.253 -0.9690  1.0791 -0.6256
 3041TIP3   OH230757   1.748   5.103   3.953  0.1936  0.1603  0.1936
 3041TIP3    H130758   1.687   5.153   4.007 -0.3276  1.1725 -1.2824
 3041TIP3    H230759   1.720   5.012   3.963 -1.8972  0.6421 -0.8140
 3042TIP3   OH230760   6.537   1.326   0.464  0.3170 -0.8969  0.3597
 3042TIP3    H130761   6.559   1.398   0.523 -1.7005 -0.2901  0.4579
 3042TIP3    H230762   6.588   1.343   0.385  0.4264  0.2363  0.6608
 3043TIP3   OH230763   6.076   0.195   4.871  0.0400  0.2142 -0.4809
 3043TIP3    H130764   6.161   0.233   4.850  0.0865  1.9067  2.2671
 3043TIP3    H230765   6.015   0.268   4.866 -0.7755 -0.3973  0.1638
 3044TIP3   OH230766   2.644   0.588   0.960 -0.3964  0.4953  0.0893
 3044TIP3    H130767   2.689   0.662   0.918  2.1471 -1.4259 -0.8721
 3044TIP3    H230768   2.714   0.524   0.976 -2.2951 -1.2545  1.9176
 3045TIP3   OH230769   6.092   1.763   1.983  0.1831 -0.0639 -0.5993
 3045TIP3    H130770   6.016   1.712   1.954 -0.0676  0.7034 -1.3404
 3045TIP3    H230771   6.121   1.720   2.063  0.1822 -1.5501 -1.3740
 3046TIP3   OH230772   1.117   2.243   1.959 -0.3205 -0.1178 -0.2968
 3046TIP3    H130773   1.161   2.162   1.986 -0.7118 -1.2428 -2.7765
 3046TIP3    H230774   1.026   2.230   1.985 -0.4861 -0.7192 -1.1545
 3047TIP3   OH230775   1.584   1.768   1.990 -0.1052  0.0957 -0.7273
 3047TIP3    H130776   1.647   1.830   1.955 -0.4491  0.2557 -1.0720
 3047TIP3    H230777   1.514   1.764   1.924 -0.1269 -0.5932 -0.6749
 3048TIP3   OH230778   4.306   1.499   2.447 -0.3091 -0.2209 -0.4576
 3048TIP3    H130779   4.241   1.569   2.444  0.2103  0.2472 -1.8230
 3048TIP3    H230780   4.320   1.483   2.540 -0.6371  1.3220 -0.1074
 3049TIP3   OH230781   0.081   3.108   0.826  0.5046 -0.7021  0.2830
 3049TIP3    H130782   0.127   3.192   0.823 -1.5004  0.5888  2.4586
 3049TIP3    H230783   0.150   3.043   0.835  2.0965  0.6907 -1.0982
 3050TIP3   OH230784   2.147   2.640   1.657 -0.3880  0.0518  0.2226
 3050TIP3    H130785   2.212   2.659   1.724 -1.0595 -1.5515  1.4013
 3050TIP3    H230786   2.066   2.677   1.691 -0.1219  2.3039 -1.3754
 3051TIP3   OH230787   5.307   1.525   3.523  0.1328  0.5813 -0.8485
 3051TIP3    H130788   5.280   1.602   3.474  1.5200  0.6081 -1.5935
 3051TIP3    H230789   5.224   1.485   3.551 -0.6545  1.2114 -2.1840
 3052TIP3   OH230790   2.130   4.807   4.167 -0.0241  0.9836  0.5212
 3052TIP3    H130791   2.122   4.720   4.129 -0.7276  1.5217 -0.5994
 3052TIP3    H230792   2.205   4.846   4.121 -1.2310  1.8431 -0.7934
 3053TIP3   OH230793   1.015   0.184   8.681 -0.3379 -0.4139  0.1939
 3053TIP3    H130794   1.075   0.224   8.619 -0.8755 -0.6848 -0.5263
 3053TIP3    H230795   0.957   0.255   8.709  1.4564  0.2918  2.3651
 3054TIP3   OH230796   5.763   0.763   0.092  0.1129 -0.0202 -0.0938
 3054TIP3    H130797   5.777   0.833   0.029  1.3330 -0.3754 -0.2325
 3054TIP3    H230798   5.851   0.737   0.121 -0.2885 -1.6141 -0.1849
 3055TIP3   OH230799   3.665   3.597   0.922  0.3558 -0.7559 -0.4299
 3055TIP3    H130800   3.654   3.504   0.902  1.7785 -0.7001 -1.6983
 3055TIP3    H230801   3.760   3.611   0.919  0.0927  1.0471 -1.8045
 3056TIP3   OH230802   5.617   5.064   1.489 -0.3916  0.1250  0.0168
 3056TIP3    H130803   5.673   5.012   1.432 -0.8259  0.2523 -0.5308
 3056TIP3    H230804   5.531   5.022   1.484 -0.5037  0.3075  0.3503
 3057TIP3   OH230805   5.706   0.220   3.049  0.5467  0.0620  0.2444
 3057TIP3    H130806   5.744   0.153   2.992 -0.3125 -0.2807  0.0672
 3057TIP3    H230807   5.748   0.205   3.134  1.3399  0.1530 -0.1154
 3058TIP3   OH230808   1.091   1.226   2.414  0.1632 -0.4589  0.3285
 3058TIP3    H130809   1.076   1.290   2.484  1.4070  0.2884 -0.0613
 3058TIP3    H230810   1.186   1.219   2.408  0.0533 -1.5532 -0.3757
 3059TIP3   OH230811   5.098   6.265   1.368  0.1578 -0.1615 -0.6474
 3059TIP3    H130812   5.055   6.334   1.319  2.2848  0.7046 -1.4299
 3059TIP3    H230813   5.114   6.196   1.304  0.1580 -0.3719 -0.4242
 3060TIP3   OH230814   1.154   2.981   1.581  0.0378  0.0869 -0.9360
 3060TIP3    H130815   1.063   3.008   1.572  0.0574 -0.0371 -1.5070
 3060TIP3    H230816   1.150   2.902   1.635  0.1403  2.2831  2.5846
 3061TIP3   OH230817   3.065   6.239   1.097 -0.3971 -0.5294 -0.0979
 3061TIP3    H130818   3.081   6.266   1.006  2.1606 -0.8509  0.1838
 3061TIP3    H230819   3.140   6.272   1.145 -1.5270 -0.7020  1.8794
 3062TIP3   OH230820   0.762   5.850   3.729  0.0271  0.3287 -0.0828
 3062TIP3    H130821   0.762   5.930   3.782  0.1778 -0.6865  1.5044
 3062TIP3    H230822   0.681   5.856   3.678 -0.8688  0.6875  1.3104
 3063TIP3   OH230823   5.077   3.287   2.233  0.1973  1.1079  0.2462
 3063TIP3    H130824   5.119   3.309   2.150  0.6388 -0.1590  0.1067
 3063TIP3    H230825   5.137   3.223   2.273 -0.2393  1.3601  1.3211
 3064TIP3   OH230826   5.981   2.941   5.040  0.5169 -0.1811 -0.2703
 3064TIP3    H130827   6.048   2.993   4.996  0.2855 -0.0203 -0.4357
 3064TIP3    H230828   5.917   3.005   5.070 -0.1558 -0.4270 -1.1438
 3065TIP3   OH230829   4.501   2.982   4.971  0.4761  0.1828 -0.5385
 3065TIP3    H130830   4.435   2.978   5.040  1.4321  0.0103  0.3868
 3065TIP3    H230831   4.465   3.043   4.907  0.5767  2.2032  1.2277
 3066TIP3   OH230832   4.014   1.296   4.345 -0.8480  0.5284  0.3135
 3066TIP3    H130833   4.072   1.226   4.376  0.3422 -0.3697 -3.4199
 3066TIP3    H230834   4.070   1.374   4.341 -0.7392  0.4148 -0.4069
 3067TIP3   OH230835   6.757   6.590   3.548 -0.5522  0.0423  0.4186
 3067TIP3    H130836   6.697   6.597   3.622 -1.0664  0.6695 -0.0447
 3067TIP3    H230837   6.844   6.588   3.588 -0.8173  0.5164  1.0326
 3068TIP3   OH230838   1.843   3.043   0.283 -0.4095  0.7599  1.0514
 3068TIP3    H130839   1.809   3.112   0.340  0.1410  2.2040 -0.2698
 3068TIP3    H230840   1.772   3.026   0.221 -0.5678  0.0705  1.4133
 3069TIP3   OH230841   4.807   6.707   4.369 -0.3537 -0.1085  0.0312
 3069TIP3    H130842   4.896   6.686   4.397 -0.7090  0.0043  1.3200
 3069TIP3    H230843   4.782   6.783   4.423 -1.6777 -0.9318  0.6446
 3070TIP3   OH230844   0.456   6.534   1.988 -0.6764  0.2808  0.0935
 3070TIP3    H130845   0.403   6.495   1.918 -1.2065 -0.6306  0.9655
 3070TIP3    H230846   0.546   6.528   1.956 -0.9024 -0.1895 -0.4825
 3071TIP3   OH230847   4.011   2.437   1.909 -0.4023  0.0861  0.0660
 3071TIP3    H130848   4.082   2.403   1.964 -1.0232  0.8836  1.4187
 3071TIP3    H230849   4.038   2.527   1.890 -1.0779  0.4257  0.6709
 3072TIP3   OH230850   3.942   6.155   2.506  0.1829  0.0435 -0.2882
 3072TIP3    H130851   3.890   6.216   2.559  2.5608  0.2894  1.9625
 3072TIP3    H230852   4.002   6.114   2.568  0.8929 -2.1882 -2.3078
 3073TIP3   OH230853   0.142   0.854   1.404  0.1398  0.0850  0.0142
 3073TIP3    H130854   0.153   0.810   1.488 -1.4745 -0.9719 -0.2754
 3073TIP3    H230855   0.103   0.939   1.425 -0.2938 -0.1922  0.3386
 3074TIP3   OH230856   1.903   3.057   3.519 -0.1201  0.4363 -0.3872
 3074TIP3    H130857   1.841   2.988   3.497 -0.5133 -0.1350  2.1530
 3074TIP3    H230858   1.989   3.016   3.512 -0.1361  0.6303 -1.9097
 3075TIP3   OH230859   0.437   6.163   4.704 -0.4167 -0.4238 -0.2266
 3075TIP3    H130860   0.359   6.111   4.686 -0.0772 -0.4025 -1.9907
 3075TIP3    H230861   0.425   6.242   4.652  0.1533  0.2162  0.5842
 3076TIP3   OH230862   2.282   3.066   0.973 -0.2472 -0.4179 -0.2183
 3076TIP3    H130863   2.307   3.040   1.062 -0.7371 -0.1830 -0.0101
 3076TIP3    H230864   2.262   2.983   0.929 -3.3634 -0.4156  0.9047
 3077TIP3   OH230865   1.016   3.068   3.718  0.2721  0.0398  0.4953
 3077TIP3    H130866   1.061   2.993   3.678 -1.3756 -1.3449  1.1177
 3077TIP3    H230867   1.073   3.142   3.700  2.1902 -1.4209  0.2038
 3078TIP3   OH230868   2.471   1.831   4.742 -0.4157 -0.5578 -0.0765
 3078TIP3    H130869   2.410   1.773   4.787 -0.4716  0.0305  0.6091
 3078TIP3    H230870   2.558   1.793   4.759 -0.3470  0.1887  1.3486
 3079TIP3   OH230871   4.591   0.959   4.374  0.2293  0.1608 -0.2932
 3079TIP3    H130872   4.543   0.974   4.456  0.6192 -0.2024  0.0024
 3079TIP3    H230873   4.682   0.974   4.396  0.2267  1.3127 -0.9663
 3080TIP3   OH230874   6.280   4.781   1.688  0.5312 -0.2138 -0.6771
 3080TIP3    H130875   6.280   4.835   1.767 -0.9138 -1.5008  0.2634
 3080TIP3    H230876   6.201   4.727   1.696  0.6853 -0.8255 -2.7048
 3081TIP3   OH230877   6.729   0.578   3.939 -0.0354  0.2678  0.8701
 3081TIP3    H130878   6.647   0.625   3.952  1.1149  2.8485 -0.3702
 3081TIP3    H230879   6.724   0.546   3.850 -0.3875 -1.1780  1.3832
 3082TIP3   OH230880   6.158   6.566   3.383  0.5454  0.1950  0.1067
 3082TIP3    H130881   6.194   6.499   3.326  0.9966  1.0134 -0.5866
 3082TIP3    H230882   6.200   6.550   3.468  1.0443 -0.0757 -0.1877
 3083TIP3   OH230883   0.997   2.915   4.256 -0.3002  0.4938  0.5884
 3083TIP3    H130884   1.065   2.897   4.321 -0.6235 -2.0828  0.3221
 3083TIP3    H230885   0.967   3.003   4.276  1.8642  1.0090  1.8384
 3084TIP3   OH230886   0.943   0.157   2.068 -0.3994  0.3089  0.0094
 3084TIP3    H130887   0.892   0.137   1.989 -0.2277  2.0308 -0.5956
 3084TIP3    H230888   1.034   0.144   2.042 -0.3936 -0.0429  0.2113
 3085TIP3   OH230889   4.602   0.366   3.302 -0.1580  1.1716 -0.4566
 3085TIP3    H130890   4.672   0.329   3.356  0.2176  2.3100 -0.1265
 3085TIP3    H230891   4.582   0.298   3.238 -0.3753 -0.0744  0.8924
 3086TIP3   OH230892   3.116   1.895   3.267  0.5195  0.0772 -0.1355
 3086TIP3    H130893   3.042   1.848   3.228 -0.0204  0.9776 -0.2174
 3086TIP3    H230894   3.147   1.838   3.336  0.0814 -0.5526 -0.4501
 3087TIP3   OH230895   1.217   1.036   1.726  0.4234 -0.1282  0.3126
 3087TIP3    H130896   1.183   0.948   1.709 -0.6869  0.2865  0.2408
 3087TIP3    H230897   1.159   1.071   1.793  1.5416  0.1583  1.1540
 3088TIP3   OH230898   1.179   0.411   2.363 -0.3981  0.8398 -0.1300
 3088TIP3    H130899   1.161   0.318   2.371  1.1863  0.6244  1.4203
 3088TIP3    H230900   1.246   0.418   2.296 -0.0225  0.7773  0.2329
 3089TIP3   OH230901   6.016   3.231   4.055  0.6465 -0.5827  0.7306
 3089TIP3    H130902   6.074   3.275   4.117  0.6945 -1.1782  1.1128
 3089TIP3    H230903   6.067   3.158   4.022  1.0415  0.3791 -0.9024
 3090TIP3   OH230904   2.595   4.612   1.472 -0.1742 -0.2129 -0.7823
 3090TIP3    H130905   2.649   4.674   1.423  1.2114  1.0506  2.1011
 3090TIP3    H230906   2.509   4.654   1.478  0.5521  1.1819  0.5294
 3091TIP3   OH230907   1.813   1.574   3.803  0.2872 -0.0414 -0.1083
 3091TIP3    H130908   1.749   1.547   3.738 -0.5872  0.7460  0.4012
 3091TIP3    H230909   1.767   1.638   3.858  1.1378 -0.3465  1.0101
 3092TIP3   OH230910   3.497   2.403   0.612 -0.2797 -0.0657  0.1215
 3092TIP3    H130911   3.406   2.389   0.638 -0.1171  2.5598  2.6221
 3092TIP3    H230912   3.492   2.463   0.538 -0.5773 -0.3999 -0.1336
 3093TIP3   OH230913   1.352   2.196   0.578  0.3093 -0.3052 -0.0080
 3093TIP3    H130914   1.378   2.222   0.489 -2.8538  0.2059 -0.9089
 3093TIP3    H230915   1.355   2.277   0.628  2.8969 -0.7338  0.6786
 3094TIP3   OH230916   3.773   4.912   3.558 -0.2928  0.8667 -0.2753
 3094TIP3    H130917   3.818   4.984   3.514  0.2917  0.3435 -0.5537
 3094TIP3    H230918   3.701   4.889   3.499  0.8596 -0.2508 -1.3169
 3095TIP3   OH230919   3.756   0.876   1.152  0.1155  0.1732  0.4027
 3095TIP3    H130920   3.702   0.903   1.078 -1.6363 -1.5876  0.9554
 3095TIP3    H230921   3.845   0.873   1.117 -0.1505  2.5588 -0.6987
 3096TIP3   OH230922   3.599   5.420   2.007  0.1975  0.2755  0.2651
 3096TIP3    H130923   3.674   5.476   1.983 -0.4431  0.9505 -0.1893
 3096TIP3    H230924   3.547   5.415   1.928  0.5025 -1.4226  0.1454
 3097TIP3   OH230925   3.313   6.388   3.062  0.2030  0.1124 -0.1389
 3097TIP3    H130926   3.365   6.350   2.992  0.6368  1.3121 -0.5034
 3097TIP3    H230927   3.239   6.329   3.073  0.8097 -0.7734 -0.7165
 3098TIP3   OH230928   3.810   0.048   3.021  0.3768  0.0711 -0.2889
 3098TIP3    H130929   3.789   0.013   2.935 -0.1619  1.8146 -0.9120
 3098TIP3    H230930   3.748   0.120   3.033  1.2612  0.6476  1.0168
 3099TIP3   OH230931   3.269   4.421   3.076 -0.3092 -0.3187 -0.2734
 3099TIP3    H130932   3.345   4.420   3.018  0.9788  1.2116  1.2685
 3099TIP3    H230933   3.212   4.353   3.041  1.1973 -0.6891 -2.2297
 3100TIP3   OH230934   5.817   3.102   1.447  0.1731  0.0101  0.6145
 3100TIP3    H130935   5.910   3.100   1.424 -0.2324  2.5521 -1.9445
 3100TIP3    H230936   5.772   3.098   1.362 -1.9784  0.5030  1.6662
 3101TIP3   OH230937   5.006   2.600   4.651  0.1307 -0.0115  0.1046
 3101TIP3    H130938   4.941   2.580   4.584  0.9785  0.8860 -1.0390
 3101TIP3    H230939   4.956   2.603   4.733 -1.6782  2.4704 -0.9523
 3102TIP3   OH230940   6.485   2.761   2.339  0.1602  0.3304  0.8636
 3102TIP3    H130941   6.562   2.722   2.381 -0.8119 -0.9024  1.5540
 3102TIP3    H230942   6.421   2.769   2.410  0.0151  2.4285  0.5598
 3103TIP3   OH230943   1.431   5.104   1.146  0.0923 -0.5600  0.3390
 3103TIP3    H130944   1.427   5.195   1.118 -0.4248 -0.2345  1.4376
 3103TIP3    H230945   1.524   5.087   1.158  0.1445  0.0476  0.8347
 3104TIP3   OH230946   0.038   5.777   1.458 -0.0938 -0.4692 -0.6024
 3104TIP3    H130947   0.008   5.834   1.387 -1.4167 -0.9188 -0.4365
 3104TIP3    H230948   0.088   5.835   1.516  0.3176  0.0705 -1.4709
 3105TIP3   OH230949   3.996   1.482   0.855  0.0599 -0.1686  0.2195
 3105TIP3    H130950   3.918   1.522   0.817  0.7632  0.6807 -0.3673
 3105TIP3    H230951   3.962   1.422   0.922 -1.1884 -1.4556 -1.4862
 3106TIP3   OH230952   6.652   3.631   1.759 -0.6091 -0.1079  0.0065
 3106TIP3    H130953   6.592   3.584   1.816 -0.5928  2.3852  2.2688
 3106TIP3    H230954   6.717   3.669   1.818  1.0126  0.4276 -1.9851
 3107TIP3   OH230955   5.679   2.872   2.153  0.2672  0.4718 -0.2112
 3107TIP3    H130956   5.694   2.780   2.132 -0.6983  0.0144  0.9243
 3107TIP3    H230957   5.617   2.902   2.086  1.5479  0.6807 -1.3381
 3108TIP3   OH230958   0.237   1.913   3.033  0.2994 -0.1207  0.3672
 3108TIP3    H130959   0.287   1.992   3.055  1.5305 -0.3317 -1.4582
 3108TIP3    H230960   0.240   1.860   3.112  2.4285  0.1943  0.5626
 3109TIP3   OH230961   4.887   6.476   3.727 -0.4828  0.3770  0.3337
 3109TIP3    H130962   4.883   6.499   3.634 -0.5893 -0.1249  0.2111
 3109TIP3    H230963   4.848   6.551   3.772 -1.0238  0.3448 -0.0733
 3110TIP3   OH230964   0.031   2.530   3.855 -0.0020  0.3863  0.8107
 3110TIP3    H130965   0.076   2.614   3.850  1.8955 -0.5063  1.6432
 3110TIP3    H230966   0.051   2.487   3.772  0.9923 -0.1438  1.3147
 3111TIP3   OH230967   5.681   3.177   1.699  0.1768  0.4421  0.0365
 3111TIP3    H130968   5.593   3.207   1.677  0.5313  0.2595 -1.7694
 3111TIP3    H230969   5.721   3.155   1.615  1.9148  0.4028  0.8229
 3112TIP3   OH230970   4.917   1.115   0.968 -0.5017  0.0430 -0.7471
 3112TIP3    H130971   4.823   1.123   0.978 -0.4444 -0.6298  0.5590
 3112TIP3    H230972   4.929   1.060   0.890 -1.2312 -0.8841 -0.2273
 3113TIP3   OH230973   3.911   1.786   2.845  0.8078 -0.6146  0.2384
 3113TIP3    H130974   3.952   1.755   2.926 -0.8054 -2.0879  0.5517
 3113TIP3    H230975   3.843   1.846   2.875  0.2586 -1.1035 -0.0140
 3114TIP3   OH230976   4.654   0.196   1.258 -0.0754  0.4855 -0.0120
 3114TIP3    H130977   4.742   0.212   1.293 -0.3772  0.1348  0.9392
 3114TIP3    H230978   4.668   0.142   1.181  0.5312  0.2035  0.2868
 3115TIP3   OH230979   4.159   5.175   0.424 -0.0829 -0.5638  0.3516
 3115TIP3    H130980   4.209   5.130   0.356  0.3473 -1.3999  1.1982
 3115TIP3    H230981   4.217   5.177   0.500 -0.6416  0.1448  0.7837
 3116TIP3   OH230982   6.288   5.835   4.409  0.0606  0.1732 -0.0392
 3116TIP3    H130983   6.289   5.753   4.459 -2.5934  0.2651  0.3207
 3116TIP3    H230984   6.303   5.808   4.319  3.4846 -0.1505  0.4995
 3117TIP3   OH230985   2.661   2.555   1.252 -0.0209 -0.0567 -0.1350
 3117TIP3    H130986   2.672   2.586   1.342 -1.7129  0.8240 -0.1852
 3117TIP3    H230987   2.706   2.471   1.249  2.3066  1.0883  0.8011
 3118TIP3   OH230988   1.224   3.214   3.577 -0.0718 -0.2931 -0.3050
 3118TIP3    H130989   1.315   3.204   3.549  0.0584  1.6848 -0.7500
 3118TIP3    H230990   1.218   3.304   3.608 -2.3821  0.3836 -2.3771
 3119TIP3   OH230991   5.748   0.127   0.964  0.3683  0.3996 -0.5263
 3119TIP3    H130992   5.809   0.056   0.982 -0.4795 -0.6044 -1.4942
 3119TIP3    H230993   5.675   0.111   1.023  0.9791  1.5779  0.6029
 3120TIP3   OH230994   3.258   2.753   3.093 -0.5081  0.2762  0.3542
 3120TIP3    H130995   3.326   2.698   3.134  0.9249 -0.3380 -2.5813
 3120TIP3    H230996   3.194   2.691   3.059 -0.6026  0.6304 -0.1227
 3121TIP3   OH230997   0.376   5.604   2.350  0.4570 -0.6092 -0.4016
 3121TIP3    H130998   0.327   5.579   2.271  1.4052 -0.9610 -0.9003
 3121TIP3    H230999   0.450   5.543   2.353 -0.0981 -1.2380  1.3191
 3122TIP3   OH231000   1.285   3.763   2.652 -0.4880  0.4377 -0.0127
 3122TIP3    H131001   1.323   3.728   2.572 -2.9201 -1.4366 -0.4327
 3122TIP3    H231002   1.289   3.690   2.714 -1.5917  0.8125  0.5260
 3123TIP3   OH231003   6.804   4.795   2.220  0.1091 -0.4481  0.2970
 3123TIP3    H131004   6.818   4.822   2.310  0.7221 -1.9760  0.7006
 3123TIP3    H231005   6.892   4.783   2.185 -0.1063  0.8503 -0.7621
 3124TIP3   OH231006   3.397   2.556   0.422  0.1256 -0.0148  0.6187
 3124TIP3    H131007   3.397   2.645   0.457 -0.3924  0.2385  0.0008
 3124TIP3    H231008   3.319   2.552   0.367 -0.2623 -1.0891  1.2085
 3125TIP3   OH231009   1.669   5.469   2.057  0.3244 -0.0048  0.0352
 3125TIP3    H131010   1.574   5.485   2.056  0.4646  0.8725 -0.3146
 3125TIP3    H231011   1.696   5.497   2.145  0.3296  0.2320 -0.0394
 3126TIP3   OH231012   1.185   1.621   4.681  0.2573 -0.0087 -0.3069
 3126TIP3    H131013   1.145   1.696   4.636 -0.8370 -0.4147 -0.0268
 3126TIP3    H231014   1.272   1.652   4.705  0.1174  0.9005 -0.9122
 3127TIP3   OH231015   5.165   1.001   2.936 -0.3478  0.7628  0.1138
 3127TIP3    H131016   5.081   0.994   2.981 -0.1568 -0.2828  0.3199
 3127TIP3    H231017   5.200   1.086   2.963 -1.1787  1.0578  0.2910
 3128TIP3   OH231018   2.885   6.330   1.639  0.7134 -0.3922  1.1472
 3128TIP3    H131019   2.925   6.406   1.681  2.4676 -0.7174  0.1403
 3128TIP3    H231020   2.956   6.288   1.590 -1.0074 -0.5453 -1.4303
 3129TIP3   OH231021   1.862   1.836   3.529  0.3069  0.0716 -0.4443
 3129TIP3    H131022   1.784   1.861   3.578 -0.0254  0.3826 -1.1249
 3129TIP3    H231023   1.904   1.919   3.506 -0.1844 -0.0118 -1.7126
 3130TIP3   OH231024   6.279   0.541   0.723 -0.3925  0.5756 -0.2928
 3130TIP3    H131025   6.365   0.584   0.727 -0.7297  1.2980 -0.6056
 3130TIP3    H231026   6.273   0.509   0.633  1.0116 -2.6332  0.6127
 3131TIP3   OH231027   6.596   0.344   3.685 -0.6193  0.0002  0.4206
 3131TIP3    H131028   6.675   0.381   3.645  0.5961 -1.2010  1.5943
 3131TIP3    H231029   6.536   0.418   3.692 -0.2267  0.6272 -1.9174
 3132TIP3   OH231030   1.966   0.730   2.884  0.2972 -0.3186  0.4165
 3132TIP3    H131031   2.036   0.665   2.879 -0.4384 -1.1028  0.0955
 3132TIP3    H231032   1.987   0.794   2.816  1.2932  0.0624  1.0634
 3133TIP3   OH231033   1.460   0.343   0.397  0.5332  0.3377 -0.9275
 3133TIP3    H131034   1.450   0.382   0.484  0.4299 -0.6100 -0.5046
 3133TIP3    H231035   1.391   0.382   0.345 -0.3814 -0.2182 -0.1670
 3134TIP3   OH231036   6.662   6.263   5.453  0.0515  0.2008  0.0377
 3134TIP3    H131037   6.576   6.298   5.479  0.5644  1.0728  0.6460
 3134TIP3    H231038   6.706   6.338   5.411  0.7338 -0.0571  0.2785
 3135TIP3   OH231039   3.025   0.320   3.566  0.0811  0.2587 -0.5639
 3135TIP3    H131040   3.030   0.245   3.626  0.5204  0.5155 -0.2679
 3135TIP3    H231041   2.945   0.366   3.591 -0.1963 -0.1182 -0.7539
 3136TIP3   OH231042   4.351   5.722   3.244 -0.2515 -0.2365 -0.0766
 3136TIP3    H131043   4.265   5.762   3.233  0.7856  2.4495  0.8584
 3136TIP3    H231044   4.397   5.739   3.161  0.4930  1.4535  0.6322
 3137TIP3   OH231045   5.684   1.918   0.537 -0.2523 -0.0612 -0.0301
 3137TIP3    H131046   5.718   1.919   0.627 -1.8730  0.0424  0.6155
 3137TIP3    H231047   5.596   1.957   0.544 -0.8280 -1.0104 -1.4931
 3138TIP3   OH231048   2.621   4.040   2.019  0.8622  0.6309 -0.2202
 3138TIP3    H131049   2.686   4.030   2.088  0.0728  1.3401  0.6532
 3138TIP3    H231050   2.539   4.010   2.058  0.9209 -2.0087 -1.8841
 3139TIP3   OH231051   1.440   1.013   8.647 -0.0004  0.0381  1.0798
 3139TIP3    H131052   1.532   1.030   8.624 -0.8528  1.9518 -1.3325
 3139TIP3    H231053   1.421   0.927   8.609  0.6302 -0.1321  1.1364
 3140TIP3   OH231054   1.781   2.516   1.692  0.0391  0.2058 -0.0358
 3140TIP3    H131055   1.692   2.492   1.666  1.2130 -4.1564 -0.8127
 3140TIP3    H231056   1.833   2.502   1.613  1.3770  4.2957 -0.1171
 3141TIP3   OH231057   6.738   1.608   1.416 -0.1859  0.0825  0.1073
 3141TIP3    H131058   6.752   1.673   1.485  0.3524 -0.4453  0.5000
 3141TIP3    H231059   6.817   1.612   1.362  0.6204 -1.4160  1.1124
 3142TIP3   OH231060   0.928   4.522   3.658 -0.5078 -0.2180  0.0552
 3142TIP3    H131061   0.848   4.573   3.667 -0.4636 -0.2900  0.9991
 3142TIP3    H231062   0.994   4.572   3.706 -0.6267 -1.4764  1.6036
 3143TIP3   OH231063   4.402   1.693   3.165  0.5762  0.1522  0.2892
 3143TIP3    H131064   4.422   1.703   3.258  0.6537 -0.5705  0.3570
 3143TIP3    H231065   4.486   1.706   3.121  0.3781  1.3874  0.2408
 3144TIP3   OH231066   1.547   1.341   0.251  0.4488 -0.0955  0.2442
 3144TIP3    H131067   1.577   1.354   0.161 -0.1352 -1.7119 -0.2106
 3144TIP3    H231068   1.606   1.395   0.304  0.8886  0.7719 -1.0819
 3145TIP3   OH231069   3.847   1.306   0.510  0.0475  0.6927 -0.1276
 3145TIP3    H131070   3.787   1.381   0.507 -1.4651 -0.4715 -0.1719
 3145TIP3    H231071   3.869   1.289   0.418  0.3293  1.0225 -0.1231
 3146TIP3   OH231072   1.653   3.158   1.426  0.2594  0.3836  0.1681
 3146TIP3    H131073   1.571   3.149   1.475 -1.6957 -1.2031 -3.0112
 3146TIP3    H231074   1.705   3.081   1.452 -0.5638 -0.2178  0.0845
 3147TIP3   OH231075   3.681   5.836   3.657  0.5908  0.1846  0.0447
 3147TIP3    H131076   3.712   5.865   3.571 -0.5945 -1.5689 -1.0442
 3147TIP3    H231077   3.587   5.856   3.656  0.6419  0.5161  1.1143
 3148TIP3   OH231078   0.428   2.640   1.411  1.0889  0.5574  0.2808
 3148TIP3    H131079   0.420   2.697   1.487 -0.4679 -1.3743  1.6687
 3148TIP3    H231080   0.416   2.552   1.445  0.8772 -0.4418 -2.1389
 3149TIP3   OH231081   6.663   2.340   0.899 -0.2424 -0.3661  0.1588
 3149TIP3    H131082   6.666   2.402   0.826  0.9794 -1.3222 -0.6567
 3149TIP3    H231083   6.725   2.374   0.963 -0.3207 -0.2157  0.1536
 3150TIP3   OH231084   1.839   4.325   3.550  0.0480 -0.3867  0.4231
 3150TIP3    H131085   1.795   4.384   3.611 -0.5592 -0.4359  0.0429
 3150TIP3    H231086   1.771   4.263   3.523  0.6049 -1.0798  0.5893
 3151TIP3   OH231087   4.693   4.638   0.895  0.7713  0.1085  0.2460
 3151TIP3    H131088   4.750   4.709   0.926  0.4957  0.4095  0.0763
 3151TIP3    H231089   4.749   4.587   0.836  0.6065  0.9769 -0.7100
 3152TIP3   OH231090   5.744   0.035   2.856  0.0978  0.2033 -0.1241
 3152TIP3    H131091   5.797  -0.028   2.808 -0.3764 -0.9791  0.8320
 3152TIP3    H231092   5.655  -0.002   2.853  0.0312  0.1696  1.4764
 3153TIP3   OH231093   4.527   1.185   0.599  0.1370  0.3942  0.6943
 3153TIP3    H131094   4.446   1.138   0.621 -0.0654  0.6855  0.5839
 3153TIP3    H231095   4.508   1.226   0.515  1.0838 -1.1396 -0.3298
 3154TIP3   OH231096   4.505   5.991   2.682 -0.0028  0.5288  0.1929
 3154TIP3    H131097   4.432   5.949   2.636 -1.2626  2.2250  0.5635
 3154TIP3    H231098   4.583   5.949   2.646 -1.0787 -0.1763 -1.4171
 3155TIP3   OH231099   6.567   6.203   4.347 -0.1766 -0.3460 -0.2302
 3155TIP3    H131100   6.594   6.226   4.258 -0.7852 -0.0759 -0.3511
 3155TIP3    H231101   6.471   6.210   4.346 -0.0867  2.1231  1.1178
 3156TIP3   OH231102   2.428   3.308   4.527 -0.3151  0.0856  0.3151
 3156TIP3    H131103   2.375   3.238   4.489  0.7426 -0.8448  0.4881
 3156TIP3    H231104   2.449   3.276   4.615 -0.0641  0.7596  0.5048
 3157TIP3   OH231105   0.910   3.632   2.242  0.3867 -0.1528 -0.1372
 3157TIP3    H131106   0.899   3.718   2.282  2.3930 -0.7979  2.0639
 3157TIP3    H231107   0.970   3.648   2.169  0.3577  0.3872 -0.0494
 3158TIP3   OH231108   2.671   6.816   1.162 -0.1443  0.6681 -0.0901
 3158TIP3    H131109   2.733   6.844   1.094 -0.4811 -0.0204 -0.6907
 3158TIP3    H231110   2.638   6.731   1.132  2.0125 -1.2186  2.4256
 3159TIP3   OH231111   0.370   3.351   3.320  0.2139 -0.4686 -0.1212
 3159TIP3    H131112   0.280   3.370   3.293  0.3243  0.5759  0.1995
 3159TIP3    H231113   0.423   3.415   3.271  0.9758 -2.2065 -1.6727
 3160TIP3   OH231114   6.241   1.672   0.268  0.4231 -0.1899 -0.2715
 3160TIP3    H131115   6.194   1.593   0.294  1.1809 -0.2272  1.0941
 3160TIP3    H231116   6.315   1.639   0.217  1.2793 -0.4822  1.0948
 3161TIP3   OH231117   2.693   6.758   0.157 -0.7468 -0.7325 -0.0261
 3161TIP3    H131118   2.699   6.688   0.093 -1.0061 -1.0343  0.2767
 3161TIP3    H231119   2.603   6.755   0.189  0.0107 -2.2898  2.2342
 3162TIP3   OH231120   6.576   4.464   3.510  0.2420 -0.5747 -0.0072
 3162TIP3    H131121   6.657   4.416   3.529  0.1757 -0.5199  0.4329
 3162TIP3    H231122   6.542   4.487   3.597 -1.6538 -2.8979 -0.0304
 3163TIP3   OH231123   1.451   3.180   0.589  0.6025  0.1001  0.4899
 3163TIP3    H131124   1.467   3.235   0.512  1.7774  0.3530  0.8893
 3163TIP3    H231125   1.447   3.241   0.662  0.2366 -0.2042  0.7269
 3164TIP3   OH231126   4.647   4.403   1.825  0.1711  0.3459  1.1683
 3164TIP3    H131127   4.680   4.364   1.906  1.1849  1.8928  1.5359
 3164TIP3    H231128   4.685   4.350   1.755  0.2523 -0.2791  1.6821
 3165TIP3   OH231129   3.792   6.800   0.750 -0.3341 -0.1763  0.7143
 3165TIP3    H131130   3.696   6.794   0.742 -0.2366  0.4323 -1.4098
 3165TIP3    H231131   3.819   6.853   0.675  1.6899 -0.3417  1.2811
 3166TIP3   OH231132   1.269   6.724   0.029 -0.7439  0.6750 -0.0169
 3166TIP3    H131133   1.200   6.706  -0.034 -0.8067  1.0792 -0.0630
 3166TIP3    H231134   1.294   6.815   0.013 -0.8798  0.8394  0.6439
 3167TIP3   OH231135   2.565   1.867   3.001 -0.5643  0.3891 -0.3680
 3167TIP3    H131136   2.544   1.782   3.040  0.5390  0.1441 -0.2686
 3167TIP3    H231137   2.535   1.931   3.066  1.7251 -0.0174  1.2158
 3168TIP3   OH231138   4.396   4.588   4.621  0.2201 -0.0093  0.7133
 3168TIP3    H131139   4.324   4.537   4.657  1.0706 -0.1675  2.2780
 3168TIP3    H231140   4.403   4.558   4.530 -0.3138 -1.5489  1.1392
 3169TIP3   OH231141   4.268   4.822   3.464  0.0538  0.5622 -0.2549
 3169TIP3    H131142   4.183   4.780   3.452  0.7913 -1.1842  0.2994
 3169TIP3    H231143   4.314   4.766   3.527  1.8464  1.0999 -1.0060
 3170TIP3   OH231144   1.494   0.745   1.066 -0.3908  0.0556  0.0533
 3170TIP3    H131145   1.400   0.763   1.065 -0.3400  0.3611  0.5397
 3170TIP3    H231146   1.535   0.831   1.068 -0.1079 -0.0830  0.3340
 3171TIP3   OH231147   6.367   5.382   1.336 -0.5234 -0.2275  0.3406
 3171TIP3    H131148   6.423   5.453   1.368 -1.5486  0.8341 -0.1276
 3171TIP3    H231149   6.314   5.423   1.267 -0.6107 -1.6505 -0.4649
 3172TIP3   OH231150   0.050   1.508   0.909 -0.8162 -0.2986  0.6034
 3172TIP3    H131151   0.123   1.521   0.848 -0.4463 -0.3548  1.0301
 3172TIP3    H231152   0.033   1.595   0.944 -3.1016  0.3827 -1.8718
 3173TIP3   OH231153   0.119   3.684   4.200  0.3315  0.3358 -0.0136
 3173TIP3    H131154   0.106   3.594   4.229 -0.0124  0.7370  1.1698
 3173TIP3    H231155   0.039   3.706   4.152  0.7478 -0.2243 -0.9862
 3174TIP3   OH231156   6.618   0.740   2.467  0.1925  0.3332  0.1771
 3174TIP3    H131157   6.543   0.740   2.525  1.1543 -0.1681  1.4633
 3174TIP3    H231158   6.694   0.748   2.525  1.4860 -3.9579 -0.5309
 3175TIP3   OH231159   5.889   5.029   3.986  0.2144 -0.4320  0.0883
 3175TIP3    H131160   5.924   4.946   4.016  2.1496  0.4460  0.3878
 3175TIP3    H231161   5.939   5.095   4.034 -0.0504  0.9316 -1.4306
 3176TIP3   OH231162   1.988   0.846   0.336 -0.1143  0.1023 -0.6720
 3176TIP3    H131163   2.030   0.812   0.416 -0.9612  0.9333  0.1527
 3176TIP3    H231164   2.061   0.876   0.282  0.4842 -0.5432 -0.2476
 3177TIP3   OH231165   4.521   3.286   1.725 -0.2634  0.3073 -0.1303
 3177TIP3    H131166   4.612   3.258   1.715 -0.5865 -0.3004 -1.6482
 3177TIP3    H231167   4.516   3.320   1.815  0.9338 -1.6003  0.7195
 3178TIP3   OH231168   1.418   2.343   0.916  0.3681 -0.0025 -0.0297
 3178TIP3    H131169   1.483   2.384   0.858  0.1001  0.4460 -0.0130
 3178TIP3    H231170   1.341   2.331   0.861  0.4832 -0.5891 -0.0648
 3179TIP3   OH231171   6.248   4.832   3.879 -0.3270  0.1205  0.0684
 3179TIP3    H131172   6.292   4.910   3.846 -0.0745 -0.1853 -0.3309
 3179TIP3    H231173   6.168   4.865   3.921 -0.3418  0.5717 -0.3079
 3180TIP3   OH231174   0.775   0.021   2.889 -0.0378  0.3606 -1.0723
 3180TIP3    H131175   0.718   0.026   2.812 -1.1454  0.1781 -0.2944
 3180TIP3    H231176   0.770  -0.071   2.916  2.8683 -0.3612 -2.5940
 3181TIP3   OH231177   5.648   4.390   4.554  0.1074  0.0328  0.4669
 3181TIP3    H131178   5.584   4.369   4.621 -0.9025  0.8379 -0.2057
 3181TIP3    H231179   5.602   4.378   4.471  0.3582  1.9252 -0.0073
 3182TIP3   OH231180   3.082   2.983   4.430 -0.5114 -0.3193  0.5254
 3182TIP3    H131181   3.058   2.894   4.407 -0.0776 -0.6238  1.2136
 3182TIP3    H231182   3.072   2.987   4.525 -2.4092  0.9453  0.3180
 3183TIP3   OH231183   3.414   6.028   1.869  0.7366 -0.5534  0.3927
 3183TIP3    H131184   3.449   6.028   1.780 -1.0196  1.2254 -0.3757
 3183TIP3    H231185   3.320   6.019   1.858  0.4435  0.0522  2.0488
 3184TIP3   OH231186   4.734   1.034   1.252  0.2945 -0.1478 -0.5904
 3184TIP3    H131187   4.729   1.129   1.252 -0.3338 -0.1614  0.2725
 3184TIP3    H231188   4.755   1.012   1.343 -3.7171 -0.9519  0.3643
 3185TIP3   OH231189   2.158   5.703   1.366 -0.1282 -0.2727 -0.0234
 3185TIP3    H131190   2.097   5.770   1.396  0.8474 -0.2690  2.1763
 3185TIP3    H231191   2.207   5.745   1.295  1.8299  2.2142  2.5750
 3186TIP3   OH231192   2.859   4.676   2.620  0.4443  0.7886  0.3332
 3186TIP3    H131193   2.841   4.698   2.529  0.7596  0.8344  0.2816
 3186TIP3    H231194   2.954   4.668   2.625  0.4689  1.2590  0.7625
 3187TIP3   OH231195   0.266   2.405   4.027  0.2271  0.6904  0.2947
 3187TIP3    H131196   0.174   2.398   4.002  0.1534  1.2613  0.3902
 3187TIP3    H231197   0.286   2.321   4.068  0.1423  0.0075 -1.0075
 3188TIP3   OH231198   4.697   5.311   2.187 -0.3823 -0.0957  0.1475
 3188TIP3    H131199   4.668   5.224   2.217 -1.2043  0.6758  1.7460
 3188TIP3    H231200   4.623   5.343   2.135  0.0575 -0.4557 -0.7276
 3189TIP3   OH231201   3.160   6.477   3.334 -0.1978  0.1004  0.5033
 3189TIP3    H131202   3.216   6.400   3.347 -1.2966 -0.8725 -0.3692
 3189TIP3    H231203   3.202   6.545   3.386  1.0776 -0.9478  0.9154
 3190TIP3   OH231204   5.170   6.286   3.309  0.0446 -0.0173 -0.0116
 3190TIP3    H131205   5.115   6.231   3.253 -0.1909  0.9511 -0.7665
 3190TIP3    H231206   5.176   6.370   3.262  2.9422 -0.3630 -0.4452
 3191TIP3   OH231207   0.164   5.397   4.026 -0.1094 -0.2866  0.0139
 3191TIP3    H131208   0.099   5.351   3.974  0.7006 -0.4624 -0.8744
 3191TIP3    H231209   0.240   5.339   4.028  0.4225  0.3841  0.0801
 3192TIP3   OH231210   2.680   0.159   3.023 -0.4342 -0.2746 -0.0517
 3192TIP3    H131211   2.761   0.192   2.985 -2.0479  1.8145 -1.9191
 3192TIP3    H231212   2.643   0.102   2.956 -1.5741  0.5822 -0.1876
 3193TIP3   OH231213   0.357   5.483   0.467  0.0410  0.1163  0.1556
 3193TIP3    H131214   0.415   5.466   0.393 -1.1733  0.8837 -1.0132
 3193TIP3    H231215   0.304   5.558   0.440 -2.8419 -1.7138  0.3320
 3194TIP3   OH231216   6.067   4.850   4.824 -0.1837 -0.0336  0.2673
 3194TIP3    H131217   5.976   4.855   4.795 -0.3949  1.9785  1.1487
 3194TIP3    H231218   6.117   4.889   4.752 -0.0512 -0.6542  0.0130
 3195TIP3   OH231219   3.075   3.560   1.028 -0.1730 -0.5040 -0.0695
 3195TIP3    H131220   3.033   3.641   1.059  0.3539 -0.5164  0.7355
 3195TIP3    H231221   3.155   3.554   1.080  0.2814 -1.0432 -0.8106
 3196TIP3   OH231222   6.134   5.377   1.195  0.0163 -0.3152 -0.8226
 3196TIP3    H131223   6.057   5.341   1.150  0.4547 -1.9043 -0.3609
 3196TIP3    H231224   6.103   5.459   1.233 -1.0161 -0.1416 -1.9589
 3197TIP3   OH231225   1.415   3.364   3.861  0.4440  0.6515 -0.5004
 3197TIP3    H131226   1.501   3.388   3.896  0.3464  0.1589  0.1104
 3197TIP3    H231227   1.385   3.293   3.918 -0.0684  0.3458 -1.1297
 3198TIP3   OH231228   1.399   1.944   2.616  0.3854 -0.6392  0.1391
 3198TIP3    H131229   1.444   2.021   2.651  2.9033 -0.6465 -2.7040
 3198TIP3    H231230   1.417   1.875   2.679  1.2824  0.2314  0.8663
 3199TIP3   OH231231   6.784   0.574   2.050  0.7464  0.9990 -0.1039
 3199TIP3    H131232   6.833   0.655   2.058  0.9578  0.8400  0.2575
 3199TIP3    H231233   6.817   0.519   2.121  0.9307  0.4294 -0.6128
 3200TIP3   OH231234   0.068   6.227   4.139 -0.3816 -0.4501  0.2628
 3200TIP3    H131235   0.154   6.201   4.108 -0.6704  0.8565 -1.8317
 3200TIP3    H231236   0.016   6.147   4.136 -0.5640 -0.3729 -3.4776
 3201TIP3   OH231237   3.761   6.293   2.122 -0.1281  0.3849 -0.2477
 3201TIP3    H131238   3.741   6.387   2.129 -1.2168  0.0770  1.7235
 3201TIP3    H231239   3.685   6.250   2.161  0.0252 -1.3868 -1.7805
 3202TIP3   OH231240   6.571   1.343   1.779 -0.2206 -0.3098 -0.6702
 3202TIP3    H131241   6.507   1.277   1.752  0.4875 -0.5163 -1.9167
 3202TIP3    H231242   6.617   1.366   1.699  1.2390 -0.1327  0.1883
 3203TIP3   OH231243   1.729   4.854   3.506  0.1555  0.2919 -0.1867
 3203TIP3    H131244   1.650   4.834   3.556  0.0717 -2.0290 -1.1137
 3203TIP3    H231245   1.709   4.824   3.417  1.7441  0.4968 -0.6376
 3204TIP3   OH231246   3.331   3.454   4.157 -0.4013  0.2042 -0.6210
 3204TIP3    H131247   3.260   3.488   4.102 -0.6321 -0.3132 -0.6566
 3204TIP3    H231248   3.351   3.368   4.119 -0.2509  0.0366 -0.1712
 3205TIP3   OH231249   2.399   3.312   1.306  0.0735  0.2669  0.0170
 3205TIP3    H131250   2.312   3.345   1.284 -0.4957 -0.5284  0.9779
 3205TIP3    H231251   2.399   3.222   1.273  0.0845 -0.1291  1.0447
 3206TIP3   OH231252   1.003   1.756   3.022  0.2029  0.0534 -0.1316
 3206TIP3    H131253   0.997   1.683   2.961  1.8948  0.2419 -0.5782
 3206TIP3    H231254   1.097   1.775   3.028 -0.1938  2.3163 -0.1651
 3207TIP3   OH231255   4.517   2.706   3.910 -0.0648 -0.6449 -0.3070
 3207TIP3    H131256   4.472   2.755   3.842  1.4003  2.2672  0.6343
 3207TIP3    H231257   4.455   2.703   3.983 -0.2864 -0.4673 -0.4885
 3208TIP3   OH231258   3.485   2.061   4.028  0.5528  0.3662  0.4565
 3208TIP3    H131259   3.482   2.045   4.122 -0.9763 -0.1018  0.3546
 3208TIP3    H231260   3.395   2.080   4.003  0.8173 -0.1183 -1.0100
 3209TIP3   OH231261   3.720   4.042   0.382 -0.6507 -0.3231 -0.3877
 3209TIP3    H131262   3.690   4.124   0.342  0.0914  1.4434  2.4025
 3209TIP3    H231263   3.800   4.021   0.335 -0.9557  0.4482 -1.2836
 3210TIP3   OH231264   1.258   1.502   3.291  0.9478 -0.0387 -0.0794
 3210TIP3    H131265   1.274   1.526   3.200  1.5279 -1.0290 -0.2516
 3210TIP3    H231266   1.173   1.458   3.289  0.6170  0.5804 -0.0122
 3211TIP3   OH231267   0.479   1.759   0.111  0.3623 -0.5208  0.0306
 3211TIP3    H131268   0.417   1.830   0.126  1.8618  0.9759 -0.5514
 3211TIP3    H231269   0.426   1.688   0.074 -1.1549  0.3179  0.5117
 3212TIP3   OH231270   1.896   0.128   1.978  0.8480 -0.2146 -0.0823
 3212TIP3    H131271   1.893   0.152   1.885 -3.5341  2.4510  0.4480
 3212TIP3    H231272   1.926   0.208   2.022  0.3668 -0.5533  0.8837
 3213TIP3   OH231273   6.299   4.974   3.086  0.2463 -0.0242 -0.3288
 3213TIP3    H131274   6.299   4.975   3.181  0.0684 -0.5047 -0.3193
 3213TIP3    H231275   6.215   5.011   3.061  0.2563  0.0202 -0.2955
 3214TIP3   OH231276   0.363   0.025   1.063 -1.3785  0.7974 -0.1895
 3214TIP3    H131277   0.286   0.056   1.112 -2.4160 -0.8416 -0.7151
 3214TIP3    H231278   0.329  -0.043   1.006  0.3926  0.4430 -0.8781
 3215TIP3   OH231279   5.044   2.060   2.618  0.3453  0.4537 -0.0683
 3215TIP3    H131280   5.058   2.020   2.533 -1.7251 -0.5956  0.0421
 3215TIP3    H231281   5.121   2.116   2.631  1.3552 -0.4136 -1.9910
 3216TIP3   OH231282   1.972   6.060   0.580 -0.4399 -0.5514 -0.0104
 3216TIP3    H131283   1.889   6.108   0.580  0.9443  2.0407 -1.2719
 3216TIP3    H231284   2.021   6.097   0.654 -0.2320 -1.7874  0.4939
 3217TIP3   OH231285   0.094   5.467   2.580 -0.5738  0.1787  0.1521
 3217TIP3    H131286   0.176   5.488   2.536  0.6260  0.3737  2.3555
 3217TIP3    H231287   0.111   5.385   2.626 -1.7458  0.0142  0.3283
 3218TIP3   OH231288   6.135   6.445   3.149  0.4308  0.6178 -0.3598
 3218TIP3    H131289   6.106   6.531   3.119 -1.6594 -0.3855 -1.4328
 3218TIP3    H231290   6.194   6.414   3.081  0.3092  0.7462 -0.5222
 3219TIP3   OH231291   1.681   4.166   2.095  0.4849  0.5026 -0.4179
 3219TIP3    H131292   1.738   4.105   2.049 -2.0164 -3.5517  1.3014
 3219TIP3    H231293   1.615   4.191   2.031  0.7079  0.1952 -0.7697
 3220TIP3   OH231294   3.523   4.556   1.941  0.6784 -0.0013 -0.8827
 3220TIP3    H131295   3.562   4.552   2.028 -0.1852 -0.5527 -0.5009
 3220TIP3    H231296   3.519   4.464   1.913  2.9461  0.2943 -2.4527
 3221TIP3   OH231297   1.718   5.991   3.283 -0.5542  0.1642  0.0835
 3221TIP3    H131298   1.766   5.996   3.201  2.6298  0.4849  1.7972
 3221TIP3    H231299   1.684   6.080   3.298  2.5357  1.2986  1.0327
 3222TIP3   OH231300   6.436   1.303   4.772  0.1614 -0.3197 -0.3959
 3222TIP3    H131301   6.490   1.234   4.732  0.4774 -0.7873  0.7681
 3222TIP3    H231302   6.494   1.344   4.836  0.5436  2.2523 -2.2632
 3223TIP3   OH231303   2.713   3.445   4.197  0.1034 -0.1344 -0.2662
 3223TIP3    H131304   2.788   3.385   4.199  0.0377 -0.2211 -0.3736
 3223TIP3    H231305   2.724   3.495   4.116  0.2431  0.1093 -0.0975
 3224TIP3   OH231306   5.326   1.837   2.192  0.0449 -0.0942 -0.2996
 3224TIP3    H131307   5.390   1.805   2.256  1.0192 -0.3910 -1.3832
 3224TIP3    H231308   5.278   1.759   2.165  0.3343 -0.1390 -0.6858
 3225TIP3   OH231309   1.922   6.310   1.010 -0.3031  0.4621  0.2693
 3225TIP3    H131310   1.882   6.223   1.008  0.1638  0.2197 -2.3031
 3225TIP3    H231311   2.014   6.293   1.032 -0.0565  0.1918 -0.9039
 3226TIP3   OH231312   5.224   3.095   2.993 -0.2953 -0.0097  0.1910
 3226TIP3    H131313   5.268   3.056   2.917  0.6822  0.5297  0.4596
 3226TIP3    H231314   5.296   3.123   3.050 -1.0036 -1.3586  1.8332
 3227TIP3   OH231315   1.799   1.745   0.338  0.0288 -0.7390  0.1486
 3227TIP3    H131316   1.736   1.780   0.275  1.4383 -2.0998 -2.1988
 3227TIP3    H231317   1.848   1.679   0.288  1.8323 -1.2980  2.4683
 3228TIP3   OH231318   6.695   4.729   2.599  0.0532 -0.1524  0.0760
 3228TIP3    H131319   6.628   4.665   2.624 -1.1735  1.2572  0.5071
 3228TIP3    H231320   6.778   4.687   2.624 -0.7625 -1.2122  1.1343
 3229TIP3   OH231321   2.472   4.231   2.435  0.3458 -0.3172 -0.6230
 3229TIP3    H131322   2.563   4.242   2.409  0.4827 -0.8341 -0.3698
 3229TIP3    H231323   2.465   4.276   2.519  0.2379  0.1703 -0.8902
 3230TIP3   OH231324   0.681   5.099   1.078 -0.0422  0.1840  0.3759
 3230TIP3    H131325   0.644   5.188   1.078 -0.7359 -0.0994  0.1891
 3230TIP3    H231326   0.749   5.101   1.145 -0.4735  0.6861  0.8081
 3231TIP3   OH231327   2.687   5.553   1.014  0.2420  0.2459 -0.5499
 3231TIP3    H131328   2.713   5.488   0.950 -1.7998 -0.5714 -0.6230
 3231TIP3    H231329   2.683   5.635   0.965 -1.5200 -0.4040 -1.5886
 3232TIP3   OH231330   4.910   2.247   3.651  1.2722  0.1376  0.9126
 3232TIP3    H131331   4.857   2.229   3.728 -0.5656 -1.6672 -0.6314
 3232TIP3    H231332   4.857   2.305   3.597  0.7439 -1.6662 -0.6493
 3233TIP3   OH231333   3.732   0.548   0.656 -0.0903 -0.3849  0.0448
 3233TIP3    H131334   3.650   0.523   0.614  0.2811 -0.9447 -0.3819
 3233TIP3    H231335   3.792   0.476   0.634  0.9992  0.8006 -1.1012
 3234TIP3   OH231336   1.472   2.534   3.517  0.0717 -0.3403 -0.2241
 3234TIP3    H131337   1.485   2.585   3.598  2.4388 -1.4602  0.1885
 3234TIP3    H231338   1.560   2.527   3.479 -0.8716 -0.5458 -2.4964
 3235TIP3   OH231339   5.839   6.565   2.288  0.4915  0.4058 -0.0456
 3235TIP3    H131340   5.754   6.590   2.251  0.8627  2.0059  0.1213
 3235TIP3    H231341   5.818   6.514   2.366 -0.2982 -0.5270 -0.8400
 3236TIP3   OH231342   1.012   6.256   3.621 -0.4472 -0.1476 -0.2953
 3236TIP3    H131343   1.043   6.340   3.590 -0.4916  0.7079  1.8418
 3236TIP3    H231344   1.065   6.237   3.699 -0.5148 -2.0428 -0.6628
 3237TIP3   OH231345   4.909   3.718   4.505  0.3022 -0.4422  0.6156
 3237TIP3    H131346   4.858   3.660   4.563  0.4657 -0.4184  0.7864
 3237TIP3    H231347   4.981   3.748   4.560  0.7136 -0.7759  0.2633
 3238TIP3   OH231348   4.317   6.440   4.065 -0.0424 -0.1887  0.1046
 3238TIP3    H131349   4.263   6.459   3.988 -1.1950  1.3373  1.2225
 3238TIP3    H231350   4.256   6.401   4.128  0.5847 -0.2181  0.7082
 3239TIP3   OH231351   1.900   3.948   1.953 -0.1119  0.3070 -0.0539
 3239TIP3    H131352   1.851   3.990   1.881 -2.0514  1.3446  1.7613
 3239TIP3    H231353   1.885   3.854   1.940 -1.5884  0.5384 -0.2824
 3240TIP3   OH231354   1.593   1.870   1.693  0.4235 -0.2262 -0.2589
 3240TIP3    H131355   1.522   1.805   1.699  0.6442 -0.4291  0.2336
 3240TIP3    H231356   1.577   1.929   1.767  0.8797 -0.3895 -0.0274
 3241TIP3   OH231357   3.113   4.258   1.939  0.0014 -0.0668 -0.4348
 3241TIP3    H131358   3.191   4.294   1.982 -1.2247  2.3183 -0.0308
 3241TIP3    H231359   3.080   4.192   2.000  1.2700 -0.6151 -0.2980
 3242TIP3   OH231360   6.472   3.059   2.248  0.0626 -0.0717 -0.3884
 3242TIP3    H131361   6.455   3.003   2.325  1.2731 -0.2193 -0.2135
 3242TIP3    H231362   6.565   3.080   2.254  0.8037 -2.0025 -3.0710
 3243TIP3   OH231363   0.828   4.211   1.479 -0.4770  0.4305 -0.2818
 3243TIP3    H131364   0.900   4.182   1.422  1.5476  0.0749  2.2802
 3243TIP3    H231365   0.868   4.275   1.537 -1.3112 -2.0021  3.3141
 3244TIP3   OH231366   4.662   3.643   1.776  0.1907 -0.2172  0.5717
 3244TIP3    H131367   4.710   3.560   1.770  1.0324  0.2664  0.4471
 3244TIP3    H231368   4.688   3.691   1.698 -1.1627 -0.2754  0.0720
 3245TIP3   OH231369   4.355   5.212   4.373  0.0853  0.7401  0.1013
 3245TIP3    H131370   4.281   5.267   4.348 -0.3305  0.4293  0.6307
 3245TIP3    H231371   4.400   5.261   4.442 -1.2779 -0.3088  1.8100
 3246TIP3   OH231372   5.820   5.854   2.852  0.8898  0.1183  0.6725
 3246TIP3    H131373   5.813   5.867   2.757 -0.0288 -0.3222  0.6733
 3246TIP3    H231374   5.745   5.799   2.874  1.3449 -0.1489  1.5896
 3247TIP3   OH231375   2.550   5.902   2.756 -0.0992  0.0185  0.6371
 3247TIP3    H131376   2.579   5.917   2.847  0.9289  1.8159  0.0745
 3247TIP3    H231377   2.492   5.976   2.738  1.7609  1.1716 -0.9576
 3248TIP3   OH231378   0.474   5.292   1.554 -0.4391 -0.5039 -0.0900
 3248TIP3    H131379   0.545   5.305   1.491 -0.1121 -0.1723  0.3412
 3248TIP3    H231380   0.446   5.201   1.540 -0.5936 -0.3305 -0.9358
 3249TIP3   OH231381   3.653   0.294   0.540 -0.0888 -0.0526 -0.3881
 3249TIP3    H131382   3.715   0.273   0.471 -1.4460 -1.1387 -1.3317
 3249TIP3    H231383   3.636   0.388   0.531  0.2576 -0.0574 -1.1030
 3250TIP3   OH231384   6.166   3.816   2.991 -0.5884 -0.2342  0.5283
 3250TIP3    H131385   6.258   3.815   2.964 -1.3317 -0.8714 -2.3520
 3250TIP3    H231386   6.166   3.782   3.080  1.8985 -0.9332  0.3170
 3251TIP3   OH231387   6.039   3.574   2.799  0.1227  1.0782  0.1147
 3251TIP3    H131388   6.104   3.621   2.747 -0.3843 -0.3074 -1.8726
 3251TIP3    H231389   5.960   3.627   2.791 -0.2687  0.3104 -1.5700
 3252TIP3   OH231390   2.192   1.127   0.683  0.1663  0.5707 -0.0292
 3252TIP3    H131391   2.104   1.131   0.719 -0.4621  0.4698 -1.4951
 3252TIP3    H231392   2.180   1.107   0.591  1.7941 -1.0812  0.0472
 3253TIP3   OH231393   2.029   2.780   1.434  0.1187 -0.1997 -0.9999
 3253TIP3    H131394   2.110   2.795   1.385  1.5403  1.1082  1.5350
 3253TIP3    H231395   2.058   2.738   1.515 -1.7455  0.1127 -0.1217
 3254TIP3   OH231396   1.765   0.200   8.487  0.3718  0.1582  0.6240
 3254TIP3    H131397   1.760   0.105   8.476 -1.1160  0.3443 -0.5660
 3254TIP3    H231398   1.684   0.224   8.531  1.0367  0.8171  1.5203
 3255TIP3   OH231399   6.803   6.796   1.580 -0.1648  0.1275  0.2046
 3255TIP3    H131400   6.799   6.890   1.564  1.1671  0.5750  2.1846
 3255TIP3    H231401   6.726   6.778   1.635  0.1339  0.2590  0.6697
 3256TIP3   OH231402   5.340   2.428   1.109 -0.1189 -0.2038 -0.0799
 3256TIP3    H131403   5.386   2.479   1.175  0.3202 -1.5576  0.6980
 3256TIP3    H231404   5.285   2.491   1.063  0.2412  0.9145  0.9903
 3257TIP3   OH231405   4.128   4.254   1.154 -0.1947 -0.6369  0.1276
 3257TIP3    H131406   4.039   4.223   1.175  0.5109 -1.6072  1.9107
 3257TIP3    H231407   4.121   4.350   1.156 -1.2349 -0.6991  0.0949
 3258TIP3   OH231408   0.160   0.746   1.664  0.3765  0.3544  0.2287
 3258TIP3    H131409   0.125   0.680   1.724  1.5257  0.1317  0.6794
 3258TIP3    H231410   0.253   0.727   1.659  0.9076  2.4827  1.0730
 3259TIP3   OH231411   6.725   4.971   1.772  0.1267  0.2789  0.4636
 3259TIP3    H131412   6.683   4.928   1.847  1.2894 -0.9175  0.4641
 3259TIP3    H231413   6.665   5.043   1.749 -0.2339  0.7018  2.5456
 3260TIP3   OH231414   3.683   2.868   0.855 -0.0806 -0.0973 -0.6205
 3260TIP3    H131415   3.597   2.905   0.876  0.2783  0.9732 -0.9486
 3260TIP3    H231416   3.719   2.841   0.939  0.5250  2.3334 -0.0020
 3261TIP3   OH231417   1.048   4.194   4.601 -0.6291 -0.5848 -0.6095
 3261TIP3    H131418   1.075   4.286   4.608  1.4531 -1.1707 -0.1998
 3261TIP3    H231419   0.996   4.190   4.521  0.3852  0.7075 -1.3738
 3262TIP3   OH231420   0.602   1.226   3.654  0.0699  0.0277  0.3516
 3262TIP3    H131421   0.621   1.318   3.636 -1.2841  0.1746 -0.4075
 3262TIP3    H231422   0.688   1.188   3.674  0.4328  1.8301  2.5736
 3263TIP3   OH231423   1.427   2.036   0.895 -0.1877  0.3334 -0.2982
 3263TIP3    H131424   1.452   2.006   0.983  2.1419  0.0712 -0.9884
 3263TIP3    H231425   1.460   2.126   0.890  1.3702 -0.2629 -1.4904
 3264TIP3   OH231426   1.658   1.689   4.710  0.2542 -0.1058 -0.4325
 3264TIP3    H131427   1.703   1.666   4.791 -0.2996  0.8687  0.1792
 3264TIP3    H231428   1.679   1.619   4.649  0.3854 -1.0414  0.6672
 3265TIP3   OH231429   1.761   3.247   3.354 -0.4205  0.0026 -0.3736
 3265TIP3    H131430   1.815   3.208   3.423 -1.5473 -1.1957 -0.1281
 3265TIP3    H231431   1.673   3.213   3.370 -0.4887 -1.4104 -3.1588
 3266TIP3   OH231432   1.470   0.267   8.316  0.2869 -0.0304  0.0013
 3266TIP3    H131433   1.510   0.286   8.401 -0.3495  2.3267 -0.1654
 3266TIP3    H231434   1.531   0.301   8.252 -0.4696  0.6620 -0.3679
 3267TIP3   OH231435   5.990   3.465   2.384  0.4249  0.5776 -0.1808
 3267TIP3    H131436   5.962   3.503   2.301  0.8385  1.8999  0.2540
 3267TIP3    H231437   5.967   3.531   2.449 -0.3590 -0.6595  0.8342
 3268TIP3   OH231438   5.025   6.732   2.657  0.5181 -0.0806  0.0853
 3268TIP3    H131439   4.992   6.667   2.718  4.0493 -0.1273  2.2435
 3268TIP3    H231440   5.057   6.682   2.582  1.0478 -0.6444  0.6739
 3269TIP3   OH231441   3.933   3.746   3.991 -0.3586 -0.1778 -0.3103
 3269TIP3    H131442   3.855   3.712   3.948  0.5437 -1.6240 -0.9023
 3269TIP3    H231443   3.903   3.823   4.039 -1.6112  1.0413 -2.8314
 3270TIP3   OH231444   3.288   0.833   2.953  1.0259  0.0775  0.2500
 3270TIP3    H131445   3.334   0.776   2.891  1.5321 -0.4446  1.0934
 3270TIP3    H231446   3.355   0.893   2.985  0.6079  0.8196 -0.2335
 3271TIP3   OH231447   3.346   4.802   4.914 -0.2767  0.7580  0.0923
 3271TIP3    H131448   3.267   4.850   4.938 -0.9567 -1.4531  2.7187
 3271TIP3    H231449   3.316   4.738   4.849  0.0636  1.9698 -1.3008
 3272TIP3   OH231450   0.439   6.705   3.224  0.1148 -0.1474 -0.3617
 3272TIP3    H131451   0.368   6.681   3.284  0.2197  0.9564  0.2397
 3272TIP3    H231452   0.506   6.638   3.239 -0.3576 -0.5842 -0.1541
 3273TIP3   OH231453   6.663   5.431   2.404 -0.1509  0.1606  0.1603
 3273TIP3    H131454   6.631   5.408   2.492 -0.3430 -0.4142 -0.0532
 3273TIP3    H231455   6.583   5.443   2.353 -0.0780  1.9236  0.3982
 3274TIP3   OH231456   2.617   0.738   1.246  0.4848 -0.0770 -0.1170
 3274TIP3    H131457   2.593   0.681   1.172  1.9489 -0.1963 -0.5468
 3274TIP3    H231458   2.699   0.779   1.218  1.3257 -0.4716  1.6289
 3275TIP3   OH231459   5.876   6.801   3.852 -0.3264  0.0561 -0.4737
 3275TIP3    H131460   5.914   6.777   3.768  0.2086 -1.2091  0.0970
 3275TIP3    H231461   5.853   6.717   3.893 -0.9831  0.6606  0.4582
 3276TIP3   OH231462   1.580   2.317   2.452  0.3143 -0.1379 -0.0431
 3276TIP3    H131463   1.489   2.346   2.457  0.4928  0.6348 -0.9717
 3276TIP3    H231464   1.627   2.369   2.517  0.4993  1.1974 -1.1930
 3277TIP3   OH231465   4.188   4.573   5.230  0.0275 -0.1716 -0.1837
 3277TIP3    H131466   4.158   4.546   5.144  1.0600  0.3686 -0.7292
 3277TIP3    H231467   4.202   4.491   5.278  0.5312 -0.5231 -0.9087
 3278TIP3   OH231468   2.754   5.011   1.946 -0.2876  0.7435 -0.3290
 3278TIP3    H131469   2.830   4.953   1.941 -0.9491 -0.1655 -0.1040
 3278TIP3    H231470   2.702   4.989   1.869 -1.1005  0.2135  0.3534
 3279TIP3   OH231471   1.977   0.105   1.702 -0.1066 -0.6177  0.4213
 3279TIP3    H131472   1.934   0.033   1.654  0.0335 -0.3038 -0.1741
 3279TIP3    H231473   2.013   0.161   1.634 -1.0555  0.5504  0.8390
 3280TIP3   OH231474   4.312   4.513   2.262 -0.1577  0.0688  0.5506
 3280TIP3    H131475   4.377   4.567   2.307 -0.4822  1.0165 -0.0929
 3280TIP3    H231476   4.327   4.529   2.169 -0.9745 -0.0885  0.3800
 3281TIP3   OH231477   1.495   0.955   2.391  1.2822  0.5763  0.0245
 3281TIP3    H131478   1.437   0.887   2.357  0.2424  1.2037  0.4732
 3281TIP3    H231479   1.577   0.909   2.412  0.4799 -0.6157  0.6870
 3282TIP3   OH231480   6.216   5.129   1.365 -0.3694 -0.1033 -0.0328
 3282TIP3    H131481   6.128   5.116   1.400 -0.4565  0.5035 -0.0090
 3282TIP3    H231482   6.208   5.205   1.307  0.4205  0.8804  1.0788
 3283TIP3   OH231483   5.247   2.543   1.819 -0.4285  0.1248  0.0003
 3283TIP3    H131484   5.180   2.479   1.842 -0.2263 -0.2267 -0.3938
 3283TIP3    H231485   5.229   2.617   1.878 -0.8706 -0.1498  0.2218
 3284TIP3   OH231486   1.148   0.574   0.587  0.3901  0.0739  0.3055
 3284TIP3    H131487   1.169   0.595   0.678 -0.4813  1.2545  0.2650
 3284TIP3    H231488   1.078   0.636   0.565  0.0156 -0.7630 -0.9052
 3285TIP3   OH231489   3.847   2.607   2.769  0.0041  0.0676  0.7433
 3285TIP3    H131490   3.846   2.516   2.797 -1.4464 -0.2816 -0.3376
 3285TIP3    H231491   3.924   2.645   2.812  0.9335 -1.7791  0.7907
 3286TIP3   OH231492   4.017   6.709   8.708 -0.0136  0.4420 -0.2065
 3286TIP3    H131493   4.089   6.660   8.749  0.1558  1.8037  1.2366
 3286TIP3    H231494   3.959   6.642   8.674  0.8798 -0.7400  0.5083
 3287TIP3   OH231495   5.149   3.668   1.190  0.0201  0.1317  0.4223
 3287TIP3    H131496   5.062   3.630   1.175  0.0006  0.5829 -0.7055
 3287TIP3    H231497   5.142   3.712   1.274 -2.4712  4.4996 -1.7008
 3288TIP3   OH231498   0.880   2.124   0.950 -0.5363 -0.3327  0.1417
 3288TIP3    H131499   0.848   2.037   0.974  2.9786 -1.6698  0.5644
 3288TIP3    H231500   0.848   2.138   0.861 -0.5432 -2.4347 -0.2231
 3289TIP3   OH231501   6.591   1.203   4.485  0.0607 -0.2785 -0.3514
 3289TIP3    H131502   6.629   1.291   4.490  0.6995 -0.3972 -2.2149
 3289TIP3    H231503   6.647   1.149   4.541  2.6806 -0.3999 -2.8403
 3290TIP3   OH231504   4.691   1.310   1.171  0.5012  0.1592 -0.3242
 3290TIP3    H131505   4.626   1.371   1.204 -0.9620 -1.5822  0.1918
 3290TIP3    H231506   4.652   1.273   1.091  2.2437  1.3193 -1.8165
 3291TIP3   OH231507   2.584   5.928   3.073  0.0105 -0.2543  0.0031
 3291TIP3    H131508   2.553   6.019   3.073  2.1833  0.5608 -0.3895
 3291TIP3    H231509   2.505   5.875   3.064 -1.4023  1.5581  1.0443
 3292TIP3   OH231510   5.186   2.577   2.373  0.0810 -0.4824  0.0521
 3292TIP3    H131511   5.208   2.493   2.414  1.4020 -0.9873 -1.5969
 3292TIP3    H231512   5.265   2.603   2.327 -1.0467  0.4999 -1.4132
 3293TIP3   OH231513   6.003   5.031   0.562 -0.2358 -0.0725 -0.1539
 3293TIP3    H131514   6.048   5.114   0.548 -0.1825 -0.1185 -0.2566
 3293TIP3    H231515   6.061   4.981   0.619 -0.8834  0.4758  1.0179
 3294TIP3   OH231516   2.237   1.679   1.678  0.4752 -0.3313 -0.0157
 3294TIP3    H131517   2.304   1.625   1.637  0.3502 -1.4484  1.1585
 3294TIP3    H231518   2.255   1.672   1.772 -0.5457  0.3556  0.2548
 3295TIP3   OH231519   3.947   2.264   2.466  0.1121 -0.1782  0.0533
 3295TIP3    H131520   3.987   2.329   2.408  1.3776 -1.3646 -0.4684
 3295TIP3    H231521   3.992   2.276   2.550  2.6581 -2.3513 -0.8682
 3296TIP3   OH231522   3.013   5.225   4.021 -0.7259 -0.3899  0.4073
 3296TIP3    H131523   3.013   5.318   3.997  1.2425 -0.0877  1.3521
 3296TIP3    H231524   3.026   5.226   4.116  1.8412 -1.6300  0.1278
 3297TIP3   OH231525   4.386   4.894   1.348 -0.0499  0.0776  0.3859
 3297TIP3    H131526   4.361   4.957   1.281 -2.2358  0.2074  1.2564
 3297TIP3    H231527   4.417   4.818   1.299  1.2435  1.2409 -0.6919
 3298TIP3   OH231528   0.591   6.680   1.732 -0.1968 -0.2134 -0.1504
 3298TIP3    H131529   0.589   6.585   1.737  0.5968 -0.1893  0.9115
 3298TIP3    H231530   0.550   6.709   1.813  0.3408  0.3382 -0.0688
 3299TIP3   OH231531   4.506   1.928   0.772  0.1385  0.4070  0.2505
 3299TIP3    H131532   4.557   1.997   0.730  0.3212 -1.0386 -2.0595
 3299TIP3    H231533   4.439   1.975   0.821  2.1369  2.2781  1.3793
 3300TIP3   OH231534   1.522   1.511   3.768  0.6104 -0.1157 -0.0732
 3300TIP3    H131535   1.479   1.536   3.687  1.7774  2.2332 -0.0516
 3300TIP3    H231536   1.524   1.415   3.766 -0.6169 -0.1453 -2.1308
 3301TIP3   OH231537   1.077   2.109   2.732  0.1648 -0.1926 -0.8617
 3301TIP3    H131538   1.008   2.046   2.713 -3.1391  2.4194  1.3490
 3301TIP3    H231539   1.082   2.111   2.828  1.0487  1.9240 -0.9076
 3302TIP3   OH231540   0.434   1.251   3.438  0.8124  0.1284 -0.0222
 3302TIP3    H131541   0.483   1.311   3.382  1.5398  0.9189  1.4101
 3302TIP3    H231542   0.490   1.239   3.515 -0.0454 -1.1156  0.4322
 3303TIP3   OH231543   5.459   2.780   0.828 -0.5779  0.3223 -0.1792
 3303TIP3    H131544   5.490   2.695   0.798 -1.4542  0.0297 -0.2725
 3303TIP3    H231545   5.498   2.790   0.915 -1.1414 -0.5534  0.1839
 3304TIP3   OH231546   2.219   1.129   2.778 -0.1990 -0.5015  0.1051
 3304TIP3    H131547   2.279   1.135   2.852 -0.8314 -1.7898  0.7716
 3304TIP3    H231548   2.210   1.219   2.746  0.6915 -0.0378  1.1009
 3305TIP3   OH231549   2.509   1.365   2.395  0.3207 -0.0380  0.4923
 3305TIP3    H131550   2.538   1.397   2.309  0.8184  0.1179  0.7118
 3305TIP3    H231551   2.590   1.359   2.446  0.5148 -2.9879  0.0423
 3306TIP3   OH231552   1.994   2.770   1.812  0.0805  0.4049  0.1909
 3306TIP3    H131553   1.933   2.706   1.850  1.2642 -0.8563  0.0852
 3306TIP3    H231554   1.943   2.850   1.802 -0.9680  0.0394  2.0843
 3307TIP3   OH231555   2.297   2.842   2.746  0.4619  0.2494  0.3630
 3307TIP3    H131556   2.279   2.845   2.652  0.3342 -0.4595  0.3602
 3307TIP3    H231557   2.268   2.927   2.779  1.6572  1.0041 -0.4375
 3308TIP3   OH231558   6.020   1.665   0.666 -0.2638  0.1213  0.2231
 3308TIP3    H131559   5.947   1.696   0.719 -0.5020 -0.5459  0.2926
 3308TIP3    H231560   5.994   1.682   0.575 -1.6135 -2.3430  0.0770
 3309TIP3   OH231561   0.224   1.608   0.021 -0.4490  0.1929  0.2407
 3309TIP3    H131562   0.164   1.548   0.066  1.4130 -3.7079 -1.9967
 3309TIP3    H231563   0.176   1.634  -0.057 -0.4031 -0.3527  0.0259
 3310TIP3   OH231564   2.184   0.123   1.447 -0.1092 -0.3360  0.2063
 3310TIP3    H131565   2.172   0.214   1.473 -0.1862 -0.4299  0.5012
 3310TIP3    H231566   2.218   0.080   1.526 -4.6814 -1.6555  1.7498
 3311TIP3   OH231567   4.892   5.350   3.707 -0.0633  0.5484 -0.2667
 3311TIP3    H131568   4.959   5.297   3.665  0.1098 -0.2586  0.9716
 3311TIP3    H231569   4.932   5.437   3.717  0.1552  0.5430 -1.0868
 3312TIP3   OH231570   6.313   6.550   0.803  0.0112 -0.3460 -0.2056
 3312TIP3    H131571   6.320   6.621   0.866  1.8397 -0.8547  0.2237
 3312TIP3    H231572   6.288   6.474   0.856  1.8400 -0.8401  0.0096
 3313TIP3   OH231573   4.196   0.466   3.936  0.1451 -0.3316  0.1497
 3313TIP3    H131574   4.201   0.534   3.869  1.6635 -1.1941 -0.6703
 3313TIP3    H231575   4.253   0.397   3.904  0.1542 -1.1864  1.8925
 3314TIP3   OH231576   3.266   2.464   1.577 -0.1776 -0.2803  0.5559
 3314TIP3    H131577   3.329   2.419   1.520  0.5688  1.0865  0.2661
 3314TIP3    H231578   3.221   2.525   1.519  0.8481  1.4013  1.4600
 3315TIP3   OH231579   6.797   3.344   8.766 -0.0831  0.2818  0.9389
 3315TIP3    H131580   6.766   3.258   8.738 -3.4707  1.1028  1.6818
 3315TIP3    H231581   6.717   3.394   8.785  1.6723  3.8257 -0.0178
 3316TIP3   OH231582   2.724   0.756   2.327 -0.3905  0.1019 -0.2483
 3316TIP3    H131583   2.800   0.697   2.321  0.0495  0.7499 -1.3028
 3316TIP3    H231584   2.672   0.735   2.250 -0.4464  0.7887 -0.4025
 3317TIP3   OH231585   2.159   5.918   2.791  0.5897  0.1277 -0.1904
 3317TIP3    H131586   2.195   5.863   2.861  0.9756  0.5818 -0.0212
 3317TIP3    H231587   2.203   5.888   2.712 -1.3520 -1.8076 -0.6415
 3318TIP3   OH231588   2.931   3.569   2.854  0.9307  0.2521 -0.1737
 3318TIP3    H131589   2.967   3.611   2.932  0.7133 -0.0248  0.0759
 3318TIP3    H231590   2.919   3.478   2.879 -1.3481  0.6169  0.2480
 3319TIP3   OH231591   2.423   6.028   1.185 -0.6417  0.2522  0.2732
 3319TIP3    H131592   2.460   6.083   1.255  0.2760  0.6260 -0.4906
 3319TIP3    H231593   2.473   6.051   1.107 -1.1065 -0.7516 -0.3413
 3320TIP3   OH231594   2.591   1.821   3.403 -0.1686  0.4428 -0.2604
 3320TIP3    H131595   2.582   1.785   3.315 -1.9205 -2.0335  0.7827
 3320TIP3    H231596   2.550   1.754   3.459 -2.4239  3.5097  2.0857
 3321TIP3   OH231597   2.287   0.210   2.120  0.1049 -0.1477 -0.6533
 3321TIP3    H131598   2.251   0.121   2.120 -0.3204  0.0195 -1.0417
 3321TIP3    H231599   2.210   0.267   2.117  0.3814  0.2062 -2.4102
 3322TIP3   OH231600   5.387   1.880   2.813 -0.9935 -0.4822  0.1452
 3322TIP3    H131601   5.357   1.816   2.878 -1.9979 -0.9081 -0.7220
 3322TIP3    H231602   5.384   1.833   2.730 -1.1130  0.4975 -0.4164
 3323TIP3   OH231603   0.746   1.874   2.549 -0.0624 -0.1313 -0.4372
 3323TIP3    H131604   0.823   1.882   2.493  1.0520  0.2329  1.0699
 3323TIP3    H231605   0.774   1.815   2.619 -1.1936 -0.0612  0.0857
 3324TIP3   OH231606   3.988   1.540   0.536  0.0861 -0.0346  0.2841
 3324TIP3    H131607   3.944   1.456   0.552 -0.6543  0.6262  1.8411
 3324TIP3    H231608   3.950   1.600   0.599  2.0221  1.0055  0.5376
 3325TIP3   OH231609   6.352   2.373   3.823  0.0066  0.2424  0.3081
 3325TIP3    H131610   6.387   2.426   3.751 -0.1600 -2.8022 -2.2099
 3325TIP3    H231611   6.265   2.346   3.792 -0.8156  0.2075  2.4654
 3326TIP3   OH231612   4.900   1.003   3.014  0.1450 -0.4601 -0.0334
 3326TIP3    H131613   4.888   0.983   2.921 -1.8607  0.6434 -0.0628
 3326TIP3    H231614   4.840   0.943   3.059 -1.4232  1.2331  0.2683
 3327TIP3   OH231615   1.235   5.877   3.703  0.0114 -0.1677 -0.0048
 3327TIP3    H131616   1.261   5.919   3.621 -2.1447 -0.9683 -1.1879
 3327TIP3    H231617   1.214   5.787   3.678  0.1967 -0.7005  1.6285
 3328TIP3   OH231618   4.255   2.886   3.334  0.8567 -0.3290  0.1050
 3328TIP3    H131619   4.232   2.910   3.423 -0.4943 -0.2431 -0.2479
 3328TIP3    H231620   4.301   2.802   3.343 -0.5799 -1.0878  0.7881
 3329TIP3   OH231621   0.849   3.449   1.548  0.2193 -0.0419 -0.3134
 3329TIP3    H131622   0.853   3.476   1.639  0.7010 -3.0020  0.6572
 3329TIP3    H231623   0.921   3.496   1.505  0.8609  0.3435  1.1403
 3330TIP3   OH231624   4.756   1.896   3.548 -0.4192 -0.4743 -0.3875
 3330TIP3    H131625   4.747   1.929   3.638  3.4535 -2.4604  1.0017
 3330TIP3    H231626   4.798   1.967   3.500  0.3212 -0.4624  0.2655
 3331TIP3   OH231627   2.883   2.605   2.409 -0.1134  0.6309 -0.0554
 3331TIP3    H131628   2.964   2.604   2.461  1.1232 -0.3058 -1.8546
 3331TIP3    H231629   2.879   2.517   2.371  0.8908  2.0660 -4.0759
 3332TIP3   OH231630   6.280   5.231   1.855  0.6349 -0.3344  0.4330
 3332TIP3    H131631   6.253   5.302   1.797  0.0116 -1.4848 -0.7333
 3332TIP3    H231632   6.266   5.266   1.943  0.7092  1.1157 -0.0972
 3333TIP3   OH231633   1.373   0.906   0.805 -0.3532 -0.2731 -0.4078
 3333TIP3    H131634   1.372   0.865   0.719 -0.1369 -1.8583  0.3103
 3333TIP3    H231635   1.280   0.917   0.827 -0.4563  2.5265 -1.8760
 3334TIP3   OH231636   4.541   0.471   0.960 -0.2964 -0.2969 -0.2051
 3334TIP3    H131637   4.599   0.456   1.035 -1.6347 -0.3319  0.8631
 3334TIP3    H231638   4.474   0.530   0.993 -0.8305 -0.1974 -1.4281
 3335TIP3   OH231639   2.213   2.524   2.640  0.0764 -0.3618 -0.2310
 3335TIP3    H131640   2.162   2.526   2.560 -0.7128 -0.9224  0.2440
 3335TIP3    H231641   2.253   2.437   2.642  0.1327 -0.3335 -0.0433
 3336TIP3   OH231642   1.720   0.065   0.099  0.5137  0.0630  0.2965
 3336TIP3    H131643   1.674   0.104   0.025  0.1962  0.1469  0.5354
 3336TIP3    H231644   1.652   0.017   0.146  0.7270 -0.0382  0.5005
 3337TIP3   OH231645   4.258   0.820   0.488  0.4050 -0.2384 -0.1771
 3337TIP3    H131646   4.320   0.861   0.428  1.2061 -0.3258  0.5591
 3337TIP3    H231647   4.284   0.728   0.492  0.2718 -0.2659  0.1803
 3338TIP3   OH231648   1.735   1.039   2.649  0.2469 -0.4075  0.0888
 3338TIP3    H131649   1.651   0.996   2.668 -0.7206  0.0812 -2.6535
 3338TIP3    H231650   1.755   1.014   2.559  1.8383  1.3996 -0.1088
 3339TIP3   OH231651   2.492   1.621   2.214  0.0212  0.0091  0.0754
 3339TIP3    H131652   2.405   1.658   2.201  0.2792  0.7080  0.3257
 3339TIP3    H231653   2.531   1.673   2.284  0.3618 -0.7907  0.4997
 3340TIP3   OH231654   1.443   6.246   1.755 -0.1902 -0.5679 -0.0802
 3340TIP3    H131655   1.533   6.273   1.740 -0.3710  0.3470  0.3864
 3340TIP3    H231656   1.391   6.302   1.697 -0.6531  0.8663  1.6225
 3341TIP3   OH231657   4.230   3.647   2.900 -0.1979  0.2987 -0.5774
 3341TIP3    H131658   4.191   3.565   2.871  1.8782 -0.6117 -1.0045
 3341TIP3    H231659   4.319   3.645   2.865  0.3561  2.1162  0.5541
 3342TIP3   OH231660   1.057   6.681   0.548  0.0920  0.4214  0.0663
 3342TIP3    H131661   1.023   6.734   0.620  1.4067  1.0107  0.2782
 3342TIP3    H231662   1.128   6.733   0.511  1.2689 -1.0582  0.1170
 3343TIP3   OH231663   0.834   1.398   4.226  0.3715 -0.6927  0.1283
 3343TIP3    H131664   0.803   1.444   4.303  0.5228  0.5500 -0.5294
 3343TIP3    H231665   0.923   1.370   4.250  0.8214  0.5990  0.0616
 3344TIP3   OH231666   5.508   4.758   1.294  0.3276 -0.1159 -0.4802
 3344TIP3    H131667   5.456   4.825   1.250 -0.2136 -0.2490 -0.0543
 3344TIP3    H231668   5.480   4.676   1.254  2.7599  0.0641 -2.7784
 3345TIP3   OH231669   6.767   0.728   0.093  0.3919  0.4447 -0.0270
 3345TIP3    H131670   6.856   0.694   0.083  1.5832  3.7361 -2.4408
 3345TIP3    H231671   6.749   0.773   0.011 -3.0597  0.9882  0.8707
 3346TIP3   OH231672   0.657   4.005   8.619 -0.0963  0.0836 -0.2263
 3346TIP3    H131673   0.584   4.066   8.612  1.1161  1.8027  1.4361
 3346TIP3    H231674   0.725   4.052   8.666  1.7836 -1.7768 -0.8854
 3347TIP3   OH231675   4.329   5.800   1.294 -0.3485  0.2285 -0.1815
 3347TIP3    H131676   4.416   5.813   1.331 -0.6272  0.5340  0.3875
 3347TIP3    H231677   4.269   5.815   1.368 -0.8994  0.4188 -0.6547
 3348TIP3   OH231678   3.461   0.692   1.449  0.1091 -0.9670 -0.4611
 3348TIP3    H131679   3.475   0.669   1.541 -0.8356 -1.4649 -0.4322
 3348TIP3    H231680   3.369   0.716   1.444  0.1827 -0.8396 -1.2609
 3349TIP3   OH231681   4.664   0.031   2.624  0.1177 -0.1723 -0.3015
 3349TIP3    H131682   4.598   0.100   2.631 -0.3395 -0.6479  0.2303
 3349TIP3    H231683   4.706   0.030   2.710 -1.0584 -1.6952  0.3061
 3350TIP3   OH231684   2.383   1.952   2.709  0.2501  0.0073  0.6357
 3350TIP3    H131685   2.429   2.037   2.715  0.5410 -0.1624  0.8415
 3350TIP3    H231686   2.408   1.906   2.789  0.0552 -0.2571  0.5442
 3351TIP3   OH231687   0.707   2.915   4.134 -0.1276 -0.1586 -0.4181
 3351TIP3    H131688   0.733   3.007   4.135  0.3572 -0.2703 -1.6382
 3351TIP3    H231689   0.701   2.891   4.227  0.3972  0.9109 -0.0959
 3352TIP3   OH231690   1.726   0.325   3.702  0.2544 -0.1178  0.1048
 3352TIP3    H131691   1.767   0.339   3.787  0.1058 -0.0776  0.1690
 3352TIP3    H231692   1.800   0.324   3.640  0.6335 -2.7152  0.5072
 3353TIP3   OH231693   1.744   3.996   1.377  0.5086 -0.0407 -0.1866
 3353TIP3    H131694   1.683   4.070   1.381 -0.4918 -0.8848  1.0346
 3353TIP3    H231695   1.717   3.946   1.301 -0.5180 -0.5369  0.4835
 3354TIP3   OH231696   6.074   6.694   1.967  0.2272  0.0461  0.4829
 3354TIP3    H131697   5.980   6.685   1.948  0.3372  1.8039 -1.2700
 3354TIP3    H231698   6.076   6.739   2.052 -0.6367  2.0166 -0.4633
 3355TIP3   OH231699   3.951   4.532   1.670 -0.0282 -0.6651 -0.7389
 3355TIP3    H131700   4.023   4.576   1.624 -0.4603 -0.2391 -1.0204
 3355TIP3    H231701   3.966   4.552   1.763  0.7396 -1.3699 -0.6968
 3356TIP3   OH231702   5.242   0.754   0.678  0.3635 -0.2091  0.2496
 3356TIP3    H131703   5.151   0.730   0.695  0.0929  1.2250  1.0397
 3356TIP3    H231704   5.236   0.841   0.638  1.3623 -0.3002 -0.1103
 3357TIP3   OH231705   5.961   2.683   0.971 -0.1391 -0.1301  0.2664
 3357TIP3    H131706   5.942   2.590   0.962 -4.9205  0.7815 -1.8051
 3357TIP3    H231707   5.984   2.711   0.882 -1.8799  1.1262  0.1710
 3358TIP3   OH231708   2.010   1.865   2.156  0.1013 -0.3719 -0.3720
 3358TIP3    H131709   1.966   1.851   2.072 -1.2748  0.4067  0.1683
 3358TIP3    H231710   2.029   1.958   2.158 -1.4233 -0.0273  0.8313
 3359TIP3   OH231711   0.190   1.353   3.235  0.4857  0.2407 -0.3518
 3359TIP3    H131712   0.246   1.321   3.306  0.2365 -0.5027 -0.4717
 3359TIP3    H231713   0.250   1.394   3.173  0.7794  0.3426 -0.0018
 3360TIP3   OH231714   5.163   6.753   0.212  0.6397 -0.3668  0.0626
 3360TIP3    H131715   5.241   6.795   0.247  0.1662 -0.7299  1.6350
 3360TIP3    H231716   5.092   6.817   0.226  0.2005 -1.0473  1.0464
 3361TIP3   OH231717   6.333   1.136   4.542  0.0923  0.2603 -0.7042
 3361TIP3    H131718   6.419   1.141   4.500  0.0029  0.6607 -0.8464
 3361TIP3    H231719   6.336   1.203   4.611 -0.3747  0.8083 -1.2101
 3362TIP3   OH231720   1.284   5.761   2.794  0.6275  0.4567 -0.1926
 3362TIP3    H131721   1.190   5.768   2.780  0.8816  2.4950 -1.1910
 3362TIP3    H231722   1.321   5.756   2.705  1.4372 -1.1757  0.1925
 3363TIP3   OH231723   4.233   0.985   1.256  0.0459 -0.0770 -0.0908
 3363TIP3    H131724   4.231   0.894   1.286  0.9823 -0.0152  0.1967
 3363TIP3    H231725   4.322   0.997   1.224 -0.5015  0.3059 -1.5571
 3364TIP3   OH231726   6.069   0.878   0.340  0.0218 -0.2134 -0.1351
 3364TIP3    H131727   6.141   0.816   0.342  0.0087 -0.6356 -4.2358
 3364TIP3    H231728   5.990   0.825   0.353  0.2312 -0.2890  0.8893
 3365TIP3   OH231729   1.215   0.193   0.250  0.3935  0.1892  0.2758
 3365TIP3    H131730   1.251   0.197   0.162 -0.1519  1.2612  0.0860
 3365TIP3    H231731   1.133   0.243   0.245 -0.2212 -0.6916  1.1216
 3366TIP3   OH231732   5.126   0.776   2.063 -0.3739  0.2641 -0.1985
 3366TIP3    H131733   5.050   0.751   2.010 -0.5716  2.3512 -1.0190
 3366TIP3    H231734   5.183   0.700   2.060 -2.0390 -1.0452 -0.2944
 3367TIP3   OH231735   2.812   5.768   1.289 -0.0649  0.3823 -0.1706
 3367TIP3    H131736   2.732   5.714   1.289  0.4734 -0.4601  1.0062
 3367TIP3    H231737   2.859   5.741   1.210  0.1816 -0.8846  0.3857
 3368TIP3   OH231738   5.958   1.885   4.269 -0.1764 -0.2033  1.3440
 3368TIP3    H131739   5.970   1.892   4.363 -0.7310  0.1995  1.3935
 3368TIP3    H231740   5.955   1.975   4.238  0.1666 -0.3361  0.9181
 3369TIP3   OH231741   3.152   1.154   3.589 -0.1100 -0.3079 -0.7979
 3369TIP3    H131742   3.237   1.109   3.582 -0.0920 -0.3436 -0.3849
 3369TIP3    H231743   3.171   1.230   3.644  0.2043  1.0770 -2.7356
 3370TIP3   OH231744   2.311   6.512   1.657  0.7376 -0.1760 -0.4227
 3370TIP3    H131745   2.250   6.438   1.646  2.0068 -1.0662 -1.9706
 3370TIP3    H231746   2.317   6.551   1.570  1.7940  0.3745 -0.1214
 3371TIP3   OH231747   4.533   1.292   0.926  0.6534 -0.6292  0.0591
 3371TIP3    H131748   4.444   1.284   0.962 -0.1280 -2.3316 -2.0222
 3371TIP3    H231749   4.521   1.339   0.844  2.1131  1.4722  0.9750
 3372TIP3   OH231750   2.702   0.080   0.726  0.2481 -0.3123  0.3163
 3372TIP3    H131751   2.676   0.169   0.746 -0.8281 -1.3511  4.7160
 3372TIP3    H231752   2.620   0.034   0.706  0.5974 -0.6941 -0.3062
 3373TIP3   OH231753   5.247   4.595   1.359  0.0311 -0.3797 -0.2301
 3373TIP3    H131754   5.298   4.516   1.379 -0.1487 -1.1762 -2.6531
 3373TIP3    H231755   5.159   4.575   1.391  0.1397 -0.9025 -0.2419
 3374TIP3   OH231756   6.105   1.874   0.121  0.0056  0.0785 -0.0911
 3374TIP3    H131757   6.018   1.833   0.121 -0.9575  1.9560  1.3691
 3374TIP3    H231758   6.147   1.840   0.199 -0.2656  0.7570  0.3641
 3375TIP3   OH231759   3.013   6.646   4.628 -0.9824  0.1679  0.7226
 3375TIP3    H131760   3.026   6.553   4.606 -0.8056  0.1603  0.8583
 3375TIP3    H231761   2.926   6.666   4.593 -0.5533  0.2605 -0.3156
 3376TIP3   OH231762   3.994   3.759   3.263  0.2161  0.0030 -0.4348
 3376TIP3    H131763   3.959   3.823   3.201 -1.6467 -1.3608 -0.8679
 3376TIP3    H231764   4.075   3.728   3.221 -0.4808 -0.1632 -1.7279
 3377TIP3   OH231765   2.905   4.957   3.501  0.6968  0.4547  0.3020
 3377TIP3    H131766   2.954   4.891   3.550 -0.1312 -1.2063 -1.0093
 3377TIP3    H231767   2.887   4.916   3.417 -1.6214  1.5909  0.1754
 3378TIP3   OH231768   4.036   5.948   4.172  0.2695  0.2592  0.0172
 3378TIP3    H131769   3.982   5.871   4.186  0.8945 -0.8642 -2.9299
 3378TIP3    H231770   4.006   6.011   4.238 -2.1308 -1.5279  0.7763
 3379TIP3   OH231771   4.627   5.881   2.101  0.0303  0.1468 -0.3724
 3379TIP3    H131772   4.586   5.936   2.034 -1.3161  0.6090  0.7787
 3379TIP3    H231773   4.719   5.877   2.076  0.0077  2.2385 -0.9585
 3380TIP3   OH231774   2.021   3.968   1.333  0.2747 -0.6795 -0.1728
 3380TIP3    H131775   1.931   3.967   1.365  0.7307  0.8260  1.2958
 3380TIP3    H231776   2.013   3.989   1.240 -0.8198  2.1623  0.4849
 3381TIP3   OH231777   3.210   3.341   3.300  0.3999 -0.3568  0.2632
 3381TIP3    H131778   3.240   3.268   3.355  0.8016  0.2325  0.8418
 3381TIP3    H231779   3.124   3.365   3.337  0.9335  0.4290  1.0421
 3382TIP3   OH231780   2.421   3.868   3.049 -0.0684 -0.0914  0.7380
 3382TIP3    H131781   2.476   3.941   3.022 -0.2634  0.3418  1.4655
 3382TIP3    H231782   2.349   3.909   3.097 -0.3099 -0.7456  0.9516
 3383TIP3   OH231783   6.252   6.183   3.140 -0.0966 -0.9163  0.1706
 3383TIP3    H131784   6.296   6.244   3.200 -0.2363  0.2154 -0.8505
 3383TIP3    H231785   6.299   6.193   3.057 -0.7535 -1.4702 -0.2755
 3384TIP3   OH231786   5.342   6.366   2.554 -0.0364  0.6083 -0.2437
 3384TIP3    H131787   5.259   6.361   2.601  0.1481  1.7472  0.2235
 3384TIP3    H231788   5.406   6.329   2.615 -0.1184  0.1667 -0.4206
 3385TIP3   OH231789   2.469   2.094   3.613 -0.5562  0.2033  0.1314
 3385TIP3    H131790   2.518   2.146   3.677 -0.3628  2.1381 -1.4747
 3385TIP3    H231791   2.388   2.143   3.599 -0.6070 -0.1843 -1.0496
 3386TIP3   OH231792   1.388   0.433   4.812  0.0617  0.3227  0.2401
 3386TIP3    H131793   1.329   0.463   4.743  2.4346  0.4965 -1.8873
 3386TIP3    H231794   1.341   0.362   4.855 -0.6140 -1.6298 -3.3493
 3387TIP3   OH231795   0.035   3.139   0.504 -0.2226 -0.3288 -0.1933
 3387TIP3    H131796   0.043   3.182   0.589 -2.6500  0.0705 -0.1121
 3387TIP3    H231797  -0.024   3.065   0.520 -2.0946  0.7258 -1.8180
 3388TIP3   OH231798   6.401   1.402   3.467 -0.5980  0.0163  0.2462
 3388TIP3    H131799   6.453   1.473   3.427  0.1668  0.1304  1.3887
 3388TIP3    H231800   6.347   1.446   3.532 -3.0976  0.0737 -1.7084
 3389TIP3   OH231801   4.912   0.737   1.917 -0.0332  0.7382 -0.4510
 3389TIP3    H131802   4.857   0.702   1.987  1.0486  2.0762  1.1568
 3389TIP3    H231803   4.916   0.667   1.852 -0.7789 -0.7075  0.9895
 3390TIP3   OH231804   4.597   6.276   3.424 -0.8480 -0.1227 -0.1461
 3390TIP3    H131805   4.680   6.268   3.472 -0.3077 -1.5828 -1.2237
 3390TIP3    H231806   4.533   6.301   3.490  0.2899  0.1681  0.8796
 3391TIP3   OH231807   0.473   0.842   0.411  0.8190  0.4372  0.3405
 3391TIP3    H131808   0.425   0.832   0.329  0.2600  0.1633  0.6958
 3391TIP3    H231809   0.560   0.807   0.392  0.3455 -0.7247  0.1788
 3392TIP3   OH231810   6.588   5.268   2.642 -0.0507  0.0262 -0.5840
 3392TIP3    H131811   6.505   5.244   2.683  0.1304 -0.4408 -0.4897
 3392TIP3    H231812   6.633   5.185   2.627  0.7500  0.3290  0.0979
 3393TIP3   OH231813   0.763   1.033   3.372 -0.5395 -0.5621  0.2914
 3393TIP3    H131814   0.844   0.988   3.350  0.1955  0.6968  0.3202
 3393TIP3    H231815   0.715   0.971   3.427  0.7077 -1.0785  0.8402
 3394TIP3   OH231816   4.782   0.869   3.578 -0.4070  0.0193 -0.3803
 3394TIP3    H131817   4.692   0.885   3.608 -0.1420  0.6877  0.0800
 3394TIP3    H231818   4.792   0.924   3.501 -0.0318  0.8288  0.2337
 3395TIP3   OH231819   1.546   6.334   3.650  0.2001  0.2339  0.3462
 3395TIP3    H131820   1.544   6.301   3.739  1.0038  0.6308  0.5214
 3395TIP3    H231821   1.635   6.368   3.638 -0.1134  0.8689 -0.3524
 3396TIP3   OH231822   3.227   2.318   0.621 -0.1372  0.4454  0.3065
 3396TIP3    H131823   3.155   2.357   0.572  1.1915  2.0903 -0.4569
 3396TIP3    H231824   3.248   2.237   0.574 -0.4127  0.8106 -0.4585
 3397TIP3   OH231825   1.229   5.278   2.995 -0.1733 -0.8792  0.0661
 3397TIP3    H131826   1.283   5.356   3.009  0.7979 -0.8462 -3.1654
 3397TIP3    H231827   1.284   5.206   3.025  0.1061 -0.5678  0.3237
 3398TIP3   OH231828   0.300   6.279   8.869 -0.5530  0.0295 -0.2037
 3398TIP3    H131829   0.368   6.340   8.844 -0.2876  0.0553  0.5627
 3398TIP3    H231830   0.237   6.282   8.796  0.1336  0.1771 -0.8060
 3399TIP3   OH231831   3.694   0.026   3.287  0.2569  0.1559  0.2551
 3399TIP3    H131832   3.725   0.101   3.338  0.8223 -0.6611  1.1299
 3399TIP3    H231833   3.758   0.016   3.217 -0.7215  1.5133 -0.8938
 3400TIP3   OH231834   2.658   3.720   2.298  0.2599 -0.1517  0.3233
 3400TIP3    H131835   2.607   3.783   2.349 -0.0620 -1.3915  1.5945
 3400TIP3    H231836   2.749   3.743   2.317  0.1508  0.2642  0.3496
 3401TIP3   OH231837   3.387   2.936   2.468 -0.3520 -0.7677 -0.2891
 3401TIP3    H131838   3.470   2.922   2.423 -0.1260 -0.4515  0.0254
 3401TIP3    H231839   3.386   3.029   2.488 -0.5188 -0.8782  0.2212
 3402TIP3   OH231840   1.928   4.865   1.294 -0.1735  0.6582 -0.4067
 3402TIP3    H131841   1.933   4.801   1.365 -1.1427  0.9329 -0.0850
 3402TIP3    H231842   2.008   4.850   1.243  0.5512  0.4810  0.7477
 3403TIP3   OH231843   1.592   2.245   3.304 -0.8218  0.2526  0.8859
 3403TIP3    H131844   1.680   2.229   3.272 -0.4575  0.0663  1.9467
 3403TIP3    H231845   1.602   2.312   3.372 -1.6794  1.2413  0.0679
 3404TIP3   OH231846   3.728   5.578   1.712  0.4359 -0.0282 -0.1946
 3404TIP3    H131847   3.651   5.635   1.712  0.8712  0.5893 -1.0809
 3404TIP3    H231848   3.713   5.516   1.641  1.0749  0.5691 -0.8698
 3405TIP3   OH231849   0.146   1.807   3.856  0.1776 -0.4726 -0.1102
 3405TIP3    H131850   0.052   1.810   3.875  0.1278  1.7089 -0.4051
 3405TIP3    H231851   0.158   1.724   3.809 -2.0636  0.2423 -2.1713
 3406TIP3   OH231852   0.977   0.699   3.610 -0.0676 -0.7052 -0.0197
 3406TIP3    H131853   0.962   0.606   3.593 -0.2801 -0.5850 -0.5158
 3406TIP3    H231854   0.926   0.717   3.689  2.1294 -1.6130  1.7047
 3407TIP3   OH231855   3.261   5.676   2.108  0.4620  0.2271 -0.4714
 3407TIP3    H131856   3.209   5.756   2.116 -0.7497 -0.6305  0.7561
 3407TIP3    H231857   3.340   5.703   2.062 -0.7814  1.7228 -1.8704
 3408TIP3   OH231858   3.398   2.509   1.020 -0.1787 -0.2610  0.6880
 3408TIP3    H131859   3.321   2.562   1.041 -0.4710 -1.3024  2.4153
 3408TIP3    H231860   3.432   2.548   0.939 -2.1796  0.5813  0.1771
 3409TIP3   OH231861   4.198   0.219   0.556 -0.0261 -0.7156 -0.0888
 3409TIP3    H131862   4.182   0.136   0.512 -0.0138 -1.4700  1.2797
 3409TIP3    H231863   4.122   0.231   0.613 -0.6567  0.8642 -1.1673
 3410TIP3   OH231864   4.176   5.510   4.411 -0.0089 -0.8901 -0.6842
 3410TIP3    H131865   4.203   5.581   4.353  1.3803 -0.8258 -0.0041
 3410TIP3    H231866   4.256   5.483   4.455 -0.4600 -3.0420 -1.0745
 3411TIP3   OH231867   1.482   5.060   2.383  0.3571 -0.1906  0.0529
 3411TIP3    H131868   1.458   5.137   2.434 -1.1301 -0.7150  0.1985
 3411TIP3    H231869   1.466   5.085   2.292 -0.8334 -0.5371  0.1490
 3412TIP3   OH231870   2.343   0.936   4.568 -0.0681 -0.2033  0.1169
 3412TIP3    H131871   2.412   0.906   4.510 -0.7659  0.0202 -0.8552
 3412TIP3    H231872   2.384   0.939   4.655  1.7750  1.9374 -0.7264
 3413TIP3   OH231873   4.420   0.852   0.273 -0.3673 -0.0674  0.1291
 3413TIP3    H131874   4.342   0.857   0.217  0.0915 -0.8250 -0.6001
 3413TIP3    H231875   4.492   0.835   0.213  0.2264 -0.3143  0.8955
 3414TIP3   OH231876   6.306   6.412   1.369  0.5331  0.2360  0.2716
 3414TIP3    H131877   6.215   6.437   1.383 -0.0210 -1.4472 -0.0780
 3414TIP3    H231878   6.344   6.486   1.322 -0.8235  0.6993 -0.1455
 3415TIP3   OH231879   2.967   5.316   1.622  0.3340 -0.1321 -0.0671
 3415TIP3    H131880   3.022   5.238   1.617 -1.6375 -1.5440 -1.4694
 3415TIP3    H231881   2.942   5.333   1.531 -1.4462  0.4497  0.4871
 3416TIP3   OH231882   1.713   3.269   0.068  0.3905 -0.4039 -0.0263
 3416TIP3    H131883   1.640   3.311   0.114  0.0351 -0.7864 -0.2363
 3416TIP3    H231884   1.696   3.175   0.076 -0.2160 -0.4839 -1.7466
 3417TIP3   OH231885   0.816   2.929   2.050 -0.0864  0.6826 -0.3914
 3417TIP3    H131886   0.768   3.004   2.085 -1.5405  0.3844 -1.6381
 3417TIP3    H231887   0.767   2.852   2.081  1.8307  0.1576  1.5314
 3418TIP3   OH231888   1.361   6.761   3.629  0.3290 -0.5224 -0.2263
 3418TIP3    H131889   1.369   6.832   3.567 -1.4768 -0.8165 -0.8610
 3418TIP3    H231890   1.304   6.795   3.699  0.4465 -0.9360  0.0816
 3419TIP3   OH231891   1.603   4.772   2.689 -0.1816  0.2684 -0.3373
 3419TIP3    H131892   1.663   4.843   2.667 -0.1697 -0.0665 -1.4912
 3419TIP3    H231893   1.653   4.714   2.745  0.1600  0.6195 -0.2751
 3420TIP3   OH231894   1.104   6.015   3.041 -0.6332  0.1894  0.4185
 3420TIP3    H131895   1.102   6.000   2.946 -1.4123  1.1423  0.2684
 3420TIP3    H231896   1.087   6.108   3.051  0.2351  0.2557  1.4779
 3421TIP3   OH231897   0.458   6.577   2.582 -0.8995 -0.4575 -0.0593
 3421TIP3    H131898   0.395   6.589   2.653 -1.4624 -0.2430 -0.5882
 3421TIP3    H231899   0.406   6.544   2.509 -0.2905 -0.8778 -0.3109
 3422TIP3   OH231900   6.469   1.620   0.116  0.0357  0.1635 -0.1935
 3422TIP3    H131901   6.431   1.679   0.051  0.1860  0.6059  0.1117
 3422TIP3    H231902   6.562   1.618   0.095  0.1170  0.4588  0.1156
 3423TIP3   OH231903   5.353   2.895   2.814 -0.4611  0.4789  0.3157
 3423TIP3    H131904   5.333   2.802   2.802 -0.1402 -0.0181  2.9560
 3423TIP3    H231905   5.439   2.905   2.773 -0.1131 -0.6079  0.7243
 3424TIP3   OH231906   0.308   5.009   2.135 -0.1223 -0.3473  0.2024
 3424TIP3    H131907   0.284   5.102   2.140 -0.7498 -0.4803 -0.2851
 3424TIP3    H231908   0.245   4.971   2.074  0.5000 -0.9770 -0.0551
 3425TIP3   OH231909   5.288   4.347   1.585  0.1335  1.0114 -0.0552
 3425TIP3    H131910   5.363   4.312   1.633  0.0063  0.7780 -0.0249
 3425TIP3    H231911   5.256   4.274   1.533 -0.3145  0.9926  0.2361
 3426TIP3   OH231912   4.935   3.997   2.472 -0.3755  0.1094 -0.2758
 3426TIP3    H131913   4.927   3.925   2.409  0.5458 -0.7789  0.5714
 3426TIP3    H231914   4.957   4.073   2.418  0.5854 -0.6642 -1.0275
 3427TIP3   OH231915   5.111   6.299   3.774 -0.0866  0.4164  0.2955
 3427TIP3    H131916   5.196   6.333   3.802 -0.6732  0.6955  1.8079
 3427TIP3    H231917   5.048   6.367   3.801 -1.1061 -1.1113  1.9615
 3428TIP3   OH231918   4.077   1.646   3.609 -0.1726  0.3802  0.0282
 3428TIP3    H131919   4.043   1.559   3.589  0.1814  0.5782 -1.5140
 3428TIP3    H231920   4.165   1.648   3.570 -0.1023  1.3588  0.2037
 3429TIP3   OH231921   1.966   4.431   1.647 -0.5839 -0.2422  0.3996
 3429TIP3    H131922   1.926   4.402   1.729  0.5492  0.4476  1.2368
 3429TIP3    H231923   1.987   4.524   1.662  0.5918 -0.3760 -0.2591
 3430TIP3   OH231924   1.984   2.804   2.400  0.1627 -0.0610 -0.4442
 3430TIP3    H131925   2.057   2.782   2.343 -0.3954 -0.3077 -1.0825
 3430TIP3    H231926   1.906   2.784   2.348 -0.3797 -1.2212  0.7463
 3431TIP3   OH231927   3.962   3.206   1.723 -0.1290 -0.3241 -0.0395
 3431TIP3    H131928   4.018   3.218   1.646  1.3715  0.2813  1.1049
 3431TIP3    H231929   3.901   3.280   1.720  0.9365  0.5919  0.1657
 3432TIP3   OH231930   1.040   4.320   0.806  0.0225 -1.0351  0.0264
 3432TIP3    H131931   0.988   4.247   0.771  0.6332 -1.1301 -0.7251
 3432TIP3    H231932   1.097   4.345   0.733 -0.9762  0.9690 -0.1137
 3433TIP3   OH231933   6.351   4.644   4.048  0.7484  0.1098  0.7539
 3433TIP3    H131934   6.419   4.673   4.108 -0.7919  1.9170  1.7663
 3433TIP3    H231935   6.319   4.725   4.007 -0.8131 -0.6470  0.3830
 3434TIP3   OH231936   4.144   1.746   3.074 -0.9515 -0.0667  0.0653
 3434TIP3    H131937   4.122   1.837   3.094  0.6538  0.1210  1.1897
 3434TIP3    H231938   4.228   1.731   3.117 -0.2489 -1.5286 -1.6396
 3435TIP3   OH231939   4.051   2.870   3.852  0.1315 -0.2072 -0.8473
 3435TIP3    H131940   4.083   2.914   3.773  1.1480  1.4736  0.4322
 3435TIP3    H231941   4.128   2.827   3.888 -0.0205  0.2006 -0.0329
 3436TIP3   OH231942   2.583   2.236   3.832 -0.2907 -0.3658  0.0502
 3436TIP3    H131943   2.566   2.250   3.925  0.9911 -0.9296  0.3865
 3436TIP3    H231944   2.560   2.319   3.791  1.0262  0.5725  1.1417
 3437TIP3   OH231945   5.056   3.706   1.911 -0.0932  0.6166 -0.1255
 3437TIP3    H131946   5.030   3.614   1.909 -0.7404  0.7197  1.6444
 3437TIP3    H231947   5.137   3.707   1.963 -0.7601  1.1519  0.9497
 3438TIP3   OH231948   0.387   6.470   3.653  0.7285 -0.4759 -0.3263
 3438TIP3    H131949   0.324   6.519   3.706  1.6127  0.1631  0.1610
 3438TIP3    H231950   0.379   6.509   3.566  2.7095  1.9087  0.4345
 3439TIP3   OH231951   0.954   0.901   2.168  0.7153  0.5694 -0.9015
 3439TIP3    H131952   0.878   0.954   2.193 -0.3675 -0.8988 -0.9941
 3439TIP3    H231953   1.025   0.965   2.162 -0.0204  1.6974  1.2044
 3440TIP3   OH231954   4.516   3.397   2.886 -0.4786 -0.2153 -0.0211
 3440TIP3    H131955   4.510   3.483   2.845  1.6432  2.1526  4.0632
 3440TIP3    H231956   4.452   3.400   2.957  1.5508 -0.7694  1.9485
 3441TIP3   OH231957   1.051   1.826   4.556  0.0533 -0.4498  0.1473
 3441TIP3    H131958   1.043   1.910   4.602  1.3324 -1.4672  2.4355
 3441TIP3    H231959   1.079   1.849   4.468 -1.0899  1.5764  0.2620
 3442TIP3   OH231960   5.146   2.461   3.064  0.2271 -0.0073 -0.4760
 3442TIP3    H131961   5.139   2.434   2.972 -0.2834 -0.8363 -0.2024
 3442TIP3    H231962   5.070   2.518   3.078  1.5303  2.0387 -1.1705
 3443TIP3   OH231963   6.481   3.069   4.307  0.0404  0.2493  0.2171
 3443TIP3    H131964   6.415   3.038   4.244 -0.0099  0.1349  0.3257
 3443TIP3    H231965   6.540   3.124   4.255 -0.5331  0.9154  0.2525
 3444TIP3   OH231966   1.570   6.013   0.474  0.0964  0.1206 -0.1181
 3444TIP3    H131967   1.505   5.993   0.542 -0.5704 -1.1549 -1.0835
 3444TIP3    H231968   1.620   6.087   0.509 -1.5502  0.8215  0.8792
 3445TIP3   OH231969   3.897   2.466   4.279 -0.0317  0.1483 -0.7667
 3445TIP3    H131970   3.879   2.374   4.296  2.7682 -0.6074 -1.3434
 3445TIP3    H231971   3.912   2.504   4.366 -1.3081  0.1519 -0.5195
 3446TIP3   OH231972   5.506   1.019   2.067  0.4764  0.0047  0.1643
 3446TIP3    H131973   5.541   0.976   1.989  0.8541  0.7061 -0.0506
 3446TIP3    H231974   5.498   0.948   2.131 -0.5251 -0.7228 -0.7258
 3447TIP3   OH231975   5.639   2.334   3.384 -0.1974 -0.0302  0.0556
 3447TIP3    H131976   5.702   2.397   3.420  0.5319 -0.1987 -0.8648
 3447TIP3    H231977   5.693   2.270   3.338 -0.8466 -1.9099  1.7452
 3448TIP3   OH231978   0.463   3.707   1.655  0.6209  0.0888  0.2705
 3448TIP3    H131979   0.487   3.626   1.611 -0.0648 -0.1166  0.2689
 3448TIP3    H231980   0.546   3.743   1.686  0.8394 -1.1328  1.1672
 3449TIP3   OH231981   4.046   4.182   1.442 -0.3231 -0.5365 -0.2748
 3449TIP3    H131982   4.127   4.210   1.486 -0.0074 -1.7812 -0.0159
 3449TIP3    H231983   4.074   4.111   1.384 -1.0330 -0.1048 -1.1783
 3450TIP3   OH231984   0.177   2.180   1.580 -0.0805  0.2595  0.0801
 3450TIP3    H131985   0.146   2.182   1.490  1.7217  0.6040 -0.5748
 3450TIP3    H231986   0.263   2.222   1.577  0.6574 -1.0018  1.6869
 3451TIP3   OH231987   4.781   2.603   1.359  0.5233  0.3859  0.2979
 3451TIP3    H131988   4.760   2.680   1.412 -0.3774  0.9264 -0.7922
 3451TIP3    H231989   4.810   2.538   1.422  2.4365  1.9672  1.1581
 3452TIP3   OH231990   1.072   1.826   3.910  0.4459 -0.4385 -0.1491
 3452TIP3    H131991   1.132   1.753   3.896  2.6751  1.0151  1.2097
 3452TIP3    H231992   1.107   1.897   3.856 -1.5359 -0.2042 -1.2524
 3453TIP3   OH231993   0.204   0.906   3.711  0.1079  0.1486 -0.4964
 3453TIP3    H131994   0.207   0.963   3.635 -0.9607 -0.4738 -1.0231
 3453TIP3    H231995   0.216   0.818   3.677 -1.0691 -0.2110 -0.0672
 3454TIP3   OH231996   0.163   3.796   1.715  0.3787 -0.0968  0.0259
 3454TIP3    H131997   0.191   3.887   1.717  0.7097 -0.1977  1.4342
 3454TIP3    H231998   0.240   3.747   1.687  0.8254 -0.1096  1.2112
 3455TIP3   OH231999   3.877   2.712   1.646 -0.3563 -0.2386 -0.4991
 3455TIP3    H132000   3.873   2.632   1.595  0.4175 -0.5042 -0.1548
 3455TIP3    H232001   3.968   2.740   1.642 -0.7732  1.1281 -1.3518
 3456TIP3   OH232002   0.646   5.400   1.118 -0.4793  0.3081  0.4131
 3456TIP3    H132003   0.604   5.466   1.062  0.6053  0.6609 -0.0181
 3456TIP3    H232004   0.737   5.430   1.125 -0.2621 -0.5118  1.1978
 3457TIP3   OH232005   4.519   1.732   4.766  0.0190  0.3342 -0.3347
 3457TIP3    H132006   4.527   1.666   4.834  0.5549 -1.1551 -1.7639
 3457TIP3    H232007   4.541   1.815   4.809  2.4200 -0.8176  0.8321
 3458TIP3   OH232008   4.776   0.801   3.211 -0.0000  0.4215 -0.0886
 3458TIP3    H132009   4.700   0.825   3.264 -0.4025 -1.6223  0.3573
 3458TIP3    H232010   4.754   0.716   3.175  1.2979  0.6759 -1.5727
 3459TIP3   OH232011   0.279   1.195   1.821  0.1232  0.5210 -0.3174
 3459TIP3    H132012   0.325   1.278   1.824  0.7246  0.1839  1.8987
 3459TIP3    H232013   0.191   1.217   1.791  0.7364  1.6784 -1.3391
 3460TIP3   OH232014   4.874   2.075   3.412 -0.4099 -0.3241 -0.2264
 3460TIP3    H132015   4.915   2.136   3.474  0.5234 -0.4109 -0.7401
 3460TIP3    H232016   4.894   2.111   3.326 -0.5082 -0.9504 -0.5158
 3461TIP3   OH232017   3.425   0.997   3.153 -0.5294 -0.2759 -0.2704
 3461TIP3    H132018   3.478   1.055   3.209 -1.2018  0.0397  0.0471
 3461TIP3    H232019   3.345   0.982   3.203 -0.0675 -2.0895 -0.0245
 3462TIP3   OH232020   4.800   6.221   2.940  0.1249 -0.0867 -0.4373
 3462TIP3    H132021   4.771   6.243   3.028 -1.5305 -2.7595 -0.2021
 3462TIP3    H232022   4.740   6.268   2.882  1.1098  1.5380 -0.2171
 3463TIP3   OH232023   2.457   6.240   0.654 -0.0195  0.1563  0.1576
 3463TIP3    H132024   2.445   6.191   0.735 -1.4424 -0.1046 -0.1856
 3463TIP3    H232025   2.404   6.193   0.590 -0.4305  1.4470 -0.4731
 3464TIP3   OH232026   3.430   6.231   2.845 -0.3812 -0.2048  0.2394
 3464TIP3    H132027   3.455   6.188   2.926 -1.3994 -0.7166  0.2950
 3464TIP3    H232028   3.367   6.172   2.805  0.7749 -0.4012 -1.3897
 3465TIP3   OH232029   4.796   0.498   4.008 -0.5603 -0.1681 -0.7050
 3465TIP3    H132030   4.814   0.426   4.068 -0.4018  0.6944  0.3211
 3465TIP3    H232031   4.701   0.510   4.012 -0.8226 -1.4401 -2.2397
 3466TIP3   OH232032   1.574   5.600   3.111  0.0246  0.6423  0.1068
 3466TIP3    H132033   1.566   5.681   3.059  1.7930  1.0638  0.4296
 3466TIP3    H232034   1.640   5.621   3.177  1.0486 -1.2953 -0.2523
 3467TIP3   OH232035   3.838   0.841   1.644  0.1204 -1.2361 -0.0375
 3467TIP3    H132036   3.926   0.861   1.612 -0.3115  0.6951 -0.1422
 3467TIP3    H232037   3.780   0.860   1.570 -0.8091  2.4519  1.3674
 3468TIP3   OH232038   4.238   5.767   3.654  0.1092  0.1708  0.0750
 3468TIP3    H132039   4.149   5.737   3.637  0.6089 -0.6416 -1.2871
 3468TIP3    H232040   4.232   5.814   3.737 -1.7417  0.8551 -0.4005
 3469TIP3   OH232041   4.542   3.106   1.505  0.1244  0.5804  0.5073
 3469TIP3    H132042   4.579   3.109   1.417  1.2322  0.4055  0.9484
 3469TIP3    H232043   4.562   3.192   1.542  1.3611  0.0074  1.2283
 3470TIP3   OH232044   2.390   5.540   3.192  0.2855  0.3706 -0.1082
 3470TIP3    H132045   2.481   5.568   3.196  1.1815 -2.3508  0.5599
 3470TIP3    H232046   2.392   5.457   3.145 -1.6353 -0.5381  1.2798
 3471TIP3   OH232047   4.390   1.432   0.701  0.2564 -0.2699  0.1860
 3471TIP3    H132048   4.377   1.383   0.620  0.2037 -0.2493  0.1818
 3471TIP3    H232049   4.368   1.522   0.678 -0.8593 -0.4392  0.5059
 3472TIP3   OH232050   6.413   3.480   4.308 -0.7506 -0.7064  0.0916
 3472TIP3    H132051   6.451   3.458   4.393  1.3915 -0.3709 -0.7050
 3472TIP3    H232052   6.383   3.570   4.317  2.0651  0.3833 -0.2137
 3473TIP3   OH232053   3.990   5.390   1.595 -0.3996 -0.1846  0.4209
 3473TIP3    H132054   3.933   5.327   1.551  0.9692 -0.4348 -1.1107
 3473TIP3    H232055   4.003   5.460   1.531  0.7106  0.0269  0.8431
 3474TIP3   OH232056   1.312   2.258   1.216 -0.4608  0.0498 -0.5535
 3474TIP3    H132057   1.346   2.255   1.126 -1.8253 -0.3645 -1.0880
 3474TIP3    H232058   1.275   2.171   1.231 -1.1744  0.4388  0.0179
 3475TIP3   OH232059   3.454   4.052   1.340  0.0070 -0.6038 -0.1530
 3475TIP3    H132060   3.364   4.024   1.357  0.3751 -2.3052 -0.8017
 3475TIP3    H232061   3.502   3.971   1.323  1.5502  0.3097 -0.3921
 3476TIP3   OH232062   3.879   4.180   1.205  0.4569 -0.0672 -0.3726
 3476TIP3    H132063   3.811   4.238   1.240  1.5034  0.9303  0.0944
 3476TIP3    H232064   3.871   4.099   1.256 -1.4513 -0.6271 -1.4704
 3477TIP3   OH232065   6.285   4.221   1.373  0.4868  0.0532 -0.2532
 3477TIP3    H132066   6.322   4.235   1.460 -0.0093  1.3764 -0.2353
 3477TIP3    H232067   6.316   4.134   1.347 -0.4050 -0.9381  1.7760
 3478TIP3   OH232068   3.227   4.881   2.873 -0.5771 -0.0112 -0.5109
 3478TIP3    H132069   3.193   4.948   2.812  0.3103 -0.0561 -1.0756
 3478TIP3    H232070   3.156   4.867   2.935 -1.2726  0.5003 -1.1717
 3479TIP3   OH232071   6.772   0.548   3.636  0.3457  0.2414  0.4213
 3479TIP3    H132072   6.867   0.541   3.649  0.1685 -0.9713  1.1485
 3479TIP3    H232073   6.762   0.563   3.542  1.2615  0.6098  0.3680
 3480TIP3   OH232074   0.860   0.996   1.631  0.0513 -0.2516  0.0687
 3480TIP3    H132075   0.878   1.042   1.549 -1.9569  2.1069  0.8170
 3480TIP3    H232076   0.869   1.063   1.699  1.7043 -2.1449  1.8504
 3481TIP3   OH232077   6.267   3.694   3.537 -0.7926 -0.0750  0.1559
 3481TIP3    H132078   6.248   3.621   3.479 -2.3422  1.7825 -1.8472
 3481TIP3    H232079   6.345   3.735   3.500 -0.3094 -0.3059  0.8881
 3482TIP3   OH232080   3.024   1.145   3.360  0.1430 -0.7915  0.2832
 3482TIP3    H132081   3.079   1.145   3.439  3.5561 -1.1309 -1.8964
 3482TIP3    H232082   3.009   1.052   3.342  0.0283 -0.7425  0.1301
 3483TIP3   OH232083   1.316   5.220   3.822 -0.3606 -0.1529  0.4963
 3483TIP3    H132084   1.386   5.279   3.851  0.4825 -2.0113  2.5357
 3483TIP3    H232085   1.239   5.247   3.874 -0.4131  0.1385  0.2697
 3484TIP3   OH232086   0.330   6.183   2.472  0.2744  0.2889 -0.1989
 3484TIP3    H132087   0.311   6.273   2.447 -1.6784 -0.1020 -0.3349
 3484TIP3    H232088   0.350   6.138   2.390  0.4248  0.4199 -0.2336
 3485TIP3   OH232089   3.489   3.781   1.040 -0.0373  0.2427  0.7073
 3485TIP3    H132090   3.548   3.709   1.018 -0.5198 -0.3898  1.4273
 3485TIP3    H232091   3.470   3.769   1.133 -2.1320 -0.1969  0.2675
 3486TIP3   OH232092   1.408   5.196   3.374  0.2562  0.1175 -0.6900
 3486TIP3    H132093   1.353   5.159   3.305  0.4925  0.0643 -0.8516
 3486TIP3    H232094   1.484   5.231   3.327 -1.2258  3.4522 -0.9499
 3487TIP3   OH232095   1.065   2.271   2.989 -0.1353  0.1791  0.0615
 3487TIP3    H132096   1.146   2.296   2.946  0.8137 -1.0483  1.0540
 3487TIP3    H232097   0.996   2.308   2.934  1.0567  0.3329 -1.3958
 3488TIP3   OH232098   3.352   2.561   3.288  0.4203  0.9892  0.3271
 3488TIP3    H132099   3.273   2.607   3.315 -0.1616 -0.9756  2.2795
 3488TIP3    H232100   3.342   2.473   3.325  1.6465 -0.6254 -2.8045
 3489TIP3   OH232101   0.927   3.853   0.442  0.2788  0.1293  0.0308
 3489TIP3    H132102   0.836   3.828   0.424  0.1624  1.0031 -0.6456
 3489TIP3    H232103   0.957   3.894   0.361  0.8530  1.0646  0.7058
 3490TIP3   OH232104   2.934   1.810   1.279  0.0656 -0.1433  0.2537
 3490TIP3    H132105   2.845   1.783   1.298  0.4764 -0.0547  2.5641
 3490TIP3    H232106   2.931   1.843   1.189 -1.8500 -1.6195 -0.2854
 3491TIP3   OH232107   4.295   6.644   2.359 -0.0331  0.4352  0.5602
 3491TIP3    H132108   4.280   6.551   2.379  0.0109  0.4952  0.8736
 3491TIP3    H232109   4.274   6.652   2.266  1.5032 -0.2183  0.1259
 3492TIP3   OH232110   6.387   1.473   2.010 -0.5550 -0.1004  0.3074
 3492TIP3    H132111   6.377   1.386   1.972  1.1111 -0.6311  0.9783
 3492TIP3    H232112   6.301   1.494   2.046 -1.2693 -0.9784 -0.8218
 3493TIP3   OH232113   1.308   2.841   1.911  0.1062  0.1561  0.3196
 3493TIP3    H132114   1.253   2.781   1.860 -0.3978 -0.4735  1.5681
 3493TIP3    H232115   1.257   2.923   1.915  0.4727  0.4554 -0.7732
 3494TIP3   OH232116   1.037   2.403   3.393 -0.0298  0.0956  0.0040
 3494TIP3    H132117   0.966   2.347   3.362 -0.3765  1.1948 -1.2956
 3494TIP3    H232118   0.992   2.477   3.436  0.2162  1.3262 -1.7308
 3495TIP3   OH232119   1.296   3.873   0.998  0.0023  0.1252  0.3790
 3495TIP3    H132120   1.315   3.916   0.915 -0.4055 -2.2337 -1.0170
 3495TIP3    H232121   1.206   3.897   1.018 -0.1789  0.0333 -0.3124
 3496TIP3   OH232122   3.119   4.679   3.148 -0.2483  0.1157 -0.2635
 3496TIP3    H132123   3.126   4.773   3.162  0.5105 -0.1285  1.2549
 3496TIP3    H232124   3.210   4.649   3.140 -0.5261 -0.3331 -2.0399
 3497TIP3   OH232125   5.516   1.389   3.383  0.1104 -0.2029  0.0862
 3497TIP3    H132126   5.527   1.450   3.309 -0.0627  0.2784  0.4537
 3497TIP3    H232127   5.430   1.410   3.418  0.0824 -0.6167  0.2615
 3498TIP3   OH232128   1.627   6.733   3.575  0.3659  0.5770 -0.2901
 3498TIP3    H132129   1.543   6.707   3.612 -0.1496  1.3839 -0.8379
 3498TIP3    H232130   1.689   6.727   3.648  0.2820 -1.9407 -0.3393
 3499TIP3   OH232131   3.515   1.626   1.103 -0.3082  0.6894  0.1941
 3499TIP3    H132132   3.427   1.662   1.097 -0.9037 -0.6276  0.6954
 3499TIP3    H232133   3.502   1.532   1.112  1.1911  0.3452 -0.8518
 3500TIP3   OH232134   5.615   1.535   1.591  0.1700 -0.0668  0.7563
 3500TIP3    H132135   5.691   1.539   1.649 -2.0222  0.1641  3.9352
 3500TIP3    H232136   5.589   1.443   1.593  0.7754 -0.2994 -0.9723
 3501TIP3   OH232137   3.101   0.592   1.213 -0.0122 -0.7647  0.2928
 3501TIP3    H132138   3.121   0.633   1.129 -1.8683 -1.2719 -0.4440
 3501TIP3    H232139   3.169   0.525   1.224  0.1014 -0.8699 -0.9367
 3502TIP3   OH232140   2.927   2.012   3.008  0.1278 -0.0625  0.2514
 3502TIP3    H132141   2.960   1.923   2.996 -2.4790 -1.2762  1.2059
 3502TIP3    H232142   2.897   2.014   3.099 -0.9382  1.3770 -0.0855
 3503TIP3   OH232143   6.628   3.908   1.326  0.0674 -0.2281  0.2134
 3503TIP3    H132144   6.683   3.836   1.297 -1.2088 -1.5785  1.0063
 3503TIP3    H232145   6.681   3.986   1.313  1.5252 -1.3169 -0.5773
 3504TIP3   OH232146   1.068   0.332   4.349 -0.0955  0.1800 -0.0179
 3504TIP3    H132147   1.139   0.384   4.309 -1.4705  2.1541 -0.0511
 3504TIP3    H232148   1.071   0.249   4.303  1.1561  0.8132 -1.1769
 3505TIP3   OH232149   5.406   2.872   1.208  0.6471  0.2771 -0.1025
 3505TIP3    H132150   5.431   2.882   1.300  0.5268 -1.3407  0.1348
 3505TIP3    H232151   5.311   2.859   1.209  0.8807 -1.8512 -0.2116
 3506TIP3   OH232152   2.029   0.593   8.871 -0.1373  0.4757 -0.3426
 3506TIP3    H132153   2.029   0.685   8.845 -1.0407  0.3134 -0.9650
 3506TIP3    H232154   2.120   0.564   8.858 -0.0234  1.0685 -0.9082
 3507TIP3   OH232155   0.245   5.234   4.455  0.7183  0.3966  0.2930
 3507TIP3    H132156   0.218   5.208   4.544 -0.3948  0.1986 -0.0899
 3507TIP3    H232157   0.291   5.157   4.421  2.2618  0.9071  1.1251
 3508TIP3   OH232158   2.233   1.397   1.826 -0.0653  0.2483  0.2431
 3508TIP3    H132159   2.161   1.439   1.873  1.0260 -0.0227  2.3215
 3508TIP3    H232160   2.220   1.303   1.841  0.2476  0.1546 -0.0665
 3509TIP3   OH232161   5.210   6.034   4.132 -0.3877  0.5845 -0.1407
 3509TIP3    H132162   5.254   6.023   4.047 -1.7858  1.2654 -0.9945
 3509TIP3    H232163   5.140   6.097   4.114 -2.4548 -1.3133  0.8749
 3510TIP3   OH232164   5.152   0.336   2.580  0.1393  0.2243 -0.1445
 3510TIP3    H132165   5.072   0.283   2.593 -0.9420  2.1829  1.8226
 3510TIP3    H232166   5.121   0.416   2.538  1.0827  0.9365  0.4769
 3511TIP3   OH232167   3.676   1.901   0.659  0.2075 -0.0224 -0.5188
 3511TIP3    H132168   3.683   1.995   0.644  0.4444  0.1869  0.7777
 3511TIP3    H232169   3.611   1.893   0.730  1.0770 -0.7402  0.2184
 3512TIP3   OH232170   1.382   2.464   3.053 -0.4418  0.2143  0.0500
 3512TIP3    H132171   1.332   2.518   3.113 -2.2968  0.2590 -1.4567
 3512TIP3    H232172   1.457   2.518   3.028 -0.6534  0.8931  0.8731
 3513TIP3   OH232173   2.990   6.176   3.637 -0.0062  0.0585 -0.4752
 3513TIP3    H132174   3.053   6.246   3.651 -0.2766  0.2885 -0.3931
 3513TIP3    H232175   2.906   6.214   3.664  0.1508 -1.0077  1.7855
 3514TIP3   OH232176   5.664   2.935   4.194 -0.3071  0.4177 -0.1267
 3514TIP3    H132177   5.585   2.887   4.219  0.7246 -1.4228 -0.2421
 3514TIP3    H232178   5.633   3.002   4.133 -1.6427 -1.1989 -1.3252
 3515TIP3   OH232179   6.406   4.287   1.625  0.1738 -0.0706 -0.3648
 3515TIP3    H132180   6.481   4.346   1.618 -0.2507  0.4478 -0.6212
 3515TIP3    H232181   6.346   4.331   1.686  0.3186 -0.7530  0.2960
 3516TIP3   OH232182   1.150   3.313   4.027  0.0107 -0.2518 -0.3754
 3516TIP3    H132183   1.108   3.325   4.113 -1.9300 -3.2273 -0.7710
 3516TIP3    H232184   1.137   3.397   3.983 -1.3015  0.4970  1.3134
 3517TIP3   OH232185   0.082   5.005   1.090 -0.3413 -0.1965  0.8512
 3517TIP3    H132186   0.006   4.985   1.144 -1.0358  1.5591  0.6061
 3517TIP3    H232187   0.082   4.937   1.022 -3.1296  1.0195 -0.5477
 3518TIP3   OH232188   3.798   0.800   4.650 -0.6915  0.0073 -0.3850
 3518TIP3    H132189   3.863   0.871   4.655 -1.6601  0.8328  1.4744
 3518TIP3    H232190   3.714   0.843   4.666 -1.3544 -1.4703  0.2866
 3519TIP3   OH232191   1.800   1.607   1.326  0.2972 -0.2047 -0.1371
 3519TIP3    H132192   1.810   1.656   1.408 -1.5776  1.3679 -0.7917
 3519TIP3    H232193   1.790   1.516   1.354 -1.2260  0.4068  1.4825
 3520TIP3   OH232194   4.798   4.946   3.933 -0.3399 -0.1106 -0.2795
 3520TIP3    H132195   4.730   5.002   3.897 -0.2546 -0.5426 -1.1492
 3520TIP3    H232196   4.793   4.866   3.880  1.1505  0.0273 -0.6882
 3521TIP3   OH232197   6.401   3.782   0.203  0.3121 -0.1615 -0.1755
 3521TIP3    H132198   6.370   3.873   0.207  0.7810 -0.0016 -0.0618
 3521TIP3    H232199   6.331   3.734   0.159  0.2397  0.3367 -0.6094
 3522TIP3   OH232200   3.987   0.785   2.827  0.1800  0.1332 -0.1211
 3522TIP3    H132201   3.951   0.866   2.864 -0.3426 -0.5445  0.9167
 3522TIP3    H232202   3.935   0.716   2.867 -0.2477 -0.6762 -1.9682
 3523TIP3   OH232203   2.337   2.878   2.490  0.3539  0.0956 -0.7046
 3523TIP3    H132204   2.396   2.804   2.475 -1.2221 -2.1591  2.8390
 3523TIP3    H232205   2.261   2.860   2.436  0.3442 -0.4498 -0.5183
 3524TIP3   OH232206   6.080   3.140   3.756 -0.7389  0.1151  0.0869
 3524TIP3    H132207   6.049   3.166   3.843  3.5358  0.2689  1.7942
 3524TIP3    H232208   6.082   3.045   3.758  0.2385  0.1388  0.5424
 3525TIP3   OH232209   6.280   1.214   2.386  0.0440  0.2698  0.1556
 3525TIP3    H132210   6.331   1.244   2.461 -1.9497 -1.6351  2.4645
 3525TIP3    H232211   6.305   1.122   2.376 -1.1223 -0.0211 -0.2062
 3526TIP3   OH232212   1.742   1.888   4.186 -0.0623 -0.0087  0.3418
 3526TIP3    H132213   1.736   1.976   4.223 -1.4188 -0.4662  1.3206
 3526TIP3    H232214   1.787   1.837   4.253  0.2371 -0.1793  0.0114
 3527TIP3   OH232215   3.255   4.507   1.948  0.5470 -0.1239 -0.0738
 3527TIP3    H132216   3.345   4.536   1.964 -0.0021  0.8737  1.5117
 3527TIP3    H232217   3.216   4.503   2.036 -0.5181 -2.0674 -0.5835
 3528TIP3   OH232218   0.730   4.332   2.876  0.0521 -0.3927  0.0390
 3528TIP3    H132219   0.793   4.311   2.807 -0.1598  0.8013 -0.5477
 3528TIP3    H232220   0.768   4.295   2.955  2.0959  1.2158 -0.0810
 3529TIP3   OH232221   1.827   1.043   1.899 -0.4903  0.1113  0.0177
 3529TIP3    H132222   1.803   0.950   1.899 -0.7848  0.1610 -1.5941
 3529TIP3    H232223   1.811   1.072   1.810 -3.3781  2.4824  1.1086
 3530TIP3   OH232224   2.979   3.534   3.409  0.1793  0.8655 -0.0400
 3530TIP3    H132225   3.043   3.600   3.384 -1.2436  2.3098  0.0071
 3530TIP3    H232226   2.933   3.573   3.484  1.1504 -1.3540  1.8651
 3531TIP3   OH232227   3.566   3.239   4.296  0.5382 -0.0239  0.9389
 3531TIP3    H132228   3.642   3.291   4.272  0.9537 -0.3469  1.5334
 3531TIP3    H232229   3.525   3.216   4.212 -0.1895  2.0248  0.6839
 3532TIP3   OH232230   1.742   4.703   2.132 -0.1263  0.8367  0.5801
 3532TIP3    H132231   1.836   4.695   2.148  0.2363  1.3413 -1.0982
 3532TIP3    H232232   1.701   4.673   2.213  1.4951  1.4572  1.6783
 3533TIP3   OH232233   3.000   5.422   3.656 -0.2837 -0.9879 -0.4373
 3533TIP3    H132234   3.032   5.421   3.747  0.0101 -0.9682 -0.5388
 3533TIP3    H232235   3.014   5.332   3.625  0.6520 -0.7154 -0.8175
 3534TIP3   OH232236   3.580   2.567   2.114 -1.2400  0.2097  0.3910
 3534TIP3    H132237   3.663   2.587   2.069 -0.3509 -1.3012  1.2840
 3534TIP3    H232238   3.549   2.487   2.072 -0.1475 -1.5149  2.6644
 3535TIP3   OH232239   1.456   3.828   2.082  0.5635 -0.2388 -0.2278
 3535TIP3    H132240   1.531   3.787   2.124  0.5152 -1.5321 -1.3576
 3535TIP3    H232241   1.386   3.763   2.088 -0.2895  0.6884  0.2138
 3536TIP3   OH232242   3.343   0.392   2.961 -0.1895  0.0099 -0.0532
 3536TIP3    H132243   3.392   0.463   2.918 -0.4090  0.5941  0.6472
 3536TIP3    H232244   3.322   0.426   3.048  1.8977 -1.8624  1.2780
 3537TIP3   OH232245   2.220   1.570   1.214 -0.1832 -0.2737  0.1184
 3537TIP3    H132246   2.130   1.541   1.199 -0.1558 -0.4365  0.2754
 3537TIP3    H232247   2.273   1.490   1.213  0.1202 -0.0790 -1.0955
 3538TIP3   OH232248   3.046   3.700   0.344  0.7035  0.8917 -0.6121
 3538TIP3    H132249   3.048   3.637   0.272 -1.3334 -1.2054  1.0254
 3538TIP3    H232250   2.971   3.757   0.325 -0.5239 -0.3525  0.2997
 3539TIP3   OH232251   2.660   4.328   1.882 -0.3699  0.8070  0.3828
 3539TIP3    H132252   2.677   4.279   1.962 -0.7576  0.9297  0.5426
 3539TIP3    H232253   2.576   4.296   1.852  0.0030  0.4060 -0.2486
 3540TIP3   OH232254   5.842   2.793   1.584  0.5536 -0.5017  0.5112
 3540TIP3    H132255   5.926   2.750   1.570  0.5815 -0.3243  0.1269
 3540TIP3    H232256   5.803   2.800   1.497 -0.1525 -1.1807  0.7546
 3541TIP3   OH232257   2.727   4.918   2.729 -0.0242  0.4821  0.3078
 3541TIP3    H132258   2.646   4.947   2.688 -1.1959 -0.6795  1.6767
 3541TIP3    H232259   2.755   4.843   2.676 -2.0516 -1.6245  2.0096
 3542TIP3   OH232260   2.566   5.294   0.602 -0.6905 -0.7316  0.6231
 3542TIP3    H132261   2.563   5.389   0.588  0.7226 -0.7756 -0.1613
 3542TIP3    H232262   2.557   5.257   0.514  0.7077 -1.2460  0.6635
 3543TIP3   OH232263   4.138   2.515   1.448 -0.6023  0.2591  0.2762
 3543TIP3    H132264   4.128   2.437   1.503 -0.0766 -0.1325 -0.1694
 3543TIP3    H232265   4.211   2.562   1.487 -1.5207  1.0380  1.1165
 3544TIP3   OH232266   3.435   6.335   3.531 -0.1388  0.1504 -0.0704
 3544TIP3    H132267   3.510   6.373   3.485  1.0065 -0.5661  1.1554
 3544TIP3    H232268   3.395   6.276   3.466  1.7439 -1.2328 -0.0682
 3545TIP3   OH232269   0.367   6.822   1.500  0.1190  0.0987 -0.5732
 3545TIP3    H132270   0.303   6.782   1.559  1.0505  0.3679  0.6470
 3545TIP3    H232271   0.424   6.750   1.474 -1.8486 -0.6208 -3.3875
 3546TIP3   OH232272   2.662   5.207   3.621 -0.0281 -0.6757  0.4305
 3546TIP3    H132273   2.679   5.302   3.624 -1.1368 -0.2753 -2.7068
 3546TIP3    H232274   2.701   5.174   3.702  1.6518  2.2548  0.9837
 3547TIP3   OH232275   4.321   2.557   3.729 -0.1194 -0.6079 -0.3249
 3547TIP3    H132276   4.274   2.552   3.646  2.1586  0.3804 -1.7379
 3547TIP3    H232277   4.323   2.651   3.750 -1.6230 -0.9155  1.4858
 3548TIP3   OH232278   5.060   6.538   4.090  0.4270 -0.5225 -0.0924
 3548TIP3    H132279   5.034   6.573   4.175  2.1464 -0.8559  0.6027
 3548TIP3    H232280   5.041   6.444   4.096 -2.4037 -0.1571 -1.2811
 3549TIP3   OH232281   4.753   6.576   3.235  0.0458  0.1942 -0.1624
 3549TIP3    H132282   4.775   6.483   3.234  0.8283  0.2869  1.9073
 3549TIP3    H232283   4.658   6.578   3.242 -0.0864 -0.3923 -1.4247
 3550TIP3   OH232284   4.076   3.612   8.732  0.7722 -0.0904 -0.3118
 3550TIP3    H132285   4.148   3.551   8.748  0.0227 -0.7259  0.7588
 3550TIP3    H232286   4.006   3.584   8.791  0.4436  1.8831  0.3383
 3551TIP3   OH232287   0.304   5.827   0.765  0.7294  0.3564 -0.3262
 3551TIP3    H132288   0.340   5.788   0.686 -0.9127  0.1222 -1.0085
 3551TIP3    H232289   0.261   5.754   0.810  1.5335  0.5128  0.7428
 3552TIP3   OH232290   1.920   5.323   8.832 -0.5102  0.1441  0.6308
 3552TIP3    H132291   1.894   5.361   8.749 -0.9295 -0.8682  0.2867
 3552TIP3    H232292   1.885   5.234   8.831  0.8348 -0.4336  1.2125
 3553TIP3   OH232293   4.560   0.247   0.545  0.0955 -0.1226 -0.5046
 3553TIP3    H132294   4.611   0.257   0.625 -0.4147 -0.1955 -0.1676
 3553TIP3    H232295   4.614   0.288   0.477 -0.7347  2.6530  0.3639
 3554TIP3   OH232296   1.935   2.619   3.879 -0.0262  0.3412 -0.1793
 3554TIP3    H132297   2.021   2.659   3.865 -0.7256  0.9183 -3.6311
 3554TIP3    H232298   1.873   2.690   3.864 -1.2367  0.2052  3.3077
 3555TIP3   OH232299   4.846   3.277   3.877  0.4699 -0.4874  0.2455
 3555TIP3    H132300   4.930   3.249   3.838  1.5776  0.6162  1.7431
 3555TIP3    H232301   4.844   3.371   3.863 -1.0202 -0.6143 -0.6075
 3556TIP3   OH232302   0.699   3.878   2.526  0.5669  0.4486 -0.3941
 3556TIP3    H132303   0.751   3.897   2.448  0.8829 -1.9312 -0.8381
 3556TIP3    H232304   0.609   3.878   2.496  0.8074 -2.8669 -1.4269
 3557TIP3   OH232305   2.584   2.396   4.648  0.1429  0.4826 -0.6968
 3557TIP3    H132306   2.539   2.312   4.659 -0.0849  0.5243 -1.3067
 3557TIP3    H232307   2.540   2.438   4.575  0.4327  1.0226 -0.5672
 3558TIP3   OH232308   6.673   2.267   3.300 -0.7643 -0.0924  0.3003
 3558TIP3    H132309   6.694   2.317   3.222 -0.0618 -0.8689 -0.0306
 3558TIP3    H232310   6.684   2.175   3.274  0.4697 -0.3484  1.5692
 3559TIP3   OH232311   4.496   4.352   0.791 -0.1259  0.1490 -0.0883
 3559TIP3    H132312   4.404   4.324   0.791  0.1661 -0.8596 -0.2068
 3559TIP3    H232313   4.493   4.445   0.769 -0.9992 -0.3217 -2.2044
 3560TIP3   OH232314   3.194   2.172   4.622  0.5754  0.2569 -0.5195
 3560TIP3    H132315   3.190   2.157   4.527  1.7737 -2.1533 -0.2746
 3560TIP3    H232316   3.111   2.139   4.655  0.8248 -0.4762 -0.5957
 3561TIP3   OH232317   5.247   0.518   1.028 -0.0239 -0.0111 -0.3640
 3561TIP3    H132318   5.164   0.530   0.982 -0.5990  0.4518  0.7480
 3561TIP3    H232319   5.300   0.593   1.001 -0.4052  0.3314 -0.1745
 3562TIP3   OH232320   0.093   1.116   2.969 -0.1631  0.0659 -0.0402
 3562TIP3    H132321   0.082   1.121   3.064  0.9689 -3.0372  0.3797
 3562TIP3    H232322   0.120   1.204   2.943  2.1780  0.3929  2.9394
 3563TIP3   OH232323   6.308   6.271   3.979  0.1102  0.8918 -0.0435
 3563TIP3    H132324   6.285   6.188   3.937  3.1458  0.1350 -0.4099
 3563TIP3    H232325   6.277   6.338   3.919 -1.1725  0.0061 -0.4003
 3564TIP3   OH232326   2.159   6.204   3.544  0.9749 -0.5921 -0.0827
 3564TIP3    H132327   2.114   6.233   3.465 -1.5489 -1.7301  0.8158
 3564TIP3    H232328   2.154   6.279   3.604  2.3093  0.0426 -0.7279
 3565TIP3   OH232329   3.982   4.299   4.246 -0.1966 -0.1931  0.1791
 3565TIP3    H132330   3.921   4.370   4.227  0.7105  0.2541 -1.2473
 3565TIP3    H232331   3.963   4.232   4.180  0.7617 -0.0902 -0.2152
 3566TIP3   OH232332   4.689   4.702   4.281 -0.0325 -0.0186  0.0184
 3566TIP3    H132333   4.732   4.788   4.280 -0.6969  0.3263  0.6306
 3566TIP3    H232334   4.759   4.641   4.304  0.3291  0.4176  0.0983
 3567TIP3   OH232335   4.986   4.497   2.599  0.3603 -0.2145 -0.0184
 3567TIP3    H132336   5.035   4.579   2.605  0.1161 -0.1170  0.6879
 3567TIP3    H232337   4.926   4.510   2.525 -0.1324  0.4900  0.4998
 3568TIP3   OH232338   4.615   6.533   2.895  0.0685 -0.3354  0.4612
 3568TIP3    H132339   4.543   6.593   2.913 -0.5666 -0.8183 -0.3964
 3568TIP3    H232340   4.600   6.460   2.955 -1.5369 -1.5302 -1.2906
 3569TIP3   OH232341   1.402   0.891   3.250  0.4546  0.3241  0.1660
 3569TIP3    H132342   1.479   0.931   3.211 -0.3540  1.1391 -0.6422
 3569TIP3    H232343   1.394   0.806   3.207  0.4856  0.5470 -0.2830
 3570TIP3   OH232344   0.837   5.468   3.451 -0.8763  0.0464 -0.0665
 3570TIP3    H132345   0.849   5.553   3.492  0.5016  0.4000 -1.1362
 3570TIP3    H232346   0.782   5.486   3.375 -0.2145  0.0616 -0.5437
 3571TIP3   OH232347   1.186   4.821   5.223  0.8142  0.5672  0.0234
 3571TIP3    H132348   1.237   4.817   5.142 -1.0535  1.5400 -1.2818
 3571TIP3    H232349   1.227   4.892   5.273 -0.3974  2.8067 -1.9413
 3572TIP3   OH232350   1.048   2.858   0.003 -0.3077  0.4368  0.4020
 3572TIP3    H132351   1.102   2.784  -0.026  1.9890  2.1931 -0.0932
 3572TIP3    H232352   1.005   2.889  -0.077  2.4334  2.4424 -0.4296
 3573TIP3   OH232353   1.573   2.921   1.627 -0.0655 -0.4396  0.6134
 3573TIP3    H132354   1.542   2.836   1.596 -0.5608 -0.6631  1.6711
 3573TIP3    H232355   1.524   2.985   1.575  1.6857 -0.7424 -1.5550
 3574TIP3   OH232356   2.215   6.051   1.838 -0.4995 -0.0487  0.3144
 3574TIP3    H132357   2.169   6.012   1.913  0.5823  1.2203  1.7074
 3574TIP3    H232358   2.240   6.139   1.869  3.9213 -1.0244  0.1530
 3575TIP3   OH232359   6.445   1.786   0.446  0.3770  0.2862  0.0221
 3575TIP3    H132360   6.381   1.773   0.376 -0.2313 -0.1708  0.6455
 3575TIP3    H232361   6.519   1.830   0.404 -0.2497  0.6048 -0.7583
 3576TIP3   OH232362   4.954   0.273   1.600 -0.0126  0.6873  0.1184
 3576TIP3    H132363   4.859   0.268   1.612 -0.1466  0.3166 -0.9673
 3576TIP3    H232364   4.988   0.199   1.650 -0.5187 -0.5943 -1.3138
 3577TIP3   OH232365   2.789   5.325   1.855  0.0965 -0.0550  0.0180
 3577TIP3    H132366   2.825   5.314   1.767  0.3970 -1.5382  0.3074
 3577TIP3    H232367   2.705   5.280   1.853  0.7109 -1.3083  0.8412
 3578TIP3   OH232368   5.292   4.181   3.538  0.2886 -0.0715  0.3271
 3578TIP3    H132369   5.298   4.273   3.516 -1.0444 -0.1689 -0.5150
 3578TIP3    H232370   5.220   4.147   3.485 -1.1035 -0.9795  2.6454
 3579TIP3   OH232371   1.339   2.424   1.477 -0.7438  0.7161 -0.7033
 3579TIP3    H132372   1.369   2.378   1.398 -1.8474 -0.2421 -0.5851
 3579TIP3    H232373   1.251   2.391   1.492  0.0055 -0.3439  1.8630
 3580TIP3   OH232374   0.010   3.633   1.574  0.8469 -0.4995  0.2221
 3580TIP3    H132375   0.057   3.699   1.625 -0.7434 -0.7657  2.1548
 3580TIP3    H232376  -0.069   3.615   1.625 -0.7317 -0.9971 -2.2269
 3581TIP3   OH232377   5.119   0.837   0.975 -0.0055  0.0645  0.0668
 3581TIP3    H132378   5.187   0.808   0.915  0.3923  0.5678  0.2746
 3581TIP3    H232379   5.046   0.861   0.918  0.5600  1.0606 -0.2641
 3582TIP3   OH232380   2.985   1.675   1.943 -0.2800  0.1718 -0.2285
 3582TIP3    H132381   2.997   1.723   2.025 -3.2833 -0.5752  0.7530
 3582TIP3    H232382   2.963   1.742   1.878 -0.4628  0.5160  0.1871
 3583TIP3   OH232383   1.736   2.503   3.450 -0.4740 -0.2884 -0.4106
 3583TIP3    H132384   1.800   2.515   3.380  0.2469  0.5761  0.3700
 3583TIP3    H232385   1.789   2.500   3.530 -1.3406 -0.5873  0.1617
 3584TIP3   OH232386   0.905   2.595   3.528  0.4356 -0.0578 -0.5556
 3584TIP3    H132387   0.819   2.619   3.496  0.7492  0.2000 -1.2202
 3584TIP3    H232388   0.923   2.659   3.597  0.5588  0.5889 -1.1764
 3585TIP3   OH232389   4.621   5.673   3.916  0.0111  0.2190 -0.2115
 3585TIP3    H132390   4.591   5.761   3.941 -1.1610 -0.9286  2.9019
 3585TIP3    H232391   4.701   5.661   3.967  0.2462 -0.4720 -0.7413
 3586TIP3   OH232392   3.905   3.663   2.565  0.0977 -0.2605  0.3491
 3586TIP3    H132393   3.906   3.661   2.661  0.4955  1.0219  0.3865
 3586TIP3    H232394   3.819   3.697   2.543 -0.3992 -1.5697  0.2076
 3587TIP3   OH232395   2.420   4.042   3.911 -0.2427 -0.1870 -0.4486
 3587TIP3    H132396   2.440   3.992   3.832 -0.9078  0.1364 -0.8228
 3587TIP3    H232397   2.424   3.978   3.982  1.6905 -0.2341 -0.5486
 3588TIP3   OH232398   4.232   4.034   0.941  0.8417  1.3522 -0.1688
 3588TIP3    H132399   4.218   4.073   1.028  1.7143  1.5340 -0.1004
 3588TIP3    H232400   4.284   3.956   0.958 -1.1617 -0.0700 -0.2729
 3589TIP3   OH232401   5.423   5.949   8.867  0.0129  0.4675  0.0371
 3589TIP3    H132402   5.410   5.999   8.947  1.0593  0.9936 -0.1096
 3589TIP3    H232403   5.426   5.858   8.896  0.2753  0.6453  0.5747
 3590TIP3   OH232404   2.085   3.219   0.799 -0.4016 -0.4721  0.0702
 3590TIP3    H132405   2.139   3.170   0.862 -1.7992 -0.2504  1.5035
 3590TIP3    H232406   2.148   3.272   0.750  1.1265 -3.1852 -1.1576
 3591TIP3   OH232407   0.537   5.867   3.590 -0.2459  0.5483 -0.0207
 3591TIP3    H132408   0.459   5.845   3.641 -0.4877  0.2004 -0.5281
 3591TIP3    H232409   0.503   5.906   3.509  0.1366  1.2372  0.1436
 3592TIP3   OH232410   2.206   4.857   8.794  0.1506  0.4316  0.6735
 3592TIP3    H132411   2.163   4.933   8.755 -2.0895 -0.3528  1.4795
 3592TIP3    H232412   2.190   4.786   8.732  2.3777  0.5546 -0.1634
 3593TIP3   OH232413   5.959   3.137   8.788  1.0345  0.1574 -0.2356
 3593TIP3    H132414   5.918   3.063   8.833  1.5448 -0.2993 -0.5037
 3593TIP3    H232415   6.009   3.097   8.716  1.0834  0.7873 -0.5600
 3594TIP3   OH232416   1.468   0.504   3.480  0.0193 -0.2423  0.3699
 3594TIP3    H132417   1.493   0.552   3.401  0.2772  0.9769  1.1530
 3594TIP3    H232418   1.394   0.555   3.515 -0.4249 -1.0630  0.6472
 3595TIP3   OH232419   4.255   2.479   0.521 -0.3802  0.2545  0.1576
 3595TIP3    H132420   4.272   2.568   0.491 -0.0626 -0.5827 -2.4193
 3595TIP3    H232421   4.335   2.453   0.567  0.5868  0.4446 -1.3621
 3596TIP3   OH232422   5.243   3.986   2.565 -0.1555  0.5533  0.4164
 3596TIP3    H132423   5.227   3.952   2.477 -0.3397 -0.1756  0.7240
 3596TIP3    H232424   5.238   3.909   2.622  1.2519  0.8146  0.9154
 3597TIP3   OH232425   4.463   2.567   2.236 -0.4203  0.1779  0.0031
 3597TIP3    H132426   4.474   2.474   2.254  2.4337  0.1198 -1.4414
 3597TIP3    H232427   4.425   2.571   2.149 -1.4100  0.4192  0.4257
 3598TIP3   OH232428   5.093   5.736   1.199  0.3874  0.1194 -0.1255
 3598TIP3    H132429   5.058   5.817   1.239  1.7832 -0.0964  1.6335
 3598TIP3    H232430   5.025   5.671   1.216  0.8398  0.0914  1.7635
 3599TIP3   OH232431   4.354   3.388   3.117  0.0206 -0.2032  0.0008
 3599TIP3    H132432   4.258   3.379   3.117 -0.0592  0.5315  0.7430
 3599TIP3    H232433   4.370   3.473   3.158  0.9996 -0.3708 -0.0133
 3600TIP3   OH232434   6.477   2.832   2.071  0.2927  0.3811  0.1338
 3600TIP3    H132435   6.517   2.768   2.013 -1.5223  0.0158 -0.8063
 3600TIP3    H232436   6.490   2.796   2.159  0.6230 -0.5132 -0.2659
 3601TIP3   OH232437   6.097   1.305   1.970 -0.4840 -0.7387 -0.4491
 3601TIP3    H132438   6.012   1.277   1.934  0.2562 -0.9612 -2.0818
 3601TIP3    H232439   6.149   1.224   1.974  0.6453 -0.1666 -2.3413
 3602TIP3   OH232440   2.607   2.064   0.759 -0.4213 -0.4287  0.6640
 3602TIP3    H132441   2.559   2.081   0.840 -0.8425  0.2438  0.2877
 3602TIP3    H232442   2.589   2.141   0.704  1.3023 -0.0328  0.6047
 3603TIP3   OH232443   6.799   6.293   3.817 -0.2335 -0.5220 -0.2145
 3603TIP3    H132444   6.849   6.272   3.896 -0.9471  0.7178  0.6027
 3603TIP3    H232445   6.866   6.303   3.748  0.5368 -0.1650  0.5608
 3604TIP3   OH232446   1.810   5.090   2.717  0.4244 -0.2652 -0.9245
 3604TIP3    H132447   1.856   5.065   2.797 -1.0195  0.6662  0.2415
 3604TIP3    H232448   1.879   5.116   2.656  1.4653  2.5032  1.2470
 3605TIP3   OH232449   0.815   2.075   0.446 -0.3880  0.2585  0.1687
 3605TIP3    H132450   0.845   1.985   0.437  1.5171  0.7061  1.4277
 3605TIP3    H232451   0.784   2.099   0.359  1.3704 -0.8563 -0.8246
 3606TIP3   OH232452   3.400   3.212   2.492  0.0522 -0.1836 -0.1514
 3606TIP3    H132453   3.342   3.247   2.424  0.5906  1.4599  0.1820
 3606TIP3    H232454   3.486   3.208   2.450  0.0702 -0.7489 -0.0623
 3607TIP3   OH232455   5.729   3.318   3.220 -0.4632  0.3497  0.2704
 3607TIP3    H132456   5.648   3.337   3.268 -1.7628 -0.8324 -1.3407
 3607TIP3    H232457   5.769   3.404   3.206 -2.8302  1.3098 -1.2149
 3608TIP3   OH232458   4.772   6.336   2.294  0.5310 -0.0213  0.1410
 3608TIP3    H132459   4.711   6.357   2.364  0.6521  1.2688 -0.1120
 3608TIP3    H232460   4.716   6.309   2.220  0.3024  0.4420  0.1424
 3609TIP3   OH232461   3.367   1.460   3.578 -0.0470 -0.6937  0.3053
 3609TIP3    H132462   3.423   1.489   3.506  0.2168 -2.0148 -0.0506
 3609TIP3    H232463   3.419   1.478   3.657  0.1802 -0.3783  0.0854
 3610TIP3   OH232464   4.059   3.497   2.179  0.4135 -0.1127 -0.3108
 3610TIP3    H132465   4.078   3.432   2.111  0.8488  0.2929 -0.5857
 3610TIP3    H232466   3.990   3.552   2.142  0.3273 -0.1710 -0.2376
 3611TIP3   OH232467   2.077   5.050   1.831  0.5344  0.2792  0.8473
 3611TIP3    H132468   2.014   5.109   1.873 -0.6790  0.7193 -1.4572
 3611TIP3    H232469   2.028   4.968   1.819 -0.0648  0.9419 -1.8894
 3612TIP3   OH232470   5.500   3.328   3.379  0.2471  0.1698 -0.0896
 3612TIP3    H132471   5.417   3.281   3.379 -1.4771  2.9773 -0.3750
 3612TIP3    H232472   5.506   3.367   3.466  0.8214  0.6698 -0.3459
 3613TIP3   OH232473   1.246   1.925   0.232  0.6736  0.0218  0.2489
 3613TIP3    H132474   1.221   1.993   0.170 -1.1754 -1.4708 -0.7508
 3613TIP3    H232475   1.341   1.929   0.235  0.8825  0.0465 -2.8762
 3614TIP3   OH232476   5.210   5.050   5.209 -0.1534 -0.2328  0.7993
 3614TIP3    H132477   5.268   5.039   5.283  1.5385  0.2043 -0.3980
 3614TIP3    H232478   5.189   4.961   5.181 -0.4688 -0.3944  1.5338
 3615TIP3   OH232479   5.532   3.592   3.281 -0.7410 -0.5900 -0.5407
 3615TIP3    H132480   5.566   3.647   3.351  0.2608 -0.2864 -1.2499
 3615TIP3    H232481   5.545   3.502   3.313  2.5020 -0.5839 -1.4920
 3616TIP3   OH232482   2.912   3.772   0.853  0.2107  0.0147 -0.7066
 3616TIP3    H132483   2.927   3.735   0.766  1.3426 -0.8981 -0.1488
 3616TIP3    H232484   2.820   3.753   0.872  0.0494 -0.0849 -1.5499
 3617TIP3   OH232485   2.593   2.862   0.907  0.1519 -0.7640 -0.5543
 3617TIP3    H132486   2.596   2.880   1.001 -0.1998 -0.9652 -0.5020
 3617TIP3    H232487   2.609   2.947   0.866 -0.2294 -0.5720 -0.3127
 3618TIP3   OH232488   0.323   6.221   4.438 -0.0471 -0.3257  0.0944
 3618TIP3    H132489   0.271   6.281   4.491  0.1385 -0.8196  0.8488
 3618TIP3    H232490   0.297   6.134   4.469  2.1776 -0.5810  1.4290
 3619TIP3   OH232491   6.779   3.539   2.420 -0.0458  0.3565 -0.3656
 3619TIP3    H132492   6.852   3.562   2.476 -0.0978  0.8320 -0.4942
 3619TIP3    H232493   6.808   3.560   2.332  0.3591 -1.1781 -0.6307
 3620TIP3   OH232494   3.970   3.744   4.315  0.5281 -0.0730 -0.1037
 3620TIP3    H132495   4.038   3.722   4.379  1.2555 -1.6267 -1.3402
 3620TIP3    H232496   3.963   3.666   4.260 -0.2830  1.0814 -1.7270
 3621TIP3   OH232497   6.371   4.758   2.899 -0.1949  0.1501 -0.0667
 3621TIP3    H132498   6.350   4.824   2.965 -0.5406 -0.4351  0.4258
 3621TIP3    H232499   6.316   4.683   2.922  0.2804 -0.3540 -0.5407
 3622TIP3   OH232500   1.696   4.389   2.915  0.1200 -0.3260 -0.1030
 3622TIP3    H132501   1.627   4.362   2.976 -0.1063  0.2817 -0.0786
 3622TIP3    H232502   1.755   4.314   2.911 -0.2361 -0.6383  0.3221
 3623TIP3   OH232503   3.651   4.012   4.330 -0.1430 -0.0408 -0.7619
 3623TIP3    H132504   3.733   3.980   4.368  0.1148  1.9318  0.5218
 3623TIP3    H232505   3.582   3.964   4.377  0.2063  1.6005  1.6244
 3624TIP3   OH232506   5.196   1.369   0.531 -0.6081  0.0707  0.7537
 3624TIP3    H132507   5.191   1.295   0.470 -1.5649  0.9154 -0.2347
 3624TIP3    H232508   5.263   1.343   0.595 -0.1863 -1.2036 -0.1644
 3625TIP3   OH232509   0.698   4.197   0.816  0.2549 -0.5950  0.0723
 3625TIP3    H132510   0.677   4.164   0.903 -1.4164 -0.1498 -0.1132
 3625TIP3    H232511   0.613   4.221   0.779  1.0582  0.4518 -1.1866
 3626TIP3   OH232512   1.326   3.669   2.369 -0.7755 -0.2604 -0.2774
 3626TIP3    H132513   1.416   3.684   2.341  0.0843 -1.2389  1.7493
 3626TIP3    H232514   1.299   3.592   2.320 -0.8119  0.4688 -1.4511
 3627TIP3   OH232515   1.355   3.322   3.176 -0.5176  0.4366  0.5743
 3627TIP3    H132516   1.286   3.383   3.148 -2.1469 -1.2943  0.6588
 3627TIP3    H232517   1.432   3.350   3.127 -1.7081  1.3708 -0.8641
 3628TIP3   OH232518   1.570   2.497   2.217  0.0188  0.3490 -0.6366
 3628TIP3    H132519   1.493   2.545   2.188  0.2675  1.9818  1.2165
 3628TIP3    H232520   1.536   2.429   2.275 -0.1537 -0.2663 -1.4407
 3629TIP3   OH232521   3.877   3.300   0.522 -0.0231  0.7255 -0.3722
 3629TIP3    H132522   3.829   3.278   0.602  1.9904  1.4026  1.1278
 3629TIP3    H232523   3.861   3.227   0.463 -0.6102 -0.4054  1.1147
 3630TIP3   OH232524   4.101   2.627   2.876  0.0049 -0.0569 -0.1346
 3630TIP3    H132525   4.067   2.538   2.885  2.5839 -1.2220 -0.9824
 3630TIP3    H232526   4.124   2.653   2.965  0.5820 -0.8507 -0.0361
 3631TIP3   OH232527   6.622   3.631   2.176 -0.1816 -0.4908  0.5692
 3631TIP3    H132528   6.699   3.659   2.127 -1.3844 -0.9328 -1.6689
 3631TIP3    H232529   6.625   3.536   2.174 -0.9445 -0.5107  0.2197
 3632TIP3   OH232530   5.397   0.776   4.391 -0.1600  0.0912 -0.7733
 3632TIP3    H132531   5.467   0.736   4.443 -0.2757  0.2026 -0.5282
 3632TIP3    H232532   5.428   0.864   4.373 -0.8050  0.6005  0.4795
 3633TIP3   OH232533   1.220   5.462   2.797  0.6209  0.2910  0.3590
 3633TIP3    H132534   1.166   5.538   2.819  1.5649  1.6565 -1.6996
 3633TIP3    H232535   1.202   5.398   2.866 -0.4489  2.2618  1.9985
 3634TIP3   OH232536   3.328   5.125   3.455  0.5424 -0.5402 -0.1236
 3634TIP3    H132537   3.345   5.191   3.522 -0.1737 -1.6146  1.1900
 3634TIP3    H232538   3.238   5.142   3.427  1.4564  1.0906 -2.2684
 3635TIP3   OH232539   3.244   0.794   3.630  0.3331  0.0868  0.0323
 3635TIP3    H132540   3.229   0.719   3.688 -0.4494  0.1434 -0.0877
 3635TIP3    H232541   3.312   0.845   3.674 -0.6127  0.3999  1.1612
 3636TIP3   OH232542   5.888   4.991   4.418  0.3457 -0.2996 -0.4913
 3636TIP3    H132543   5.918   5.076   4.451  1.2572 -0.1155 -1.7014
 3636TIP3    H232544   5.795   5.004   4.398 -0.0791 -0.2523  1.3457
 3637TIP3   OH232545   1.300   2.589   3.304  0.0850 -0.1761 -0.0095
 3637TIP3    H132546   1.365   2.575   3.373  0.7990  3.6710  0.2824
 3637TIP3    H232547   1.216   2.591   3.350  0.2790 -0.2395  0.3460
 3638TIP3   OH232548   0.320   1.186   1.373 -0.4171 -0.2847  0.3082
 3638TIP3    H132549   0.237   1.142   1.393  0.1112 -1.0001  1.0140
 3638TIP3    H232550   0.319   1.198   1.278 -1.5518  0.1892  0.3605
 3639TIP3   OH232551   0.405   1.479   3.102 -0.0544  0.4784 -0.2526
 3639TIP3    H132552   0.444   1.492   3.189 -0.1665  0.1456 -0.1509
 3639TIP3    H232553   0.475   1.502   3.041 -0.7667  3.3412 -0.1274
 3640TIP3   OH232554   2.972   3.491   4.312  0.3036  0.4440  0.1106
 3640TIP3    H132555   2.937   3.407   4.342 -0.3898  0.8842  0.5931
 3640TIP3    H232556   3.009   3.473   4.226 -1.9545  0.1042 -0.8661
 3641TIP3   OH232557   3.264   3.143   0.526 -0.5501  0.3378  0.3104
 3641TIP3    H132558   3.295   3.230   0.554  0.0705  0.0996  0.3797
 3641TIP3    H232559   3.308   3.127   0.443  0.3493 -0.4490  0.9149
 3642TIP3   OH232560   2.085   0.897   2.709 -0.0485 -0.5109  0.5424
 3642TIP3    H132561   2.124   0.982   2.729  0.8623 -0.5609 -0.8337
 3642TIP3    H232562   2.107   0.882   2.617 -0.1006 -2.2747  0.7797
 3643TIP3   OH232563   6.209   5.928   1.062 -0.4250 -0.0403 -0.0412
 3643TIP3    H132564   6.173   5.956   0.978 -1.6022 -0.9252  0.1370
 3643TIP3    H232565   6.169   5.988   1.126 -1.3773 -0.8260  0.1225
 3644TIP3   OH232566   0.782   1.465   4.471  0.5833  0.3700  0.2478
 3644TIP3    H132567   0.703   1.446   4.521 -1.0691  0.5541 -2.1246
 3644TIP3    H232568   0.854   1.455   4.534 -1.1057 -2.0468  1.9829
 3645TIP3   OH232569   6.203   3.641   0.091 -0.6161  0.1347  0.1926
 3645TIP3    H132570   6.187   3.556   0.133  0.0455  0.7028  1.6520
 3645TIP3    H232571   6.131   3.696   0.120 -0.0739  0.5755  0.7339
 3646TIP3   OH232572   0.574   3.280   4.008  0.5679 -0.3176 -0.2771
 3646TIP3    H132573   0.535   3.304   3.924 -1.5209 -0.9318  0.4615
 3646TIP3    H232574   0.640   3.214   3.986 -0.6113 -1.1843 -1.3727
 3647TIP3   OH232575   1.205   0.802   8.690  0.3747  0.2768 -0.3401
 3647TIP3    H132576   1.262   0.792   8.614 -1.5184  0.6563 -1.8928
 3647TIP3    H232577   1.127   0.847   8.656 -1.2384 -0.9768  1.4832
 3648TIP3   OH232578   1.859   5.895   2.783 -0.2592  0.4207 -0.6073
 3648TIP3    H132579   1.945   5.898   2.743  0.8508  3.2752  1.5799
 3648TIP3    H232580   1.860   5.816   2.836  1.0614  0.4342 -0.5762
 3649TIP3   OH232581   1.171   4.849   3.591  0.0375  0.0386  0.3150
 3649TIP3    H132582   1.082   4.868   3.562 -0.4467  0.5470  2.0242
 3649TIP3    H232583   1.211   4.936   3.604  0.1442 -0.1637  1.3906
 3650TIP3   OH232584   4.372   3.566   2.141  0.6076  0.1119  0.2247
 3650TIP3    H132585   4.286   3.608   2.138  0.5320 -0.0366 -2.4880
 3650TIP3    H232586   4.431   3.631   2.103  1.1514 -0.8431 -0.6106
 3651TIP3   OH232587   3.206   2.722   3.975 -0.5116  0.3121  0.4473
 3651TIP3    H132588   3.153   2.653   4.015 -0.3384  0.0516  0.2349
 3651TIP3    H232589   3.151   2.759   3.906  0.5809 -1.9489 -1.8051
 3652TIP3   OH232590   0.371   1.791   2.157  0.1597 -0.6412 -0.1803
 3652TIP3    H132591   0.291   1.843   2.163  0.7508  0.7446 -2.7989
 3652TIP3    H232592   0.340   1.702   2.136 -0.7174 -0.3705 -0.0745
 3653TIP3   OH232593   5.290   3.731   4.765 -0.1992  0.1607  0.0217
 3653TIP3    H132594   5.327   3.654   4.722  0.3013  0.3338  0.1391
 3653TIP3    H232595   5.217   3.757   4.708 -1.5621 -1.4701  0.9212
 3654TIP3   OH232596   5.037   5.131   3.341  0.1231  0.3671 -0.5884
 3654TIP3    H132597   5.015   5.056   3.396  0.0640 -2.2916 -3.9001
 3654TIP3    H232598   4.963   5.190   3.349  0.5581  0.6306  2.8083
 3655TIP3   OH232599   4.570   0.253   3.665  0.3179 -0.5932 -0.0398
 3655TIP3    H132600   4.512   0.299   3.604 -2.0247 -1.2340  1.5622
 3655TIP3    H232601   4.600   0.176   3.616 -2.9415 -2.0724  0.0501
 3656TIP3   OH232602   1.388   1.580   0.168  0.2976  0.3361  0.6762
 3656TIP3    H132603   1.439   1.614   0.241  0.9974 -1.5783  1.1543
 3656TIP3    H232604   1.425   1.623   0.090  0.7620  1.0501  1.2807
 3657TIP3   OH232605   2.914   2.845   4.198 -0.2377  0.5444  0.2988
 3657TIP3    H132606   2.878   2.776   4.144  1.2557  0.9170 -1.2449
 3657TIP3    H232607   2.953   2.800   4.273  1.9300 -0.5066 -1.3489
 3658TIP3   OH232608   3.695   3.689   3.841  0.0246 -0.2654  0.5716
 3658TIP3    H132609   3.758   3.620   3.822 -0.4439 -0.5902  0.1691
 3658TIP3    H232610   3.647   3.657   3.918  0.2942 -0.0493  0.8353
 3659TIP3   OH232611   6.068   1.431   2.583 -0.5354 -0.2540  0.3264
 3659TIP3    H132612   6.030   1.359   2.533 -0.2518 -0.6724  0.7098
 3659TIP3    H232613   6.086   1.394   2.670 -0.6383  0.3503  0.6119
 3660TIP3   OH232614   6.670   2.689   1.898  0.0210 -0.3244  0.2481
 3660TIP3    H132615   6.763   2.668   1.910  0.3488  1.2768  0.8672
 3660TIP3    H232616   6.646   2.646   1.816  1.1897 -1.1324  0.3037
 3661TIP3   OH232617   6.092   2.718   0.681  0.0605  0.0262  0.6576
 3661TIP3    H132618   6.155   2.647   0.692  1.0079  0.7138 -0.1245
 3661TIP3    H232619   6.063   2.711   0.590 -1.0152 -0.2901  1.0149
 3662TIP3   OH232620   1.060   3.986   1.084 -0.0102  0.1624 -0.1798
 3662TIP3    H132621   1.034   4.045   1.155  2.0375 -0.4208  1.1375
 3662TIP3    H232622   0.979   3.945   1.056 -1.2512  2.3055  0.0281
 3663TIP3   OH232623   1.106   2.929   2.110  0.2686  0.0636 -0.0048
 3663TIP3    H132624   1.084   2.850   2.060  0.0921  0.5189 -0.6681
 3663TIP3    H232625   1.023   2.975   2.120  0.1219 -0.5095  1.6111
 3664TIP3   OH232626   3.916   3.997   3.132 -0.5729 -0.7500 -0.3027
 3664TIP3    H132627   3.908   4.086   3.098 -0.6806 -0.1079  1.3036
 3664TIP3    H232628   3.826   3.964   3.134 -0.4059 -1.4724 -2.2343
 3665TIP3   OH232629   3.149   0.867   4.385  0.8293  0.0136 -0.5178
 3665TIP3    H132630   3.149   0.857   4.290  0.8790 -0.9092 -0.4271
 3665TIP3    H232631   3.238   0.844   4.412  0.5522 -0.6631 -0.1619
 3666TIP3   OH232632   5.096   0.881   2.634  0.3172 -0.3637  0.1808
 3666TIP3    H132633   5.183   0.910   2.662  0.6110 -1.2400  0.1933
 3666TIP3    H232634   5.091   0.905   2.541  1.0976 -1.5079 -0.1681
 3667TIP3   OH232635   2.888   1.192   2.463  0.5055 -0.1396  0.3603
 3667TIP3    H132636   2.819   1.143   2.418  0.1954  0.3752  0.2735
 3667TIP3    H232637   2.878   1.169   2.555  0.8402 -0.8256  0.2343
 3668TIP3   OH232638   5.501   6.727   3.055 -0.2011  0.3972  0.1291
 3668TIP3    H132639   5.481   6.799   2.996  1.5349  0.5525 -0.2939
 3668TIP3    H232640   5.517   6.770   3.140  0.9783  0.5304 -0.1569
 3669TIP3   OH232641   6.443   1.604   8.623  0.3637  0.1743  0.4083
 3669TIP3    H132642   6.394   1.643   8.695  0.3089 -0.5856  0.8006
 3669TIP3    H232643   6.454   1.512   8.649  2.5569  0.4470  0.6560
 3670TIP3   OH232644   1.439   6.008   2.690 -0.3573  0.2928 -0.2968
 3670TIP3    H132645   1.368   6.031   2.749 -0.3599  0.3204 -0.3105
 3670TIP3    H232646   1.409   5.928   2.646 -0.0935 -0.0740  0.1863
 3671TIP3   OH232647   0.306   2.479   3.066 -0.3217  0.0722 -0.0471
 3671TIP3    H132648   0.362   2.466   3.143 -2.1640  0.0804  1.3814
 3671TIP3    H232649   0.332   2.565   3.032  2.5448 -1.1612 -1.3058
 3672TIP3   OH232650   4.778   3.173   2.881  0.0118  0.1539  0.0578
 3672TIP3    H132651   4.736   3.148   2.798 -0.2269  0.7249 -0.0030
 3672TIP3    H232652   4.705   3.185   2.942  0.1612  0.1026  0.2468
 3673TIP3   OH232653   4.833   1.609   1.458 -0.5054 -0.2336 -0.0191
 3673TIP3    H132654   4.767   1.596   1.391  0.4304 -0.9926 -0.8252
 3673TIP3    H232655   4.793   1.577   1.539 -0.5080 -2.3750 -0.8139
 3674TIP3   OH232656   0.279   1.938   0.210 -0.5097  0.2586  0.0159
 3674TIP3    H132657   0.187   1.925   0.235 -0.5225 -0.8879 -0.5763
 3674TIP3    H232658   0.295   2.031   0.226 -1.3124  0.1494  1.6420
 3675TIP3   OH232659   3.837   1.430   2.966 -0.2185  0.4909 -0.4401
 3675TIP3    H132660   3.900   1.390   3.026 -0.5035 -0.4876 -0.7811
 3675TIP3    H232661   3.885   1.437   2.883 -1.0239 -1.7655 -1.1621
 3676TIP3   OH232662   1.282   4.871   4.649  0.1641  0.0237  0.1958
 3676TIP3    H132663   1.336   4.851   4.573 -0.7987 -0.5315 -0.3605
 3676TIP3    H232664   1.271   4.786   4.693 -0.4674  0.0769  0.1502
 3677TIP3   OH232665   6.321   6.137   2.326 -0.1129 -0.2810  0.2783
 3677TIP3    H132666   6.308   6.189   2.247  0.0927 -0.6941 -0.0308
 3677TIP3    H232667   6.237   6.092   2.339 -0.3275  0.2055  0.6086
 3678TIP3   OH232668   5.530   5.828   3.956 -0.0024 -0.0658 -0.2986
 3678TIP3    H132669   5.529   5.898   4.022 -1.1854  1.0908 -1.4799
 3678TIP3    H232670   5.580   5.758   3.997 -0.8935  0.4952  1.9453
 3679TIP3   OH232671   5.205   5.268   3.919 -0.3694 -0.0292 -0.5778
 3679TIP3    H132672   5.152   5.195   3.950  0.1302  0.0771  0.5933
 3679TIP3    H232673   5.183   5.341   3.978  2.6009 -0.5606  1.4578
 3680TIP3   OH232674   5.435   3.745   2.351  0.5754  0.1078  0.1861
 3680TIP3    H132675   5.486   3.756   2.431 -1.1996 -0.3219  1.4195
 3680TIP3    H232676   5.458   3.658   2.319 -0.8835 -0.9543  1.8906
 3681TIP3   OH232677   5.574   2.399   5.198 -0.3049 -0.2308 -0.0033
 3681TIP3    H132678   5.669   2.393   5.207 -0.3758 -0.7716  0.5089
 3681TIP3    H232679   5.548   2.468   5.259 -0.2492 -0.1763 -0.0421
 3682TIP3   OH232680   6.799   5.334   1.220  0.3321 -0.2966 -0.0488
 3682TIP3    H132681   6.781   5.410   1.275 -0.2014 -1.0111  0.7898
 3682TIP3    H232682   6.814   5.262   1.282 -1.1116 -1.3167 -0.8103
 3683TIP3   OH232683   5.122   4.189   3.262 -0.5882  0.4970 -0.4446
 3683TIP3    H132684   5.164   4.269   3.232 -0.0706  0.5765  0.4509
 3683TIP3    H232685   5.033   4.194   3.228 -0.9200  2.0128  0.5459
 3684TIP3   OH232686   0.900   6.101   1.914 -0.0402 -0.4893 -0.5225
 3684TIP3    H132687   0.976   6.046   1.934  1.1452  0.2479 -2.7107
 3684TIP3    H232688   0.917   6.183   1.959 -1.1705 -1.3555  1.6415
 3685TIP3   OH232689   0.702   5.414   2.099  0.2652  0.4966  0.6238
 3685TIP3    H132690   0.779   5.376   2.056 -0.3466 -0.3404  0.2522
 3685TIP3    H232691   0.629   5.392   2.042 -0.5412 -0.4835  1.9859
 3686TIP3   OH232692   5.657   6.481   3.059  1.0358  0.1409 -0.2879
 3686TIP3    H132693   5.625   6.569   3.075 -0.8727 -0.8441  1.8532
 3686TIP3    H232694   5.733   6.471   3.117  1.2965  0.3696 -0.5842
 3687TIP3   OH232695   4.210   5.178   1.407 -0.7853 -0.6228 -0.1690
 3687TIP3    H132696   4.203   5.224   1.323  1.6093  3.4129  1.5632
 3687TIP3    H232697   4.149   5.223   1.465 -0.2475 -1.3649  1.0183
 3688TIP3   OH232698   6.657   2.835   3.089  0.0996 -0.2100 -0.2404
 3688TIP3    H132699   6.739   2.818   3.042 -0.2302 -0.4830 -0.7259
 3688TIP3    H232700   6.616   2.749   3.097 -1.3613  0.2386 -2.2723
 3689TIP3   OH232701   1.605   0.065   0.951  0.0567  0.3357 -0.2089
 3689TIP3    H132702   1.629   0.151   0.918  0.5835 -0.0666 -0.9121
 3689TIP3    H232703   1.590   0.012   0.872  2.9722 -1.1188  0.0446
 3690TIP3   OH232704   5.601   4.608   3.755 -0.0434 -0.6660  0.0965
 3690TIP3    H132705   5.567   4.530   3.801  0.0236 -1.5446 -1.2898
 3690TIP3    H232706   5.663   4.646   3.817  0.5638 -2.2102  0.4856
 3691TIP3   OH232707   1.108   5.926   2.542  0.2409  0.1865  0.2206
 3691TIP3    H132708   1.061   5.887   2.616  1.9206  3.0798  3.0880
 3691TIP3    H232709   1.046   5.991   2.507  0.0677  0.0152  0.2062
 3692TIP3   OH232710   5.918   1.652   3.909 -0.3875  0.1057  0.5124
 3692TIP3    H132711   5.933   1.561   3.935 -1.5292  0.1711  1.4752
 3692TIP3    H232712   6.003   1.694   3.922  0.3379 -0.9321 -0.5645
 3693TIP3   OH232713   0.801   0.735   2.321  0.2721 -0.2861 -0.1708
 3693TIP3    H132714   0.751   0.694   2.251  0.5798  0.3237 -0.7532
 3693TIP3    H232715   0.868   0.787   2.276  1.1726 -0.7643  0.5878
 3694TIP3   OH232716   3.106   3.157   1.762  0.0136 -0.7848  0.2363
 3694TIP3    H132717   3.185   3.165   1.708 -0.3692 -0.4160 -0.2826
 3694TIP3    H232718   3.047   3.223   1.727  0.7174  1.4459  2.8627
 3695TIP3   OH232719   6.294   6.685   3.857 -0.3733 -0.2883 -0.3468
 3695TIP3    H132720   6.377   6.730   3.871  0.0321 -0.5369 -1.8692
 3695TIP3    H232721   6.243   6.746   3.803 -0.9001 -0.4614 -0.0516
 3696TIP3   OH232722   4.103   0.159   3.349  0.4697  0.0592  0.7355
 3696TIP3    H132723   4.168   0.121   3.408  0.5516  0.5570  0.9738
 3696TIP3    H232724   4.155   0.195   3.277  0.3982 -0.2099  0.5489
 3697TIP3   OH232725   2.462   6.387   2.371 -0.1822 -0.1503 -1.0355
 3697TIP3    H132726   2.388   6.424   2.417 -0.3131  0.2074 -1.5228
 3697TIP3    H232727   2.425   6.315   2.319  0.2721 -1.9236  0.9397
 3698TIP3   OH232728   5.618   4.761   0.510  0.1397  0.1856  0.1871
 3698TIP3    H132729   5.597   4.688   0.453  1.4889 -0.6196  0.6537
 3698TIP3    H232730   5.669   4.821   0.455 -0.6126  0.5825 -0.0845
 3699TIP3   OH232731   6.454   3.448   1.885  0.0377 -0.2235  0.3031
 3699TIP3    H132732   6.373   3.401   1.906 -1.3568  2.1019  0.4574
 3699TIP3    H232733   6.515   3.422   1.954 -1.3956 -0.1524  1.6637
 3700TIP3   OH232734   4.100   4.295   1.946 -0.1436 -0.0009 -0.6784
 3700TIP3    H132735   4.080   4.246   1.866 -0.1517  0.1994 -0.7977
 3700TIP3    H232736   4.045   4.373   1.942 -0.3704 -0.1383 -0.3276
 3701TIP3   OH232737   2.165   5.497   2.974 -0.0069 -0.4042  0.1269
 3701TIP3    H132738   2.165   5.510   3.068  0.3138 -0.6946  0.1715
 3701TIP3    H232739   2.170   5.585   2.937 -2.7941 -0.0635  0.3203
 3702TIP3   OH232740   1.315   2.438   2.448 -0.2764  0.0739 -0.0657
 3702TIP3    H132741   1.297   2.360   2.500  0.0017 -0.2173 -0.4059
 3702TIP3    H232742   1.285   2.416   2.359 -0.8422  0.6025 -0.0165
 3703TIP3   OH232743   1.391   1.562   3.518 -0.3882 -0.3058  0.2467
 3703TIP3    H132744   1.329   1.518   3.458  1.8431 -1.5911 -1.2772
 3703TIP3    H232745   1.397   1.651   3.484 -1.9879  0.1045  0.9424
 3704TIP3   OH232746   1.027   5.533   0.936  0.3127 -0.5951  0.7362
 3704TIP3    H132747   1.105   5.589   0.942 -0.1391  0.3771 -1.4671
 3704TIP3    H232748   0.957   5.593   0.909 -0.3595 -2.0735 -0.9754
 3705TIP3   OH232749   4.212   2.527   1.083  0.3461  0.3415 -0.2409
 3705TIP3    H132750   4.130   2.565   1.053  0.5987  0.6457 -0.5542
 3705TIP3    H232751   4.260   2.506   1.003  0.7752  0.6115 -0.0575
 3706TIP3   OH232752   6.191   0.593   4.842 -0.1220 -0.8142 -0.3675
 3706TIP3    H132753   6.229   0.599   4.754 -0.2840 -0.2261 -0.4035
 3706TIP3    H232754   6.105   0.554   4.828 -0.5186  0.1218 -0.5849
 3707TIP3   OH232755   4.043   0.900   3.406 -0.2320  0.3359  0.1073
 3707TIP3    H132756   4.091   0.853   3.475 -0.3994 -0.0843 -0.0566
 3707TIP3    H232757   4.057   0.847   3.327 -0.2079  0.7072 -0.1417
 3708TIP3   OH232758   4.388   6.818   4.735 -0.0031  0.0769 -0.3462
 3708TIP3    H132759   4.358   6.835   4.824 -0.4721  1.5504 -0.7444
 3708TIP3    H232760   4.446   6.891   4.715  1.4960 -1.1573 -0.6625
 3709TIP3   OH232761   3.487   4.781   5.155  0.1948  0.3285 -0.0340
 3709TIP3    H132762   3.570   4.746   5.124  0.3410  0.2251  0.4624
 3709TIP3    H232763   3.429   4.777   5.079  0.3769 -0.4403 -0.1409
 3710TIP3   OH232764   6.413   3.285   1.033 -0.2912 -0.9702 -0.4121
 3710TIP3    H132765   6.418   3.196   1.068 -2.4906 -1.2053 -0.5636
 3710TIP3    H232766   6.330   3.288   0.986 -1.1078  1.6480  0.9825
 3711TIP3   OH232767   6.056   0.217   3.434  0.2156 -0.1682 -0.0662
 3711TIP3    H132768   6.066   0.209   3.529 -0.5063  0.4904  0.0717
 3711TIP3    H232769   6.145   0.204   3.400  0.1891 -2.4300  0.5300
 3712TIP3   OH232770   1.899   6.302   0.303  0.5112  0.4623 -0.1230
 3712TIP3    H132771   1.904   6.329   0.395  0.4192 -0.8124  0.2739
 3712TIP3    H232772   1.988   6.312   0.270  1.3829 -2.3124  1.0950
 3713TIP3   OH232773   5.844   0.472   3.747  0.8320  0.5088  0.3034
 3713TIP3    H132774   5.815   0.483   3.657 -2.3948 -0.7149  1.0600
 3713TIP3    H232775   5.903   0.397   3.744 -0.5779 -0.6289 -0.6282
 3714TIP3   OH232776   4.690   6.791   1.830  0.0649  0.0155 -0.2581
 3714TIP3    H132777   4.595   6.800   1.838  0.0005 -0.1752 -0.7810
 3714TIP3    H232778   4.722   6.795   1.920 -0.4228  0.2611 -0.0920
 3715TIP3   OH232779   4.554   3.757   2.004  0.5675  0.0764 -0.1481
 3715TIP3    H132780   4.592   3.706   1.933 -0.4960 -1.7494  0.5362
 3715TIP3    H232781   4.628   3.776   2.061  0.8169 -1.8852  0.2596
 3716TIP3   OH232782   4.981   0.185   0.667 -0.0732 -0.2888  0.4156
 3716TIP3    H132783   4.904   0.241   0.663 -0.3783 -0.7464 -0.5153
 3716TIP3    H232784   4.950   0.098   0.640  0.7918 -0.4396 -0.1719
 3717TIP3   OH232785   5.246   1.680   5.145 -0.2187 -0.2920 -0.1331
 3717TIP3    H132786   5.182   1.735   5.190 -1.0484 -0.9707 -0.4600
 3717TIP3    H232787   5.194   1.615   5.099  0.7499 -1.5331  0.4528
 3718TIP3   OH232788   1.024   3.241   2.016  0.0280  0.2556 -0.2393
 3718TIP3    H132789   1.006   3.284   2.100  0.2046  1.1341 -0.6504
 3718TIP3    H232790   0.944   3.254   1.965 -0.4553 -1.0921  0.0975
 3719TIP3   OH232791   3.560   4.443   3.430 -0.2374 -0.7489  0.1898
 3719TIP3    H132792   3.506   4.370   3.461 -2.0550  0.7816  0.7558
 3719TIP3    H232793   3.501   4.517   3.426  1.0426  0.2479 -2.4699
 3720TIP3   OH232794   3.238   5.842   3.653 -0.1328  0.3387 -0.1077
 3720TIP3    H132795   3.164   5.803   3.608 -1.3937  0.4129  1.8072
 3720TIP3    H232796   3.292   5.768   3.680  0.9589  0.3157 -2.1455
 3721TIP3   OH232797   1.828   2.841   2.660 -0.0440 -0.0857  0.1821
 3721TIP3    H132798   1.831   2.765   2.717  2.7758  0.5138  1.0055
 3721TIP3    H232799   1.869   2.812   2.578  2.5482  0.8137  1.0451
 3722TIP3   OH232800   3.335   6.802   0.755 -0.4514 -0.2075  0.4791
 3722TIP3    H132801   3.390   6.761   0.823  0.0349 -1.6075 -0.7096
 3722TIP3    H232802   3.394   6.860   0.708 -0.5762  0.1010  0.7020
 3723TIP3   OH232803   3.299   5.145   4.077  0.1301 -0.0330 -0.1791
 3723TIP3    H132804   3.227   5.085   4.056 -0.2398  0.8009 -1.4212
 3723TIP3    H232805   3.373   5.088   4.095 -0.6717 -0.8953  0.4678
 3724TIP3   OH232806   5.389   3.581   1.600 -0.2912 -0.2836 -0.3739
 3724TIP3    H132807   5.433   3.578   1.685  0.7053  1.6709 -0.7570
 3724TIP3    H232808   5.298   3.559   1.619 -0.1016  0.2073  1.2284
 3725TIP3   OH232809   3.014   3.765   4.461  0.8135  0.4503 -0.2590
 3725TIP3    H132810   2.992   3.858   4.458  0.3018  0.3390 -0.0376
 3725TIP3    H232811   3.053   3.753   4.547 -1.0245  0.0567  0.5595
 3726TIP3   OH232812   3.816   4.717   2.107 -0.6081  0.5189  0.2001
 3726TIP3    H132813   3.760   4.793   2.124 -1.6896  0.0694 -1.1458
 3726TIP3    H232814   3.853   4.695   2.192  0.3473  3.0091  0.5053
 3727TIP3   OH232815   6.265   5.150   3.873 -0.0475  0.7888  0.1135
 3727TIP3    H132816   6.298   5.230   3.915  1.7729  0.2594 -0.1930
 3727TIP3    H232817   6.203   5.113   3.936  1.4554  0.8210  1.6848
 3728TIP3   OH232818   3.500   2.183   1.697 -0.6552 -0.5804 -0.2362
 3728TIP3    H132819   3.540   2.153   1.616 -0.7743 -1.3485 -0.0176
 3728TIP3    H232820   3.406   2.172   1.682 -0.7676  0.6895 -0.5433
 3729TIP3   OH232821   2.541   1.173   3.380 -0.4370 -0.5813  0.4151
 3729TIP3    H132822   2.459   1.153   3.425 -0.0523 -1.8586  0.5910
 3729TIP3    H232823   2.605   1.113   3.419  0.1047 -1.1138 -1.2235
 3730TIP3   OH232824   5.825   6.190   2.425 -0.3238 -0.4576  0.5827
 3730TIP3    H132825   5.887   6.259   2.448 -0.0694 -0.7092  0.6548
 3730TIP3    H232826   5.832   6.182   2.330  0.1431 -0.8554  0.6518
 3731TIP3   OH232827   3.756   2.812   0.328 -0.1587 -0.9256 -0.0023
 3731TIP3    H132828   3.738   2.751   0.399 -2.2444 -0.4771 -0.0862
 3731TIP3    H232829   3.750   2.760   0.248 -2.6351 -0.5533 -0.1228
 3732TIP3   OH232830   0.067   6.517   4.075 -0.1049  0.1600  0.3899
 3732TIP3    H132831   0.062   6.438   4.129 -1.0336 -0.6367 -0.8351
 3732TIP3    H232832   0.092   6.586   4.137  2.7407 -1.3832  1.1484
 3733TIP3   OH232833   2.956   2.415   1.584 -0.3244 -0.1700  0.1517
 3733TIP3    H132834   3.020   2.446   1.520 -0.2336 -0.3073  0.1748
 3733TIP3    H232835   3.009   2.383   1.657 -0.4293  0.2361  0.4161
 3734TIP3   OH232836   2.751   1.558   0.258 -0.6687 -0.0087  0.9295
 3734TIP3    H132837   2.800   1.492   0.210  0.6873 -1.1235  3.6002
 3734TIP3    H232838   2.693   1.598   0.193  0.4552 -1.8861 -1.3726
 3735TIP3   OH232839   3.205   4.509   2.295 -0.1767  0.0496  0.4631
 3735TIP3    H132840   3.248   4.436   2.338 -1.9043 -0.6744  1.0501
 3735TIP3    H232841   3.223   4.584   2.352  0.0313 -0.3004  0.8678
 3736TIP3   OH232842   1.362   2.703   0.411  0.4228  0.2088 -0.1162
 3736TIP3    H132843   1.298   2.748   0.357  1.5543  0.7362 -1.0707
 3736TIP3    H232844   1.394   2.632   0.356  0.4887 -0.2015  0.4381
 3737TIP3   OH232845   4.804   5.951   4.100 -0.1261 -0.0218  0.0356
 3737TIP3    H132846   4.711   5.935   4.088 -0.0969 -0.3070  0.1976
 3737TIP3    H232847   4.831   5.997   4.020 -0.4123  0.0947  0.0058
 3738TIP3   OH232848   4.058   6.718   1.539  0.7359 -0.2247 -0.2222
 3738TIP3    H132849   4.077   6.787   1.603  1.0561 -0.7409  0.2522
 3738TIP3    H232850   4.012   6.650   1.590  2.7459 -1.5340 -0.0389
 3739TIP3   OH232851   6.229   4.018   3.362  0.1234 -0.6241  0.1344
 3739TIP3    H132852   6.309   3.967   3.357  1.6890  1.3472  2.4150
 3739TIP3    H232853   6.238   4.085   3.294  0.6950 -0.1121  0.6976
 3740TIP3   OH232854   3.270   3.337   1.263  0.1168 -0.0412  0.5572
 3740TIP3    H132855   3.365   3.339   1.274  0.1198 -2.5125  1.6371
 3740TIP3    H232856   3.246   3.246   1.279 -2.4904  0.5775  0.5965
 3741TIP3   OH232857   3.137   4.320   1.186  0.3615  0.0684 -0.1760
 3741TIP3    H132858   3.070   4.379   1.152  1.1737  2.4993  2.1393
 3741TIP3    H232859   3.101   4.288   1.269  1.5722  0.4972  0.5315
 3742TIP3   OH232860   5.046   5.223   0.230 -0.2033 -0.1465 -0.0033
 3742TIP3    H132861   5.022   5.299   0.283 -0.2678  0.3537 -0.7368
 3742TIP3    H232862   5.139   5.210   0.248  0.0852  0.8097 -0.7282
 3743TIP3   OH232863   0.724   2.664   1.557 -0.0986  0.2006  0.2429
 3743TIP3    H132864   0.808   2.646   1.514  0.0751  1.7026 -0.1058
 3743TIP3    H232865   0.710   2.758   1.544 -1.2058  0.2309  1.4290
 3744TIP3   OH232866   4.128   4.481   3.172  0.5016  0.0705  0.1075
 3744TIP3    H132867   4.218   4.512   3.183  0.8070 -0.7475 -0.0507
 3744TIP3    H232868   4.077   4.560   3.154  1.6720  0.2298 -2.9720
 3745TIP3   OH232869   3.046   0.389   3.306 -0.0920  0.3068  0.0543
 3745TIP3    H132870   2.967   0.401   3.253 -0.0973 -2.2740 -0.6543
 3745TIP3    H232871   3.021   0.324   3.372  0.6246  1.6991  1.7743
 3746TIP3   OH232872   5.781   5.379   4.324  0.6532 -0.1046 -0.2091
 3746TIP3    H132873   5.764   5.328   4.403  0.8485 -1.5525 -1.0776
 3746TIP3    H232874   5.825   5.458   4.356  0.0222 -0.2929  1.1972
 3747TIP3   OH232875   1.290   1.040   0.431  0.2337  0.1069  0.1235
 3747TIP3    H132876   1.369   1.091   0.417 -1.0921  2.5951  1.0952
 3747TIP3    H232877   1.247   1.081   0.506 -0.4232 -3.1647  1.7085
 3748TIP3   OH232878   3.063   0.085   0.879  0.0084  0.3224  0.3078
 3748TIP3    H132879   3.081   0.000   0.839 -1.3108 -1.0791  2.5089
 3748TIP3    H232880   3.080   0.148   0.809 -1.3029 -1.8954 -2.1920
 3749TIP3   OH232881   5.300   5.847   2.174 -0.1241  0.6338  0.2225
 3749TIP3    H132882   5.358   5.806   2.239 -0.4187 -0.4660 -0.1948
 3749TIP3    H232883   5.297   5.939   2.200  1.9413  0.7678  0.1539
 3750TIP3   OH232884   0.277   3.647   1.999  0.4047 -0.0673 -0.5259
 3750TIP3    H132885   0.359   3.696   1.991  1.2702 -1.2837  0.5248
 3750TIP3    H232886   0.304   3.558   2.021 -1.2172 -0.0735  1.8598
 3751TIP3   OH232887   4.373   5.077   0.299 -0.2870 -0.2676  0.4896
 3751TIP3    H132888   4.379   5.130   0.220 -1.5730 -0.1015  0.4828
 3751TIP3    H232889   4.450   5.101   0.351  1.1267 -1.1016 -1.1200
 3752TIP3   OH232890   6.450   5.960   1.209 -0.2713 -0.0501 -0.1250
 3752TIP3    H132891   6.367   5.922   1.180 -0.9341  0.4870  0.9698
 3752TIP3    H232892   6.428   6.007   1.290  1.2735 -0.6482  0.6947
 3753TIP3   OH232893   6.557   2.211   1.717  0.2731  0.0414  0.1050
 3753TIP3    H132894   6.471   2.223   1.757  0.0695  1.4813 -0.6760
 3753TIP3    H232895   6.619   2.233   1.786  0.0087 -0.4091  0.4923
 3754TIP3   OH232896   3.193   3.704   1.976 -0.1623 -0.1798 -0.0743
 3754TIP3    H132897   3.204   3.610   1.965  1.0764 -0.1337  0.6273
 3754TIP3    H232898   3.187   3.717   2.070 -0.8443  0.4037 -0.1886
 3755TIP3   OH232899   3.374   5.690   2.970 -0.2369 -0.0910  0.0623
 3755TIP3    H132900   3.293   5.645   2.948 -1.1139  0.9702  0.9993
 3755TIP3    H232901   3.437   5.659   2.905 -1.6486 -0.1353 -1.3488
 3756TIP3   OH232902   4.394   0.283   3.879 -0.0954 -0.4546 -0.0554
 3756TIP3    H132903   4.454   0.252   3.811 -0.9961 -0.2236 -0.9712
 3756TIP3    H232904   4.410   0.224   3.953  1.7848  0.0620 -0.0027
 3757TIP3   OH232905   0.488   0.890   0.699 -0.1904 -0.7743  0.4626
 3757TIP3    H132906   0.481   0.880   0.604 -0.7331 -2.9239  0.6742
 3757TIP3    H232907   0.400   0.916   0.727  0.6806  3.1708  0.1587
 3758TIP3   OH232908   5.005   4.423   2.928  0.5770 -0.1337  0.9097
 3758TIP3    H132909   5.004   4.514   2.898  2.0656 -0.5955 -0.6904
 3758TIP3    H232910   5.097   4.398   2.926  0.1409 -1.8641  0.7191
 3759TIP3   OH232911   3.888   5.904   3.433  0.2833  0.1411 -0.7792
 3759TIP3    H132912   3.912   5.991   3.463  0.9034 -0.5220  0.7760
 3759TIP3    H232913   3.821   5.919   3.366  0.2894  1.7883 -0.4616
 3760TIP3   OH232914   4.528   5.797   3.500 -0.0493  0.2826 -0.0038
 3760TIP3    H132915   4.550   5.879   3.455 -0.3234  0.7792  0.7316
 3760TIP3    H232916   4.435   5.784   3.483 -0.1958  0.5667  0.5409
 3761TIP3   OH232917   3.626   2.908   0.582 -0.2322 -0.1035  0.1000
 3761TIP3    H132918   3.678   2.897   0.661 -2.4888  0.4677  1.7990
 3761TIP3    H232919   3.667   2.981   0.536  0.9357 -0.2215  0.9056
 3762TIP3   OH232920   4.918   6.707   3.040  0.1948 -0.4337  0.0629
 3762TIP3    H132921   4.954   6.624   3.006 -2.0047 -1.5313  0.2387
 3762TIP3    H232922   4.864   6.681   3.114  0.8363  1.3943  1.2218
 3763TIP3   OH232923   1.646   1.445   1.022 -0.1662  0.3313 -0.8144
 3763TIP3    H132924   1.734   1.482   1.029 -0.6499  1.3017  0.6691
 3763TIP3    H232925   1.593   1.516   0.987 -0.3116 -0.3518 -2.0052
 3764TIP3   OH232926   2.386   0.225   3.693  0.3061 -0.0305 -0.6945
 3764TIP3    H132927   2.306   0.276   3.707  0.3862  0.0190 -0.4260
 3764TIP3    H232928   2.416   0.251   3.606  0.4709  0.5446 -0.4671
 3765TIP3   OH232929   0.539   5.537   0.892  0.0625 -0.3432  0.0324
 3765TIP3    H132930   0.528   5.620   0.938  0.3784 -1.9516  3.2550
 3765TIP3    H232931   0.450   5.510   0.868 -0.2197  0.0561  0.6229
 3766TIP3   OH232932   6.420   2.124   4.470  0.0175  0.0407 -0.4305
 3766TIP3    H132933   6.462   2.168   4.397 -1.5264 -0.3720 -1.6212
 3766TIP3    H232934   6.449   2.173   4.547 -0.8186  2.5565 -1.5870
 3767TIP3   OH232935   3.550   5.654   8.688  0.5011 -0.4529 -0.1727
 3767TIP3    H132936   3.458   5.652   8.716  0.0009  1.0649 -1.5512
 3767TIP3    H232937   3.584   5.735   8.726  1.0044 -0.5115 -0.4921
 3768TIP3   OH232938   6.693   1.612   1.795 -0.5059  0.3733 -0.2384
 3768TIP3    H132939   6.661   1.541   1.850  0.6101 -0.4241 -0.5657
 3768TIP3    H232940   6.615   1.650   1.756 -1.1339 -0.5939  0.0537
 3769TIP3   OH232941   4.866   6.258   3.508 -0.4960 -0.0528 -0.3712
 3769TIP3    H132942   4.878   6.336   3.563 -1.1322  0.1122 -0.4666
 3769TIP3    H232943   4.892   6.185   3.565 -1.8324  0.0504  0.3995
 3770TIP3   OH232944   2.569   2.247   2.284  0.7893  0.2347  0.2070
 3770TIP3    H132945   2.518   2.168   2.303 -0.7629  1.1529  0.0192
 3770TIP3    H232946   2.504   2.317   2.279  1.6973  1.0318 -2.8363
 3771TIP3   OH232947   3.399   2.031   2.756 -0.5380  0.6398 -0.4960
 3771TIP3    H132948   3.433   1.978   2.828  1.3563  0.3642 -1.5448
 3771TIP3    H232949   3.395   2.120   2.793  1.7528  0.7630 -0.4016
 3772TIP3   OH232950   4.210   1.245   2.407  0.5374  0.2673 -0.1975
 3772TIP3    H132951   4.281   1.306   2.427 -0.8972  1.7128  0.7528
 3772TIP3    H232952   4.176   1.219   2.492  0.6199 -1.2976 -0.6150
 3773TIP3   OH232953   3.209   0.736   1.012  0.2027  0.1872  0.5182
 3773TIP3    H132954   3.267   0.703   0.944  0.2085  0.2672  0.4844
 3773TIP3    H232955   3.176   0.820   0.977 -0.8549 -0.4124  0.0152
 3774TIP3   OH232956   3.005   4.670   0.878  0.0711 -0.3218  0.2122
 3774TIP3    H132957   2.993   4.744   0.938 -2.5270 -0.0948 -0.4652
 3774TIP3    H232958   2.959   4.696   0.798 -1.8024 -2.9985  0.2883
 3775TIP3   OH232959   3.703   4.359   3.110  0.1186  0.4093 -0.0380
 3775TIP3    H132960   3.624   4.306   3.117  1.2092 -1.2844  0.2901
 3775TIP3    H232961   3.703   4.391   3.020 -1.2146  0.9482  0.1326
 3776TIP3   OH232962   1.780   2.985   1.805  0.1234  0.0700  0.2922
 3776TIP3    H132963   1.698   2.967   1.758  0.0016  0.6870  0.2654
 3776TIP3    H232964   1.779   3.079   1.820  0.5859  0.0052  0.7553
 3777TIP3   OH232965   2.598   6.524   3.848 -0.2058  0.0568  0.1693
 3777TIP3    H132966   2.591   6.543   3.941 -1.1244 -1.2927  0.4083
 3777TIP3    H232967   2.513   6.487   3.825 -0.3354  1.2297 -1.4350
 3778TIP3   OH232968   6.495   4.683   3.714  0.2689 -0.1128  0.4095
 3778TIP3    H132969   6.424   4.739   3.747  0.2582 -0.4739  0.9929
 3778TIP3    H232970   6.533   4.643   3.791  1.3086  0.2970  0.1205
 3779TIP3   OH232971   5.374   1.667   2.616  0.2328 -0.0485  0.5719
 3779TIP3    H132972   5.414   1.587   2.582 -0.4531  0.2852 -1.1214
 3779TIP3    H232973   5.284   1.641   2.638 -0.3768  0.4651 -1.1194
 3780TIP3   OH232974   4.918   3.876   2.711  0.2356 -0.0168 -1.0556
 3780TIP3    H132975   4.862   3.800   2.698 -2.7863  1.8170  0.0362
 3780TIP3    H232976   4.940   3.905   2.623 -0.7997 -0.6686 -1.5558
 3781TIP3   OH232977   1.548   6.001   2.335 -0.7280  0.3056 -0.1749
 3781TIP3    H132978   1.520   5.926   2.283  1.0094 -0.6085  0.1374
 3781TIP3    H232979   1.601   5.964   2.406 -0.0244  1.7912  0.1286
 3782TIP3   OH232980   5.016   3.014   0.784  0.1533 -0.4288 -0.3794
 3782TIP3    H132981   5.065   3.001   0.865 -1.4326 -0.2451  0.6595
 3782TIP3    H232982   5.082   3.012   0.715  2.0405  2.7169  1.1376
 3783TIP3   OH232983   2.310   1.658   3.952 -0.1587 -0.0792  0.3215
 3783TIP3    H132984   2.336   1.608   4.030  0.0808  0.9315  0.8987
 3783TIP3    H232985   2.240   1.715   3.983  0.5044  0.9269  0.0003
 3784TIP3   OH232986   4.630   4.723   0.595 -0.2657 -0.2062 -0.3332
 3784TIP3    H132987   4.679   4.660   0.647  0.1888  1.2918  1.1204
 3784TIP3    H232988   4.672   4.807   0.612 -2.0808  0.8262 -0.6297
 3785TIP3   OH232989   0.464   3.174   1.585  0.1292  0.5139 -0.3155
 3785TIP3    H132990   0.418   3.216   1.658 -1.1207  0.7211 -1.1921
 3785TIP3    H232991   0.525   3.242   1.554 -1.9426  1.8297 -1.7840
 3786TIP3   OH232992   3.367   4.269   3.518  0.6205 -0.2091  0.2696
 3786TIP3    H132993   3.285   4.221   3.506 -0.1194  1.3813 -1.7219
 3786TIP3    H232994   3.376   4.280   3.612 -2.6371  1.4051  0.5238
 3787TIP3   OH232995   6.684   2.886   2.754 -0.5147 -0.8969 -0.4882
 3787TIP3    H132996   6.675   2.973   2.714 -2.4910 -0.6264  0.3804
 3787TIP3    H232997   6.778   2.875   2.768 -0.2310  1.2048 -0.4154
 3788TIP3   OH232998   4.462   4.131   1.715  0.4468  0.5354 -0.9448
 3788TIP3    H132999   4.403   4.204   1.732  0.8705  1.0464 -1.6192
 3788TIP3    H233000   4.536   4.170   1.668  1.0587 -0.1842 -0.6141
 3789TIP3   OH233001   0.494   3.681   8.670  0.2293  0.5253  0.9158
 3789TIP3    H133002   0.399   3.664   8.675  0.3063  0.0909  0.9681
 3789TIP3    H233003   0.529   3.644   8.751  0.5955 -0.3879  0.3500
 3790TIP3   OH233004   6.205   2.726   8.771 -0.2489  0.4057  0.1987
 3790TIP3    H133005   6.169   2.716   8.859  1.5655 -0.1333  0.9155
 3790TIP3    H233006   6.290   2.768   8.784 -0.0529  0.5287 -1.3211
 3791TIP3   OH233007   0.551   6.293   2.651 -0.9076  0.6297 -0.5128
 3791TIP3    H133008   0.492   6.218   2.652  0.0028 -0.1110 -0.5062
 3791TIP3    H233009   0.494   6.369   2.635 -2.0930  0.1743  1.2370
 3792TIP3   OH233010   3.742   6.639   1.398  0.1296  0.2353  0.4223
 3792TIP3    H133011   3.767   6.547   1.406  0.0929  0.1141 -0.6713
 3792TIP3    H233012   3.825   6.686   1.405  0.2186  0.0779  0.4325
 3793TIP3   OH233013   2.872   0.767   1.128 -0.6463 -0.0246  0.0724
 3793TIP3    H133014   2.904   0.815   1.052 -0.5122  0.5491  0.4851
 3793TIP3    H233015   2.939   0.781   1.195 -0.2650 -1.3741 -0.0149
 3794TIP3   OH233016   4.131   1.561   4.476  0.2278  0.1102  0.3179
 3794TIP3    H133017   4.099   1.572   4.566 -0.6479  0.3748 -0.0174
 3794TIP3    H233018   4.136   1.650   4.442 -2.6657 -0.1208 -0.9765
 3795TIP3   OH233019   3.654   4.080   1.625  0.5572 -0.3315  0.1127
 3795TIP3    H133020   3.601   4.001   1.631 -1.3020  0.8388  6.3624
 3795TIP3    H233021   3.743   4.050   1.645  0.3268 -1.1173  0.0099
 3796TIP3   OH233022   5.238   0.110   2.205 -0.5099 -0.1116 -0.1674
 3796TIP3    H133023   5.157   0.096   2.255 -0.3185  0.1082  0.2092
 3796TIP3    H233024   5.242   0.204   2.190  0.9122  0.2509  1.9875
 3797TIP3   OH233025   5.767   6.645   2.554  0.0645  0.0614  0.3977
 3797TIP3    H133026   5.691   6.703   2.549 -0.1146 -0.1659  0.4927
 3797TIP3    H233027   5.841   6.704   2.567  0.0072  0.3459 -0.5112
 3798TIP3   OH233028   0.940   1.747   2.096 -0.6208  0.0338 -0.3225
 3798TIP3    H133029   0.888   1.820   2.131 -0.8771  0.2222 -1.0958
 3798TIP3    H233030   0.876   1.679   2.077 -0.1588 -1.7147  3.3653
 3799TIP3   OH233031   6.454   4.141   2.035  0.3512  0.1271 -0.1669
 3799TIP3    H133032   6.403   4.098   1.966  0.4475  0.4435 -0.4407
 3799TIP3    H233033   6.526   4.081   2.053  0.7061  0.3401 -0.8238
 3800TIP3   OH233034   0.175   5.105   3.418 -0.1605  0.0782  0.6406
 3800TIP3    H133035   0.137   5.169   3.359 -0.5893 -0.1426  0.6689
 3800TIP3    H233036   0.253   5.073   3.373 -0.1631  0.3331  0.4563
 3801TIP3   OH233037   0.587   2.117   3.756 -0.4373  0.0749  0.2917
 3801TIP3    H133038   0.614   2.208   3.771  0.4432 -0.0885 -0.2741
 3801TIP3    H233039   0.666   2.065   3.771 -0.9574 -0.6159  0.7031
 3802TIP3   OH233040   0.483   1.436   1.232  0.2908  0.0276 -0.4113
 3802TIP3    H133041   0.520   1.470   1.150  0.0947 -0.2285 -0.6068
 3802TIP3    H233042   0.422   1.368   1.204 -0.9541  0.9875 -0.1460
 3803TIP3   OH233043   5.964   0.940   2.665  0.1377  0.4504  0.6309
 3803TIP3    H133044   6.017   0.974   2.737  2.3268 -1.4164  0.0240
 3803TIP3    H233045   5.945   0.849   2.691  0.5359 -0.0960 -0.8895
 3804TIP3   OH233046   0.050   2.432   2.951 -0.6363  0.9367  0.7129
 3804TIP3    H133047   0.139   2.464   2.966 -0.4317  0.7382 -0.0395
 3804TIP3    H233048  -0.002   2.471   3.022 -0.0430  1.4328  0.8816
 3805TIP3   OH233049   4.569   1.802   1.452  0.3035 -0.1562 -0.0983
 3805TIP3    H133050   4.582   1.896   1.468 -2.1441  0.0211  1.3597
 3805TIP3    H233051   4.616   1.758   1.522 -0.3646  0.1059  0.5253
 3806TIP3   OH233052   2.301   6.584   2.291 -0.8542 -0.1442 -0.0466
 3806TIP3    H133053   2.304   6.599   2.196  1.0175  2.2545  0.3171
 3806TIP3    H233054   2.304   6.671   2.329  0.9048 -1.1322  2.2608
 3807TIP3   OH233055   2.946   1.274   0.493  1.1617  0.5362 -0.7920
 3807TIP3    H133056   3.038   1.258   0.469  1.7723 -1.7888  2.3367
 3807TIP3    H233057   2.895   1.238   0.421  2.7272  0.1821 -1.7606
 3808TIP3   OH233058   2.006   3.718   2.858 -0.9578  0.4389  0.7328
 3808TIP3    H133059   1.916   3.731   2.827 -0.6363 -0.6274 -0.7230
 3808TIP3    H233060   2.059   3.775   2.803 -0.5948 -0.0097  0.6113
 3809TIP3   OH233061   5.884   1.399   1.478  0.2763  0.5043 -0.2989
 3809TIP3    H133062   5.927   1.332   1.532  0.1743  0.0697 -0.7450
 3809TIP3    H233063   5.799   1.361   1.457  1.1422 -0.3389 -2.6072
 3810TIP3   OH233064   5.417   4.825   2.804 -0.2909 -0.5378 -0.6410
 3810TIP3    H133065   5.453   4.891   2.863  1.1348 -1.6658 -0.2020
 3810TIP3    H233066   5.377   4.876   2.733 -0.3617  0.7985  0.3181
 3811TIP3   OH233067   3.511   0.515   0.488  0.1960 -0.2284 -0.1333
 3811TIP3    H133068   3.424   0.532   0.525  0.5634 -1.7782  1.5829
 3811TIP3    H233069   3.503   0.542   0.396 -2.1590 -0.5222 -0.0872
 3812TIP3   OH233070   1.738   6.256   2.698 -0.1212  0.3399 -0.3959
 3812TIP3    H133071   1.647   6.276   2.679 -0.7772 -1.6485  0.3867
 3812TIP3    H233072   1.782   6.256   2.613 -0.5877  2.3178 -0.6812
 3813TIP3   OH233073   0.667   3.162   2.111 -0.0091  0.3869  0.2639
 3813TIP3    H133074   0.724   3.221   2.161 -1.0498  0.8481  0.9403
 3813TIP3    H233075   0.580   3.175   2.149 -0.3301 -1.3435  0.1895
 3814TIP3   OH233076   4.363   1.406   2.968 -0.0683  0.3371 -0.1901
 3814TIP3    H133077   4.381   1.362   3.051  0.5877 -0.1304 -0.5677
 3814TIP3    H233078   4.439   1.463   2.955  0.8599 -1.1030 -1.4495
 3815TIP3   OH233079   5.295   5.183   0.829 -0.2987 -0.7688 -0.1529
 3815TIP3    H133080   5.373   5.194   0.774 -1.2885 -0.5165 -1.5722
 3815TIP3    H233081   5.229   5.239   0.787 -0.8160  0.2621  1.9197
 3816TIP3   OH233082   5.978   2.036   3.859  0.3508 -0.4844  0.1082
 3816TIP3    H133083   5.888   2.051   3.887  0.3683  2.9899 -1.2067
 3816TIP3    H233084   6.029   2.035   3.940 -0.7114 -1.6701  0.8039
 3817TIP3   OH233085   4.600   0.519   2.669 -0.4631 -0.3061 -0.3032
 3817TIP3    H133086   4.621   0.588   2.606  1.0975  0.6092  1.1352
 3817TIP3    H233087   4.683   0.500   2.712 -1.4020 -1.1437  1.2320
 3818TIP3   OH233088   5.674   6.682   0.657  0.1609 -0.2458  0.2196
 3818TIP3    H133089   5.637   6.679   0.569  0.0709  0.4948  0.2239
 3818TIP3    H233090   5.765   6.710   0.644  0.3515 -0.8061  0.3118
 3819TIP3   OH233091   5.411   5.380   1.083  0.5586  0.3131  0.3179
 3819TIP3    H133092   5.393   5.319   1.011 -2.9885  0.6887  0.7018
 3819TIP3    H233093   5.439   5.460   1.039 -0.8060  0.2973 -0.6680
 3820TIP3   OH233094   5.384   2.329   4.192 -0.5730 -0.1911  0.4267
 3820TIP3    H133095   5.328   2.253   4.180 -0.2630 -0.5894  1.4213
 3820TIP3    H233096   5.471   2.293   4.209 -0.1637  0.4093 -0.3775
 3821TIP3   OH233097   5.956   1.265   0.842  0.1278 -0.5227  0.5603
 3821TIP3    H133098   5.982   1.202   0.909  2.5870 -0.9897 -0.7330
 3821TIP3    H233099   5.965   1.218   0.759 -0.9516  0.6191 -0.2404
 3822TIP3   OH233100   5.306   5.969   3.865 -0.3629 -0.4007 -0.2023
 3822TIP3    H133101   5.323   6.014   3.782 -1.7316 -1.4588 -1.1267
 3822TIP3    H233102   5.391   5.934   3.892  0.7316  2.5763  0.5303
 3823TIP3   OH233103   4.253   5.826   2.551 -0.5208  0.1335  0.1498
 3823TIP3    H133104   4.252   5.838   2.456 -2.5043 -0.8215 -0.0036
 3823TIP3    H233105   4.267   5.733   2.563  2.8104  0.6385  0.9474
 3824TIP3   OH233106   2.031   0.341   2.088 -0.1303  0.3395 -0.1954
 3824TIP3    H133107   2.028   0.426   2.046  0.7123  0.2195 -0.5247
 3824TIP3    H233108   2.049   0.359   2.180  1.0768  0.5016 -0.4375
 3825TIP3   OH233109   6.318   1.787   2.403 -0.8617 -0.1778 -0.0225
 3825TIP3    H133110   6.382   1.720   2.427 -2.2384 -1.7009 -0.3922
 3825TIP3    H233111   6.250   1.780   2.470 -1.3126  0.4374 -0.4049
 3826TIP3   OH233112   3.638   1.288   1.172  0.1312  0.1312  0.4240
 3826TIP3    H133113   3.622   1.250   1.086 -0.7158  1.1711  0.1040
 3826TIP3    H233114   3.605   1.222   1.234  0.9680 -0.7212 -0.0246
 3827TIP3   OH233115   5.774   4.215   4.699 -0.4997 -0.0367  0.5122
 3827TIP3    H133116   5.766   4.294   4.646  1.4904  0.1322  0.3751
 3827TIP3    H233117   5.838   4.238   4.766  0.0015 -1.4767  0.5625
 3828TIP3   OH233118   6.628   5.231   3.459 -0.2644  0.1834 -0.0582
 3828TIP3    H133119   6.575   5.227   3.539 -1.9101  2.5219 -0.9545
 3828TIP3    H233120   6.708   5.182   3.482 -0.3620  1.3036  3.2470
 3829TIP3   OH233121   0.473   1.883   0.855 -0.9555 -0.3736 -0.2701
 3829TIP3    H133122   0.438   1.904   0.768 -0.4008  1.5309 -0.0892
 3829TIP3    H233123   0.438   1.952   0.912  0.8773  0.0179  0.4442
 3830TIP3   OH233124   3.220   3.348   4.907 -0.3072  0.0461 -0.2789
 3830TIP3    H133125   3.160   3.292   4.858 -2.1678  0.4119  1.4237
 3830TIP3    H233126   3.170   3.374   4.984  1.2556  2.3079  0.0670
 3831TIP3   OH233127   0.703   4.724   2.574  0.5521  0.2041 -0.0751
 3831TIP3    H133128   0.738   4.654   2.519  0.3577  0.6506 -0.7792
 3831TIP3    H233129   0.613   4.736   2.543  0.6030  0.8058  0.0001
 3832TIP3   OH233130   3.734   3.446   4.188 -0.0339 -0.3263  0.9940
 3832TIP3    H133131   3.710   3.536   4.210 -1.2290 -0.6372  1.0351
 3832TIP3    H233132   3.826   3.439   4.213  0.1123  0.9140  0.8842
 3833TIP3   OH233133   6.573   6.574   2.312 -0.0537 -0.4834 -0.1331
 3833TIP3    H133134   6.553   6.495   2.362  1.1887 -1.0419 -0.4711
 3833TIP3    H233135   6.525   6.562   2.230  0.0496 -0.8427 -0.1455
 3834TIP3   OH233136   3.871   3.434   2.753 -0.0231  0.8370  0.1072
 3834TIP3    H133137   3.859   3.511   2.807 -0.9624  0.3028  0.6838
 3834TIP3    H233138   3.894   3.364   2.815 -1.3359  0.1668 -0.1249
 3835TIP3   OH233139   0.210   0.242   3.273  0.0798 -0.3257 -0.1950
 3835TIP3    H133140   0.281   0.242   3.337  0.4945 -2.4995 -0.5509
 3835TIP3    H233141   0.135   0.280   3.320  0.8872 -0.1005  0.9426
 3836TIP3   OH233142   5.593   5.011   4.350 -0.1102  0.7493 -0.1699
 3836TIP3    H133143   5.525   5.027   4.416  0.9738  1.1504  0.8861
 3836TIP3    H233144   5.552   4.949   4.289 -0.6068 -1.0641  1.8369
 3837TIP3   OH233145   3.872   3.962   1.769 -0.5491 -0.5258 -0.0246
 3837TIP3    H133146   3.947   3.923   1.814  0.6737 -0.7492 -2.1129
 3837TIP3    H233147   3.890   4.057   1.771 -0.7714 -0.4943  0.4290
 3838TIP3   OH233148   6.578   1.604   3.712  0.4286 -0.1861  0.2199
 3838TIP3    H133149   6.614   1.610   3.801  0.6266 -1.5558  0.2528
 3838TIP3    H233150   6.568   1.510   3.696 -0.8235  0.0780 -0.7315
 3839TIP3   OH233151   4.461   1.085   3.389  0.0776  0.0025 -0.7244
 3839TIP3    H133152   4.468   0.994   3.362 -2.7703 -0.0949 -1.3710
 3839TIP3    H233153   4.552   1.116   3.391  1.3230 -3.2839  1.2988
 3840TIP3   OH233154   2.887   5.737   2.279 -0.0990  0.2801 -0.2534
 3840TIP3    H133155   2.874   5.733   2.374  0.1963  1.7102 -0.1240
 3840TIP3    H233156   2.981   5.732   2.267 -0.1747 -0.5666 -0.5256
 3841TIP3   OH233157   2.505   3.934   2.382  0.3805 -0.1699  0.4800
 3841TIP3    H133158   2.463   4.010   2.343  2.1105  0.6594  0.1350
 3841TIP3    H233159   2.498   3.949   2.477  1.6454  1.0089  0.4191
 3842TIP3   OH233160   6.531   0.690   1.999  0.5950 -0.1690  0.5351
 3842TIP3    H133161   6.626   0.676   2.002  0.9698  1.4916 -1.2787
 3842TIP3    H233162   6.515   0.722   1.910 -1.3406  1.6653  1.4637
 3843TIP3   OH233163   2.048   0.398   0.613  0.2226  0.1753  0.3111
 3843TIP3    H133164   2.039   0.451   0.692  1.2319  1.5864 -0.4828
 3843TIP3    H233165   2.129   0.348   0.626  2.1185  2.6754 -1.0141
 3844TIP3   OH233166   3.112   3.791   3.276 -0.1824 -0.4043 -0.3822
 3844TIP3    H133167   3.172   3.853   3.234 -0.6302 -0.5227 -1.2168
 3844TIP3    H233168   3.074   3.840   3.349 -1.2512  0.6346 -1.6017
 3845TIP3   OH233169   1.566   5.814   0.807  0.1052 -0.2234 -0.3047
 3845TIP3    H133170   1.494   5.878   0.811 -0.6713 -1.1052  2.2414
 3845TIP3    H233171   1.621   5.836   0.882  0.7208 -1.5328 -0.3457
 3846TIP3   OH233172   4.897   0.376   4.856 -0.1200 -0.0885  0.2586
 3846TIP3    H133173   4.804   0.379   4.880  0.1931 -0.6630  1.6105
 3846TIP3    H233174   4.944   0.394   4.937  0.9679  0.5823 -0.4935
 3847TIP3   OH233175   3.420   2.281   2.888 -0.1852 -0.3278 -0.1258
 3847TIP3    H133176   3.434   2.335   2.810 -2.3158 -0.5743 -0.7587
 3847TIP3    H233177   3.414   2.343   2.960  1.0811 -0.0394 -0.2531
 3848TIP3   OH233178   1.494   1.722   8.848  0.2019  0.3197 -0.1208
 3848TIP3    H133179   1.478   1.780   8.774 -2.7114  2.5165  2.0106
 3848TIP3    H233180   1.569   1.761   8.894 -0.2702  1.0732  0.0214
 3849TIP3   OH233181   3.729   3.133   2.745  0.3573  0.3027  0.3860
 3849TIP3    H133182   3.756   3.221   2.772 -0.4004  0.3907  0.9073
 3849TIP3    H233183   3.643   3.121   2.786 -0.1817 -0.1414 -0.8061
 3850TIP3   OH233184   0.172   1.081   3.478  0.4376 -0.4458 -0.0963
 3850TIP3    H133185   0.254   1.057   3.435  1.7141 -2.2580  3.0636
 3850TIP3    H233186   0.198   1.144   3.545 -1.0381  0.1688 -0.0691
 3851TIP3   OH233187   1.269   3.962   4.087 -0.1907  0.1998 -0.1555
 3851TIP3    H133188   1.321   3.913   4.151  0.3271 -1.1612 -1.5317
 3851TIP3    H233189   1.328   3.973   4.012 -1.2955  0.2776 -1.0365
 3852TIP3   OH233190   6.330   4.430   3.870 -0.3421 -0.2251  0.3724
 3852TIP3    H133191   6.288   4.451   3.787 -0.5098 -1.8318  0.0281
 3852TIP3    H233192   6.319   4.509   3.923 -0.7069  0.6289 -0.9245
 3853TIP3   OH233193   1.830   2.076   3.857  0.4600 -0.1874  0.0625
 3853TIP3    H133194   1.736   2.088   3.870  0.1209 -1.3189 -1.0766
 3853TIP3    H233195   1.867   2.164   3.862 -0.7946  0.3822 -0.4346
 3854TIP3   OH233196   6.067   2.070   2.908  0.4051 -0.1529  0.7214
 3854TIP3    H133197   6.112   2.009   2.849  1.0818  1.9703 -1.1175
 3854TIP3    H233198   5.977   2.071   2.876  0.0610 -1.1335  1.6084
 3855TIP3   OH233199   2.813   0.296   1.197 -0.5377  0.0956  0.4332
 3855TIP3    H133200   2.851   0.375   1.158  0.5108  0.6095  2.3591
 3855TIP3    H233201   2.843   0.224   1.141  0.5982  0.8247  0.0768
 3856TIP3   OH233202   5.575   3.167   2.733 -0.0328 -0.1693  0.1234
 3856TIP3    H133203   5.578   3.197   2.824  1.9347  2.1842 -0.5976
 3856TIP3    H233204   5.650   3.108   2.725 -1.6743 -2.4552  0.5640
 3857TIP3   OH233205   6.427   3.552   1.190 -0.1840 -0.3320 -0.0291
 3857TIP3    H133206   6.443   3.466   1.228  1.1005 -1.3761 -2.7068
 3857TIP3    H233207   6.365   3.536   1.119 -0.7803  1.1726  0.0977
 3858TIP3   OH233208   2.782   6.247   2.946 -0.6793 -0.2603  0.2643
 3858TIP3    H133209   2.755   6.300   3.021 -2.9264 -2.3803  1.0873
 3858TIP3    H233210   2.723   6.273   2.876 -0.4213 -0.2350  0.0556
 3859TIP3   OH233211   4.405   3.648   1.648  0.2293  0.1085  0.6534
 3859TIP3    H133212   4.365   3.733   1.668 -0.3414  0.1298 -0.4869
 3859TIP3    H233213   4.489   3.650   1.693 -0.5499  0.5260  2.1836
 3860TIP3   OH233214   3.814   2.652   3.199  0.0916 -0.4326  0.5889
 3860TIP3    H133215   3.870   2.577   3.215 -0.0512 -0.6809 -0.0537
 3860TIP3    H233216   3.735   2.616   3.158 -0.0225  0.0481  0.3672
 3861TIP3   OH233217   1.967   4.826   2.386  0.0763 -0.0771  0.0511
 3861TIP3    H133218   1.881   4.866   2.402 -0.6603 -1.5774 -0.0141
 3861TIP3    H233219   1.956   4.734   2.409  1.9178 -0.1465  0.8339
 3862TIP3   OH233220   1.894   4.207   2.843  0.1233  0.1019 -0.0115
 3862TIP3    H133221   1.934   4.197   2.757 -0.4613 -1.1951 -0.1455
 3862TIP3    H233222   1.936   4.140   2.897 -0.1881  0.2849  0.4633
 3863TIP3   OH233223   1.685   3.493   1.583  0.2093  0.3195 -0.0132
 3863TIP3    H133224   1.687   3.588   1.574 -1.1770  0.2281 -2.0027
 3863TIP3    H233225   1.625   3.464   1.514  0.5487 -1.9992  0.5883
 3864TIP3   OH233226   5.297   2.052   0.089 -0.1492 -0.4825  0.2525
 3864TIP3    H133227   5.300   2.137   0.133 -0.7148 -1.2999  1.9224
 3864TIP3    H233228   5.228   2.003   0.134 -0.2567 -1.6339 -1.0792
 3865TIP3   OH233229   2.814   4.542   3.734 -0.4493 -0.1072  0.4546
 3865TIP3    H133230   2.891   4.596   3.751 -0.5536  0.3436 -0.4292
 3865TIP3    H233231   2.785   4.568   3.646 -0.2837 -1.8630 -0.1623
 3866TIP3   OH233232   1.661   5.296   4.563  0.1909 -0.2397  0.1113
 3866TIP3    H133233   1.568   5.318   4.573 -0.0245 -0.2676 -1.5037
 3866TIP3    H233234   1.671   5.214   4.610 -0.7114 -0.4431 -0.0215
 3867TIP3   OH233235   4.376   2.657   3.378 -0.3411  0.0735  0.3555
 3867TIP3    H133236   4.461   2.653   3.420  0.6700 -0.0593 -1.5779
 3867TIP3    H233237   4.346   2.566   3.375 -0.5510  0.1171  1.0054
 3868TIP3   OH233238   4.153   6.097   1.890 -0.0728 -0.0797  0.4523
 3868TIP3    H133239   4.064   6.133   1.889  0.5161  1.4495 -0.5121
 3868TIP3    H233240   4.148   6.022   1.830 -0.0875  1.7966 -2.0833
 3869TIP3   OH233241   1.072   2.808   3.086  0.3490 -0.2569 -0.1236
 3869TIP3    H133242   1.072   2.891   3.133  0.1815  0.0074 -0.5823
 3869TIP3    H233243   0.995   2.762   3.119 -0.9529  0.7700 -1.5754
 3870TIP3   OH233244   1.833   2.170   1.486  0.1785  0.4585  0.6145
 3870TIP3    H133245   1.748   2.202   1.517  0.3125  1.2448  0.1896
 3870TIP3    H233246   1.889   2.247   1.487  0.0416  0.6748 -2.1654
 3871TIP3   OH233247   5.736   3.515   4.272 -0.2117  0.1480  0.9522
 3871TIP3    H133248   5.642   3.501   4.286  0.0394 -0.4492  2.2289
 3871TIP3    H233249   5.777   3.478   4.351  1.2665 -1.7613 -0.6130
 3872TIP3   OH233250   6.763   6.786   1.295 -0.1553  0.5875  0.9529
 3872TIP3    H133251   6.814   6.771   1.374 -0.1823  0.6362  0.9799
 3872TIP3    H233252   6.699   6.715   1.294 -0.2594  0.6796  1.0612
 3873TIP3   OH233253   1.416   5.403   1.053 -0.3591 -0.0281 -0.2052
 3873TIP3    H133254   1.497   5.452   1.036 -1.4127  1.6220 -0.7749
 3873TIP3    H233255   1.411   5.340   0.981 -0.0368  0.5071 -0.7098
 3874TIP3   OH233256   3.893   0.453   2.357 -0.1241  0.0572 -0.1879
 3874TIP3    H133257   3.943   0.383   2.315 -0.3723 -0.3334  0.1662
 3874TIP3    H233258   3.960   0.512   2.392  0.0916 -0.2857 -0.0108
 3875TIP3   OH233259   3.103   3.515   1.734 -0.4561  0.0746 -0.7474
 3875TIP3    H133260   3.093   3.465   1.652 -0.2678 -0.8191 -0.2474
 3875TIP3    H233261   3.014   3.541   1.758 -0.8313 -1.7431  0.0026
 3876TIP3   OH233262   0.998   0.568   4.081 -0.2065 -0.3036 -0.1282
 3876TIP3    H133263   0.953   0.513   4.146  0.1706 -0.4830 -0.0177
 3876TIP3    H233264   0.942   0.645   4.073 -0.7947 -0.7437 -0.3560
 3877TIP3   OH233265   5.842   2.807   0.457  0.2281 -0.7082  0.1404
 3877TIP3    H133266   5.849   2.884   0.512 -0.6725  0.7050 -1.5957
 3877TIP3    H233267   5.927   2.764   0.464  0.4166 -0.1063  1.8993
 3878TIP3   OH233268   5.820   2.793   2.490  0.5078  0.2405  0.1669
 3878TIP3    H133269   5.900   2.833   2.455 -0.9258  1.8925 -1.4185
 3878TIP3    H233270   5.780   2.750   2.415  0.1441 -1.0518  1.0638
 3879TIP3   OH233271   1.647   5.066   4.693  0.7250  0.4717  0.2624
 3879TIP3    H133272   1.592   5.035   4.764  1.7789  0.2453  1.0060
 3879TIP3    H233273   1.727   5.014   4.700  0.8523  0.4315 -1.0996
 3880TIP3   OH233274   1.012   2.135   3.574  0.1618  0.2534  0.5655
 3880TIP3    H133275   1.066   2.143   3.495 -1.3745 -0.3754 -0.6076
 3880TIP3    H233276   0.989   2.042   3.577  0.3673  0.2347  1.8922
 3881TIP3   OH233277   0.911   0.419   3.491  0.0258 -0.0262 -0.4874
 3881TIP3    H133278   0.830   0.368   3.489  0.1951 -0.2832 -0.9000
 3881TIP3    H233279   0.907   0.473   3.411 -1.1998  2.2720  0.9918
 3882TIP3   OH233280   3.632   1.098   4.021 -0.3471  0.3019 -0.0472
 3882TIP3    H133281   3.710   1.153   4.032  0.1633 -0.6961  1.8181
 3882TIP3    H233282   3.606   1.111   3.930 -0.0302  3.2818  0.1792
 3883TIP3   OH233283   2.689   1.496   2.984  1.0195  0.5055 -0.5720
 3883TIP3    H133284   2.745   1.434   3.031  1.1387  0.9563 -0.1068
 3883TIP3    H233285   2.693   1.468   2.893  3.7719  1.8175 -0.9530
 3884TIP3   OH233286   2.392   4.633   1.199  0.0925  0.5123  0.4117
 3884TIP3    H133287   2.480   4.641   1.161  0.0883 -0.7267  0.0686
 3884TIP3    H233288   2.368   4.541   1.183 -1.7737  1.1157 -0.6013
 3885TIP3   OH233289   1.114   2.243   1.687 -0.2960 -0.3000  0.1658
 3885TIP3    H133290   1.115   2.264   1.781 -1.0062 -0.1168  0.1415
 3885TIP3    H233291   1.202   2.211   1.669  0.5610  1.7206  0.4334
 3886TIP3   OH233292   4.529   2.688   0.660  0.0270 -0.4940  0.1394
 3886TIP3    H133293   4.598   2.713   0.598 -0.1683  0.7252  0.3881
 3886TIP3    H233294   4.449   2.721   0.621 -0.1084  0.2143  0.9966
 3887TIP3   OH233295   3.934   2.495   3.763  0.4617  0.3326  1.1115
 3887TIP3    H133296   3.977   2.532   3.685 -0.5637  0.5192  0.6152
 3887TIP3    H233297   3.933   2.401   3.746  4.1629 -0.2067  2.9215
 3888TIP3   OH233298   1.894   4.911   3.710  0.3515  0.4249  0.1604
 3888TIP3    H133299   1.941   4.832   3.736 -0.1529  0.0089 -0.1733
 3888TIP3    H233300   1.850   4.886   3.628  0.7831  1.2748 -0.3435
 3889TIP3   OH233301   5.890   3.257   2.535  0.0352  0.1141 -0.0055
 3889TIP3    H133302   5.932   3.328   2.486 -0.9584 -0.7041 -2.1711
 3889TIP3    H233303   5.796   3.274   2.526 -0.2225 -1.4703 -0.6293
 3890TIP3   OH233304   2.334   2.741   1.846 -0.1311  0.0648  0.1542
 3890TIP3    H133305   2.368   2.755   1.934  1.5547 -0.2952 -0.4036
 3890TIP3    H233306   2.305   2.828   1.817  1.5249  0.6534  0.1869
 3891TIP3   OH233307   5.050   3.711   1.476 -0.3966  0.1196 -0.0622
 3891TIP3    H133308   5.052   3.635   1.534  0.8374 -0.8328 -1.3048
 3891TIP3    H233309   5.081   3.784   1.531 -2.8348  0.0959  1.5295
 3892TIP3   OH233310   1.867   5.268   1.588 -0.3170 -0.2990 -0.3290
 3892TIP3    H133311   1.890   5.302   1.675 -0.1458  0.1024 -0.5347
 3892TIP3    H233312   1.940   5.210   1.565 -0.5247 -0.6808 -0.0596
 3893TIP3   OH233313   2.990   2.852   2.648 -0.0558  0.5938  0.0488
 3893TIP3    H133314   2.915   2.885   2.599  0.9884  0.9730 -1.3903
 3893TIP3    H233315   2.954   2.819   2.730 -1.7552  0.8985 -0.5460
 3894TIP3   OH233316   6.225   3.083   2.102  0.0479 -0.5277  0.1001
 3894TIP3    H133317   6.144   3.126   2.128  0.1521 -0.7786  0.8557
 3894TIP3    H233318   6.282   3.091   2.179  1.6597  1.8359 -1.1965
 3895TIP3   OH233319   3.566   5.413   2.606 -0.7621 -0.3424  0.5049
 3895TIP3    H133320   3.542   5.503   2.587  0.7127  0.7149  3.0241
 3895TIP3    H233321   3.660   5.409   2.589 -0.6895 -1.2029  1.0375
 3896TIP3   OH233322   0.676   4.363   2.126 -0.2092 -0.2959  0.0844
 3896TIP3    H133323   0.625   4.298   2.076 -1.4212  0.5709  0.1307
 3896TIP3    H233324   0.643   4.354   2.216 -1.2800  1.1643 -0.1257
 3897TIP3   OH233325   5.021   3.221   3.651 -0.7675 -0.2399  0.2708
 3897TIP3    H133326   4.943   3.188   3.605 -0.3998 -1.8815  0.7779
 3897TIP3    H233327   5.094   3.183   3.603 -0.3383 -0.6227  1.2142
 3898TIP3   OH233328   2.006   3.555   2.096  0.2288  0.1784 -0.2756
 3898TIP3    H133329   2.043   3.510   2.172  2.0978 -0.1294 -1.3037
 3898TIP3    H233330   2.054   3.638   2.091 -1.1575  1.0185 -0.0900
 3899TIP3   OH233331   6.280   4.438   1.840 -0.1344  0.0193  0.0369
 3899TIP3    H133332   6.299   4.479   1.925 -1.4728  0.1803  0.2789
 3899TIP3    H233333   6.234   4.506   1.790 -1.2129 -0.7394 -0.0406
 3900TIP3   OH233334   1.325   5.594   4.956 -1.0585  0.1728 -0.1331
 3900TIP3    H133335   1.245   5.613   4.907 -1.3340 -0.0475  0.2176
 3900TIP3    H233336   1.345   5.503   4.935 -2.5040 -0.7045  1.9286
 3901TIP3   OH233337   0.089   1.050   4.224  0.6144  0.2970  0.3839
 3901TIP3    H133338   0.088   1.060   4.129  1.3063 -0.4461  0.2934
 3901TIP3    H233339   0.026   1.115   4.255 -1.1628 -0.8161 -0.7004
 3902TIP3   OH233340   6.198   2.192   4.966  0.5891  0.4556  0.3112
 3902TIP3    H133341   6.121   2.160   4.919  1.4194 -0.5126 -0.4357
 3902TIP3    H233342   6.201   2.140   5.046  1.1542 -0.3776 -0.2446
 3903TIP3   OH233343   5.873   6.512   3.918  0.2331  0.1357  0.2199
 3903TIP3    H133344   5.907   6.458   3.846  0.8845  0.2344  0.4456
 3903TIP3    H233345   5.951   6.552   3.957 -0.0768 -0.1735  1.1905
 3904TIP3   OH233346   0.395   1.908   0.605  0.1669 -0.1881  0.0069
 3904TIP3    H133347   0.456   1.853   0.556  1.2720  0.1550  0.9592
 3904TIP3    H233348   0.386   1.987   0.551 -1.6102 -1.3215 -1.4792
 3905TIP3   OH233349   3.345   6.257   2.015 -0.3651 -0.2811 -0.3802
 3905TIP3    H133350   3.410   6.273   2.083 -0.3346  2.4351 -0.9145
 3905TIP3    H233351   3.361   6.167   1.987  0.2513 -1.1915  2.4703
 3906TIP3   OH233352   1.542   3.856   1.814  0.0859  0.6076 -0.0363
 3906TIP3    H133353   1.619   3.912   1.824  1.1393 -0.5454 -1.2357
 3906TIP3    H233354   1.510   3.842   1.903  1.8945  0.2888  0.6024
 3907TIP3   OH233355   4.070   6.328   3.399 -0.3067 -0.4865 -0.8002
 3907TIP3    H133356   4.040   6.264   3.464 -3.8070  0.7880 -0.9380
 3907TIP3    H233357   4.071   6.411   3.447 -2.0348  0.3162 -2.0509
 3908TIP3   OH233358   0.045   1.828   4.186 -0.8341 -0.4114 -0.4070
 3908TIP3    H133359  -0.020   1.894   4.209 -1.7768 -1.7587  0.9761
 3908TIP3    H233360   0.101   1.821   4.263 -0.6203 -1.0748 -0.6133
 3909TIP3   OH233361   0.875   1.616   0.935  0.0272  0.2769 -0.1577
 3909TIP3    H133362   0.822   1.660   0.868  1.0249  0.5472 -0.7981
 3909TIP3    H233363   0.910   1.539   0.890  0.4923  0.3173  0.1341
 3910TIP3   OH233364   4.610   1.889   1.767 -0.0073 -0.0465 -0.5079
 3910TIP3    H133365   4.682   1.887   1.830 -0.1445  1.0338 -0.2874
 3910TIP3    H233366   4.573   1.977   1.776 -0.2044  0.0373 -1.9078
 3911TIP3   OH233367   3.154   5.427   1.851 -0.1925 -0.1773 -0.0322
 3911TIP3    H133368   3.130   5.356   1.791  0.1392 -0.2683 -0.0561
 3911TIP3    H233369   3.127   5.507   1.806 -1.7683 -0.3411  0.5392
 3912TIP3   OH233370   6.445   1.531   4.123 -0.2010  0.0811  0.8229
 3912TIP3    H133371   6.520   1.580   4.090  1.1694 -0.5611  2.7983
 3912TIP3    H233372   6.404   1.590   4.186 -0.1057 -0.3390  1.2820
 3913TIP3   OH233373   6.135   6.339   0.998 -0.1129 -0.0953  0.7212
 3913TIP3    H133374   6.118   6.285   1.075  0.8859 -1.3526  0.1071
 3913TIP3    H233375   6.151   6.275   0.928 -1.3860  1.0117 -0.6200
 3914TIP3   OH233376   5.769   6.094   4.334  0.5044 -0.3885  0.0941
 3914TIP3    H133377   5.731   6.163   4.279  2.8109  0.5166 -0.4936
 3914TIP3    H233378   5.739   6.115   4.423 -0.9850 -0.2096 -0.4408
 3915TIP3   OH233379   0.759   1.432   8.548  0.5542 -0.2698  0.3511
 3915TIP3    H133380   0.697   1.392   8.488  0.1243  0.2819  0.4229
 3915TIP3    H233381   0.792   1.509   8.501 -0.5529  0.7622  1.1967
 3916TIP3   OH233382   3.947   1.922   8.834  0.4015 -0.0924 -0.3376
 3916TIP3    H133383   3.934   1.883   8.748 -0.5175  0.0125 -0.2511
 3916TIP3    H233384   3.869   1.898   8.884  1.9975 -2.3727  1.3255
 3917TIP3   OH233385   2.477   4.398   3.174  0.3793  0.0830 -0.5692
 3917TIP3    H133386   2.494   4.311   3.210  2.2938  1.0941  1.1728
 3917TIP3    H233387   2.389   4.420   3.205  1.7538  0.7418  3.3992
 3918TIP3   OH233388   2.678   3.616   0.572 -0.2071  0.4412 -0.2635
 3918TIP3    H133389   2.660   3.649   0.484 -0.6480  0.7692 -0.0558
 3918TIP3    H233390   2.593   3.618   0.616 -0.5660 -2.2697 -0.6567
 3919TIP3   OH233391   2.803   1.453   2.015 -0.3244  0.0354  0.8540
 3919TIP3    H133392   2.728   1.508   2.038  0.2553  1.0150  0.4636
 3919TIP3    H233393   2.878   1.513   2.014  0.6540 -1.1204  2.2158
 3920TIP3   OH233394   5.069   0.840   3.643 -0.6048  0.0938 -1.0808
 3920TIP3    H133395   4.992   0.872   3.596 -1.3693 -2.3788 -1.6506
 3920TIP3    H233396   5.117   0.788   3.578  0.0095 -0.7890  0.0503
 3921TIP3   OH233397   0.326   3.907   2.478  0.2072  0.0625 -0.8817
 3921TIP3    H133398   0.346   3.898   2.571 -0.8216  1.9639 -0.4247
 3921TIP3    H233399   0.275   3.988   2.472 -0.9587 -0.7474 -2.9138
 3922TIP3   OH233400   6.380   1.746   0.963 -0.1546 -0.0018 -0.0974
 3922TIP3    H133401   6.368   1.747   1.058  0.3463 -0.8724 -0.0144
 3922TIP3    H233402   6.470   1.775   0.949  0.4225 -1.7481 -0.1707
 3923TIP3   OH233403   1.000   6.290   2.125 -0.0849 -0.2234  0.0866
 3923TIP3    H133404   1.015   6.366   2.069 -1.8851  0.4675  0.4596
 3923TIP3    H233405   1.087   6.255   2.142  0.6873  0.9685 -1.1692
 3924TIP3   OH233406   3.587   0.207   2.991 -0.6851  0.3601 -0.0646
 3924TIP3    H133407   3.514   0.269   3.002 -0.2718  1.0750 -1.1270
 3924TIP3    H233408   3.547   0.131   2.949 -0.7328  1.0337 -1.3040
 3925TIP3   OH233409   0.896   4.204   4.378 -0.0875 -0.2772 -0.2662
 3925TIP3    H133410   0.972   4.171   4.328 -0.6161  0.3396 -1.5278
 3925TIP3    H233411   0.820   4.173   4.328 -0.6327  0.4614  0.0894
 3926TIP3   OH233412   2.320   1.655   2.516 -0.1987  0.2634 -0.6884
 3926TIP3    H133413   2.398   1.694   2.556  0.9718  0.2082 -2.7420
 3926TIP3    H233414   2.309   1.571   2.560 -1.1992  1.6852  1.9894
 3927TIP3   OH233415   2.302   4.990   2.858  0.6237 -0.1822 -0.3570
 3927TIP3    H133416   2.381   5.043   2.855 -0.5911  1.7264  0.0225
 3927TIP3    H233417   2.296   4.961   2.949  0.9726 -0.5054 -0.4328
 3928TIP3   OH233418   4.339   3.048   2.822  0.1271  0.4638  0.0476
 3928TIP3    H133419   4.394   3.120   2.854 -0.0214  0.9661 -0.8108
 3928TIP3    H233420   4.284   3.026   2.896  0.9051  0.5205  0.6601
 3929TIP3   OH233421   0.092   5.690   1.105  0.1628  0.0886 -0.1429
 3929TIP3    H133422   0.016   5.748   1.105  0.2204  0.1713  0.8585
 3929TIP3    H233423   0.086   5.643   1.022 -0.9798  0.0832 -0.0659
 3930TIP3   OH233424   4.156   5.481   3.283 -0.1814 -0.4183 -0.7031
 3930TIP3    H133425   4.200   5.397   3.294  0.6159 -0.5114 -3.8188
 3930TIP3    H233426   4.224   5.541   3.253 -1.5891  0.0637 -3.2099
 3931TIP3   OH233427   0.448   2.436   3.805 -0.5047 -0.2575 -0.2602
 3931TIP3    H133428   0.429   2.530   3.801 -0.6703 -0.2616  0.3064
 3931TIP3    H233429   0.403   2.406   3.884  0.2929 -0.6394  0.0617
 3932TIP3   OH233430   4.725   2.136   1.406 -0.1634  0.0830  0.0816
 3932TIP3    H133431   4.741   2.088   1.487 -2.1158 -0.1754  0.3731
 3932TIP3    H233432   4.768   2.084   1.338  1.6370  0.3900  0.9266
 3933TIP3   OH233433   6.309   4.460   2.834 -0.1742  0.1153 -0.4811
 3933TIP3    H133434   6.318   4.449   2.928  0.7039 -0.3191 -0.6083
 3933TIP3    H233435   6.398   4.478   2.803 -0.2952 -0.6608 -1.3395
 3934TIP3   OH233436   4.340   5.263   4.090  0.1691 -0.4356 -0.3773
 3934TIP3    H133437   4.336   5.199   4.162  0.9833 -0.1175 -0.0395
 3934TIP3    H233438   4.349   5.210   4.011  0.6207 -0.7544 -0.1174
 3935TIP3   OH233439   2.552   0.930   1.918 -0.4531 -0.0731  0.1862
 3935TIP3    H133440   2.504   0.862   1.871  0.2053 -0.5133  0.1298
 3935TIP3    H233441   2.497   1.008   1.911 -1.3083 -0.6426  0.4045
 3936TIP3   OH233442   0.195   4.128   2.406 -0.2216  0.3522 -0.1279
 3936TIP3    H133443   0.216   4.208   2.357  0.2208 -0.4739 -1.3290
 3936TIP3    H233444   0.164   4.067   2.339 -2.8660  0.2522  1.0702
 3937TIP3   OH233445   1.917   1.111   8.839 -0.3248  0.0671  0.3270
 3937TIP3    H133446   1.885   1.112   8.929 -2.6818  0.4583 -0.4449
 3937TIP3    H233447   1.957   1.197   8.827 -1.7048  0.7720  0.5000
 3938TIP3   OH233448   1.397   1.184   0.924  0.2067 -0.1627  0.1619
 3938TIP3    H133449   1.451   1.125   0.871  1.2198  1.4966 -0.7601
 3938TIP3    H233450   1.451   1.263   0.934 -1.0512  0.5840  1.4163
 3939TIP3   OH233451   5.824   0.216   2.209 -0.7361  0.6698  0.2982
 3939TIP3    H133452   5.805   0.289   2.268  0.9493  1.0008  0.4868
 3939TIP3    H233453   5.903   0.243   2.162 -0.5670 -0.6823 -0.2425
 3940TIP3   OH233454   4.673   2.243   0.136  0.1064 -0.4931  0.5176
 3940TIP3    H133455   4.724   2.321   0.114  1.5540 -1.4505  0.2998
 3940TIP3    H233456   4.641   2.211   0.051 -0.7743  0.0408  0.6420
 3941TIP3   OH233457   5.242   1.015   0.573 -0.0841 -0.8478 -0.3422
 3941TIP3    H133458   5.210   1.098   0.607  0.1545 -1.1484  0.6624
 3941TIP3    H233459   5.274   1.036   0.485  0.2936  0.1983  0.0225
 3942TIP3   OH233460   1.518   6.167   4.387  0.1792 -0.6139  0.1637
 3942TIP3    H133461   1.509   6.182   4.481 -1.2319  2.3111 -0.3352
 3942TIP3    H233462   1.523   6.254   4.349 -0.6580 -1.6710 -2.6186
 3943TIP3   OH233463   3.031   0.364   1.729  0.1155  0.3476  0.0095
 3943TIP3    H133464   2.976   0.376   1.807 -0.7601  0.9686 -0.6792
 3943TIP3    H233465   2.969   0.336   1.661  1.0278 -1.2195 -0.2246
 3944TIP3   OH233466   4.555   2.002   4.816 -0.4473  0.3451 -0.6108
 3944TIP3    H133467   4.647   2.027   4.807 -0.1996 -0.2404  0.1611
 3944TIP3    H233468   4.508   2.063   4.760  0.2646  1.5960  0.1251
 3945TIP3   OH233469   6.400   5.579   4.576  0.6590 -0.2231 -0.0552
 3945TIP3    H133470   6.471   5.640   4.594 -1.2059  2.1640 -0.1695
 3945TIP3    H233471   6.443   5.499   4.546  3.2387  1.1930 -0.4177
 3946TIP3   OH233472   5.557   2.074   3.154 -0.1346  0.5444 -0.4377
 3946TIP3    H133473   5.507   2.015   3.211  2.1216 -0.0581  1.0467
 3946TIP3    H233474   5.547   2.160   3.195 -0.3308  0.5076 -0.4072
 3947TIP3   OH233475   1.795   3.340   8.587  0.0502 -0.0488  0.0032
 3947TIP3    H133476   1.706   3.314   8.565  0.1491  0.2529 -0.7886
 3947TIP3    H233477   1.827   3.270   8.644 -1.5659  1.1280  2.4859
 3948TIP3   OH233478   3.089   1.506   1.741 -0.6802 -0.6413  0.0252
 3948TIP3    H133479   3.045   1.546   1.816 -3.6429 -1.0359 -1.3756
 3948TIP3    H233480   3.096   1.576   1.677 -1.1226 -1.0734 -0.5048
 3949TIP3   OH233481   1.373   4.572   3.265  0.4860 -0.2347  0.5322
 3949TIP3    H133482   1.324   4.490   3.267 -0.1762  0.0823 -0.9475
 3949TIP3    H233483   1.447   4.557   3.324 -0.6909 -1.1727  1.8436
 3950TIP3   OH233484   2.345   2.807   4.563 -0.5604 -0.5742  0.4749
 3950TIP3    H133485   2.393   2.851   4.493  0.9911 -1.3035  1.0437
 3950TIP3    H233486   2.255   2.840   4.554 -0.1144  0.3570 -1.0062
 3951TIP3   OH233487   1.588   1.350   0.752  0.0968  0.4535 -0.2571
 3951TIP3    H133488   1.666   1.399   0.780  1.1773 -1.5599  0.4946
 3951TIP3    H233489   1.610   1.259   0.771 -3.0603 -0.0725  1.3896
 3952TIP3   OH233490   6.525   6.516   5.305 -0.3861 -0.1103  0.1450
 3952TIP3    H133491   6.478   6.471   5.235 -0.1092 -1.1486  0.6182
 3952TIP3    H233492   6.503   6.467   5.384 -1.3488  1.5228  0.9561
 3953TIP3   OH233493   3.908   3.826   8.755 -0.3585  0.0690 -0.4976
 3953TIP3    H133494   3.936   3.821   8.846  1.5381  2.7574 -0.8142
 3953TIP3    H233495   3.966   3.766   8.708 -0.4281 -0.3049 -0.1037
 3954TIP3   OH233496   2.502   2.475   0.808 -0.2474 -0.1968 -0.5710
 3954TIP3    H133497   2.459   2.435   0.883  0.9559 -0.6373 -0.0929
 3954TIP3    H233498   2.434   2.480   0.741 -0.8906 -1.4247 -0.0397
 3955TIP3   OH233499   4.739   1.289   4.560 -0.0763  0.0363 -0.0754
 3955TIP3    H133500   4.762   1.196   4.554 -0.4787 -0.0230 -0.7692
 3955TIP3    H233501   4.734   1.318   4.469  1.6121  1.1354  0.1417
 3956TIP3   OH233502   2.154   0.559   1.956  0.8030 -0.1153 -0.3506
 3956TIP3    H133503   2.187   0.500   1.889 -1.2689 -2.1326  0.2768
 3956TIP3    H233504   2.093   0.616   1.911  0.2347 -0.7459 -0.3870
 3957TIP3   OH233505   4.908   5.557   3.292 -0.3720 -0.6271 -0.7963
 3957TIP3    H133506   4.813   5.567   3.297 -0.2752  0.2679 -0.5832
 3957TIP3    H233507   4.940   5.584   3.379  0.0892 -0.7427 -0.9247
 3958TIP3   OH233508   2.075   1.986   3.953 -0.0630 -0.2164 -0.0965
 3958TIP3    H133509   2.127   1.950   3.881 -0.2954 -1.8705  0.5072
 3958TIP3    H233510   2.011   2.043   3.911  0.8990  0.2020 -1.0294
 3959TIP3   OH233511   3.603   1.369   3.169  0.2130 -0.0338 -0.3192
 3959TIP3    H133512   3.530   1.367   3.108 -0.2711  0.5916  0.2211
 3959TIP3    H233513   3.681   1.361   3.114 -0.2196  0.4295 -1.0085
 3960TIP3   OH233514   5.446   2.096   3.859 -0.2091  0.1024 -0.0340
 3960TIP3    H133515   5.389   2.031   3.900  0.2926  0.7112  1.7026
 3960TIP3    H233516   5.387   2.167   3.832 -0.7161 -0.8834 -1.6436
 3961TIP3   OH233517   5.185   0.293   4.458  0.0162  0.4821 -0.1905
 3961TIP3    H133518   5.209   0.241   4.535 -0.0688 -0.7494 -0.9596
 3961TIP3    H233519   5.260   0.352   4.445 -0.8928  2.3097  2.0963
 3962TIP3   OH233520   0.146   5.201   2.695  0.5437 -0.2555  0.0651
 3962TIP3    H133521   0.224   5.184   2.748 -0.2392 -0.7030  1.1303
 3962TIP3    H233522   0.085   5.132   2.720 -0.6033  0.7404  0.1369
 3963TIP3   OH233523   4.244   1.036   2.252 -0.3549 -0.2305 -0.7563
 3963TIP3    H133524   4.239   1.104   2.320  1.8800  0.3250 -1.0459
 3963TIP3    H233525   4.167   1.050   2.198 -0.4018  1.5447 -0.3064
 3964TIP3   OH233526   3.798   6.123   3.268 -0.3696 -0.4877  0.0752
 3964TIP3    H133527   3.718   6.103   3.316 -0.5571 -2.1279 -0.8457
 3964TIP3    H233528   3.769   6.168   3.189 -0.3271 -0.5326  0.0340
 3965TIP3   OH233529   6.416   5.903   1.487 -0.5548 -0.0028  0.5873
 3965TIP3    H133530   6.357   5.856   1.429 -0.5323  1.8746 -1.0621
 3965TIP3    H233531   6.360   5.965   1.534 -0.3064 -0.2952  1.2932
 3966TIP3   OH233532   5.516   3.900   4.783  0.4317 -0.2527  0.3400
 3966TIP3    H133533   5.432   3.853   4.782  0.1156  0.2046  2.0153
 3966TIP3    H233534   5.493   3.992   4.770  1.0689 -0.4630 -3.1534
 3967TIP3   OH233535   6.695   0.267   0.710  0.4323  0.1292 -0.2759
 3967TIP3    H133536   6.642   0.296   0.635 -1.7061 -0.0415  1.0803
 3967TIP3    H233537   6.691   0.172   0.706 -1.2214  0.0977  0.9946
 3968TIP3   OH233538   3.445   0.881   1.138 -0.1591 -0.0427 -0.3498
 3968TIP3    H133539   3.500   0.803   1.143  1.3296  0.9977  0.1274
 3968TIP3    H233540   3.435   0.898   1.044  0.2133 -0.3299 -0.4423
 3969TIP3   OH233541   5.001   3.082   1.844 -0.3584 -0.0421 -0.2904
 3969TIP3    H133542   5.091   3.096   1.816 -0.3975  1.5185  0.2658
 3969TIP3    H233543   5.009   3.061   1.937 -0.5380 -0.4322 -0.3630
 3970TIP3   OH233544   5.868   5.726   2.345 -0.3455  0.6114 -0.0073
 3970TIP3    H133545   5.797   5.767   2.295 -1.6540  0.0907  1.3152
 3970TIP3    H233546   5.823   5.660   2.399  1.1717  0.2410  0.8584
 3971TIP3   OH233547   0.499   1.474   3.876  0.0544  0.2815  0.2962
 3971TIP3    H133548   0.577   1.439   3.831  0.3110  0.1500  0.8328
 3971TIP3    H233549   0.523   1.564   3.899 -0.0594  0.3340  0.2103
 3972TIP3   OH233550   2.624   6.487   2.179  0.2590  0.1931 -0.0544
 3972TIP3    H133551   2.567   6.432   2.232  0.3836 -0.4852 -0.6216
 3972TIP3    H233552   2.645   6.561   2.236 -0.0837 -0.2329  0.6333
 3973TIP3   OH233553   1.343   3.418   1.584  0.0416  0.1776 -0.5720
 3973TIP3    H133554   1.315   3.507   1.605  1.1127  0.0277  1.8480
 3973TIP3    H233555   1.416   3.429   1.524  1.1255  1.0461  0.8587
 3974TIP3   OH233556   2.857   5.288   0.431  0.2276 -0.9281 -0.0119
 3974TIP3    H133557   2.806   5.364   0.404 -0.1335 -0.8700  0.8122
 3974TIP3    H233558   2.923   5.278   0.362 -0.0111 -0.1575 -0.3643
 3975TIP3   OH233559   5.909   2.399   3.421 -0.0982  0.1594  0.0005
 3975TIP3    H133560   5.986   2.343   3.429 -0.1881  0.2304  1.6256
 3975TIP3    H233561   5.944   2.488   3.421 -0.1505  0.1856  0.5666
 3976TIP3   OH233562   0.858   1.180   1.377 -0.7368  0.1353  0.2135
 3976TIP3    H133563   0.765   1.185   1.402 -0.6466  0.4258  0.4940
 3976TIP3    H233564   0.880   1.270   1.352 -0.3075  0.2404  0.9504
 3977TIP3   OH233565   0.629   2.100   2.874  0.1210  0.0110 -0.0248
 3977TIP3    H133566   0.571   2.024   2.873  0.0588 -0.1188 -3.8205
 3977TIP3    H233567   0.715   2.065   2.895 -0.3593 -0.5924  0.9944
 3978TIP3   OH233568   6.265   1.705   3.523 -0.6103  0.1179 -0.1779
 3978TIP3    H133569   6.207   1.778   3.544  0.4139  0.5463  1.3146
 3978TIP3    H233570   6.345   1.746   3.490 -1.0463 -0.4619 -2.0867
 3979TIP3   OH233571   2.861   5.884   3.626  0.1837 -0.4123  0.1095
 3979TIP3    H133572   2.917   5.936   3.684 -0.2807 -0.7448  0.8662
 3979TIP3    H233573   2.919   5.819   3.588  0.6732  0.3493 -0.4776
 3980TIP3   OH233574   2.131   3.514   1.711 -0.1342  0.2115 -0.0735
 3980TIP3    H133575   2.150   3.515   1.804 -1.0408  1.1879  0.1152
 3980TIP3    H233576   2.142   3.605   1.682  0.2099 -0.0895 -0.9292
 3981TIP3   OH233577   0.763   6.725   3.917  0.2950  0.3021  0.3420
 3981TIP3    H133578   0.769   6.681   3.832  0.1590  1.8323 -0.4871
 3981TIP3    H233579   0.763   6.653   3.980 -0.2656 -0.9097 -0.9669
 3982TIP3   OH233580   1.634   4.854   1.955  0.0402  0.0675  0.0751
 3982TIP3    H133581   1.540   4.852   1.976 -0.7081 -2.3280 -2.8029
 3982TIP3    H233582   1.674   4.796   2.020 -0.7781 -0.3383  0.2289
 3983TIP3   OH233583   3.619   4.849   2.362 -0.5637 -0.2272 -0.0664
 3983TIP3    H133584   3.596   4.760   2.386 -1.4663  0.3688  1.4083
 3983TIP3    H233585   3.535   4.891   2.342 -0.3873  0.7868  1.1572
 3984TIP3   OH233586   6.547   1.079   0.639  0.5562 -0.5623 -0.0082
 3984TIP3    H133587   6.545   1.160   0.587  0.6225  0.0743  0.9486
 3984TIP3    H233588   6.628   1.085   0.690 -0.0653 -0.6006  1.0210
 3985TIP3   OH233589   3.410   3.960   3.051 -0.1295  0.2412  0.1152
 3985TIP3    H133590   3.434   3.889   3.111 -1.3622  0.0827  0.4561
 3985TIP3    H233591   3.341   3.922   2.997 -0.0989  0.8703 -0.3712
 3986TIP3   OH233592   3.464   0.529   4.747  0.1091 -0.4535  0.2622
 3986TIP3    H133593   3.549   0.486   4.758  1.0003  1.4876  1.7379
 3986TIP3    H233594   3.406   0.483   4.808  0.6235 -0.5869  0.6624
 3987TIP3   OH233595   4.278   0.925   2.736  0.5854 -0.4246  0.7293
 3987TIP3    H133596   4.353   0.924   2.676  0.3738 -0.7087  0.4642
 3987TIP3    H233597   4.245   0.836   2.734 -0.2340 -0.1252  0.2291
 3988TIP3   OH233598   0.379   5.832   1.426 -0.2358  0.3912 -0.8995
 3988TIP3    H133599   0.322   5.769   1.383 -0.0341 -0.3121 -0.1677
 3988TIP3    H233600   0.319   5.888   1.476 -0.3916  0.5998 -1.3136
 3989TIP3   OH233601   5.385   1.448   4.942 -0.1231 -0.0649 -0.4841
 3989TIP3    H133602   5.392   1.356   4.968  0.5347  0.2454  0.4984
 3989TIP3    H233603   5.297   1.474   4.969  0.3237  0.0707  0.8929
 3990TIP3   OH233604   3.487   3.360   4.933 -0.0093  0.2237 -0.5127
 3990TIP3    H133605   3.520   3.313   5.010 -0.9817  1.2771  0.5853
 3990TIP3    H233606   3.394   3.376   4.952 -0.5974 -0.5831 -2.4727
 3991TIP3   OH233607   5.012   1.944   0.579  0.2827 -0.3366 -0.9666
 3991TIP3    H133608   5.088   1.916   0.631  0.2536 -0.0278 -0.7550
 3991TIP3    H233609   5.008   1.882   0.506 -0.2007 -1.3081 -0.1269
 3992TIP3   OH233610   0.435   4.770   2.565  0.5451 -0.1800  0.7397
 3992TIP3    H133611   0.467   4.819   2.490 -1.2183  0.5419  0.4161
 3992TIP3    H233612   0.438   4.833   2.638 -1.3719  0.3471  0.4032
 3993TIP3   OH233613   6.384   5.321   4.042 -0.1347 -0.4283  0.6732
 3993TIP3    H133614   6.337   5.398   4.073 -0.2462 -0.7157  1.2169
 3993TIP3    H233615   6.462   5.315   4.098 -0.9329 -1.6258  1.7091
 3994TIP3   OH233616   1.461   1.820   3.681  0.3814  0.2617  0.1104
 3994TIP3    H133617   1.387   1.881   3.683 -0.8386 -1.1159 -0.1481
 3994TIP3    H233618   1.495   1.827   3.592  1.0504  1.4412  0.4494
 3995TIP3   OH233619   3.847   5.497   4.408  0.4106  0.1090 -0.3403
 3995TIP3    H133620   3.865   5.591   4.406 -0.0151  0.1746 -1.5598
 3995TIP3    H233621   3.850   5.470   4.317 -0.7486 -0.8073 -0.1293
 3996TIP3   OH233622   5.578   2.752   5.134  0.1287 -0.0609  0.0440
 3996TIP3    H133623   5.567   2.697   5.212 -1.5275 -2.0637 -1.4965
 3996TIP3    H233624   5.635   2.702   5.076 -1.7760 -0.5136 -1.5766
 3997TIP3   OH233625   6.363   0.895   2.350 -0.9929  0.5183 -0.3370
 3997TIP3    H133626   6.330   0.816   2.392  0.9475 -0.0194  0.3061
 3997TIP3    H233627   6.428   0.864   2.287 -1.4913  1.5107 -1.3711
 3998TIP3   OH233628   0.231   6.030   0.532 -0.6959  0.4747  0.3071
 3998TIP3    H133629   0.315   5.986   0.521 -1.7312 -1.8876  0.9794
 3998TIP3    H233630   0.182   6.008   0.452 -1.4030 -0.0383  0.8660
 3999TIP3   OH233631   2.608   4.936   3.239  0.3057 -0.2134  0.2431
 3999TIP3    H133632   2.666   4.862   3.219 -0.5046 -1.5240  2.4292
 3999TIP3    H233633   2.667   5.007   3.265  0.9860 -1.3976  2.0468
 4000TIP3   OH233634   3.988   4.719   3.134 -0.0504  0.1370 -0.4321
 4000TIP3    H133635   3.970   4.809   3.160  0.6601  0.2551 -0.3267
 4000TIP3    H233636   3.909   4.691   3.087 -0.9538  0.2567  0.9493
 4001TIP3   OH233637   6.694   0.824   3.266  0.0927  0.0432 -0.1745
 4001TIP3    H133638   6.760   0.759   3.288 -0.1026  0.5139  2.1007
 4001TIP3    H233639   6.742   0.907   3.261 -0.1914  0.3033  0.9589
 4002TIP3   OH233640   3.408   1.872   1.821  0.4103 -0.2509 -0.0362
 4002TIP3    H133641   3.350   1.880   1.897 -0.8086  1.7856 -1.0934
 4002TIP3    H233642   3.481   1.931   1.841  1.0766 -1.2030  0.3789
 4003TIP3   OH233643   2.181   4.943   3.108  0.5360  0.1127  0.4705
 4003TIP3    H133644   2.231   4.954   3.189  0.3732 -0.7491  0.6887
 4003TIP3    H233645   2.157   4.851   3.106  0.6346  0.0933 -0.6169
 4004TIP3   OH233646   2.065   5.453   2.604  0.9216  0.3802  0.0357
 4004TIP3    H133647   2.105   5.403   2.675 -0.2861 -1.7499 -0.6896
 4004TIP3    H233648   2.087   5.403   2.525  0.9246  1.8433 -0.9128
 4005TIP3   OH233649   4.850   1.628   3.561  0.3260 -0.3725  0.1889
 4005TIP3    H133650   4.808   1.713   3.570 -1.5873 -1.1020 -1.0696
 4005TIP3    H233651   4.898   1.633   3.478 -0.2149 -0.6777 -0.1451
 4006TIP3   OH233652   3.442   4.277   3.229 -0.0264 -0.6963 -0.5633
 4006TIP3    H133653   3.437   4.334   3.306  1.3663 -0.0930 -0.8921
 4006TIP3    H233654   3.373   4.310   3.171  0.6445  0.5795 -0.6797
 4007TIP3   OH233655   3.962   1.619   2.386 -0.0293  0.4714 -0.3620
 4007TIP3    H133656   3.925   1.568   2.459  0.9820 -1.5784 -1.1983
 4007TIP3    H233657   3.886   1.647   2.336 -0.6323 -0.4296  0.0098
 4008TIP3   OH233658   0.623   3.134   3.399 -0.7091 -0.0272  0.0619
 4008TIP3    H133659   0.657   3.211   3.353  0.9856 -0.4211  0.6099
 4008TIP3    H233660   0.528   3.148   3.401 -0.6985  0.7828 -2.1134
 4009TIP3   OH233661   6.150   5.275   4.756  0.0613  0.5308 -0.2494
 4009TIP3    H133662   6.077   5.291   4.816  0.5140 -0.5813  0.6367
 4009TIP3    H233663   6.220   5.241   4.812  1.0854  1.0913 -1.1619
 4010TIP3   OH233664   2.384   4.875   4.277 -0.5371 -0.0332 -0.0911
 4010TIP3    H133665   2.310   4.895   4.334 -1.0847  1.7753 -1.3406
 4010TIP3    H233666   2.390   4.779   4.278 -2.2943 -0.1753  0.7570
 4011TIP3   OH233667   1.563   2.237   2.984  0.8386 -0.1898 -0.4648
 4011TIP3    H133668   1.618   2.204   3.055 -0.0841  0.7223  0.7153
 4011TIP3    H233669   1.506   2.301   3.026 -0.1917 -0.1161 -1.9132
 4012TIP3   OH233670   0.225   3.918   0.316  0.5016  0.2488  0.2777
 4012TIP3    H133671   0.184   4.001   0.336 -0.5734 -0.0344 -0.6475
 4012TIP3    H233672   0.318   3.938   0.309  0.4733  1.0155  1.8347
 4013TIP3   OH233673   4.483   2.940   4.638  0.1059  0.4010  0.2134
 4013TIP3    H133674   4.476   3.027   4.676 -0.0187  0.0848  0.9319
 4013TIP3    H233675   4.418   2.888   4.685  0.4866 -0.1853  0.1013
 4014TIP3   OH233676   2.362   6.389   3.066  0.3335  0.0777  0.1088
 4014TIP3    H133677   2.423   6.460   3.047  0.9458 -0.5910 -0.5139
 4014TIP3    H233678   2.297   6.395   2.996 -0.7191  1.2085  1.1549
 4015TIP3   OH233679   0.360   1.974   3.662 -0.0776  0.1507 -0.2938
 4015TIP3    H133680   0.435   2.029   3.684  0.5828 -1.7504  2.7469
 4015TIP3    H233681   0.299   1.987   3.734 -1.7137 -0.0788 -1.5695
 4016TIP3   OH233682   3.841   5.512   1.942 -0.1253 -0.0087 -0.4467
 4016TIP3    H133683   3.828   5.537   1.851  0.3869  2.9584  0.1892
 4016TIP3    H233684   3.917   5.453   1.940 -0.8346 -0.9578 -1.9854
 4017TIP3   OH233685   3.646   3.998   0.997 -0.0309 -0.2450  0.5747
 4017TIP3    H133686   3.727   3.959   1.029 -0.7528 -2.5475 -0.2191
 4017TIP3    H233687   3.577   3.939   1.026 -1.0989 -0.1022 -1.4527
 4018TIP3   OH233688   4.989   2.597   8.711 -0.8388 -0.5073 -0.3668
 4018TIP3    H133689   4.934   2.624   8.637 -0.2769  1.5928 -0.0676
 4018TIP3    H233690   5.039   2.523   8.677 -0.0008  0.8910 -2.4242
 4019TIP3   OH233691   5.679   5.209   4.525 -0.3041 -0.7046  0.3528
 4019TIP3    H133692   5.599   5.158   4.537  0.6915 -2.3114  0.5054
 4019TIP3    H233693   5.734   5.185   4.600  0.7722 -0.5632 -0.3640
 4020TIP3   OH233694   1.486   1.870   0.517  0.5936 -0.1058  0.6803
 4020TIP3    H133695   1.492   1.918   0.434  1.1276 -0.4384  0.5220
 4020TIP3    H233696   1.505   1.779   0.492 -0.4101 -0.4052  0.9702
 4021TIP3   OH233697   2.561   2.112   0.372 -0.3083  0.0096 -0.2108
 4021TIP3    H133698   2.622   2.043   0.397 -0.1573  0.3915  0.4963
 4021TIP3    H233699   2.612   2.171   0.317  0.2091  0.7620  1.0350
 4022TIP3   OH233700   3.482   1.859   2.154 -0.7138 -0.0730 -0.3218
 4022TIP3    H133701   3.476   1.935   2.096  1.1118  1.3466  1.2094
 4022TIP3    H233702   3.520   1.790   2.099 -0.5632  0.7283 -1.2587
 4023TIP3   OH233703   5.844   2.130   1.816 -0.5139  0.1290  0.5888
 4023TIP3    H133704   5.760   2.097   1.784 -0.7003  0.7549  0.4211
 4023TIP3    H233705   5.903   2.120   1.742 -0.0387 -1.7093  1.1607
 4024TIP3   OH233706   4.791   2.503   0.706  0.5715  0.0453 -0.2364
 4024TIP3    H133707   4.838   2.424   0.681  0.0609 -0.2939 -0.1381
 4024TIP3    H233708   4.846   2.575   0.674 -0.1600 -0.3587 -2.6222
 4025TIP3   OH233709   3.557   0.326   2.664 -0.0916 -0.2549  0.2740
 4025TIP3    H133710   3.638   0.320   2.715  0.2835 -0.8651 -0.3675
 4025TIP3    H233711   3.525   0.236   2.660 -0.0478 -0.2417 -0.6609
 4026TIP3   OH233712   6.245   3.791   1.980 -0.3961  0.3198 -0.9923
 4026TIP3    H133713   6.259   3.868   2.034  0.3120 -0.4803  0.0080
 4026TIP3    H233714   6.327   3.780   1.931  0.2664 -0.8457  0.2871
 4027TIP3   OH233715   5.438   6.724   1.362 -0.0866  0.5414  0.2730
 4027TIP3    H133716   5.391   6.641   1.351  1.7931 -0.5231 -0.3096
 4027TIP3    H233717   5.469   6.722   1.452  0.0048  0.5686  0.2424
 4028TIP3   OH233718   1.540   1.684   4.414  0.3068 -0.1693 -0.0235
 4028TIP3    H133719   1.550   1.606   4.467  1.1121  0.0341  0.1476
 4028TIP3    H233720   1.629   1.719   4.407 -0.2828  1.9054  1.7024
 4029TIP3   OH233721   1.032   2.856   1.120 -0.0760  0.2622 -0.0911
 4029TIP3    H133722   0.942   2.839   1.149  0.0687  1.9081  1.4860
 4029TIP3    H233723   1.084   2.854   1.200  1.0974  0.5040 -0.8286
 4030TIP3   OH233724   4.955   1.250   3.940 -0.8185  0.2935  0.3521
 4030TIP3    H133725   4.877   1.292   3.976 -0.6052  2.8815 -1.8924
 4030TIP3    H233726   5.027   1.308   3.967 -0.1683  0.0096 -0.7330
 4031TIP3   OH233727   6.508   2.138   0.819  0.1343  0.1748 -0.7461
 4031TIP3    H133728   6.428   2.179   0.849  1.1962 -0.4919  3.7121
 4031TIP3    H233729   6.576   2.203   0.834  1.1046 -1.1980  1.3226
 4032TIP3   OH233730   2.280   6.816   1.671 -0.0025  0.3694 -0.5700
 4032TIP3    H133731   2.370   6.782   1.674  0.6074  1.6308 -2.4930
 4032TIP3    H233732   2.230   6.756   1.726  2.2043  0.3255  1.5717
 4033TIP3   OH233733   1.309   1.045   1.177 -0.2979 -0.3056 -0.0375
 4033TIP3    H133734   1.353   1.079   1.099 -1.3008 -0.9626 -0.9214
 4033TIP3    H233735   1.231   1.100   1.187 -0.1983 -0.2550  0.4689
 4034TIP3   OH233736   5.412   4.536   0.485  1.0117  0.0638 -0.4661
 4034TIP3    H133737   5.362   4.454   0.479  0.9982  0.1379 -1.7402
 4034TIP3    H233738   5.435   4.544   0.578 -1.7296  0.2609  0.2796
 4035TIP3   OH233739   1.489   0.265   1.120 -0.0029 -0.2610 -0.1019
 4035TIP3    H133740   1.400   0.232   1.135 -0.5371  1.1411 -0.0662
 4035TIP3    H233741   1.538   0.188   1.090 -1.0862 -1.1728  0.4014
 4036TIP3   OH233742   6.487   3.770   2.396 -0.1181  0.0810 -0.3231
 4036TIP3    H133743   6.528   3.729   2.320 -1.9184 -2.5850 -0.0013
 4036TIP3    H233744   6.394   3.754   2.385 -1.2158  4.9643 -0.4950
 4037TIP3   OH233745   6.339   6.670   0.244 -0.1269  0.0207 -0.5200
 4037TIP3    H133746   6.255   6.707   0.215 -1.1094 -1.7776 -0.1281
 4037TIP3    H233747   6.375   6.628   0.166  0.2101  0.4203 -0.5824
 4038TIP3   OH233748   1.949   3.398   4.480 -0.1777 -0.2746 -0.6044
 4038TIP3    H133749   1.998   3.324   4.517  0.6063  0.3086 -0.4656
 4038TIP3    H233750   1.868   3.358   4.446 -0.2126 -1.0443  0.3503
 4039TIP3   OH233751   4.865   5.763   5.360  0.0940  0.5582 -0.8830
 4039TIP3    H133752   4.809   5.819   5.414  1.4899 -0.5656  1.9211
 4039TIP3    H233753   4.947   5.812   5.351 -0.0002  0.5773 -1.7321
 4040TIP3   OH233754   6.059   5.675   4.391  0.1019  0.6199 -0.1647
 4040TIP3    H133755   6.015   5.734   4.330  1.1449  1.2644 -0.3072
 4040TIP3    H233756   6.043   5.713   4.478 -1.0062 -0.0575 -0.0480
 4041TIP3   OH233757   1.070   5.300   2.228 -0.1251  0.1682  0.1820
 4041TIP3    H133758   1.034   5.335   2.147 -1.2233 -0.0807  0.5353
 4041TIP3    H233759   1.000   5.244   2.263 -0.2474  1.3649  2.0033
 4042TIP3   OH233760   3.716   4.300   1.373 -0.1830  0.2192  0.4856
 4042TIP3    H133761   3.773   4.318   1.448 -0.9572  0.0195  1.1505
 4042TIP3    H233762   3.659   4.229   1.403 -0.0272 -0.3632 -0.5617
 4043TIP3   OH233763   5.704   0.209   3.579 -0.2098 -0.0870  0.3679
 4043TIP3    H133764   5.663   0.220   3.665 -0.2792 -0.7633  0.4287
 4043TIP3    H233765   5.642   0.248   3.518  0.3054  1.3249  0.7106
 4044TIP3   OH233766   6.741   3.466   4.295 -0.0225  0.5021 -0.1004
 4044TIP3    H133767   6.748   3.428   4.383 -0.2967  0.0488 -0.2717
 4044TIP3    H233768   6.727   3.559   4.311 -3.5204  0.0277  0.4702
 4045TIP3   OH233769   3.708   2.068   3.865  0.0361 -0.1357  0.4505
 4045TIP3    H133770   3.742   1.985   3.896  0.0962  0.2049  1.3273
 4045TIP3    H233771   3.634   2.087   3.923 -2.2722 -1.2751 -1.9123
 4046TIP3   OH233772   0.612   1.201   2.824 -0.3706 -0.1803  0.1648
 4046TIP3    H133773   0.649   1.270   2.880 -0.0238 -1.2524  1.3263
 4046TIP3    H233774   0.539   1.166   2.874  0.7882 -2.0911  0.6389
 4047TIP3   OH233775   1.850   1.304   2.093  0.0408  0.1688 -0.1824
 4047TIP3    H133776   1.825   1.232   2.036 -1.4908 -1.3121  2.1755
 4047TIP3    H233777   1.922   1.270   2.146 -0.5017  0.4317  0.7560
 4048TIP3   OH233778   5.349   5.622   3.848  0.1380  0.1683  0.3305
 4048TIP3    H133779   5.412   5.563   3.888  3.1206  1.2973 -2.2414
 4048TIP3    H233780   5.377   5.709   3.875  0.1236  0.7361 -1.3314
 4049TIP3   OH233781   1.576   5.418   3.608  0.3411 -0.2767 -0.1148
 4049TIP3    H133782   1.548   5.375   3.688  1.2541 -0.6580  0.0080
 4049TIP3    H233783   1.586   5.510   3.633  1.2688 -0.4989  0.4030
 4050TIP3   OH233784   2.306   5.440   0.722 -0.3537 -0.6432 -0.6831
 4050TIP3    H133785   2.351   5.418   0.803 -0.9232  1.8381  0.4152
 4050TIP3    H233786   2.376   5.452   0.658  0.2424 -0.7719 -0.0682
 4051TIP3   OH233787   0.773   0.303   2.266 -0.1653 -0.7442  0.1950
 4051TIP3    H133788   0.842   0.250   2.226  0.1682 -0.2541  0.1097
 4051TIP3    H233789   0.790   0.299   2.360  0.6369  0.2602  0.1047
 4052TIP3   OH233790   5.602   0.491   2.171  0.0156 -0.6210 -0.1593
 4052TIP3    H133791   5.549   0.556   2.218 -1.5915 -1.3749 -0.8649
 4052TIP3    H233792   5.593   0.515   2.079 -0.5457 -1.7758 -0.4248
 4053TIP3   OH233793   4.059   1.208   2.083 -0.0076 -0.5010 -0.4822
 4053TIP3    H133794   3.982   1.265   2.091  0.2324 -0.3429  0.9234
 4053TIP3    H233795   4.134   1.267   2.092  0.2488 -0.8924  0.0026
 4054TIP3   OH233796   0.047   4.724   1.482  0.2551  0.2229  0.1104
 4054TIP3    H133797   0.125   4.692   1.526  0.2422 -0.0911 -0.0869
 4054TIP3    H233798   0.056   4.693   1.392 -0.1031  0.1696  0.0888
 4055TIP3   OH233799   2.586   3.283   2.462 -0.6289 -0.8333  0.0678
 4055TIP3    H133800   2.520   3.292   2.530 -0.0239  0.9944  0.4639
 4055TIP3    H233801   2.620   3.195   2.473 -1.1158 -0.8535  1.6085
 4056TIP3   OH233802   1.967   6.696   3.601 -0.1789  0.2834  0.0112
 4056TIP3    H133803   1.971   6.614   3.554 -0.1466  1.1889 -1.6355
 4056TIP3    H233804   1.903   6.682   3.670  1.3603 -1.7632  1.1353
 4057TIP3   OH233805   0.071   3.259   3.540  0.1812  0.4870 -0.6383
 4057TIP3    H133806   0.002   3.210   3.496 -0.4208 -0.7340  1.5229
 4057TIP3    H233807   0.025   3.325   3.592  0.8035  1.2850 -1.0765
 4058TIP3   OH233808   6.294   6.235   0.789  0.0463  0.1086 -0.3131
 4058TIP3    H133809   6.344   6.258   0.711 -0.7543  2.6183 -0.2071
 4058TIP3    H233810   6.358   6.239   0.860  0.4540 -0.5588 -0.6395
 4059TIP3   OH233811   3.335   0.023   1.657 -0.1183 -0.3408 -0.4448
 4059TIP3    H133812   3.250  -0.021   1.653  0.9916 -2.6664 -0.0328
 4059TIP3    H233813   3.319   0.109   1.618 -3.3155  0.4888  2.1802
 4060TIP3   OH233814   0.329   2.960   3.686 -0.1755 -0.0245 -0.5097
 4060TIP3    H133815   0.300   3.001   3.768  1.9063  1.0565 -0.2319
 4060TIP3    H233816   0.337   3.032   3.624  1.8777 -0.1920 -0.5223
 4061TIP3   OH233817   3.228   1.301   1.525  0.1334  0.1027  0.0750
 4061TIP3    H133818   3.283   1.248   1.584 -0.2575 -1.5657 -1.0003
 4061TIP3    H233819   3.286   1.324   1.453 -0.1154 -0.2483 -0.2429
 4062TIP3   OH233820   3.158   1.231   0.180 -0.5807  0.3200 -0.1952
 4062TIP3    H133821   3.139   1.159   0.121 -1.6311  0.5344 -0.1281
 4062TIP3    H233822   3.129   1.309   0.134 -2.8227  0.3686  1.1460
 4063TIP3   OH233823   1.021   3.805   4.137 -0.0225 -0.0182  0.0244
 4063TIP3    H133824   1.096   3.864   4.133  0.8780 -1.0598  0.8666
 4063TIP3    H233825   1.010   3.787   4.231 -0.7528 -0.6139 -0.1648
 4064TIP3   OH233826   0.729   5.750   1.739  0.7814  0.0919  0.1200
 4064TIP3    H133827   0.662   5.699   1.694 -0.3029  0.9918  0.6901
 4064TIP3    H233828   0.704   5.747   1.831  2.6894 -1.2867  0.6717
 4065TIP3   OH233829   5.511   1.096   0.932  0.5552 -0.0434 -0.2711
 4065TIP3    H133830   5.570   1.071   0.861  1.4561  0.4521  0.2906
 4065TIP3    H233831   5.434   1.131   0.887  1.1403  0.3306 -1.0105
 4066TIP3   OH233832   2.767   2.489   1.816  0.0604 -0.2905  0.3555
 4066TIP3    H133833   2.841   2.512   1.760  0.7398 -1.0779  0.9051
 4066TIP3    H233834   2.792   2.521   1.903 -0.2794 -0.4827  0.5285
 4067TIP3   OH233835   1.557   3.487   3.014  0.0739  0.2435 -0.2673
 4067TIP3    H133836   1.470   3.514   2.986  0.2848 -0.1588 -1.3644
 4067TIP3    H233837   1.592   3.563   3.061 -1.2995 -0.0076  1.2649
 4068TIP3   OH233838   2.222   3.866   2.463 -0.4668  0.4846 -0.4053
 4068TIP3    H133839   2.236   3.894   2.372  0.3553 -1.2920 -0.8746
 4068TIP3    H233840   2.130   3.841   2.466 -0.3917  0.1146 -0.8994
 4069TIP3   OH233841   6.684   1.735   8.649  0.4036 -0.1686 -0.0933
 4069TIP3    H133842   6.604   1.687   8.627 -0.0054  0.5246 -0.1577
 4069TIP3    H233843   6.654   1.807   8.704  0.4561  2.1690 -2.8952
 4070TIP3   OH233844   4.915   6.787   0.506 -0.0014 -0.1515  0.0968
 4070TIP3    H133845   4.931   6.841   0.428 -0.9695 -0.8303 -0.5989
 4070TIP3    H233846   4.821   6.768   0.502  0.4289 -2.4938 -0.1061
 4071TIP3   OH233847   1.056   0.809   1.653 -0.0054  0.1184 -0.0908
 4071TIP3    H133848   1.031   0.740   1.591 -1.7141 -1.4737  2.1981
 4071TIP3    H233849   0.989   0.876   1.643  0.6011  0.6086 -1.0030
 4072TIP3   OH233850   1.574   2.725   3.711  0.3811 -0.0522  0.0057
 4072TIP3    H133851   1.660   2.716   3.671  0.6226  0.2317  0.4510
 4072TIP3    H233852   1.555   2.819   3.706  0.0720 -0.1210 -0.1422
 4073TIP3   OH233853   1.345   5.246   2.176  0.0084 -0.5064  1.0398
 4073TIP3    H133854   1.253   5.265   2.194 -0.5093 -0.0630 -1.6941
 4073TIP3    H233855   1.381   5.327   2.140  1.2741 -0.9341  1.2676
 4074TIP3   OH233856   4.962   0.003   3.697 -0.3097  0.5851 -0.1906
 4074TIP3    H133857   4.962   0.069   3.766 -0.2866  3.2353 -2.5598
 4074TIP3    H233858   4.870  -0.006   3.672 -0.0659  1.9111 -1.7386
 4075TIP3   OH233859   2.450   2.304   2.992  0.3197  0.2261 -0.5746
 4075TIP3    H133860   2.512   2.375   3.007 -1.3981  1.4079  1.4627
 4075TIP3    H233861   2.365   2.341   3.014 -0.8611 -1.9599 -1.1874
 4076TIP3   OH233862   2.197   4.742   2.711  0.2770 -0.2546  0.1389
 4076TIP3    H133863   2.179   4.797   2.787  2.1641 -0.7972  1.0298
 4076TIP3    H233864   2.212   4.804   2.639  0.1691  0.3112  0.6015
 4077TIP3   OH233865   0.392   1.359   8.791 -0.2502 -0.4404  0.3522
 4077TIP3    H133866   0.325   1.402   8.843 -1.5986 -2.9199  0.8384
 4077TIP3    H233867   0.375   1.265   8.801  1.6874 -1.1295 -1.6404
 4078TIP3   OH233868   5.204   1.464   3.041 -0.3736  0.4445  0.1754
 4078TIP3    H133869   5.129   1.453   3.099  0.2385 -0.7197  0.7728
 4078TIP3    H233870   5.213   1.559   3.032 -1.2765  0.6187  0.9352
 4079TIP3   OH233871   2.495   2.190   2.755 -0.1830  0.1486  0.1702
 4079TIP3    H133872   2.473   2.217   2.845  1.0391  1.0604  0.2223
 4079TIP3    H233873   2.589   2.206   2.748 -0.1874 -0.3106 -1.1504
 4080TIP3   OH233874   0.562   0.329   8.783 -0.1427 -0.2382  0.6724
 4080TIP3    H133875   0.485   0.380   8.807  0.3175  0.9914 -0.3563
 4080TIP3    H233876   0.528   0.241   8.764 -1.1833  0.1062  0.9070
 4081TIP3   OH233877   5.483   3.575   4.360 -0.4973 -0.3375  0.2682
 4081TIP3    H133878   5.391   3.588   4.384 -1.0691 -1.7256 -1.0498
 4081TIP3    H233879   5.508   3.493   4.403 -0.1176 -0.4032 -0.0758
 4082TIP3   OH233880   1.517   6.813   1.234 -0.5268 -0.4695 -0.4792
 4082TIP3    H133881   1.433   6.856   1.249 -1.0470 -1.5113 -0.3266
 4082TIP3    H233882   1.531   6.759   1.313  1.0899  0.9332  0.2775
 4083TIP3   OH233883   6.248   5.339   2.113  0.2937 -0.1188 -0.3944
 4083TIP3    H133884   6.241   5.361   2.206  0.7044  1.3244 -0.6766
 4083TIP3    H233885   6.314   5.400   2.079  0.8129 -1.2209 -1.4529
 4084TIP3   OH233886   0.726   1.032   2.212 -0.2291  0.2009 -0.0737
 4084TIP3    H133887   0.637   1.010   2.240  0.4132  1.3669  3.3174
 4084TIP3    H233888   0.715   1.109   2.157 -1.3315  0.0954 -0.0278
 4085TIP3   OH233889   2.897   2.067   4.664 -0.4618  0.5790 -0.3982
 4085TIP3    H133890   2.816   2.118   4.658 -1.8144 -1.3248  0.4936
 4085TIP3    H233891   2.886   2.014   4.744  2.6960  1.9104  1.0722
 4086TIP3   OH233892   5.002   5.269   1.115 -0.0564  0.4298  0.2059
 4086TIP3    H133893   5.086   5.232   1.143  0.4451  1.6173  0.3523
 4086TIP3    H233894   4.956   5.197   1.073  2.1894  0.3399 -2.4093
 4087TIP3   OH233895   5.613   3.802   3.447 -0.1830 -0.1676  0.1668
 4087TIP3    H133896   5.586   3.881   3.494  0.4479  1.1682 -1.5649
 4087TIP3    H233897   5.706   3.794   3.465  0.1514  0.5796 -1.0534
 4088TIP3   OH233898   4.947   1.363   1.235 -0.0060  0.2215  0.7907
 4088TIP3    H133899   4.853   1.383   1.239 -0.1097 -0.3889  1.6579
 4088TIP3    H233900   4.958   1.323   1.148  0.0938  3.2208 -0.6993
 4089TIP3   OH233901   3.609   3.279   4.675  0.0834 -0.8699 -0.1380
 4089TIP3    H133902   3.586   3.311   4.762  0.1802  1.0528 -0.7798
 4089TIP3    H233903   3.702   3.301   4.664  0.0027 -0.8442 -0.8318
 4090TIP3   OH233904   2.760   2.877   3.773  0.7044  0.5846  0.0340
 4090TIP3    H133905   2.695   2.931   3.818  1.0164  0.6998  0.3520
 4090TIP3    H233906   2.765   2.915   3.685 -0.9220 -0.4950 -0.5775
 4091TIP3   OH233907   1.925   6.289   3.146 -0.5018 -0.5042 -0.0048
 4091TIP3    H133908   1.899   6.201   3.118  0.2739 -0.8771  0.3968
 4091TIP3    H233909   1.955   6.332   3.066 -2.1312 -0.1337 -0.4328
 4092TIP3   OH233910   2.757   5.114   4.171  0.4169  0.2922  0.5295
 4092TIP3    H133911   2.710   5.183   4.124  0.2986  1.4294  2.2073
 4092TIP3    H233912   2.832   5.160   4.211  1.6537 -1.0275 -0.1889
 4093TIP3   OH233913   1.095   4.699   0.917  0.1630 -0.1388 -0.4891
 4093TIP3    H133914   1.013   4.688   0.869 -0.4361 -2.6342  0.9369
 4093TIP3    H233915   1.084   4.647   0.996  1.9769  1.9821  1.2750
 4094TIP3   OH233916   3.591   1.817   1.353  0.0702 -0.1161  0.4552
 4094TIP3    H133917   3.530   1.778   1.291  0.7936  2.2375 -1.9559
 4094TIP3    H233918   3.677   1.801   1.316  0.4817  2.0937  0.3044
 4095TIP3   OH233919   4.134   3.517   0.270 -0.0010 -0.0322 -0.3529
 4095TIP3    H133920   4.202   3.454   0.250  0.2489  0.1066  0.0544
 4095TIP3    H233921   4.173   3.602   0.251 -0.6194 -0.0318 -1.7296
 4096TIP3   OH233922   6.687   6.539   3.906  0.1916  0.3317 -0.5043
 4096TIP3    H133923   6.698   6.450   3.873 -1.1022 -0.9144  2.0977
 4096TIP3    H233924   6.753   6.546   3.975  0.1988  1.3680 -0.6057
 4097TIP3   OH233925   0.576   3.272   0.784 -0.5095  0.1215  0.2208
 4097TIP3    H133926   0.560   3.347   0.727 -0.4101 -0.6728 -0.9092
 4097TIP3    H233927   0.671   3.267   0.792 -0.5140  2.3135  3.4327
 4098TIP3   OH233928   0.290   5.592   1.284 -0.2764  0.1537 -0.1432
 4098TIP3    H133929   0.223   5.633   1.228 -0.5510  0.3081  0.2970
 4098TIP3    H233930   0.307   5.507   1.242  1.5442  1.3519 -2.0723
 4099TIP3   OH233931   4.247   0.125   0.981  0.1909 -0.0786 -0.1722
 4099TIP3    H133932   4.233   0.036   0.948 -1.5626  0.6714 -1.6072
 4099TIP3    H233933   4.184   0.135   1.052  0.3690  0.0323 -0.0274
 4100TIP3   OH233934   2.479   2.848   3.272  0.3917  0.1303  0.0145
 4100TIP3    H133935   2.477   2.784   3.343  1.4991 -0.4380 -0.4376
 4100TIP3    H233936   2.445   2.802   3.196  1.3426  0.0051 -0.3526
 4101TIP3   OH233937   4.067   0.871   3.883  0.3586  0.1471 -0.0435
 4101TIP3    H133938   4.015   0.892   3.960  0.4371 -0.6393  0.2344
 4101TIP3    H233939   4.147   0.924   3.892  0.8124 -0.6592  0.9321
 4102TIP3   OH233940   2.971   1.436   1.123  0.3115 -0.2244 -0.0173
 4102TIP3    H133941   3.057   1.446   1.165  0.4720  2.5160 -0.7702
 4102TIP3    H233942   2.908   1.442   1.195  0.6954  0.9864  0.2498
 4103TIP3   OH233943   4.137   6.764   0.553 -0.5934  0.8679  0.1107
 4103TIP3    H133944   4.043   6.769   0.570 -0.7031  0.8505 -0.4677
 4103TIP3    H233945   4.146   6.690   0.492 -0.1063  0.3103  0.8402
 4104TIP3   OH233946   6.290   6.532   3.635 -0.3097 -0.0203  0.1385
 4104TIP3    H133947   6.292   6.542   3.730  1.4774  0.2075  0.0984
 4104TIP3    H233948   6.311   6.440   3.621 -1.7031 -0.3370 -0.0264
 4105TIP3   OH233949   2.603   1.889   1.818  0.0270  0.4353 -0.8227
 4105TIP3    H133950   2.565   1.918   1.735 -1.1024  0.4923 -0.3042
 4105TIP3    H233951   2.536   1.908   1.883  1.1624  1.0283  0.2214
 4106TIP3   OH233952   1.580   4.548   1.489  0.6977 -0.1560 -0.2547
 4106TIP3    H133953   1.533   4.631   1.478 -0.4844 -0.7603  0.0371
 4106TIP3    H233954   1.578   4.508   1.403  2.0153  0.4732 -0.6028
 4107TIP3   OH233955   4.127   0.613   2.413 -0.5848 -0.3614  0.3995
 4107TIP3    H133956   4.208   0.567   2.433 -1.1524 -0.8969  1.5946
 4107TIP3    H233957   4.098   0.648   2.497 -1.5285 -0.0747 -0.0282
 4108TIP3   OH233958   1.928   6.466   0.779  0.3380 -0.1473 -0.2631
 4108TIP3    H133959   1.858   6.530   0.770  1.9336  1.7525  0.2256
 4108TIP3    H233960   1.903   6.414   0.855 -0.9477 -0.0777 -0.6182
 4109TIP3   OH233961   2.907   5.204   0.677 -0.0177 -0.5053 -0.1291
 4109TIP3    H133962   2.974   5.137   0.663  0.2835 -0.2026 -0.1426
 4109TIP3    H233963   2.880   5.229   0.588  0.1414 -0.3421 -0.1339
 4110TIP3   OH233964   0.322   2.200   0.196  0.1391 -0.2512 -0.3898
 4110TIP3    H133965   0.268   2.197   0.117 -0.5255 -0.9722  0.0669
 4110TIP3    H233966   0.402   2.245   0.170  0.0444 -0.7288 -1.5416
 4111TIP3   OH233967   5.440   6.202   0.436  0.9441  0.0632 -0.0205
 4111TIP3    H133968   5.522   6.165   0.470  2.9604  2.2120 -2.2023
 4111TIP3    H233969   5.412   6.264   0.504  0.4472 -1.4607  1.2291
 4112TIP3   OH233970   5.436   5.189   3.000  0.0234  0.4028  0.7502
 4112TIP3    H133971   5.383   5.147   3.067  0.9955  0.5899  1.6557
 4112TIP3    H233972   5.478   5.262   3.045  0.5439  0.6485 -0.1121
 4113TIP3   OH233973   1.314   3.723   1.606  0.0010  0.2047 -0.5250
 4113TIP3    H133974   1.357   3.782   1.545 -0.5068 -0.3216 -1.4093
 4113TIP3    H233975   1.361   3.735   1.689 -0.1079  1.8299 -0.6809
 4114TIP3   OH233976   4.750   4.209   1.664 -0.3594 -0.3754  0.3588
 4114TIP3    H133977   4.843   4.192   1.683 -0.1095  0.6686  0.1637
 4114TIP3    H233978   4.745   4.207   1.568 -0.5983 -0.6990  0.3778
 4115TIP3   OH233979   4.505   4.890   0.865  0.3945  0.3146 -0.5725
 4115TIP3    H133980   4.440   4.861   0.801  0.0803 -0.3242  0.0173
 4115TIP3    H233981   4.589   4.868   0.825  0.1718 -2.8054  0.3918
 4116TIP3   OH233982   6.502   5.746   2.207  0.0630 -0.0482  0.6056
 4116TIP3    H133983   6.505   5.840   2.187 -2.1735 -0.2712 -1.2093
 4116TIP3    H233984   6.489   5.742   2.301 -2.3147  1.6254  0.4434
 4117TIP3   OH233985   5.121   1.406   0.933 -0.0939 -0.2992  0.4830
 4117TIP3    H133986   5.029   1.430   0.947  0.1441  0.7776  0.2802
 4117TIP3    H233987   5.169   1.487   0.948  0.6305 -0.3189 -1.5137
 4118TIP3   OH233988   0.876   3.981   3.793  0.0372 -0.2595  0.0388
 4118TIP3    H133989   0.941   4.032   3.842  2.4704 -2.3562 -0.8318
 4118TIP3    H233990   0.838   3.923   3.858  2.2672 -2.0656 -0.1548
 4119TIP3   OH233991   3.606   5.742   0.697 -0.1579  0.4111 -0.1496
 4119TIP3    H133992   3.542   5.737   0.626 -0.8332  0.0256  0.4672
 4119TIP3    H233993   3.664   5.667   0.682 -1.4897 -0.8842  0.7883
 4120TIP3   OH233994   0.638   2.393   2.711 -0.4953 -0.1199  0.2359
 4120TIP3    H133995   0.581   2.318   2.693  0.4015 -0.9931  0.8948
 4120TIP3    H233996   0.726   2.360   2.695 -0.1794  1.3640 -1.2685
 4121TIP3   OH233997   3.588   5.121   1.563 -0.0727  0.2364 -0.2273
 4121TIP3    H133998   3.558   5.100   1.474 -1.0695  0.0340  0.1427
 4121TIP3    H233999   3.608   5.036   1.602  0.1268  0.3065 -0.1774
 4122TIP3   OH234000   1.161   1.030   3.225 -0.5636  0.3081  1.0658
 4122TIP3    H134001   1.241   0.977   3.225  0.0370  1.1427 -0.3088
 4122TIP3    H234002   1.107   0.992   3.294  0.1130 -1.6533  0.5917
 4123TIP3   OH234003   2.681   2.330   3.213 -0.3477  0.0744 -0.3441
 4123TIP3    H134004   2.767   2.297   3.186 -0.0125 -0.2246  1.0111
 4123TIP3    H234005   2.635   2.253   3.245  0.1781  0.7101  2.1720
 4124TIP3   OH234006   5.909   0.445   0.856  0.2063  0.3471  0.0944
 4124TIP3    H134007   5.860   0.393   0.793  0.1752  0.3651  0.1038
 4124TIP3    H234008   5.920   0.387   0.931 -0.6251  0.6542  0.4706
 4125TIP3   OH234009   5.942   4.140   4.086  0.2839 -1.0133 -0.3060
 4125TIP3    H134010   5.921   4.060   4.038  0.8392 -0.7084 -1.0711
 4125TIP3    H234011   6.029   4.165   4.056  1.0140 -1.2563  1.4777
 4126TIP3   OH234012   1.429   1.176   2.927  0.0115 -0.1818  0.2451
 4126TIP3    H134013   1.436   1.082   2.945  1.3528 -0.2498 -0.4650
 4126TIP3    H234014   1.348   1.185   2.876  0.1732 -1.0468 -0.1882
 4127TIP3   OH234015   0.616   3.293   1.220 -0.4416  0.7083  0.4761
 4127TIP3    H134016   0.526   3.324   1.224 -1.1673 -1.1851  0.0247
 4127TIP3    H234017   0.629   3.246   1.302 -0.1748  0.2361  0.1732
 4128TIP3   OH234018   5.572   0.294   3.796  0.3062 -0.5304 -0.2117
 4128TIP3    H134019   5.576   0.387   3.774 -1.2648  0.0533  1.7398
 4128TIP3    H234020   5.479   0.272   3.792  0.7662 -2.5374 -2.3812
 4129TIP3   OH234021   5.111   3.466   1.645  0.3122  0.0773  0.0112
 4129TIP3    H134022   5.085   3.451   1.736 -2.4188  1.7164 -0.3885
 4129TIP3    H234023   5.085   3.386   1.600 -0.0261 -0.0297  0.3863
 4130TIP3   OH234024   1.187   6.719   1.936  0.1093  0.2419  0.1040
 4130TIP3    H134025   1.121   6.681   1.994 -0.2478  1.5264  0.5646
 4130TIP3    H234026   1.244   6.645   1.914 -0.3886 -0.4985  1.1989
 4131TIP3   OH234027   3.440   0.275   2.277 -0.1435  0.1482  0.2728
 4131TIP3    H134028   3.444   0.341   2.208 -2.5245  0.3482  0.2503
 4131TIP3    H234029   3.506   0.303   2.341  0.4088  1.2949 -0.7512
 4132TIP3   OH234030   4.605   5.472   4.312  0.1727 -0.1291 -0.3473
 4132TIP3    H134031   4.543   5.491   4.382 -0.1481  0.6874 -0.8374
 4132TIP3    H234032   4.571   5.520   4.237  1.8922  1.0870 -0.3862
 4133TIP3   OH234033   1.040   3.567   3.968  0.1133 -0.1471  0.0358
 4133TIP3    H134034   0.961   3.557   4.022  0.9555 -0.3230  1.2655
 4133TIP3    H234035   1.079   3.649   3.999 -0.3439  0.7254 -1.5959
 4134TIP3   OH234036   2.410   4.459   3.971  0.9111  0.0986 -0.7248
 4134TIP3    H134037   2.499   4.468   4.003  0.5004  2.4848 -0.0894
 4134TIP3    H234038   2.357   4.447   4.050  0.4105  1.2701 -0.8631
 4135TIP3   OH234039   6.728   4.194   2.369 -0.2415 -0.2095 -0.4524
 4135TIP3    H134040   6.806   4.249   2.378 -0.5991  0.6121 -2.1081
 4135TIP3    H234041   6.755   4.124   2.310 -0.3662 -0.7203  0.0883
 4136TIP3   OH234042   4.945   0.692   0.637  0.3106 -0.4572  0.4192
 4136TIP3    H134043   4.926   0.642   0.558 -0.4891  0.8216 -0.2351
 4136TIP3    H234044   4.890   0.652   0.704  1.0273 -1.5801  0.3641
 4137TIP3   OH234045   4.116   1.940   3.994 -0.1350 -0.4973 -0.5127
 4137TIP3    H134046   4.165   1.879   3.938 -1.0807 -2.0985  0.3212
 4137TIP3    H234047   4.138   1.914   4.083 -2.6073 -1.4682 -0.0851
 4138TIP3   OH234048   2.858   1.106   2.110 -0.3103 -0.4509 -0.3200
 4138TIP3    H134049   2.909   1.185   2.127  1.0468 -1.2891 -0.3481
 4138TIP3    H234050   2.827   1.078   2.196 -0.7932  0.1020 -0.3100
 4139TIP3   OH234051   3.542   2.085   2.008 -0.4976 -0.0974 -0.1729
 4139TIP3    H134052   3.516   2.145   1.938  0.6381  1.2569  0.5067
 4139TIP3    H234053   3.545   2.140   2.087 -0.6966 -1.3527  0.7402
 4140TIP3   OH234054   1.774   4.687   1.112 -0.3382 -0.3070 -0.2706
 4140TIP3    H134055   1.786   4.740   1.191 -2.6556  0.8934 -0.6289
 4140TIP3    H234056   1.843   4.716   1.052 -0.8318  1.5214 -0.0177
 4141TIP3   OH234057   1.656   0.286   3.414  0.1538 -0.4584 -0.0451
 4141TIP3    H134058   1.736   0.293   3.466  0.4783 -1.0722 -0.4493
 4141TIP3    H234059   1.593   0.341   3.460  1.2902  1.4724 -0.6819
 4142TIP3   OH234060   6.392   2.524   2.192 -0.3748  0.2349 -0.5513
 4142TIP3    H134061   6.357   2.469   2.262  0.5436  0.3566  0.0166
 4142TIP3    H234062   6.387   2.613   2.227  0.6014  0.2406 -0.4122
 4143TIP3   OH234063   5.384   5.576   3.358  0.1324  0.9044 -0.0427
 4143TIP3    H134064   5.409   5.603   3.446  1.4022 -2.3825  0.7430
 4143TIP3    H234065   5.308   5.631   3.337 -0.0788  1.9495  2.9764
 4144TIP3   OH234066   1.206   6.581   3.093 -0.4181  0.6520  0.0833
 4144TIP3    H134067   1.162   6.497   3.079  1.7745 -0.3113 -1.7145
 4144TIP3    H234068   1.237   6.577   3.184 -1.5403  0.1408  0.4584
 4145TIP3   OH234069   1.636   5.511   2.351 -0.4779  0.0044  0.3774
 4145TIP3    H134070   1.637   5.564   2.431 -1.5233 -1.1044  1.1639
 4145TIP3    H234071   1.703   5.444   2.367  1.7681  1.7417 -1.1453
 4146TIP3   OH234072   5.291   1.729   1.543  0.2107 -0.1316  0.3483
 4146TIP3    H134073   5.224   1.694   1.484  0.2224  1.4035 -0.6216
 4146TIP3    H234074   5.244   1.754   1.622 -0.1615 -0.1655  0.1368
 4147TIP3   OH234075   5.211   1.001   3.245 -0.0094  0.2175 -0.1464
 4147TIP3    H134076   5.288   1.048   3.278 -0.1658 -2.2579  4.4947
 4147TIP3    H234077   5.241   0.912   3.229 -1.6911 -0.7161  1.4150
 4148TIP3   OH234078   5.620   1.526   3.989 -0.1094 -0.6548 -0.4577
 4148TIP3    H134079   5.692   1.508   3.929  0.2967 -1.0605  0.1335
 4148TIP3    H234080   5.619   1.621   3.998  0.4452 -0.6537 -0.3673
 4149TIP3   OH234081   1.390   5.866   1.507 -0.0061  0.4379 -0.1282
 4149TIP3    H134082   1.379   5.961   1.497  0.4953  0.3842 -1.4613
 4149TIP3    H234083   1.315   5.829   1.460 -2.0491  0.1243  3.0507
 4150TIP3   OH234084   2.984   6.540   1.279 -0.2645  0.1950  0.4147
 4150TIP3    H134085   3.063   6.490   1.301 -0.0497  0.9816  1.5574
 4150TIP3    H234086   2.913   6.494   1.325 -0.2106  0.3996  0.7074
 4151TIP3   OH234087   6.600   3.474   0.966 -0.1031  0.4046  0.2063
 4151TIP3    H134088   6.544   3.529   0.910 -0.5975  0.0200  0.3096
 4151TIP3    H234089   6.550   3.393   0.975  0.7972 -0.2086 -0.2651
 4152TIP3   OH234090   3.343   1.522   0.087  0.3284 -0.1715  0.2505
 4152TIP3    H134091   3.300   1.546   0.005  1.1289 -1.2319 -0.5133
 4152TIP3    H234092   3.272   1.498   0.146 -0.3804  2.2408  0.4757
 4153TIP3   OH234093   1.541   6.737   0.242  0.3753  0.1525  1.0185
 4153TIP3    H134094   1.543   6.641   0.235 -2.0597  0.1587 -1.8496
 4153TIP3    H234095   1.448   6.758   0.254  0.5787  2.2185 -0.5086
 4154TIP3   OH234096   4.947   5.385   0.457 -0.1041  0.1762 -0.1355
 4154TIP3    H134097   5.007   5.456   0.481  0.1090  0.4618 -1.4346
 4154TIP3    H234098   4.861   5.428   0.452 -0.4989 -0.2712  1.9161
 4155TIP3   OH234099   2.188   4.851   3.619  0.1460 -0.3523  0.0026
 4155TIP3    H134100   2.241   4.837   3.697  0.9454 -0.6128 -0.5812
 4155TIP3    H234101   2.201   4.944   3.597  0.3444 -0.4140 -0.1355
 4156TIP3   OH234102   4.882   6.127   0.469  0.0411 -0.5468  0.0448
 4156TIP3    H134103   4.926   6.085   0.543  0.2752 -1.3457 -0.5306
 4156TIP3    H234104   4.950   6.179   0.426 -0.1911  0.2477  0.6168
 4157TIP3   OH234105   6.145   0.216   2.763 -0.5129 -0.3202 -0.4100
 4157TIP3    H134106   6.050   0.231   2.770 -0.1069  2.0460  1.8305
 4157TIP3    H234107   6.179   0.242   2.849  2.0280 -2.7972 -0.5322
 4158TIP3   OH234108   5.310   3.892   3.682 -0.0064  0.5124  0.0356
 4158TIP3    H134109   5.223   3.880   3.719  0.9719  0.3431  2.5027
 4158TIP3    H234110   5.343   3.972   3.724  0.7078  1.0976 -1.5571
 4159TIP3   OH234111   6.734   6.316   0.628  0.0395  0.0465 -0.4048
 4159TIP3    H134112   6.825   6.311   0.600  1.2046 -1.5274  3.2117
 4159TIP3    H234113   6.694   6.236   0.595 -0.3058  0.9518 -2.3975
 4160TIP3   OH234114   4.079   0.446   1.438  0.1047  0.2112 -0.3492
 4160TIP3    H134115   4.026   0.419   1.513  0.6208 -0.4794 -0.2151
 4160TIP3    H234116   4.155   0.388   1.442  0.8866  1.2017 -0.5133
 4161TIP3   OH234117   2.249   6.660   3.810 -0.1997  0.6457  0.0341
 4161TIP3    H134118   2.219   6.750   3.819  1.1980  0.9860  1.8352
 4161TIP3    H234119   2.331   6.657   3.860  0.4283 -1.3149 -1.0167
 4162TIP3   OH234120   5.734   0.832   4.168 -0.7360  0.1445 -0.1113
 4162TIP3    H134121   5.753   0.805   4.078 -0.5779  3.2931 -1.1744
 4162TIP3    H234122   5.778   0.917   4.177 -1.8093  0.5257  2.5185
 4163TIP3   OH234123   0.437   4.171   0.702 -0.2525 -0.2915  0.0175
 4163TIP3    H134124   0.420   4.192   0.794  2.3415  0.8559  0.3315
 4163TIP3    H234125   0.417   4.253   0.655  1.1339  0.0430 -0.0188
 4164TIP3   OH234126   6.165   1.933   0.478 -0.7101 -0.2390  0.0590
 4164TIP3    H134127   6.154   1.843   0.446 -1.8083 -0.5875  1.3448
 4164TIP3    H234128   6.187   1.923   0.571 -2.3075  0.8323  0.5857
 4165TIP3   OH234129   0.605   6.530   2.297  0.5583 -0.6758 -0.4206
 4165TIP3    H134130   0.590   6.585   2.221  2.1465 -0.3138 -0.5093
 4165TIP3    H234131   0.522   6.529   2.344  0.3489  1.3857 -0.6840
 4166TIP3   OH234132   5.962   5.834   2.090  0.3812 -0.5170  0.6012
 4166TIP3    H134133   5.943   5.777   2.015  1.1706  0.1470 -0.1262
 4166TIP3    H234134   5.876   5.866   2.118  0.1121 -0.4008 -0.3283
 4167TIP3   OH234135   1.535   5.745   2.245  0.3584 -0.1313 -0.3161
 4167TIP3    H134136   1.577   5.668   2.283  0.8892  0.5570  0.5714
 4167TIP3    H234137   1.442   5.725   2.244  0.4714 -0.7013  0.1248
 4168TIP3   OH234138   2.478   2.802   1.565 -0.1604 -0.0163  0.1417
 4168TIP3    H134139   2.424   2.821   1.641 -1.8592  0.3440 -1.0950
 4168TIP3    H234140   2.536   2.878   1.557 -2.2156  1.5471 -0.7786
 4169TIP3   OH234141   4.351   2.229   2.627 -0.7688  0.1385  0.4249
 4169TIP3    H134142   4.378   2.180   2.549  0.7286  2.1870 -0.4379
 4169TIP3    H234143   4.416   2.205   2.694 -1.1548 -0.4593  0.5931
 4170TIP3   OH234144   6.578   4.958   0.479  0.0955  0.1974  0.5904
 4170TIP3    H134145   6.586   4.903   0.557 -0.4666 -0.5840  0.1028
 4170TIP3    H234146   6.486   4.952   0.454  0.2002  0.7228  0.0645
 4171TIP3   OH234147   0.663   4.571   0.719 -0.2140  0.2037  0.0853
 4171TIP3    H134148   0.571   4.585   0.699  0.0764  0.7804 -0.9137
 4171TIP3    H234149   0.697   4.521   0.645  0.7489  1.8758 -0.6739
 4172TIP3   OH234150   1.145   4.643   2.651 -0.6055 -0.2137 -0.2817
 4172TIP3    H134151   1.167   4.631   2.743 -0.7840 -0.0331 -0.2141
 4172TIP3    H234152   1.111   4.733   2.646  1.6560  0.6813 -0.9593
 4173TIP3   OH234153   6.108   4.091   4.622 -0.1329  0.6315 -0.3698
 4173TIP3    H134154   6.065   4.122   4.542 -0.9955  1.8715  0.5256
 4173TIP3    H234155   6.119   3.997   4.609 -0.3799  0.7940 -1.8823
 4174TIP3   OH234156   0.699   2.527   2.987  0.0474 -0.3567  0.3720
 4174TIP3    H134157   0.642   2.506   2.913  0.6654  0.2797 -0.2991
 4174TIP3    H234158   0.697   2.448   3.042 -2.0133 -0.1098  0.7301
 4175TIP3   OH234159   3.401   1.873   0.023  0.1062  0.0981  0.4005
 4175TIP3    H134160   3.393   1.961  -0.014  0.6971  0.5293  1.2604
 4175TIP3    H234161   3.343   1.819  -0.030  1.3370  0.5577 -1.5390
 4176TIP3   OH234162   2.738   2.080   4.084  0.1620 -0.4022 -0.2876
 4176TIP3    H134163   2.706   2.037   4.004 -0.3809 -0.3804 -0.0866
 4176TIP3    H234164   2.676   2.052   4.152  0.3048  0.0198  0.0155
 4177TIP3   OH234165   5.143   3.050   1.230  0.5913 -0.3981 -0.0096
 4177TIP3    H134166   5.174   3.140   1.222 -0.1665 -0.1425 -0.0830
 4177TIP3    H234167   5.151   3.014   1.142  0.7822 -0.3703 -0.0051
 4178TIP3   OH234168   0.590   0.939   3.780  0.4944 -0.0952  0.5626
 4178TIP3    H134169   0.519   1.002   3.769  0.2146 -0.6693 -1.3746
 4178TIP3    H234170   0.624   0.955   3.868 -0.8525  1.4006  0.8491
 4179TIP3   OH234171   0.835   3.977   3.300 -0.4663 -0.3325  0.0171
 4179TIP3    H134172   0.865   3.894   3.263 -1.1143 -2.3868  3.6264
 4179TIP3    H234173   0.768   3.952   3.363 -1.8390  3.1527  0.1529
 4180TIP3   OH234174   1.848   0.454   3.999  0.0028 -0.5156  0.3357
 4180TIP3    H134175   1.855   0.538   4.045 -1.4689 -1.1107  1.7585
 4180TIP3    H234176   1.913   0.398   4.042  0.5155 -0.3030 -0.1576
 4181TIP3   OH234177   3.219   0.897   1.301 -0.1861 -0.1073 -0.1656
 4181TIP3    H134178   3.179   0.957   1.238 -0.2044  0.0596  0.0027
 4181TIP3    H234179   3.281   0.846   1.249  1.3162  1.4153  0.0157
 4182TIP3   OH234180   6.467   6.669   2.021  0.1392 -0.1843 -0.6878
 4182TIP3    H134181   6.416   6.732   1.970  0.9404  0.3246 -0.8822
 4182TIP3    H234182   6.549   6.660   1.973  0.8042  0.1020  0.3589
 4183TIP3   OH234183   2.398   5.379   0.980 -0.0995 -0.5005  0.6477
 4183TIP3    H134184   2.359   5.307   1.030  0.2574 -1.7120 -0.7234
 4183TIP3    H234185   2.492   5.358   0.978  0.1795  0.6406  1.1978
 4184TIP3   OH234186   1.420   5.305   1.697  0.0197  0.4075  0.1860
 4184TIP3    H134187   1.413   5.276   1.788  0.5494 -1.1980 -0.2541
 4184TIP3    H234188   1.457   5.393   1.703  1.1502 -0.1213  1.4839
 4185TIP3   OH234189   4.427   5.526   4.084  0.0691 -0.1823 -0.0989
 4185TIP3    H134190   4.383   5.443   4.103  0.6045 -0.3732  0.3587
 4185TIP3    H234191   4.488   5.505   4.014  0.3542 -0.2321  0.1602
 4186TIP3   OH234192   3.304   3.860   3.771  0.1127 -0.0753 -0.3382
 4186TIP3    H134193   3.389   3.890   3.739  0.4745 -1.4683 -0.7506
 4186TIP3    H234194   3.322   3.777   3.814 -1.1488 -0.8646 -1.2544
 4187TIP3   OH234195   2.391   0.733   1.698  0.0142 -0.2979  0.0015
 4187TIP3    H134196   2.362   0.800   1.636 -0.1218 -0.6298 -0.2986
 4187TIP3    H234197   2.403   0.654   1.645  0.6164 -0.3966  0.2711
 4188TIP3   OH234198   4.271   4.347   4.084  0.7551  0.0187 -0.2822
 4188TIP3    H134199   4.319   4.265   4.096  1.3672  0.6453  2.0426
 4188TIP3    H234200   4.189   4.321   4.041  1.3339 -1.6511 -0.4449
 4189TIP3   OH234201   4.196   5.658   4.054  0.5246  0.0309  0.5418
 4189TIP3    H134202   4.282   5.620   4.071  1.2710  0.7942 -1.2229
 4189TIP3    H234203   4.212   5.724   3.986 -1.6948 -1.0566 -1.1819
 4190TIP3   OH234204   5.902   6.204   1.808 -0.0250 -0.2560 -0.0435
 4190TIP3    H134205   5.977   6.145   1.806 -1.6784 -2.5036  0.6529
 4190TIP3    H234206   5.922   6.266   1.878  1.0917 -0.9460  0.2665
 4191TIP3   OH234207   6.566   0.770   1.101 -0.1351  0.0282  0.0068
 4191TIP3    H134208   6.611   0.732   1.177  0.3478 -2.4736 -1.3925
 4191TIP3    H234209   6.492   0.711   1.086  0.2949 -0.0653 -1.9685
 4192TIP3   OH234210   1.568   3.779   3.590 -0.2683 -0.3132  0.6269
 4192TIP3    H134211   1.543   3.870   3.581  0.4954 -0.2020 -0.6648
 4192TIP3    H234212   1.534   3.752   3.675 -0.2015  1.2683  1.1698
 4193TIP3   OH234213   6.402   4.719   0.698  0.3694 -0.2138  0.3595
 4193TIP3    H134214   6.485   4.675   0.716  0.7445  0.4165  0.2184
 4193TIP3    H234215   6.366   4.672   0.623  0.4724 -0.6585  0.5865
 4194TIP3   OH234216   3.369   3.375   0.629  0.6299  0.4861 -0.2782
 4194TIP3    H134217   3.330   3.341   0.710 -0.4766  3.3106  0.4818
 4194TIP3    H234218   3.456   3.405   0.656  0.3244  1.2763 -0.1621
 4195TIP3   OH234219   0.632   5.492   2.336  0.0191 -0.4005  0.4181
 4195TIP3    H134220   0.660   5.455   2.252  0.2542  0.1544  0.2518
 4195TIP3    H234221   0.674   5.436   2.401 -0.3724 -0.9929  0.1729
 4196TIP3   OH234222   0.600   5.108   2.973 -0.0128  0.0427  0.3245
 4196TIP3    H134223   0.656   5.184   2.983  0.5149  0.0541 -2.1241
 4196TIP3    H234224   0.645   5.038   3.021  0.2353  0.9073  1.3719
 4197TIP3   OH234225   0.495   5.994   0.867  0.2953 -0.4855 -0.3512
 4197TIP3    H134226   0.418   5.954   0.828  0.5867  0.1959 -1.7140
 4197TIP3    H234227   0.488   5.975   0.960 -0.6835 -1.7937 -0.6598
 4198TIP3   OH234228   5.576   1.633   0.968  0.1396  0.2685 -0.2770
 4198TIP3    H134229   5.557   1.540   0.955  1.2086  0.0951 -0.7391
 4198TIP3    H234230   5.630   1.635   1.048  0.6972  0.4000 -0.6489
 4199TIP3   OH234231   6.763   6.270   4.536 -0.1358  0.3055  0.4453
 4199TIP3    H134232   6.693   6.229   4.485 -0.0675 -0.2251  0.7714
 4199TIP3    H234233   6.756   6.230   4.623  0.6107  0.1968  0.4613
 4200TIP3   OH234234   5.584   6.338   0.704  0.4493 -0.3258  0.1459
 4200TIP3    H134235   5.547   6.407   0.649  2.8797  0.5133 -0.5441
 4200TIP3    H234236   5.578   6.259   0.649 -1.0983 -0.4244  0.4155
 4201TIP3   OH234237   0.674   0.746   1.686 -0.2682 -0.8011  0.3576
 4201TIP3    H134238   0.663   0.803   1.762 -0.4512 -0.7255  0.2742
 4201TIP3    H234239   0.729   0.797   1.626 -1.2347 -0.3059 -0.1343
 4202TIP3   OH234240   1.664   0.122   2.283  0.3536  0.1131 -0.6355
 4202TIP3    H134241   1.714   0.072   2.348 -1.6830 -1.8758 -0.4619
 4202TIP3    H234242   1.587   0.152   2.331 -0.9298 -0.9443 -1.9480
 4203TIP3   OH234243   5.424   3.967   2.167  0.4395 -0.1027  0.0481
 4203TIP3    H134244   5.338   3.994   2.198  0.4741  0.4502 -0.3154
 4203TIP3    H234245   5.443   3.887   2.216 -0.2066 -0.1413  0.2502
 4204TIP3   OH234246   3.824   2.237   2.795  0.3756 -0.0228 -0.2728
 4204TIP3    H134247   3.911   2.198   2.784 -1.0141 -3.1233 -1.3759
 4204TIP3    H234248   3.791   2.247   2.706 -1.0939 -0.7109  0.1711
 4205TIP3   OH234249   2.014   1.509   1.939 -0.2469 -0.3901  0.5454
 4205TIP3    H134250   1.962   1.483   2.015 -2.8672  0.3317 -0.9006
 4205TIP3    H234251   1.950   1.528   1.871  1.9915 -2.3482 -2.3550
 4206TIP3   OH234252   3.101   2.764   3.645 -1.1361  0.4221 -0.0574
 4206TIP3    H134253   3.032   2.706   3.677 -0.4689  0.0190  0.6742
 4206TIP3    H234254   3.074   2.852   3.674 -0.9744  0.1697  0.8840
 4207TIP3   OH234255   2.903   5.494   0.622  0.3367 -0.2008  0.0313
 4207TIP3    H134256   2.887   5.400   0.631  1.3702 -0.4746 -0.7711
 4207TIP3    H234257   2.819   5.531   0.597 -0.0834 -0.9009  0.3679
 4208TIP3   OH234258   4.425   4.541   3.951  0.3027  0.1073 -1.1087
 4208TIP3    H134259   4.403   4.472   4.014  1.8897  1.5087  1.1071
 4208TIP3    H234260   4.342   4.583   3.930 -0.2563 -0.3755  0.0959
 4209TIP3   OH234261   1.580   4.894   0.923  0.8860  0.0064 -0.2415
 4209TIP3    H134262   1.511   4.828   0.922  0.9896 -0.1105  0.3333
 4209TIP3    H234263   1.594   4.914   1.015  1.9844 -0.3483 -0.3153
 4210TIP3   OH234264   3.289   0.904   2.107 -0.0261  0.3773 -0.3872
 4210TIP3    H134265   3.255   0.822   2.070 -0.0735  0.6771 -1.0315
 4210TIP3    H234266   3.224   0.930   2.172 -1.3048  1.1735 -1.9137
 4211TIP3   OH234267   1.793   1.750   1.554  0.0199  0.0145  0.7819
 4211TIP3    H134268   1.854   1.823   1.546 -0.3173  0.1434 -1.0965
 4211TIP3    H234269   1.716   1.788   1.596 -0.8841  1.2969 -1.8231
 4212TIP3   OH234270   3.899   4.946   3.290 -0.1205 -0.1085 -0.0522
 4212TIP3    H134271   3.900   5.033   3.331  0.6611 -1.0938  2.1417
 4212TIP3    H234272   3.807   4.932   3.267 -0.2322  1.3664 -0.6455
 4213TIP3   OH234273   5.039   1.152   0.313 -0.1715 -0.4286  0.4031
 4213TIP3    H134274   5.017   1.171   0.221  0.2768  3.7175  0.9496
 4213TIP3    H234275   5.131   1.125   0.311 -0.7054 -2.3608 -0.4575
 4214TIP3   OH234276   2.148   5.571   8.791  0.4353 -0.3654  0.2638
 4214TIP3    H134277   2.173   5.525   8.871  0.7283 -0.3281  0.1945
 4214TIP3    H234278   2.212   5.543   8.726 -0.6654 -1.5405 -0.3539
 4215TIP3   OH234279   4.565   5.600   1.862 -1.1408 -0.1532 -0.4890
 4215TIP3    H134280   4.524   5.644   1.936 -0.5083  0.4961 -0.5201
 4215TIP3    H234281   4.617   5.531   1.902 -0.9489  0.0756 -0.3415
 4216TIP3   OH234282   6.735   4.990   3.117  0.3341 -0.0118  0.1649
 4216TIP3    H134283   6.705   4.907   3.079  0.8676  0.3777 -1.1523
 4216TIP3    H234284   6.830   4.981   3.125  0.4025  0.4847 -0.0326
 4217TIP3   OH234285   6.801   3.075   0.220 -0.8874  0.2969 -0.2972
 4217TIP3    H134286   6.710   3.049   0.205 -0.9446  0.1850  0.2066
 4217TIP3    H234287   6.847   3.053   0.139 -0.9871 -1.1231  0.0145
 4218TIP3   OH234288   0.649   1.440   8.785  0.3757 -0.5951 -0.2922
 4218TIP3    H134289   0.703   1.449   8.707  0.6138  0.6169 -0.0072
 4218TIP3    H234290   0.561   1.424   8.751  0.1709  1.4978 -0.8999
 4219TIP3   OH234291   4.335   4.770   0.667 -0.6494 -0.2984 -0.0096
 4219TIP3    H134292   4.293   4.842   0.621  0.6626  0.2683 -0.3771
 4219TIP3    H234293   4.415   4.753   0.616  0.0885 -0.6291  1.2224
 4220TIP3   OH234294   0.744   1.301   3.329  0.4493  0.2748 -0.2624
 4220TIP3    H134295   0.761   1.278   3.238 -1.4378  0.2021 -0.6356
 4220TIP3    H234296   0.732   1.217   3.374 -0.8336  0.3396 -0.4429
 4221TIP3   OH234297   4.470   4.659   1.535  0.4886  0.6679 -0.5182
 4221TIP3    H134298   4.491   4.567   1.548 -0.1679  0.7185  1.1494
 4221TIP3    H234299   4.486   4.675   1.441 -1.2407 -1.6274 -1.2843
 4222TIP3   OH234300   6.298   3.246   1.579  0.2011  0.3990  0.7253
 4222TIP3    H134301   6.234   3.317   1.572 -0.9128 -0.6648 -0.3745
 4222TIP3    H234302   6.383   3.290   1.577 -0.4655  1.7457  0.8401
 4223TIP3   OH234303   5.751   1.167   1.203 -0.1044 -0.5487 -0.4031
 4223TIP3    H134304   5.777   1.108   1.275 -0.2037  0.8958  0.8670
 4223TIP3    H234305   5.817   1.152   1.135  1.9427  0.3137  1.2657
 4224TIP3   OH234306   6.552   1.865   1.895 -0.1357  0.2208 -0.0962
 4224TIP3    H134307   6.480   1.809   1.864 -0.3190 -0.6379  1.7387
 4224TIP3    H234308   6.513   1.952   1.898 -0.3977  0.1636 -1.2807
 4225TIP3   OH234309   4.971   4.656   1.290 -0.0351 -0.0018 -0.0364
 4225TIP3    H134310   4.896   4.604   1.319 -0.5366  1.1114  0.7121
 4225TIP3    H234311   4.973   4.645   1.195 -1.6393  0.5791 -0.1665
 4226TIP3   OH234312   2.143   3.653   3.581 -0.0699  0.3159 -0.5656
 4226TIP3    H134313   2.137   3.673   3.488 -0.4626 -1.1115 -0.8783
 4226TIP3    H234314   2.059   3.679   3.617 -0.7948 -1.2190 -1.0740
 4227TIP3   OH234315   1.500   4.271   1.891  0.3342  0.0968 -0.8096
 4227TIP3    H134316   1.484   4.362   1.865  1.6941  1.0396  1.3555
 4227TIP3    H234317   1.426   4.249   1.948  0.8165  0.4336 -0.0397
 4228TIP3   OH234318   2.202   1.581   3.092 -0.1456  0.2272 -0.0876
 4228TIP3    H134319   2.209   1.502   3.145  0.3176  1.0317  1.1124
 4228TIP3    H234320   2.268   1.571   3.024  0.6097  0.0191  0.6659
 4229TIP3   OH234321   4.962   3.378   1.393  0.1352  0.1245 -0.0339
 4229TIP3    H134322   4.938   3.286   1.386 -0.5220  0.2601  0.4108
 4229TIP3    H234323   4.940   3.415   1.307 -1.2550  0.2409  0.3507
 4230TIP3   OH234324   2.782   5.692   2.597 -0.1452 -0.2896  0.1184
 4230TIP3    H134325   2.799   5.604   2.631 -1.0477 -1.2452 -1.7663
 4230TIP3    H234326   2.688   5.704   2.607 -0.3094 -0.2818 -1.2717
 4231TIP3   OH234327   5.512   1.738   2.351  0.7755  0.0551  0.1181
 4231TIP3    H134328   5.476   1.723   2.439 -1.0430 -0.3387 -0.6616
 4231TIP3    H234329   5.582   1.674   2.343 -1.3035 -2.3710  0.0420
 4232TIP3   OH234330   3.376   2.830   0.480  0.2873 -0.0435 -0.5853
 4232TIP3    H134331   3.389   2.849   0.387  0.4657  0.1803 -0.5156
 4232TIP3    H234332   3.441   2.883   0.524  0.3002 -0.2635 -0.3398
 4233TIP3   OH234333   1.147   6.665   1.670 -0.4034  0.2214  0.4678
 4233TIP3    H134334   1.085   6.709   1.612  1.4249  1.7647 -0.4253
 4233TIP3    H234335   1.129   6.701   1.757 -0.4069  1.0614  0.1267
 4234TIP3   OH234336   2.899   0.822   2.577 -0.3694 -0.8374  0.3427
 4234TIP3    H134337   2.953   0.744   2.572  0.5333 -0.1781 -0.5772
 4234TIP3    H234338   2.848   0.822   2.496 -0.9878 -0.9006  0.7205
 4235TIP3   OH234339   6.079   0.929   1.841  0.0202 -0.5663  0.5079
 4235TIP3    H134340   6.077   0.956   1.933 -0.0325 -0.3194  0.4331
 4235TIP3    H234341   5.988   0.907   1.821 -0.0097 -0.3742  0.4392
 4236TIP3   OH234342   1.162   1.925   4.292  0.7882  0.1955  0.0874
 4236TIP3    H134343   1.197   1.840   4.318 -0.7779 -0.4916  0.0979
 4236TIP3    H234344   1.238   1.976   4.267  1.7185 -1.4459 -0.6040
 4237TIP3   OH234345   5.544   3.805   3.080 -0.5780  0.4185 -0.0636
 4237TIP3    H134346   5.529   3.877   3.142  0.7739  1.3893 -0.8167
 4237TIP3    H234347   5.581   3.735   3.134  0.6059  1.2545  0.2580
 4238TIP3   OH234348   4.462   4.464   2.615  0.4024 -0.3902  0.3332
 4238TIP3    H134349   4.389   4.510   2.655  0.8432  0.4542  0.1780
 4238TIP3    H234350   4.434   4.372   2.613 -0.6901 -0.0635  0.1782
 4239TIP3   OH234351   5.986   5.248   4.526  0.2681 -0.4033  0.2658
 4239TIP3    H134352   5.911   5.308   4.533 -0.0036 -0.9577  2.6810
 4239TIP3    H234353   6.040   5.268   4.601  1.8981 -0.9582 -0.7111
 4240TIP3   OH234354   3.102   2.573   3.476  0.7076 -0.0658  0.3600
 4240TIP3    H134355   3.111   2.657   3.521  1.4373  0.2933 -0.4195
 4240TIP3    H234356   3.008   2.560   3.467  0.5867  0.7972  0.2711
 4241TIP3   OH234357   2.903   5.211   1.046  0.1869  0.8510 -0.0679
 4241TIP3    H134358   2.928   5.177   1.132 -0.2751  0.1928 -0.1874
 4241TIP3    H234359   2.971   5.178   0.987 -0.3475 -0.0246 -0.2110
 4242TIP3   OH234360   4.331   2.158   3.967 -0.0566 -0.3766 -0.4878
 4242TIP3    H134361   4.254   2.108   3.995 -0.1561 -0.0648 -0.1989
 4242TIP3    H234362   4.391   2.092   3.934 -0.4974 -0.6109 -0.8325
 4243TIP3   OH234363   0.440   5.493   5.156  0.4140 -0.1385 -0.3998
 4243TIP3    H134364   0.380   5.419   5.156 -1.8583  1.5646 -2.3302
 4243TIP3    H234365   0.522   5.458   5.119 -0.1774 -1.9347 -0.0902
 4244TIP3   OH234366   1.268   0.093   1.259 -0.0494  0.1573 -0.3352
 4244TIP3    H134367   1.213   0.070   1.184 -2.4176 -0.9214  1.6005
 4244TIP3    H234368   1.232   0.176   1.290  0.1562  0.0309  0.2524
 4245TIP3   OH234369   4.742   0.023   2.883  0.4639  0.5842 -0.6304
 4245TIP3    H134370   4.807  -0.026   2.935  1.3405  1.0223 -1.2873
 4245TIP3    H234371   4.721   0.099   2.937  1.9147  1.4211 -1.1882
 4246TIP3   OH234372   3.448   3.691   2.738 -0.1193 -0.2964  0.7293
 4246TIP3    H134373   3.523   3.744   2.713 -1.2576 -0.2643 -3.3415
 4246TIP3    H234374   3.475   3.601   2.720 -1.1690 -0.2273 -1.6495
 4247TIP3   OH234375   2.962   1.845   3.999  0.2793 -0.1873  0.2505
 4247TIP3    H134376   2.932   1.853   3.909 -0.2997 -0.7204  0.3866
 4247TIP3    H234377   3.031   1.779   3.996 -0.2693 -0.7785  0.3029
 4248TIP3   OH234378   3.584   5.256   3.265  0.4619 -0.1539  0.4866
 4248TIP3    H134379   3.593   5.328   3.202 -0.4836 -0.4894 -0.0714
 4248TIP3    H234380   3.563   5.299   3.348  0.6502  0.2492  0.3287
 4249TIP3   OH234381   4.905   3.127   1.318  0.2544 -0.5163  0.0465
 4249TIP3    H134382   4.982   3.084   1.281  0.4201 -1.9590  1.9655
 4249TIP3    H234383   4.832   3.070   1.294 -0.0041 -0.0680 -0.2589
 4250TIP3   OH234384   1.362   5.054   3.146 -0.2739  0.1610 -0.1166
 4250TIP3    H134385   1.351   4.972   3.193 -1.3745  0.2760 -0.1619
 4250TIP3    H234386   1.444   5.043   3.098 -0.6655 -1.0938 -0.5217
 4251TIP3   OH234387   4.643   1.765   4.497 -0.3348 -0.4605  0.3983
 4251TIP3    H134388   4.725   1.808   4.520  0.7811 -1.6063 -1.1790
 4251TIP3    H234389   4.617   1.718   4.577  0.9127 -0.6345  0.7210
 4252TIP3   OH234390   5.024   2.809   0.028 -0.8754 -0.5399 -0.3434
 4252TIP3    H134391   5.072   2.884  -0.006  0.0086 -1.1873 -0.5495
 4252TIP3    H234392   5.029   2.744  -0.042  0.8510 -1.8437  0.9032
 4253TIP3   OH234393   0.834   3.151   2.800  0.2935 -0.0628 -0.0389
 4253TIP3    H134394   0.794   3.113   2.722  2.2171  0.0455 -1.1544
 4253TIP3    H234395   0.918   3.105   2.808  2.2166  3.0465 -0.7681
 4254TIP3   OH234396   3.177   1.159   2.661 -0.1002  0.3076 -0.1467
 4254TIP3    H134397   3.162   1.114   2.744  2.2197  0.3237  0.3257
 4254TIP3    H234398   3.190   1.088   2.597 -0.3601  0.3107 -0.2066
 4255TIP3   OH234399   6.000   4.561   4.905  0.9014  0.3193 -0.0434
 4255TIP3    H134400   5.943   4.568   4.828 -0.1136  0.5835  0.7150
 4255TIP3    H234401   6.043   4.647   4.910 -2.2471  1.9395  2.0946
 4256TIP3   OH234402   2.395   4.871   0.118  0.0618 -0.4830 -0.6607
 4256TIP3    H134403   2.464   4.805   0.117 -1.7229 -2.5748  1.4151
 4256TIP3    H234404   2.335   4.845   0.049  1.1979  1.2987 -2.4236
 4257TIP3   OH234405   6.024   1.088   2.422 -0.2365 -0.2639 -0.0147
 4257TIP3    H134406   5.993   1.041   2.500  0.9737 -0.0623  0.6137
 4257TIP3    H234407   6.119   1.084   2.429 -0.1183 -0.0983 -1.4137
 4258TIP3   OH234408   5.336   4.450   4.519  0.0923 -0.0842 -0.1313
 4258TIP3    H134409   5.380   4.453   4.603 -0.2742 -1.0989  0.1146
 4258TIP3    H234410   5.331   4.541   4.490  1.9350  0.1036  0.0329
 4259TIP3   OH234411   6.532   5.006   3.855  0.5217 -0.2516 -0.4318
 4259TIP3    H134412   6.520   5.099   3.837 -0.7312 -0.5889 -1.4982
 4259TIP3    H234413   6.588   4.975   3.784  0.0169 -0.5218 -0.7175
 4260TIP3   OH234414   1.729   3.670   3.115  0.4001  0.3725 -0.4853
 4260TIP3    H134415   1.775   3.616   3.179 -0.7281 -0.3832 -0.2873
 4260TIP3    H234416   1.740   3.760   3.148 -2.9369 -0.1772  2.7500
 4261TIP3   OH234417   4.688   4.261   2.948 -0.2669 -1.0180 -0.2563
 4261TIP3    H134418   4.722   4.262   3.038 -2.0064 -2.2346  0.4758
 4261TIP3    H234419   4.708   4.173   2.916  0.3388 -0.5917 -1.0995
 4262TIP3   OH234420   1.846   6.057   1.119 -0.0036 -0.1967  0.1311
 4262TIP3    H134421   1.869   6.007   1.040 -0.3056  1.6387 -1.2006
 4262TIP3    H234422   1.842   5.992   1.188  1.7206 -1.6894 -1.0619
 4263TIP3   OH234423   5.147   2.541   0.459  0.0035  0.0221  0.6588
 4263TIP3    H134424   5.075   2.548   0.396 -1.1030  0.7997  1.9494
 4263TIP3    H234425   5.226   2.537   0.405 -1.0719 -3.7946 -0.9653
 4264TIP3   OH234426   2.160   4.654   3.014 -0.2069  0.3623 -0.3092
 4264TIP3    H134427   2.229   4.588   3.003  0.6535  1.2590 -0.4648
 4264TIP3    H234428   2.133   4.646   3.105  0.3650  0.2552 -0.1461
 4265TIP3   OH234429   5.665   5.903   3.680  0.7986  0.2061  0.0709
 4265TIP3    H134430   5.732   5.968   3.659  0.8289 -0.3034 -1.4718
 4265TIP3    H234431   5.619   5.940   3.756  1.2243  1.7208 -0.3802
 4266TIP3   OH234432   0.122   2.791   3.847 -0.7943 -0.0062  0.4951
 4266TIP3    H134433   0.074   2.846   3.786 -0.0060  0.3359  0.1702
 4266TIP3    H234434   0.130   2.844   3.927 -0.0587  0.3505  0.1916
 4267TIP3   OH234435   5.863   2.542   4.932  0.2889  0.3218  0.4482
 4267TIP3    H134436   5.847   2.476   4.865  1.1772  0.1601  0.3845
 4267TIP3    H234437   5.935   2.595   4.896 -1.4213  2.3241 -0.2339
 4268TIP3   OH234438   3.466   2.859   0.217  0.2807 -0.5107  0.0244
 4268TIP3    H134439   3.447   2.881   0.126  1.9088 -1.5828 -0.6376
 4268TIP3    H234440   3.562   2.860   0.222  0.2285 -0.7054  1.6727
 4269TIP3   OH234441   3.550   6.123   3.365  0.0594  0.1318 -0.4153
 4269TIP3    H134442   3.503   6.071   3.430 -1.4148 -0.9356 -2.2276
 4269TIP3    H234443   3.484   6.146   3.299  1.1669  2.4402 -0.8219
 4270TIP3   OH234444   3.825   6.310   3.659 -0.2101  0.5333  0.5115
 4270TIP3    H134445   3.887   6.367   3.704  1.4415  0.9310 -2.0536
 4270TIP3    H234446   3.777   6.369   3.601 -4.3870  0.5471  3.5427
 4271TIP3   OH234447   2.013   5.143   3.920  0.2999 -0.6226 -0.0598
 4271TIP3    H134448   2.031   5.236   3.937  0.7134  0.0313 -3.3471
 4271TIP3    H234449   1.918   5.134   3.932  0.0662  0.5472 -0.8678
 4272TIP3   OH234450   6.404   5.721   2.727 -0.4238  0.4680 -0.0340
 4272TIP3    H134451   6.492   5.691   2.749 -0.5672 -0.7866 -1.0405
 4272TIP3    H234452   6.347   5.681   2.792 -0.4882 -0.6087 -0.7304
 4273TIP3   OH234453   5.208   1.888   3.967 -0.0641 -0.2947 -0.0650
 4273TIP3    H134454   5.144   1.858   4.031 -0.1674 -0.3454 -0.1913
 4273TIP3    H234455   5.158   1.896   3.886 -0.2386  1.0554  0.1537
 4274TIP3   OH234456   4.558   0.895   2.707 -0.3443 -0.0939  0.7924
 4274TIP3    H134457   4.559   0.839   2.629 -0.3379  0.2172  0.5674
 4274TIP3    H234458   4.644   0.937   2.708  0.5572 -1.8431  2.2586
 4275TIP3   OH234459   4.778   6.392   4.022  0.2798 -0.2969  0.2871
 4275TIP3    H134460   4.780   6.478   4.064 -0.1451  1.1261 -2.3938
 4275TIP3    H234461   4.686   6.368   4.018 -0.0029  0.8568 -2.0417
 4276TIP3   OH234462   1.994   0.744   2.266 -0.2140 -0.3076  0.1212
 4276TIP3    H134463   1.932   0.674   2.245  0.4923 -0.1956 -2.8178
 4276TIP3    H234464   1.967   0.818   2.211  0.3480  1.0313  1.5537
 4277TIP3   OH234465   5.095   0.867   0.100  0.0287  0.0519 -0.1855
 4277TIP3    H134466   5.075   0.806   0.029 -2.0948  1.4721 -0.9227
 4277TIP3    H234467   5.017   0.863   0.157  0.7644  0.5356  0.8936
 4278TIP3   OH234468   3.474   1.981   3.031  0.0074  0.2619 -0.1004
 4278TIP3    H134469   3.476   1.921   3.106  2.5605  0.5500  0.1532
 4278TIP3    H234470   3.403   2.042   3.050  0.1600 -0.0947  1.7643
 4279TIP3   OH234471   0.603   2.736   2.113  0.6989  0.2957  0.4731
 4279TIP3    H134472   0.564   2.658   2.152 -2.1909  0.6725 -1.3840
 4279TIP3    H234473   0.620   2.794   2.188 -0.9817 -0.5136  1.5336
 4280TIP3   OH234474   1.593   6.085   0.918  0.3239  0.1941 -0.4535
 4280TIP3    H134475   1.647   6.069   0.841  0.8527  1.3411 -0.3421
 4280TIP3    H234476   1.560   6.174   0.907 -0.0408  0.1793  0.3784
 4281TIP3   OH234477   6.251   2.062   0.961  0.3758 -0.0760  0.7414
 4281TIP3    H134478   6.289   2.149   0.968  3.7555 -1.2499 -1.1563
 4281TIP3    H234479   6.245   2.045   0.867 -0.7559 -1.6862  1.0524
 4282TIP3   OH234480   0.703   4.558   0.246 -0.3049  0.0481 -0.6086
 4282TIP3    H134481   0.612   4.590   0.249 -1.1976 -2.3250  0.0855
 4282TIP3    H234482   0.707   4.493   0.316  0.7350 -2.7629 -3.1065
 4283TIP3   OH234483   3.235   3.324   2.291 -0.2483 -0.3477 -0.4045
 4283TIP3    H134484   3.267   3.327   2.201  2.1079  1.1685  0.3792
 4283TIP3    H234485   3.182   3.403   2.300 -0.1453 -0.2835 -0.3572
 4284TIP3   OH234486   6.456   1.849   4.008  0.8061  0.4049 -0.1668
 4284TIP3    H134487   6.416   1.927   3.969 -2.7724 -0.9170  0.4358
 4284TIP3    H234488   6.446   1.862   4.102  0.9035 -0.4157 -0.0373
 4285TIP3   OH234489   5.231   6.690   1.700  0.3405 -0.0047  0.3654
 4285TIP3    H134490   5.201   6.606   1.664  2.1343 -0.9051  0.8311
 4285TIP3    H234491   5.247   6.672   1.792  1.4143  0.6377  0.3248
 4286TIP3   OH234492   0.805   1.409   2.727  0.1918 -0.0168  0.0028
 4286TIP3    H134493   0.750   1.344   2.684  1.2561 -0.3165 -0.9566
 4286TIP3    H234494   0.746   1.483   2.744 -0.5514 -0.4091 -0.7864
 4287TIP3   OH234495   3.968   5.698   3.607  0.5970  0.1208  0.1907
 4287TIP3    H134496   3.947   5.623   3.551  1.2817 -0.2008  0.3582
 4287TIP3    H234497   3.944   5.775   3.555  0.1385 -0.2040 -0.0839
 4288TIP3   OH234498   2.938   0.581   1.415  0.1739 -0.1821  0.0662
 4288TIP3    H134499   2.973   0.583   1.326 -0.2656 -0.5554 -0.1214
 4288TIP3    H234500   2.900   0.668   1.428  0.0019 -0.2133 -0.2152
 4289TIP3   OH234501   4.026   3.007   1.231  0.2455 -0.1679  0.2799
 4289TIP3    H134502   4.088   3.078   1.212  0.2212  0.4618  2.2619
 4289TIP3    H234503   4.076   2.927   1.218  0.4940  0.2121 -1.2841
 4290TIP3   OH234504   5.597   2.791   1.670 -0.1866 -0.0247 -0.7951
 4290TIP3    H134505   5.588   2.697   1.684 -2.3747  0.2133 -0.3541
 4290TIP3    H234506   5.688   2.802   1.640  1.0116 -1.9470  1.7642
 4291TIP3   OH234507   1.864   2.440   3.198  0.5057  0.2137  0.0707
 4291TIP3    H134508   1.953   2.408   3.214  1.2073  1.4386 -1.1042
 4291TIP3    H234509   1.844   2.411   3.109 -0.4099 -0.3240  0.4409
 4292TIP3   OH234510   5.145   6.387   2.748  0.4026 -0.2588 -0.3203
 4292TIP3    H134511   5.192   6.470   2.755  0.7313 -0.5540  1.7924
 4292TIP3    H234512   5.061   6.403   2.790 -0.3797 -0.4659 -1.7387
 4293TIP3   OH234513   1.509   6.643   1.442  0.3193  0.3438  0.4327
 4293TIP3    H134514   1.535   6.647   1.534  1.0106  1.0669  0.2167
 4293TIP3    H234515   1.505   6.549   1.423 -0.8878  0.1599  1.4702
 4294TIP3   OH234516   0.539   1.763   0.397  0.0588 -0.0134  0.7019
 4294TIP3    H134517   0.627   1.793   0.419 -0.0198  0.6910  0.0911
 4294TIP3    H234518   0.536   1.764   0.302 -0.1751 -1.3372  0.6850
 4295TIP3   OH234519   5.241   4.895   3.923  0.2708 -0.2073  0.4120
 4295TIP3    H134520   5.299   4.957   3.878  0.2357  0.1641  0.8631
 4295TIP3    H234521   5.297   4.854   3.989  0.6176 -1.5898 -0.7054
 4296TIP3   OH234522   2.628   1.942   3.869 -0.2028  0.1446 -0.0258
 4296TIP3    H134523   2.675   1.939   3.785  0.0655  2.2599 -0.0125
 4296TIP3    H234524   2.568   2.016   3.859 -0.8302 -0.1644  1.3276
 4297TIP3   OH234525   3.191   3.975   1.136 -0.1754 -0.1998  0.5653
 4297TIP3    H134526   3.114   3.924   1.111 -0.6296  0.2953  0.9230
 4297TIP3    H234527   3.213   3.943   1.224 -1.3178  1.1506  1.3968
 4298TIP3   OH234528   4.269   4.158   2.091  0.0640 -0.3180 -0.4426
 4298TIP3    H134529   4.213   4.209   2.032 -0.9515 -1.3012 -0.3726
 4298TIP3    H234530   4.230   4.171   2.178  1.1888  0.6356 -0.0598
 4299TIP3   OH234531   4.452   2.026   2.021 -0.0533 -0.2469 -0.1447
 4299TIP3    H134532   4.359   2.037   2.005  0.0784  0.9092 -0.1657
 4299TIP3    H234533   4.494   2.091   1.965  0.6367  0.8313  1.5481
 4300TIP3   OH234534   0.934   1.283   0.420  0.4425 -0.5812 -0.3071
 4300TIP3    H134535   0.930   1.376   0.400 -0.9861 -0.5029  0.2061
 4300TIP3    H234536   0.965   1.279   0.511 -2.0823 -0.4108  0.6430
 4301TIP3   OH234537   1.914   6.599   2.081 -0.4670 -0.5687  0.4137
 4301TIP3    H134538   1.961   6.649   2.015 -0.7113 -2.9082 -1.6773
 4301TIP3    H234539   1.966   6.610   2.161  1.9559 -0.5875 -1.0524
 4302TIP3   OH234540   2.711   1.651   0.784 -0.4744  0.4472 -0.0065
 4302TIP3    H134541   2.708   1.655   0.688 -1.2368  2.7446  0.0378
 4302TIP3    H234542   2.752   1.567   0.804  0.6040  0.3406 -2.3581
 4303TIP3   OH234543   2.389   1.265   2.924 -0.3485  0.2773  0.2186
 4303TIP3    H134544   2.452   1.249   2.994 -0.4844 -2.4882 -0.1988
 4303TIP3    H234545   2.319   1.315   2.966  0.1077 -0.3303  1.7786
 4304TIP3   OH234546   2.914   6.645   2.411  0.0447 -0.5365 -0.1335
 4304TIP3    H134547   2.895   6.578   2.476  1.5374 -0.8601  0.0132
 4304TIP3    H234548   2.828   6.675   2.381 -0.6860 -0.6033  1.7403
 4305TIP3   OH234549   0.391   3.118   2.766  0.1515  0.1506  0.4185
 4305TIP3    H134550   0.360   3.076   2.846  0.3449 -0.5871  0.1081
 4305TIP3    H234551   0.396   3.211   2.788  1.2963 -0.1785  1.6195
 4306TIP3   OH234552   2.192   2.033   2.416 -0.2145  0.3532 -0.1928
 4306TIP3    H134553   2.199   1.970   2.487  0.6848  0.4693 -0.1746
 4306TIP3    H234554   2.270   2.019   2.363  0.4211  1.9945  0.2562
 4307TIP3   OH234555   5.623   3.898   1.306  0.2587 -0.1001 -0.1401
 4307TIP3    H134556   5.618   3.987   1.341  0.2365 -0.0390 -0.2952
 4307TIP3    H234557   5.554   3.895   1.239  1.7901  0.5308 -1.8182
 4308TIP3   OH234558   1.284   0.135   1.648  0.3134  0.3510 -0.4410
 4308TIP3    H134559   1.199   0.107   1.614  0.8581 -0.3579 -1.2326
 4308TIP3    H234560   1.306   0.213   1.597  0.2888  0.3515 -0.4507
 4309TIP3   OH234561   2.642   5.316   1.186 -0.2359  0.0344  0.0714
 4309TIP3    H134562   2.551   5.288   1.186 -0.7624  1.6606 -0.6561
 4309TIP3    H234563   2.641   5.403   1.148  1.2687  1.3232  2.7216
 4310TIP3   OH234564   0.537   5.053   1.981 -0.1600 -0.3858 -0.2329
 4310TIP3    H134565   0.454   5.060   2.028  0.4954  1.5675  0.7038
 4310TIP3    H234566   0.600   5.024   2.047  0.5274  1.2299 -0.1516
 4311TIP3   OH234567   5.227   3.082   2.378  0.4615 -0.2565  0.2584
 4311TIP3    H134568   5.205   3.049   2.465  1.2572 -1.3167  0.0849
 4311TIP3    H234569   5.317   3.051   2.363  1.4655  2.3601  0.2269
 4312TIP3   OH234570   1.802   0.688   3.835  0.1106 -0.6464  0.0584
 4312TIP3    H134571   1.749   0.665   3.911  1.2464  0.8659  1.3733
 4312TIP3    H234572   1.778   0.779   3.815  2.0723  0.0613  0.6435
 4313TIP3   OH234573   3.728   6.170   3.989 -0.1848  0.5163 -0.2164
 4313TIP3    H134574   3.677   6.181   3.909  0.8313  0.8338 -0.8351
 4313TIP3    H234575   3.735   6.258   4.026  0.3663  0.5590 -0.4182
 4314TIP3   OH234576   1.859   6.202   4.675  0.0136  0.4678 -0.4553
 4314TIP3    H134577   1.892   6.249   4.752 -1.4391 -0.0944  0.5463
 4314TIP3    H234578   1.782   6.252   4.648  1.7637  2.0315 -3.0479
 4315TIP3   OH234579   6.617   1.061   4.269 -0.0388 -0.1517 -0.4130
 4315TIP3    H134580   6.545   1.087   4.213  0.0650  0.0312 -0.4631
 4315TIP3    H234581   6.605   1.112   4.349  0.6544  0.7182 -0.8406
 4316TIP3   OH234582   6.256   5.629   0.195  0.3249  0.7599  0.7334
 4316TIP3    H134583   6.293   5.604   0.111  1.7671  3.8121  0.3190
 4316TIP3    H234584   6.179   5.573   0.205  0.6369 -0.3452 -2.1520
 4317TIP3   OH234585   6.485   3.416   2.691 -0.3219 -0.5541  0.3728
 4317TIP3    H134586   6.541   3.449   2.621  0.8979  0.9473  1.9520
 4317TIP3    H234587   6.404   3.392   2.647  0.2806  0.6115 -1.5186
 4318TIP3   OH234588   1.315   6.253   2.973 -0.0771  0.5862 -0.7382
 4318TIP3    H134589   1.345   6.319   2.911 -0.0423 -0.0609 -1.4310
 4318TIP3    H234590   1.262   6.193   2.920 -0.7026  0.4517  0.0137
 4319TIP3   OH234591   1.819   5.340   2.414 -0.8990 -0.5062 -0.5674
 4319TIP3    H134592   1.898   5.375   2.374 -1.6186  2.9575  0.7549
 4319TIP3    H234593   1.851   5.275   2.476  0.8094 -0.0657 -0.9231
 4320TIP3   OH234594   2.855   6.051   0.992  0.0173  0.2542 -0.3581
 4320TIP3    H134595   2.878   6.078   1.081  0.9402  1.3528 -0.9008
 4320TIP3    H234596   2.833   5.959   1.001 -0.3732  0.4502  1.0861
 4321TIP3   OH234597   4.802   3.686   3.078  0.1772  0.3497  0.1283
 4321TIP3    H134598   4.845   3.762   3.116 -1.4059  0.4361  1.8710
 4321TIP3    H234599   4.772   3.717   2.992 -0.3573  1.7023  0.7652
 4322TIP3   OH234600   3.068   5.761   2.751 -0.7616  0.3879  0.2425
 4322TIP3    H134601   3.084   5.816   2.828  0.1412 -0.5003  0.7064
 4322TIP3    H234602   3.045   5.675   2.787  1.3638 -0.5306 -0.4114
 4323TIP3   OH234603   4.569   6.587   3.733  0.4998  0.1745  0.1490
 4323TIP3    H134604   4.584   6.626   3.647 -0.9418 -0.3203 -0.3654
 4323TIP3    H234605   4.576   6.660   3.795 -0.3582  0.9076 -0.5974
 4324TIP3   OH234606   6.701   4.507   2.250 -0.1631  0.5287  0.4100
 4324TIP3    H134607   6.743   4.555   2.321 -0.0140  0.4316  0.3863
 4324TIP3    H234608   6.760   4.517   2.176 -1.2368  2.2964 -0.2752
 4325TIP3   OH234609   2.135   6.179   0.783 -0.2916  0.5128 -0.3916
 4325TIP3    H134610   2.164   6.240   0.715 -1.4521  0.1109 -1.2934
 4325TIP3    H234611   2.146   6.227   0.865  2.1239  0.6319 -0.7162
 4326TIP3   OH234612   2.069   4.634   3.547 -0.1069 -0.2075 -0.6226
 4326TIP3    H134613   2.126   4.708   3.568 -0.9967  0.6884 -1.2570
 4326TIP3    H234614   2.009   4.628   3.622  1.9876 -2.4344  1.0313
 4327TIP3   OH234615   5.526   0.482   2.699 -0.2072  0.3048  0.4780
 4327TIP3    H134616   5.517   0.576   2.719 -1.3462  0.3187 -0.0097
 4327TIP3    H234617   5.620   0.467   2.697  0.0141  1.5958 -0.1186
 4328TIP3   OH234618   5.378   1.020   2.736 -0.1166 -0.2203  0.0623
 4328TIP3    H134619   5.413   1.108   2.744  1.2275 -0.7735  0.6510
 4328TIP3    H234620   5.310   1.014   2.803 -1.4058  0.8694 -1.0814
 4329TIP3   OH234621   2.342   6.156   4.918 -0.3195  0.0978 -0.4270
 4329TIP3    H134622   2.355   6.070   4.877  1.1494 -0.3165  0.8125
 4329TIP3    H234623   2.420   6.169   4.972 -0.5210  2.2232 -0.5605
 4330TIP3   OH234624   6.224   0.202   3.843 -0.0253 -0.0298  0.0584
 4330TIP3    H134625   6.151   0.261   3.820  0.6229  0.7497 -0.0341
 4330TIP3    H234626   6.275   0.195   3.763  0.0840 -0.4740  0.1628
 4331TIP3   OH234627   3.812   2.072   1.923  0.2539 -0.0211  0.3197
 4331TIP3    H134628   3.853   1.987   1.939 -0.3432 -0.5981 -1.0039
 4331TIP3    H234629   3.719   2.056   1.940 -0.3285 -0.5024 -2.6617
 4332TIP3   OH234630   6.323   0.794   1.803 -0.6027  0.7910 -0.2110
 4332TIP3    H134631   6.237   0.814   1.838 -0.6541 -1.7764  1.3798
 4332TIP3    H234632   6.319   0.702   1.779  1.3399  0.9254 -1.3031
 4333TIP3   OH234633   1.788   5.571   3.299  0.3723 -0.1020  0.1407
 4333TIP3    H134634   1.880   5.586   3.279  0.1482  0.5477 -0.4634
 4333TIP3    H234635   1.785   5.485   3.341  1.2261 -0.2057 -0.0101
 4334TIP3   OH234636   3.693   3.774   3.094 -0.3443 -0.2793  0.1861
 4334TIP3    H134637   3.678   3.682   3.069  0.5122 -0.2649 -0.4249
 4334TIP3    H234638   3.620   3.795   3.152 -0.4540 -1.4076  0.4866
 4335TIP3   OH234639   1.036   1.018   3.666  0.4919 -0.3649  0.3331
 4335TIP3    H134640   1.109   1.003   3.727 -0.6444 -2.2238  1.3510
 4335TIP3    H234641   0.965   0.964   3.701 -1.4335  1.4543 -0.5647
 4336TIP3   OH234642   3.228   0.881   5.008  0.5530 -0.2615  0.1203
 4336TIP3    H134643   3.234   0.855   4.916  2.7324  1.4049 -0.2951
 4336TIP3    H234644   3.161   0.949   5.009 -1.1506 -1.8805  0.2300
 4337TIP3   OH234645   2.805   5.073   1.561  0.2486 -0.1006  0.0792
 4337TIP3    H134646   2.735   5.042   1.619  0.0948 -0.2920 -0.2066
 4337TIP3    H234647   2.886   5.042   1.602  0.1942  0.4131  0.5929
 4338TIP3   OH234648   4.926   3.935   3.120 -0.0762  0.1791 -0.3634
 4338TIP3    H134649   4.898   3.928   3.212 -0.5784 -0.3247 -0.5484
 4338TIP3    H234650   5.016   3.965   3.125  0.4034 -1.2644  0.3431
 4339TIP3   OH234651   2.241   5.916   0.559  0.0138  0.0405  0.5349
 4339TIP3    H134652   2.195   5.998   0.542 -0.7396 -0.3086  0.8323
 4339TIP3    H234653   2.282   5.894   0.475  3.2230  2.4856  1.2808
 4340TIP3   OH234654   3.885   2.135   0.825 -0.1020 -0.6197 -0.0314
 4340TIP3    H134655   3.968   2.178   0.842  0.4565 -1.2064 -1.1834
 4340TIP3    H234656   3.850   2.114   0.912  0.7364  0.0231  0.4690
 4341TIP3   OH234657   4.574   4.297   3.308  0.4580  0.2533 -0.0705
 4341TIP3    H134658   4.645   4.353   3.342 -0.9620  1.0412  1.7967
 4341TIP3    H234659   4.509   4.359   3.275  0.3463 -0.4484 -1.2284
 4342TIP3   OH234660   2.556   4.672   3.818  0.3594  0.1520  0.1451
 4342TIP3    H134661   2.623   4.732   3.785 -0.1221  1.1905  0.9787
 4342TIP3    H234662   2.604   4.607   3.869  0.9826 -0.7275 -1.4981
 4343TIP3   OH234663   2.270   0.653   0.302  0.2766 -0.2902  0.2501
 4343TIP3    H134664   2.359   0.623   0.279 -0.5554 -1.4350 -1.7924
 4343TIP3    H234665   2.261   0.737   0.256  0.5507  0.2158  1.1027
 4344TIP3   OH234666   2.321   5.840   4.793 -0.4398  0.8372  0.1872
 4344TIP3    H134667   2.309   5.753   4.831  0.6710  1.0749  1.1428
 4344TIP3    H234668   2.267   5.840   4.714 -0.0158 -0.9050 -0.1183
 4345TIP3   OH234669   1.339   0.781   0.559 -0.1351 -0.5434 -0.1077
 4345TIP3    H134670   1.300   0.694   0.545  0.9476 -1.0200 -0.2962
 4345TIP3    H234671   1.313   0.832   0.483  0.8319 -1.3179 -0.9967
 4346TIP3   OH234672   0.992   1.468   2.962  0.2920 -0.7253  0.1530
 4346TIP3    H134673   1.068   1.422   2.999  2.6551  2.4980 -0.1808
 4346TIP3    H234674   0.993   1.445   2.869  0.6652 -0.9857  0.2198
 4347TIP3   OH234675   3.979   0.204   0.823 -0.3878  0.3336 -0.0679
 4347TIP3    H134676   3.963   0.123   0.775  1.5043 -0.0158 -0.1608
 4347TIP3    H234677   3.900   0.215   0.877 -0.9828 -1.1793 -0.5709
 4348TIP3   OH234678   1.499   2.804   0.116 -0.0580  0.1920  0.7978
 4348TIP3    H134679   1.550   2.724   0.124 -0.9916 -0.6317 -0.9157
 4348TIP3    H234680   1.427   2.793   0.178  0.6048  0.3725  1.6149
 4349TIP3   OH234681   5.559   2.057   3.616  0.2526  0.2550 -0.3351
 4349TIP3    H134682   5.505   2.076   3.693 -0.0176  2.2978 -0.9700
 4349TIP3    H234683   5.641   2.104   3.632  1.9296 -2.7503  0.5855
 4350TIP3   OH234684   5.982   0.545   0.571 -0.3488  0.4305  0.5029
 4350TIP3    H134685   5.957   0.607   0.502  1.0820 -0.0487 -0.4955
 4350TIP3    H234686   5.995   0.462   0.525 -2.0607 -0.6354  1.7861
 4351TIP3   OH234687   0.081   6.447   1.347  0.1089  0.5085 -0.0949
 4351TIP3    H134688  -0.007   6.413   1.362  1.2772 -1.7936  2.2997
 4351TIP3    H234689   0.080   6.476   1.255 -2.4981 -1.4544 -0.8094
 4352TIP3   OH234690   3.123   1.315   2.172 -0.4247 -0.6085  0.2750
 4352TIP3    H134691   3.090   1.405   2.171 -0.4411 -0.6161  0.1171
 4352TIP3    H234692   3.149   1.298   2.082  0.6421 -0.3744  0.5288
 4353TIP3   OH234693   4.196   5.329   0.832  0.4024  0.4690  0.3733
 4353TIP3    H134694   4.199   5.423   0.819  0.1853  0.4360  0.0737
 4353TIP3    H234695   4.219   5.292   0.747 -1.0410  0.2507  0.0511
 4354TIP3   OH234696   6.266   2.582   2.834 -0.2897 -0.2276 -0.1244
 4354TIP3    H134697   6.343   2.549   2.787 -0.5561 -0.1090 -0.6462
 4354TIP3    H234698   6.300   2.655   2.885 -0.4628  1.4427 -2.2271
 4355TIP3   OH234699   3.178   4.667   4.776 -0.0597 -0.2536  0.5601
 4355TIP3    H134700   3.100   4.720   4.757 -0.2300 -0.2506  1.2232
 4355TIP3    H234701   3.148   4.577   4.771  0.6283 -0.4152 -2.3337
 4356TIP3   OH234702   0.483   0.011   3.000 -0.0448 -0.6923  0.3731
 4356TIP3    H134703   0.444  -0.014   3.084  1.0939  0.5969  1.3432
 4356TIP3    H234704   0.577  -0.007   3.011  0.6989  2.7441  0.7657
 4357TIP3   OH234705   5.228   0.621   4.226  0.3543 -0.2405  0.5383
 4357TIP3    H134706   5.276   0.669   4.293 -0.6783  0.1469  1.0250
 4357TIP3    H234707   5.277   0.540   4.214 -0.2985 -1.0510  2.9130
 4358TIP3   OH234708   2.007   6.720   2.878 -0.3747  0.1358  0.0254
 4358TIP3    H134709   2.032   6.676   2.959  1.6397  1.7441  0.3764
 4358TIP3    H234710   1.912   6.725   2.881 -0.3931 -0.5644  1.9102
 4359TIP3   OH234711   3.022   0.500   8.840 -0.3545  0.2695  0.5127
 4359TIP3    H134712   3.039   0.409   8.816 -2.6904 -0.7598  2.3894
 4359TIP3    H234713   3.089   0.521   8.905  0.1153 -0.1466  0.1685
 4360TIP3   OH234714   6.164   4.460   1.264  1.0370  0.0065 -0.2232
 4360TIP3    H134715   6.089   4.413   1.226 -0.3887  1.1444  1.0315
 4360TIP3    H234716   6.196   4.402   1.334  0.4962  0.0626  0.0774
 4361TIP3   OH234717   4.265   6.627   3.025 -0.1432  0.1199 -0.3378
 4361TIP3    H134718   4.193   6.687   3.007 -0.6537 -0.6728 -1.0116
 4361TIP3    H234719   4.291   6.592   2.940 -0.1922 -0.9816  0.0706
 4362TIP3   OH234720   3.637   1.094   3.734 -0.5046 -0.1024 -0.5662
 4362TIP3    H134721   3.581   1.156   3.688 -0.5817 -0.5306 -1.0662
 4362TIP3    H234722   3.649   1.022   3.672 -1.2002 -1.0263  0.3445
 4363TIP3   OH234723   3.200   3.073   1.236  0.1245 -0.1950 -0.3378
 4363TIP3    H134724   3.133   3.085   1.169 -0.1209  0.6495  0.0378
 4363TIP3    H234725   3.165   3.005   1.294 -0.6589  0.5959  0.1416
 4364TIP3   OH234726   1.709   6.117   8.833 -0.0355  0.2860  0.3412
 4364TIP3    H134727   1.769   6.113   8.759 -0.9932 -1.0045 -0.4135
 4364TIP3    H234728   1.623   6.102   8.795 -0.6984  0.7824  1.5701
 4365TIP3   OH234729   5.048   4.243   3.951 -0.0723 -0.3410 -0.2352
 4365TIP3    H134730   4.998   4.256   4.031 -0.4931 -1.1957 -0.3384
 4365TIP3    H234731   4.993   4.279   3.882  1.0814  2.0773  0.0108
 4366TIP3   OH234732   6.690   1.165   3.530  0.0346 -0.2683 -0.3235
 4366TIP3    H134733   6.766   1.221   3.547 -0.3310  0.1709 -0.1058
 4366TIP3    H234734   6.725   1.077   3.525  0.8565  0.1093 -2.1071
 4367TIP3   OH234735   1.763   0.623   2.698  0.2940  0.1012  0.3924
 4367TIP3    H134736   1.798   0.706   2.731  1.8880  0.1657 -1.2510
 4367TIP3    H234737   1.805   0.556   2.752  1.7419  0.2657 -0.4535
 4368TIP3   OH234738   0.354   1.536   2.075  0.7081  0.1013 -0.3070
 4368TIP3    H134739   0.439   1.491   2.081  0.6362  0.0632  0.7319
 4368TIP3    H234740   0.339   1.547   1.982  1.6660 -0.2651 -0.5197
 4369TIP3   OH234741   0.073   6.272   0.923 -0.4771 -0.7390  0.4408
 4369TIP3    H134742   0.145   6.259   0.985  0.5819 -0.4608 -0.6921
 4369TIP3    H234743   0.090   6.210   0.852 -1.8059 -1.2204  0.5162
 4370TIP3   OH234744   4.225   6.694   0.981  0.0574  0.3773 -0.0104
 4370TIP3    H134745   4.298   6.646   0.941 -1.1952 -0.0757 -1.8980
 4370TIP3    H234746   4.151   6.633   0.975 -1.4756  2.2624 -2.0322
 4371TIP3   OH234747   3.656   2.765   3.533 -0.4325 -0.0185 -0.2120
 4371TIP3    H134748   3.668   2.787   3.440  1.8401  0.2894  0.0929
 4371TIP3    H234749   3.691   2.676   3.541 -2.5020 -0.8799  0.0287
 4372TIP3   OH234750   5.499   2.985   1.452 -0.1627  0.7015 -0.3012
 4372TIP3    H134751   5.470   3.066   1.494 -2.7936  0.3648 -1.2897
 4372TIP3    H234752   5.500   2.920   1.523 -0.7168  0.9989 -0.0132
 4373TIP3   OH234753   4.944   4.313   4.222  0.0178 -0.0255 -0.6466
 4373TIP3    H134754   4.861   4.290   4.180  0.1601 -1.7112 -0.0691
 4373TIP3    H234755   4.921   4.383   4.283 -1.2396 -1.2358  0.3360
 4374TIP3   OH234756   6.070   4.764   1.958  0.1747  0.2891 -0.0647
 4374TIP3    H134757   6.149   4.816   1.943  0.1500 -0.3156 -2.5956
 4374TIP3    H234758   6.010   4.824   2.001  1.1429  1.4903 -0.3324
 4375TIP3   OH234759   5.749   1.242   4.497  0.3809 -0.4207  0.1459
 4375TIP3    H134760   5.830   1.289   4.517  0.3346 -0.3964  0.2745
 4375TIP3    H234761   5.709   1.226   4.582  0.1238 -0.2086  0.0657
 4376TIP3   OH234762   6.623   2.750   8.655  0.0309  0.4650 -0.3165
 4376TIP3    H134763   6.686   2.791   8.714 -2.2050  3.0960  0.4581
 4376TIP3    H234764   6.537   2.774   8.691 -1.4866 -2.2254 -1.7615
 4377TIP3   OH234765   0.553   5.769   4.286 -0.4703 -0.4820  0.1724
 4377TIP3    H134766   0.584   5.772   4.196  0.1247 -0.7578  0.3598
 4377TIP3    H234767   0.460   5.747   4.279 -0.7053  0.6525 -0.4130
 4378TIP3   OH234768   5.739   3.917   2.244  0.7026  0.2329  0.2803
 4378TIP3    H134769   5.781   3.951   2.165 -0.3579  2.4780  0.6173
 4378TIP3    H234770   5.802   3.934   2.314  1.3518 -1.1402  0.0718
 4379TIP3   OH234771   6.403   3.571   0.806 -0.3649  0.0987  0.3218
 4379TIP3    H134772   6.362   3.568   0.720 -0.2581  0.5904  0.2488
 4379TIP3    H234773   6.331   3.594   0.865 -0.7486 -1.6777  0.5831
 4380TIP3   OH234774   2.575   1.713   0.092  0.2840 -0.0231  0.0451
 4380TIP3    H134775   2.604   1.803   0.104  0.9792 -0.2762  0.3705
 4380TIP3    H234776   2.499   1.718   0.034 -0.0525  0.8182  0.5512
 4381TIP3   OH234777   5.513   5.399   4.644  0.1574  0.1395  0.4579
 4381TIP3    H134778   5.534   5.342   4.570  2.0952 -0.4869  1.4156
 4381TIP3    H234779   5.594   5.447   4.660  0.1306 -0.4881  2.7934
 4382TIP3   OH234780   6.158   5.655   3.963  0.1887  0.6379  0.0513
 4382TIP3    H134781   6.217   5.594   3.920  0.4973  1.1236 -0.2258
 4382TIP3    H234782   6.071   5.633   3.930  0.2538  0.1249  0.2212
 4383TIP3   OH234783   5.912   4.336   3.313  0.3381  0.0207  0.7039
 4383TIP3    H134784   5.899   4.373   3.226 -1.1976 -1.3580  0.2961
 4383TIP3    H234785   5.998   4.369   3.341  0.8213  0.5678 -1.2783
 4384TIP3   OH234786   3.459   2.102   4.330 -0.4220  0.2388 -0.1278
 4384TIP3    H134787   3.493   2.040   4.395 -0.3185  0.5870  0.1531
 4384TIP3    H234788   3.366   2.081   4.323 -0.2194 -0.4997 -0.6506
 4385TIP3   OH234789   6.270   5.941   2.057  0.3620 -0.5773  0.1855
 4385TIP3    H134790   6.209   5.907   2.123  1.5308 -3.2511  0.0481
 4385TIP3    H234791   6.352   5.952   2.104  1.0004 -1.7540 -0.5919
 4386TIP3   OH234792   4.824   5.429   1.981  0.1907 -0.1480  0.4532
 4386TIP3    H134793   4.774   5.364   2.029 -0.8325  0.6211  0.4488
 4386TIP3    H234794   4.837   5.391   1.894  1.5870 -1.3116  1.1293
 4387TIP3   OH234795   3.871   0.532   4.659  0.1719 -0.1128 -0.1256
 4387TIP3    H134796   3.833   0.619   4.655  0.1595 -0.1578 -1.8948
 4387TIP3    H234797   3.800   0.476   4.691 -0.6159  0.1415 -1.3621
 4388TIP3   OH234798   6.205   4.512   4.492  0.5453 -0.2415  0.1990
 4388TIP3    H134799   6.206   4.471   4.578 -0.8188 -0.2490  0.2318
 4388TIP3    H234800   6.146   4.587   4.502 -0.2985 -0.7278 -0.9348
 4389TIP3   OH234801   0.803   2.674   1.171  0.5517 -0.0592 -0.0095
 4389TIP3    H134802   0.718   2.702   1.136  0.8150  0.5566 -0.1728
 4389TIP3    H234803   0.818   2.588   1.132  0.0625 -0.1140 -0.0824
 4390TIP3   OH234804   6.739   5.390   3.006 -0.6289  0.4810  0.2132
 4390TIP3    H134805   6.681   5.323   2.969  1.7597 -0.3819 -2.3226
 4390TIP3    H234806   6.769   5.440   2.930  0.4689  2.1113  1.6567
 4391TIP3   OH234807   4.617   2.630   3.488 -0.5162 -0.2137 -0.3448
 4391TIP3    H134808   4.663   2.550   3.463  0.2694 -0.3270  1.3522
 4391TIP3    H234809   4.672   2.669   3.556 -1.7690  0.8695  0.0899
 4392TIP3   OH234810   0.348   3.306   1.009  0.1505  0.6038  0.0438
 4392TIP3    H134811   0.426   3.279   0.959 -1.5719 -1.8709 -1.5063
 4392TIP3    H234812   0.305   3.371   0.953  0.1426  0.6133  0.0610
 4393TIP3   OH234813   0.107   3.101   3.131  0.5177 -0.4498 -0.8374
 4393TIP3    H134814   0.053   3.137   3.061 -0.3188  0.6803  0.3400
 4393TIP3    H234815   0.104   3.167   3.200  0.5738 -1.9143  0.6229
 4394TIP3   OH234816   0.488   1.711   4.659  0.2831 -0.3269  0.5182
 4394TIP3    H134817   0.547   1.785   4.641  0.2025 -0.4564 -0.2732
 4394TIP3    H234818   0.547   1.639   4.680  0.3898 -0.2968  0.3259
 4395TIP3   OH234819   5.892   4.295   0.430  0.1980 -0.4250  0.4267
 4395TIP3    H134820   5.868   4.317   0.520  1.0877  0.7634  0.3980
 4395TIP3    H234821   5.980   4.331   0.419 -0.2789  0.3470 -1.2049
 4396TIP3   OH234822   6.395   2.073   1.959  0.2526  0.0220 -0.4346
 4396TIP3    H134823   6.393   2.018   2.037 -0.6955  1.2296  0.4325
 4396TIP3    H234824   6.388   2.162   1.993 -2.0523  0.4877 -1.9736
 4397TIP3   OH234825   1.190   2.837   0.642  0.1644  0.7608 -0.1839
 4397TIP3    H134826   1.272   2.800   0.609 -0.9439 -2.2186  0.1300
 4397TIP3    H234827   1.161   2.896   0.573  1.6111  0.3957 -1.1472
 4398TIP3   OH234828   6.791   6.238   1.751 -0.0072  0.3469 -0.2039
 4398TIP3    H134829   6.758   6.174   1.688  2.0151 -1.2065  0.2031
 4398TIP3    H234830   6.843   6.186   1.813 -0.9694  1.9562  2.1152
 4399TIP3   OH234831   2.612   0.275   3.839  0.0835 -0.1005  0.3515
 4399TIP3    H134832   2.533   0.259   3.787 -0.1553 -0.7550  0.8954
 4399TIP3    H234833   2.613   0.370   3.853 -1.3351 -0.1932  1.4312
 4400TIP3   OH234834   4.058   3.814   4.738  0.2010  0.7622  0.2198
 4400TIP3    H134835   3.993   3.755   4.775 -0.2767  0.0331 -1.6459
 4400TIP3    H234836   4.009   3.892   4.712  0.3904  0.9509  0.4216
 4401TIP3   OH234837   1.246   0.008   0.458  0.1997  0.6946 -0.6586
 4401TIP3    H134838   1.243   0.077   0.524  0.3320  0.3109 -0.2455
 4401TIP3    H234839   1.264   0.054   0.376  1.8400  1.0030 -0.1580
 4402TIP3   OH234840   0.799   3.890   2.283 -0.0396 -0.5032 -0.1366
 4402TIP3    H134841   0.854   3.964   2.256  0.8674 -0.2170  2.2469
 4402TIP3    H234842   0.710   3.916   2.258  0.3374  1.1568  0.1314
 4403TIP3   OH234843   1.569   4.846   1.657 -0.3893  0.3918  0.2033
 4403TIP3    H134844   1.571   4.825   1.751 -1.1361  3.0648  0.9177
 4403TIP3    H234845   1.609   4.933   1.652 -1.0051  0.5913 -1.8705
 4404TIP3   OH234846   0.714   6.331   3.411 -0.2487 -0.1499 -0.6435
 4404TIP3    H134847   0.766   6.409   3.393  2.4053 -0.9211  2.7828
 4404TIP3    H234848   0.778   6.260   3.419 -2.2013 -1.9479  0.0872
 4405TIP3   OH234849   3.209   1.229   0.456  0.4746 -0.2560 -0.5623
 4405TIP3    H134850   3.195   1.240   0.362  0.8029 -1.6068 -0.7878
 4405TIP3    H234851   3.304   1.226   0.466  0.4502  0.4204 -0.1188
 4406TIP3   OH234852   0.941   3.342   8.848 -0.6029 -0.2269  0.7526
 4406TIP3    H134853   0.862   3.289   8.841 -1.2652  0.8239 -0.0111
 4406TIP3    H234854   0.987   3.328   8.766 -0.8793  0.5054  0.4619
 4407TIP3   OH234855   2.991   4.579   2.917 -0.2909 -0.1225  0.0568
 4407TIP3    H134856   2.999   4.649   2.853  0.7512  0.0400  0.3444
 4407TIP3    H234857   3.054   4.602   2.985 -1.4785 -0.2069  1.2302
 4408TIP3   OH234858   3.444   2.606   1.782  0.5787 -0.1563 -0.0638
 4408TIP3    H134859   3.433   2.589   1.688  1.5764  0.4097 -0.3013
 4408TIP3    H234860   3.361   2.644   1.810  0.2986 -0.2645 -0.7417
 4409TIP3   OH234861   0.930   2.715   0.497  0.2612 -0.1859  0.2968
 4409TIP3    H134862   0.969   2.803   0.496  2.0917 -0.9261  1.3092
 4409TIP3    H234863   0.873   2.713   0.420  0.2021  1.8580  0.2326
 4410TIP3   OH234864   6.622   4.573   1.903  0.1519 -0.1636  0.7618
 4410TIP3    H134865   6.567   4.530   1.968 -2.8108  0.0705 -1.4103
 4410TIP3    H234866   6.597   4.666   1.908 -1.1846 -0.3244 -1.5119
 4411TIP3   OH234867   5.614   3.492   3.833  0.0524  0.0893 -0.1474
 4411TIP3    H134868   5.646   3.434   3.902 -0.4176  0.9243  0.8076
 4411TIP3    H234869   5.629   3.580   3.868 -2.5871  0.5448  0.0603
 4412TIP3   OH234870   6.270   0.677   2.495  0.0880  0.5877 -0.4157
 4412TIP3    H134871   6.276   0.589   2.531  0.6730  1.3555  1.5377
 4412TIP3    H234872   6.186   0.680   2.450  0.0419 -0.9285 -0.4605
 4413TIP3   OH234873   3.240   4.946   3.761 -0.6191 -0.0305 -0.7600
 4413TIP3    H134874   3.335   4.937   3.770 -0.9463 -3.1690  0.9043
 4413TIP3    H234875   3.208   4.957   3.850 -1.8733 -0.0371 -1.1867
 4414TIP3   OH234876   2.825   6.109   3.215 -0.1357 -0.4029  0.0608
 4414TIP3    H134877   2.746   6.145   3.174 -0.0172  0.6622  0.7234
 4414TIP3    H234878   2.791   6.058   3.289 -0.1720  1.5494  1.4611
 4415TIP3   OH234879   0.229   1.906   1.560 -0.8153  0.3871 -0.0451
 4415TIP3    H134880   0.146   1.870   1.590 -0.9637  0.4708 -0.3424
 4415TIP3    H234881   0.225   1.999   1.585 -1.2004  0.5978 -0.8382
 4416TIP3   OH234882   0.956   1.669   0.587 -0.0994  0.3769  0.7687
 4416TIP3    H134883   1.039   1.651   0.543 -0.6730 -1.3227  0.3116
 4416TIP3    H234884   0.944   1.595   0.646 -0.5686  1.3744  1.9602
 4417TIP3   OH234885   6.222   6.685   5.274  0.1187  0.0230 -0.1813
 4417TIP3    H134886   6.234   6.714   5.183 -0.0541  1.8191  0.3327
 4417TIP3    H234887   6.213   6.590   5.267  0.7050  0.0507 -1.9794
 4418TIP3   OH234888   5.159   3.275   3.377 -0.7540  0.1433 -0.4407
 4418TIP3    H134889   5.121   3.338   3.316 -2.7276 -0.5400  0.0123
 4418TIP3    H234890   5.148   3.190   3.333  0.2918 -0.0893 -0.2831
 4419TIP3   OH234891   1.333   3.124   3.984 -0.3392  0.3097 -0.0102
 4419TIP3    H134892   1.303   3.038   4.014 -0.9605  0.4008 -0.3470
 4419TIP3    H234893   1.267   3.186   4.018  0.1062  0.6555  0.2381
 4420TIP3   OH234894   3.579   0.515   3.752  0.0240  0.6450 -0.8352
 4420TIP3    H134895   3.532   0.475   3.825 -0.2984  0.3221 -1.2227
 4420TIP3    H234896   3.624   0.590   3.792 -0.5628  0.7721 -0.4066
 4421TIP3   OH234897   2.940   0.074   2.888 -0.2374  0.0384  0.1375
 4421TIP3    H134898   2.946   0.070   2.793 -0.4068  0.7223  0.0956
 4421TIP3    H234899   3.031   0.087   2.917 -0.1713 -0.2825  0.0791
 4422TIP3   OH234900   1.404   3.133   1.558 -0.1592 -0.4088 -0.3058
 4422TIP3    H134901   1.333   3.103   1.615  1.3990 -2.3086  0.7416
 4422TIP3    H234902   1.411   3.227   1.577 -0.3906 -0.7753  1.9224
 4423TIP3   OH234903   2.378   1.509   4.238  0.3283 -0.1021  0.5435
 4423TIP3    H134904   2.465   1.518   4.277  0.2680  0.5453  0.5414
 4423TIP3    H234905   2.317   1.529   4.310  0.1839 -0.5845  0.5533
 4424TIP3   OH234906   1.103   0.934   0.883 -0.3292  0.8787  0.1746
 4424TIP3    H134907   1.076   1.023   0.901  0.8984  0.7308  3.4220
 4424TIP3    H234908   1.022   0.884   0.877 -0.9597  1.8970  0.1008
 4425TIP3   OH234909   0.155   2.427   1.294 -0.2976  0.5850 -0.3559
 4425TIP3    H134910   0.146   2.332   1.287  0.3349  0.5779 -1.0984
 4425TIP3    H234911   0.217   2.451   1.226  0.1535  1.4421  0.3304
 4426TIP3   OH234912   2.669   4.686   4.158  0.1085  0.8869  0.1914
 4426TIP3    H134913   2.725   4.655   4.229  0.8991  1.5896 -0.1093
 4426TIP3    H234914   2.692   4.632   4.083 -1.4279 -0.5286  0.6810
 4427TIP3   OH234915   1.429   6.482   2.834  0.2604 -0.1877 -0.0861
 4427TIP3    H134916   1.431   6.576   2.814  0.8555  0.2103  1.7151
 4427TIP3    H234917   1.474   6.442   2.759  0.4327  1.0040 -0.6507
 4428TIP3   OH234918   6.060   1.484   2.967  0.4153  0.2655  0.1644
 4428TIP3    H134919   5.965   1.496   2.968  0.2058 -1.1754  0.5396
 4428TIP3    H234920   6.074   1.411   2.906  1.1446 -0.3471  1.0322
 4429TIP3   OH234921   6.404   2.478   1.686  0.2383 -0.3012 -0.7520
 4429TIP3    H134922   6.489   2.506   1.651 -0.4215  0.4606 -1.8138
 4429TIP3    H234923   6.355   2.449   1.609 -0.3435 -1.0858 -0.1022
 4430TIP3   OH234924   6.259   0.366   2.283 -0.2221 -0.3675 -0.1161
 4430TIP3    H134925   6.266   0.412   2.367  1.0321 -0.9001  0.0945
 4430TIP3    H234926   6.302   0.282   2.298  0.1262 -0.4261 -1.3159
 4431TIP3   OH234927   1.179   2.630   8.797  0.3742 -0.4580 -0.2291
 4431TIP3    H134928   1.267   2.643   8.759  0.0305 -0.6244 -1.1193
 4431TIP3    H234929   1.186   2.548   8.845  1.6838  1.2760  2.7800
 4432TIP3   OH234930   0.864   6.435   4.618  0.2781 -0.2003  0.0105
 4432TIP3    H134931   0.848   6.388   4.700 -0.8358 -0.8325 -0.5431
 4432TIP3    H234932   0.926   6.504   4.641 -0.0600 -0.3361  1.3896
 4433TIP3   OH234933   0.430   2.942   3.222 -0.1585 -0.6088 -0.0517
 4433TIP3    H134934   0.520   2.929   3.192 -0.7004 -1.4784 -1.3575
 4433TIP3    H234935   0.430   2.906   3.311  1.3500  1.5865  0.9402
 4434TIP3   OH234936   0.103   5.208   3.705  0.1485 -0.3658 -0.2600
 4434TIP3    H134937   0.160   5.152   3.653 -1.0099  0.2305 -2.3149
 4434TIP3    H234938   0.148   5.292   3.709  0.6762 -0.6730  0.5695
 4435TIP3   OH234939   5.776   1.215   2.884  0.3508  0.4952  0.2617
 4435TIP3    H134940   5.724   1.200   2.805  0.2155 -1.2689  0.6346
 4435TIP3    H234941   5.779   1.310   2.894 -2.5125  0.6881  0.0328
 4436TIP3   OH234942   3.157   0.074   0.215 -0.5853 -0.0105 -0.0202
 4436TIP3    H134943   3.198   0.151   0.253 -1.0868 -0.3112  1.1937
 4436TIP3    H234944   3.230   0.018   0.187 -0.0141 -1.0474  3.1036
 4437TIP3   OH234945   4.715   4.573   4.042  0.1789  0.9374  0.3883
 4437TIP3    H134946   4.637   4.533   4.004  0.4224 -0.7309  1.4877
 4437TIP3    H234947   4.690   4.594   4.132  0.8966  0.6162  0.6773
 4438TIP3   OH234948   2.524   5.007   2.564  0.6619 -0.2210  0.7331
 4438TIP3    H134949   2.557   5.090   2.531 -0.0123  0.2751  1.2785
 4438TIP3    H234950   2.436   5.000   2.527  1.4362 -1.6928 -0.9918
 4439TIP3   OH234951   1.107   1.631   3.648  0.1065  0.0933  0.5952
 4439TIP3    H134952   1.027   1.684   3.655  0.5816  0.7455  1.3024
 4439TIP3    H234953   1.099   1.587   3.564 -0.3832  1.2027  0.0313
 4440TIP3   OH234954   2.306   6.423   4.072  0.2234 -0.1656 -0.6839
 4440TIP3    H134955   2.297   6.518   4.072 -0.6914 -0.2415 -0.5876
 4440TIP3    H234956   2.381   6.406   4.129  2.6934  0.6508 -3.4488
 4441TIP3   OH234957   3.455   1.819   3.836  0.0384 -0.6940 -0.5065
 4441TIP3    H134958   3.367   1.808   3.870  0.5128 -0.6402  0.7920
 4441TIP3    H234959   3.509   1.839   3.913  0.7895  1.6066 -1.5106
 4442TIP3   OH234960   1.384   0.354   2.981 -0.2298  0.1435  0.1043
 4442TIP3    H134961   1.318   0.418   3.005 -1.4568 -1.1935  0.4595
 4442TIP3    H234962   1.421   0.326   3.065  1.4695  1.5074 -0.1258
 4443TIP3   OH234963   4.204   4.981   4.192  0.1471 -0.4367  0.0303
 4443TIP3    H134964   4.282   4.949   4.147  0.4585  1.4627 -0.9079
 4443TIP3    H234965   4.131   4.932   4.152  0.5913 -0.0343 -1.3456
 4444TIP3   OH234966   0.400   1.059   0.222  0.5886  0.0252 -0.2866
 4444TIP3    H134967   0.427   1.014   0.143 -0.0763 -0.1810 -0.4066
 4444TIP3    H234968   0.463   1.032   0.288  1.4320  0.5771 -0.8569
 4445TIP3   OH234969   5.562   2.094   1.806 -0.1813  0.2555  0.0964
 4445TIP3    H134970   5.469   2.105   1.784 -0.2896 -0.0994  0.3598
 4445TIP3    H234971   5.561   2.050   1.892  0.2292  0.0880  0.0166
 4446TIP3   OH234972   6.052   3.291   1.081  0.2317 -0.3164 -0.5408
 4446TIP3    H134973   5.996   3.283   1.004 -0.6891  2.1634 -0.2202
 4446TIP3    H234974   5.992   3.292   1.155  0.9621 -0.7749  0.0701
 4447TIP3   OH234975   2.878   3.380   2.029 -0.2183  0.3206 -0.1936
 4447TIP3    H134976   2.913   3.299   1.993  2.4144  0.7593  1.1105
 4447TIP3    H234977   2.866   3.438   1.954 -1.5041 -0.9891 -1.0546
 4448TIP3   OH234978   3.823   3.583   0.629  0.0150  0.6067 -0.6332
 4448TIP3    H134979   3.864   3.581   0.715 -0.8125  0.7716 -0.2255
 4448TIP3    H234980   3.737   3.543   0.642  0.6920 -1.4575 -1.8490
 4449TIP3   OH234981   3.963   3.056   8.474  0.1753  0.5530  0.7722
 4449TIP3    H134982   3.913   3.131   8.508 -1.3050  0.5829 -1.2156
 4449TIP3    H234983   3.896   2.998   8.437  1.5422  0.6513 -2.1815
 4450TIP3   OH234984   5.719   3.089   3.427 -0.3113  0.0731  0.0720
 4450TIP3    H134985   5.710   3.159   3.362  0.1670  0.2064  0.1462
 4450TIP3    H234986   5.629   3.058   3.441 -0.3553 -0.4495 -1.1790
 4451TIP3   OH234987   6.383   6.432   1.656 -0.1313  0.0120  0.3175
 4451TIP3    H134988   6.314   6.398   1.714 -1.2978  3.5466  1.2959
 4451TIP3    H234989   6.352   6.412   1.568 -0.4891 -1.6947  0.7833
 4452TIP3   OH234990   5.790   2.060   3.443 -0.1934 -0.0871 -0.2562
 4452TIP3    H134991   5.728   1.996   3.478  1.4006 -1.6129 -0.0540
 4452TIP3    H234992   5.779   2.137   3.498 -1.9001 -0.3043 -0.2553
 4453TIP3   OH234993   0.825   1.984   3.744  0.1114 -0.5969  0.1471
 4453TIP3    H134994   0.872   1.939   3.673  0.7064  0.3523 -0.0826
 4453TIP3    H234995   0.882   1.972   3.821  1.2522  1.3175 -0.3261
 4454TIP3   OH234996   3.737   1.666   3.130 -0.2867 -0.0122 -0.2986
 4454TIP3    H134997   3.642   1.676   3.135 -0.3303 -0.9807  2.4521
 4454TIP3    H234998   3.751   1.605   3.058 -1.7039  0.2273 -0.8190
 4455TIP3   OH234999   6.053   5.063   0.888 -0.2215 -0.2982  0.4767
 4455TIP3    H135000   6.082   5.024   0.971  0.3646 -3.2642 -0.9756
 4455TIP3    H235001   6.132   5.065   0.835 -0.8430  0.3542 -0.4367
 4456TIP3   OH235002   0.913   2.600   0.725 -0.4355 -0.1435 -0.0022
 4456TIP3    H135003   0.980   2.628   0.787  0.5643 -2.4640  0.0822
 4456TIP3    H235004   0.932   2.649   0.645  0.6703  0.0483  0.3671
 4457TIP3   OH235005   0.723   0.454   0.903 -0.2017  0.3726  0.3352
 4457TIP3    H135006   0.628   0.459   0.915  0.0231  4.3420  1.7315
 4457TIP3    H235007   0.739   0.496   0.818  0.3408 -0.1038  0.1938
 4458TIP3   OH235008   0.286   5.572   2.861  0.4373  0.0371  0.1420
 4458TIP3    H135009   0.300   5.538   2.949  1.5584  1.0142  0.3600
 4458TIP3    H235010   0.342   5.517   2.806 -0.4015 -0.6932 -0.0186
 4459TIP3   OH235011   6.250   5.416   1.622  0.0551 -0.1468 -0.3256
 4459TIP3    H135012   6.224   5.392   1.533 -0.1885  1.1162 -0.6187
 4459TIP3    H235013   6.340   5.445   1.613 -1.0048  3.4746 -0.9231
 4460TIP3   OH235014   3.578   1.556   2.600 -0.0418 -0.3538 -0.1028
 4460TIP3    H135015   3.523   1.617   2.551  1.1117 -0.4378 -1.5637
 4460TIP3    H235016   3.599   1.487   2.537 -0.8813 -2.0301  1.3545
 4461TIP3   OH235017   5.399   1.900   3.352  0.1029  0.1440 -0.8215
 4461TIP3    H135018   5.332   1.963   3.377 -1.2096 -1.2581 -0.6619
 4461TIP3    H235019   5.434   1.867   3.435 -1.6338 -1.7797 -0.7690
 4462TIP3   OH235020   2.614   5.301   2.710 -0.3151  0.1288 -0.4391
 4462TIP3    H135021   2.593   5.391   2.685 -2.1530 -0.0891  0.1502
 4462TIP3    H235022   2.648   5.261   2.631 -1.0100  0.9058 -1.1467
 4463TIP3   OH235023   4.084   4.316   3.880 -0.0673  0.5432  0.0005
 4463TIP3    H135024   4.136   4.352   3.808 -0.5761  3.1363  0.8366
 4463TIP3    H235025   4.000   4.361   3.874 -0.2179  0.6356  2.0509
 4464TIP3   OH235026   1.983   1.390   3.309 -0.0274 -0.2623 -0.1267
 4464TIP3    H135027   2.071   1.373   3.275 -1.2754  0.5170 -4.3358
 4464TIP3    H235028   1.928   1.325   3.266 -1.8854  0.9531  0.3206
 4465TIP3   OH235029   0.181   3.247   2.497 -0.7210  0.3802  0.1914
 4465TIP3    H135030   0.132   3.220   2.575 -0.2674  0.7032  0.5941
 4465TIP3    H235031   0.244   3.312   2.529  0.8267 -0.9097 -0.0722
 4466TIP3   OH235032   3.627   5.746   1.321  0.5172 -1.0611 -0.1675
 4466TIP3    H135033   3.660   5.835   1.315 -0.6011 -0.6884 -1.0049
 4466TIP3    H235034   3.569   5.747   1.397 -0.5256 -0.7169 -0.9515
 4467TIP3   OH235035   4.964   4.695   2.901 -0.6163 -0.2493 -0.3379
 4467TIP3    H135036   4.906   4.735   2.836  0.7188  0.0514 -1.3873
 4467TIP3    H235037   4.997   4.769   2.952 -1.6432 -0.4811  0.7314
 4468TIP3   OH235038   1.757   1.679   2.713  0.7619  0.4239 -0.1576
 4468TIP3    H135039   1.835   1.671   2.657  0.2731 -2.2085 -0.6181
 4468TIP3    H235040   1.686   1.643   2.660  0.1798 -1.6336  1.8491
 4469TIP3   OH235041   5.571   5.998   0.860 -0.5110 -0.0667 -0.0954
 4469TIP3    H135042   5.494   5.942   0.871 -0.5330 -0.0985 -0.3996
 4469TIP3    H235043   5.595   5.987   0.768  1.3160 -1.9599  0.5318
 4470TIP3   OH235044   2.188   4.528   4.187  0.4756 -0.0123  0.6926
 4470TIP3    H135045   2.139   4.517   4.269 -0.0490 -2.0951  0.1720
 4470TIP3    H235046   2.269   4.571   4.214 -0.6809  1.5138  1.9107
 4471TIP3   OH235047   5.574   3.876   1.620  0.4019 -0.0792  0.2766
 4471TIP3    H135048   5.535   3.833   1.544 -0.8913 -1.1014  1.4669
 4471TIP3    H235049   5.592   3.805   1.681  2.1153  0.6333  0.6679
 4472TIP3   OH235050   3.140   3.748   4.218 -0.3498 -0.2880  0.3396
 4472TIP3    H135051   3.074   3.708   4.162 -1.6817  1.5471  0.5146
 4472TIP3    H235052   3.104   3.741   4.306 -0.1956  0.5159  0.4687
 4473TIP3   OH235053   5.818   0.219   2.649  0.1708 -0.1158 -0.0008
 4473TIP3    H135054   5.746   0.199   2.709 -0.4930  0.0327 -0.7378
 4473TIP3    H235055   5.777   0.268   2.578  1.3485  1.7521  0.5554
 4474TIP3   OH235056   6.581   2.411   1.249  0.5794  0.0468 -0.1218
 4474TIP3    H135057   6.529   2.490   1.266  1.0423  0.2583  0.3453
 4474TIP3    H235058   6.604   2.379   1.336  2.5732  0.8662 -0.2996
 4475TIP3   OH235059   0.710   2.890   2.305 -0.0817 -0.2234 -0.5676
 4475TIP3    H135060   0.680   2.858   2.390 -2.0712 -1.3301 -1.6198
 4475TIP3    H235061   0.803   2.908   2.318 -0.3080 -0.4287  1.8093
 4476TIP3   OH235062   0.915   3.331   3.430 -0.5784 -0.2434 -0.1886
 4476TIP3    H135063   0.986   3.278   3.394  0.4941  1.7195 -1.1666
 4476TIP3    H235064   0.883   3.282   3.505  0.2802 -2.2672 -1.0691
 4477TIP3   OH235065   4.693   5.437   1.059  0.2299 -0.4699  0.3337
 4477TIP3    H135066   4.632   5.376   1.100  0.6553 -1.5802 -0.6264
 4477TIP3    H235067   4.763   5.382   1.025  1.0885  0.6505  0.2072
 4478TIP3   OH235068   0.781   4.984   3.163 -0.1239  0.4231  0.0337
 4478TIP3    H135069   0.868   5.003   3.127  1.1884 -1.6633  1.8580
 4478TIP3    H235070   0.764   5.056   3.224  1.6462 -0.4944  1.7293
 4479TIP3   OH235071   5.862   6.469   3.279 -0.2553  0.4154  0.2001
 4479TIP3    H135072   5.929   6.421   3.230 -0.0800  0.8697 -0.0177
 4479TIP3    H235073   5.889   6.561   3.272  0.2828  0.4218  1.9128
 4480TIP3   OH235074   2.877   3.060   1.369  0.1394  0.0824  0.1425
 4480TIP3    H135075   2.905   3.088   1.282  0.8889  1.4386  0.7872
 4480TIP3    H235076   2.943   2.995   1.395 -0.2420 -0.5317 -0.3990
 4481TIP3   OH235077   2.323   3.709   3.789  0.0305 -0.7042  0.5980
 4481TIP3    H135078   2.358   3.795   3.764 -1.4155  0.2822  1.8167
 4481TIP3    H235079   2.263   3.686   3.718 -0.1589 -0.3375  0.6368
 4482TIP3   OH235080   0.182   6.828   2.531 -0.0357 -0.3968 -0.0663
 4482TIP3    H135081   0.261   6.804   2.483  0.0336  0.6512 -0.5074
 4482TIP3    H235082   0.110   6.799   2.474  0.0462  0.5705 -0.6850
 4483TIP3   OH235083   3.598   3.038   3.083 -0.1466  0.3866  0.5697
 4483TIP3    H135084   3.534   3.065   3.017  0.1245 -0.0093  0.1339
 4483TIP3    H235085   3.546   2.992   3.149 -0.6153  1.9257  1.3234
 4484TIP3   OH235086   5.552   2.279   1.062  0.1717  0.7418  0.0235
 4484TIP3    H135087   5.475   2.329   1.090 -1.4683 -2.0459  0.8406
 4484TIP3    H235088   5.589   2.246   1.143  0.6549 -0.1203 -0.5400
 4485TIP3   OH235089   4.156   3.681   4.500  0.5133 -0.2292  0.5250
 4485TIP3    H135090   4.140   3.720   4.586 -2.7482 -0.4858  0.1659
 4485TIP3    H235091   4.130   3.590   4.509  0.7476 -0.4218 -0.5932
 4486TIP3   OH235092   2.601   3.233   4.749 -0.2405 -0.5387  0.1387
 4486TIP3    H135093   2.594   3.305   4.812 -1.6090 -1.7581  1.4796
 4486TIP3    H235094   2.691   3.235   4.719 -0.4465  2.2693 -0.5564
 4487TIP3   OH235095   5.258   3.327   1.002  0.0544  0.6017  0.4938
 4487TIP3    H135096   5.164   3.341   1.011  0.4255  2.9234  1.3820
 4487TIP3    H235097   5.290   3.320   1.092  0.7089 -0.4582  0.1929
 4488TIP3   OH235098   4.416   4.108   4.124 -0.2601  0.6561 -0.9030
 4488TIP3    H135099   4.436   4.056   4.202  2.9382  1.5132 -1.0121
 4488TIP3    H235100   4.337   4.067   4.087 -0.2459 -1.4983  1.2183
 4489TIP3   OH235101   5.689   1.792   4.000 -0.4106 -0.4869  0.6616
 4489TIP3    H135102   5.714   1.884   4.012  0.3758 -0.4177 -1.1833
 4489TIP3    H235103   5.757   1.756   3.944 -1.3153 -1.9092  0.4337
 4490TIP3   OH235104   4.859   3.171   3.320 -0.4295 -0.4095  0.3975
 4490TIP3    H135105   4.933   3.143   3.265  0.7727 -1.0471  2.2563
 4490TIP3    H235106   4.840   3.260   3.291  1.3809 -0.0494  0.1561
 4491TIP3   OH235107   2.391   6.661   2.925  0.6398 -0.1267 -0.3831
 4491TIP3    H135108   2.368   6.749   2.957 -0.9632 -1.1807  1.5422
 4491TIP3    H235109   2.474   6.674   2.879  0.3666  2.4208 -0.3051
 4492TIP3   OH235110   5.729   0.476   2.893  0.0048  0.2964  0.2721
 4492TIP3    H135111   5.742   0.382   2.904  1.1259 -0.0030 -2.6392
 4492TIP3    H235112   5.648   0.495   2.940 -0.5404 -2.2165  0.4884
 4493TIP3   OH235113   5.139   0.749   1.490  0.3635 -0.1074 -0.1503
 4493TIP3    H135114   5.104   0.667   1.526 -0.8116 -0.4658 -1.9669
 4493TIP3    H235115   5.099   0.755   1.403  1.4108  1.7804 -0.5362
 4494TIP3   OH235116   0.762   4.728   1.234  0.4679  0.0408  0.3341
 4494TIP3    H135117   0.814   4.766   1.163  0.2104 -0.7022 -0.2745
 4494TIP3    H235118   0.800   4.764   1.314  0.6880  0.9943 -0.1775
 4495TIP3   OH235119   1.738   6.262   2.305  0.3037 -0.5725 -0.3170
 4495TIP3    H135120   1.660   6.226   2.348 -0.1038  0.0250 -0.5438
 4495TIP3    H235121   1.775   6.322   2.370  0.7307 -1.0530 -0.1091
 4496TIP3   OH235122   6.337   0.931   1.340 -0.5192  0.3340 -0.7931
 4496TIP3    H135123   6.397   0.867   1.377 -1.5731 -0.6681 -0.7663
 4496TIP3    H235124   6.263   0.933   1.400  0.4867  3.4017  0.5537
 4497TIP3   OH235125   0.392   6.804   2.356 -0.1187 -0.1966 -0.2220
 4497TIP3    H135126   0.426   6.876   2.410 -0.9786 -1.3761  2.0383
 4497TIP3    H235127   0.457   6.793   2.287  0.0503  2.7038 -0.6636
 4498TIP3   OH235128   2.250   2.138   1.909 -0.1332 -0.1376  0.2654
 4498TIP3    H135129   2.242   2.197   1.834 -0.3912 -1.4556 -0.7744
 4498TIP3    H235130   2.173   2.083   1.905 -0.5287  0.2295  1.9558
 4499TIP3   OH235131   1.251   6.270   3.841  0.6325 -0.0912  0.0009
 4499TIP3    H135132   1.243   6.252   3.935 -1.0050 -0.7322 -0.2368
 4499TIP3    H235133   1.269   6.364   3.837 -1.9750  0.5330  0.9192
 4500TIP3   OH235134   2.883   1.865   1.803  0.0741 -0.2732  0.4199
 4500TIP3    H135135   2.930   1.939   1.841  0.1462 -2.1670  4.4746
 4500TIP3    H235136   2.790   1.888   1.810  0.1326 -0.0136  0.3458
 4501TIP3   OH235137   5.586   5.450   3.827  0.4398 -0.2498  0.6243
 4501TIP3    H135138   5.665   5.487   3.787  0.1633  0.4146  0.6762
 4501TIP3    H235139   5.616   5.417   3.912  0.6329  0.1559  0.7182
 4502TIP3   OH235140   6.057   2.887   1.985  0.2350  0.1639  0.2200
 4502TIP3    H135141   6.110   2.810   1.966  0.4046  0.2667  0.2769
 4502TIP3    H235142   6.116   2.946   2.032  0.1280  0.3600  0.1098
 4503TIP3   OH235143   2.964   2.790   1.536  0.1460 -0.2471  0.4523
 4503TIP3    H135144   2.942   2.857   1.601  0.8052 -1.5203  2.0698
 4503TIP3    H235145   3.060   2.787   1.537  0.1882 -3.2931  2.8236
 4504TIP3   OH235146   5.891   3.369   1.299 -0.0168 -0.2305  0.0569
 4504TIP3    H135147   5.955   3.440   1.295 -0.2985  0.0220  0.0639
 4504TIP3    H235148   5.903   3.331   1.387 -0.7327  0.6137  0.5308
 4505TIP3   OH235149   4.976   3.012   2.107 -0.1716 -0.0467  0.6403
 4505TIP3    H135150   5.004   2.948   2.172 -2.3366 -1.3645  0.4013
 4505TIP3    H235151   4.970   3.095   2.154  0.4627 -0.5106  1.5527
 4506TIP3   OH235152   0.053   2.999   4.421  0.6788 -0.4832  0.1266
 4506TIP3    H135153  -0.019   3.025   4.478  1.5096  1.4522  0.3819
 4506TIP3    H235154   0.019   3.012   4.332  0.5993  0.1626  0.2435
 4507TIP3   OH235155   2.994   2.055   4.155  0.6026  0.0527  0.2713
 4507TIP3    H135156   3.010   1.968   4.117 -2.3133 -0.2138 -0.6165
 4507TIP3    H235157   2.912   2.084   4.114  0.4437  2.3768  2.0334
 4508TIP3   OH235158   3.225   5.826   4.194  0.0136 -0.1759 -0.8419
 4508TIP3    H135159   3.138   5.792   4.214  0.3908 -1.1224 -0.7349
 4508TIP3    H235160   3.280   5.747   4.188  1.3243  0.4957  1.2627
 4509TIP3   OH235161   1.051   6.326   2.795  0.4701 -0.1056  0.2257
 4509TIP3    H135162   0.977   6.332   2.735  0.4449  0.4121  0.3043
 4509TIP3    H235163   1.013   6.341   2.881  0.1749 -2.7711  0.6175
 4510TIP3   OH235164   4.653   3.683   4.073  0.0389  0.1267  0.2307
 4510TIP3    H135165   4.707   3.625   4.019 -1.1412 -1.5274  0.7529
 4510TIP3    H235166   4.567   3.640   4.076 -0.8040  1.7810  0.8707
 4511TIP3   OH235167   1.765   5.826   2.131  0.1242  0.4460  0.4416
 4511TIP3    H135168   1.673   5.804   2.143  0.6399 -2.1641  0.2059
 4511TIP3    H235169   1.788   5.787   2.046  1.4462  1.0584  0.4850
 4512TIP3   OH235170   2.014   2.519   2.437 -0.7359 -0.4677  0.7445
 4512TIP3    H135171   1.950   2.590   2.448 -0.4759 -0.0574 -0.2561
 4512TIP3    H235172   2.046   2.529   2.347 -1.6446 -2.6614  0.1110
 4513TIP3   OH235173   6.579   1.571   2.209 -0.6088  0.4257 -0.1396
 4513TIP3    H135174   6.627   1.620   2.142 -0.5215  1.6341  0.7869
 4513TIP3    H235175   6.508   1.529   2.160 -1.4014  2.4204 -0.8130
 4514TIP3   OH235176   1.511   0.475   1.734 -0.0615  0.1426 -0.1606
 4514TIP3    H135177   1.452   0.550   1.733 -1.4614 -0.9119 -0.7501
 4514TIP3    H235178   1.480   0.420   1.662  1.2614 -0.7512 -0.0753
 4515TIP3   OH235179   4.234   2.747   4.024 -0.0157 -0.8083  0.0681
 4515TIP3    H135180   4.154   2.695   4.026 -0.1732 -0.6710 -1.5337
 4515TIP3    H235181   4.290   2.707   4.091 -1.2916 -1.0893  0.9941
 4516TIP3   OH235182   4.418   6.811   1.975  0.3032  0.2912  0.0313
 4516TIP3    H135183   4.418   6.742   1.909 -1.0495 -1.5960  1.8835
 4516TIP3    H235184   4.367   6.775   2.048 -0.5826  3.3249  1.0451
 4517TIP3   OH235185   2.648   5.226   2.446  0.0900 -0.7778 -0.0641
 4517TIP3    H135186   2.597   5.302   2.419  0.0616 -0.7663  0.0187
 4517TIP3    H235187   2.686   5.192   2.365 -1.8636 -2.1432 -0.4894
 4518TIP3   OH235188   1.216   1.361   0.163  0.1837 -0.3926 -0.5925
 4518TIP3    H135189   1.222   1.348   0.257  0.4653  1.6591 -0.2923
 4518TIP3    H235190   1.262   1.443   0.146 -1.5331  0.3134 -2.2569
 4519TIP3   OH235191   1.967   5.121   2.481  0.2074  0.2261  0.0971
 4519TIP3    H135192   2.037   5.141   2.543 -1.0735 -1.7325  2.3782
 4519TIP3    H235193   1.992   5.038   2.442 -1.0093 -0.7880  1.3598
 4520TIP3   OH235194   4.056   4.784   4.057  0.1737  0.5271 -0.1285
 4520TIP3    H135195   4.107   4.714   4.017  1.7288  1.6896 -0.2695
 4520TIP3    H235196   3.967   4.750   4.060  1.0562 -1.9401  0.9202
 4521TIP3   OH235197   0.078   6.012   2.542  0.0655 -0.2883  0.3404
 4521TIP3    H135198   0.171   6.022   2.519  0.3209  2.0613  2.0748
 4521TIP3    H235199   0.032   6.056   2.470  0.5543  1.7453  1.1811
 4522TIP3   OH235200   3.533   2.665   5.054  0.2838 -0.7232 -0.0388
 4522TIP3    H135201   3.563   2.644   4.965 -0.8598 -1.2044 -0.3358
 4522TIP3    H235202   3.495   2.752   5.047 -0.8689 -1.2315 -0.3082
 4523TIP3   OH235203   1.918   0.050   4.081  0.2527  0.1312  0.2215
 4523TIP3    H135204   1.938   0.136   4.043 -0.1915  1.1287  2.1087
 4523TIP3    H235205   1.910   0.067   4.175 -0.5432 -1.8618  0.5601
 4524TIP3   OH235206   0.339   4.050   1.317 -0.4863 -0.5032 -0.4141
 4524TIP3    H135207   0.394   4.123   1.346 -1.1601  0.0571 -0.5263
 4524TIP3    H235208   0.249   4.080   1.331 -0.7866 -1.9291  1.0634
 4525TIP3   OH235209   3.106   0.511   4.467  0.5613  0.3571  0.5110
 4525TIP3    H135210   3.194   0.539   4.441  0.8041 -0.7957  0.0178
 4525TIP3    H235211   3.112   0.498   4.562  0.6801  1.1170  0.6097
 4526TIP3   OH235212   6.383   2.716   1.116 -0.4585  0.6793  0.2652
 4526TIP3    H135213   6.304   2.722   1.170  0.5770 -2.1753  2.3498
 4526TIP3    H235214   6.455   2.718   1.179  0.9190 -0.8385 -1.1463
 4527TIP3   OH235215   5.618   3.345   2.545 -0.7840 -0.6117 -0.3181
 4527TIP3    H135216   5.590   3.294   2.620 -3.7566 -0.9189 -1.5196
 4527TIP3    H235217   5.578   3.431   2.558  1.0912  0.2852 -0.1581
 4528TIP3   OH235218   4.620   5.474   2.422 -0.0360 -0.2999  0.3610
 4528TIP3    H135219   4.662   5.419   2.357  1.3477 -1.0826  1.8543
 4528TIP3    H235220   4.667   5.557   2.417 -1.3114  0.3988 -1.0267
 4529TIP3   OH235221   1.423   6.614   0.513 -0.0661  0.1269 -0.3895
 4529TIP3    H135222   1.451   6.578   0.429 -1.7816 -0.0596 -0.9106
 4529TIP3    H235223   1.352   6.675   0.491 -0.5821  0.0339  0.9206
 4530TIP3   OH235224   2.703   6.407   3.156 -0.0206  0.0215  0.1397
 4530TIP3    H135225   2.688   6.484   3.101  1.2994 -0.6123 -1.1671
 4530TIP3    H235226   2.778   6.431   3.211 -0.3773  0.1054  0.5911
 4531TIP3   OH235227   0.258   2.906   0.839 -0.6401 -0.2273 -0.1848
 4531TIP3    H135228   0.261   2.890   0.745  1.2544  1.3718 -0.4679
 4531TIP3    H235229   0.332   2.858   0.875  0.1994  1.2190  0.0885
 4532TIP3   OH235230   5.064   3.923   1.673  0.6881  0.1675 -0.1323
 4532TIP3    H135231   4.991   3.865   1.695  0.7261  0.0794 -0.2359
 4532TIP3    H235232   5.095   3.955   1.757  0.4599  0.2919 -0.0934
 4533TIP3   OH235233   3.709   5.449   2.284 -0.3835  0.0107 -0.7567
 4533TIP3    H135234   3.684   5.433   2.193  1.3712 -0.5375 -1.1831
 4533TIP3    H235235   3.701   5.364   2.327 -1.0946  0.2427 -0.4102
 4534TIP3   OH235236   5.261   2.034   1.238 -0.3107 -0.7111  0.7246
 4534TIP3    H135237   5.353   2.017   1.261  0.1991 -0.4689 -1.0336
 4534TIP3    H235238   5.236   1.960   1.183 -0.1066  0.8210 -1.5625
 4535TIP3   OH235239   6.687   1.147   4.735  0.9558  0.4086 -0.7469
 4535TIP3    H135240   6.782   1.159   4.745  0.4649  2.7122  3.1415
 4535TIP3    H235241   6.660   1.103   4.815 -1.5079  2.0794 -0.5382
 4536TIP3   OH235242   0.514   3.756   2.008  0.3523  0.5140 -0.2442
 4536TIP3    H135243   0.542   3.709   1.930 -0.0830 -0.7492  0.3406
 4536TIP3    H235244   0.527   3.848   1.986 -0.2926  0.2233 -2.0149
 4537TIP3   OH235245   2.061   4.288   3.853 -0.2623  0.4708 -0.3598
 4537TIP3    H135246   2.030   4.360   3.908  1.8676  0.1474  1.4145
 4537TIP3    H235247   2.130   4.328   3.800  0.6451 -0.1394  0.3374
 4538TIP3   OH235248   3.558   1.162   3.322 -0.1289  0.0083 -0.5446
 4538TIP3    H135249   3.571   1.244   3.276 -0.1135  1.5818  2.0638
 4538TIP3    H235250   3.626   1.160   3.389 -1.6637 -0.8336  1.1064
 4539TIP3   OH235251   2.762   4.986   0.880 -0.3558 -0.0617 -0.2786
 4539TIP3    H135252   2.817   4.970   0.957  1.6223  3.7836 -0.6123
 4539TIP3    H235253   2.803   4.936   0.810 -0.7053 -1.6577  0.6219
 4540TIP3   OH235254   3.752   2.194   4.313  0.5319  0.2064  0.2756
 4540TIP3    H135255   3.733   2.106   4.280  2.4192 -0.1006 -0.0879
 4540TIP3    H235256   3.762   2.182   4.408  0.7450  0.0418  0.2322
 4541TIP3   OH235257   0.082   2.818   3.165  0.2862  0.2406 -0.0147
 4541TIP3    H135258   0.070   2.913   3.172 -0.3463  0.1815 -0.1588
 4541TIP3    H235259   0.169   2.807   3.127 -0.1288  0.8122 -1.1805
 4542TIP3   OH235260   0.850   6.415   1.677  0.0069 -0.0433 -0.5727
 4542TIP3    H135261   0.873   6.381   1.591  0.2553  0.9213 -0.9070
 4542TIP3    H235262   0.760   6.445   1.669 -0.8745 -2.2900  0.2611
 4543TIP3   OH235263   3.037   1.395   2.903 -0.1360 -0.4888  0.0770
 4543TIP3    H135264   3.095   1.366   2.833 -1.3513  2.4372 -2.3764
 4543TIP3    H235265   3.056   1.488   2.913 -2.8117  0.0781  0.7303
 4544TIP3   OH235266   6.097   3.264   0.114  0.0059  0.3339 -0.3974
 4544TIP3    H135267   6.043   3.232   0.186  0.7989  2.1037  1.0631
 4544TIP3    H235268   6.058   3.226   0.035 -2.0162 -0.1573  0.7875
 4545TIP3   OH235269   5.591   5.980   4.966  0.0567  0.2899  0.3407
 4545TIP3    H135270   5.571   6.031   4.888 -2.8966  2.3602  2.2064
 4545TIP3    H235271   5.600   6.046   5.035  2.7481 -1.4317  1.7824
 4546TIP3   OH235272   6.558   5.179   1.702 -0.3950 -0.3745 -0.0806
 4546TIP3    H135273   6.496   5.113   1.671 -0.6317 -0.7094  1.0851
 4546TIP3    H235274   6.505   5.244   1.748 -0.2808  1.1607 -1.9818
 4547TIP3   OH235275   5.982   3.821   0.162  0.4207  0.1397 -0.3704
 4547TIP3    H135276   5.897   3.780   0.152  0.1389  0.7302 -0.4689
 4547TIP3    H235277   5.962   3.912   0.187  1.0039  0.5131 -1.2274
 4548TIP3   OH235278   4.718   5.523   0.531 -0.0607  0.6406  0.2492
 4548TIP3    H135279   4.653   5.490   0.593  1.0237 -0.3574  0.9057
 4548TIP3    H235280   4.687   5.609   0.506 -0.9907  0.6895  1.5001
 4549TIP3   OH235281   3.949   0.994   4.553  0.0138  0.0887  0.2882
 4549TIP3    H135282   4.025   1.009   4.496 -0.2438 -0.1672 -0.1380
 4549TIP3    H235283   3.877   1.039   4.509 -0.5359 -1.4123 -0.4581
 4550TIP3   OH235284   5.420   4.512   0.771  0.2134 -0.3154  0.5045
 4550TIP3    H135285   5.399   4.515   0.865 -1.9628 -1.6155  0.1318
 4550TIP3    H235286   5.413   4.419   0.749  0.0553  0.0510 -1.0685
 4551TIP3   OH235287   3.454   3.033   2.824 -0.0246  0.5311  0.1557
 4551TIP3    H135288   3.365   3.014   2.856 -0.1956  0.4396 -0.3771
 4551TIP3    H235289   3.468   2.972   2.752  0.1753  1.0776 -0.2760
 4552TIP3   OH235290   0.867   3.082   3.102 -0.0421  0.9193  0.0223
 4552TIP3    H135291   0.948   3.103   3.056 -0.9082  2.6348 -0.8122
 4552TIP3    H235292   0.888   3.095   3.195  0.6769  1.1946 -0.1710
 4553TIP3   OH235293   4.987   1.211   4.236 -0.3663  0.0433  0.4532
 4553TIP3    H135294   5.021   1.240   4.320  0.3729  3.2613 -0.8214
 4553TIP3    H235295   4.904   1.258   4.225  0.2809  0.9046 -1.1975
 4554TIP3   OH235296   3.950   2.819   3.403  0.9826  0.1053 -0.1494
 4554TIP3    H135297   3.947   2.902   3.356 -1.5572  1.3394  1.9031
 4554TIP3    H235298   3.882   2.766   3.360  0.1204  0.4631  0.7337
 4555TIP3   OH235299   6.424   0.515   3.137 -0.2276  0.1757  0.0418
 4555TIP3    H135300   6.508   0.554   3.113 -0.1215  0.5290  0.9775
 4555TIP3    H235301   6.364   0.589   3.148 -1.0761 -0.1229 -2.0315
 4556TIP3   OH235302   2.810   4.006   2.229  0.3056  0.2061  0.0762
 4556TIP3    H135303   2.893   4.015   2.182 -0.1327 -1.1357 -1.0334
 4556TIP3    H235304   2.830   3.947   2.301  0.2035 -0.6163 -0.5525
 4557TIP3   OH235305   4.648   6.649   1.519  0.5503  1.0445 -0.7112
 4557TIP3    H135306   4.649   6.677   1.610 -0.9814 -0.3604 -0.2015
 4557TIP3    H235307   4.693   6.564   1.520  1.9109  1.7195 -1.5702
 4558TIP3   OH235308   4.006   2.098   0.170  0.2303  0.4554 -0.4930
 4558TIP3    H135309   3.971   2.046   0.097  0.8278  1.7893 -1.7769
 4558TIP3    H235310   4.013   2.035   0.242 -0.2036 -0.9649 -1.6273
 4559TIP3   OH235311   4.900   3.784   0.885 -0.3525  0.1100 -0.0539
 4559TIP3    H135312   4.908   3.702   0.836 -0.4451 -1.1593  1.9787
 4559TIP3    H235313   4.982   3.830   0.869  0.9935 -1.7717  1.1759
 4560TIP3   OH235314   4.383   4.983   2.575  0.4409  0.3225 -0.6845
 4560TIP3    H135315   4.371   5.017   2.664 -0.5352 -2.5400  0.3926
 4560TIP3    H235316   4.478   4.982   2.563  0.6822 -0.6196  0.9669
 4561TIP3   OH235317   0.827   5.326   3.889 -0.3442 -0.3180  0.0571
 4561TIP3    H135318   0.809   5.292   3.801  1.3167  0.0153 -0.4446
 4561TIP3    H235319   0.795   5.417   3.886 -2.4785 -0.9951  0.6025
 4562TIP3   OH235320   0.445   2.381   3.275 -0.3410 -0.0222  0.3053
 4562TIP3    H135321   0.536   2.351   3.279 -0.8916 -1.9562 -0.5595
 4562TIP3    H235322   0.405   2.346   3.354 -0.8710 -1.2700 -0.4763
 4563TIP3   OH235323   4.957   3.089   3.075  0.5272  0.3889  0.5045
 4563TIP3    H135324   4.919   3.141   3.005 -1.1341  1.5577  2.1740
 4563TIP3    H235325   5.046   3.071   3.046  0.4527  2.3086 -1.1199
 4564TIP3   OH235326   1.782   2.110   3.101  0.6753  0.3853  0.0046
 4564TIP3    H135327   1.865   2.104   3.148  1.3550 -0.1386 -1.2485
 4564TIP3    H235328   1.783   2.038   3.039 -1.6996 -1.0385  1.4631
 4565TIP3   OH235329   5.619   1.013   4.601 -0.3140 -0.1564  0.3209
 4565TIP3    H135330   5.691   0.952   4.585  0.6586  0.9114  0.4219
 4565TIP3    H235331   5.608   1.060   4.517  1.5918  2.1652  1.2410
 4566TIP3   OH235332   4.545   4.680   1.262 -0.4771 -0.2078  0.2042
 4566TIP3    H135333   4.544   4.632   1.179 -1.3814  0.5094 -0.2212
 4566TIP3    H235334   4.603   4.754   1.247 -0.8344  0.0603  0.1163
 4567TIP3   OH235335   6.309   4.489   3.111 -0.4809 -0.0037 -0.6254
 4567TIP3    H135336   6.398   4.519   3.128 -1.0810  0.3922  2.4487
 4567TIP3    H235337   6.253   4.558   3.145 -2.0304 -0.1213 -2.7419
 4568TIP3   OH235338   3.362   3.895   2.214 -0.0605 -0.1521  0.6087
 4568TIP3    H135339   3.292   3.837   2.243  0.2578  0.0352  1.8157
 4568TIP3    H235340   3.406   3.847   2.144 -1.5775 -0.1379 -0.4008
 4569TIP3   OH235341   3.241   4.141   4.206 -0.3565  0.1921 -0.0438
 4569TIP3    H135342   3.239   4.230   4.172 -1.2463  0.1286 -0.1832
 4569TIP3    H235343   3.156   4.130   4.249 -1.1126 -1.2578 -1.7953
 4570TIP3   OH235344   1.972   0.503   0.295 -0.0761 -0.0177 -0.2281
 4570TIP3    H135345   1.938   0.476   0.209 -0.0721 -0.2517 -0.1577
 4570TIP3    H235346   2.025   0.580   0.276 -0.1413 -0.0185 -0.4257
 4571TIP3   OH235347   0.340   5.811   3.764 -0.1706  0.2502  0.0317
 4571TIP3    H135348   0.271   5.767   3.714  0.7755 -1.9287  0.5345
 4571TIP3    H235349   0.333   5.775   3.852  0.7764  1.0023  0.4363
 4572TIP3   OH235350   4.721   4.519   2.699  0.2182 -0.2469 -0.1157
 4572TIP3    H135351   4.633   4.483   2.693 -0.1883  0.1322  2.2786
 4572TIP3    H235352   4.708   4.613   2.712  1.1543  0.3700 -2.9597
 4573TIP3   OH235353   5.715   0.146   3.991 -0.1070  0.4413 -0.0446
 4573TIP3    H135354   5.763   0.077   3.945  0.6314  1.5415 -0.9959
 4573TIP3    H235355   5.657   0.183   3.925 -0.7532  0.5079  0.5484
 4574TIP3   OH235356   2.893   2.419   2.075 -0.1974 -0.5990 -0.0326
 4574TIP3    H135357   2.867   2.346   2.019  0.1961 -0.7324 -0.0454
 4574TIP3    H235358   2.897   2.382   2.163  0.5017 -0.7193 -0.1133
 4575TIP3   OH235359   2.645   1.349   8.548  0.7126 -0.1001 -0.0177
 4575TIP3    H135360   2.617   1.370   8.637  1.0165  0.1312  0.0257
 4575TIP3    H235361   2.731   1.390   8.540 -1.1290  3.9470 -1.9276
 4576TIP3   OH235362   3.269   0.307   3.782  0.3087 -0.1453 -0.2697
 4576TIP3    H135363   3.226   0.276   3.862  0.7108 -1.6625 -0.6159
 4576TIP3    H235364   3.356   0.269   3.785  0.4957  0.1797 -1.2122
 4577TIP3   OH235365   0.549   1.588   2.509 -0.2170 -0.3828  0.9461
 4577TIP3    H135366   0.633   1.547   2.487 -0.1364 -0.0631  0.6458
 4577TIP3    H235367   0.505   1.524   2.565  0.3782 -0.3960  1.4101
 4578TIP3   OH235368   0.749   1.948   3.319  0.4823  0.4682  0.3751
 4578TIP3    H135369   0.678   2.005   3.288 -0.0103 -0.1386  0.3795
 4578TIP3    H235370   0.821   1.965   3.259  0.5567  1.5482  0.7323
 4579TIP3   OH235371   4.945   1.345   2.363 -0.7714 -0.0231 -0.2118
 4579TIP3    H135372   4.916   1.342   2.272  0.5530 -0.5802 -0.6470
 4579TIP3    H235373   4.944   1.438   2.386 -0.9716  0.1320 -0.8396
 4580TIP3   OH235374   3.278   5.158   1.730 -0.3633 -0.1701  0.0997
 4580TIP3    H135375   3.288   5.129   1.821 -1.3180  0.3829  0.3910
 4580TIP3    H235376   3.345   5.225   1.718  2.8285 -3.2110 -0.9788
 4581TIP3   OH235377   2.986   3.953   2.862  0.1475 -0.1622  0.2422
 4581TIP3    H135378   3.079   3.975   2.860  0.1674  0.1307  2.1910
 4581TIP3    H235379   2.983   3.859   2.846  0.9102 -0.4122  1.4514
 4582TIP3   OH235380   5.766   3.059   0.569  1.1947 -0.0689  0.3608
 4582TIP3    H135381   5.742   3.085   0.480  1.9202 -1.6242 -0.3370
 4582TIP3    H235382   5.687   3.018   0.605  1.0794  0.0248  0.2158
 4583TIP3   OH235383   2.294   1.878   3.511 -0.2700  0.4338  0.1064
 4583TIP3    H135384   2.299   1.799   3.565  3.1968 -0.8331 -1.7153
 4583TIP3    H235385   2.354   1.939   3.553 -0.9605  1.1393  0.0802
 4584TIP3   OH235386   0.853   0.868   3.096 -0.1303 -0.0622  0.9297
 4584TIP3    H135387   0.790   0.940   3.085  1.3688  1.3320  1.0039
 4584TIP3    H235388   0.817   0.815   3.167 -1.4925  0.3532  0.5858
 4585TIP3   OH235389   5.233   3.957   3.207  0.2630 -0.3683 -0.4286
 4585TIP3    H135390   5.200   4.035   3.252 -0.4063 -0.5879 -0.5231
 4585TIP3    H235391   5.252   3.895   3.278 -1.2029 -0.8741 -0.4299
 4586TIP3   OH235392   3.924   1.312   4.625 -0.3990 -0.0484 -0.3754
 4586TIP3    H135393   3.845   1.257   4.625 -0.1796 -0.3854  0.6027
 4586TIP3    H235394   3.996   1.250   4.632 -0.0543  0.2759 -1.0067
 4587TIP3   OH235395   3.303   4.957   2.586  0.0079 -0.2276  0.2937
 4587TIP3    H135396   3.381   4.947   2.641  0.9125  1.0610 -0.6894
 4587TIP3    H235397   3.321   5.036   2.534 -1.6778 -0.2836 -0.4209
 4588TIP3   OH235398   4.746   2.261   3.217 -0.2040 -0.9336  0.7456
 4588TIP3    H135399   4.679   2.193   3.225 -1.1443 -0.2491 -0.8984
 4588TIP3    H235400   4.707   2.327   3.159  1.3482  0.1838  0.9046
 4589TIP3   OH235401   5.127   3.809   3.880  0.0023  0.1285 -0.1319
 4589TIP3    H135402   5.062   3.842   3.942  1.2835  0.5095  1.0598
 4589TIP3    H235403   5.195   3.772   3.935  1.5928  1.2347 -1.2773
 4590TIP3   OH235404   1.870   4.392   0.557 -0.2119 -0.1868 -0.8949
 4590TIP3    H135405   1.905   4.393   0.468 -0.3630 -1.6015 -0.9924
 4590TIP3    H235406   1.925   4.454   0.604  1.8976 -1.6421 -1.2735
 4591TIP3   OH235407   3.925   5.457   3.450 -0.1288  0.6293 -0.2282
 4591TIP3    H135408   3.852   5.474   3.390  0.3750 -3.6125 -2.4282
 4591TIP3    H235409   4.003   5.482   3.400  0.2126 -1.4892 -0.8288
 4592TIP3   OH235410   5.393   2.030   8.687  0.4400 -0.5827  0.0659
 4592TIP3    H135411   5.346   2.036   8.771 -0.4516  0.6710 -0.4987
 4592TIP3    H235412   5.344   1.964   8.638  0.1017 -0.2903  0.0048
 4593TIP3   OH235413   5.339   4.444   3.486 -0.0646 -0.6818  0.2141
 4593TIP3    H135414   5.266   4.468   3.429 -1.6918 -2.7051  1.3145
 4593TIP3    H235415   5.347   4.518   3.546 -0.4552  0.0523 -0.6137
 4594TIP3   OH235416   3.268   4.304   3.795  0.1803  0.0346  0.0286
 4594TIP3    H135417   3.330   4.255   3.849  0.5146 -0.7808 -1.0668
 4594TIP3    H235418   3.187   4.304   3.846 -0.2286 -2.8079 -0.4638
 4595TIP3   OH235419   4.529   2.121   2.812 -0.4938 -0.5341  0.0939
 4595TIP3    H135420   4.472   2.050   2.842  0.3979 -1.9606 -1.4348
 4595TIP3    H235421   4.603   2.077   2.770  0.7126  1.2957  0.1664
 4596TIP3   OH235422   3.870   1.782   3.750 -0.4106  0.2966 -0.1989
 4596TIP3    H135423   3.870   1.797   3.844 -1.1096  0.8942 -0.2868
 4596TIP3    H235424   3.950   1.732   3.734  0.8002  1.9150  0.4583
 4597TIP3   OH235425   0.833   4.830   4.492  0.7932 -0.0375  0.2433
 4597TIP3    H135426   0.796   4.913   4.460  0.4784 -0.8547 -1.6620
 4597TIP3    H235427   0.921   4.827   4.454  0.2676 -1.2140 -0.9735
 4598TIP3   OH235428   4.295   2.862   0.691 -0.2449 -0.0174  0.2796
 4598TIP3    H135429   4.325   2.850   0.781  1.3661  2.0396  0.0710
 4598TIP3    H235430   4.220   2.922   0.699 -0.7311 -0.6100  0.2971
 4599TIP3   OH235431   3.847   3.703   2.069  0.5436 -0.1962  0.0628
 4599TIP3    H135432   3.763   3.748   2.062 -0.4274 -2.1753 -2.4467
 4599TIP3    H235433   3.908   3.756   2.019  0.2524  0.1307  0.0562
 4600TIP3   OH235434   3.834   1.282   3.789  0.2442 -0.0248  0.0321
 4600TIP3    H135435   3.905   1.241   3.838 -0.4700 -0.1126  1.0074
 4600TIP3    H235436   3.781   1.210   3.756  0.4729  0.0474 -0.5073
 4601TIP3   OH235437   3.867   3.769   3.527  0.6899 -0.1263 -0.7002
 4601TIP3    H135438   3.841   3.679   3.546 -0.6514  0.2445 -0.7182
 4601TIP3    H235439   3.902   3.766   3.438  2.8901 -1.0484  0.1183
 4602TIP3   OH235440   4.794   2.664   3.733 -0.0003 -0.1744 -0.1713
 4602TIP3    H135441   4.775   2.579   3.771  0.0881 -1.2375 -2.3455
 4602TIP3    H235442   4.778   2.727   3.804  0.0689 -1.9869  1.5141
 4603TIP3   OH235443   4.227   1.267   1.272 -0.4347  0.1728  0.2011
 4603TIP3    H135444   4.180   1.185   1.259 -1.3444  0.7843 -0.4722
 4603TIP3    H235445   4.257   1.291   1.185  2.9866 -1.2296  0.8269
 4604TIP3   OH235446   2.602   1.839   5.031  0.6150 -0.1753  0.4144
 4604TIP3    H135447   2.656   1.760   5.035  1.4145  0.4074  1.3633
 4604TIP3    H235448   2.530   1.821   5.092  1.9095  0.6052  2.2810
 4605TIP3   OH235449   4.021   0.122   8.861 -0.3853  0.0659  0.2051
 4605TIP3    H135450   4.029   0.188   8.792  0.3363  0.2036  0.4143
 4605TIP3    H235451   4.035   0.038   8.815  1.4122  0.2278  0.3676
 4606TIP3   OH235452   3.985   1.834   1.720 -0.0972  0.1613 -0.1280
 4606TIP3    H135453   4.032   1.754   1.696  1.1665  1.0398 -0.7016
 4606TIP3    H235454   4.049   1.904   1.709 -1.4665  1.3958 -0.6679
 4607TIP3   OH235455   1.313   0.701   2.815  0.4756 -0.0954  0.1008
 4607TIP3    H135456   1.220   0.723   2.825  0.5291 -0.0968  0.5915
 4607TIP3    H235457   1.316   0.606   2.826  0.3659 -0.2651 -1.1633
 4608TIP3   OH235458   5.773   0.269   0.711  0.0060  0.3754 -0.4478
 4608TIP3    H135459   5.691   0.304   0.676  0.1405 -0.4140 -1.6011
 4608TIP3    H235460   5.748   0.223   0.791 -0.5811  0.6359 -0.4790
 4609TIP3   OH235461   3.410   3.360   2.957 -0.6100  0.1287 -0.0235
 4609TIP3    H135462   3.380   3.273   2.981  0.1163 -0.2686 -0.5049
 4609TIP3    H235463   3.436   3.352   2.865  1.7588  0.1851  0.5654
 4610TIP3   OH235464   5.489   2.850   1.908 -0.0463  0.1703  0.1083
 4610TIP3    H135465   5.566   2.902   1.930  1.3372 -2.5345  2.2115
 4610TIP3    H235466   5.504   2.823   1.817  1.3006  0.0178  0.3544
 4611TIP3   OH235467   4.814   0.313   4.224 -0.0249  0.1448  0.5408
 4611TIP3    H135468   4.856   0.236   4.262 -0.0384  0.4628  1.2059
 4611TIP3    H235469   4.724   0.310   4.255 -0.8472 -1.0992 -1.7074
 4612TIP3   OH235470   5.427   1.116   3.919 -0.0681 -0.1008 -0.3569
 4612TIP3    H135471   5.411   1.205   3.887  1.5897  0.5666  0.5413
 4612TIP3    H235472   5.434   1.063   3.840  1.1622  0.9957 -1.0210
 4613TIP3   OH235473   5.492   6.404   3.431  0.5755 -0.1210 -0.0848
 4613TIP3    H135474   5.449   6.364   3.507  0.8162 -0.8461 -0.3178
 4613TIP3    H235475   5.442   6.484   3.414  1.0818  0.5537  1.4076
 4614TIP3   OH235476   1.927   0.277   3.521 -0.0189  0.3595 -0.0791
 4614TIP3    H135477   2.001   0.302   3.465 -0.0576  0.3514 -0.1345
 4614TIP3    H235478   1.954   0.194   3.560 -0.6289 -0.4580 -1.3212
 4615TIP3   OH235479   6.736   0.234   1.551  0.0845 -0.1153 -0.1602
 4615TIP3    H135480   6.642   0.219   1.548 -0.0647 -0.1164  2.2613
 4615TIP3    H235481   6.746   0.329   1.549 -0.1653 -0.0114  1.5931
 4616TIP3   OH235482   0.192   3.370   2.260 -0.3697  0.2542 -0.4117
 4616TIP3    H135483   0.203   3.456   2.301 -0.0067  0.0426 -0.0484
 4616TIP3    H235484   0.162   3.313   2.331  0.0009 -0.0578 -0.4992
 4617TIP3   OH235485   3.260   3.998   0.856  0.7294  0.2995 -0.4298
 4617TIP3    H135486   3.240   3.944   0.780 -0.4242 -0.8647  0.6482
 4617TIP3    H235487   3.298   3.937   0.920  2.2256  1.3607 -0.2539
 4618TIP3   OH235488   1.554   2.771   1.969  0.0238 -0.1233  0.0935
 4618TIP3    H135489   1.600   2.777   1.885  0.0669 -3.1734 -0.1928
 4618TIP3    H235490   1.476   2.825   1.957 -0.1210 -0.7032 -2.0038
 4619TIP3   OH235491   3.574   6.244   3.773 -0.1871 -0.1413  0.0135
 4619TIP3    H135492   3.519   6.285   3.706  1.0345  0.9399 -0.3717
 4619TIP3    H235493   3.659   6.233   3.730  0.0546 -1.3105  0.7492
 4620TIP3   OH235494   4.797   5.009   2.908  0.7385  0.6345  0.2082
 4620TIP3    H135495   4.792   5.105   2.910  0.1668  0.6249 -0.5414
 4620TIP3    H235496   4.877   4.991   2.858 -0.1116  0.7208 -1.2132
 4621TIP3   OH235497   5.815   2.355   0.923  0.2387  0.0488 -0.1552
 4621TIP3    H135498   5.816   2.336   0.829 -0.5683 -0.3365 -0.0959
 4621TIP3    H235499   5.730   2.322   0.953  0.4792  0.1925  0.7056
 4622TIP3   OH235500   3.246   0.290   1.591  0.4734  0.4407  0.6656
 4622TIP3    H135501   3.176   0.306   1.655  0.9117  1.3596  0.9382
 4622TIP3    H235502   3.204   0.300   1.506  0.3055  1.2116  0.8290
 4623TIP3   OH235503   3.986   4.571   1.945 -0.3434  0.1793 -0.1665
 4623TIP3    H135504   3.923   4.596   2.012  0.4791  2.1069 -0.0546
 4623TIP3    H235505   4.049   4.643   1.942  2.0122 -1.7352 -0.1276
 4624TIP3   OH235506   0.305   1.330   0.244 -0.0473 -0.1350 -0.2141
 4624TIP3    H135507   0.221   1.369   0.217 -1.9169 -1.6818  2.8530
 4624TIP3    H235508   0.292   1.236   0.231  1.6842 -0.3245 -0.7362
 4625TIP3   OH235509   5.087   6.368   2.125  0.1449 -0.0814 -0.9977
 4625TIP3    H135510   5.036   6.427   2.070  0.0352  0.1377 -0.6669
 4625TIP3    H235511   5.044   6.373   2.211  1.2306  0.7741 -0.4832
 4626TIP3   OH235512   6.534   6.252   3.006  0.5025 -0.2356 -0.0708
 4626TIP3    H135513   6.459   6.285   2.957  0.9519 -0.2543 -0.7867
 4626TIP3    H235514   6.567   6.180   2.953  0.9767 -0.2832  0.2822
 4627TIP3   OH235515   5.070   6.641   1.387  0.6218  0.2715  0.3122
 4627TIP3    H135516   4.988   6.664   1.431  0.2883 -0.4600  0.0919
 4627TIP3    H235517   5.060   6.676   1.298  0.4467 -0.0246  0.2141
 4628TIP3   OH235518   6.192   3.992   2.580 -0.4130  0.3910 -0.4121
 4628TIP3    H135519   6.181   4.034   2.665 -2.1388  3.0192 -1.8011
 4628TIP3    H235520   6.237   4.058   2.526 -0.3777 -0.7591 -1.8619
 4629TIP3   OH235521   5.851   1.071   4.168  0.2682  0.0805 -0.3950
 4629TIP3    H135522   5.885   1.133   4.233  0.8109  0.5359 -1.0948
 4629TIP3    H235523   5.783   1.120   4.122 -0.1894 -0.2754 -0.1002
 4630TIP3   OH235524   6.373   1.942   4.263 -0.5011  0.1726 -0.5652
 4630TIP3    H135525   6.333   1.862   4.298  0.7405 -0.2118  0.0404
 4630TIP3    H235526   6.358   2.007   4.332 -0.2189  0.0726 -0.4101
 4631TIP3   OH235527   0.007   1.894   0.780 -0.2529 -0.3799 -0.7352
 4631TIP3    H135528   0.085   1.940   0.748  0.1321 -1.5780 -1.6008
 4631TIP3    H235529  -0.067   1.939   0.738 -0.2565  2.0496  1.6281
 4632TIP3   OH235530   1.742   1.841   1.171 -0.1187 -0.3693 -0.2799
 4632TIP3    H135531   1.752   1.748   1.192  2.3748 -0.2461 -0.5514
 4632TIP3    H235532   1.648   1.854   1.165 -0.5938 -2.5988  0.9514
 4633TIP3   OH235533   6.723   4.202   4.925  0.0082 -0.2538 -0.3582
 4633TIP3    H135534   6.761   4.127   4.878 -1.5809 -1.2714 -0.1067
 4633TIP3    H235535   6.791   4.269   4.922  1.6674 -1.8465 -0.2077
 4634TIP3   OH235536   5.223   3.465   3.857 -0.9112 -0.2561 -0.3263
 4634TIP3    H135537   5.208   3.379   3.897  0.1698  0.4432  1.6975
 4634TIP3    H235538   5.143   3.514   3.877 -0.2935  0.1623  1.3118
 4635TIP3   OH235539   0.717   0.754   0.357 -0.0431  0.6771  0.0946
 4635TIP3    H135540   0.768   0.747   0.438  1.4650  0.1987 -0.8595
 4635TIP3    H235541   0.778   0.793   0.294  0.4239 -3.1138 -2.0598
 4636TIP3   OH235542   2.275   4.442   1.631  0.3537 -0.0252  0.3848
 4636TIP3    H135543   2.190   4.445   1.588  0.4267  0.3507  0.2665
 4636TIP3    H235544   2.336   4.415   1.562  0.3238 -0.3413  0.4811
 4637TIP3   OH235545   6.327   3.954   1.276 -0.1672 -0.4949  0.0390
 4637TIP3    H135546   6.421   3.937   1.267  0.1057  0.6259  0.5849
 4637TIP3    H235547   6.290   3.925   1.193  0.2614 -3.3980  0.7641
 4638TIP3   OH235548   0.964   0.420   1.969  0.4330 -0.3324  0.0183
 4638TIP3    H135549   0.964   0.326   1.987 -1.1468 -0.6910 -1.4390
 4638TIP3    H235550   0.959   0.462   2.054  2.6279 -1.4937  0.7747
 4639TIP3   OH235551   3.927   2.587   1.074 -0.4214  0.6379 -0.1335
 4639TIP3    H135552   3.966   2.573   0.987  1.0551 -0.4732  0.6639
 4639TIP3    H235553   3.871   2.664   1.063  1.2580  1.7285 -1.6095
 4640TIP3   OH235554   5.349   6.232   1.532  0.4140  1.0311 -0.7044
 4640TIP3    H135555   5.362   6.140   1.509 -2.3286 -0.3209  2.1985
 4640TIP3    H235556   5.370   6.236   1.626 -0.0090  3.2337 -0.6516
 4641TIP3   OH235557   5.776   0.577   1.379 -0.6151 -0.0403  0.0704
 4641TIP3    H135558   5.693   0.596   1.335 -0.4023  0.2848 -0.1984
 4641TIP3    H235559   5.837   0.641   1.343  0.0262 -0.9679 -0.5327
 4642TIP3   OH235560   0.651   1.797   3.116 -0.4559 -0.1764 -0.2820
 4642TIP3    H135561   0.577   1.848   3.150 -0.4913  0.2000 -0.9093
 4642TIP3    H235562   0.705   1.862   3.070  0.1009 -0.5067 -0.1085
 4643TIP3   OH235563   3.440   5.920   3.500  0.2463 -0.2575  0.3028
 4643TIP3    H135564   3.366   5.891   3.552 -0.9590  0.6436 -0.8280
 4643TIP3    H235565   3.451   5.852   3.433 -0.2777  0.1012 -0.1682
 4644TIP3   OH235566   2.710   3.107   0.811 -0.1137 -0.1723  0.1599
 4644TIP3    H135567   2.707   3.162   0.889 -0.9971  1.6077 -1.0635
 4644TIP3    H235568   2.701   3.168   0.738  2.6764 -1.5077 -1.4888
 4645TIP3   OH235569   6.512   1.331   3.725  0.9171 -0.6816  0.1864
 4645TIP3    H135570   6.538   1.327   3.633  0.7549 -1.1690  0.1626
 4645TIP3    H235571   6.426   1.374   3.723  0.7485 -1.0217  0.0781
 4646TIP3   OH235572   1.313   6.127   4.073 -0.3641 -0.1970  0.3007
 4646TIP3    H135573   1.276   6.119   4.161  1.8549  0.1625  1.3169
 4646TIP3    H235574   1.396   6.172   4.085  0.5845 -1.2145 -1.8415
 4647TIP3   OH235575   3.858   4.213   3.401  0.4675 -0.2909  0.1955
 4647TIP3    H135576   3.909   4.268   3.342  1.2387 -0.9470  0.2250
 4647TIP3    H235577   3.801   4.162   3.343  0.7389 -0.4487  0.0673
 4648TIP3   OH235578   2.449   5.949   1.575  0.4776  0.8914  0.2465
 4648TIP3    H135579   2.426   5.945   1.482  0.7329 -0.2383  0.2213
 4648TIP3    H235580   2.381   6.004   1.613 -1.7156 -1.4229 -0.0402
 4649TIP3   OH235581   2.592   0.710   2.561  0.6644  0.7769  0.2481
 4649TIP3    H135582   2.592   0.738   2.470  1.3428  1.7693  0.5381
 4649TIP3    H235583   2.519   0.649   2.568  0.4443  0.8998 -0.8899
 4650TIP3   OH235584   5.865   2.299   4.783 -0.6772  0.7738  0.9171
 4650TIP3    H135585   5.942   2.245   4.801 -0.3846  1.0541  0.5152
 4650TIP3    H235586   5.805   2.240   4.737 -0.7361  0.5359  1.2936
 4651TIP3   OH235587   3.366   4.047   4.436 -0.4885 -0.6974 -0.3244
 4651TIP3    H135588   3.448   4.096   4.433  0.9380 -2.9343 -0.0745
 4651TIP3    H235589   3.310   4.090   4.372  0.8791  0.8874 -0.5154
 4652TIP3   OH235590   1.583   6.499   3.963  0.2474 -0.3226  0.5296
 4652TIP3    H135591   1.578   6.576   4.019  0.8129  1.0490 -1.2074
 4652TIP3    H235592   1.516   6.513   3.897 -0.5783 -2.0238  0.9452
 4653TIP3   OH235593   5.416   6.600   0.132  0.0654 -0.1826  0.2684
 4653TIP3    H135594   5.498   6.581   0.177 -0.3033  0.1693  1.1246
 4653TIP3    H235595   5.406   6.695   0.138  0.5397  0.0083 -1.5482
 4654TIP3   OH235596   6.433   1.326   2.839  0.5135  0.0808  0.0756
 4654TIP3    H135597   6.421   1.376   2.920 -2.1887 -0.0119 -0.1626
 4654TIP3    H235598   6.479   1.247   2.867 -0.7406 -0.1489  1.6350
 4655TIP3   OH235599   1.681   5.880   1.597 -0.1993 -0.0406  0.3741
 4655TIP3    H135600   1.736   5.889   1.675  1.0545  1.6998 -0.6503
 4655TIP3    H235601   1.592   5.868   1.632  0.4374 -0.1657  2.0523
 4656TIP3   OH235602   0.135   2.209   2.193 -0.6367 -0.1034 -0.0575
 4656TIP3    H135603   0.122   2.290   2.146 -0.3011 -0.4780 -0.8116
 4656TIP3    H235604   0.212   2.225   2.248 -0.1216 -0.1435 -0.7538
 4657TIP3   OH235605   2.317   1.078   3.562  0.2764 -0.0516  0.4837
 4657TIP3    H135606   2.351   0.990   3.544 -0.4029 -0.3943  0.8799
 4657TIP3    H235607   2.227   1.076   3.531 -0.2743 -0.0176  2.0401
 4658TIP3   OH235608   0.560   4.107   3.292 -0.7721 -0.3720  0.0639
 4658TIP3    H135609   0.484   4.160   3.318 -0.9133 -1.7506  2.9356
 4658TIP3    H235610   0.629   4.134   3.352  0.0642 -1.2964 -0.4492
 4659TIP3   OH235611   6.389   5.094   2.330 -0.2752  0.0618 -0.3032
 4659TIP3    H135612   6.421   5.047   2.407 -1.4925 -0.1969  0.0785
 4659TIP3    H235613   6.294   5.091   2.339 -0.4583 -0.2413 -1.9867
 4660TIP3   OH235614   3.289   3.748   2.968  0.0222  1.0136 -0.0120
 4660TIP3    H135615   3.330   3.752   2.882  1.4284  0.3491  0.6031
 4660TIP3    H235616   3.269   3.656   2.981  0.0843  1.0679  0.4944
 4661TIP3   OH235617   4.144   0.289   2.515 -0.2982 -0.3825 -0.5170
 4661TIP3    H135618   4.220   0.341   2.490 -0.4086  0.3362  0.5356
 4661TIP3    H235619   4.148   0.286   2.611 -1.2132 -0.9152 -0.4795
 4662TIP3   OH235620   6.157   2.353   4.651 -0.2895 -0.0376 -0.5932
 4662TIP3    H135621   6.251   2.365   4.661 -0.3375 -0.7854  1.1455
 4662TIP3    H235622   6.147   2.261   4.626 -0.4731  0.6392 -3.3557
 4663TIP3   OH235623   4.259   4.025   4.954 -0.4564 -0.1207  0.0674
 4663TIP3    H135624   4.349   4.052   4.972 -0.6074  0.2606  0.2671
 4663TIP3    H235625   4.208   4.106   4.957 -0.9335 -0.4341  0.7964
 4664TIP3   OH235626   0.748   5.379   0.423 -0.4551 -0.1635 -0.3474
 4664TIP3    H135627   0.694   5.335   0.358 -0.5488  0.6491 -0.8409
 4664TIP3    H235628   0.792   5.449   0.374 -0.2246  0.2136  0.3818
 4665TIP3   OH235629   0.242   1.761   2.701  0.1707  0.2064 -0.3576
 4665TIP3    H135630   0.261   1.788   2.611  0.7723 -1.4054 -0.7356
 4665TIP3    H235631   0.182   1.688   2.692 -0.1928  0.3772  0.5852
 4666TIP3   OH235632   2.977   5.671   4.184  0.0444  0.0363 -1.0846
 4666TIP3    H135633   3.040   5.607   4.216 -0.3325 -0.4712 -1.3542
 4666TIP3    H235634   3.003   5.686   4.092  0.1796  0.3348 -1.0010
 4667TIP3   OH235635   0.956   3.156   1.216  0.3570  0.0443 -0.2770
 4667TIP3    H135636   0.884   3.121   1.164  0.1373  1.8270 -1.2418
 4667TIP3    H235637   1.002   3.215   1.157  1.3103  0.6100  0.9845
 4668TIP3   OH235638   4.676   5.167   1.228 -0.4055  0.3815 -0.2342
 4668TIP3    H135639   4.731   5.173   1.150  1.4889 -0.6130  0.9799
 4668TIP3    H235640   4.634   5.081   1.222 -0.2058  0.2767 -0.1134
 4669TIP3   OH235641   3.117   1.455   3.480 -0.4281 -0.3264 -0.1913
 4669TIP3    H135642   3.093   1.440   3.571 -1.0580 -0.6090 -0.3936
 4669TIP3    H235643   3.212   1.461   3.480 -0.2659 -2.3635  0.1893
 4670TIP3   OH235644   4.476   5.984   3.734 -0.0580  0.5886  0.1385
 4670TIP3    H135645   4.496   5.925   3.662  0.1595  1.7477 -0.7869
 4670TIP3    H235646   4.423   6.054   3.694 -1.6333  0.2382  1.5068
 4671TIP3   OH235647   0.919   4.424   1.674 -0.1125  0.1684 -0.0392
 4671TIP3    H135648   0.901   4.447   1.583  0.0072 -1.2551 -0.4537
 4671TIP3    H235649   0.861   4.480   1.725 -4.3208 -2.6396 -1.1894
 4672TIP3   OH235650   0.911   1.074   0.627 -0.0536  0.3580  0.5464
 4672TIP3    H135651   0.841   1.097   0.688  0.0978  0.7960  0.5601
 4672TIP3    H235652   0.974   1.146   0.635  0.7188 -0.3458  1.0292
 4673TIP3   OH235653   6.756   1.648   4.440  0.2283  0.1348 -0.0695
 4673TIP3    H135654   6.745   1.743   4.437 -0.1244  0.0922 -0.1187
 4673TIP3    H235655   6.826   1.630   4.377 -0.3933  0.2639 -0.8201
 4674TIP3   OH235656   5.366   5.328   4.400 -0.0329 -0.3021  0.0515
 4674TIP3    H135657   5.340   5.314   4.309 -0.4477 -0.0776  0.1344
 4674TIP3    H235658   5.388   5.240   4.432 -1.1511 -0.5709  0.1198
 4675TIP3   OH235659   6.182   4.521   3.687  0.1170  0.3956 -0.5301
 4675TIP3    H135660   6.111   4.577   3.718 -0.4765 -1.2975  1.4270
 4675TIP3    H235661   6.144   4.473   3.613  0.1391  1.4168 -1.2248
 4676TIP3   OH235662   0.352   1.217   1.088  0.0230 -0.4289 -0.3154
 4676TIP3    H135663   0.411   1.142   1.082 -0.0241 -0.3477 -2.3329
 4676TIP3    H235664   0.277   1.193   1.034  0.1704  1.1992 -1.3038
 4677TIP3   OH235665   0.231   3.585   4.691  0.4254 -0.0440 -0.6277
 4677TIP3    H135666   0.203   3.657   4.636 -0.3528 -0.4477 -0.7711
 4677TIP3    H235667   0.195   3.605   4.777 -1.1203 -1.0014 -1.0107
 4678TIP3   OH235668   5.262   2.885   3.976  0.4729 -0.2044  0.0732
 4678TIP3    H135669   5.294   2.843   3.896  2.0022  0.9038  0.0509
 4678TIP3    H235670   5.325   2.859   4.043  1.4001  1.8569  0.0836
 4679TIP3   OH235671   6.671   5.735   3.641 -0.6463 -0.2548 -0.1261
 4679TIP3    H135672   6.719   5.776   3.713  0.0993 -1.5071  0.1128
 4679TIP3    H235673   6.591   5.787   3.634 -0.4528  0.2707  1.1958
 4680TIP3   OH235674   6.088   2.370   0.993  0.2202  0.3231  0.6742
 4680TIP3    H135675   6.101   2.411   1.079  1.9075  1.1416  0.0843
 4680TIP3    H235676   5.993   2.369   0.980  0.0064  1.4283  1.9550
 4681TIP3   OH235677   4.440   5.915   0.980  0.2701 -0.1408  0.2685
 4681TIP3    H135678   4.414   5.972   0.907  0.4560  1.5489  1.4542
 4681TIP3    H235679   4.374   5.931   1.047  0.4019 -1.2621  0.6766
 4682TIP3   OH235680   6.742   0.102   2.538  0.2676  0.3818 -0.1857
 4682TIP3    H135681   6.832   0.135   2.535  0.8853 -0.8230  2.6419
 4682TIP3    H235682   6.730   0.060   2.452  2.0580  1.3401 -0.9663
 4683TIP3   OH235683   5.797   6.283   3.472  0.4860 -0.3836  0.6955
 4683TIP3    H135684   5.787   6.353   3.408  1.5780 -1.2168 -0.4463
 4683TIP3    H235685   5.745   6.211   3.437 -0.1282 -0.3575  1.5352
 4684TIP3   OH235686   5.588   2.151   8.562 -0.5552 -0.2052  0.7436
 4684TIP3    H135687   5.651   2.086   8.534  0.4926  0.7041  0.9008
 4684TIP3    H235688   5.528   2.104   8.620  0.5807 -0.8870  1.3897
 4685TIP3   OH235689   6.750   1.255   3.848 -0.1026 -0.1340  0.0098
 4685TIP3    H135690   6.670   1.270   3.797  0.0057  0.5599  0.0226
 4685TIP3    H235691   6.723   1.272   3.939  0.3223  1.2935 -0.1051
 4686TIP3   OH235692   3.874   1.860   2.110  0.9737  0.0945 -0.6318
 4686TIP3    H135693   3.837   1.872   2.198  2.4308  1.3616 -0.1502
 4686TIP3    H235694   3.921   1.777   2.115 -0.8633 -1.0062 -0.9408
 4687TIP3   OH235695   6.140   0.563   3.627  0.2379 -0.2497  0.3643
 4687TIP3    H135696   6.223   0.606   3.606  0.8238 -1.6847 -0.3729
 4687TIP3    H235697   6.158   0.513   3.707 -0.0674 -0.2017  0.4661
 4688TIP3   OH235698   5.484   1.031   3.653  0.4829 -0.7030 -0.2660
 4688TIP3    H135699   5.417   1.083   3.609 -0.5784 -3.0808 -1.6541
 4688TIP3    H235700   5.525   0.980   3.583  1.1482 -2.0463  1.0370
 4689TIP3   OH235701   4.462   5.598   2.599  0.4900  0.4727  0.4239
 4689TIP3    H135702   4.520   5.548   2.656 -1.0077 -0.7181  0.9845
 4689TIP3    H235703   4.497   5.585   2.511  0.1164 -1.6967  0.5366
 4690TIP3   OH235704   0.199   3.466   8.740  0.0585 -0.3283 -0.1603
 4690TIP3    H135705   0.258   3.394   8.763 -0.0212 -0.5687 -0.6883
 4690TIP3    H235706   0.111   3.428   8.744  0.1272 -0.9784 -2.8203
 4691TIP3   OH235707   6.348   1.691   3.040  0.9477 -0.2120  0.3372
 4691TIP3    H135708   6.328   1.623   2.976  1.2408  0.7485 -0.8032
 4691TIP3    H235709   6.409   1.649   3.101  1.0822 -0.9811 -0.3101
 4692TIP3   OH235710   5.886   2.555   5.389  0.1126 -0.0975  0.0601
 4692TIP3    H135711   5.920   2.632   5.344  0.1029 -0.4354 -0.5304
 4692TIP3    H235712   5.861   2.495   5.319 -1.6063  0.0844  0.4571
 4693TIP3   OH235713   4.860   5.937   3.145  0.0585 -0.2379  0.6432
 4693TIP3    H135714   4.887   5.859   3.097  0.4459  0.0104  0.4518
 4693TIP3    H235715   4.907   5.932   3.228  1.3223  0.5764  0.0140
 4694TIP3   OH235716   6.205   3.922   1.550  0.2589 -0.1809  0.0993
 4694TIP3    H135717   6.191   3.828   1.566  0.4676 -0.2045  0.1396
 4694TIP3    H235718   6.242   3.926   1.462 -0.7269 -0.0630 -0.3290
 4695TIP3   OH235719   2.301   3.958   1.846 -0.1825  0.6838  0.3248
 4695TIP3    H135720   2.362   3.887   1.823 -1.2767 -0.2626  0.2417
 4695TIP3    H235721   2.354   4.038   1.842  1.1675 -0.1548  0.7296
 4696TIP3   OH235722   3.684   2.636   8.239 -0.0537  0.1678  0.8352
 4696TIP3    H135723   3.746   2.607   8.173 -0.8477 -0.8257  0.4877
 4696TIP3    H235724   3.689   2.569   8.307 -1.8076 -0.7831  0.0966
 4697TIP3   OH235725   0.485   0.136   3.722 -0.4735 -0.3224  0.0083
 4697TIP3    H135726   0.513   0.045   3.727  0.5578  0.0008  0.4108
 4697TIP3    H235727   0.424   0.139   3.649 -1.3141 -1.5328  0.6320
 4698TIP3   OH235728   4.799   1.860   0.725 -0.3226  0.6853 -0.5428
 4698TIP3    H135729   4.812   1.934   0.784  1.5867 -0.7332  0.9583
 4698TIP3    H235730   4.872   1.865   0.664 -0.9578  0.7797 -1.3160
 4699TIP3   OH235731   4.636   5.008   2.497  0.4620  0.8302  0.0560
 4699TIP3    H135732   4.705   4.953   2.462  0.3607  0.3421  0.6152
 4699TIP3    H235733   4.603   5.056   2.421  0.8143  0.4104 -0.3669
 4700TIP3   OH235734   6.604   1.458   1.234 -0.1622 -0.1152 -0.0918
 4700TIP3    H135735   6.655   1.486   1.310 -0.6364 -0.7810  0.4857
 4700TIP3    H235736   6.565   1.538   1.200 -1.0000  0.0442  1.1614
 4701TIP3   OH235737   1.885   1.781   0.028  0.2659 -0.4402  0.4235
 4701TIP3    H135738   1.859   1.717  -0.039 -0.7145 -0.1938  0.5502
 4701TIP3    H235739   1.804   1.825   0.051  1.1115  1.9570 -0.7740
 4702TIP3   OH235740   0.073   3.700   0.419  0.3851  0.3270 -0.1036
 4702TIP3    H135741   0.132   3.761   0.375 -0.1559  0.8823 -0.0817
 4702TIP3    H235742  -0.004   3.753   0.441 -1.0014 -0.8160 -1.9280
 4703TIP3   OH235743   2.522   0.322   2.181 -0.8585  0.2327  0.4002
 4703TIP3    H135744   2.427   0.306   2.173 -1.1154  1.0919  1.5035
 4703TIP3    H235745   2.538   0.395   2.121 -1.1247  0.8522  1.0682
 4704TIP3   OH235746   5.129   3.714   2.920  0.0385 -0.0520 -0.2987
 4704TIP3    H135747   5.083   3.698   3.003 -0.4581 -3.1884 -1.0269
 4704TIP3    H235748   5.088   3.792   2.885 -0.9274  0.3800  1.6187
 4705TIP3   OH235749   3.950   3.479   0.065  0.3479  0.1295 -0.1809
 4705TIP3    H135750   4.014   3.500   0.134 -0.8782  1.5962  0.5602
 4705TIP3    H235751   3.877   3.438   0.112 -1.0129  2.2074 -0.3972
 4706TIP3   OH235752   3.891   2.600   4.541  0.2052 -0.0747  0.3839
 4706TIP3    H135753   3.842   2.659   4.597 -1.1738 -0.7841 -0.0280
 4706TIP3    H235754   3.982   2.608   4.570 -0.1033  1.4707  0.9915
 4707TIP3   OH235755   5.232   3.506   3.201 -0.2428  0.6653  0.2283
 4707TIP3    H135756   5.184   3.579   3.239  1.0212  0.7842  1.7023
 4707TIP3    H235757   5.322   3.538   3.195  0.9302 -1.5465  3.3868
 4708TIP3   OH235758   1.250   1.166   0.670 -0.8388 -0.1906 -0.0343
 4708TIP3    H135759   1.319   1.166   0.736  0.5275 -1.7587 -1.3596
 4708TIP3    H235760   1.188   1.234   0.699  0.2637 -0.0580  2.2073
 4709TIP3   OH235761   6.379   0.257   1.274 -0.1116  0.5543 -0.3789
 4709TIP3    H135762   6.320   0.186   1.250  0.1918 -0.2592  1.2043
 4709TIP3    H235763   6.415   0.232   1.358 -1.0725  3.2108  0.9561
 4710TIP3   OH235764   0.418   6.083   3.793  0.1598 -1.2682 -0.3214
 4710TIP3    H135765   0.428   5.988   3.802  1.4568 -0.9273  3.1470
 4710TIP3    H235766   0.412   6.116   3.882  1.5288  2.0905 -1.2877
 4711TIP3   OH235767   4.223   4.252   0.784 -0.5206 -0.6956 -0.0237
 4711TIP3    H135768   4.205   4.184   0.850  0.1881 -0.7715  0.0974
 4711TIP3    H235769   4.142   4.259   0.734 -2.1200  1.3698  2.6147
 4712TIP3   OH235770   1.018   5.858   0.961 -0.3345  0.1396  0.0222
 4712TIP3    H135771   1.035   5.952   0.964 -2.0894  0.4847 -0.1279
 4712TIP3    H235772   1.105   5.819   0.947  0.4446  1.7062  0.2441
 4713TIP3   OH235773   6.529   6.633   1.346  0.5909  0.1159 -0.1339
 4713TIP3    H135774   6.477   6.690   1.402  1.5119  0.1316  0.7205
 4713TIP3    H235775   6.583   6.582   1.406  0.0357 -1.4351 -0.8834
 4714TIP3   OH235776   0.120   4.811   3.505  0.2107  0.0362 -0.6938
 4714TIP3    H135777   0.182   4.859   3.450  0.9083 -0.1346 -0.0748
 4714TIP3    H235778   0.062   4.879   3.540 -0.8596  0.0465 -2.3720
 4715TIP3   OH235779   1.161   5.258   0.183 -0.1034  0.2517 -0.1919
 4715TIP3    H135780   1.204   5.180   0.148 -1.1794  0.2687 -1.6338
 4715TIP3    H235781   1.077   5.227   0.215  0.8599  0.2151  2.6388
 4716TIP3   OH235782   2.706   5.046   1.288 -0.2830 -0.3122 -0.1653
 4716TIP3    H135783   2.678   5.063   1.378  0.3303  0.1277 -0.0561
 4716TIP3    H235784   2.706   5.132   1.247 -1.3996 -0.6102 -0.8373
 4717TIP3   OH235785   3.142   4.773   2.429 -0.6912 -0.4521 -0.1208
 4717TIP3    H135786   3.213   4.831   2.456 -0.1762 -1.5438  1.0098
 4717TIP3    H235787   3.101   4.817   2.355  1.8925 -0.3172 -1.5816
 4718TIP3   OH235788   5.183   0.739   2.332 -0.3450 -0.6492 -0.0727
 4718TIP3    H135789   5.273   0.766   2.314 -0.2930 -0.3097  0.6654
 4718TIP3    H235790   5.131   0.786   2.267 -0.0638 -0.2695 -0.0269
 4719TIP3   OH235791   2.529   4.702   3.075  0.3377  0.0828  0.1602
 4719TIP3    H135792   2.467   4.631   3.093  0.4818  0.1439  0.9470
 4719TIP3    H235793   2.521   4.761   3.150 -0.2401  1.2402 -0.7861
 4720TIP3   OH235794   0.806   3.013   2.562 -0.7909 -0.1151 -0.0805
 4720TIP3    H135795   0.825   2.946   2.626 -0.2272 -0.5097 -0.6434
 4720TIP3    H235796   0.876   3.004   2.496 -1.5231  0.0699 -0.9027
 4721TIP3   OH235797   2.305   1.680   0.982 -0.1382  0.4257 -0.1576
 4721TIP3    H135798   2.284   1.772   0.967  1.4867  0.8456 -0.0286
 4721TIP3    H235799   2.276   1.662   1.071  1.5369  1.4826  0.6592
 4722TIP3   OH235800   1.794   5.547   1.558  0.5076 -0.3892  0.6746
 4722TIP3    H135801   1.803   5.454   1.537 -0.8994 -0.0988 -1.4455
 4722TIP3    H235802   1.877   5.570   1.600  0.8832 -2.5704  1.2548
 4723TIP3   OH235803   2.746   4.850   2.994 -0.4199 -0.3807 -0.4252
 4723TIP3    H135804   2.750   4.849   2.898  0.3353  1.8726 -0.4770
 4723TIP3    H235805   2.669   4.796   3.015 -0.8766 -0.5556 -2.3093
 4724TIP3   OH235806   3.669   3.492   2.583 -0.1645 -0.0833  0.3236
 4724TIP3    H135807   3.748   3.483   2.635  0.7623  0.1239 -1.0087
 4724TIP3    H235808   3.693   3.459   2.496 -1.8101 -0.9165  0.1308
 4725TIP3   OH235809   4.916   4.202   2.275 -0.2581 -0.6295  0.1384
 4725TIP3    H135810   4.955   4.285   2.305  0.4424 -1.1005  0.5458
 4725TIP3    H235811   4.822   4.221   2.270 -0.1758  0.0222  0.7842
 4726TIP3   OH235812   5.824   2.406   2.865  0.8100  0.3699 -0.1266
 4726TIP3    H135813   5.909   2.434   2.831  2.0769 -0.6620  1.9495
 4726TIP3    H235814   5.835   2.312   2.881 -1.6232 -0.3780 -2.2035
 4727TIP3   OH235815   4.784   3.304   2.021 -0.7775  0.0545  0.0927
 4727TIP3    H135816   4.695   3.325   1.995 -0.7517 -0.7322 -0.6795
 4727TIP3    H235817   4.782   3.210   2.041  0.2205 -0.3538 -1.5313
 4728TIP3   OH235818   4.231   5.584   1.854  0.3504 -0.4419 -0.3194
 4728TIP3    H135819   4.288   5.541   1.789  0.6258 -0.6998  0.0865
 4728TIP3    H235820   4.290   5.607   1.926  0.1745  0.4921 -0.4710
 4729TIP3   OH235821   2.332   0.904   0.869  0.2736 -0.2988 -0.6454
 4729TIP3    H135822   2.353   0.845   0.796  1.0514 -0.8427 -0.0068
 4729TIP3    H235823   2.416   0.941   0.895  0.1375 -0.7529  0.5024
 4730TIP3   OH235824   2.508   1.586   1.558 -0.1139 -0.2262  0.4718
 4730TIP3    H135825   2.525   1.530   1.634  0.1364 -0.0846  0.5203
 4730TIP3    H235826   2.590   1.633   1.544  0.5447 -1.7498 -1.1213
 4731TIP3   OH235827   2.803   1.394   0.743 -0.1943  0.2891  0.1076
 4731TIP3    H135828   2.859   1.399   0.820 -0.4666  2.7938  0.2093
 4731TIP3    H235829   2.860   1.360   0.674  0.7391  0.4212  0.7969
 4732TIP3   OH235830   4.402   6.486   4.342  0.0727  0.3094  0.0449
 4732TIP3    H135831   4.416   6.392   4.334  1.4894  0.3824  1.3768
 4732TIP3    H235832   4.359   6.497   4.427 -1.2571  0.7905 -0.6472
 4733TIP3   OH235833   0.300   6.405   4.904  0.1972 -0.5093  0.0557
 4733TIP3    H135834   0.303   6.462   4.981 -0.4914 -0.6431  0.1876
 4733TIP3    H235835   0.340   6.323   4.933  1.4683 -0.0113 -0.2218
 4734TIP3   OH235836   1.631   6.738   4.060  0.5120 -0.4415 -1.0226
 4734TIP3    H135837   1.641   6.712   4.151  1.3169 -1.8827 -1.4835
 4734TIP3    H235838   1.624   6.833   4.062  0.4215 -0.4659  0.5426
 4735TIP3   OH235839   2.782   4.803   1.397 -0.1900  0.0824  0.0952
 4735TIP3    H135840   2.839   4.823   1.471 -0.3505 -0.5483  0.4002
 4735TIP3    H235841   2.770   4.886   1.352  1.2513  0.1709 -0.1723
 4736TIP3   OH235842   6.680   4.975   1.220 -0.3864 -0.2964 -0.0124
 4736TIP3    H135843   6.653   4.888   1.251  1.6128 -1.2655 -0.7558
 4736TIP3    H235844   6.647   5.035   1.285 -2.1648 -1.5775  0.3352
 4737TIP3   OH235845   6.455   5.577   3.480 -0.4824 -0.1621  0.1707
 4737TIP3    H135846   6.549   5.596   3.488 -0.3482 -0.3185 -0.8513
 4737TIP3    H235847   6.449   5.517   3.405 -1.1566 -2.1405  1.7066
 4738TIP3   OH235848   5.452   3.153   4.273 -0.6347  0.0545  0.5720
 4738TIP3    H135849   5.366   3.186   4.296 -0.3480  0.1923  1.5020
 4738TIP3    H235850   5.462   3.173   4.180 -0.6562  2.2211  0.9705
 4739TIP3   OH235851   3.901   4.620   1.129 -0.1783  0.4231  0.1212
 4739TIP3    H135852   3.810   4.631   1.155  0.2948  2.4046  1.2076
 4739TIP3    H235853   3.940   4.566   1.198 -0.6445 -1.0248 -0.7107
 4740TIP3   OH235854   2.594   3.060   3.866  0.0808 -0.3889 -0.5072
 4740TIP3    H135855   2.527   3.064   3.933  0.5009  1.9365 -0.1176
 4740TIP3    H235856   2.554   3.103   3.790  1.5620  2.7242  0.2866
 4741TIP3   OH235857   6.324   1.669   4.308 -0.6669  0.2868  0.0098
 4741TIP3    H135858   6.352   1.596   4.364 -2.3561 -0.4548 -0.0510
 4741TIP3    H235859   6.228   1.665   4.310 -0.7708  1.4323 -1.4137
 4742TIP3   OH235860   2.995   3.628   2.600  0.0522  0.1291 -0.5494
 4742TIP3    H135861   2.994   3.617   2.695 -0.0453  0.8998 -0.4547
 4742TIP3    H235862   2.928   3.568   2.568 -1.2153  1.1823  0.0343
 4743TIP3   OH235863   6.672   3.293   3.255  0.2546 -0.3654  0.9765
 4743TIP3    H135864   6.670   3.236   3.332 -0.0282  0.4205  1.5640
 4743TIP3    H235865   6.592   3.271   3.207  0.3110 -0.6890  1.0284
 4744TIP3   OH235866   4.585   0.327   0.171  0.2090  0.3777 -0.4447
 4744TIP3    H135867   4.540   0.322   0.086  1.8098 -0.7325 -1.2919
 4744TIP3    H235868   4.668   0.280   0.157  0.7564  0.6283  1.5956
 4745TIP3   OH235869   5.988   5.951   1.467 -0.4540 -0.5916  0.2068
 4745TIP3    H135870   5.917   5.893   1.494 -1.1070 -0.0142 -0.2428
 4745TIP3    H235871   6.066   5.914   1.509 -0.2148 -3.7111 -2.5901
 4746TIP3   OH235872   1.072   2.679   1.998  0.1362  0.3587  0.0299
 4746TIP3    H135873   0.985   2.643   2.016 -0.3526  1.7532  0.6399
 4746TIP3    H235874   1.071   2.697   1.904  0.3538 -1.0604 -0.2657
 4747TIP3   OH235875   6.465   4.148   3.486 -0.3971  0.5364 -0.3818
 4747TIP3    H135876   6.546   4.165   3.437 -1.2550 -0.2699 -2.1653
 4747TIP3    H235877   6.399   4.199   3.440 -1.6930 -2.0860 -1.6160
 4748TIP3   OH235878   5.039   0.716   1.219  0.2056 -0.5625 -0.4223
 4748TIP3    H135879   5.062   0.773   1.147 -1.5849  1.1499  0.2589
 4748TIP3    H235880   4.948   0.691   1.202  0.4428 -1.8969  0.1366
 4749TIP3   OH235881   0.108   3.216   1.110 -0.0797 -0.3291  0.0481
 4749TIP3    H135882   0.191   3.219   1.062  0.0207 -0.2383  0.2268
 4749TIP3    H235883   0.069   3.132   1.085  0.5138 -0.8057  0.7092
 4750TIP3   OH235884   4.714   4.731   3.315 -0.0312 -0.1283 -0.2848
 4750TIP3    H135885   4.702   4.780   3.396 -0.6703 -2.4607  1.1190
 4750TIP3    H235886   4.638   4.755   3.261  0.9846  2.3187 -0.7633
 4751TIP3   OH235887   3.665   3.732   4.813 -0.1117  0.0905  0.2743
 4751TIP3    H135888   3.650   3.809   4.868  0.8505  0.5110 -0.0425
 4751TIP3    H235889   3.650   3.658   4.871 -0.8229  0.5108  0.6426
 4752TIP3   OH235890   1.861   2.947   8.728 -0.3339  0.6694  0.3468
 4752TIP3    H135891   1.915   3.023   8.750 -1.9890  1.9528  0.1579
 4752TIP3    H235892   1.802   2.978   8.660 -1.3848 -0.6621  0.6102
 4753TIP3   OH235893   4.293   6.497   3.751 -0.4701  0.2180 -0.4009
 4753TIP3    H135894   4.245   6.569   3.712  0.6872  0.7157 -0.9663
 4753TIP3    H235895   4.385   6.524   3.746 -0.0828 -0.9211  0.1507
 4754TIP3   OH235896   0.500   3.649   0.433  0.4595  0.3564  0.0917
 4754TIP3    H135897   0.504   3.729   0.484 -0.7536  1.5061 -1.5216
 4754TIP3    H235898   0.570   3.658   0.368  0.3252  0.1001 -0.0919
 4755TIP3   OH235899   0.592   1.161   1.436 -0.3290  0.7918 -0.6132
 4755TIP3    H135900   0.582   1.141   1.529  0.6670 -4.6849 -1.3204
 4755TIP3    H235901   0.504   1.150   1.400 -0.2439  0.0087 -0.6151
 4756TIP3   OH235902   2.523   2.117   3.304  0.7580  0.1069 -0.0917
 4756TIP3    H135903   2.502   2.053   3.372  1.8514  0.3283  0.4685
 4756TIP3    H235904   2.466   2.192   3.322  1.8735  0.6505  1.3328
 4757TIP3   OH235905   6.193   5.437   8.845  0.6952  0.4591  0.1086
 4757TIP3    H135906   6.115   5.447   8.899 -0.6205 -0.6350 -1.4936
 4757TIP3    H235907   6.229   5.353   8.870 -0.6537 -0.6679 -1.5170
 4758TIP3   OH235908   3.789   2.041   1.055  0.2456 -0.3861  0.2581
 4758TIP3    H135909   3.810   1.965   1.108 -0.6063 -0.4674  0.4941
 4758TIP3    H235910   3.719   2.085   1.103 -0.1698 -0.1692 -0.5246
 4759TIP3   OH235911   3.827   1.042   2.721 -0.0535 -0.4303  0.0927
 4759TIP3    H135912   3.807   1.126   2.678  1.8911  0.5774  1.0205
 4759TIP3    H235913   3.853   1.067   2.809  1.3065 -1.9560  0.1478
 4760TIP3   OH235914   6.642   0.911   8.782  0.1831  0.3572  0.3915
 4760TIP3    H135915   6.632   1.006   8.786 -1.2266  0.3267 -1.1863
 4760TIP3    H235916   6.584   0.877   8.850  0.5655  0.6191  0.8481
 4761TIP3   OH235917   1.709   4.949   0.684 -0.0645 -0.2822  0.1170
 4761TIP3    H135918   1.673   4.911   0.764 -0.9200 -0.7812 -0.4910
 4761TIP3    H235919   1.680   5.040   0.685  1.9580  0.4123  1.5609
 4762TIP3   OH235920   2.240   0.602   1.386 -0.4746 -0.0540 -0.1068
 4762TIP3    H135921   2.151   0.605   1.421 -0.7021 -0.8301 -0.6006
 4762TIP3    H235922   2.249   0.514   1.350  1.5170 -1.0881  2.5762
 4763TIP3   OH235923   4.752   3.529   3.777 -0.0777 -0.2111 -0.2551
 4763TIP3    H135924   4.804   3.513   3.698 -1.4174  0.1674 -1.2601
 4763TIP3    H235925   4.678   3.467   3.770 -0.2379 -0.1493  0.6898
 4764TIP3   OH235926   5.685   1.074   0.710 -0.3609  0.2485 -0.5980
 4764TIP3    H135927   5.741   1.153   0.707  1.8778 -0.9288  3.1444
 4764TIP3    H235928   5.732   1.010   0.656 -0.5709  0.5820 -1.1845
 4765TIP3   OH235929   2.321   5.667   0.396 -0.3949 -0.0937 -0.1797
 4765TIP3    H135930   2.396   5.655   0.455 -0.7845  0.6460  0.4792
 4765TIP3    H235931   2.354   5.727   0.329 -0.4427  0.3503  0.1930
 4766TIP3   OH235932   6.081   4.605   1.754  0.4006  0.4944 -0.3006
 4766TIP3    H135933   6.078   4.650   1.839 -0.2265 -1.6003  0.8519
 4766TIP3    H235934   5.990   4.602   1.725 -0.1729 -2.8514  1.3187
 4767TIP3   OH235935   6.621   0.387   2.423 -0.3732 -0.3518 -0.4693
 4767TIP3    H135936   6.565   0.432   2.360 -0.4759 -0.9750 -0.8275
 4767TIP3    H235937   6.581   0.300   2.433 -0.6611 -0.0979  0.8365
 4768TIP3   OH235938   1.453   4.328   3.036  0.7642  0.3328  0.7034
 4768TIP3    H135939   1.408   4.280   2.966 -0.3312 -0.8231  2.1428
 4768TIP3    H235940   1.397   4.404   3.052  0.9678  0.5490  0.4065
 4769TIP3   OH235941   0.877   0.136   1.191 -0.6167  0.2396  0.0878
 4769TIP3    H135942   0.806   0.107   1.248  0.7350 -2.0205  0.7146
 4769TIP3    H235943   0.883   0.230   1.206 -2.6828  0.2873  0.8877
 4770TIP3   OH235944   5.098   4.030   4.196 -0.4491  0.4007 -0.6821
 4770TIP3    H135945   5.148   4.090   4.140 -0.7531  1.9812  0.6530
 4770TIP3    H235946   5.011   4.068   4.199 -0.7398 -0.3006 -0.0594
 4771TIP3   OH235947   6.111   6.610   4.039 -0.0383 -0.1740  0.3231
 4771TIP3    H135948   6.192   6.634   3.994  1.7215 -1.6105  2.4856
 4771TIP3    H235949   6.118   6.651   4.125 -2.7291  1.4993 -0.1443
 4772TIP3   OH235950   6.742   5.978   0.312 -0.0698 -0.0419  0.1201
 4772TIP3    H135951   6.684   6.005   0.384 -0.0044 -0.1742  0.2230
 4772TIP3    H235952   6.777   5.893   0.340 -1.9121 -1.2890 -1.1290
 4773TIP3   OH235953   5.524   2.111   2.881  0.0677  0.0089  0.1102
 4773TIP3    H135954   5.512   2.111   2.976 -1.8975  0.7836 -0.1030
 4773TIP3    H235955   5.493   2.025   2.853  0.9046 -0.3250  0.1735
 4774TIP3   OH235956   1.995   2.002   0.440  0.2797 -0.0802  0.0002
 4774TIP3    H135957   1.903   1.977   0.436  0.0883  0.6627 -0.4525
 4774TIP3    H235958   2.034   1.941   0.503 -0.6758  0.0816  0.7766
 4775TIP3   OH235959   2.941   6.246   2.116 -0.2933  0.0625  0.6178
 4775TIP3    H135960   2.955   6.243   2.211 -0.8886 -0.2916  0.6982
 4775TIP3    H235961   2.903   6.161   2.095 -1.4279  0.6333  0.2739
 4776TIP3   OH235962   0.465   4.061   4.026  0.4005  0.2532  0.3669
 4776TIP3    H135963   0.403   3.997   3.991 -0.3031  0.9909  0.2275
 4776TIP3    H235964   0.472   4.128   3.957  2.5951 -0.6029 -0.3070
 4777TIP3   OH235965   5.313   5.460   2.870  0.0122  0.0344  0.3426
 4777TIP3    H135966   5.334   5.391   2.807 -1.9325  0.2806 -0.6756
 4777TIP3    H235967   5.367   5.441   2.947  1.4671 -1.0540 -0.8931
 4778TIP3   OH235968   3.945   0.064   4.805  0.5568  0.0747 -0.3299
 4778TIP3    H135969   3.893   0.108   4.739 -0.0852 -1.5482 -0.9496
 4778TIP3    H235970   3.883   0.041   4.874  1.1043  1.1785  0.5681
 4779TIP3   OH235971   5.385   4.221   3.103 -0.2111 -0.0339 -0.5230
 4779TIP3    H135972   5.360   4.136   3.141 -0.0003 -0.8142 -2.0583
 4779TIP3    H235973   5.468   4.243   3.145 -1.0856  0.2901  1.1543
 4780TIP3   OH235974   0.048   4.491   2.515  0.3694  0.4127 -0.5900
 4780TIP3    H135975   0.128   4.466   2.470  0.6775  2.0179 -0.9932
 4780TIP3    H235976   0.077   4.547   2.586 -0.1539 -1.6955  1.4088
 4781TIP3   OH235977   6.106   0.007   0.437  0.5623 -0.5097  0.6448
 4781TIP3    H135978   6.029   0.017   0.493  1.0246  0.7831  1.0809
 4781TIP3    H235979   6.070  -0.009   0.349 -0.2441  1.3055  0.6070
 4782TIP3   OH235980   2.091   1.418   0.508  0.0055  0.0128  0.0798
 4782TIP3    H135981   2.086   1.513   0.506 -0.7200 -0.0160 -2.1573
 4782TIP3    H235982   2.175   1.397   0.468 -0.1233 -0.2901 -0.0383
 4783TIP3   OH235983   1.750   0.669   3.546  0.1259  0.0016  0.4297
 4783TIP3    H135984   1.705   0.752   3.559  0.8350  0.1653  2.0001
 4783TIP3    H235985   1.778   0.643   3.633  3.5490  0.1897 -0.4799
 4784TIP3   OH235986   3.286   3.025   2.087 -0.2270 -0.1323 -0.0648
 4784TIP3    H135987   3.342   2.949   2.101  0.1469 -0.2922 -2.0593
 4784TIP3    H235988   3.294   3.044   1.993 -0.6310  2.1190  0.2810
 4785TIP3   OH235989   4.091   3.889   2.920 -0.2775  0.3600  0.1999
 4785TIP3    H135990   4.084   3.933   3.005 -1.5017  0.2765  0.1639
 4785TIP3    H235991   4.137   3.807   2.939 -1.2962 -0.0572  0.9576
 4786TIP3   OH235992   2.429   6.574   4.420  0.1895 -0.0560 -0.2764
 4786TIP3    H135993   2.441   6.495   4.367  1.1911 -0.0707 -0.0536
 4786TIP3    H235994   2.344   6.562   4.462  0.4613 -1.1776 -0.0062
 4787TIP3   OH235995   1.336   0.159   4.537  0.0655 -0.0289 -0.3114
 4787TIP3    H135996   1.264   0.096   4.535 -0.2389  0.2652  0.7919
 4787TIP3    H235997   1.315   0.218   4.609  1.5400 -0.1171  0.2473
 4788TIP3   OH235998   0.888   4.650   4.237 -1.0861 -0.4964 -0.6269
 4788TIP3    H135999   0.888   4.674   4.145 -1.6717 -0.2167 -0.5592
 4788TIP3    H236000   0.973   4.679   4.270 -1.2692  0.3048 -0.8508
 4789TIP3   OH236001   0.486   0.955   2.302 -0.0711  0.2103 -0.0114
 4789TIP3    H136002   0.392   0.952   2.317  0.0851  0.4261  1.0833
 4789TIP3    H236003   0.520   0.877   2.345  0.0893 -0.8276 -1.8923
 4790TIP3   OH236004   4.336   6.561   2.773  0.0529  0.0458 -0.0043
 4790TIP3    H136005   4.385   6.479   2.768 -2.4049 -1.5743  0.8358
 4790TIP3    H236006   4.283   6.562   2.694 -0.3456  0.5352  0.2634
 4791TIP3   OH236007   6.516   3.023   1.407 -0.6388  0.3012  0.1408
 4791TIP3    H136008   6.562   2.977   1.477  1.3342  2.0418  0.0826
 4791TIP3    H236009   6.424   3.022   1.435  0.1424  1.6160  3.2181
 4792TIP3   OH236010   3.129   1.113   2.339  0.3894 -0.4658  0.0329
 4792TIP3    H136011   3.123   1.188   2.279  0.5553  0.1803  0.8009
 4792TIP3    H236012   3.068   1.134   2.410  0.0960 -1.2818  0.0238
 4793TIP3   OH236013   2.004   6.644   1.101  0.0372 -0.0182 -0.4717
 4793TIP3    H136014   2.069   6.646   1.032 -1.4213 -1.1732 -1.9556
 4793TIP3    H236015   1.930   6.694   1.066 -1.6109 -2.5193 -0.7732
 4794TIP3   OH236016   5.811   0.887   1.734 -0.0829 -0.2070  0.1764
 4794TIP3    H136017   5.752   0.835   1.680 -0.4702  1.2579 -0.8590
 4794TIP3    H236018   5.766   0.970   1.748  1.2529  0.5360  0.2981
 4795TIP3   OH236019   0.228   0.078   2.814  0.7093  0.2457 -0.0416
 4795TIP3    H136020   0.183   0.081   2.730 -2.2708  1.1597  1.4344
 4795TIP3    H236021   0.276  -0.005   2.813 -0.4182 -0.4490 -2.0829
 4796TIP3   OH236022   1.881   6.581   1.678 -0.0741 -0.1432 -0.2656
 4796TIP3    H136023   1.875   6.547   1.589 -1.3975  0.5492 -0.4712
 4796TIP3    H236024   1.790   6.586   1.708  0.2623  0.7243  0.6966
 4797TIP3   OH236025   5.123   3.753   4.211  0.0945 -0.0887 -0.6793
 4797TIP3    H136026   5.069   3.832   4.212 -0.2392 -0.3178  0.0680
 4797TIP3    H236027   5.212   3.785   4.197 -0.2444  0.2728 -2.2343
 4798TIP3   OH236028   1.201   6.123   1.813  0.6275 -0.0339  0.0666
 4798TIP3    H136029   1.293   6.149   1.820  0.9475 -1.2050  0.3699
 4798TIP3    H236030   1.154   6.206   1.804  1.6548  0.6180  0.4580
 4799TIP3   OH236031   2.683   6.086   1.608  0.2285  0.1574 -0.2544
 4799TIP3    H136032   2.607   6.029   1.598 -0.5265  1.1777 -0.4783
 4799TIP3    H236033   2.741   6.060   1.536 -0.2094 -0.1510 -0.5052
 4800TIP3   OH236034   5.943   6.563   0.978 -0.0222  0.1038  0.0965
 4800TIP3    H136035   6.026   6.526   1.010 -0.6403 -0.0725  1.5751
 4800TIP3    H236036   5.891   6.487   0.952 -0.7978 -0.0708  1.9319
 4801TIP3   OH236037   2.741   0.958   3.763 -0.2612 -0.3115 -0.0705
 4801TIP3    H136038   2.831   0.984   3.783 -0.1712 -0.8627  0.2819
 4801TIP3    H236039   2.717   0.900   3.835 -0.9032 -0.1596 -0.1620
 4802TIP3   OH236040   4.899   6.060   4.329  0.3491 -0.2658 -0.1903
 4802TIP3    H136041   4.868   5.976   4.293 -0.5224 -1.6753  3.4476
 4802TIP3    H236042   4.823   6.118   4.321  0.6900 -0.0001 -1.9609
 4803TIP3   OH236043   2.101   5.134   1.579  0.1007 -0.1245  0.1911
 4803TIP3    H136044   2.120   5.097   1.665  1.2041 -2.0271 -0.8074
 4803TIP3    H236045   2.159   5.211   1.573 -2.0756  1.8468  2.2106
 4804TIP3   OH236046   6.426   2.631   0.838  0.0876  0.5391 -0.1655
 4804TIP3    H136047   6.413   2.637   0.933  1.9884  1.4025  0.0779
 4804TIP3    H236048   6.518   2.607   0.828 -0.8748 -3.1923 -1.7550
 4805TIP3   OH236049   1.057   0.244   3.672 -0.1870  0.2957 -0.2271
 4805TIP3    H136050   1.004   0.255   3.593 -2.6919  0.3827  1.3490
 4805TIP3    H236051   1.026   0.313   3.731  1.0484 -0.2658  1.1285
 4806TIP3   OH236052   5.809   1.015   1.418 -0.2206 -0.4146 -0.1948
 4806TIP3    H136053   5.867   1.034   1.492  1.3331  0.8663 -1.6429
 4806TIP3    H236054   5.826   0.923   1.397  1.2629 -0.0912 -0.5211
 4807TIP3   OH236055   5.742   3.579   1.698 -0.3356  0.0592  0.1012
 4807TIP3    H136056   5.658   3.591   1.742  0.2961 -1.2484  1.7715
 4807TIP3    H236057   5.753   3.484   1.696  1.7191  0.2314  1.1857
 4808TIP3   OH236058   2.418   2.011   2.242  0.1399 -0.0012 -0.2266
 4808TIP3    H136059   2.469   1.936   2.273  0.1261 -0.2781 -0.8538
 4808TIP3    H236060   2.397   1.990   2.151 -0.0343  0.6774 -0.3521
 4809TIP3   OH236061   6.779   1.369   1.587 -0.1019  0.0218 -0.4631
 4809TIP3    H136062   6.801   1.421   1.510  1.0984  0.9262  0.4488
 4809TIP3    H236063   6.842   1.396   1.653 -0.5245 -1.3921  0.5741
 4810TIP3   OH236064   3.361   1.424   3.030 -0.3340  0.1335  0.4925
 4810TIP3    H136065   3.340   1.428   2.937  0.9620 -2.4487 -0.0070
 4810TIP3    H236066   3.283   1.389   3.072 -0.6252  0.5022  0.2589
 4811TIP3   OH236067   4.711   1.788   2.827 -0.2365  0.6943  0.3841
 4811TIP3    H136068   4.677   1.746   2.748 -3.3103  0.5728  1.6251
 4811TIP3    H236069   4.746   1.872   2.797  0.7257 -0.2620 -1.3427
 4812TIP3   OH236070   6.025   5.665   1.179 -0.2130 -0.2898 -0.1195
 4812TIP3    H136071   6.098   5.669   1.116 -1.1794  0.6818 -1.2136
 4812TIP3    H236072   5.965   5.600   1.142 -0.8348  0.3599 -0.2781
 4813TIP3   OH236073   6.393   2.648   1.452 -0.0467 -0.4941  0.3172
 4813TIP3    H136074   6.360   2.558   1.449  0.1463 -0.5687 -2.1750
 4813TIP3    H236075   6.486   2.640   1.430  0.6098  0.1288  2.6633
 4814TIP3   OH236076   3.917   6.522   2.869  0.0933 -0.4790  0.4805
 4814TIP3    H136077   3.951   6.546   2.782 -0.4807 -2.1150 -0.2341
 4814TIP3    H236078   3.996   6.511   2.922  0.4635  0.2938  0.1189
 4815TIP3   OH236079   6.522   1.884   3.380 -0.1204  0.3528  0.4574
 4815TIP3    H136080   6.591   1.929   3.332 -0.1741  0.0610  0.1036
 4815TIP3    H236081   6.473   1.953   3.425  1.1728  0.4771  1.7501
 4816TIP3   OH236082   4.151   3.359   3.572  0.2900  0.3035  0.0078
 4816TIP3    H136083   4.174   3.450   3.552  1.2531  0.1560  0.3864
 4816TIP3    H236084   4.224   3.308   3.538 -1.1178 -0.5387 -1.9570
 4817TIP3   OH236085   4.011   6.128   3.581  0.0133  0.0607 -0.6855
 4817TIP3    H136086   3.935   6.186   3.582 -1.5938 -1.9171  0.7021
 4817TIP3    H236087   4.069   6.162   3.649 -0.0560  1.0313 -1.0993
 4818TIP3   OH236088   4.015   4.888   0.231  0.3672 -0.2711  0.4039
 4818TIP3    H136089   4.074   4.878   0.307  1.3844  2.1209  0.0043
 4818TIP3    H236090   4.041   4.817   0.173  0.5508 -1.2812  1.6552
 4819TIP3   OH236091   0.528   3.782   4.241 -0.1201  0.2311 -0.2798
 4819TIP3    H136092   0.616   3.773   4.278 -0.6124  1.5481  1.3628
 4819TIP3    H236093   0.538   3.847   4.171  0.0125  1.4463  0.8259
 4820TIP3   OH236094   0.725   4.107   4.164  0.6304 -0.6155 -0.6529
 4820TIP3    H136095   0.687   4.131   4.079 -0.9670 -0.8880 -0.0464
 4820TIP3    H236096   0.758   4.018   4.152  2.4465  0.1320 -1.5979
 4821TIP3   OH236097   3.888   3.554   1.496 -0.2133  0.2580  0.3150
 4821TIP3    H136098   3.969   3.580   1.453  0.3904 -0.4949  0.9686
 4821TIP3    H236099   3.847   3.637   1.523  0.5465  0.6243  0.3632
 4822TIP3   OH236100   3.758   0.747   3.383 -0.0859  0.0366 -0.0006
 4822TIP3    H136101   3.728   0.791   3.463 -1.3675  1.2056 -1.0745
 4822TIP3    H236102   3.791   0.663   3.413 -1.5594 -0.0115  1.6518
 4823TIP3   OH236103   3.241   3.328   3.775 -0.5614 -0.3959 -0.1827
 4823TIP3    H136104   3.236   3.244   3.821 -1.5525 -0.2274  0.0361
 4823TIP3    H236105   3.171   3.324   3.711  0.3514 -0.3296 -1.2059
 4824TIP3   OH236106   1.009   5.599   0.051  0.2069  0.1671 -0.1492
 4824TIP3    H136107   1.097   5.585   0.086  0.9651  2.1894 -1.1256
 4824TIP3    H236108   1.016   5.678  -0.002 -2.5671  1.3296  1.0096
 4825TIP3   OH236109   4.885   1.595   4.682 -0.1929 -0.4821  0.1194
 4825TIP3    H136110   4.909   1.638   4.764  0.0911 -0.3178 -0.0476
 4825TIP3    H236111   4.832   1.520   4.709 -1.0222  0.1861  0.3893
 4826TIP3   OH236112   2.398   6.542   2.011 -0.1364  0.3058  0.8579
 4826TIP3    H136113   2.465   6.560   2.077  0.0787  1.4193  0.3527
 4826TIP3    H236114   2.394   6.622   1.959 -1.1984 -0.0997  0.2999
 4827TIP3   OH236115   0.564   0.515   4.039  0.3498 -0.0501  0.1207
 4827TIP3    H136116   0.604   0.572   3.973 -1.0110  0.2199 -0.4968
 4827TIP3    H236117   0.476   0.551   4.053 -0.5361 -1.9294 -0.2265
 4828TIP3   OH236118   5.019   6.822   4.617  0.0662  0.2437  0.2029
 4828TIP3    H136119   4.973   6.840   4.699 -0.5226  0.9700 -0.2721
 4828TIP3    H236120   5.103   6.867   4.626  0.6169 -0.8988  0.9857
 4829TIP3   OH236121   3.529   1.433   3.819  0.4018 -0.2949 -0.6238
 4829TIP3    H136122   3.618   1.445   3.785  1.0589 -1.5149  0.6093
 4829TIP3    H236123   3.533   1.464   3.909 -0.8063  0.9510 -0.9593
 4830TIP3   OH236124   0.720   1.430   2.150 -0.4621  0.0299 -0.2524
 4830TIP3    H136125   0.647   1.378   2.184 -0.4499  0.7160  0.8792
 4830TIP3    H236126   0.767   1.459   2.229 -0.3141  1.5114 -0.8492
 4831TIP3   OH236127   2.312   2.808   0.870  0.1055 -0.1459  0.3400
 4831TIP3    H136128   2.307   2.714   0.856  0.6230 -0.0386 -0.6294
 4831TIP3    H236129   2.403   2.823   0.898  0.5826  0.2772 -1.3401
 4832TIP3   OH236130   6.341   3.542   0.506  0.2118  0.6760  0.4350
 4832TIP3    H136131   6.264   3.488   0.487  0.7182 -0.9357  2.4893
 4832TIP3    H236132   6.416   3.486   0.484  0.7625  1.0588  1.2682
 4833TIP3   OH236133   1.857   4.316   0.178 -0.2631  0.4508 -0.3143
 4833TIP3    H136134   1.808   4.235   0.183 -0.8284  0.8643  1.2268
 4833TIP3    H236135   1.822   4.360   0.100 -0.0907 -0.6556 -1.0458
 4834TIP3   OH236136   4.464   5.086   2.817  0.1470  0.7238  0.0427
 4834TIP3    H136137   4.487   5.113   2.906  1.7793  1.8271 -0.6633
 4834TIP3    H236138   4.509   5.149   2.761 -2.2417  1.1201 -1.5697
 4835TIP3   OH236139   3.455   5.610   1.738  0.5382  0.2796  0.0586
 4835TIP3    H136140   3.438   5.654   1.821 -0.7926  0.0376 -0.0576
 4835TIP3    H236141   3.373   5.618   1.690  1.2078  0.1912 -1.1309
 4836TIP3   OH236142   6.399   5.366   3.317  0.4761 -0.2173 -0.3397
 4836TIP3    H136143   6.482   5.320   3.334  0.8890  0.8488  0.5996
 4836TIP3    H236144   6.335   5.296   3.304  1.0233 -1.0829  1.3946
 4837TIP3   OH236145   0.680   1.715   0.778 -0.4471 -0.5354  0.2031
 4837TIP3    H136146   0.703   1.737   0.688  1.3869  0.2825  0.8252
 4837TIP3    H236147   0.590   1.748   0.788 -0.9688 -1.3162 -1.5198
 4838TIP3   OH236148   6.367   5.339   3.030  0.5194  0.4723  0.0378
 4838TIP3    H136149   6.371   5.368   3.121 -1.4436  0.8322  0.0433
 4838TIP3    H236150   6.439   5.276   3.022 -1.5716 -2.6476  3.0038
 4839TIP3   OH236151   2.633   3.285   3.061 -0.2359  0.4686  0.3806
 4839TIP3    H136152   2.638   3.195   3.093  0.9223 -0.0501 -1.1096
 4839TIP3    H236153   2.723   3.304   3.032 -0.9428  1.2711 -1.4073
 4840TIP3   OH236154   3.408   1.095   2.377 -0.1836  0.5626 -0.4369
 4840TIP3    H136155   3.447   1.146   2.306  0.0965  1.4588  0.3393
 4840TIP3    H236156   3.314   1.112   2.369 -0.2463 -0.1199 -1.1834
 4841TIP3   OH236157   6.641   4.012   0.944  0.1710  0.3202 -0.7044
 4841TIP3    H136158   6.728   3.975   0.929  0.3381  0.7177 -0.7255
 4841TIP3    H236159   6.588   3.938   0.973  0.5319  0.0859 -0.6366
 4842TIP3   OH236160   3.762   4.709   8.830 -0.4647 -0.4897  0.5985
 4842TIP3    H136161   3.828   4.641   8.825  0.0102 -0.0128  0.3310
 4842TIP3    H236162   3.705   4.693   8.755  0.2858  0.0634 -0.1068
 4843TIP3   OH236163   4.812   2.710   4.398  0.7413  0.0749  0.3153
 4843TIP3    H136164   4.889   2.653   4.391  0.4123 -0.3586  0.2301
 4843TIP3    H236165   4.848   2.793   4.430  1.3520  0.1084 -0.4200
 4844TIP3   OH236166   3.839   3.066   0.760  0.5565  0.1953 -0.9953
 4844TIP3    H136167   3.787   2.993   0.795  1.4980  0.6975  1.7071
 4844TIP3    H236168   3.775   3.135   0.745  0.1749  0.3190  0.9053
 4845TIP3   OH236169   1.915   1.910   1.365  0.4479 -0.0463  0.8314
 4845TIP3    H136170   1.885   2.000   1.379 -2.1527 -0.9518  1.7988
 4845TIP3    H236171   1.847   1.870   1.311  0.4032 -1.9800  2.1991
 4846TIP3   OH236172   4.963   3.172   4.792  0.1457  0.8542  0.4963
 4846TIP3    H136173   4.898   3.146   4.857  0.7141 -0.2903  0.6216
 4846TIP3    H236174   5.004   3.090   4.764  1.0970  1.4944 -0.0472
 4847TIP3   OH236175   4.500   6.038   3.348  0.0467  0.5861  0.6574
 4847TIP3    H136176   4.505   6.133   3.354 -1.3347  0.7532 -0.3382
 4847TIP3    H236177   4.411   6.017   3.375  0.1797 -0.3805  0.3729
 4848TIP3   OH236178   0.109   6.188   3.112 -0.2084  0.2452  0.1585
 4848TIP3    H136179   0.069   6.163   3.028  0.6783  1.1128 -0.5466
 4848TIP3    H236180   0.203   6.175   3.098 -0.0504  0.3713  1.0406
 4849TIP3   OH236181   4.306   2.069   2.364  0.0818  0.3420  0.6882
 4849TIP3    H136182   4.350   1.987   2.341  0.2508  0.8500 -0.9516
 4849TIP3    H236183   4.213   2.049   2.357  0.1192  0.6246 -1.1988
 4850TIP3   OH236184   6.683   6.465   3.138  0.4453  1.0260  0.3007
 4850TIP3    H136185   6.619   6.398   3.112 -1.0470  2.2218  0.7452
 4850TIP3    H236186   6.707   6.442   3.228  0.8253  0.4416  0.0527
 4851TIP3   OH236187   2.289   1.963   1.188  0.3464 -0.1086  0.9217
 4851TIP3    H136188   2.358   1.909   1.226  0.4848 -1.1308 -0.7161
 4851TIP3    H236189   2.241   1.998   1.264  2.0233 -0.1829  2.0633
 4852TIP3   OH236190   4.910   2.427   1.122  0.6430  0.0182 -0.1711
 4852TIP3    H136191   4.979   2.465   1.067  0.2027 -0.9962 -1.4544
 4852TIP3    H236192   4.957   2.393   1.198  1.8307 -1.9214 -1.6656
 4853TIP3   OH236193   6.687   2.041   4.678  0.8309  0.1932 -0.1531
 4853TIP3    H136194   6.647   2.128   4.679 -3.4042 -1.4907  1.5449
 4853TIP3    H236195   6.710   2.025   4.587 -0.4256  2.2471 -0.8852
 4854TIP3   OH236196   4.315   4.787   4.402  0.0285  0.1804 -0.0632
 4854TIP3    H136197   4.292   4.714   4.344  1.6203  0.2895 -0.8885
 4854TIP3    H236198   4.254   4.856   4.379 -1.0222 -0.6343  0.2055
 4855TIP3   OH236199   1.278   5.121   1.527  0.1944  0.1831  0.3418
 4855TIP3    H136200   1.235   5.148   1.607  0.1487 -1.6089  0.9551
 4855TIP3    H236201   1.371   5.136   1.543  0.0104  2.3249 -0.3047
 4856TIP3   OH236202   0.708   4.682   3.624  0.1102 -0.6779 -0.2297
 4856TIP3    H136203   0.723   4.733   3.544 -0.3851 -0.5397 -0.2338
 4856TIP3    H236204   0.722   4.745   3.695  2.1714 -1.1739 -0.1300
 4857TIP3   OH236205   2.111   0.303   4.076  0.2003 -0.3790  0.0820
 4857TIP3    H136206   2.123   0.224   4.022  0.4956 -1.2422  1.3771
 4857TIP3    H236207   2.180   0.362   4.047  0.4547 -0.8950 -0.3822
 4858TIP3   OH236208   3.172   0.777   4.106  0.2654 -0.4068 -0.7219
 4858TIP3    H136209   3.180   0.858   4.054  1.2210 -1.2523 -1.9571
 4858TIP3    H236210   3.223   0.713   4.057  2.4239 -0.9517  1.9856
 4859TIP3   OH236211   5.205   3.055   1.504  0.9404 -0.1556 -0.1519
 4859TIP3    H136212   5.200   3.046   1.409  1.2923 -1.7848 -0.0589
 4859TIP3    H236213   5.139   2.994   1.538  2.2259 -1.1610  0.6501
 4860TIP3   OH236214   3.269   6.483   1.261  0.3219  0.4320  0.0014
 4860TIP3    H136215   3.304   6.454   1.177  0.6789  0.4457  0.1447
 4860TIP3    H236216   3.311   6.568   1.276  1.7286 -0.4072  1.0875
 4861TIP3   OH236217   5.365   5.711   1.686  0.2508  0.1525  0.6829
 4861TIP3    H136218   5.358   5.632   1.739  1.8068  0.1090  0.8686
 4861TIP3    H236219   5.314   5.691   1.607 -0.5852 -0.4587  1.3442
 4862TIP3   OH236220   2.857   2.775   1.201  0.6454 -0.4314  0.1519
 4862TIP3    H136221   2.809   2.695   1.219  1.6941 -0.9169  0.8991
 4862TIP3    H236222   2.790   2.841   1.186 -0.2658 -1.6772 -1.6337
 4863TIP3   OH236223   2.120   5.960   3.646 -0.3129 -0.1722 -0.2840
 4863TIP3    H136224   2.032   5.993   3.664 -0.0226 -0.0938  1.0961
 4863TIP3    H236225   2.166   6.033   3.605 -0.8374 -0.1709 -0.8888
 4864TIP3   OH236226   4.697   3.958   0.928  0.3390  0.0079 -0.5295
 4864TIP3    H136227   4.782   3.915   0.925  0.3376 -0.0911  0.6658
 4864TIP3    H236228   4.636   3.889   0.953 -0.1829 -0.0334 -1.8308
 4865TIP3   OH236229   5.772   4.981   0.435 -0.1158  0.0558  0.2463
 4865TIP3    H136230   5.859   4.991   0.475 -0.1435 -0.7104  0.5282
 4865TIP3    H236231   5.732   5.068   0.441  0.8051  0.5350 -0.3120
 4866TIP3   OH236232   0.264   3.018   1.496  0.2374  0.4019 -0.1986
 4866TIP3    H136233   0.323   3.089   1.521  2.8375 -0.7370 -2.5383
 4866TIP3    H236234   0.295   2.943   1.546 -1.0316  0.3607  0.5631
 4867TIP3   OH236235   4.524   5.491   5.097  0.4112 -0.3557  0.1212
 4867TIP3    H136236   4.591   5.556   5.120  1.5448 -1.1038 -0.9526
 4867TIP3    H236237   4.499   5.513   5.007 -0.7892 -0.1105  0.4952
 4868TIP3   OH236238   6.223   1.026   3.062 -0.3734 -0.0580  0.0464
 4868TIP3    H136239   6.130   1.012   3.075 -0.3670  0.7584  1.1198
 4868TIP3    H236240   6.233   1.121   3.061  0.5889 -0.1352  1.1102
 4869TIP3   OH236241   2.256   6.165   0.483 -0.6441  0.3738 -0.4697
 4869TIP3    H136242   2.277   6.176   0.390 -1.1028  1.0390 -0.5105
 4869TIP3    H236243   2.235   6.254   0.512  0.8504  0.3972  0.6230
 4870TIP3   OH236244   3.697   6.372   0.916 -0.2567  0.2182 -0.2310
 4870TIP3    H136245   3.763   6.319   0.962 -0.9816 -0.0876  0.4750
 4870TIP3    H236246   3.713   6.354   0.824  2.1621  1.9515 -0.2395
 4871TIP3   OH236247   2.722   4.908   3.725 -0.8013  0.0845 -0.5836
 4871TIP3    H136248   2.781   4.952   3.664  1.5295 -1.5345  0.3327
 4871TIP3    H236249   2.723   4.963   3.803  0.5888 -0.5549 -0.1164
 4872TIP3   OH236250   6.178   2.162   3.138  0.0892 -0.5149 -0.9356
 4872TIP3    H136251   6.120   2.130   3.207  1.3328 -0.8563 -0.0073
 4872TIP3    H236252   6.141   2.127   3.057 -1.6343  0.2345 -0.5020
 4873TIP3   OH236253   1.374   2.169   1.642  0.0434 -0.3751 -0.4508
 4873TIP3    H136254   1.427   2.142   1.717  1.4548 -1.0070 -1.6273
 4873TIP3    H236255   1.420   2.132   1.566 -0.8599  0.9890 -1.6995
 4874TIP3   OH236256   2.591   0.988   0.992  0.3379  0.4723 -0.0554
 4874TIP3    H136257   2.540   0.978   1.073  2.0251  1.1382  1.1524
 4874TIP3    H236258   2.598   1.083   0.981 -0.3706  0.3883 -1.3363
 4875TIP3   OH236259   6.607   1.976   2.469  0.1778  0.3507 -0.1099
 4875TIP3    H136260   6.516   1.991   2.444 -0.3180 -1.1336  0.6629
 4875TIP3    H236261   6.658   2.035   2.414 -1.1318  0.0387 -1.7212
 4876TIP3   OH236262   0.164   6.670   1.754  0.2942 -0.3560 -0.3247
 4876TIP3    H136263   0.088   6.705   1.708  0.2051  0.6474  0.5343
 4876TIP3    H236264   0.201   6.745   1.801  0.4101 -1.2891  1.1718
 4877TIP3   OH236265   0.367   1.114   3.865  0.2370  0.0437  0.2950
 4877TIP3    H136266   0.309   1.043   3.893 -0.5771  0.5813  0.0098
 4877TIP3    H236267   0.318   1.159   3.797  0.1298  1.7239  1.4191
 4878TIP3   OH236268   0.907   4.484   4.493 -0.0293 -0.1707  0.2106
 4878TIP3    H136269   0.991   4.484   4.539  0.1008  1.5738  0.0175
 4878TIP3    H236270   0.903   4.397   4.453 -0.0203 -1.6926  3.2063
 4879TIP3   OH236271   2.485   5.335   3.045  0.5930  0.5882 -0.1193
 4879TIP3    H136272   2.539   5.365   2.972  1.5507 -0.0825  0.2925
 4879TIP3    H236273   2.487   5.239   3.039  1.7321  0.4579  1.4865
 4880TIP3   OH236274   0.261   2.458   2.284  0.2762  0.5527  0.1781
 4880TIP3    H136275   0.254   2.469   2.379 -0.7807  3.7458 -0.1482
 4880TIP3    H236276   0.346   2.496   2.261  1.0742 -1.2807 -0.1150
 4881TIP3   OH236277   2.968   4.850   1.950 -0.1247  0.4503 -0.0009
 4881TIP3    H136278   2.985   4.775   1.894 -1.2268  0.1082  0.0913
 4881TIP3    H236279   3.041   4.851   2.012  0.2648 -0.1199 -0.4405
 4882TIP3   OH236280   0.012   5.986   3.444 -0.2988 -0.2464 -0.2362
 4882TIP3    H136281  -0.031   6.041   3.379 -1.0160  0.1123  0.5275
 4882TIP3    H236282   0.075   5.934   3.394 -0.0672  0.8014 -1.0566
 4883TIP3   OH236283   6.277   4.847   4.389  0.4972  0.1539  0.2870
 4883TIP3    H136284   6.355   4.893   4.421 -0.1293  0.6210  1.1648
 4883TIP3    H236285   6.216   4.849   4.462 -0.2314 -0.4877 -0.2887
 4884TIP3   OH236286   6.419   3.443   4.039  0.1868  0.4862  0.6936
 4884TIP3    H136287   6.409   3.483   4.126 -0.0352  1.4528  0.2349
 4884TIP3    H236288   6.339   3.465   3.993  1.2349  1.9505 -0.5286
 4885TIP3   OH236289   1.697   3.722   4.490 -0.3746  0.0024  0.4041
 4885TIP3    H136290   1.645   3.681   4.559 -1.4934  0.9545  0.1632
 4885TIP3    H236291   1.665   3.812   4.487  2.5573  1.2036  1.4826
 4886TIP3   OH236292   6.304   2.132   1.323  0.0870 -0.2394 -0.2580
 4886TIP3    H136293   6.328   2.067   1.257 -0.3885 -0.9933  0.2963
 4886TIP3    H236294   6.264   2.081   1.394  0.4830  0.5571  0.5650
 4887TIP3   OH236295   2.047   0.695   4.557  0.2421  0.1035 -0.1705
 4887TIP3    H136296   2.045   0.621   4.496 -2.1521  0.5175 -0.7172
 4887TIP3    H236297   2.030   0.655   4.642  2.9795 -0.3984  0.2263
 4888TIP3   OH236298   4.794   5.251   3.388  0.3227  0.2706 -0.1894
 4888TIP3    H136299   4.731   5.241   3.317  0.1359 -1.0212  0.1331
 4888TIP3    H236300   4.741   5.260   3.467  0.5348  0.7971 -0.1028
 4889TIP3   OH236301   3.690   5.859   3.274  0.6421 -0.9938 -0.6905
 4889TIP3    H136302   3.694   5.936   3.217 -1.4426 -0.3505 -0.0789
 4889TIP3    H236303   3.618   5.807   3.239  0.6984 -1.6352  0.1144
 4890TIP3   OH236304   0.167   1.088   4.484  0.0880  0.2733 -0.0514
 4890TIP3    H136305   0.144   1.071   4.393 -2.3410 -1.2412  0.7400
 4890TIP3    H236306   0.238   1.152   4.480  0.2601  0.0155 -2.9811
 4891TIP3   OH236307   1.616   0.986   1.090  0.2764 -0.2974 -0.0499
 4891TIP3    H136308   1.607   1.078   1.112 -0.1537  0.1599 -1.9679
 4891TIP3    H236309   1.708   0.977   1.064  0.1314 -0.2042 -0.6219
 4892TIP3   OH236310   2.273   1.936   0.913  0.6547  0.1482  0.6506
 4892TIP3    H136311   2.245   2.025   0.890 -1.5672 -0.3396  1.2274
 4892TIP3    H236312   2.304   1.943   1.003  1.6857  0.5451  0.2797
 4893TIP3   OH236313   4.934   5.657   2.103  0.1408 -0.2710 -0.5135
 4893TIP3    H136314   4.888   5.592   2.049 -0.0048 -0.0030 -0.7142
 4893TIP3    H236315   5.022   5.661   2.066  0.0072 -0.0026 -0.8097
 4894TIP3   OH236316   0.676   4.297   3.983  0.8428  0.2609 -0.2541
 4894TIP3    H136317   0.707   4.283   3.894  0.4285  1.0512 -0.5296
 4894TIP3    H236318   0.752   4.333   4.029  0.8964  0.3838 -0.4362
 4895TIP3   OH236319   6.061   5.258   4.067 -0.5069  0.6576 -0.0751
 4895TIP3    H136320   6.021   5.327   4.015 -0.6065  0.7140  0.0730
 4895TIP3    H236321   6.107   5.304   4.137  1.7263  0.7140 -1.5176
 4896TIP3   OH236322   0.652   0.582   1.454 -0.2007 -0.5154 -0.2797
 4896TIP3    H136323   0.666   0.616   1.543  1.1503 -2.4425  0.2948
 4896TIP3    H236324   0.633   0.660   1.402  1.1354  0.9347  1.2802
 4897TIP3   OH236325   6.184   6.807   3.630  0.7630  0.0699  0.8202
 4897TIP3    H136326   6.208   6.750   3.558  1.2490  0.7467  0.4407
 4897TIP3    H236327   6.227   6.891   3.611 -0.2552  0.6927  1.1529
 4898TIP3   OH236328   1.878   1.223   3.138  0.1115  0.5452  0.0023
 4898TIP3    H136329   1.865   1.129   3.123 -0.8780  0.6015  0.4395
 4898TIP3    H236330   1.906   1.256   3.053 -2.5576  0.3528 -1.0749
 4899TIP3   OH236331   3.769   5.996   1.726 -0.5026  0.0295 -0.0518
 4899TIP3    H136332   3.833   5.966   1.661 -1.1920 -1.1458 -0.2314
 4899TIP3    H236333   3.690   6.016   1.675 -0.7636 -0.0447  0.3173
 4900TIP3   OH236334   2.525   6.553   1.404 -0.2013  0.1940 -0.4999
 4900TIP3    H136335   2.534   6.648   1.397 -1.1634  0.1978 -2.1520
 4900TIP3    H236336   2.615   6.520   1.405  0.1331  1.0961  0.0100
 4901TIP3   OH236337   4.861   4.391   3.811  0.4999 -0.1931  0.0078
 4901TIP3    H136338   4.776   4.381   3.769  0.7579 -0.9860 -0.3363
 4901TIP3    H236339   4.841   4.432   3.895 -0.1611  0.1275 -0.2968
 4902TIP3   OH236340   0.373   6.186   4.097 -0.5516 -0.2731  0.3635
 4902TIP3    H136341   0.436   6.115   4.112 -0.4487 -0.1884  0.3362
 4902TIP3    H236342   0.368   6.232   4.181  1.2722  1.2084 -0.2607
 4903TIP3   OH236343   3.488   5.337   1.737 -0.0880  0.3648  0.2607
 4903TIP3    H136344   3.481   5.429   1.713  1.0820 -0.0759 -2.0374
 4903TIP3    H236345   3.510   5.293   1.656 -4.4301 -2.5556  0.3137
 4904TIP3   OH236346   5.088   1.472   4.006  0.3207  0.0489 -0.4126
 4904TIP3    H136347   5.157   1.499   3.944  0.8408  0.2302  0.2359
 4904TIP3    H236348   5.133   1.463   4.090 -0.1015 -1.5880 -0.3323
 4905TIP3   OH236349   1.450   5.537   0.628  0.1554  0.2673 -0.1785
 4905TIP3    H136350   1.388   5.472   0.662 -0.6981  0.5627 -1.0971
 4905TIP3    H236351   1.439   5.532   0.533  1.0938  0.7795 -0.3246
 4906TIP3   OH236352   2.469   5.608   1.534  0.2850  0.1615  0.1279
 4906TIP3    H136353   2.529   5.602   1.459  0.3469 -0.3718  0.2154
 4906TIP3    H236354   2.392   5.558   1.507  0.6192 -0.7031  0.7053
 4907TIP3   OH236355   5.953   4.473   3.923  0.4313  0.4843 -0.0475
 4907TIP3    H136356   5.885   4.530   3.961  2.2250  1.4422  1.9609
 4907TIP3    H236357   5.975   4.413   3.995  1.1843 -0.2988 -0.9214
 4908TIP3   OH236358   2.642   3.657   2.019 -0.1783  0.3735 -0.1920
 4908TIP3    H136359   2.612   3.571   2.049 -0.4266  0.3247 -0.5729
 4908TIP3    H236360   2.641   3.712   2.098  2.4469 -0.6107  0.6253
 4909TIP3   OH236361   1.163   1.756   1.407  0.0065 -0.2111 -0.5180
 4909TIP3    H136362   1.244   1.721   1.444 -0.0959  0.6341  0.5212
 4909TIP3    H236363   1.170   1.736   1.313  0.3785 -2.1705 -0.1321
 4910TIP3   OH236364   6.758   2.824   1.531 -0.0933 -0.2931 -0.3936
 4910TIP3    H136365   6.835   2.797   1.481  0.1488  0.0520 -0.2103
 4910TIP3    H236366   6.794   2.862   1.612 -0.4921 -2.5005  0.9310
 4911TIP3   OH236367   6.212   4.393   2.277 -0.1912  0.3251 -0.4030
 4911TIP3    H136368   6.285   4.339   2.306  0.6075  0.7945 -1.4525
 4911TIP3    H236369   6.164   4.416   2.357  1.2601  0.6550  0.3906
 4912TIP3   OH236370   0.534   5.712   1.999 -0.2412  0.8941 -0.2072
 4912TIP3    H136371   0.606   5.695   2.060 -1.0113  1.4694  0.9153
 4912TIP3    H236372   0.485   5.630   1.995  0.9208  0.2291 -1.6463
 4913TIP3   OH236373   1.981   5.530   4.488 -0.1463  0.4482 -0.0768
 4913TIP3    H136374   1.926   5.502   4.415  0.3570  0.4555 -0.4565
 4913TIP3    H236375   1.922   5.529   4.563 -0.7480  0.7382 -0.5355
 4914TIP3   OH236376   5.087   2.318   1.958 -0.2742  0.0811  0.1495
 4914TIP3    H136377   5.061   2.343   2.047 -0.7830 -1.0205  0.3351
 4914TIP3    H236378   5.150   2.247   1.971  1.6897  1.6551 -0.3378
 4915TIP3   OH236379   3.365   4.863   3.417 -0.3118 -0.0724  0.0366
 4915TIP3    H136380   3.333   4.953   3.413  1.1811  0.4648 -1.1270
 4915TIP3    H236381   3.459   4.871   3.397  0.0667 -1.7757  0.9730
 4916TIP3   OH236382   5.576   5.827   2.575  0.1583  0.0754  0.0686
 4916TIP3    H136383   5.494   5.871   2.598 -0.1830 -0.4832 -0.0528
 4916TIP3    H236384   5.643   5.894   2.584 -0.6734  1.4531 -2.9691
 4917TIP3   OH236385   5.673   5.783   4.577  0.3323  0.1605 -0.4121
 4917TIP3    H136386   5.729   5.850   4.539 -2.2938  0.8241 -3.5594
 4917TIP3    H236387   5.666   5.717   4.508 -0.2152 -1.5019  1.1608
 4918TIP3   OH236388   0.615   0.393   4.459  0.2014  0.5746  0.0304
 4918TIP3    H136389   0.700   0.355   4.482  0.6251  0.9883 -0.8301
 4918TIP3    H236390   0.585   0.341   4.384 -1.8108 -1.6809  2.2026
 4919TIP3   OH236391   1.791   0.727   3.089  0.0128 -0.1371  0.5657
 4919TIP3    H136392   1.830   0.673   3.158  0.3087 -0.4458  0.1554
 4919TIP3    H236393   1.861   0.740   3.026  0.5025  2.1376  1.4496
 4920TIP3   OH236394   0.250   6.470   5.157  0.0369  0.6656  0.2937
 4920TIP3    H136395   0.314   6.413   5.199  0.3285  0.4823 -0.3917
 4920TIP3    H236396   0.211   6.519   5.229  1.2252  1.0723  0.6845
 4921TIP3   OH236397   0.349   3.105   3.026  0.4655 -0.1255  0.8133
 4921TIP3    H136398   0.402   3.066   3.095 -0.5035 -0.1554  1.5663
 4921TIP3    H236399   0.259   3.097   3.058  0.1162  1.1705  0.2060
 4922TIP3   OH236400   1.018   5.865   8.835  0.0070  0.2007 -0.1157
 4922TIP3    H136401   0.946   5.923   8.861 -3.4328 -2.3488 -3.0098
 4922TIP3    H236402   1.077   5.922   8.785 -0.4336  2.1745  1.4545
 4923TIP3   OH236403   1.568   2.808   1.346 -0.4392 -0.0469 -0.2826
 4923TIP3    H136404   1.638   2.852   1.394  1.1437 -2.5516 -0.1327
 4923TIP3    H236405   1.589   2.822   1.254  1.5457 -2.4814 -0.2895
 4924TIP3   OH236406   6.109   0.301   4.158  0.4401 -0.4709 -0.1734
 4924TIP3    H136407   6.105   0.261   4.245  2.3462  1.6015  0.9853
 4924TIP3    H236408   6.018   0.312   4.132 -0.1854 -0.6874  1.7814
 4925TIP3   OH236409   3.271   4.658   1.325  0.5430 -0.1990 -0.1997
 4925TIP3    H136410   3.332   4.599   1.281  0.3334  0.0938 -0.8893
 4925TIP3    H236411   3.191   4.653   1.273  0.8173  1.3894 -0.7984
 4926TIP3   OH236412   4.771   6.137   2.576 -0.0347  0.2713 -0.0989
 4926TIP3    H136413   4.731   6.224   2.569 -0.0366  0.2452 -0.4297
 4926TIP3    H236414   4.742   6.091   2.497 -0.0568 -0.0403  0.0899
 4927TIP3   OH236415   6.665   5.913   0.666  0.4902 -0.4565 -0.6371
 4927TIP3    H136416   6.724   5.975   0.709 -1.5055 -0.6448  2.8246
 4927TIP3    H236417   6.603   5.968   0.617  0.4992  0.1095 -0.0288
 4928TIP3   OH236418   0.015   1.292   1.869  0.1258 -0.1466  0.4520
 4928TIP3    H136419   0.057   1.362   1.919 -0.9681  1.3902 -0.6735
 4928TIP3    H236420  -0.065   1.332   1.836  0.3945 -1.3394 -1.8235
 4929TIP3   OH236421   1.962   4.845   0.601  0.0386 -0.2808 -0.3523
 4929TIP3    H136422   1.958   4.917   0.664  1.4280 -0.1545 -0.3818
 4929TIP3    H236423   1.873   4.837   0.568  0.0507  2.2157 -1.2143
 4930TIP3   OH236424   3.696   3.321   2.080  0.7462 -0.0106  0.5312
 4930TIP3    H136425   3.633   3.390   2.061  0.3057 -0.7680 -0.9569
 4930TIP3    H236426   3.685   3.259   2.008  0.7402 -1.9012  2.0789
 4931TIP3   OH236427   5.125   2.591   3.775  0.0922  0.2463  0.0631
 4931TIP3    H136428   5.055   2.650   3.748 -0.9475 -0.7083  0.5932
 4931TIP3    H236429   5.206   2.637   3.752 -0.6425  0.0651 -3.5015
 4932TIP3   OH236430   4.917   2.072   2.083 -0.1474 -0.0345  0.0535
 4932TIP3    H136431   4.870   2.011   2.140  0.1682  0.7461  1.2058
 4932TIP3    H236432   4.927   2.151   2.137  3.0245 -0.3584  0.1532
 4933TIP3   OH236433   1.653   4.872   4.078  0.1928 -0.1208  0.2650
 4933TIP3    H136434   1.628   4.811   4.147  2.1796 -0.6308  0.6193
 4933TIP3    H236435   1.598   4.949   4.092 -0.5868 -0.8487  1.3874
 4934TIP3   OH236436   1.098   5.952   0.568  0.0803 -0.0690 -0.0789
 4934TIP3    H136437   1.071   5.860   0.567 -2.0724  0.4968  0.8727
 4934TIP3    H236438   1.054   5.990   0.492  2.1684 -0.0771 -1.3693
 4935TIP3   OH236439   5.786   0.300   0.327  0.1094  0.3488  0.4145
 4935TIP3    H136440   5.731   0.228   0.359  2.0564 -1.1543  0.5646
 4935TIP3    H236441   5.865   0.295   0.380  1.1367  1.3095 -0.9590
 4936TIP3   OH236442   1.018   3.755   3.268 -0.3980  0.2593 -0.3450
 4936TIP3    H136443   0.957   3.772   3.339  1.4478 -0.2848  1.4699
 4936TIP3    H236444   1.010   3.661   3.251 -1.9090  0.6302 -1.9728
 4937TIP3   OH236445   3.577   3.948   4.967 -0.1687 -0.9389  0.3882
 4937TIP3    H136446   3.523   4.001   4.909  2.8181  2.1293  0.0614
 4937TIP3    H236447   3.547   3.970   5.056  0.8195  1.2529  0.2456
 4938TIP3   OH236448   6.743   6.692   1.903 -0.1550  0.0386  0.4064
 4938TIP3    H136449   6.822   6.650   1.937 -0.4916  0.7164  2.1357
 4938TIP3    H236450   6.715   6.636   1.830  2.4746  0.3561 -0.9279
 4939TIP3   OH236451   4.575   1.665   2.613 -0.2411 -0.1626 -0.2381
 4939TIP3    H136452   4.563   1.723   2.538  0.4390  0.2052 -0.0694
 4939TIP3    H236453   4.497   1.678   2.666  0.6479  1.9430  0.6799
 4940TIP3   OH236454   2.070   4.080   3.030 -0.1457 -0.5309  0.2854
 4940TIP3    H136455   2.134   4.112   3.094  0.6327 -0.6133 -0.4486
 4940TIP3    H236456   2.086   3.986   3.025 -1.6178 -0.9048  1.5179
 4941TIP3   OH236457   1.169   2.808   0.269  0.3082  0.0997  1.1582
 4941TIP3    H136458   1.134   2.882   0.318  0.9830 -0.3040  2.3042
 4941TIP3    H236459   1.098   2.781   0.211  0.4916  2.4866 -0.3236
 4942TIP3   OH236460   2.211   6.831   2.669  0.1694  0.3385  0.3605
 4942TIP3    H136461   2.216   6.795   2.758 -2.2448 -1.4525 -0.1328
 4942TIP3    H236462   2.183   6.921   2.681  0.1220  0.1974  1.4159
 4943TIP3   OH236463   0.720   3.788   1.735  0.5169  0.0560 -0.5763
 4943TIP3    H136464   0.784   3.761   1.801  2.0691  2.7130 -0.8321
 4943TIP3    H236465   0.773   3.816   1.660 -0.4535  5.2046  0.2418
 4944TIP3   OH236466   6.602   4.825   4.039 -0.1214 -0.8681  0.2059
 4944TIP3    H136467   6.569   4.886   3.973  0.1427 -0.6288  0.2929
 4944TIP3    H236468   6.698   4.836   4.036 -0.0807 -1.1939  0.3001
 4945TIP3   OH236469   3.095   6.013   3.456  0.4169  0.5997  0.1258
 4945TIP3    H136470   3.074   6.077   3.524 -1.3746  0.3892 -0.1819
 4945TIP3    H236471   3.019   6.013   3.398  0.1962 -2.0671  0.3044
 4946TIP3   OH236472   0.656   3.723   3.810 -0.5420  0.0448 -0.2102
 4946TIP3    H136473   0.561   3.719   3.821 -0.4447  0.4830  0.8941
 4946TIP3    H236474   0.677   3.649   3.754 -1.5106 -0.1793 -0.2900
 4947TIP3   OH236475   3.758   1.450   1.613 -0.4240  0.2686 -0.2241
 4947TIP3    H136476   3.849   1.420   1.614  0.0972  1.6701 -1.3473
 4947TIP3    H236477   3.728   1.434   1.524 -0.7599  1.2039 -0.2962
 4948TIP3   OH236478   4.654   2.566   3.058  0.0598 -0.0093  0.5182
 4948TIP3    H136479   4.740   2.578   3.099  1.5578 -0.5578 -2.2152
 4948TIP3    H236480   4.643   2.643   3.002 -0.5364 -0.6297 -0.2485
 4949TIP3   OH236481   3.915   5.707   4.024  0.1900 -0.0558 -0.1291
 4949TIP3    H136482   4.008   5.685   4.024  0.6250  1.4966  2.0097
 4949TIP3    H236483   3.907   5.779   3.962  0.5014  0.1520  0.0733
 4950TIP3   OH236484   1.971   1.490   1.134 -0.2376  0.2682  0.3393
 4950TIP3    H136485   1.994   1.425   1.200 -1.5494 -0.6452 -0.0476
 4950TIP3    H236486   1.935   1.564   1.184  1.1204  0.6682  0.7702
 4951TIP3   OH236487   1.364   6.778   2.399  0.0389 -0.2977  0.0240
 4951TIP3    H136488   1.405   6.765   2.314  0.0144 -0.0363 -0.0290
 4951TIP3    H236489   1.342   6.690   2.429  2.0703 -0.6008  0.7905
 4952TIP3   OH236490   0.364   6.483   1.263  0.4358 -0.0013 -0.7819
 4952TIP3    H136491   0.419   6.405   1.251  0.4140 -0.0366 -0.6512
 4952TIP3    H236492   0.282   6.449   1.299  0.6721  0.1544 -0.0793
 4953TIP3   OH236493   2.348   4.957   3.360  0.2430  0.2733  0.0724
 4953TIP3    H136494   2.435   4.973   3.325  0.0594  1.6643  0.1731
 4953TIP3    H236495   2.358   4.880   3.416  1.2479  0.0068 -0.4468
 4954TIP3   OH236496   3.253   3.425   1.971 -0.1230 -0.0182  0.5325
 4954TIP3    H136497   3.189   3.434   1.901  0.8894  1.6468 -0.2552
 4954TIP3    H236498   3.302   3.347   1.948  0.6435  0.8757 -1.0746
 4955TIP3   OH236499   2.416   6.771   0.638  0.6324 -0.2547 -0.0659
 4955TIP3    H136500   2.324   6.787   0.658  0.4062 -1.5278  0.0252
 4955TIP3    H236501   2.417   6.681   0.604  1.7502 -0.0222 -0.6986
 4956TIP3   OH236502   5.489   2.222   0.788  0.0051  0.8228 -0.0602
 4956TIP3    H136503   5.492   2.299   0.731  0.8667  0.9685  0.1737
 4956TIP3    H236504   5.504   2.256   0.876 -1.8143  0.6640  0.3503
 4957TIP3   OH236505   0.867   0.656   1.156 -0.0809  0.7152  0.3510
 4957TIP3    H136506   0.902   0.735   1.115 -0.4347  0.3925 -0.5885
 4957TIP3    H236507   0.848   0.597   1.083 -0.1850 -0.0918  1.0157
 4958TIP3   OH236508   5.352   3.394   4.133 -0.4647 -0.0722 -0.0321
 4958TIP3    H136509   5.423   3.355   4.082  0.3403 -1.8333  2.2486
 4958TIP3    H236510   5.373   3.487   4.136  1.5971 -0.5001  0.2970
 4959TIP3   OH236511   4.903   3.689   0.601 -0.3796 -0.1434 -0.1317
 4959TIP3    H136512   4.942   3.603   0.590  0.3120 -0.0031  1.1088
 4959TIP3    H236513   4.977   3.748   0.613 -0.7262  0.9655 -2.7328
 4960TIP3   OH236514   4.062   0.091   1.724  0.5919  0.2074 -0.3374
 4960TIP3    H136515   3.973   0.064   1.745  1.1423 -1.3603  0.0491
 4960TIP3    H236516   4.052   0.179   1.688 -0.9841  0.5388  0.8101
 4961TIP3   OH236517   5.888   6.134   1.061  0.2784 -0.5794  0.4729
 4961TIP3    H136518   5.896   6.223   1.097 -1.4968  0.4981 -1.5673
 4961TIP3    H236519   5.794   6.117   1.059  0.5409 -2.1433 -0.0650
 4962TIP3   OH236520   6.447   0.614   3.985  0.1338  0.3969 -0.4575
 4962TIP3    H136521   6.442   0.524   4.018  0.4431  0.7497  0.6148
 4962TIP3    H236522   6.356   0.643   3.980  0.0151 -0.0843 -1.1272
 4963TIP3   OH236523   5.268   3.366   2.473  0.4933 -0.3866  0.0223
 4963TIP3    H136524   5.221   3.288   2.445  0.9797 -0.1609 -1.4819
 4963TIP3    H236525   5.238   3.381   2.563 -3.7443  0.8170 -1.3798
 4964TIP3   OH236526   4.474   0.869   0.917 -0.6917 -0.7984  0.1622
 4964TIP3    H136527   4.527   0.848   0.840 -1.8070 -0.4274 -0.7338
 4964TIP3    H236528   4.398   0.812   0.910 -0.8867 -0.6471  0.9223
 4965TIP3   OH236529   4.916   2.888   4.572  0.5393 -0.8538  0.1470
 4965TIP3    H136530   5.004   2.911   4.541  0.5994 -0.9342  0.2541
 4965TIP3    H236531   4.932   2.836   4.651  0.4039 -1.3120 -0.1307
 4966TIP3   OH236532   3.960   4.775   3.706 -0.1928  0.1202 -0.0618
 4966TIP3    H136533   3.879   4.818   3.676 -0.8678 -1.7564 -1.1249
 4966TIP3    H236534   4.012   4.765   3.627  1.9592  2.8511  0.8582
 4967TIP3   OH236535   3.658   4.923   3.795 -0.3485 -0.2565 -0.2119
 4967TIP3    H136536   3.626   4.902   3.707 -0.1143  0.9958 -0.6100
 4967TIP3    H236537   3.753   4.925   3.786 -0.3450  0.4361 -0.0673
 4968TIP3   OH236538   1.508   4.047   3.610 -0.7059 -0.1154  0.6488
 4968TIP3    H136539   1.446   4.068   3.680  1.0583 -0.4258  2.4121
 4968TIP3    H236540   1.576   4.114   3.617 -0.5999 -0.0062 -0.9799
 4969TIP3   OH236541   3.819   4.251   4.542  0.2386 -0.7401 -0.1032
 4969TIP3    H136542   3.796   4.341   4.521  4.7483  0.6067 -0.2547
 4969TIP3    H236543   3.868   4.220   4.466  0.5097 -2.6009  0.7626
 4970TIP3   OH236544   4.104   6.537   2.603  0.3753  0.4963  0.1423
 4970TIP3    H136545   4.063   6.568   2.522  0.8627 -0.8564 -0.6514
 4970TIP3    H236546   4.130   6.447   2.584 -0.2632 -0.1433  2.0989
 4971TIP3   OH236547   2.627   5.618   3.126  0.5899 -0.2831 -0.1286
 4971TIP3    H136548   2.697   5.555   3.143  0.1353 -0.9522 -0.7433
 4971TIP3    H236549   2.648   5.655   3.041  0.4441 -0.1416 -0.1031
 4972TIP3   OH236550   4.620   2.939   3.317  0.4493 -0.1508  0.2081
 4972TIP3    H136551   4.574   2.860   3.344  0.8190  0.0486  1.4732
 4972TIP3    H236552   4.596   3.004   3.382  1.3860  0.3489  0.0725
 4973TIP3   OH236553   2.423   2.823   2.097  0.4328 -0.4058 -0.0555
 4973TIP3    H136554   2.499   2.879   2.111 -0.0487  0.6085 -1.3945
 4973TIP3    H236555   2.453   2.736   2.125  0.6326  0.7324  3.8692
 4974TIP3   OH236556   0.678   4.891   8.710 -0.8589 -0.2495  0.0106
 4974TIP3    H136557   0.730   4.971   8.704  2.2066 -1.9719  1.0534
 4974TIP3    H236558   0.621   4.893   8.633 -0.5571  2.6457 -0.2482
 4975TIP3   OH236559   3.090   0.210   5.009 -0.0914 -0.4911 -0.6305
 4975TIP3    H136560   3.023   0.148   4.979 -1.1620  0.5410 -0.4227
 4975TIP3    H236561   3.138   0.162   5.077 -1.0841 -1.0013 -0.2691
 4976TIP3   OH236562   0.880   1.146   0.918  0.1640  0.2718 -0.3918
 4976TIP3    H136563   0.790   1.122   0.895  0.6175 -0.4449 -1.4661
 4976TIP3    H236564   0.897   1.226   0.868  0.7763 -0.6863 -1.7834
 4977TIP3   OH236565   6.068   5.992   2.331 -0.2682 -0.5868 -0.9259
 4977TIP3    H136566   6.047   5.904   2.299  1.5121 -0.2333 -3.3541
 4977TIP3    H236567   6.009   6.050   2.283  1.0237 -0.2087 -2.1145
 4978TIP3   OH236568   6.628   0.205   4.287  0.2945  0.9007 -0.2071
 4978TIP3    H136569   6.671   0.217   4.372 -0.8739  0.6003  0.4497
 4978TIP3    H236570   6.552   0.263   4.290  0.1101  0.7124 -0.9609
 4979TIP3   OH236571   0.208   3.859   4.577  0.6523 -0.5563  0.5624
 4979TIP3    H136572   0.191   3.931   4.516 -0.5370 -0.4064  1.0598
 4979TIP3    H236573   0.299   3.834   4.559  0.2203 -0.7795 -1.5521
 4980TIP3   OH236574   4.420   6.679   1.741 -0.4152 -0.0901 -0.4489
 4980TIP3    H136575   4.415   6.585   1.756  1.0712 -0.0726  0.4031
 4980TIP3    H236576   4.332   6.705   1.715 -1.4072 -1.3498  1.4653
 4981TIP3   OH236577   4.290   5.967   0.418 -0.7050 -0.2106 -0.1590
 4981TIP3    H136578   4.317   5.896   0.476  0.0336 -0.4838 -0.8142
 4981TIP3    H236579   4.331   5.946   0.334 -0.2815  1.1216 -0.3062
 4982TIP3   OH236580   1.122   3.225   0.993  0.4405  0.0892  0.7782
 4982TIP3    H136581   1.095   3.170   0.919 -1.2714  0.3491  1.1669
 4982TIP3    H236582   1.212   3.196   1.012 -0.1069 -2.0078  0.4509
 4983TIP3   OH236583   1.359   1.224   3.251  0.0373  0.3820 -0.5529
 4983TIP3    H136584   1.301   1.150   3.267  0.1408  0.5715  0.7735
 4983TIP3    H236585   1.303   1.301   3.260  0.6159  0.6055  1.5537
 4984TIP3   OH236586   1.075   6.296   3.236  0.5291 -0.3260  0.5736
 4984TIP3    H136587   1.030   6.330   3.313 -0.8006 -0.6240 -0.0335
 4984TIP3    H236588   1.127   6.223   3.269  0.5815  0.0310  1.3027
 4985TIP3   OH236589   0.669   1.741   3.488  0.5544  0.0679 -0.2781
 4985TIP3    H136590   0.696   1.793   3.413 -1.6778  1.6951 -0.0503
 4985TIP3    H236591   0.649   1.806   3.556 -1.4896 -1.0927  0.3108
 4986TIP3   OH236592   2.454   4.187   1.737  0.3788 -0.1047 -0.0387
 4986TIP3    H136593   2.458   4.117   1.673  0.6411  0.6398 -0.8663
 4986TIP3    H236594   2.374   4.234   1.716  0.5917  0.2912  0.0152
 4987TIP3   OH236595   4.899   3.453   3.235  0.2227  0.0141 -0.2540
 4987TIP3    H136596   4.950   3.412   3.165  0.9798  3.2056 -1.7535
 4987TIP3    H236597   4.818   3.481   3.193 -0.4335 -0.2715  0.7911
 4988TIP3   OH236598   0.204   4.390   0.685  0.1026 -0.2386 -0.6854
 4988TIP3    H136599   0.136   4.327   0.659 -1.5258  1.2632 -0.2739
 4988TIP3    H236600   0.174   4.473   0.650  1.8966  0.4459 -0.6848
 4989TIP3   OH236601   2.840   2.286   3.638  0.3620 -0.4144 -0.3402
 4989TIP3    H136602   2.851   2.193   3.617  0.7308 -0.5140  0.2674
 4989TIP3    H236603   2.930   2.319   3.643  0.2431 -0.1364 -0.0703
 4990TIP3   OH236604   0.839   4.564   2.403 -0.3092  0.5583  0.7129
 4990TIP3    H136605   0.850   4.469   2.410 -1.2391  0.5476  2.6389
 4990TIP3    H236606   0.924   4.595   2.371 -0.9708 -1.1449 -3.2324
 4991TIP3   OH236607   1.705   6.261   1.683 -0.4892 -0.2477  0.2870
 4991TIP3    H136608   1.779   6.320   1.696  0.0334 -0.2552 -2.1232
 4991TIP3    H236609   1.744   6.180   1.650 -1.5418  0.4620 -3.2051
 4992TIP3   OH236610   0.435   0.731   4.285  0.3271 -0.3454 -0.1165
 4992TIP3    H136611   0.401   0.705   4.200  0.8340 -1.7563  0.0826
 4992TIP3    H236612   0.509   0.789   4.266  0.6007 -0.8627 -0.6541
 4993TIP3   OH236613   0.467   2.139   4.488  0.2660 -0.6912 -0.1596
 4993TIP3    H136614   0.518   2.136   4.570  2.5531 -0.1301 -1.4744
 4993TIP3    H236615   0.494   2.061   4.440 -0.3351 -0.5239 -0.7834
 4994TIP3   OH236616   5.799   6.795   2.137  0.5995  0.2057 -0.5355
 4994TIP3    H136617   5.812   6.887   2.161 -2.4953  0.1396  2.0798
 4994TIP3    H236618   5.860   6.747   2.192 -0.1429  0.5951  0.6850
 4995TIP3   OH236619   6.000   0.017   1.634  0.2078  0.0784 -0.1702
 4995TIP3    H136620   5.937   0.005   1.705  1.0966 -0.5151  0.5456
 4995TIP3    H236621   5.947   0.039   1.558 -0.8691 -0.5254  0.3888
 4996TIP3   OH236622   5.520   2.553   1.765 -0.6052  0.0225 -0.0807
 4996TIP3    H136623   5.436   2.527   1.802 -0.2630  1.5247  1.9423
 4996TIP3    H236624   5.567   2.471   1.750 -0.8353 -0.7296  2.8237
 4997TIP3   OH236625   1.055   2.558   2.666  0.2403 -0.2499  0.3257
 4997TIP3    H136626   1.070   2.652   2.653 -0.1497  0.0722  1.9931
 4997TIP3    H236627   1.137   2.525   2.702 -0.2868 -0.0976  1.7387
 4998TIP3   OH236628   3.372   5.015   1.314  0.9114 -0.2252  0.2544
 4998TIP3    H136629   3.423   5.046   1.239  0.8259 -0.0622  0.2625
 4998TIP3    H236630   3.314   4.948   1.277  2.0550 -1.3718  0.4886
 4999TIP3   OH236631   0.738   3.924   2.886 -0.4652 -0.3385 -0.0071
 4999TIP3    H136632   0.763   3.831   2.887  0.8375 -0.0228 -0.4727
 4999TIP3    H236633   0.817   3.969   2.916 -0.3651  0.7480 -1.7435
 5000TIP3   OH236634   2.311   1.983   0.245  0.3494 -0.0890  0.1275
 5000TIP3    H136635   2.375   2.001   0.175  1.0834  1.4783  1.1470
 5000TIP3    H236636   2.349   2.023   0.323 -0.4033 -1.9096  1.4861
 5001TIP3   OH236637   3.106   5.841   2.487  0.0876 -0.0749  0.1027
 5001TIP3    H136638   3.027   5.893   2.472 -0.0215 -0.3184 -0.1970
 5001TIP3    H236639   3.086   5.789   2.564 -0.4446 -0.8827 -0.5599
 5002TIP3   OH236640   4.280   3.605   4.758  0.1950 -0.0621 -0.1070
 5002TIP3    H136641   4.231   3.531   4.721 -0.9309  1.7533 -2.5818
 5002TIP3    H236642   4.370   3.591   4.729  0.5104 -1.5847  1.4358
 5003TIP3   OH236643   0.402   2.814   1.630  0.9616  0.2165  0.1905
 5003TIP3    H136644   0.486   2.859   1.633  0.9215  0.2681  0.9668
 5003TIP3    H236645   0.374   2.812   1.722 -0.1366  0.7016 -0.1134
 5004TIP3   OH236646   6.469   3.208   3.590  0.1822 -0.4802  0.1675
 5004TIP3    H136647   6.383   3.167   3.592 -0.3957  0.7069  1.1646
 5004TIP3    H236648   6.488   3.226   3.682  1.2983 -0.3137 -0.0825
 5005TIP3   OH236649   5.690   4.237   1.126  0.0819  0.9155 -0.0928
 5005TIP3    H136650   5.644   4.177   1.185  0.6960  1.4108  0.8937
 5005TIP3    H236651   5.708   4.183   1.048  0.3561 -0.1009  0.6551
 5006TIP3   OH236652   2.102   5.327   2.347  0.3013 -0.2785  0.1168
 5006TIP3    H136653   2.108   5.341   2.253 -1.9061 -1.6374 -0.2862
 5006TIP3    H236654   2.169   5.262   2.366 -0.0760 -0.9257 -0.7433
 5007TIP3   OH236655   0.780   1.455   2.457  0.4168 -0.8175  0.2639
 5007TIP3    H136656   0.868   1.485   2.435  0.1484 -1.2317 -1.4911
 5007TIP3    H236657   0.793   1.366   2.491  0.7335 -0.5701  0.8099
 5008TIP3   OH236658   1.341   0.725   1.719  0.1772  0.2285  0.2017
 5008TIP3    H136659   1.367   0.730   1.627  1.2549  1.0855  0.5313
 5008TIP3    H236660   1.245   0.728   1.717  0.1033 -1.5379 -0.9728
 5009TIP3   OH236661   1.762   4.071   1.757  0.2714 -0.0600 -0.1411
 5009TIP3    H136662   1.850   4.072   1.719  1.1642 -0.0721  1.8098
 5009TIP3    H236663   1.730   4.161   1.747  0.9041  0.1830 -0.0085
 5010TIP3   OH236664   4.176   2.995   2.211  0.0987  0.2024 -0.6889
 5010TIP3    H136665   4.124   3.025   2.137  0.9629  0.1810 -1.3217
 5010TIP3    H236666   4.237   3.068   2.229 -0.4236  0.4123  0.3214
 5011TIP3   OH236667   0.261   3.918   4.299  0.4147 -0.4234  0.8970
 5011TIP3    H136668   0.343   3.870   4.288  0.8188  0.5463 -0.5819
 5011TIP3    H236669   0.192   3.854   4.281  0.8501 -1.0674  1.4751
 5012TIP3   OH236670   0.523   2.186   1.952 -0.1349 -0.1583  0.3168
 5012TIP3    H136671   0.485   2.098   1.949 -0.7269  0.0918  0.2709
 5012TIP3    H236672   0.574   2.187   2.032  2.1039 -1.4177 -0.9902
 5013TIP3   OH236673   4.891   6.521   2.783 -0.1332  0.1790  0.4239
 5013TIP3    H136674   4.795   6.521   2.778 -0.2337 -1.0670  1.7497
 5013TIP3    H236675   4.910   6.489   2.871  1.5258 -3.2231 -0.9887
 5014TIP3   OH236676   1.653   6.234   0.202 -0.1518  0.4995  0.1304
 5014TIP3    H136677   1.736   6.256   0.243 -0.5338  3.1503 -0.3274
 5014TIP3    H236678   1.678   6.201   0.115  0.4485 -0.0656  0.5057
 5015TIP3   OH236679   5.991   1.962   8.437  0.2472 -0.0290 -0.8663
 5015TIP3    H136680   5.899   1.936   8.439  0.0944  0.5554  0.0230
 5015TIP3    H236681   6.022   1.945   8.526  0.9320  0.0426 -1.0869
 5016TIP3   OH236682   1.815   5.084   0.040  0.2096  0.1612 -0.4509
 5016TIP3    H136683   1.862   5.002   0.053 -0.0720  0.1384  0.4582
 5016TIP3    H236684   1.744   5.082   0.104  0.2591  1.1525 -0.3443
 5017TIP3   OH236685   1.389   2.984   8.788 -0.2207 -0.2327 -0.2336
 5017TIP3    H136686   1.391   2.952   8.878 -1.3501 -1.4544 -0.6059
 5017TIP3    H236687   1.310   3.037   8.783 -0.3867 -0.5066 -0.6003
 5018TIP3   OH236688   1.236   1.125   2.152  0.2273  0.2302 -0.0785
 5018TIP3    H136689   1.221   1.057   2.217 -0.1403  0.4364  0.0557
 5018TIP3    H236690   1.306   1.090   2.097 -0.9614 -0.9292 -0.9253
 5019TIP3   OH236691   1.887   6.446   3.873 -0.2791 -0.3090  0.3154
 5019TIP3    H136692   1.919   6.491   3.951 -0.4788 -1.4108  1.0682
 5019TIP3    H236693   1.792   6.438   3.888 -0.3705 -0.2069 -0.2065
 5020TIP3   OH236694   5.218   1.927   0.765 -0.1464  0.0424 -0.0545
 5020TIP3    H136695   5.248   1.983   0.836  1.1666  1.1808 -1.4445
 5020TIP3    H236696   5.296   1.881   0.736 -0.5752 -0.0958 -1.0226
 5021TIP3   OH236697   0.795   1.560   1.617  0.4150  0.9630 -0.2036
 5021TIP3    H136698   0.846   1.631   1.655  0.7011  1.0527 -0.7526
 5021TIP3    H236699   0.716   1.602   1.584 -0.2782  0.7500  1.1105
 5022TIP3   OH236700   1.712   5.041   3.095 -0.3201 -0.0828 -0.0205
 5022TIP3    H136701   1.669   5.127   3.103  0.3153  0.2151  0.3129
 5022TIP3    H236702   1.804   5.059   3.117 -0.1024 -0.7772 -0.3572
 5023TIP3   OH236703   0.486   3.505   0.662  0.0714 -0.2383 -0.3894
 5023TIP3    H136704   0.406   3.517   0.713  1.1360  1.7518  0.9669
 5023TIP3    H236705   0.471   3.555   0.582  0.2981  1.0197  0.3237
 5024TIP3   OH236706   5.285   2.990   0.934  0.6782  0.8125  0.7977
 5024TIP3    H136707   5.319   2.917   0.882 -0.4733  1.5774 -1.1311
 5024TIP3    H236708   5.363   3.038   0.960  1.3354  0.0631  0.2772
 5025TIP3   OH236709   2.650   1.246   0.921  0.2264 -0.0903 -0.1596
 5025TIP3    H136710   2.558   1.255   0.896  0.1215  0.8601  0.5023
 5025TIP3    H236711   2.698   1.293   0.853  0.0704  0.9564  0.4216
 5026TIP3   OH236712   4.469   4.201   4.960 -0.2320  0.4563 -0.6689
 5026TIP3    H136713   4.541   4.226   4.901  0.0832 -1.4305 -1.1277
 5026TIP3    H236714   4.424   4.284   4.978  0.8984  1.3903 -1.9121
 5027TIP3   OH236715   0.086   0.419   2.278  0.0350 -0.5474  0.5767
 5027TIP3    H136716  -0.003   0.421   2.315 -0.1762 -0.8568  0.0989
 5027TIP3    H236717   0.130   0.494   2.317 -0.9240  0.5593 -0.3646
 5028TIP3   OH236718   3.985   5.078   2.082  0.3384 -0.1206 -0.1552
 5028TIP3    H136719   3.955   5.090   2.172  1.3954  1.3266  0.0506
 5028TIP3    H236720   4.038   5.156   2.065 -0.0540 -0.2433 -2.1254
 5029TIP3   OH236721   1.659   3.508   0.702 -0.5288 -0.3998  0.1130
 5029TIP3    H136722   1.740   3.464   0.676 -0.2433  0.4313 -0.4639
 5029TIP3    H236723   1.639   3.567   0.629 -1.2464 -0.0478  0.5749
 5030TIP3   OH236724   3.023   5.043   2.747 -0.1343  0.3066 -0.4037
 5030TIP3    H136725   2.938   4.998   2.741 -0.3689  0.7908 -0.7577
 5030TIP3    H236726   3.006   5.131   2.713  0.4099  0.5459 -0.0647
 5031TIP3   OH236727   4.282   2.481   2.574 -0.2767  0.4945 -0.3620
 5031TIP3    H136728   4.320   2.405   2.618 -0.6780  1.1526  1.1570
 5031TIP3    H236729   4.346   2.503   2.506  1.0349  0.2747  0.7594
 5032TIP3   OH236730   2.570   3.908   2.668  0.2940  0.6001  0.0461
 5032TIP3    H136731   2.528   3.933   2.750  0.5160 -2.3148  1.1370
 5032TIP3    H236732   2.662   3.933   2.680  0.0112  1.8131 -0.1021
 5033TIP3   OH236733   6.248   1.173   1.663 -0.2989  0.2677 -0.1537
 5033TIP3    H136734   6.288   1.193   1.579 -0.7879 -1.8990 -0.9808
 5033TIP3    H236735   6.315   1.124   1.710  0.1445  1.8715  0.9580
 5034TIP3   OH236736   4.437   0.563   3.368  0.7076  0.7454  0.1794
 5034TIP3    H136737   4.486   0.488   3.334 -0.9809 -0.3308 -0.0157
 5034TIP3    H236738   4.373   0.524   3.428 -0.9463  1.8810 -0.7535
 5035TIP3   OH236739   1.335   0.213   2.750 -0.1240  0.0292 -0.0947
 5035TIP3    H136740   1.256   0.247   2.709  0.3245  0.7843 -0.3408
 5035TIP3    H236741   1.333   0.249   2.839 -0.4325 -0.5591  0.1433
 5036TIP3   OH236742   0.940   3.813   1.548 -0.6876  0.6491 -0.5820
 5036TIP3    H136743   1.022   3.859   1.568 -0.8983 -0.1722  2.7721
 5036TIP3    H236744   0.966   3.721   1.542 -1.3382  0.3172  1.0304
 5037TIP3   OH236745   6.819   5.061   0.761 -0.4098  0.0378  0.2821
 5037TIP3    H136746   6.837   4.984   0.814  1.1656 -1.3582 -2.1042
 5037TIP3    H236747   6.829   5.135   0.822 -0.4383 -1.5225  2.2738
 5038TIP3   OH236748   4.295   6.148   2.324 -0.0394 -0.3203 -0.1504
 5038TIP3    H136749   4.228   6.080   2.318  1.2093 -1.7818  1.3248
 5038TIP3    H236750   4.293   6.176   2.416  0.6698  0.3497 -0.3202
 5039TIP3   OH236751   0.978   1.865   3.530  0.3277 -0.0905  0.5703
 5039TIP3    H136752   1.061   1.894   3.492 -1.2027  2.4197 -1.1681
 5039TIP3    H236753   0.928   1.831   3.455 -0.3524 -1.2474  1.5229
 5040TIP3   OH236754   0.397   0.312   3.912  0.5376  0.1689 -0.0450
 5040TIP3    H136755   0.459   0.373   3.953  0.7996  0.1937 -0.4680
 5040TIP3    H236756   0.451   0.260   3.853  0.7356 -1.9994  1.9158
 5041TIP3   OH236757   1.071   1.154   8.567 -0.3758 -0.0560  0.1630
 5041TIP3    H136758   1.025   1.130   8.487  1.0524  0.1750 -0.7555
 5041TIP3    H236759   1.160   1.122   8.555  0.1262  0.8416  1.2457
 5042TIP3   OH236760   0.627   1.800   2.280  0.0654 -0.0958  0.2131
 5042TIP3    H136761   0.634   1.758   2.366 -1.6046 -1.0268 -0.0630
 5042TIP3    H236762   0.533   1.808   2.265  0.3015 -0.5065 -1.7911
 5043TIP3   OH236763   6.710   4.195   3.375  0.0666  0.0550  0.1495
 5043TIP3    H136764   6.746   4.265   3.320  0.8892  1.0002  1.8041
 5043TIP3    H236765   6.765   4.119   3.356  0.0052  0.2110 -0.6967
 5044TIP3   OH236766   5.994   1.409   1.230 -0.1892 -0.5200 -0.1340
 5044TIP3    H136767   5.976   1.437   1.320  1.1266  0.7775 -0.2470
 5044TIP3    H236768   5.945   1.470   1.175  0.4608 -0.1709 -0.3318
 5045TIP3   OH236769   4.026   6.736   3.236 -0.4179 -0.3962  0.0275
 5045TIP3    H136770   4.019   6.813   3.292 -0.3756 -0.9213  0.7775
 5045TIP3    H236771   4.038   6.771   3.148 -2.3380  0.4744  0.0648
 5046TIP3   OH236772   3.869   1.911   1.482  0.0071 -0.3510 -0.4662
 5046TIP3    H136773   3.886   1.874   1.569 -0.3633 -1.8554 -1.0041
 5046TIP3    H236774   3.789   1.961   1.492 -1.3716 -2.4528 -0.4252
 5047TIP3   OH236775   5.294   4.629   1.039 -0.4091  0.0083  0.1932
 5047TIP3    H136776   5.256   4.663   1.120  1.5546  2.2190  0.2942
 5047TIP3    H236777   5.291   4.704   0.979  4.1808  0.6484  0.4172
 5048TIP3   OH236778   5.582   5.345   2.507  0.0194  0.6706  0.2114
 5048TIP3    H136779   5.518   5.329   2.576  0.1074  2.0777  0.6492
 5048TIP3    H236780   5.543   5.306   2.429 -0.4151 -0.2917  0.8856
 5049TIP3   OH236781   1.243   2.145   2.522  0.1806 -0.9077 -0.5015
 5049TIP3    H136782   1.198   2.141   2.607  0.6121 -1.0652 -0.2779
 5049TIP3    H236783   1.307   2.074   2.525 -0.0250 -1.1259 -1.0944
 5050TIP3   OH236784   3.117   5.014   0.676  0.2010  0.2411 -0.0366
 5050TIP3    H136785   3.055   4.942   0.661 -0.8769  0.9601  0.7751
 5050TIP3    H236786   3.152   5.034   0.589 -0.7731 -0.1388 -0.5329
 5051TIP3   OH236787   3.754   5.076   4.160 -0.0229 -0.0666 -1.0326
 5051TIP3    H136788   3.729   5.168   4.171 -2.6108 -0.8101  0.1877
 5051TIP3    H236789   3.780   5.048   4.248 -2.4400 -1.2479 -0.6022
 5052TIP3   OH236790   0.724   0.349   3.767 -0.0058  0.5299  0.3581
 5052TIP3    H136791   0.669   0.425   3.746  1.0704  1.2275 -0.0104
 5052TIP3    H236792   0.720   0.295   3.688  0.8342  1.2096 -0.1791
 5053TIP3   OH236793   2.616   0.346   4.300 -0.8589  0.3034  0.9158
 5053TIP3    H136794   2.657   0.379   4.381 -0.4795  0.2971  0.7309
 5053TIP3    H236795   2.637   0.253   4.300 -1.9758  0.0341  1.4656
 5054TIP3   OH236796   0.665   6.553   0.455 -0.1849  0.3390  0.3057
 5054TIP3    H136797   0.634   6.530   0.367  0.6289  0.4803 -0.0270
 5054TIP3    H236798   0.585   6.576   0.503 -0.7292 -0.4879 -0.1642
 5055TIP3   OH236799   0.296   2.955   0.200  0.2822 -0.3674  0.5004
 5055TIP3    H136800   0.231   2.939   0.131 -0.1459 -0.7809  0.9911
 5055TIP3    H236801   0.380   2.941   0.156 -0.0139 -3.4528  0.6878
 5056TIP3   OH236802   3.184   6.390   0.896 -0.3311 -0.2520 -0.1790
 5056TIP3    H136803   3.140   6.467   0.932 -1.1349 -0.3215 -0.9858
 5056TIP3    H236804   3.274   6.417   0.883 -0.6257  0.5723 -0.5256
 5057TIP3   OH236805   5.479   2.450   3.957  0.2183  0.2807  0.1952
 5057TIP3    H136806   5.433   2.399   3.889  1.7116 -0.6910 -0.1266
 5057TIP3    H236807   5.459   2.405   4.038 -1.8560  1.6429  0.5178
 5058TIP3   OH236808   6.094   6.378   2.571  0.0120 -0.2225 -0.2257
 5058TIP3    H136809   6.147   6.457   2.585  0.2175 -0.4453  0.3007
 5058TIP3    H236810   6.031   6.379   2.643 -2.2402  1.2488 -2.1066
 5059TIP3   OH236811   6.566   3.108   2.579  0.1690  0.1998  0.2812
 5059TIP3    H136812   6.607   3.175   2.524 -1.3270  0.4512 -0.5693
 5059TIP3    H236813   6.478   3.141   2.595 -0.0033 -0.7328  1.3621
 5060TIP3   OH236814   6.170   6.209   0.221  0.6847  0.2414  0.2544
 5060TIP3    H136815   6.196   6.150   0.149  1.1274  0.4489  0.2378
 5060TIP3    H236816   6.253   6.240   0.257  0.4998 -0.5891  1.4705
 5061TIP3   OH236817   1.910   1.116   3.646  0.1987  0.1934 -0.4611
 5061TIP3    H136818   1.964   1.120   3.567  0.8727  0.0566 -0.0171
 5061TIP3    H236819   1.952   1.178   3.706  0.3474 -0.5153  0.1767
 5062TIP3   OH236820   4.847   3.862   3.373  0.0122  0.1060  0.2858
 5062TIP3    H136821   4.783   3.794   3.394  1.3886 -0.5853  2.5833
 5062TIP3    H236822   4.931   3.825   3.398  1.3295  1.1846 -2.1459
 5063TIP3   OH236823   1.418   4.969   3.856 -0.6498  0.2706  0.4884
 5063TIP3    H136824   1.394   5.042   3.799 -1.0857 -0.6361 -0.5443
 5063TIP3    H236825   1.398   4.999   3.944 -2.2486  0.8745 -0.0428
 5064TIP3   OH236826   2.791   1.658   4.539  0.1460 -0.0350  0.6159
 5064TIP3    H136827   2.835   1.574   4.548  1.2483  0.4355 -0.1893
 5064TIP3    H236828   2.816   1.689   4.452 -0.5023  0.9838  0.7764
 5065TIP3   OH236829   6.814   0.387   4.102  0.1895  0.5194 -0.1477
 5065TIP3    H136830   6.782   0.458   4.047 -0.2780  0.9088  0.6064
 5065TIP3    H236831   6.761   0.392   4.181 -0.5706 -1.3287 -0.4956
 5066TIP3   OH236832   0.249   6.236   2.770 -0.3332  0.0242 -0.4882
 5066TIP3    H136833   0.296   6.195   2.843  2.6329  3.1315 -0.3931
 5066TIP3    H236834   0.274   6.184   2.693  1.9430  0.5051 -0.1481
 5067TIP3   OH236835   3.241   4.013   2.804  0.5454 -0.3301  0.2257
 5067TIP3    H136836   3.316   4.061   2.841  1.1422 -0.9465 -0.1688
 5067TIP3    H236837   3.261   4.005   2.711 -1.1305  1.5421 -0.3728
 5068TIP3   OH236838   1.371   5.977   0.691 -0.2753 -0.1461  0.3120
 5068TIP3    H136839   1.340   6.056   0.734  0.4648  0.5480 -0.4072
 5068TIP3    H236840   1.293   5.938   0.652 -0.6493  0.1880  0.7204
 5069TIP3   OH236841   5.848   4.046   5.132 -0.0709 -0.4277 -0.1414
 5069TIP3    H136842   5.902   3.987   5.080 -1.4660 -0.5378 -1.5500
 5069TIP3    H236843   5.879   4.134   5.109  0.1316 -0.5209 -0.2246
 5070TIP3   OH236844   0.276   6.399   1.797 -0.2566 -0.4782  0.9443
 5070TIP3    H136845   0.212   6.466   1.776 -0.1737 -0.6926 -0.0099
 5070TIP3    H236846   0.253   6.372   1.886 -1.4924 -0.5618  0.6201
 5071TIP3   OH236847   0.954   2.135   0.673  0.1996  0.2071  0.0370
 5071TIP3    H136848   0.919   2.122   0.585  0.9765 -1.1707 -0.1036
 5071TIP3    H236849   1.011   2.059   0.687 -0.2535  0.1695  1.9091
 5072TIP3   OH236850   4.406   6.713   0.186 -0.2344 -0.5267  0.3496
 5072TIP3    H136851   4.382   6.663   0.264  1.2197 -0.8796  0.5984
 5072TIP3    H236852   4.502   6.719   0.190 -0.0691 -1.0791 -1.7110
 5073TIP3   OH236853   5.617   2.186   4.245  0.1023  0.0966  0.5053
 5073TIP3    H136854   5.691   2.150   4.196 -0.6225  2.2165 -2.4748
 5073TIP3    H236855   5.584   2.113   4.297  2.1926 -1.8152 -0.6746
 5074TIP3   OH236856   0.714   1.192   1.996  0.4066 -0.1123 -0.3847
 5074TIP3    H136857   0.779   1.246   2.042 -1.5516  1.9888  0.0821
 5074TIP3    H236858   0.695   1.241   1.916  1.6153 -2.2932 -2.1333
 5075TIP3   OH236859   2.197   5.980   3.166 -0.3262  1.1505 -0.0204
 5075TIP3    H136860   2.274   6.026   3.197 -0.0132  0.5607  0.0980
 5075TIP3    H236861   2.150   5.955   3.246  1.1847 -1.5793  0.1311
 5076TIP3   OH236862   6.215   4.690   3.265  0.1678  0.3460 -0.2435
 5076TIP3    H136863   6.279   4.711   3.333 -0.5755  0.2852  0.4868
 5076TIP3    H236864   6.130   4.701   3.307 -0.3060  0.1571 -1.1210
 5077TIP3   OH236865   3.073   5.586   0.832 -0.2888  0.6545  0.1921
 5077TIP3    H136866   3.013   5.555   0.765 -0.6969  1.3024  0.2511
 5077TIP3    H236867   3.142   5.519   0.836 -0.5147  0.3752 -0.5249
 5078TIP3   OH236868   3.673   3.587   5.041  0.2612  0.2785 -0.4024
 5078TIP3    H136869   3.719   3.506   5.019  1.8012  0.6968  1.0283
 5078TIP3    H236870   3.592   3.559   5.082  1.1306 -0.5958  0.8080
 5079TIP3   OH236871   0.972   3.102   4.621  0.1932  0.2477 -0.2793
 5079TIP3    H136872   0.996   3.023   4.669  0.8667 -0.9689 -2.4573
 5079TIP3    H236873   0.880   3.090   4.599 -0.1796  0.9149  0.8647
 5080TIP3   OH236874   3.680   3.253   3.437 -0.6445  0.2024 -0.3519
 5080TIP3    H136875   3.713   3.192   3.503 -0.0132  0.9854  0.0724
 5080TIP3    H236876   3.584   3.246   3.444 -0.5882  0.3959  0.7587
 5081TIP3   OH236877   0.046   5.263   3.209  0.3080  0.2350  0.0225
 5081TIP3    H136878  -0.006   5.187   3.237 -0.1725  0.6646  0.3122
 5081TIP3    H236879  -0.011   5.308   3.146  0.4423  0.5668  0.1410
 5082TIP3   OH236880   1.666   6.600   8.871  0.0251  0.0003  0.0740
 5082TIP3    H136881   1.673   6.670   8.936 -0.9451 -0.3007  0.5179
 5082TIP3    H236882   1.756   6.584   8.843  0.1194  2.6732 -1.4160
 5083TIP3   OH236883   1.602   3.442   2.176 -0.3535 -0.2863  0.5497
 5083TIP3    H136884   1.532   3.507   2.185 -1.0825 -0.6155 -2.0604
 5083TIP3    H236885   1.575   3.371   2.234 -0.9096  0.6048  1.4255
 5084TIP3   OH236886   6.708   6.496   2.708 -0.5641  0.7877 -0.0389
 5084TIP3    H136887   6.684   6.515   2.798 -1.3776  1.3107 -0.3586
 5084TIP3    H236888   6.637   6.532   2.655 -0.1394  0.4260 -0.8899
 5085TIP3   OH236889   2.173   6.029   3.916 -0.5446  0.2274 -0.0745
 5085TIP3    H136890   2.156   5.994   3.828  1.4908  0.2547 -0.5411
 5085TIP3    H236891   2.149   6.121   3.910  1.3819  0.7093 -1.2533
 5086TIP3   OH236892   6.200   2.631   2.035 -0.1960  0.3280  0.5101
 5086TIP3    H136893   6.264   2.560   2.043 -0.1481  0.5654  3.1277
 5086TIP3    H236894   6.196   2.669   2.122 -0.5490  3.3036 -0.6881
 5087TIP3   OH236895   6.382   5.731   1.746  0.8376 -0.3096 -0.2970
 5087TIP3    H136896   6.406   5.818   1.778  1.5577 -1.1691  1.6003
 5087TIP3    H236897   6.466   5.690   1.723  0.6847 -1.1373  0.5597
 5088TIP3   OH236898   0.443   1.001   3.361 -0.1399  0.2260 -0.6759
 5088TIP3    H136899   0.424   1.090   3.392 -1.4883 -0.5955  1.0015
 5088TIP3    H236900   0.532   0.984   3.389 -0.5867  0.3217  0.8975
 5089TIP3   OH236901   0.585   1.110   1.044 -0.1052  0.0626 -0.9507
 5089TIP3    H136902   0.641   1.127   1.120 -0.2082  1.1657 -1.1113
 5089TIP3    H236903   0.577   1.015   1.041 -0.8725  0.0275  0.9984
 5090TIP3   OH236904   0.956   1.208   2.155 -0.4580 -0.6781  0.6366
 5090TIP3    H136905   0.932   1.215   2.247  0.3940 -0.0559  0.8275
 5090TIP3    H236906   1.052   1.215   2.155 -0.3146 -2.2104 -0.1587
 5091TIP3   OH236907   1.688   1.246   3.498  0.5304 -0.3977  0.1184
 5091TIP3    H136908   1.696   1.277   3.407  0.0540  1.5622  0.6889
 5091TIP3    H236909   1.778   1.247   3.531  0.3762  3.3875  0.9457
 5092TIP3   OH236910   1.354   3.474   1.090  0.2771 -0.1882  0.3544
 5092TIP3    H136911   1.442   3.476   1.053 -0.8394  2.4352 -2.6304
 5092TIP3    H236912   1.320   3.388   1.065  1.7302 -0.9807  0.9814
 5093TIP3   OH236913   5.324   0.018   3.851  0.0109  0.3082 -0.1039
 5093TIP3    H136914   5.399   0.008   3.792  0.3014 -0.4258  0.3730
 5093TIP3    H236915   5.289   0.104   3.831  0.6668  0.4440 -0.7064
 5094TIP3   OH236916   0.715   1.067   0.330  0.4950  0.1872  0.2842
 5094TIP3    H136917   0.802   1.096   0.359  0.5258  2.1814 -1.5420
 5094TIP3    H236918   0.722   1.065   0.235 -1.8375  1.7593  0.0138
 5095TIP3   OH236919   1.588   1.450   4.552 -0.5561 -0.1122 -0.0067
 5095TIP3    H136920   1.571   1.460   4.646  2.8536 -0.5532  0.8010
 5095TIP3    H236921   1.592   1.356   4.538  0.3244 -0.0512 -0.2457
 5096TIP3   OH236922   1.643   4.660   3.888  0.4426  0.1263  0.1626
 5096TIP3    H136923   1.634   4.747   3.927  0.5197  0.6118 -0.8672
 5096TIP3    H236924   1.707   4.615   3.944  0.8979  0.9637  0.3304
 5097TIP3   OH236925   2.703   1.224   1.863 -0.4667 -0.4213 -0.6266
 5097TIP3    H136926   2.734   1.294   1.921  0.9518 -0.4973 -1.2638
 5097TIP3    H236927   2.695   1.266   1.777 -0.4966 -0.8186 -0.8170
 5098TIP3   OH236928   6.276   6.607   2.381 -0.0145  0.3261  0.4146
 5098TIP3    H136929   6.264   6.597   2.476 -2.4868  1.5334  0.2933
 5098TIP3    H236930   6.301   6.520   2.351 -0.3262 -0.3536  2.0153
 5099TIP3   OH236931   0.422   4.637   0.891  0.1103 -0.0607  0.0184
 5099TIP3    H136932   0.510   4.627   0.928 -0.3271  1.1720  1.5158
 5099TIP3    H236933   0.367   4.580   0.945  0.1240 -1.7738 -1.6747
 5100TIP3   OH236934   4.146   3.564   1.868  0.0216 -0.2533  0.3939
 5100TIP3    H136935   4.162   3.487   1.922 -0.9528 -1.3182 -0.7810
 5100TIP3    H236936   4.165   3.536   1.778 -0.6466  0.7684 -0.0926
 5101TIP3   OH236937   0.592   0.504   2.827  0.5075  0.8095  0.6997
 5101TIP3    H136938   0.598   0.597   2.849  0.3427  0.6851  1.3019
 5101TIP3    H236939   0.516   0.473   2.877 -0.2945  0.6417 -0.5752
 5102TIP3   OH236940   1.122   5.608   4.794 -0.7341  0.3509 -0.3807
 5102TIP3    H136941   1.163   5.566   4.718 -2.0396 -1.4426 -0.1804
 5102TIP3    H236942   1.042   5.647   4.760 -1.4636 -0.6922  0.0627
 5103TIP3   OH236943   0.412   6.381   3.210 -0.0331  0.2651 -0.1428
 5103TIP3    H136944   0.337   6.420   3.165 -0.1133 -0.3134 -0.5246
 5103TIP3    H236945   0.487   6.433   3.182 -0.2159  0.4825 -0.2252
 5104TIP3   OH236946   0.454   5.478   3.489 -0.2865  0.3446 -0.1767
 5104TIP3    H136947   0.379   5.534   3.469  0.6604  1.6124 -0.3701
 5104TIP3    H236948   0.528   5.540   3.497  1.1714 -1.0019 -2.1608
 5105TIP3   OH236949   4.058   6.275   0.860 -0.1173  0.7417  0.3639
 5105TIP3    H136950   3.997   6.227   0.916  2.5944 -0.5168  2.5220
 5105TIP3    H236951   4.035   6.367   0.874 -2.0112  0.3117  0.4006
 5106TIP3   OH236952   6.781   1.747   1.142  0.9417 -0.2777  0.5729
 5106TIP3    H136953   6.840   1.678   1.171  1.2645  0.1821  1.0314
 5106TIP3    H236954   6.784   1.812   1.212  1.3465  0.6222 -0.2609
 5107TIP3   OH236955   0.626   2.418   3.536 -0.1994 -0.7336 -0.3315
 5107TIP3    H136956   0.573   2.491   3.503  1.5077  0.4871 -0.5050
 5107TIP3    H236957   0.600   2.410   3.628  1.8022  2.3017  0.6447
 5108TIP3   OH236958   1.117   2.081   1.094  0.0799 -0.0703 -0.6780
 5108TIP3    H136959   1.049   2.106   1.032 -0.8470  0.5326  0.5268
 5108TIP3    H236960   1.140   1.991   1.070 -2.0486 -0.7439 -0.3630
 5109TIP3   OH236961   4.884   1.064   0.523  0.3695  0.3429 -0.2503
 5109TIP3    H136962   4.936   1.105   0.454  0.0403 -0.0426 -0.7363
 5109TIP3    H236963   4.809   1.027   0.477  0.3355 -0.2401  0.2608
 5110TIP3   OH236964   3.008   5.975   3.833 -0.3165  0.1449 -0.7717
 5110TIP3    H136965   3.041   6.047   3.780 -0.3468  0.4172 -0.4261
 5110TIP3    H236966   2.952   6.017   3.899 -0.0468 -0.1599 -0.3416
 5111TIP3   OH236967   3.933   2.806   2.375 -0.5406 -0.4462 -0.2123
 5111TIP3    H136968   3.903   2.780   2.288 -2.3125  4.1999 -1.3088
 5111TIP3    H236969   3.855   2.798   2.430 -1.1526  2.0578 -0.5945
 5112TIP3   OH236970   1.151   2.496   1.158 -0.0456  0.4265  0.1211
 5112TIP3    H136971   1.072   2.451   1.128 -0.1018 -1.1073  2.2891
 5112TIP3    H236972   1.209   2.425   1.188  0.6433  1.6777  1.9426
 5113TIP3   OH236973   6.391   0.814   3.572  0.5335  0.4434 -0.3451
 5113TIP3    H136974   6.346   0.896   3.553 -0.0440  0.2140  0.0042
 5113TIP3    H236975   6.482   0.830   3.547  0.5795  1.4263  0.3948
 5114TIP3   OH236976   3.295   0.400   3.518 -0.0491  0.3010 -0.2471
 5114TIP3    H136977   3.308   0.391   3.613 -0.1522 -0.0476 -0.2643
 5114TIP3    H236978   3.205   0.372   3.503  0.2273 -0.4421 -0.5534
 5115TIP3   OH236979   0.285   5.083   1.270  0.0204  0.2081 -0.0184
 5115TIP3    H136980   0.218   5.059   1.206  0.5708  0.5682 -0.7539
 5115TIP3    H236981   0.315   4.999   1.306  0.7788 -0.1252 -1.3652
 5116TIP3   OH236982   1.575   5.181   0.636 -0.3962 -0.2272  0.2858
 5116TIP3    H136983   1.613   5.267   0.651  0.8894 -0.8800  0.9437
 5116TIP3    H236984   1.552   5.180   0.543  2.0899 -0.1190 -0.4002
 5117TIP3   OH236985   3.726   6.259   1.251 -0.7316  0.0258 -1.0168
 5117TIP3    H136986   3.764   6.287   1.335 -0.8256 -0.4183 -0.8277
 5117TIP3    H236987   3.632   6.264   1.265 -0.7474 -0.1529 -1.0625
 5118TIP3   OH236988   2.650   6.781   3.630  0.5937  0.0237  0.4570
 5118TIP3    H136989   2.619   6.712   3.570  1.1019 -0.1544  0.3932
 5118TIP3    H236990   2.704   6.734   3.693  1.0087  0.3749  0.3660
 5119TIP3   OH236991   2.018   1.551   3.616  0.5635 -0.3791  0.0647
 5119TIP3    H136992   2.081   1.510   3.675  0.3186 -0.0395  0.5764
 5119TIP3    H236993   1.939   1.562   3.670  0.1994 -0.4293 -0.4465
 5120TIP3   OH236994   4.008   0.499   2.935 -0.1364  0.3854 -0.3784
 5120TIP3    H136995   3.936   0.463   2.883 -2.3245  2.3477  1.0881
 5120TIP3    H236996   3.994   0.464   3.023 -0.1759  1.8826  0.2395
 5121TIP3   OH236997   0.548   4.499   1.155  0.4376 -0.6417  0.1430
 5121TIP3    H136998   0.541   4.594   1.164  2.8998 -0.0958 -2.3550
 5121TIP3    H236999   0.642   4.482   1.156  0.0736 -3.0271  0.1217
 5122TIP3   OH237000   0.312   0.882   4.632 -0.2506 -0.2797  0.0755
 5122TIP3    H137001   0.293   0.874   4.726  0.5953  0.1300  0.2897
 5122TIP3    H237002   0.241   0.936   4.598 -1.3030 -1.5057  0.2136
 5123TIP3   OH237003   2.883   4.041   3.551 -0.2807 -0.5848  0.2032
 5123TIP3    H137004   2.966   4.029   3.597  3.0238  1.8015 -4.2894
 5123TIP3    H237005   2.857   4.131   3.570 -0.0033 -0.2705 -0.8027
 5124TIP3   OH237006   3.462   2.399   1.944  0.0264  0.5568  0.7522
 5124TIP3    H137007   3.535   2.354   1.901  0.5483  2.0221  0.0165
 5124TIP3    H237008   3.449   2.478   1.891 -1.2342  0.9720  1.6412
 5125TIP3   OH237009   4.609   0.800   0.684 -1.4776  0.2991 -0.5888
 5125TIP3    H137010   4.678   0.859   0.715 -0.0604 -2.1628  1.3509
 5125TIP3    H237011   4.614   0.806   0.588  2.6329 -0.8823 -0.6562
 5126TIP3   OH237012   3.178   6.556   2.404  0.1274 -0.3563  0.4154
 5126TIP3    H137013   3.084   6.575   2.410  0.7707  3.4458  1.2564
 5126TIP3    H237014   3.195   6.494   2.475 -1.3505  1.1661  2.2112
 5127TIP3   OH237015   1.911   4.838   0.151  0.6611  0.6181  0.2576
 5127TIP3    H137016   1.900   4.746   0.174 -0.6932  0.5331 -0.6285
 5127TIP3    H237017   1.984   4.868   0.205 -0.8930 -0.1308  2.9509
 5128TIP3   OH237018   4.251   2.287   3.716  0.1423  0.1424 -0.0650
 5128TIP3    H137019   4.250   2.245   3.802 -0.4111  0.5763  0.1467
 5128TIP3    H237020   4.251   2.380   3.734  0.5458  0.2382 -0.5408
 5129TIP3   OH237021   6.492   6.486   1.119  0.5405  0.1811  0.3237
 5129TIP3    H137022   6.552   6.520   1.185 -2.0295 -0.8266  3.4057
 5129TIP3    H237023   6.427   6.555   1.106  0.2871 -0.1417 -0.1787
 5130TIP3   OH237024   4.597   5.051   3.306  0.1483  0.4828  0.0817
 5130TIP3    H137025   4.507   5.048   3.339 -0.0729  1.0246 -0.4616
 5130TIP3    H237026   4.649   5.012   3.376 -0.7036 -1.4309 -0.2851
 5131TIP3   OH237027   0.536   6.422   1.697  0.6537  0.1546 -0.3501
 5131TIP3    H137028   0.452   6.403   1.739  1.3857  1.8603  2.0404
 5131TIP3    H237029   0.546   6.351   1.633 -1.0566 -1.9819  1.5767
 5132TIP3   OH237030   4.223   6.555   0.371 -0.0812  0.1866  0.1042
 5132TIP3    H137031   4.149   6.551   0.311  0.4013 -1.4888 -0.4421
 5132TIP3    H237032   4.228   6.467   0.408  1.5150  0.3183  0.2801
 5133TIP3   OH237033   5.117   1.502   4.965  0.1751 -0.2314  0.2863
 5133TIP3    H137034   5.045   1.560   4.943  0.7832  0.5166  0.2364
 5133TIP3    H237035   5.082   1.414   4.953 -0.3351  0.1349 -1.0183
 5134TIP3   OH237036   3.062   1.686   3.702  0.0940 -0.3647 -0.2875
 5134TIP3    H137037   3.089   1.777   3.712 -1.7820  0.1206  0.7563
 5134TIP3    H237038   3.028   1.681   3.613  0.3763 -0.1040 -0.4135
 5135TIP3   OH237039   1.724   0.857   0.452  0.0330  0.4349 -0.3982
 5135TIP3    H137040   1.742   0.951   0.459  2.5648  0.1939 -2.3122
 5135TIP3    H237041   1.806   0.819   0.420  0.0053 -2.8760  2.8370
 5136TIP3   OH237042   4.460   5.796   2.981 -0.2906  0.1092 -0.4910
 5136TIP3    H137043   4.540   5.777   2.931  0.4402  1.1543  0.2290
 5136TIP3    H237044   4.486   5.866   3.041 -1.4070 -0.4320  0.6685
 5137TIP3   OH237045   2.167   1.915   1.520  0.1461  0.0907 -1.0129
 5137TIP3    H137046   2.086   1.905   1.470 -1.2431  0.0795  1.1410
 5137TIP3    H237047   2.172   1.837   1.575  1.5923  0.1352 -1.0280
 5138TIP3   OH237048   3.740   3.545   4.577  0.7869 -0.1929  0.7216
 5138TIP3    H137049   3.799   3.476   4.609 -0.0265 -0.0310  2.7110
 5138TIP3    H237050   3.736   3.607   4.649 -0.7695  0.4743  0.0861
 5139TIP3   OH237051   1.276   0.552   1.267  0.1647  0.2463  0.0639
 5139TIP3    H137052   1.279   0.614   1.194  1.8734  1.4411  1.0672
 5139TIP3    H237053   1.324   0.596   1.337  0.0803 -1.5958  1.3361
 5140TIP3   OH237054   0.294   3.763   0.791  0.2572  0.1443 -0.7034
 5140TIP3    H137055   0.298   3.800   0.879  0.8795  0.5033 -0.8781
 5140TIP3    H237056   0.359   3.813   0.741 -0.5053  0.3421 -1.5151
 5141TIP3   OH237057   3.930   5.775   4.421 -0.1856  0.3845  0.0441
 5141TIP3    H137058   3.942   5.837   4.493  2.0450 -0.5597  0.5678
 5141TIP3    H237059   4.018   5.753   4.393 -0.9536  1.1605 -3.4434
 5142TIP3   OH237060   1.533   4.300   3.739 -0.1487  0.4456 -0.0281
 5142TIP3    H137061   1.583   4.378   3.714  0.4578  0.0419 -0.1134
 5142TIP3    H237062   1.461   4.333   3.792  0.8843  0.9528  1.1114
 5143TIP3   OH237063   4.654   5.598   3.341 -0.0701 -0.0469  0.1526
 5143TIP3    H137064   4.616   5.671   3.390  1.9769  1.1068  0.1111
 5143TIP3    H237065   4.624   5.612   3.251  0.7800  1.1092  0.0305
 5144TIP3   OH237066   6.825   1.358   2.703 -0.4161 -0.5741  0.1929
 5144TIP3    H137067   6.886   1.343   2.775 -1.5545 -1.8071  0.9510
 5144TIP3    H237068   6.871   1.418   2.644  1.2897 -1.0314  1.0021
 5145TIP3   OH237069   4.257   2.038   5.078  0.0057 -0.1216  0.3031
 5145TIP3    H137070   4.188   2.004   5.135  0.1603  0.0718  0.6079
 5145TIP3    H237071   4.212   2.060   4.997 -0.0885 -1.1149  0.0705
 5146TIP3   OH237072   0.444   3.651   2.594  0.4006  0.3212 -0.8005
 5146TIP3    H137073   0.478   3.623   2.679  0.8270 -1.6805 -1.5843
 5146TIP3    H237074   0.438   3.571   2.542  0.2775  1.5017 -2.7210
 5147TIP3   OH237075   0.218   6.610   2.093  0.8563 -0.1779 -0.5027
 5147TIP3    H137076   0.310   6.606   2.067  0.6171  0.6363 -1.5061
 5147TIP3    H237077   0.192   6.700   2.076  0.1282 -0.1434  0.6994
 5148TIP3   OH237078   5.828   5.168   1.846  0.2553 -0.4950 -0.7399
 5148TIP3    H137079   5.823   5.085   1.893  1.1173  0.0352  0.3233
 5148TIP3    H237080   5.772   5.228   1.896 -3.0576 -1.1495 -3.2575
 5149TIP3   OH237081   5.535   4.081   5.113 -0.1400  0.2935  0.2432
 5149TIP3    H137082   5.508   3.997   5.150 -0.4522  0.2397 -0.1104
 5149TIP3    H237083   5.629   4.084   5.129 -0.1681 -0.0068  0.4880
 5150TIP3   OH237084   6.118   1.496   0.840 -0.0298 -0.0297  0.2068
 5150TIP3    H137085   6.069   1.415   0.846  1.0101 -0.8634 -1.7858
 5150TIP3    H237086   6.076   1.545   0.769 -0.2233  0.9094  0.9366
 5151TIP3   OH237087   6.612   3.980   4.348 -0.3591 -0.3311  0.0327
 5151TIP3    H137088   6.518   3.964   4.351 -0.3242 -0.4707  0.3450
 5151TIP3    H237089   6.622   4.052   4.285 -0.7517  0.2724  0.6406
 5152TIP3   OH237090   5.933   3.135   0.274 -0.7528 -0.1519 -0.2598
 5152TIP3    H137091   5.849   3.180   0.289  0.0418  2.4516 -2.7428
 5152TIP3    H237092   5.908   3.052   0.235 -2.2990  1.3006 -2.6655
 5153TIP3   OH237093   3.346   1.959   0.877 -0.3490  0.4165  0.3932
 5153TIP3    H137094   3.305   2.004   0.952 -0.5368 -0.1458  0.6326
 5153TIP3    H237095   3.430   1.929   0.910 -0.4864  0.0575  0.4135
 5154TIP3   OH237096   5.437   2.700   3.419 -0.0051 -0.1244 -0.0760
 5154TIP3    H137097   5.446   2.680   3.326 -1.2427  2.4799 -0.8384
 5154TIP3    H237098   5.343   2.706   3.434  0.1889  1.8890  0.7122
 5155TIP3   OH237099   0.114   2.108   2.465  0.3967 -0.3891 -0.2848
 5155TIP3    H137100   0.168   2.040   2.424 -0.1695 -0.7641 -0.4244
 5155TIP3    H237101   0.140   2.107   2.557 -0.6304 -1.8479  0.0387
 5156TIP3   OH237102   1.393   1.220   2.443 -0.0666  0.6579  0.5522
 5156TIP3    H137103   1.386   1.240   2.350  0.5997 -1.9944 -0.1544
 5156TIP3    H237104   1.427   1.130   2.446  0.0813  0.7119  3.3620
 5157TIP3   OH237105   3.065   2.795   2.065  0.1431 -0.2640 -0.1191
 5157TIP3    H137106   3.119   2.738   2.119 -0.1630  0.7123  1.2947
 5157TIP3    H237107   3.092   2.883   2.090 -0.5603  0.2120 -1.0093
 5158TIP3   OH237108   5.747   0.920   2.956  0.7012  0.0355 -0.3258
 5158TIP3    H137109   5.750   1.015   2.945  1.7364 -0.0162 -0.6254
 5158TIP3    H237110   5.665   0.904   3.002  0.2543  1.0246 -0.7465
 5159TIP3   OH237111   1.242   6.538   2.154  0.0451 -0.3422 -0.1018
 5159TIP3    H137112   1.321   6.580   2.119 -0.2748  0.5567  0.2257
 5159TIP3    H237113   1.276   6.472   2.215  0.5445  0.7103  0.7830
 5160TIP3   OH237114   1.904   5.200   8.476 -1.4608  0.0993  0.3177
 5160TIP3    H137115   1.923   5.290   8.503 -0.4246  0.1005 -0.3432
 5160TIP3    H237116   1.809   5.199   8.461 -1.2428  1.6736 -1.6807
 5161TIP3   OH237117   6.647   4.231   1.769 -0.5351  0.2999 -0.3040
 5161TIP3    H137118   6.644   4.136   1.760 -0.4257  0.1647  0.8886
 5161TIP3    H237119   6.574   4.252   1.829 -0.2732  0.9061 -0.1895
 5162TIP3   OH237120   5.584   6.466   1.925 -0.2514  0.4366  0.0574
 5162TIP3    H137121   5.502   6.430   1.959  0.1128  0.6077  1.1531
 5162TIP3    H237122   5.594   6.426   1.838 -0.4426 -1.2254  0.7661
 5163TIP3   OH237123   5.306   1.810   8.570 -0.3151 -0.2652 -0.3344
 5163TIP3    H137124   5.333   1.719   8.575 -0.9903 -0.6969 -2.9671
 5163TIP3    H237125   5.212   1.809   8.590 -0.6708 -0.4236 -1.9152
 5164TIP3   OH237126   4.802   0.123   4.768 -0.1830  0.3663  0.5212
 5164TIP3    H137127   4.818   0.194   4.830 -0.8296  1.8876 -0.9628
 5164TIP3    H237128   4.708   0.105   4.776 -0.7492  2.0090 -1.3336
 5165TIP3   OH237129   5.549   4.432   3.930  0.2394  0.1817  0.7035
 5165TIP3    H137130   5.542   4.338   3.944  0.2192  0.1585  0.5437
 5165TIP3    H237131   5.569   4.468   4.016  0.5065  0.0062  0.7148
 5166TIP3   OH237132   4.635   0.846   0.432 -0.0683 -0.6532 -0.3773
 5166TIP3    H137133   4.662   0.922   0.382 -0.5237 -0.8759 -0.9733
 5166TIP3    H237134   4.563   0.808   0.381 -0.5684 -0.8609  0.4542
 5167TIP3   OH237135   1.373   2.674   2.759  0.1126 -0.2351  0.4223
 5167TIP3    H137136   1.352   2.758   2.800 -0.2612 -0.0536 -0.1341
 5167TIP3    H237137   1.449   2.692   2.703 -0.6098 -0.0183 -0.5102
 5168TIP3   OH237138   5.505   3.990   4.374  0.1512  0.1403 -0.4482
 5168TIP3    H137139   5.552   4.072   4.362  0.4869  0.3095  1.5738
 5168TIP3    H237140   5.538   3.932   4.306 -2.3118  2.5039 -3.9856
 5169TIP3   OH237141   0.792   4.094   2.680  0.3870 -0.4429  0.6066
 5169TIP3    H137142   0.743   4.045   2.746 -2.6890 -0.2336 -1.2877
 5169TIP3    H237143   0.797   4.035   2.605  3.1370 -0.4105  0.6689
 5170TIP3   OH237144   1.497   4.767   3.652 -0.1642  0.5043 -0.4715
 5170TIP3    H137145   1.510   4.792   3.743 -0.8375 -0.0481 -0.2102
 5170TIP3    H237146   1.411   4.804   3.629  0.5955  1.8445 -1.3302
 5171TIP3   OH237147   0.880   2.074   1.820  0.0312 -0.4310  0.6337
 5171TIP3    H137148   0.857   2.147   1.877  0.2658 -0.5053  0.8270
 5171TIP3    H237149   0.954   2.106   1.768  1.5878 -1.2495  2.2616
 5172TIP3   OH237150   6.198   0.399   1.973 -0.4066  0.5453 -0.1349
 5172TIP3    H137151   6.158   0.426   2.055 -1.4141  1.8681 -1.0162
 5172TIP3    H237152   6.292   0.414   1.986 -0.8116  4.3385 -0.3950
 5173TIP3   OH237153   2.819   1.293   3.702 -0.0028  0.1235 -0.2922
 5173TIP3    H137154   2.914   1.282   3.710 -0.1512  0.0959  1.8927
 5173TIP3    H237155   2.783   1.215   3.744 -1.0271  0.0099 -1.3316
 5174TIP3   OH237156   3.510   5.503   1.243 -0.0154  0.2237  0.5366
 5174TIP3    H137157   3.545   5.592   1.256  3.7692 -0.6520 -1.8427
 5174TIP3    H237158   3.502   5.495   1.148  2.3920 -2.7517  0.4410
 5175TIP3   OH237159   2.998   4.162   0.910  0.6395 -0.1832  0.0462
 5175TIP3    H137160   2.999   4.123   0.823  0.3184  1.6992 -0.8508
 5175TIP3    H237161   2.906   4.175   0.930  0.7609  1.1236 -0.1723
 5176TIP3   OH237162   6.023   6.604   4.659  0.1238  0.1324  0.1126
 5176TIP3    H137163   5.993   6.591   4.748 -1.5361 -0.5732 -0.5098
 5176TIP3    H237164   5.960   6.556   4.605 -0.5551  2.7843 -1.6434
 5177TIP3   OH237165   6.556   2.426   4.271 -0.0733  0.0729  0.0003
 5177TIP3    H137166   6.568   2.331   4.281  0.1725  0.1469  0.4522
 5177TIP3    H237167   6.644   2.459   4.255 -0.1269  0.2505  0.0708
 5178TIP3   OH237168   0.584   3.024   0.543 -0.0068 -0.0022 -0.4750
 5178TIP3    H137169   0.617   2.935   0.531  1.1655  0.4704 -0.8808
 5178TIP3    H237170   0.565   3.055   0.455  2.8534  1.3273 -0.7176
 5179TIP3   OH237171   5.260   1.437   1.860  0.3144  0.2671 -0.1441
 5179TIP3    H137172   5.189   1.374   1.876  2.3206 -1.4719  2.6552
 5179TIP3    H237173   5.286   1.420   1.769 -1.9236  0.0873 -0.8329
 5180TIP3   OH237174   6.765   5.735   1.870 -0.4553 -0.2288 -0.1592
 5180TIP3    H137175   6.753   5.817   1.823 -0.1060  0.2230  0.5362
 5180TIP3    H237176   6.726   5.669   1.813  1.1516  0.1128 -1.7354
 5181TIP3   OH237177   0.315   2.428   2.558  0.8306  0.2552 -0.2393
 5181TIP3    H137178   0.406   2.411   2.584  0.3944 -2.5191 -0.2077
 5181TIP3    H237179   0.263   2.383   2.624 -0.4866 -0.4207 -1.6694
 5182TIP3   OH237180   2.313   1.634   0.527  0.3442  0.1694  0.5603
 5182TIP3    H137181   2.326   1.624   0.433  1.1370 -1.0547  0.7853
 5182TIP3    H237182   2.292   1.727   0.538  2.7640  0.9381 -0.5508
 5183TIP3   OH237183   3.902   6.157   1.879 -0.0185 -0.1705 -0.1105
 5183TIP3    H137184   3.843   6.209   1.934 -0.2940  0.6154 -1.1105
 5183TIP3    H237185   3.847   6.087   1.844  0.9387 -2.9538  3.4008
 5184TIP3   OH237186   1.755   3.886   2.454  0.0996 -0.4548 -0.1222
 5184TIP3    H137187   1.790   3.966   2.414 -0.4579  0.7259  1.6276
 5184TIP3    H237188   1.832   3.840   2.486  0.4057 -0.4469 -0.8391
 5185TIP3   OH237189   5.916   3.856   2.910  0.0420 -0.1346  0.0836
 5185TIP3    H137190   5.868   3.872   2.991  0.9862 -1.4181  0.9363
 5185TIP3    H237191   6.008   3.859   2.935  0.3347 -2.4078 -0.5094
 5186TIP3   OH237192   0.964   6.430   8.700 -0.2921 -0.1113 -0.3385
 5186TIP3    H137193   0.936   6.504   8.646  0.6285  0.7027  0.2633
 5186TIP3    H237194   1.037   6.391   8.652 -1.6424 -1.5128 -1.3341
 5187TIP3   OH237195   0.706   0.244   3.025 -0.0269  0.7154 -0.1503
 5187TIP3    H137196   0.752   0.273   3.103  1.1866  1.4028 -1.0827
 5187TIP3    H237197   0.751   0.163   2.999 -0.8982  0.0882  0.2633
 5188TIP3   OH237198   1.170   0.823   1.320 -0.4016  0.1034 -0.2858
 5188TIP3    H137199   1.093   0.772   1.346 -0.6446  0.5317 -0.1340
 5188TIP3    H237200   1.142   0.914   1.331  0.5978  0.2625  1.1757
 5189TIP3   OH237201   4.015   1.329   4.009 -0.1577 -0.4141 -0.1527
 5189TIP3    H137202   4.053   1.393   3.948 -0.5186  1.5856  1.5959
 5189TIP3    H237203   4.081   1.320   4.078 -0.0528 -2.0972 -0.4384
 5190TIP3   OH237204   1.097   6.367   1.830  0.0371  0.0692 -0.0364
 5190TIP3    H137205   1.011   6.403   1.807 -0.5972 -1.7419 -0.6137
 5190TIP3    H237206   1.153   6.391   1.757 -0.7449 -1.3431 -1.1328
 5191TIP3   OH237207   5.228   1.321   1.360  0.6582  0.3402  0.3466
 5191TIP3    H137208   5.298   1.261   1.333  0.9550  0.3053  1.1829
 5191TIP3    H237209   5.155   1.301   1.301  1.3698  0.4275 -0.5907
 5192TIP3   OH237210   0.352   6.067   3.005 -0.2445 -0.2647 -0.3852
 5192TIP3    H137211   0.313   5.979   3.003  1.1063 -0.8919 -0.8302
 5192TIP3    H237212   0.401   6.070   3.087  0.8775 -0.4951 -1.0160
 5193TIP3   OH237213   5.908   6.388   2.009  0.5051 -0.3467  0.4218
 5193TIP3    H137214   5.860   6.463   1.973  1.9241  0.0427 -0.7860
 5193TIP3    H237215   5.963   6.426   2.078  1.8690 -0.0681 -0.7697
 5194TIP3   OH237216   0.810   1.820   4.668 -0.0765  0.3752 -0.2591
 5194TIP3    H137217   0.902   1.810   4.645  0.2147  0.9601  0.5830
 5194TIP3    H237218   0.777   1.731   4.675  0.6988  0.1229  0.4365
 5195TIP3   OH237219   0.862   3.157   3.965 -0.1879 -0.1918  0.0600
 5195TIP3    H137220   0.925   3.108   3.912  1.2409 -1.0064  2.3832
 5195TIP3    H237221   0.886   3.138   4.056 -2.3552  1.3510  1.0545
 5196TIP3   OH237222   6.045   3.555   4.204  0.2974 -0.2328 -0.1762
 5196TIP3    H137223   6.117   3.534   4.263  0.8867 -1.2252 -1.1984
 5196TIP3    H237224   5.974   3.496   4.230  0.2162  0.0125  0.1599
 5197TIP3   OH237225   2.852   0.853   1.446  0.6251  0.4408 -0.0547
 5197TIP3    H137226   2.902   0.925   1.485 -0.4837  0.8588  0.6461
 5197TIP3    H237227   2.761   0.884   1.448  0.1936 -0.7868 -0.1826
 5198TIP3   OH237228   2.740   2.510   0.954 -0.7364  0.8630 -0.6839
 5198TIP3    H137229   2.662   2.498   0.901 -0.7312  0.3481 -0.5828
 5198TIP3    H237230   2.707   2.520   1.043 -0.7143  1.1156 -0.7054
 5199TIP3   OH237231   1.629   3.441   4.041 -0.7690 -0.3095  0.0553
 5199TIP3    H137232   1.716   3.434   4.080 -0.6210  1.5398  0.1357
 5199TIP3    H237233   1.635   3.517   3.983 -2.6431  0.5534  0.9158
 5200TIP3   OH237234   3.163   2.721   1.836 -0.3054 -0.4744 -0.4204
 5200TIP3    H137235   3.142   2.682   1.921  1.6678 -0.5606  0.0769
 5200TIP3    H237236   3.106   2.797   1.830 -0.4983 -0.4739  0.9840
 5201TIP3   OH237237   5.677   5.094   0.860 -0.2497  0.0279  0.0144
 5201TIP3    H137238   5.753   5.151   0.874  0.7784 -1.5327  1.0138
 5201TIP3    H237239   5.626   5.140   0.793  0.5234  2.1128  0.7463
 5202TIP3   OH237240   4.982   5.119   4.781  0.1441 -0.6427  0.2869
 5202TIP3    H137241   4.993   5.040   4.834 -0.5480 -0.8092  0.1871
 5202TIP3    H237242   5.071   5.142   4.754  0.4742 -0.7567  1.2275
 5203TIP3   OH237243   3.492   6.816   2.160  0.0636  0.4555 -0.6929
 5203TIP3    H137244   3.477   6.911   2.163 -0.4919  0.3755 -0.7141
 5203TIP3    H237245   3.457   6.790   2.075  2.4947  0.5909 -1.8272
 5204TIP3   OH237246   4.892   6.019   2.784  0.1463  0.3929 -0.6561
 5204TIP3    H137247   4.865   6.087   2.847  1.1191  0.4529 -0.2977
 5204TIP3    H237248   4.830   6.029   2.712  0.0055  1.3909 -0.4235
 5205TIP3   OH237249   0.964   6.698   1.415 -0.2417  0.1870  0.0014
 5205TIP3    H137250   1.028   6.759   1.451  0.0660  0.1538 -0.4842
 5205TIP3    H237251   0.879   6.736   1.437 -0.1008 -0.5172  1.9556
 5206TIP3   OH237252   0.895   2.409   1.083 -0.2085 -0.7347 -0.1223
 5206TIP3    H137253   0.832   2.407   1.011 -0.6925 -2.3010  0.2991
 5206TIP3    H237254   0.872   2.334   1.138  0.8089 -0.1983  1.1103
 5207TIP3   OH237255   3.821   4.694   4.108  0.2626 -0.3807 -0.0704
 5207TIP3    H137256   3.829   4.619   4.166  0.6488 -0.9575 -0.8423
 5207TIP3    H237257   3.761   4.753   4.153 -0.7891 -1.5587  0.1313
 5208TIP3   OH237258   0.251   0.681   1.989  0.6562 -0.1863 -0.0772
 5208TIP3    H137259   0.295   0.765   1.973 -0.9222  0.9358  1.2185
 5208TIP3    H237260   0.318   0.626   2.028  1.8694  0.2551 -1.4394
 5209TIP3   OH237261   2.352   1.231   4.167 -0.3862  0.0018 -0.2987
 5209TIP3    H137262   2.381   1.314   4.205  1.1046  0.3379 -2.0234
 5209TIP3    H237263   2.380   1.164   4.230  0.0831  0.6705  0.2075
 5210TIP3   OH237264   3.327   4.372   4.528  0.4669  0.2376 -0.3040
 5210TIP3    H137265   3.284   4.395   4.446 -0.3963  0.1023  0.0942
 5210TIP3    H237266   3.421   4.375   4.509  0.2751  0.4039 -1.2331
 5211TIP3   OH237267   0.031   0.263   4.806  0.0575  0.1542 -0.3163
 5211TIP3    H137268   0.007   0.267   4.898  0.0243  0.5286 -0.3400
 5211TIP3    H237269  -0.033   0.203   4.767 -0.2094  0.3519 -0.1848
 5212TIP3   OH237270   4.153   4.440   3.631  0.2123 -0.6134 -0.3604
 5212TIP3    H137271   4.209   4.397   3.567  2.2520 -0.5407  1.2796
 5212TIP3    H237272   4.064   4.418   3.603  1.0626 -4.7756 -0.4375
 5213TIP3   OH237273   3.882   5.188   3.391 -0.2126  0.6980  0.8990
 5213TIP3    H137274   3.802   5.212   3.344  0.0995  0.0673  0.0266
 5213TIP3    H237275   3.914   5.271   3.428 -0.5124  1.1895  0.0723
 5214TIP3   OH237276   4.150   2.787   1.140  0.7461 -0.1359 -0.7822
 5214TIP3    H137277   4.215   2.783   1.070 -0.1068 -1.7343 -1.5414
 5214TIP3    H237278   4.144   2.697   1.172  1.0061  0.5333  1.2886
 5215TIP3   OH237279   4.105   0.419   0.955 -0.5084  0.1157  0.0430
 5215TIP3    H137280   4.046   0.361   0.907 -0.5438 -0.3752  0.6742
 5215TIP3    H237281   4.181   0.428   0.898 -1.5447  1.4915 -1.2094
 5216TIP3   OH237282   3.639   3.157   2.306 -0.2792  0.3730 -0.2501
 5216TIP3    H137283   3.645   3.064   2.282  2.4358  0.2777  0.3890
 5216TIP3    H237284   3.603   3.200   2.229 -1.7805 -1.2195 -0.4840
 5217TIP3   OH237285   2.104   2.651   3.479 -0.3576  0.0422 -0.2886
 5217TIP3    H137286   2.166   2.620   3.413 -0.3940  0.3749 -0.4825
 5217TIP3    H237287   2.074   2.572   3.523  0.4856 -0.0894  0.0652
 5218TIP3   OH237288   4.583   6.286   3.713  0.7091  0.2272  0.1362
 5218TIP3    H137289   4.573   6.262   3.805  0.9106 -0.7213 -0.0764
 5218TIP3    H237290   4.584   6.382   3.713 -0.2856  0.2552  1.0143
 5219TIP3   OH237291   1.488   6.434   0.308 -0.3072  0.7631  0.3940
 5219TIP3    H137292   1.558   6.379   0.272  1.8394  1.9108  2.5646
 5219TIP3    H237293   1.412   6.414   0.253  1.0602 -2.3008 -0.5993
 5220TIP3   OH237294   2.456   6.097   3.976 -0.1696  0.1440  0.1385
 5220TIP3    H137295   2.462   6.124   4.067 -0.2401  0.9274 -0.0825
 5220TIP3    H237296   2.373   6.050   3.969 -0.7983  1.2171  0.1978
 5221TIP3   OH237297   6.019   5.355   3.132  0.1473  0.3621 -0.0877
 5221TIP3    H137298   6.006   5.408   3.053 -0.5321  1.2324  0.5949
 5221TIP3    H237299   5.940   5.300   3.137  0.3918 -0.0100 -0.2445
 5222TIP3   OH237300   1.188   3.902   2.238  0.2708 -0.1045 -0.2806
 5222TIP3    H137301   1.182   3.850   2.159  3.4596 -0.0661 -0.6795
 5222TIP3    H237302   1.212   3.840   2.307  0.4282  0.2969  0.0342
 5223TIP3   OH237303   4.597   3.071   0.924 -0.2246  0.1063 -0.0366
 5223TIP3    H137304   4.597   3.157   0.883 -0.8722 -0.4775 -1.3629
 5223TIP3    H237305   4.655   3.018   0.869 -0.0638 -0.3811  0.5861
 5224TIP3   OH237306   2.255   0.435   8.823  0.5533  0.2134  0.0311
 5224TIP3    H137307   2.264   0.385   8.741  0.7128 -1.0066  0.7661
 5224TIP3    H237308   2.330   0.408   8.876  0.9983  1.7307  0.2279
 5225TIP3   OH237309   3.997   0.516   1.168  0.0816 -0.5327 -0.4209
 5225TIP3    H137310   4.016   0.473   1.251 -1.6828 -2.2262 -0.8306
 5225TIP3    H237311   4.051   0.470   1.104  0.5525 -0.0104 -0.4078
 5226TIP3   OH237312   2.563   6.414   3.440  0.6608 -0.4175  0.3415
 5226TIP3    H137313   2.616   6.484   3.402  1.5115 -1.7502 -1.0117
 5226TIP3    H237314   2.477   6.454   3.454  2.0490  1.9610  3.0633
 5227TIP3   OH237315   4.403   0.859   4.015 -0.2271  0.4563  0.3006
 5227TIP3    H137316   4.336   0.915   3.976 -0.0107  0.9123  0.5788
 5227TIP3    H237317   4.483   0.910   4.010  0.0793 -0.0470  0.0661
 5228TIP3   OH237318   0.856   0.250   4.492 -0.0122  0.3028 -0.0885
 5228TIP3    H137319   0.874   0.164   4.529  1.5703  0.8092  0.4212
 5228TIP3    H237320   0.943   0.283   4.467 -0.5124  1.9769  0.2637
 5229TIP3   OH237321   2.204   1.431   2.182 -0.9265  0.0920  0.4038
 5229TIP3    H137322   2.228   1.481   2.260  1.5965  1.5931 -1.1857
 5229TIP3    H237323   2.204   1.495   2.111  1.2947 -1.8470 -1.5228
 5230TIP3   OH237324   2.845   0.579   0.166  0.0544  0.4036 -0.1926
 5230TIP3    H137325   2.811   0.496   0.199 -0.1548  1.2005  1.7112
 5230TIP3    H237326   2.893   0.555   0.087  0.0214 -1.5241  0.3214
 5231TIP3   OH237327   6.390   0.159   2.405 -0.7860 -0.0544 -0.1939
 5231TIP3    H137328   6.371   0.165   2.499  3.0492  0.0085  0.7479
 5231TIP3    H237329   6.383   0.066   2.385 -0.7610 -0.1959  0.4194
 5232TIP3   OH237330   6.032   1.167   1.122  0.0690  0.0390 -0.3572
 5232TIP3    H137331   6.031   1.248   1.174 -1.9767 -1.1601  1.6759
 5232TIP3    H237332   6.121   1.133   1.133  1.0213  2.0294 -1.3848
 5233TIP3   OH237333   0.437   0.612   1.030 -0.2234  0.2807  0.7499
 5233TIP3    H137334   0.422   0.580   1.119 -0.7787  1.4207  1.0808
 5233TIP3    H237335   0.355   0.594   0.984  0.8609 -2.6192 -0.3074
 5234TIP3   OH237336   5.335   6.670   2.299 -0.2522  0.0689  0.0313
 5234TIP3    H137337   5.306   6.761   2.292  0.2467  0.2421  0.1470
 5234TIP3    H237338   5.396   6.658   2.226 -0.8555 -0.3876 -0.4081
 5235TIP3   OH237339   5.726   0.419   2.410 -0.2507 -0.6090  0.3528
 5235TIP3    H137340   5.667   0.420   2.334  0.3038 -2.7354 -0.1732
 5235TIP3    H237341   5.696   0.491   2.464  0.0283  1.7657 -2.3956
 5236TIP3   OH237342   0.656   5.720   2.504  0.6419 -0.4931  0.1353
 5236TIP3    H137343   0.576   5.769   2.487  1.5495  1.1001  0.1900
 5236TIP3    H237344   0.663   5.658   2.432 -0.7016 -0.7554  0.2132
 5237TIP3   OH237345   4.357   4.719   2.674  0.5086  0.2075 -0.7846
 5237TIP3    H137346   4.340   4.709   2.768 -0.2584 -0.1376 -0.9488
 5237TIP3    H237347   4.325   4.806   2.653  1.3446  0.5718 -0.5951
 5238TIP3   OH237348   4.492   0.414   1.321  0.0364  0.1382  0.0330
 5238TIP3    H137349   4.538   0.330   1.316 -1.0336 -0.4234 -0.6156
 5238TIP3    H237350   4.546   0.467   1.380 -0.4762 -1.7819  2.3455
 5239TIP3   OH237351   2.472   6.216   1.416  0.1865  0.1859 -0.2226
 5239TIP3    H137352   2.488   6.207   1.510  0.7278  1.3096 -0.1898
 5239TIP3    H237353   2.389   6.263   1.410  0.4477  0.6445 -0.2907
 5240TIP3   OH237354   4.309   6.768   4.283  0.1179 -0.3917 -0.1804
 5240TIP3    H137355   4.225   6.729   4.308  1.4807 -1.1370  4.1488
 5240TIP3    H237356   4.372   6.696   4.288  1.5406  0.8209  0.2965
 5241TIP3   OH237357   1.840   6.415   1.460 -0.8237 -0.5094 -0.6701
 5241TIP3    H137358   1.840   6.432   1.366  4.1992  1.5147 -0.6218
 5241TIP3    H237359   1.888   6.333   1.470 -0.4975 -0.2337  0.1167
 5242TIP3   OH237360   5.240   1.277   2.534  0.6425 -0.1336  0.2278
 5242TIP3    H137361   5.258   1.186   2.510 -2.9457 -1.0584  0.4422
 5242TIP3    H237362   5.176   1.306   2.470 -0.2777  1.3181  1.7325
 5243TIP3   OH237363   4.277   0.579   2.968  0.3243  0.6528 -0.8090
 5243TIP3    H137364   4.191   0.537   2.958  0.2486 -0.0298  2.0476
 5243TIP3    H237365   4.261   0.652   3.028  1.3884  1.8495 -1.9123
 5244TIP3   OH237366   0.554   3.122   1.867  0.5096 -0.3029  0.4488
 5244TIP3    H137367   0.579   3.150   1.955  0.0704 -1.6801  1.0365
 5244TIP3    H237368   0.638   3.102   1.824  0.6621 -0.8706  0.9957
 5245TIP3   OH237369   5.212   3.306   2.006  0.2253  0.1778 -0.2736
 5245TIP3    H137370   5.226   3.241   1.937 -0.7301  0.6182 -0.9095
 5245TIP3    H237371   5.300   3.332   2.034  0.6133 -1.1176 -0.2591
 5246TIP3   OH237372   4.292   6.276   3.207 -0.1690 -0.4679 -0.5007
 5246TIP3    H137373   4.260   6.186   3.215  0.9015 -0.9304 -1.1664
 5246TIP3    H237374   4.248   6.323   3.277 -2.5209 -0.9760 -1.5332
 5247TIP3   OH237375   3.928   5.283   2.820  0.4744 -0.3048  0.3627
 5247TIP3    H137376   3.904   5.287   2.912  0.1150 -2.2431  0.4103
 5247TIP3    H237377   4.023   5.289   2.819  0.6814 -2.5503  1.1194
 5248TIP3   OH237378   1.003   6.458   8.353  0.0899  0.3434 -0.1480
 5248TIP3    H137379   1.003   6.410   8.270  2.0081 -0.3107  0.1808
 5248TIP3    H237380   0.911   6.463   8.377 -0.3745 -0.9920 -1.4518
 5249TIP3   OH237381   1.056   2.729   3.729  0.0229 -0.0839 -0.2824
 5249TIP3    H137382   0.987   2.734   3.795  1.2954 -0.3820  1.1072
 5249TIP3    H237383   1.137   2.718   3.779  1.6210  3.8309 -1.6040
 5250TIP3   OH237384   2.510   3.814   4.059 -0.2852  0.3896  0.3808
 5250TIP3    H137385   2.471   3.727   4.056 -1.6000  0.9711  0.1213
 5250TIP3    H237386   2.575   3.813   3.988 -0.7192 -0.1814 -0.0142
 5251TIP3   OH237387   3.671   3.882   1.971  0.2731  0.4537  0.2928
 5251TIP3    H137388   3.589   3.924   1.943 -0.3659 -1.2138 -0.4412
 5251TIP3    H237389   3.732   3.901   1.900 -0.0025  0.1939 -0.0190
 5252TIP3   OH237390   3.899   5.797   0.772 -0.3172 -0.2647  0.2089
 5252TIP3    H137391   3.805   5.778   0.769 -0.2362 -0.7133  0.3519
 5252TIP3    H237392   3.914   5.830   0.861 -0.3383 -0.2131  0.1929
 5253TIP3   OH237393   1.633   2.479   2.662  0.4125  0.1631 -0.3927
 5253TIP3    H137394   1.700   2.523   2.715 -0.5369  0.4290  0.6373
 5253TIP3    H237395   1.550   2.513   2.696 -0.3546 -1.9474  0.0075
 5254TIP3   OH237396   3.235   4.231   2.418 -0.5125  0.1459  0.0330
 5254TIP3    H137397   3.270   4.148   2.452  0.1013 -0.2279 -1.4121
 5254TIP3    H237398   3.156   4.247   2.469 -0.8308 -1.5154  0.1179
 5255TIP3   OH237399   5.562   6.480   1.567 -0.4116 -0.0769  0.7983
 5255TIP3    H137400   5.596   6.423   1.636  1.1024 -0.2898 -0.0934
 5255TIP3    H237401   5.488   6.431   1.530  0.7088 -1.3913  0.2053
 5256TIP3   OH237402   1.349   1.730   0.726  0.0951 -0.2817 -0.2184
 5256TIP3    H137403   1.307   1.645   0.711 -0.7972  0.3087 -1.2198
 5256TIP3    H237404   1.442   1.711   0.728 -0.1473 -1.6090  1.8432
 5257TIP3   OH237405   4.186   2.016   1.742 -0.1613  0.0600 -0.1300
 5257TIP3    H137406   4.195   2.046   1.832 -0.1565  0.0533 -0.1283
 5257TIP3    H237407   4.256   1.952   1.731  0.1842  0.4643 -0.3072
 5258TIP3   OH237408   6.704   4.897   3.663  0.0600  0.2668  0.8812
 5258TIP3    H137409   6.656   4.815   3.653 -0.6066  0.6801  0.5721
 5258TIP3    H237410   6.779   4.874   3.717 -0.5159 -0.4004  1.4348
 5259TIP3   OH237411   3.396   2.232   0.976 -0.0150  0.2659  0.3208
 5259TIP3    H137412   3.312   2.231   0.929 -0.2032 -0.6719  0.6598
 5259TIP3    H237413   3.421   2.324   0.978 -0.6673  0.4755 -0.4426
 5260TIP3   OH237414   0.476   1.574   0.574  0.8370  0.0840  0.1922
 5260TIP3    H137415   0.523   1.491   0.562 -1.3118 -1.1032 -0.5202
 5260TIP3    H237416   0.491   1.622   0.493  1.8697  0.3393  0.5052
 5261TIP3   OH237417   4.568   2.914   2.229  0.3893 -0.0459 -0.3006
 5261TIP3    H137418   4.618   2.855   2.286  1.8636  0.8101 -0.6550
 5261TIP3    H237419   4.513   2.855   2.178  0.1810 -0.9392  0.9093
 5262TIP3   OH237420   4.064   4.492   1.315  0.3438 -0.6724 -0.3314
 5262TIP3    H137421   4.128   4.563   1.318 -2.0898  1.6443  1.1122
 5262TIP3    H237422   4.114   4.414   1.339  2.4020  1.1823  1.9655
 5263TIP3   OH237423   5.266   0.657   1.814  0.0024  0.5198 -0.8303
 5263TIP3    H137424   5.294   0.660   1.905  1.3049 -0.2606 -1.1774
 5263TIP3    H237425   5.231   0.568   1.802 -0.4277  0.7123 -1.0168
 5264TIP3   OH237426   6.320   4.937   0.382 -0.1008 -0.6690  0.4963
 5264TIP3    H137427   6.254   5.001   0.355  1.7961  0.6022 -1.3775
 5264TIP3    H237428   6.283   4.853   0.355 -1.3458 -0.0883  0.2922
 5265TIP3   OH237429   4.846   6.040   4.796 -0.3453 -0.1328  0.4871
 5265TIP3    H137430   4.897   6.015   4.873 -0.0153  0.7251  0.5557
 5265TIP3    H237431   4.756   6.019   4.820 -0.0275 -1.9226  0.2586
 5266TIP3   OH237432   6.826   2.435   2.664 -0.1965  0.6446 -0.5215
 5266TIP3    H137433   6.803   2.447   2.756  1.9513 -0.5048  0.2544
 5266TIP3    H237434   6.771   2.362   2.635 -0.5798  0.7350 -0.0385
 5267TIP3   OH237435   1.798   6.461   1.201  0.5734  0.1162  0.3245
 5267TIP3    H137436   1.810   6.556   1.195  1.3753  0.1136  1.4472
 5267TIP3    H237437   1.867   6.424   1.146  1.5588  0.1802  1.4806
 5268TIP3   OH237438   3.667   2.540   3.879 -0.5824  0.2714  0.1928
 5268TIP3    H137439   3.753   2.510   3.850 -0.2613  0.4837  0.9019
 5268TIP3    H237440   3.609   2.522   3.805  0.0257 -0.0821 -0.2058
 5269TIP3   OH237441   0.381   1.221   0.524  0.3008 -0.4797  0.0559
 5269TIP3    H137442   0.339   1.267   0.451 -0.8312  0.7476  1.3815
 5269TIP3    H237443   0.472   1.250   0.521  0.1177  0.0812 -0.4935
 5270TIP3   OH237444   0.792   2.263   3.404  0.5880 -0.5770  0.7121
 5270TIP3    H137445   0.723   2.314   3.447  0.9994  0.2247  0.4326
 5270TIP3    H237446   0.821   2.201   3.471  2.4512  1.7932  2.2889
 5271TIP3   OH237447   5.160   1.059   2.053 -0.7327  0.1373  0.3306
 5271TIP3    H137448   5.219   1.110   1.997  0.1384  0.8080  1.8006
 5271TIP3    H237449   5.191   0.969   2.046 -0.7678  0.1705 -0.3982
 5272TIP3   OH237450   4.204   5.273   1.729 -0.0187  0.0568 -0.3219
 5272TIP3    H137451   4.122   5.294   1.685 -1.5572 -0.3106  2.2106
 5272TIP3    H237452   4.228   5.187   1.695 -1.1850 -0.2509 -0.3838
 5273TIP3   OH237453   5.326   6.676   4.488 -0.3457 -0.3355 -0.3639
 5273TIP3    H137454   5.343   6.760   4.531  1.4248 -1.4004  1.1355
 5273TIP3    H237455   5.349   6.611   4.553 -1.4665 -2.0307 -1.5818
 5274TIP3   OH237456   1.660   3.856   0.783  0.1582 -0.1111  0.1147
 5274TIP3    H137457   1.573   3.886   0.758 -0.5779 -1.7021  0.5945
 5274TIP3    H237458   1.684   3.912   0.857 -0.1211  0.8468 -0.5124
 5275TIP3   OH237459   2.569   1.649   1.027  0.0836  0.4387  0.1422
 5275TIP3    H137460   2.605   1.667   0.941  1.4900 -0.8952  0.4126
 5275TIP3    H237461   2.477   1.628   1.011  0.3621  0.0700 -1.0503
 5276TIP3   OH237462   5.056   1.448   3.648 -0.5627 -0.0481  0.1950
 5276TIP3    H137463   5.004   1.371   3.671 -0.6447 -0.1207 -0.2171
 5276TIP3    H237464   4.993   1.519   3.640 -0.6534 -0.2029 -0.6139
 5277TIP3   OH237465   5.815   4.610   1.269  0.1784 -0.3739 -0.0988
 5277TIP3    H137466   5.839   4.530   1.223  1.4810 -0.5023  0.7549
 5277TIP3    H237467   5.823   4.589   1.361  0.2916  0.6685  0.1451
 5278TIP3   OH237468   1.483   4.099   1.661 -0.3752 -0.1623  0.7849
 5278TIP3    H137469   1.525   4.018   1.690  0.0427 -0.1547  0.2140
 5278TIP3    H237470   1.472   4.150   1.741 -0.5172 -0.7208  1.1323
 5279TIP3   OH237471   2.290   3.649   1.113  1.0386 -0.3100 -0.4564
 5279TIP3    H137472   2.304   3.589   1.040 -0.5839 -0.9146 -0.2935
 5279TIP3    H237473   2.263   3.731   1.072 -0.4642 -0.8231 -0.5489
 5280TIP3   OH237474   4.520   0.053   1.499  0.5994  0.2885  0.5334
 5280TIP3    H137475   4.556   0.052   1.410 -0.7684  1.3230 -0.0764
 5280TIP3    H237476   4.511  -0.039   1.523  0.5406 -0.0102 -0.5908
 5281TIP3   OH237477   0.557   5.726   1.067  0.0515  0.0849 -0.4795
 5281TIP3    H137478   0.563   5.730   1.162 -1.7120  1.7115 -0.3597
 5281TIP3    H237479   0.627   5.783   1.035  1.3343 -1.2929 -0.2578
 5282TIP3   OH237480   2.585   2.173   1.077  0.3854 -0.4033 -0.6690
 5282TIP3    H137481   2.526   2.175   1.153 -0.3570 -3.5979 -1.0171
 5282TIP3    H237482   2.673   2.179   1.115 -0.0352  1.4831  0.1016
 5283TIP3   OH237483   0.795   5.320   2.949 -0.4994 -0.0844  0.2815
 5283TIP3    H137484   0.868   5.375   2.978  0.4572 -0.7214 -0.8202
 5283TIP3    H237485   0.744   5.377   2.891 -1.3787  0.6201  1.7002
 5284TIP3   OH237486   0.756   3.234   3.688 -0.1906 -0.2601  0.1471
 5284TIP3    H137487   0.780   3.213   3.778 -2.5470 -2.0805  0.4358
 5284TIP3    H237488   0.741   3.150   3.646 -2.2990  0.5861 -0.9750
 5285TIP3   OH237489   6.448   3.704   2.832 -0.4715  0.5161  0.4750
 5285TIP3    H137490   6.523   3.732   2.885  0.5819  1.1093 -1.2568
 5285TIP3    H237491   6.473   3.618   2.798 -0.3458  0.9284 -0.5031
 5286TIP3   OH237492   0.117   1.942   2.068 -0.0063  0.2887 -0.0746
 5286TIP3    H137493   0.093   2.023   2.113 -0.4689  0.4333 -0.5704
 5286TIP3    H237494   0.172   1.970   1.995  0.5098  0.0809  0.2320
 5287TIP3   OH237495   2.320   2.377   0.445 -0.8135 -0.1196  0.1899
 5287TIP3    H137496   2.302   2.340   0.358 -1.1964  2.6585 -1.0384
 5287TIP3    H237497   2.238   2.421   0.469 -0.5931 -0.5640  1.8193
 5288TIP3   OH237498   6.174   6.391   1.825  0.2833  0.3680 -0.4019
 5288TIP3    H137499   6.103   6.448   1.796 -0.3368 -0.1563  0.0570
 5288TIP3    H237500   6.210   6.435   1.902  0.1511  0.4031 -0.3590
 5289TIP3   OH237501   2.680   1.043   2.334 -0.4957 -0.0278  0.6110
 5289TIP3    H137502   2.586   1.038   2.321 -0.2593  0.2917 -1.7734
 5289TIP3    H237503   2.707   0.952   2.347 -1.0687 -0.2011  0.6169
 5290TIP3   OH237504   6.725   0.805   1.671 -0.0947 -0.9454 -0.3513
 5290TIP3    H137505   6.808   0.778   1.632  0.0064 -0.2229 -0.6521
 5290TIP3    H237506   6.745   0.887   1.717 -0.9005 -0.0890 -1.4858
 5291TIP3   OH237507   5.985   0.962   0.917  0.1660  0.0024  0.0999
 5291TIP3    H137508   6.033   0.947   0.835 -0.7266  2.0991 -0.8693
 5291TIP3    H237509   6.038   0.918   0.983  2.4418  0.6010 -1.1910
 5292TIP3   OH237510   3.814   1.670   0.766 -0.3216 -0.3185  0.8975
 5292TIP3    H137511   3.751   1.712   0.708 -0.3390  1.9455  2.4044
 5292TIP3    H237512   3.836   1.738   0.830  2.9387 -1.3050  1.0084
 5293TIP3   OH237513   4.584   3.132   2.360 -0.5337 -0.0439 -0.4353
 5293TIP3    H137514   4.596   3.051   2.311 -0.9672 -0.0152 -0.5978
 5293TIP3    H237515   4.670   3.174   2.360 -0.5645  0.0401 -1.3304
 5294TIP3   OH237516   0.921   2.358   3.707  0.5066 -0.0458  0.1719
 5294TIP3    H137517   0.964   2.285   3.662 -2.3097 -0.7913 -1.5804
 5294TIP3    H237518   0.901   2.421   3.638 -1.1550  0.2310  0.8361
 5295TIP3   OH237519   0.083   1.441   2.124 -0.0280 -0.1644  0.4608
 5295TIP3    H137520   0.153   1.495   2.088 -0.3867 -0.1013 -0.1748
 5295TIP3    H237521   0.083   1.459   2.218 -0.8786  1.8236  0.1191
 5296TIP3   OH237522   1.346   3.748   3.729  0.3820  0.3593 -0.1718
 5296TIP3    H137523   1.307   3.832   3.705  1.8419  1.5205  1.2494
 5296TIP3    H237524   1.286   3.682   3.694 -2.5498  1.9714  1.4387
 5297TIP3   OH237525   2.810   2.215   1.490 -0.3795 -0.0667 -0.2955
 5297TIP3    H137526   2.872   2.288   1.495 -1.9177  1.5211 -2.2943
 5297TIP3    H237527   2.760   2.220   1.572  0.9988 -0.3259  0.5844
 5298TIP3   OH237528   5.410   4.614   2.992 -0.4479  0.7126 -0.6896
 5298TIP3    H137529   5.366   4.539   2.951  0.6739  0.6271 -1.7688
 5298TIP3    H237530   5.410   4.682   2.925 -0.2237  1.2161 -0.1914
 5299TIP3   OH237531   3.524   1.570   3.368  0.4332 -0.1405  0.7140
 5299TIP3    H137532   3.611   1.610   3.372 -0.3820  2.2169 -2.0312
 5299TIP3    H237533   3.527   1.512   3.292 -0.4988  0.2297  0.3832
 5300TIP3   OH237534   2.821   6.262   0.833  0.2364  0.6487 -0.0646
 5300TIP3    H137535   2.809   6.201   0.906  2.1280 -0.9928 -1.0207
 5300TIP3    H237536   2.845   6.206   0.759  2.3861  2.5660 -0.9139
 5301TIP3   OH237537   2.109   6.448   3.698  0.4924 -0.0072 -0.4099
 5301TIP3    H137538   2.162   6.522   3.726  2.1457 -1.5638  0.8397
 5301TIP3    H237539   2.025   6.460   3.742  1.5586 -0.0867  1.7868
 5302TIP3   OH237540   4.655   5.338   1.440 -0.9199 -0.3998  0.2105
 5302TIP3    H137541   4.653   5.279   1.365 -0.0342  0.5964 -0.6339
 5302TIP3    H237542   4.597   5.410   1.415 -0.8708 -0.2209  0.6127
 5303TIP3   OH237543   5.840   5.820   4.300 -0.0306 -0.5815  0.0621
 5303TIP3    H137544   5.763   5.781   4.258 -0.2835  0.1465 -0.1487
 5303TIP3    H237545   5.817   5.911   4.315  0.3701 -0.6253  1.0330
 5304TIP3   OH237546   3.023   2.587   3.007 -0.3597 -0.5029  0.0058
 5304TIP3    H137547   2.936   2.607   2.973 -0.4550 -0.5202  0.2414
 5304TIP3    H237548   3.055   2.516   2.952 -0.2899 -0.1537 -0.4101
 5305TIP3   OH237549   0.620   1.624   2.787  0.2489  0.0739  0.7237
 5305TIP3    H137550   0.598   1.699   2.842 -1.0986  0.2949 -0.0704
 5305TIP3    H237551   0.614   1.658   2.697  3.9178  0.1600  0.3496
 5306TIP3   OH237552   0.266   2.446   1.708 -0.1059 -0.1106  0.2277
 5306TIP3    H137553   0.299   2.468   1.795  0.2647  1.0741 -0.1975
 5306TIP3    H237554   0.335   2.393   1.669 -0.3396 -0.7819  0.6966
 5307TIP3   OH237555   3.326   4.544   2.647  0.2405 -0.0958  0.4411
 5307TIP3    H137556   3.363   4.505   2.726 -0.5534  0.8400  1.3119
 5307TIP3    H237557   3.246   4.588   2.677 -0.8240 -0.8445 -1.1104
 5308TIP3   OH237558   6.304   0.493   1.704 -0.3919  0.2791  0.1269
 5308TIP3    H137559   6.245   0.505   1.630 -0.7176 -0.2203  0.2998
 5308TIP3    H237560   6.256   0.437   1.765  0.1716  0.0457  0.3680
 5309TIP3   OH237561   0.215   5.857   3.329  0.3535 -0.2334  0.0460
 5309TIP3    H137562   0.301   5.882   3.362  0.8482 -3.5749  1.6319
 5309TIP3    H237563   0.231   5.835   3.237  0.6126  1.4449 -0.3546
 5310TIP3   OH237564   5.559   5.617   4.399 -0.1112 -0.1659 -0.2081
 5310TIP3    H137565   5.557   5.576   4.312  0.5966 -1.7051  0.4616
 5310TIP3    H237566   5.484   5.580   4.445 -0.7302  0.9613 -0.2599
 5311TIP3   OH237567   5.059   4.696   3.788  0.3345  0.2193 -0.4356
 5311TIP3    H137568   5.100   4.776   3.822 -1.4410 -0.0181  2.6812
 5311TIP3    H237569   5.090   4.627   3.847 -3.0670 -0.2311  1.0266
 5312TIP3   OH237570   4.433   2.443   2.980 -0.6385  0.1618 -0.1337
 5312TIP3    H137571   4.435   2.515   2.917 -0.7991  1.6422  1.4540
 5312TIP3    H237572   4.515   2.451   3.028 -0.5598 -0.8735 -0.0718
 5313TIP3   OH237573   5.730   6.418   0.906 -0.1921  0.1036  0.2495
 5313TIP3    H137574   5.679   6.377   0.836  0.6758  1.0318 -0.9960
 5313TIP3    H237575   5.682   6.399   0.986 -3.0429  1.7117 -0.9242
 5314TIP3   OH237576   6.476   4.257   2.294 -0.7924  0.1148 -0.0687
 5314TIP3    H137577   6.471   4.227   2.203  0.5663  0.5266 -0.3043
 5314TIP3    H237578   6.563   4.297   2.301 -1.3551  1.2070  1.0797
 5315TIP3   OH237579   3.828   3.411   1.246 -0.4781 -0.2317  0.3208
 5315TIP3    H137580   3.840   3.398   1.340 -1.5488 -0.1120  0.4922
 5315TIP3    H237581   3.867   3.496   1.228  1.5528 -1.1218  0.2520
 5316TIP3   OH237582   4.423   1.474   1.233 -0.1213 -0.2615  0.1570
 5316TIP3    H137583   4.342   1.437   1.269 -0.7273  0.4586 -0.4210
 5316TIP3    H237584   4.397   1.508   1.147  0.7653  0.1034  0.0240
 5317TIP3   OH237585   0.367   2.167   0.475  0.9425  0.5851  0.3081
 5317TIP3    H137586   0.365   2.262   0.486  0.2679  1.1346 -3.3750
 5317TIP3    H237587   0.375   2.154   0.381  1.1893 -3.0538  0.7031
 5318TIP3   OH237588   3.630   0.959   0.812 -0.0607 -0.1857  0.1260
 5318TIP3    H137589   3.671   0.876   0.834 -0.4217 -0.4238 -0.0941
 5318TIP3    H237590   3.703   1.020   0.801  0.2490 -0.6688 -0.5414
 5319TIP3   OH237591   4.157   3.943   1.396 -0.1983 -0.4665  0.0446
 5319TIP3    H137592   4.211   3.959   1.319 -1.5735  2.2909 -0.4848
 5319TIP3    H237593   4.217   3.953   1.470  0.7011 -1.0712 -0.5763
 5320TIP3   OH237594   3.753   3.402   1.684 -0.0872  0.1538 -0.3391
 5320TIP3    H137595   3.705   3.468   1.734 -2.1763 -0.9606 -0.7778
 5320TIP3    H237596   3.785   3.449   1.607 -0.1956  0.9938  0.1179
 5321TIP3   OH237597   4.588   2.044   3.745  0.0379  0.3046 -0.1537
 5321TIP3    H137598   4.649   2.088   3.804 -0.0821 -0.1787  0.3358
 5321TIP3    H237599   4.548   1.975   3.798  0.9097 -1.0081 -1.1379
 5322TIP3   OH237600   2.524   6.750   1.741 -0.1145  0.0663  0.0982
 5322TIP3    H137601   2.617   6.733   1.725 -0.0696 -1.1067  1.4064
 5322TIP3    H237602   2.523   6.807   1.818 -0.4668  1.3349 -0.8075
 5323TIP3   OH237603   4.754   3.781   2.302 -0.1556 -0.5039 -0.3047
 5323TIP3    H137604   4.674   3.833   2.310  0.3574  0.3402 -0.4577
 5323TIP3    H237605   4.776   3.784   2.209 -0.1134 -0.9879 -0.3128
 5324TIP3   OH237606   2.555   1.660   3.155 -0.4188  0.3785 -0.1620
 5324TIP3    H137607   2.533   1.608   3.232 -0.6494  0.0035 -0.4757
 5324TIP3    H237608   2.609   1.603   3.101 -1.3940  0.1297 -0.9189
 5325TIP3   OH237609   6.648   3.903   2.138 -0.3881  0.3674  0.2104
 5325TIP3    H137610   6.700   3.857   2.072 -0.5481  1.2045 -0.5302
 5325TIP3    H237611   6.597   3.834   2.180  0.1452 -0.2627 -0.1435
 5326TIP3   OH237612   1.205   0.730   3.902  0.0485 -0.0729 -0.2792
 5326TIP3    H137613   1.114   0.737   3.873 -0.3279 -1.4835  0.4912
 5326TIP3    H237614   1.201   0.732   3.997  1.0311  1.7692 -0.2259
 5327TIP3   OH237615   5.119   2.811   2.237  0.7279  0.9688  0.4341
 5327TIP3    H137616   5.117   2.868   2.314 -1.3877  1.2433  0.2457
 5327TIP3    H237617   5.095   2.724   2.271 -1.6310  1.3634 -0.0350
 5328TIP3   OH237618   4.932   4.758   1.786  0.1881  0.4772 -0.6133
 5328TIP3    H137619   4.936   4.854   1.786 -1.1886  0.5468 -0.5679
 5328TIP3    H237620   4.889   4.736   1.869 -0.0562 -0.1643 -0.9091
 5329TIP3   OH237621   0.218   4.487   0.398  0.1088 -0.1636 -0.1623
 5329TIP3    H137622   0.128   4.483   0.429  0.0927 -0.8086 -0.2993
 5329TIP3    H237623   0.252   4.399   0.411  0.4210 -0.1732 -1.0360
 5330TIP3   OH237624   4.475   6.041   1.953 -0.0823 -0.1768 -0.0136
 5330TIP3    H137625   4.525   6.089   1.886 -2.0929 -1.3707 -2.5636
 5330TIP3    H237626   4.403   6.100   1.975 -0.9030 -0.7829 -0.9601
 5331TIP3   OH237627   1.582   6.004   3.640 -0.3219 -0.1440 -0.2999
 5331TIP3    H137628   1.548   5.951   3.568  0.3299  2.2567 -2.5540
 5331TIP3    H237629   1.535   6.087   3.632  0.4246  0.5036  1.5076
 5332TIP3   OH237630   6.627   3.256   4.170  0.0935  0.5250  0.3941
 5332TIP3    H137631   6.683   3.332   4.183  0.3194  0.1813  1.5240
 5332TIP3    H237632   6.543   3.293   4.142  0.8310  1.0434 -1.2628
 5333TIP3   OH237633   3.176   3.702   2.235  0.6442  0.3819 -0.3664
 5333TIP3    H137634   3.227   3.683   2.313 -0.4090 -0.1862  0.2103
 5333TIP3    H237635   3.108   3.634   2.233 -0.0603  1.0703 -1.1309
 5334TIP3   OH237636   3.595   4.181   2.539 -0.1268  0.2036  0.1730
 5334TIP3    H137637   3.638   4.197   2.623  2.4950  1.4883 -1.2747
 5334TIP3    H237638   3.635   4.244   2.479  2.0262 -3.8659 -3.2403
 5335TIP3   OH237639   5.268   4.165   3.817  0.2672  0.8458 -0.6603
 5335TIP3    H137640   5.251   4.205   3.731 -1.1230  0.3868 -0.6274
 5335TIP3    H237641   5.193   4.190   3.870 -0.4267 -1.3412 -0.4985
 5336TIP3   OH237642   5.002   4.584   1.017 -0.3821 -0.2034 -0.1705
 5336TIP3    H137643   4.977   4.625   0.934 -0.0406 -0.3463 -0.3445
 5336TIP3    H237644   5.089   4.547   1.001 -0.2364 -0.0728  0.3081
 5337TIP3   OH237645   2.245   4.981   0.913 -0.7890  0.1702  0.3393
 5337TIP3    H137646   2.254   5.031   0.832 -0.6514  0.6458  0.6365
 5337TIP3    H237647   2.334   4.979   0.950 -0.5956 -1.1594 -0.1556
 5338TIP3   OH237648   5.784   2.856   1.117  0.6608 -0.2876 -0.2018
 5338TIP3    H137649   5.800   2.938   1.071  1.6473 -0.3670 -0.0119
 5338TIP3    H237650   5.820   2.788   1.059  0.1209 -0.5670 -0.2203
 5339TIP3   OH237651   3.905   3.478   3.268  0.1115 -0.5085  0.0623
 5339TIP3    H137652   3.844   3.459   3.197 -1.6662  1.5689  0.8903
 5339TIP3    H237653   3.918   3.573   3.263  1.6816 -0.6206  1.1930
 5340TIP3   OH237654   6.341   0.080   4.039  0.3106  0.0972 -0.5880
 5340TIP3    H137655   6.255   0.051   4.071  0.4847  0.9821  0.7333
 5340TIP3    H237656   6.321   0.142   3.969 -0.1796  1.2047  0.4990
 5341TIP3   OH237657   4.608   5.956   2.387 -0.1551 -0.0306 -0.1842
 5341TIP3    H137658   4.661   5.886   2.426 -1.7747 -1.3127 -0.1404
 5341TIP3    H237659   4.617   5.942   2.293 -0.8305 -0.6242 -0.1743
 5342TIP3   OH237660   2.056   0.898   1.530 -0.3608  0.2649  0.5819
 5342TIP3    H137661   2.081   0.830   1.467  0.7574 -0.5910  1.8811
 5342TIP3    H237662   1.966   0.921   1.507  0.5300  1.2006 -2.3404
 5343TIP3   OH237663   3.979   1.310   1.464 -0.3260 -0.2301 -0.1065
 5343TIP3    H137664   4.046   1.350   1.408  0.7552 -2.1043 -0.2456
 5343TIP3    H237665   3.953   1.231   1.416 -1.2503 -0.5275  0.8653
 5344TIP3   OH237666   0.202   0.547   2.724 -0.2669  0.1040 -0.2009
 5344TIP3    H137667   0.241   0.472   2.679 -1.7998 -1.6003  1.1585
 5344TIP3    H237668   0.239   0.544   2.812 -2.5803 -0.9889  0.8270
 5345TIP3   OH237669   1.045   3.481   2.836 -0.0840 -0.2807  0.2527
 5345TIP3    H137670   1.031   3.575   2.824  1.7530 -0.2595 -3.3861
 5345TIP3    H237671   0.996   3.441   2.764  0.8422 -1.9144  0.4891
 5346TIP3   OH237672   4.491   4.818   1.749  0.3784  0.0528  0.4081
 5346TIP3    H137673   4.488   4.907   1.715  1.1678  0.2256  0.7716
 5346TIP3    H237674   4.496   4.763   1.671  2.3045  0.4494  0.1852
 5347TIP3   OH237675   5.051   5.447   2.966  0.2104 -0.4618 -0.1265
 5347TIP3    H137676   5.133   5.452   2.916 -0.3332  1.6300 -0.9307
 5347TIP3    H237677   5.069   5.499   3.045 -0.1287 -0.5751  0.0272
 5348TIP3   OH237678   3.120   6.375   1.968 -0.4011  0.2024 -0.1241
 5348TIP3    H137679   3.054   6.339   2.027 -0.3529  1.5073  0.7669
 5348TIP3    H237680   3.201   6.331   1.992 -0.7478 -0.7111 -0.5793
 5349TIP3   OH237681   3.923   5.010   3.931 -0.4270 -0.0464 -0.1915
 5349TIP3    H137682   3.981   4.937   3.953  2.2534  2.2833  1.1345
 5349TIP3    H237683   3.864   5.017   4.005 -0.5917 -0.7336 -0.2499
 5350TIP3   OH237684   0.213   6.293   1.547  0.0028 -0.6577  0.1462
 5350TIP3    H137685   0.172   6.372   1.511  0.0448 -0.8323 -0.2817
 5350TIP3    H237686   0.212   6.308   1.642  0.3932  0.0484  0.0513
 5351TIP3   OH237687   0.290   0.262   1.351 -0.1426 -0.6386  0.1626
 5351TIP3    H137688   0.246   0.317   1.415  0.1222 -1.2742  0.9035
 5351TIP3    H237689   0.336   0.196   1.403  0.3327 -0.9791 -0.6648
 5352TIP3   OH237690   0.322   2.177   3.055  0.2960  0.6540  0.2943
 5352TIP3    H137691   0.371   2.258   3.040 -0.7534  1.0474 -1.1022
 5352TIP3    H237692   0.244   2.204   3.103 -0.3158  0.5696 -0.6261
 5353TIP3   OH237693   1.635   4.543   3.386 -0.0421  0.1195 -0.4659
 5353TIP3    H137694   1.700   4.474   3.390 -0.5531 -0.5614 -2.7296
 5353TIP3    H237695   1.680   4.617   3.345  0.4955  1.2008  1.9166
 5354TIP3   OH237696   0.491   0.606   4.995 -0.3834 -0.6315  0.5030
 5354TIP3    H137697   0.516   0.578   4.907 -0.2980  0.6709  0.0834
 5354TIP3    H237698   0.441   0.533   5.031 -0.3484 -1.2164 -0.5991
 5355TIP3   OH237699   4.285   5.068   0.734  0.1007 -0.0521  0.1876
 5355TIP3    H137700   4.304   5.072   0.828 -1.1994 -1.3300  0.5350
 5355TIP3    H237701   4.341   5.136   0.696  0.9860  0.1909  1.8190
 5356TIP3   OH237702   3.321   0.262   0.456  0.1700  0.1598  0.0326
 5356TIP3    H137703   3.382   0.194   0.430  1.3866  0.0643  2.7903
 5356TIP3    H237704   3.304   0.311   0.376  0.7564 -2.1697 -1.6275
 5357TIP3   OH237705   4.184   0.578   4.651 -0.0866  0.0292 -0.5840
 5357TIP3    H137706   4.111   0.595   4.711  1.2578  0.5141  1.0084
 5357TIP3    H237707   4.232   0.505   4.692 -0.2316 -0.9762 -2.1372
 5358TIP3   OH237708   2.370   5.253   1.223  0.9533  0.1707  0.2050
 5358TIP3    H137709   2.343   5.326   1.278  1.7320  0.4408  0.2441
 5358TIP3    H237710   2.293   5.196   1.218  0.8312  0.1916  1.4808
 5359TIP3   OH237711   0.948   2.669   1.384  0.1680 -0.9622 -0.0506
 5359TIP3    H137712   0.892   2.678   1.307 -1.9475  1.2328  1.6050
 5359TIP3    H237713   1.011   2.601   1.359 -0.5936 -0.5988 -3.5557
 5360TIP3   OH237714   0.735   0.840   4.999  0.6001 -0.1299 -0.0867
 5360TIP3    H137715   0.670   0.831   4.929  1.0920  1.1426 -0.7398
 5360TIP3    H237716   0.743   0.935   5.012  0.8446 -0.3324  1.3995
 5361TIP3   OH237717   0.650   2.133   1.616  0.9334 -0.1213  0.0754
 5361TIP3    H137718   0.701   2.211   1.597 -1.4573  1.9458  1.4642
 5361TIP3    H237719   0.676   2.108   1.705 -0.1188  0.7090  0.6385
 5362TIP3   OH237720   4.758   6.201   1.972 -0.2040  0.0647  0.2949
 5362TIP3    H137721   4.809   6.122   1.990 -0.4090 -0.6182 -1.8362
 5362TIP3    H237722   4.678   6.191   2.024  0.3699 -0.4455  1.1050
 5363TIP3   OH237723   3.359   3.614   3.824 -0.3721 -0.1995 -0.2325
 5363TIP3    H137724   3.322   3.527   3.810 -0.9121  0.0837 -0.5985
 5363TIP3    H237725   3.450   3.598   3.846  0.1283 -0.7688 -2.4803
 5364TIP3   OH237726   6.651   5.764   3.320  0.0601  0.3157  0.4986
 5364TIP3    H137727   6.728   5.735   3.271 -0.4933 -1.6703  0.6874
 5364TIP3    H237728   6.686   5.797   3.403  0.7313 -0.4574  0.5356
 5365TIP3   OH237729   0.811   4.550   1.460 -0.2054 -0.2638  0.2426
 5365TIP3    H137730   0.824   4.544   1.365  2.9416 -0.9713  0.6055
 5365TIP3    H237731   0.831   4.641   1.482 -0.2015 -0.2846  0.3272
 5366TIP3   OH237732   5.248   4.851   1.268  0.3877 -0.3366 -0.2027
 5366TIP3    H137733   5.255   4.763   1.304  0.5169 -1.5690 -2.9885
 5366TIP3    H237734   5.171   4.889   1.311  1.3936 -1.0269  2.4044
 5367TIP3   OH237735   5.351   3.657   3.990 -0.1904 -0.1447  0.1802
 5367TIP3    H137736   5.305   3.578   3.959 -1.5718  0.2947  0.9857
 5367TIP3    H237737   5.428   3.663   3.935 -0.8986 -1.1667 -0.9877
 5368TIP3   OH237738   6.201   1.381   4.998 -0.2988 -0.3013  0.1161
 5368TIP3    H137739   6.125   1.389   4.939  0.6305  0.1133 -1.0737
 5368TIP3    H237740   6.236   1.294   4.979  1.3539  0.6726 -1.7147
 5369TIP3   OH237741   1.273   2.953   1.313 -0.1243 -0.4475  0.0872
 5369TIP3    H137742   1.352   2.925   1.358  1.4528  1.7095 -1.1709
 5369TIP3    H237743   1.230   3.012   1.375  1.3765  1.5091 -0.6545
 5370TIP3   OH237744   0.336   2.924   2.298 -0.4103 -0.1696  0.3695
 5370TIP3    H137745   0.323   2.921   2.393 -0.8655  1.4252  0.3888
 5370TIP3    H237746   0.429   2.907   2.285 -0.5018 -1.2106  1.0366
 5371TIP3   OH237747   4.627   6.374   2.579  0.3023 -0.0957  0.1129
 5371TIP3    H137748   4.611   6.469   2.582  0.4203 -0.1054  2.0103
 5371TIP3    H237749   4.575   6.339   2.650  1.6037 -1.2581  0.5258
 5372TIP3   OH237750   2.352   5.347   8.833 -0.9667  0.2788  0.2165
 5372TIP3    H137751   2.432   5.327   8.881 -0.8795 -1.6493 -0.6120
 5372TIP3    H237752   2.293   5.273   8.853 -2.0869  1.0495 -0.1302
 5373TIP3   OH237753   2.612   2.917   1.186 -0.4691  0.0765  0.0594
 5373TIP3    H137754   2.541   2.902   1.248  0.0495  0.5997  0.7937
 5373TIP3    H237755   2.648   3.003   1.210  0.4823 -0.2288 -0.2252
 5374TIP3   OH237756   1.045   0.990   2.761  0.0052  0.5628  0.3300
 5374TIP3    H137757   1.052   1.011   2.668  0.3650  0.2580  0.2836
 5374TIP3    H237758   0.974   0.926   2.766  0.0231  0.5373  0.2594
 5375TIP3   OH237759   1.559   3.254   2.731  0.1685 -0.1806 -0.6444
 5375TIP3    H137760   1.614   3.321   2.689 -1.6973  1.9822  0.1855
 5375TIP3    H237761   1.612   3.174   2.726  2.7390  1.4235 -1.2278
 5376TIP3   OH237762   5.510   6.756   2.756 -0.3215  0.3702 -0.8852
 5376TIP3    H137763   5.421   6.781   2.779  0.4413  1.5917  1.0087
 5376TIP3    H237764   5.502   6.709   2.673 -2.6157  1.1181 -1.1385
 5377TIP3   OH237765   0.191   0.445   1.532 -0.0157 -0.2785  0.5013
 5377TIP3    H137766   0.261   0.497   1.572 -0.6236  0.7246  0.2853
 5377TIP3    H237767   0.125   0.437   1.600  0.2207 -1.0661  0.6437
 5378TIP3   OH237768   4.496   0.250   2.608  0.1316  0.0928 -0.0165
 5378TIP3    H137769   4.536   0.328   2.647  0.4975  0.3624 -0.9018
 5378TIP3    H237770   4.415   0.282   2.570  0.1738 -0.0082 -0.1897
 5379TIP3   OH237771   5.241   5.084   0.488 -0.0142 -0.8400  0.2967
 5379TIP3    H137772   5.294   5.148   0.440 -0.0384 -1.1904 -0.2063
 5379TIP3    H237773   5.291   5.066   0.568  0.0534 -0.2932  0.3800
 5380TIP3   OH237774   2.138   1.754   3.334 -0.0857 -0.0100  0.6194
 5380TIP3    H137775   2.211   1.781   3.390  0.0762 -0.9297  0.8700
 5380TIP3    H237776   2.179   1.698   3.267 -0.2328  1.2746 -0.5928
 5381TIP3   OH237777   0.916   4.210   1.878  0.2894 -0.4765 -0.6067
 5381TIP3    H137778   0.971   4.163   1.816  1.2911 -1.4238  0.9299
 5381TIP3    H237779   0.880   4.283   1.828  2.5232 -0.1381 -1.8222
 5382TIP3   OH237780   4.194   0.504   1.870 -0.4049 -0.0380 -0.0212
 5382TIP3    H137781   4.131   0.435   1.891  0.5720 -1.4279 -1.4252
 5382TIP3    H237782   4.222   0.537   1.955 -2.5459  0.2213  0.6568
 5383TIP3   OH237783   3.600   6.076   2.680  0.2649  0.9995  0.3784
 5383TIP3    H137784   3.598   6.172   2.675 -0.9533  0.9863  0.2615
 5383TIP3    H237785   3.548   6.048   2.605 -1.5164  0.3182  1.7904
 5384TIP3   OH237786   4.801   3.635   2.663  0.2853  0.0550 -0.2514
 5384TIP3    H137787   4.815   3.555   2.713  1.1895 -0.5213 -1.3719
 5384TIP3    H237788   4.793   3.605   2.572  1.1354  1.2637 -0.7495
 5385TIP3   OH237789   1.422   5.077   4.876 -0.4012  0.0759 -0.5466
 5385TIP3    H137790   1.415   4.998   4.929  1.8246 -0.5655 -1.1355
 5385TIP3    H237791   1.387   5.053   4.791  0.6862 -0.4335 -0.8598
 5386TIP3   OH237792   3.024   0.971   4.593  0.0069 -0.2025  0.0475
 5386TIP3    H137793   3.071   0.939   4.516  1.8896  1.3681  0.4661
 5386TIP3    H237794   3.008   1.063   4.575 -1.5779 -0.3423  0.6036
 5387TIP3   OH237795   5.800   1.844   2.106 -0.3984  0.1469 -0.0254
 5387TIP3    H137796   5.808   1.837   2.011 -0.5494  2.6301 -0.2781
 5387TIP3    H237797   5.712   1.811   2.126 -0.0068 -1.3052 -0.5892
 5388TIP3   OH237798   6.127   3.400   3.651  0.2219 -0.5187 -0.6863
 5388TIP3    H137799   6.109   3.386   3.558  0.3016 -0.8040 -0.6620
 5388TIP3    H237800   6.086   3.325   3.695 -0.0790 -0.2280 -0.4601
 5389TIP3   OH237801   5.283   6.170   2.907 -0.5755  0.4281 -0.6099
 5389TIP3    H137802   5.344   6.240   2.933  2.9558 -1.3384 -3.1760
 5389TIP3    H237803   5.222   6.213   2.848 -0.0524  1.8039 -0.1912
 5390TIP3   OH237804   6.726   0.569   0.435  0.5917  0.2042 -0.2331
 5390TIP3    H137805   6.674   0.601   0.362 -0.6220 -0.8263  0.1404
 5390TIP3    H237806   6.683   0.488   0.462  1.1727  0.4077  1.4389
 5391TIP3   OH237807   3.288   4.052   3.333 -0.3052 -0.5758 -0.6777
 5391TIP3    H137808   3.205   4.071   3.290 -0.5909  1.9501  0.7934
 5391TIP3    H237809   3.341   4.131   3.319  0.0781 -0.1906  2.3235
 5392TIP3   OH237810   1.492   0.166   3.213 -0.1601  0.3961 -0.4078
 5392TIP3    H137811   1.502   0.075   3.238 -3.0886 -0.3329 -1.4842
 5392TIP3    H237812   1.538   0.215   3.281  1.8166 -1.8479 -0.0222
 5393TIP3   OH237813   2.444   4.532   1.836  0.0857  0.1425  0.1178
 5393TIP3    H137814   2.389   4.486   1.773 -0.7543  0.4276  0.6214
 5393TIP3    H237815   2.529   4.489   1.831  0.1011  0.3112 -1.3676
 5394TIP3   OH237816   5.668   4.494   3.081  0.0436  0.3077  0.4849
 5394TIP3    H137817   5.627   4.491   3.168 -0.2648  3.3416  0.5655
 5394TIP3    H237818   5.596   4.509   3.021  0.4902  0.4029 -0.0345
 5395TIP3   OH237819   5.290   2.103   1.778 -0.2944 -0.8534 -0.2396
 5395TIP3    H137820   5.242   2.064   1.851  0.3948  1.1992  1.4000
 5395TIP3    H237821   5.235   2.087   1.702 -1.3050 -2.5869  0.7940
 5396TIP3   OH237822   2.864   1.567   8.528 -0.0515  0.6385 -0.0556
 5396TIP3    H137823   2.952   1.585   8.494 -0.2945 -0.0586 -1.0915
 5396TIP3    H237824   2.877   1.559   8.623  0.7393  2.0410 -0.0090
 5397TIP3   OH237825   4.226   4.558   4.252  0.1282 -0.4903 -0.2595
 5397TIP3    H137826   4.209   4.498   4.179  0.7563 -0.8995 -0.0779
 5397TIP3    H237827   4.311   4.531   4.285  0.5596  0.7017 -0.3605
 5398TIP3   OH237828   4.995   6.605   1.974 -0.0121 -0.4135 -0.3197
 5398TIP3    H137829   4.932   6.564   1.915 -0.3120 -0.8833  0.3241
 5398TIP3    H237830   4.942   6.648   2.041  0.3090  0.6751 -0.7421
 5399TIP3   OH237831   0.165   4.338   4.886 -0.8056 -0.6850 -0.6157
 5399TIP3    H137832   0.156   4.383   4.802 -0.6056  0.3750 -0.0878
 5399TIP3    H237833   0.256   4.307   4.887 -1.4762 -2.8890 -1.8176
 5400TIP3   OH237834   0.178   4.631   3.017 -0.3496  0.4995 -0.0473
 5400TIP3    H137835   0.136   4.704   2.972 -1.5375 -0.1899 -0.0975
 5400TIP3    H237836   0.154   4.642   3.109 -0.2664  0.3506 -0.0073
 5401TIP3   OH237837   5.877   4.154   2.830 -0.0039  0.5846  0.0877
 5401TIP3    H137838   5.858   4.064   2.857 -0.1738  0.3997 -0.6199
 5401TIP3    H237839   5.825   4.209   2.888  0.4765  0.2481  0.8433
 5402TIP3   OH237840   1.770   0.885   2.431 -0.1297 -0.5976  0.1277
 5402TIP3    H137841   1.823   0.913   2.356 -0.0556  0.0197  0.4055
 5402TIP3    H237842   1.806   0.799   2.455  1.4486  0.2593  0.9654
 5403TIP3   OH237843   3.262   4.918   0.943  0.3806  0.6658 -0.0278
 5403TIP3    H137844   3.334   4.976   0.921  0.5986  0.1477 -0.7247
 5403TIP3    H237845   3.185   4.975   0.947  0.8325  1.2352  0.8328
 5404TIP3   OH237846   4.140   3.313   3.273  0.0801  0.0771 -0.1258
 5404TIP3    H137847   4.107   3.224   3.290  0.5525  0.1657  1.3515
 5404TIP3    H237848   4.066   3.370   3.294  0.0971  0.0967 -0.1195
 5405TIP3   OH237849   0.465   4.611   0.525 -0.2093 -0.3411  0.1568
 5405TIP3    H137850   0.490   4.519   0.523  1.4771  0.0647  0.8840
 5405TIP3    H237851   0.448   4.634   0.434  0.4558 -1.0725 -0.1587
 5406TIP3   OH237852   0.126   2.113   0.624  0.5057  0.3037  0.6244
 5406TIP3    H137853   0.093   2.127   0.535  0.6552  1.8106  0.7838
 5406TIP3    H237854   0.220   2.132   0.618  0.3833  1.1922  1.2463
 5407TIP3   OH237855   0.685   4.240   3.524  0.7147  0.6102 -0.1774
 5407TIP3    H137856   0.652   4.167   3.576 -1.5841  0.2923 -1.9300
 5407TIP3    H237857   0.642   4.317   3.561  2.0989  0.9573  0.8033
 5408TIP3   OH237858   1.760   6.553   2.800 -0.8102 -0.6225  0.8544
 5408TIP3    H137859   1.698   6.552   2.727  1.1107 -3.5785 -1.0049
 5408TIP3    H237860   1.745   6.636   2.844 -2.6817  0.9895 -2.4239
 5409TIP3   OH237861   0.652   6.254   2.910 -0.3425  0.1447  0.4849
 5409TIP3    H137862   0.596   6.322   2.948 -1.0622 -0.3536  0.3161
 5409TIP3    H237863   0.632   6.255   2.817 -0.8073 -0.7197  0.5709
 5410TIP3   OH237864   0.670   2.087   4.659 -0.3641 -0.0644  0.4886
 5410TIP3    H137865   0.679   2.150   4.731 -1.9987 -0.0757  0.7434
 5410TIP3    H237866   0.746   2.029   4.668  1.3517  2.0147  0.0631
 5411TIP3   OH237867   2.896   3.485   4.637  0.5902 -0.0799 -0.1857
 5411TIP3    H137868   2.859   3.517   4.719  1.4428 -0.4883  0.3753
 5411TIP3    H237869   2.863   3.395   4.629 -0.2046  0.2555 -0.7473
 5412TIP3   OH237870   5.649   6.344   4.346 -0.2099 -0.8371 -0.4454
 5412TIP3    H137871   5.560   6.373   4.366 -1.0263 -1.3846 -3.0138
 5412TIP3    H237872   5.682   6.409   4.283  0.6504 -1.4805 -0.6798
 5413TIP3   OH237873   0.052   1.422   4.885  0.5233 -0.3792  0.3268
 5413TIP3    H137874   0.129   1.389   4.930 -0.0701 -2.7047 -0.2257
 5413TIP3    H237875   0.068   1.404   4.792 -1.2494 -2.4008  0.3132
 5414TIP3   OH237876   6.698   2.029   2.736  0.3902  0.0139 -0.7709
 5414TIP3    H137877   6.654   2.033   2.651 -1.1433 -1.0276 -0.0974
 5414TIP3    H237878   6.671   1.944   2.772  3.3804 -0.9006 -0.4555
 5415TIP3   OH237879   4.251   1.270   4.146 -0.0573  0.5685  0.0836
 5415TIP3    H137880   4.230   1.187   4.190 -0.4613  1.9803  2.8159
 5415TIP3    H237881   4.287   1.325   4.216 -0.4209  2.9245 -1.4768
 5416TIP3   OH237882   0.359   0.765   0.171 -0.2817 -0.2386  0.6833
 5416TIP3    H137883   0.388   0.809   0.091 -0.2936  0.4054  1.0237
 5416TIP3    H237884   0.283   0.714   0.145 -0.4562  0.1944  0.3436
 5417TIP3   OH237885   1.554   5.762   2.860  0.2311 -0.0142 -0.1984
 5417TIP3    H137886   1.576   5.855   2.859 -1.0236  0.2924 -0.8180
 5417TIP3    H237887   1.459   5.759   2.856  0.2765 -1.3417 -1.0847
 5418TIP3   OH237888   1.510   3.443   1.369  0.5842 -1.2937 -0.1684
 5418TIP3    H137889   1.592   3.430   1.323  1.4691  2.9888 -0.1933
 5418TIP3    H237890   1.445   3.459   1.300  0.2675 -2.0290 -0.0573
 5419TIP3   OH237891   1.948   2.465   3.630  0.0883  1.1281 -0.2764
 5419TIP3    H137892   1.962   2.370   3.635 -1.7668  0.6374 -2.7640
 5419TIP3    H237893   1.949   2.493   3.722  1.3022 -1.1575  0.5060
 5420TIP3   OH237894   5.569   3.993   2.875 -0.8919  0.0931 -0.1602
 5420TIP3    H137895   5.629   4.061   2.906 -1.1733  0.4862 -0.4577
 5420TIP3    H237896   5.591   3.916   2.926  0.3363  0.0356 -0.7340
 5421TIP3   OH237897   5.494   4.936   1.746  0.5894  0.4786  0.2246
 5421TIP3    H137898   5.449   4.970   1.668  0.4714 -0.0365  0.0640
 5421TIP3    H237899   5.544   5.010   1.779 -0.7654  1.2204  0.6865
 5422TIP3   OH237900   2.771   0.426   3.572  0.2234 -0.1693  0.1028
 5422TIP3    H137901   2.737   0.346   3.531 -1.4231  0.3301  0.4503
 5422TIP3    H237902   2.709   0.446   3.642  0.9603  1.0796  0.4261
 5423TIP3   OH237903   2.181   0.756   1.099 -0.5941 -0.0521  0.4881
 5423TIP3    H137904   2.205   0.735   1.189 -0.1112 -1.0614  0.1331
 5423TIP3    H237905   2.261   0.791   1.060 -0.4396 -0.8469  0.0806
 5424TIP3   OH237906   0.148   1.656   1.898  0.0139  0.6361 -0.3956
 5424TIP3    H137907   0.161   1.738   1.946 -1.5626  1.0102 -0.5570
 5424TIP3    H237908   0.054   1.654   1.879  0.1745 -0.7920 -1.1585
 5425TIP3   OH237909   1.112   6.562   3.946  0.5822 -0.1917 -0.0911
 5425TIP3    H137910   1.048   6.491   3.947  1.0833 -0.6806 -1.0131
 5425TIP3    H237911   1.060   6.642   3.942 -0.0348 -0.4041  2.1371
 5426TIP3   OH237912   3.711   3.075   4.914 -0.2317 -0.4049 -0.2800
 5426TIP3    H137913   3.752   3.055   4.998  1.3523  0.0649 -0.8979
 5426TIP3    H237914   3.664   2.995   4.890 -2.0510 -0.0317  1.7631
 5427TIP3   OH237915   1.462   1.722   2.799 -0.6199 -0.0338  0.3012
 5427TIP3    H137916   1.545   1.749   2.839 -0.6652  1.4527 -0.5239
 5427TIP3    H237917   1.487   1.669   2.724 -0.4166  0.0642  0.2982
 5428TIP3   OH237918   3.984   4.725   4.409 -0.0462  0.5151 -0.6906
 5428TIP3    H137919   3.920   4.654   4.401 -1.1220  1.3952 -0.1074
 5428TIP3    H237920   4.056   4.698   4.352  0.2499 -1.7623  0.6342
 5429TIP3   OH237921   4.834   0.965   2.740 -0.4600  0.2036 -0.3699
 5429TIP3    H137922   4.908   0.907   2.723 -2.1458 -1.6674 -1.7476
 5429TIP3    H237923   4.848   1.039   2.680  0.3543 -0.0491 -0.5100
 5430TIP3   OH237924   3.755   0.379   1.217 -0.0163 -0.8321  0.3215
 5430TIP3    H137925   3.788   0.292   1.242  0.6308 -0.2486  1.6231
 5430TIP3    H237926   3.828   0.438   1.237 -0.7943  0.1237  0.3883
 5431TIP3   OH237927   2.268   5.151   0.700 -0.1044  1.1313  0.5224
 5431TIP3    H137928   2.359   5.153   0.728  0.2583  2.0843 -0.6695
 5431TIP3    H237929   2.242   5.243   0.692 -0.9208  0.8797  0.0745
 5432TIP3   OH237930   6.091   6.769   4.264 -0.1848 -0.3382 -0.3800
 5432TIP3    H137931   6.183   6.761   4.289  0.5491  0.1830 -2.6740
 5432TIP3    H237932   6.059   6.844   4.314  0.1440 -1.4796  1.6383
 5433TIP3   OH237933   1.135   4.384   2.526 -0.0702  0.2468 -0.1540
 5433TIP3    H137934   1.226   4.353   2.526 -0.0307  0.3532 -0.6181
 5433TIP3    H237935   1.141   4.477   2.548 -0.2697 -0.2573  2.2819
 5434TIP3   OH237936   5.084   3.548   4.373 -0.4811 -0.4646  0.7079
 5434TIP3    H137937   5.001   3.571   4.413  1.0595  0.7849  3.4494
 5434TIP3    H237938   5.117   3.631   4.336  0.3454 -0.5361  1.2578
 5435TIP3   OH237939   6.534   0.052   1.127 -0.0785 -0.3660 -0.8938
 5435TIP3    H137940   6.541   0.127   1.186  1.3233 -0.2338 -1.1828
 5435TIP3    H237941   6.621   0.011   1.131 -0.5404 -1.4455 -1.4377
 5436TIP3   OH237942   1.156   5.615   3.630 -0.1634  0.1495  0.5008
 5436TIP3    H137943   1.147   5.554   3.557  0.0152  0.5251  0.1604
 5436TIP3    H237944   1.119   5.569   3.705 -2.9102  0.7703 -0.3471
 5437TIP3   OH237945   6.602   4.432   3.854  0.0664 -0.0807  0.6333
 5437TIP3    H137946   6.510   4.425   3.882 -0.1784  0.3733 -0.0197
 5437TIP3    H237947   6.629   4.341   3.839  0.1499 -0.3225  2.1061
 5438TIP3   OH237948   1.514   0.980   3.969  0.1779 -0.1362  0.6197
 5438TIP3    H137949   1.478   0.980   4.057 -1.6143  0.7421 -0.0680
 5438TIP3    H237950   1.511   0.888   3.942  0.4263 -0.3579  1.3223
 5439TIP3   OH237951   0.075   1.865   3.541 -0.1679 -0.1459  0.4819
 5439TIP3    H137952  -0.014   1.893   3.563 -0.5572 -1.4554  0.6473
 5439TIP3    H237953   0.106   1.821   3.619  0.1298 -0.8456 -0.0168
 5440TIP3   OH237954   4.552   3.933   1.337 -0.3740 -0.5276  0.1830
 5440TIP3    H137955   4.498   4.011   1.324  0.0332  0.3291  2.9447
 5440TIP3    H237956   4.641   3.963   1.321 -0.1827 -0.2839  1.5796
 5441TIP3   OH237957   4.580   6.826   3.855  0.1993  0.2889  0.1441
 5441TIP3    H137958   4.653   6.819   3.917 -0.2207 -0.8118  0.5397
 5441TIP3    H237959   4.621   6.857   3.774  0.8939  0.9026  0.7150
 5442TIP3   OH237960   5.191   0.341   0.751 -0.3095 -0.6663 -0.0297
 5442TIP3    H137961   5.136   0.393   0.810  0.5525  0.2552 -0.0127
 5442TIP3    H237962   5.133   0.273   0.718 -1.1214 -0.4930  0.9779
 5443TIP3   OH237963   4.078   5.331   1.993  0.3006 -0.0059 -0.5295
 5443TIP3    H137964   4.145   5.332   1.925  0.2699 -0.4229 -0.5660
 5443TIP3    H237965   4.098   5.408   2.047  0.0868  0.5501 -1.2352
 5444TIP3   OH237966   4.061   5.458   2.478 -0.1564 -0.2201 -0.3675
 5444TIP3    H137967   4.097   5.487   2.562  0.6080 -1.2451 -0.3226
 5444TIP3    H237968   3.966   5.464   2.489 -0.1080  3.5916 -0.8628
 5445TIP3   OH237969   4.659   1.596   3.252  0.3533 -0.1580  0.0628
 5445TIP3    H137970   4.632   1.504   3.248  1.4217 -0.4869  0.2009
 5445TIP3    H237971   4.703   1.613   3.169 -2.1324  1.0202 -1.1384
 5446TIP3   OH237972   1.310   3.989   3.307  0.0084 -0.0178  0.0105
 5446TIP3    H137973   1.226   3.991   3.353 -0.4755  0.6090 -0.8788
 5446TIP3    H237974   1.370   4.038   3.364 -0.3759  0.0322  0.3725
 5447TIP3   OH237975   2.739   2.277   0.218  0.0547  0.3082  0.4435
 5447TIP3    H137976   2.707   2.260   0.130 -0.5381 -2.7746  1.1156
 5447TIP3    H237977   2.833   2.287   0.208 -0.1898  1.8431 -0.6916
 5448TIP3   OH237978   1.060   4.998   3.095 -0.9267  0.0550 -0.2359
 5448TIP3    H137979   1.137   5.055   3.100 -1.6101  1.0331 -0.6910
 5448TIP3    H237980   1.086   4.919   3.143  0.1480  0.6107  0.1292
 5449TIP3   OH237981   4.409   1.493   1.736 -0.1438 -0.1487 -0.4194
 5449TIP3    H137982   4.401   1.442   1.656  0.5588  0.1886 -0.7089
 5449TIP3    H237983   4.340   1.458   1.793 -1.7318  0.6628 -1.7237
 5450TIP3   OH237984   3.531   4.340   1.774  0.0626  1.1665  0.6003
 5450TIP3    H137985   3.515   4.415   1.716 -1.3817  0.7511  0.4241
 5450TIP3    H237986   3.573   4.275   1.718 -1.8456  0.5461 -0.1822
 5451TIP3   OH237987   3.267   3.701   0.673  0.5292  0.0532  0.2253
 5451TIP3    H137988   3.251   3.789   0.638  0.0590  0.3395  1.1397
 5451TIP3    H237989   3.181   3.662   0.681  0.8669 -1.8423 -3.4346
 5452TIP3   OH237990   3.913   1.691   4.313  0.1605 -0.5091 -0.8376
 5452TIP3    H137991   3.988   1.747   4.291  0.5151 -0.9758 -0.8339
 5452TIP3    H237992   3.900   1.705   4.407  2.1088 -2.5884 -0.1512
 5453TIP3   OH237993   3.339   5.783   2.359  0.1160 -0.3586  0.4477
 5453TIP3    H137994   3.268   5.820   2.411 -0.0289  1.0146 -0.6521
 5453TIP3    H237995   3.295   5.730   2.292  0.1143  0.4976 -0.2383
 5454TIP3   OH237996   4.092   2.561   3.544  1.0007 -0.9440 -0.0574
 5454TIP3    H137997   4.060   2.649   3.526  0.1376 -0.4591  3.0848
 5454TIP3    H237998   4.088   2.516   3.460  0.0719  1.5756 -1.4749
 5455TIP3   OH237999   5.065   5.386   2.158  0.3911  0.2132  0.8998
 5455TIP3    H138000   4.985   5.428   2.190 -0.9060 -1.4513  0.0460
 5455TIP3    H238001   5.048   5.371   2.065  1.3465 -0.9152  0.8835
 5456TIP3   OH238002   2.205   4.135   1.477 -0.4101  0.0647 -0.1337
 5456TIP3    H138003   2.183   4.216   1.431 -4.6448 -0.1548  1.0263
 5456TIP3    H238004   2.139   4.072   1.447  0.5748 -1.9125  1.5760
 5457TIP3   OH238005   4.694   6.535   0.460  0.1932  0.4803 -0.2089
 5457TIP3    H138006   4.651   6.615   0.490  1.5937  1.3595 -0.4516
 5457TIP3    H238007   4.724   6.555   0.371  1.7698  0.1989  0.2250
 5458TIP3   OH238008   1.449   0.439   0.663 -0.1586  0.3273 -0.3640
 5458TIP3    H138009   1.483   0.426   0.752 -0.2848 -2.7049 -0.6296
 5458TIP3    H238010   1.366   0.485   0.676  0.0012  0.2569  1.0846
 5459TIP3   OH238011   6.275   5.021   3.505  0.4805 -0.7273 -0.2116
 5459TIP3    H138012   6.247   5.080   3.436  0.7066  0.5772  0.7641
 5459TIP3    H238013   6.262   5.071   3.586 -1.0401 -2.6469  0.8411
 5460TIP3   OH238014   6.077   1.900   3.609 -0.0663  0.2224 -0.0759
 5460TIP3    H138015   6.054   1.970   3.669  1.1793  2.2800 -1.8489
 5460TIP3    H238016   5.999   1.845   3.603 -1.7549  2.5155 -0.0199
 5461TIP3   OH238017   5.292   2.299   3.762  0.6172  0.7817  0.0540
 5461TIP3    H138018   5.348   2.342   3.697  0.3721  1.1720  0.0954
 5461TIP3    H238019   5.208   2.345   3.755 -0.2264 -0.8610 -1.1540
 5462TIP3   OH238020   0.537   1.580   0.973 -0.0920  0.1512 -0.0868
 5462TIP3    H138021   0.468   1.517   0.950 -0.4614  0.0669  1.1522
 5462TIP3    H238022   0.580   1.600   0.890 -2.3563  1.0918 -1.1215
 5463TIP3   OH238023   3.381   1.569   0.784  0.2877  0.2157  0.0164
 5463TIP3    H138024   3.287   1.554   0.797  0.6843 -1.8989  0.9459
 5463TIP3    H238025   3.415   1.589   0.871  0.4898  2.8165 -0.5815
 5464TIP3   OH238026   2.105   2.397   0.220 -0.0915  0.7720  0.1932
 5464TIP3    H138027   2.092   2.492   0.223  0.6930  0.8668  1.0346
 5464TIP3    H238028   2.184   2.386   0.167  1.5442  0.8140  2.4867
 5465TIP3   OH238029   1.682   3.045   3.064  0.1838 -0.3013 -0.1297
 5465TIP3    H138030   1.694   3.140   3.057  0.9553 -0.3781  0.0416
 5465TIP3    H238031   1.767   3.008   3.039 -0.1703 -0.9592 -0.3904
 5466TIP3   OH238032   4.356   1.145   0.178  0.1272 -0.4361  0.1402
 5466TIP3    H138033   4.275   1.120   0.223 -1.3269  0.8773 -1.5920
 5466TIP3    H238034   4.416   1.172   0.248 -1.7053  0.6710  1.3685
 5467TIP3   OH238035   2.237   4.154   3.435  0.6260  0.3798 -0.4281
 5467TIP3    H138036   2.235   4.094   3.509  0.8916  0.6054 -0.2363
 5467TIP3    H238037   2.175   4.223   3.458 -0.0641 -0.0748 -0.8738
 5468TIP3   OH238038   0.109   0.224   1.825 -0.1845  0.2493 -0.4916
 5468TIP3    H138039   0.017   0.225   1.853 -0.2629  0.2491 -0.7504
 5468TIP3    H238040   0.120   0.305   1.776 -0.5373 -0.6010 -2.0334
 5469TIP3   OH238041   1.709   5.841   8.702  0.0307 -0.0111 -0.2304
 5469TIP3    H138042   1.763   5.919   8.687  1.5615 -0.9594  0.1582
 5469TIP3    H238043   1.643   5.870   8.765  0.7655  0.8962  0.1479
 5470TIP3   OH238044   6.829   2.308   4.540  0.0528 -0.3881 -0.2694
 5470TIP3    H138045   6.870   2.393   4.556  1.7910 -1.1607 -0.3621
 5470TIP3    H238046   6.742   2.315   4.578  0.2219  1.3698 -0.1323
 5471TIP3   OH238047   1.427   2.303   0.332 -0.0812 -0.1986  0.0536
 5471TIP3    H138048   1.499   2.363   0.353 -2.3060  2.4651  0.5049
 5471TIP3    H238049   1.458   2.256   0.255  0.8832  3.3012 -1.9070
 5472TIP3   OH238050   3.160   5.859   3.053 -0.3959 -0.3308 -0.6731
 5472TIP3    H138051   3.082   5.821   3.091  0.2907 -2.4455 -1.2453
 5472TIP3    H238052   3.230   5.796   3.072  1.1746  1.4340 -0.2717
 5473TIP3   OH238053   6.820   0.150   3.685  0.4191  0.3273 -0.5742
 5473TIP3    H138054   6.751   0.214   3.704 -2.5310 -2.2428 -1.8381
 5473TIP3    H238055   6.843   0.114   3.771  0.7627  1.6820 -0.0646
 5474TIP3   OH238056   3.150   1.991   2.625  0.3590  0.1708  0.0901
 5474TIP3    H138057   3.198   1.981   2.543  0.2144  0.1282  0.0107
 5474TIP3    H238058   3.218   1.992   2.692  0.5443  1.0285 -0.0943
 5475TIP3   OH238059   5.684   6.477   3.656 -0.4940  0.0070  0.4159
 5475TIP3    H138060   5.656   6.438   3.739  0.0432 -0.8160  0.2208
 5475TIP3    H238061   5.730   6.406   3.610  0.3609  0.8225 -0.0206
 5476TIP3   OH238062   1.930   0.452   1.792 -0.6435  0.1229 -0.1344
 5476TIP3    H138063   1.848   0.412   1.821 -0.8328  1.4724  1.3625
 5476TIP3    H238064   1.906   0.542   1.770  0.4343  0.5647  0.4282
 5477TIP3   OH238065   3.883   0.237   2.624  0.2574 -0.8502 -0.1762
 5477TIP3    H138066   3.961   0.286   2.599 -0.0018 -0.2754  0.1186
 5477TIP3    H238067   3.824   0.303   2.660 -1.1667 -0.9256 -2.1987
 5478TIP3   OH238068   0.613   0.840   3.517  0.4225 -0.4532  0.2992
 5478TIP3    H138069   0.556   0.763   3.517 -0.9111  0.4273 -2.0386
 5478TIP3    H238070   0.616   0.867   3.609 -1.0786 -1.8572  0.8116
 5479TIP3   OH238071   1.415   0.670   2.341  0.0588 -0.0217  0.1083
 5479TIP3    H138072   1.454   0.600   2.289 -1.5140 -0.7159 -0.1905
 5479TIP3    H238073   1.459   0.665   2.425  1.4919  0.0605 -0.6013
 5480TIP3   OH238074   3.132   4.399   4.809  0.4814 -0.1556  0.2005
 5480TIP3    H138075   3.208   4.385   4.754  1.4947  0.7772  1.3165
 5480TIP3    H238076   3.130   4.324   4.868  2.0013  0.9481  1.7624
 5481TIP3   OH238077   0.812   3.548   4.119 -0.8901 -0.6576 -0.2397
 5481TIP3    H138078   0.728   3.519   4.083 -0.9568 -0.0198 -0.6065
 5481TIP3    H238079   0.789   3.600   4.196 -0.9859  1.5396 -1.6810
 5482TIP3   OH238080   3.384   5.873   0.548  0.3422  0.2140 -0.2094
 5482TIP3    H138081   3.295   5.908   0.554  1.0494  1.8832  3.6546
 5482TIP3    H238082   3.431   5.935   0.493 -0.3250  0.7213 -0.2133
 5483TIP3   OH238083   4.420   4.751   3.207  0.6439  0.2184 -0.3476
 5483TIP3    H138084   4.354   4.775   3.273  1.0269 -0.3402  0.2557
 5483TIP3    H238085   4.456   4.835   3.178 -1.1356  0.6167 -1.5585
 5484TIP3   OH238086   3.781   4.203   0.912  0.3124 -0.3149 -0.1839
 5484TIP3    H138087   3.841   4.232   0.982  1.0414  0.3922 -1.0718
 5484TIP3    H238088   3.731   4.132   0.951  0.1451  0.5764  1.3297
 5485TIP3   OH238089   2.629   4.086   4.424  0.5843  0.1145  0.5380
 5485TIP3    H138090   2.646   4.112   4.514 -0.0660 -0.1916  0.7488
 5485TIP3    H238091   2.716   4.071   4.387  0.8341 -0.3057  1.2742
 5486TIP3   OH238092   6.060   0.178   4.411 -0.3870  0.2523 -0.0482
 5486TIP3    H138093   6.146   0.219   4.420 -1.7278  2.9114  1.7224
 5486TIP3    H238094   6.048   0.129   4.493 -1.1144  1.0920  0.3624
 5487TIP3   OH238095   3.918   5.637   2.780  0.0632 -0.0550  0.1546
 5487TIP3    H138096   3.877   5.721   2.802  0.2392  0.1463 -0.2714
 5487TIP3    H238097   3.977   5.619   2.852  1.9122  1.4304 -0.9041
 5488TIP3   OH238098   5.979   0.035   1.075 -0.6284  0.0166 -0.2876
 5488TIP3    H138099   5.977  -0.027   1.148 -1.7617  0.6733  0.2595
 5488TIP3    H238100   6.022   0.113   1.112  0.3096 -0.2317 -0.8186
 5489TIP3   OH238101   1.350   4.113   2.049 -0.0111  0.1168 -0.1600
 5489TIP3    H138102   1.399   4.036   2.076  0.3060 -0.1675 -1.4793
 5489TIP3    H238103   1.302   4.140   2.127  1.0096 -0.5390  0.7137
 5490TIP3   OH238104   5.409   5.282   3.374 -0.0551  0.1350 -0.0968
 5490TIP3    H138105   5.427   5.373   3.399  2.9413 -0.0173 -1.2095
 5490TIP3    H238106   5.440   5.231   3.448 -0.6749 -0.0193  0.0574
 5491TIP3   OH238107   0.852   3.636   3.010  0.3040 -0.0694 -0.0645
 5491TIP3    H138108   0.827   3.551   2.972 -0.2988  0.3667 -0.6662
 5491TIP3    H238109   0.873   3.616   3.101  1.7355 -1.1286 -0.6012
 5492TIP3   OH238110   5.433   6.639   3.648  0.1900 -0.9034  0.1006
 5492TIP3    H138111   5.517   6.633   3.602  0.7075  0.5988  0.7855
 5492TIP3    H238112   5.376   6.687   3.588 -0.7239 -3.1910 -1.0117
 5493TIP3   OH238113   1.671   1.589   2.981  0.3170 -0.1592 -0.1525
 5493TIP3    H138114   1.650   1.496   2.977  0.3481 -0.1421 -0.7035
 5493TIP3    H238115   1.758   1.597   2.941 -1.3262  0.6174 -4.0353
 5494TIP3   OH238116   1.249   5.722   0.930 -0.5907  0.0348  0.0995
 5494TIP3    H138117   1.314   5.769   0.983 -1.6336  1.7721 -0.0969
 5494TIP3    H238118   1.298   5.649   0.891  1.4306  1.6956 -0.6201
 5495TIP3   OH238119   0.801   1.807   0.413 -0.4214  0.4580  0.0871
 5495TIP3    H138120   0.837   1.804   0.324 -0.6602  1.8764 -0.0782
 5495TIP3    H238121   0.870   1.770   0.468  0.7585  1.8670 -0.3878
 5496TIP3   OH238122   1.902   4.718   2.730 -0.1577 -0.0694 -0.2327
 5496TIP3    H138123   1.872   4.643   2.679  0.4301  0.2084 -1.0066
 5496TIP3    H238124   1.995   4.728   2.707 -0.4954  1.5802 -1.0277
 5497TIP3   OH238125   5.145   2.306   3.325 -0.0328  0.0494  0.3954
 5497TIP3    H138126   5.080   2.361   3.282  0.9433  0.7165 -0.2588
 5497TIP3    H238127   5.224   2.361   3.330 -0.2075  0.1606  3.4244
 5498TIP3   OH238128   2.001   0.586   0.991  0.4038 -0.0742  0.6300
 5498TIP3    H138129   1.924   0.598   1.048 -0.2621  1.9629 -0.6043
 5498TIP3    H238130   2.061   0.656   1.016  1.1881 -0.6837  0.4949
 5499TIP3   OH238131   4.293   3.948   1.630  0.0210 -0.4952  0.0036
 5499TIP3    H138132   4.271   3.972   1.719  0.9725  0.9556 -0.1251
 5499TIP3    H238133   4.374   3.995   1.611 -0.4017 -0.3923 -1.7735
 5500TIP3   OH238134   1.244   4.118   8.707  0.5015  0.9366 -0.1323
 5500TIP3    H138135   1.177   4.091   8.770  0.3230  1.4354 -0.1088
 5500TIP3    H238136   1.271   4.205   8.736  1.4657  0.5672  0.1089
 5501TIP3   OH238137   2.702   0.110   0.397 -0.2250  0.3662  0.6071
 5501TIP3    H138138   2.710   0.201   0.366  1.1919 -0.0691 -0.4224
 5501TIP3    H238139   2.790   0.074   0.386 -0.9700 -1.3912  0.2103
 5502TIP3   OH238140   4.878   6.685   0.784 -0.0628  0.7413  0.4349
 5502TIP3    H138141   4.792   6.723   0.762 -1.2253 -3.0480 -2.8622
 5502TIP3    H238142   4.857   6.606   0.833  1.2183 -1.2439 -1.9731
 5503TIP3   OH238143   3.155   5.130   2.199 -0.1521  0.2931 -0.2370
 5503TIP3    H138144   3.158   5.217   2.158  2.0792 -0.0530 -0.9645
 5503TIP3    H238145   3.185   5.070   2.130 -2.5858 -1.2456 -0.0713
 5504TIP3   OH238146   2.979   4.661   1.251  0.3472 -0.4161 -0.0257
 5504TIP3    H138147   2.942   4.740   1.291 -0.3067 -0.1855 -1.0443
 5504TIP3    H238148   2.930   4.589   1.290  0.9647 -0.3357  0.9291
 5505TIP3   OH238149   1.746   2.965   3.789  0.2695 -0.4552  0.2267
 5505TIP3    H138150   1.748   3.042   3.732 -1.4170  1.3863  2.4384
 5505TIP3    H238151   1.817   2.910   3.757  0.3381  1.0884 -2.6806
 5506TIP3   OH238152   5.529   3.482   0.909  0.4456 -0.1034  0.1680
 5506TIP3    H138153   5.557   3.390   0.906 -0.1141 -0.4443  2.9248
 5506TIP3    H238154   5.444   3.482   0.865  0.3653 -0.9520  0.2959
 5507TIP3   OH238155   5.611   0.802   1.553 -0.3467  0.2146  0.7333
 5507TIP3    H138156   5.606   0.867   1.483 -0.4725  0.3517  0.8684
 5507TIP3    H238157   5.538   0.742   1.535  0.0501 -0.1525  0.3471
 5508TIP3   OH238158   1.593   4.236   1.399 -0.2473 -0.1286  0.5126
 5508TIP3    H138159   1.526   4.266   1.338 -0.3388 -2.6046 -0.7594
 5508TIP3    H238160   1.546   4.221   1.481 -1.4909 -2.3809 -0.5191
 5509TIP3   OH238161   1.163   4.474   3.005 -0.1665  0.3638 -0.2874
 5509TIP3    H138162   1.187   4.429   3.086  2.6798  1.6150 -0.2996
 5509TIP3    H238163   1.172   4.407   2.937  0.9416  0.1652  0.0388
 5510TIP3   OH238164   2.030   6.649   2.567  0.4300 -0.2405 -0.1662
 5510TIP3    H138165   2.112   6.687   2.600 -0.8748  4.0138 -1.2189
 5510TIP3    H238166   1.964   6.675   2.630 -0.8521  1.1436 -1.9687
 5511TIP3   OH238167   5.649   1.340   0.926 -0.5471  0.2538 -0.8041
 5511TIP3    H138168   5.744   1.329   0.930 -0.3617  1.8577  0.1444
 5511TIP3    H238169   5.627   1.324   0.834  0.9514  1.9648 -1.5189
 5512TIP3   OH238170   5.813   3.016   2.810 -0.6713  0.3861  0.3838
 5512TIP3    H138171   5.799   3.019   2.905 -2.6980  4.2947  0.1503
 5512TIP3    H238172   5.906   3.035   2.799 -0.4400  0.0565  1.5262
 5513TIP3   OH238173   2.832   1.657   3.556 -0.3891  0.1172 -0.2913
 5513TIP3    H138174   2.814   1.638   3.649  0.3020  0.7129 -0.0295
 5513TIP3    H238175   2.817   1.574   3.512 -0.9190 -0.1298  0.3247
 5514TIP3   OH238176   3.623   0.026   4.240 -0.3386 -0.3849  0.1197
 5514TIP3    H138177   3.624  -0.033   4.316 -0.5676 -0.6002 -0.0448
 5514TIP3    H238178   3.537   0.067   4.242 -0.1982 -0.0898  0.2051
 5515TIP3   OH238179   2.897   6.044   2.805 -0.0909  0.4434 -0.8100
 5515TIP3    H138180   2.849   5.965   2.829 -0.0566  0.9002  0.8590
 5515TIP3    H238181   2.860   6.113   2.860  0.1895  1.5084 -1.9069
 5516TIP3   OH238182   2.233   5.239   3.345 -0.9624  0.5689  0.1102
 5516TIP3    H138183   2.238   5.156   3.297  0.1707 -0.5527  2.0376
 5516TIP3    H238184   2.324   5.265   3.358 -1.2013  0.6676  1.8603
 5517TIP3   OH238185   6.508   3.474   3.384 -0.1899 -0.2322 -0.0894
 5517TIP3    H138186   6.452   3.415   3.435  1.1397 -0.2487  1.4465
 5517TIP3    H238187   6.581   3.419   3.357  0.1469  0.2776 -0.2245
 5518TIP3   OH238188   5.596   3.455   1.467  0.3499 -0.0193  0.3200
 5518TIP3    H138189   5.541   3.510   1.523  1.5996 -0.6020  2.2389
 5518TIP3    H238190   5.628   3.515   1.399  1.2671  1.5755  2.0538
 5519TIP3   OH238191   5.164   2.750   1.317  0.3434 -0.1235  0.2347
 5519TIP3    H138192   5.093   2.807   1.350 -0.2353 -0.0568 -1.0798
 5519TIP3    H238193   5.198   2.708   1.396 -1.3974 -0.4233  0.8918
 5520TIP3   OH238194   6.180   5.004   4.167 -0.3061 -0.5146 -0.1105
 5520TIP3    H138195   6.209   4.954   4.243 -1.5453 -0.4514  0.4260
 5520TIP3    H238196   6.172   5.094   4.198  0.8384 -0.1607 -0.7814
 5521TIP3   OH238197   3.533   0.819   2.290  0.5240 -0.5028  0.0651
 5521TIP3    H138198   3.538   0.778   2.203  2.0099 -1.4972  0.5815
 5521TIP3    H238199   3.468   0.889   2.279  0.4989 -0.7480 -1.7827
 5522TIP3   OH238200   5.301   1.058   4.245  0.3380  0.0082 -0.1003
 5522TIP3    H138201   5.396   1.069   4.239  0.3174 -0.1184 -0.8012
 5522TIP3    H238202   5.275   1.028   4.158  0.0340 -3.0484  0.9394
 5523TIP3   OH238203   3.376   1.597   0.526  0.4802 -0.6366 -0.3321
 5523TIP3    H138204   3.364   1.614   0.619 -0.4756 -0.2176 -0.5186
 5523TIP3    H238205   3.334   1.671   0.482  0.5393 -1.0452 -1.1025
 5524TIP3   OH238206   5.438   3.607   1.120 -0.2121  0.1395 -0.4560
 5524TIP3    H138207   5.463   3.574   1.034 -0.1398  2.1240 -1.2337
 5524TIP3    H238208   5.343   3.594   1.124 -0.2226  0.0848 -0.8593
 5525TIP3   OH238209   6.005   2.550   3.757 -0.7395  0.7094  0.3345
 5525TIP3    H138210   6.026   2.461   3.786 -0.7510  0.7867  0.5814
 5525TIP3    H238211   6.052   2.560   3.674  1.1473  1.2820  1.4159
 5526TIP3   OH238212   6.643   3.611   3.959  0.3422 -0.2266 -0.2689
 5526TIP3    H138213   6.590   3.556   4.017 -1.3686  0.9525 -0.6346
 5526TIP3    H238214   6.613   3.701   3.977  0.8926  0.3084 -1.8437
 5527TIP3   OH238215   4.841   5.829   1.307 -0.1017 -0.9964 -0.7174
 5527TIP3    H138216   4.757   5.871   1.328  0.2533 -1.3950  1.7527
 5527TIP3    H238217   4.819   5.737   1.293  0.1550 -1.7717  2.9631
 5528TIP3   OH238218   5.463   2.872   2.340  0.0525  0.1739 -0.1888
 5528TIP3    H138219   5.539   2.906   2.292 -0.3676 -0.2176 -1.1488
 5528TIP3    H238220   5.440   2.791   2.295  1.3312 -1.7418  2.3357
 5529TIP3   OH238221   6.752   0.733   1.306  0.3128  0.2073 -0.7428
 5529TIP3    H138222   6.797   0.663   1.259  3.1218  1.6698 -0.4278
 5529TIP3    H238223   6.822   0.788   1.341 -1.5091  0.0452  4.0503
 5530TIP3   OH238224   1.062   4.082   3.418 -0.4795  0.3630 -0.3999
 5530TIP3    H138225   1.042   4.175   3.409  0.0591  0.3947 -1.4424
 5530TIP3    H238226   0.986   4.037   3.381 -0.6843  0.3892 -0.0129
 5531TIP3   OH238227   2.455   0.297   2.959 -0.3229 -0.0407 -0.3058
 5531TIP3    H138228   2.544   0.267   2.978 -0.1755  1.1108  0.9535
 5531TIP3    H238229   2.461   0.333   2.870  0.3247 -0.5193 -0.4670
 5532TIP3   OH238230   1.336   2.943   2.772 -0.4539  0.3350 -0.2210
 5532TIP3    H138231   1.408   3.005   2.779 -1.1960  1.1622  0.2020
 5532TIP3    H238232   1.275   2.968   2.841 -0.5895 -1.1163  0.2223
 5533TIP3   OH238233   0.330   0.986   4.931 -0.3895 -0.1464  0.3428
 5533TIP3    H138234   0.328   0.893   4.955 -0.5195 -0.0173  0.8280
 5533TIP3    H238235   0.361   1.031   5.010  2.3428 -0.0389 -0.6837
 5534TIP3   OH238236   5.804   6.649   1.879  0.0800 -0.9571  0.0609
 5534TIP3    H138237   5.804   6.744   1.896  0.8493 -0.7248 -1.0882
 5534TIP3    H238238   5.714   6.629   1.852 -0.6051 -0.9478  2.1518
 5535TIP3   OH238239   0.424   0.400   4.763 -0.1259  0.0263  0.4961
 5535TIP3    H138240   0.380   0.328   4.809  0.5929 -0.4711  0.4189
 5535TIP3    H238241   0.358   0.469   4.758 -1.4013 -1.2414 -0.9494
 5536TIP3   OH238242   3.829   6.512   2.390 -0.2410 -0.0225 -0.7437
 5536TIP3    H138243   3.769   6.549   2.326  1.4078 -0.0356 -2.3893
 5536TIP3    H238244   3.905   6.570   2.388  0.2960 -0.6485  0.4245
 5537TIP3   OH238245   6.448   4.608   4.365 -1.0174 -0.0097  0.0097
 5537TIP3    H138246   6.425   4.698   4.343 -0.7747 -0.0441 -0.4042
 5537TIP3    H238247   6.371   4.573   4.409 -0.9714  0.5178  0.5234
 5538TIP3   OH238248   3.137   2.332   2.923 -0.2698  0.0252 -0.8289
 5538TIP3    H138249   3.203   2.331   2.854  3.0484  0.9234  2.0770
 5538TIP3    H238250   3.147   2.248   2.967 -0.7389  0.3644 -0.0616
 5539TIP3   OH238251   6.798   2.570   4.311 -0.5955  0.0309  0.5666
 5539TIP3    H138252   6.857   2.640   4.282  1.8991 -2.6657 -1.5255
 5539TIP3    H238253   6.834   2.542   4.395  0.2548 -0.6134  0.0059
 5540TIP3   OH238254   4.272   6.191   1.505 -0.5232 -0.4780  0.0089
 5540TIP3    H138255   4.325   6.118   1.535 -2.0301 -1.6391 -0.0249
 5540TIP3    H238256   4.297   6.202   1.413  0.5713 -0.1377  0.3336
 5541TIP3   OH238257   5.084   0.696   4.001 -0.0832  0.1843  0.1737
 5541TIP3    H138258   5.130   0.697   4.085  2.0886  0.2647 -0.9249
 5541TIP3    H238259   5.119   0.773   3.955 -0.1456 -0.6443 -1.3176
 5542TIP3   OH238260   1.193   0.420   2.653  0.4997 -0.5112 -0.3983
 5542TIP3    H138261   1.195   0.422   2.557  1.3369 -0.4615 -0.3926
 5542TIP3    H238262   1.103   0.396   2.675  0.0134  0.5418 -1.1701
 5543TIP3   OH238263   5.688   6.535   4.141 -0.4246 -0.1803 -0.0075
 5543TIP3    H138264   5.731   6.518   4.057 -0.4535  1.7409 -0.4413
 5543TIP3    H238265   5.630   6.609   4.124 -3.1540 -1.9391  0.8375
 5544TIP3   OH238266   6.562   3.916   2.648 -0.0438 -0.0223 -0.3097
 5544TIP3    H138267   6.554   3.837   2.702  0.4643  1.0944  1.4722
 5544TIP3    H238268   6.540   3.886   2.559 -1.1690 -1.8780  0.5228
 5545TIP3   OH238269   5.665   5.557   1.804  0.4159  0.2090 -0.2144
 5545TIP3    H138270   5.585   5.504   1.813  0.4064  0.4143  1.2730
 5545TIP3    H238271   5.652   5.608   1.724  0.2048 -1.6373 -1.4140
 5546TIP3   OH238272   5.900   5.524   2.891  0.2899 -0.1338  0.5063
 5546TIP3    H138273   5.949   5.604   2.872  0.1487 -0.6033 -2.3573
 5546TIP3    H238274   5.816   5.554   2.924  1.0012  0.8069  1.5153
 5547TIP3   OH238275   3.618   0.420   3.484 -0.0658  0.0534  0.2070
 5547TIP3    H138276   3.633   0.442   3.576  0.1611 -0.3220  0.2599
 5547TIP3    H238277   3.680   0.350   3.465  2.2160  2.2440 -1.1150
 5548TIP3   OH238278   2.418   2.432   3.695  0.4628 -0.2226 -0.6577
 5548TIP3    H138279   2.330   2.427   3.731  0.5436 -2.6406 -0.6106
 5548TIP3    H238280   2.426   2.521   3.662 -1.4877  0.4634  0.5716
 5549TIP3   OH238281   1.963   5.722   2.508 -0.1096  0.0317 -0.2381
 5549TIP3    H138282   1.984   5.714   2.415  1.5167 -1.3208  0.2013
 5549TIP3    H238283   1.977   5.634   2.544 -1.8170  0.2511  1.0935
 5550TIP3   OH238284   0.830   6.383   2.642  0.1506  0.7765  0.2545
 5550TIP3    H138285   0.737   6.361   2.643 -0.5998  3.5049  0.9729
 5550TIP3    H238286   0.848   6.407   2.551  0.4711 -0.7794 -0.1134
 5551TIP3   OH238287   6.697   1.951   4.387 -0.1589 -0.1125  0.4740
 5551TIP3    H138288   6.607   1.978   4.404 -0.8327 -1.7618 -0.2102
 5551TIP3    H238289   6.733   2.019   4.330 -1.8090 -0.6325 -1.2888
 5552TIP3   OH238290   4.089   1.116   2.625  0.1307 -0.0069 -0.1787
 5552TIP3    H138291   3.997   1.115   2.652  0.0246 -1.2287 -0.4937
 5552TIP3    H238292   4.109   1.024   2.608  2.3637 -0.3275  3.1337
 5553TIP3   OH238293   5.787   2.005   2.556  0.2152  0.2109  0.0027
 5553TIP3    H138294   5.824   2.055   2.482  2.5489 -0.8638  0.3535
 5553TIP3    H238295   5.773   1.917   2.521 -0.9089  0.2795  0.2411
 5554TIP3   OH238296   1.956   6.778   3.346  0.6770 -0.6657  0.1145
 5554TIP3    H138297   1.969   6.717   3.273 -0.2634 -0.6623 -0.0706
 5554TIP3    H238298   1.953   6.721   3.424 -1.2375 -1.0082 -0.1588
 5555TIP3   OH238299   0.382   4.785   5.117 -0.8804  0.2842  0.3624
 5555TIP3    H138300   0.331   4.792   5.198 -0.0227  0.8268  0.8772
 5555TIP3    H238301   0.436   4.707   5.130 -2.4349 -1.0411 -0.7113
 5556TIP3   OH238302   6.400   3.787   0.525 -0.1519 -0.0001 -0.3472
 5556TIP3    H138303   6.329   3.808   0.464 -0.2394 -0.9404 -0.5771
 5556TIP3    H238304   6.396   3.692   0.535  0.0113  0.1126  0.9527
 5557TIP3   OH238305   1.590   6.655   1.763  0.1113  0.2874  0.2642
 5557TIP3    H138306   1.648   6.693   1.829  0.9369  0.4335 -0.5209
 5557TIP3    H238307   1.549   6.581   1.808  1.0353  0.0770  0.7927
 5558TIP3   OH238308   2.548   4.756   0.748  0.0089  0.7230  0.0113
 5558TIP3    H138309   2.620   4.742   0.686 -1.7789 -0.0170 -2.0252
 5558TIP3    H238310   2.521   4.846   0.734 -0.1803  0.6593 -0.0375
 5559TIP3   OH238311   6.532   0.207   2.860  0.5875 -0.0729  0.2449
 5559TIP3    H138312   6.487   0.217   2.944  0.6073  1.3855  0.0976
 5559TIP3    H238313   6.481   0.260   2.799  1.1011 -0.3869 -0.4701
 5560TIP3   OH238314   2.840   3.608   1.820 -0.1268 -0.0520  0.3179
 5560TIP3    H138315   2.884   3.693   1.823  1.7591 -1.0084  1.1883
 5560TIP3    H238316   2.761   3.621   1.874 -0.8954  1.6240 -1.0885
 5561TIP3   OH238317   3.264   5.779   3.336  0.5612  0.1234 -0.0694
 5561TIP3    H138318   3.186   5.729   3.311 -0.2280  0.9408  0.6776
 5561TIP3    H238319   3.234   5.837   3.406  2.4571 -1.6053  2.4095
 5562TIP3   OH238320   4.882   0.223   3.105 -0.6431 -0.4543 -0.7493
 5562TIP3    H138321   4.938   0.270   3.043 -0.0039  0.3996  0.4339
 5562TIP3    H238322   4.795   0.259   3.090 -0.6376 -0.7820 -1.6387
 5563TIP3   OH238323   1.809   5.115   1.955 -0.5054  0.3135 -0.1844
 5563TIP3    H138324   1.816   5.115   2.051 -0.9386 -0.3967 -0.1512
 5563TIP3    H238325   1.723   5.077   1.937  0.0508 -0.6352 -0.8918
 5564TIP3   OH238326   2.465   1.477   4.631  0.2791  0.6108 -0.3830
 5564TIP3    H138327   2.430   1.543   4.571  1.2392  0.0931 -1.5838
 5564TIP3    H238328   2.452   1.394   4.584  0.8531  0.1665  0.2268
 5565TIP3   OH238329   6.165   3.155   0.446  0.2311 -0.0530 -0.0913
 5565TIP3    H138330   6.199   3.242   0.425  1.3877 -0.2871  0.6918
 5565TIP3    H238331   6.085   3.147   0.395 -0.2603  1.7375  0.3178
 5566TIP3   OH238332   0.311   6.422   4.644  0.1505 -0.4468 -0.1144
 5566TIP3    H138333   0.274   6.510   4.639 -0.4030 -0.6963 -0.5045
 5566TIP3    H238334   0.312   6.401   4.737 -0.1328 -0.2039 -0.0574
 5567TIP3   OH238335   3.544   1.194   0.949  0.2699  0.1814 -0.9126
 5567TIP3    H138336   3.501   1.221   0.868 -1.8493 -1.1785 -0.3302
 5567TIP3    H238337   3.536   1.098   0.949  0.9124  0.1107  0.5320
 5568TIP3   OH238338   5.148   1.629   2.092  0.4271  0.1515 -0.0781
 5568TIP3    H138339   5.176   1.538   2.079 -0.6921 -0.1457 -0.5774
 5568TIP3    H238340   5.103   1.652   2.011  1.7225  1.5792 -0.4447
 5569TIP3   OH238341   1.685   0.301   0.825 -0.0808  0.1246 -0.5146
 5569TIP3    H138342   1.650   0.385   0.853 -1.6477 -0.5691 -0.3082
 5569TIP3    H238343   1.752   0.323   0.761  0.4031  1.5648  0.4302
 5570TIP3   OH238344   0.798   6.112   3.880 -0.1214  0.1496  0.1439
 5570TIP3    H138345   0.889   6.095   3.902  0.2693  2.6932  0.8434
 5570TIP3    H238346   0.799   6.134   3.787  0.2150  1.3892  0.4238
 5571TIP3   OH238347   5.615   2.723   3.621  0.0757 -0.5356 -0.2547
 5571TIP3    H138348   5.551   2.727   3.550 -1.3971  1.4244  1.0869
 5571TIP3    H238349   5.698   2.704   3.578 -0.6246  1.2920 -2.6093
 5572TIP3   OH238350   2.854   4.520   3.191 -0.2293 -0.1725 -0.1868
 5572TIP3    H138351   2.933   4.560   3.226 -1.2454  1.5566  0.2545
 5572TIP3    H238352   2.833   4.572   3.113 -0.7249 -0.8400 -0.5116
 5573TIP3   OH238353   0.289   1.773   1.307 -0.3067  0.2792  0.2152
 5573TIP3    H138354   0.383   1.755   1.305 -0.5561 -1.2045  0.7721
 5573TIP3    H238355   0.273   1.812   1.394 -0.3250 -0.2050  0.4303
 5574TIP3   OH238356   2.624   6.591   1.018 -0.0614  0.4658 -0.1724
 5574TIP3    H138357   2.624   6.502   1.055 -1.7402  0.4949 -0.0115
 5574TIP3    H238358   2.642   6.578   0.925  2.2089  0.2126  0.2471
 5575TIP3   OH238359   5.893   2.498   4.113  0.2814  0.4017  0.6104
 5575TIP3    H138360   5.849   2.583   4.111  0.5768  0.6243  2.2812
 5575TIP3    H238361   5.985   2.518   4.127  0.6783 -0.1421 -1.0393
 5576TIP3   OH238362   4.603   0.046   0.961  0.3529  0.2779  0.2956
 5576TIP3    H138363   4.540   0.047   1.033  0.0218 -1.8480  0.0896
 5576TIP3    H238364   4.583  -0.033   0.912  1.3283  1.0782 -1.4877
 5577TIP3   OH238365   5.608   6.673   3.848 -0.4153 -0.4834  0.1226
 5577TIP3    H138366   5.537   6.648   3.788 -0.8993  0.3861  0.3132
 5577TIP3    H238367   5.680   6.614   3.826 -0.4624  0.0374 -1.5534
 5578TIP3   OH238368   0.335   3.759   3.211  0.0730  0.8808  0.3259
 5578TIP3    H138369   0.383   3.677   3.223 -0.7574  0.3330 -0.0042
 5578TIP3    H238370   0.396   3.816   3.164 -0.1008 -0.3370 -1.5008
 5579TIP3   OH238371   6.640   5.748   1.621 -0.1497  0.3876  0.1023
 5579TIP3    H138372   6.705   5.754   1.551  0.6304  1.0105  0.8558
 5579TIP3    H238373   6.576   5.815   1.600  0.2762  0.8206  0.1779
 5580TIP3   OH238374   6.420   3.543   3.098  0.3954  0.0919 -0.0332
 5580TIP3    H138375   6.326   3.551   3.079  0.4125 -0.8051 -0.5397
 5580TIP3    H238376   6.424   3.534   3.194 -0.2056 -1.6978 -0.1350
 5581TIP3   OH238377   6.191   1.867   0.765  0.2909  0.1014 -0.3988
 5581TIP3    H138378   6.260   1.835   0.823  0.6507  2.5176  0.6303
 5581TIP3    H238379   6.143   1.788   0.739  2.9619 -1.5832 -0.5956
 5582TIP3   OH238380   4.850   2.407   1.541 -0.2596  0.7227  0.2277
 5582TIP3    H138381   4.944   2.396   1.553  0.0030 -0.3992 -2.3042
 5582TIP3    H238382   4.816   2.318   1.531 -1.3080  1.1915 -0.5911
 5583TIP3   OH238383   5.248   0.649   3.436 -0.0567  0.5643 -0.5919
 5583TIP3    H138384   5.263   0.572   3.381 -2.6206  0.0668 -0.6927
 5583TIP3    H238385   5.266   0.723   3.379  0.5229  0.0481 -1.0893
 5584TIP3   OH238386   4.207   4.904   3.068  0.3225 -0.3628 -0.0465
 5584TIP3    H138387   4.123   4.919   3.024  1.3255 -0.7959 -2.2059
 5584TIP3    H238388   4.233   4.816   3.042  1.1950 -0.4669  1.0860
 5585TIP3   OH238389   6.222   0.618   0.351  0.0331  0.2384 -0.1101
 5585TIP3    H138390   6.297   0.673   0.371 -0.6221  0.9397  0.5020
 5585TIP3    H238391   6.253   0.528   0.367  0.3357  0.5947  1.5668
 5586TIP3   OH238392   4.874   5.962   1.999  0.3741  0.0648  0.2304
 5586TIP3    H138393   4.927   5.963   2.079 -0.2151  2.9284  0.6982
 5586TIP3    H238394   4.929   5.918   1.934  0.5114 -3.1932  2.3400
 5587TIP3   OH238395   3.192   0.070   3.412  0.3514  0.1865  0.1854
 5587TIP3    H138396   3.100   0.047   3.402  0.6105 -0.5072 -0.7513
 5587TIP3    H238397   3.193   0.137   3.480 -0.8315  0.1346  0.2688
 5588TIP3   OH238398   5.604   2.585   2.868 -0.0093  0.1505  0.1382
 5588TIP3    H138399   5.664   2.514   2.846  0.3083  0.6826 -0.7338
 5588TIP3    H238400   5.645   2.664   2.833 -0.9964  0.5821 -0.0895
 5589TIP3   OH238401   1.926   3.373   3.706  0.4605 -0.0219 -0.3671
 5589TIP3    H138402   1.852   3.313   3.701 -0.3027  0.9666 -1.0763
 5589TIP3    H238403   1.899   3.440   3.770 -0.3934  1.8228 -2.5344
 5590TIP3   OH238404   4.071   6.804   2.962 -0.1014  0.1255  0.1333
 5590TIP3    H138405   4.078   6.809   2.867 -0.3491  1.4208  0.1724
 5590TIP3    H238406   3.986   6.842   2.983 -0.8808 -1.8278  0.7681
 5591TIP3   OH238407   4.824   0.544   0.450  0.2865 -0.1411 -0.0239
 5591TIP3    H138408   4.825   0.449   0.450  1.3283 -0.1365 -0.1414
 5591TIP3    H238409   4.736   0.567   0.419  0.1387 -1.0504 -0.3100
 5592TIP3   OH238410   4.981   4.539   3.575 -0.7704  0.2551 -0.6623
 5592TIP3    H138411   4.933   4.478   3.631  0.8873 -0.3768  0.1445
 5592TIP3    H238412   4.997   4.615   3.631  0.0335  0.0258 -0.5575
 5593TIP3   OH238413   2.808   0.856   3.164  0.9271  0.0289 -0.0922
 5593TIP3    H138414   2.813   0.881   3.072  0.8173  0.2307 -0.0426
 5593TIP3    H238415   2.740   0.788   3.167  0.0306  0.9075  0.0331
 5594TIP3   OH238416   2.213   2.429   2.945  0.3399 -0.0976  0.4268
 5594TIP3    H138417   2.249   2.428   2.857 -0.5290  0.9810  0.0360
 5594TIP3    H238418   2.159   2.350   2.950 -1.9190  1.2608 -1.0490
 5595TIP3   OH238419   0.068   1.595   8.644 -0.0593 -0.0082  0.1684
 5595TIP3    H138420   0.006   1.658   8.607  0.9588  1.0055  0.1143
 5595TIP3    H238421   0.055   1.515   8.593 -0.2830  0.6581 -0.8524
 5596TIP3   OH238422   3.630   2.731   1.389  0.1515 -0.3408 -0.2528
 5596TIP3    H138423   3.575   2.661   1.354 -1.0528 -0.5615  1.9080
 5596TIP3    H238424   3.719   2.699   1.376 -0.3494 -1.9345 -0.0478
 5597TIP3   OH238425   3.661   0.831   3.610  0.5231  0.0269  0.2867
 5597TIP3    H138426   3.577   0.810   3.650 -0.7241 -0.0470 -2.1998
 5597TIP3    H238427   3.725   0.813   3.678 -1.4617  0.2669  2.3282
 5598TIP3   OH238428   5.168   0.479   1.280  0.0666  0.1964 -0.3346
 5598TIP3    H138429   5.115   0.556   1.261 -0.6423 -0.8974 -3.2248
 5598TIP3    H238430   5.198   0.449   1.195  0.1962 -2.8068  0.6629
 5599TIP3   OH238431   4.417   6.194   1.269 -0.2151  0.5224  0.2379
 5599TIP3    H138432   4.498   6.145   1.259 -0.4487  0.0176  0.7123
 5599TIP3    H238433   4.351   6.140   1.224 -0.1822  1.2448 -0.7004
 5600TIP3   OH238434   4.184   3.232   4.220  0.1091 -0.3754  0.2095
 5600TIP3    H138435   4.227   3.295   4.278  0.5354 -1.2270  0.8646
 5600TIP3    H238436   4.205   3.147   4.260 -0.1833 -0.9372 -0.8182
 5601TIP3   OH238437   6.648   6.052   3.710  0.4817  0.0915  0.1124
 5601TIP3    H138438   6.620   5.983   3.771  0.9996  1.2057  1.6610
 5601TIP3    H238439   6.743   6.040   3.703  0.4030 -0.1531 -0.6744
 5602TIP3   OH238440   1.035   5.479   3.063 -0.4544 -0.5029 -0.4086
 5602TIP3    H138441   1.032   5.572   3.083 -0.1922 -0.5222 -0.2831
 5602TIP3    H238442   1.112   5.446   3.109 -0.1544 -0.6504 -1.0082
 5603TIP3   OH238443   5.190   0.458   1.570  0.2136 -0.3091  0.3562
 5603TIP3    H138444   5.270   0.426   1.612 -0.1746 -1.6324  0.1209
 5603TIP3    H238445   5.136   0.380   1.559 -0.6360  0.3907 -0.5391
 5604TIP3   OH238446   0.618   6.039   4.086 -0.2869 -0.2126 -0.0161
 5604TIP3    H138447   0.689   6.083   4.041  1.0794 -0.4869  1.7330
 5604TIP3    H238448   0.630   5.946   4.064  0.2143 -0.3123  0.6126
 5605TIP3   OH238449   0.988   3.619   3.682 -0.4352  0.1654 -0.1420
 5605TIP3    H138450   1.053   3.556   3.650  1.5814  1.6822  0.6692
 5605TIP3    H238451   0.986   3.605   3.777 -0.9153  0.4835 -0.1043
 5606TIP3   OH238452   2.788   0.416   3.234  0.0306 -0.0694  0.7310
 5606TIP3    H138453   2.780   0.473   3.158 -0.4381  0.4385  1.1532
 5606TIP3    H238454   2.719   0.445   3.293  1.1049  0.2896  1.8409
 5607TIP3   OH238455   6.041   6.206   3.404  1.0056 -0.2660  0.1385
 5607TIP3    H138456   5.965   6.261   3.417  2.7497  1.6490  3.9322
 5607TIP3    H238457   6.090   6.247   3.333  0.5897  1.1172  0.6303
 5608TIP3   OH238458   6.105   0.998   4.044 -0.0735 -0.4879  0.0561
 5608TIP3    H138459   6.106   0.986   3.949 -1.7783 -1.5544  0.1255
 5608TIP3    H238460   6.012   0.998   4.066  0.2313  1.2533  1.5633
 5609TIP3   OH238461   1.656   4.519   3.655 -0.3936  0.1125 -0.3220
 5609TIP3    H138462   1.632   4.587   3.718  0.5931 -0.8237  1.1287
 5609TIP3    H238463   1.638   4.558   3.570  0.0519  2.1669  0.4602
 5610TIP3   OH238464   5.926   2.143   5.212 -0.0456 -0.3527  0.4234
 5610TIP3    H138465   5.900   2.091   5.288 -0.7826  0.6017  0.8386
 5610TIP3    H238466   6.016   2.115   5.194 -0.8870 -2.8468 -0.2898
 5611TIP3   OH238467   3.784   3.083   3.627  0.3707 -0.6599  0.3009
 5611TIP3    H138468   3.855   3.096   3.689  0.3798  0.8750  0.0206
 5611TIP3    H238469   3.757   2.992   3.638  2.8193 -1.4818 -0.0673
 5612TIP3   OH238470   1.719   6.796   2.932  0.1676 -0.7230  0.6348
 5612TIP3    H138471   1.706   6.882   2.972  2.9417  0.1046 -0.0340
 5612TIP3    H238472   1.690   6.807   2.842 -0.2670 -0.7476  0.7689
 5613TIP3   OH238473   6.087   3.067   2.632  0.0725  0.7010  0.2718
 5613TIP3    H138474   6.090   3.154   2.672 -2.4271  0.9023  0.1615
 5613TIP3    H238475   6.011   3.069   2.574 -0.0972 -1.5782  0.3171
 5614TIP3   OH238476   6.672   2.181   3.972 -0.3373 -0.6123  0.3456
 5614TIP3    H138477   6.691   2.274   3.964 -0.9240 -0.5821 -1.0056
 5614TIP3    H238478   6.757   2.138   3.967 -0.0223 -0.1478  1.3905
 5615TIP3   OH238479   1.821   0.005   4.358  0.3326 -0.8073 -0.0013
 5615TIP3    H138480   1.746  -0.052   4.342  0.4499 -0.6563 -1.1320
 5615TIP3    H238481   1.876  -0.044   4.419 -0.3167 -1.2321  0.2602
 5616TIP3   OH238482   3.089   3.116   4.161  0.0194 -0.0100  0.1927
 5616TIP3    H138483   3.003   3.100   4.122  0.1841  1.4638 -0.8596
 5616TIP3    H238484   3.114   3.031   4.199 -0.7270 -1.1997 -1.7957
 5617TIP3   OH238485   0.407   0.596   1.656 -0.1310  0.1563 -0.1911
 5617TIP3    H138486   0.463   0.556   1.721 -0.7225 -0.5306 -0.0918
 5617TIP3    H238487   0.453   0.676   1.630  0.2282  0.3077  0.8760
 5618TIP3   OH238488   5.656   1.753   2.943 -0.3316 -0.0206  0.0675
 5618TIP3    H138489   5.594   1.747   3.016  0.4813 -1.6729  0.6562
 5618TIP3    H238490   5.697   1.839   2.954 -1.0093  0.2157  0.8994
 5619TIP3   OH238491   1.062   0.899   4.213  0.5571  0.6684 -0.7251
 5619TIP3    H138492   1.131   0.833   4.209  0.4480  0.5384 -0.5145
 5619TIP3    H238493   1.087   0.954   4.287 -0.5122 -0.4656  0.5305
 5620TIP3   OH238494   5.454   3.034   3.443  0.6852  0.4063  0.9339
 5620TIP3    H138495   5.374   3.049   3.493  1.0224  1.4874  1.1869
 5620TIP3    H238496   5.428   3.049   3.352  0.1986 -1.0275  0.8150
 5621TIP3   OH238497   4.907   0.377   1.350 -0.0299  0.3488  0.1069
 5621TIP3    H138498   4.922   0.334   1.434 -0.5941  0.9176  0.5055
 5621TIP3    H238499   4.994   0.403   1.320  0.0662  1.1930  1.0817
 5622TIP3   OH238500   1.416   5.260   2.599  0.2602 -0.1634  0.1828
 5622TIP3    H138501   1.350   5.299   2.656 -0.4534 -0.6755 -0.2864
 5622TIP3    H238502   1.488   5.237   2.658  0.0158  0.3579  0.7006
 5623TIP3   OH238503   6.082   0.581   1.542  0.4041 -0.4366 -0.5282
 5623TIP3    H138504   6.054   0.540   1.624 -0.6985 -0.0422 -0.6944
 5623TIP3    H238505   6.001   0.605   1.498  0.9163 -2.0179 -2.4704
 5624TIP3   OH238506   1.520   5.488   2.813 -0.3080  0.0584  0.0874
 5624TIP3    H138507   1.533   5.583   2.819  1.9719  0.2291 -3.8225
 5624TIP3    H238508   1.426   5.477   2.800 -0.3794  2.0790 -1.6599
 5625TIP3   OH238509   4.946   6.213   1.572  0.3876  0.0742 -0.2362
 5625TIP3    H138510   5.004   6.151   1.617 -0.5093 -1.8009 -1.5615
 5625TIP3    H238511   4.994   6.237   1.493 -0.3092 -0.9620 -1.0004
 5626TIP3   OH238512   5.866   1.650   3.189  0.3026 -0.4034 -0.0696
 5626TIP3    H138513   5.922   1.725   3.171  0.6072 -0.3061  1.1964
 5626TIP3    H238514   5.911   1.602   3.258  0.2083 -1.8807 -0.9910
 5627TIP3   OH238515   2.123   2.543   2.192  0.5836  0.5736 -0.1301
 5627TIP3    H138516   2.133   2.637   2.175  1.3432  0.5953  0.3520
 5627TIP3    H238517   2.093   2.506   2.109  1.8808  1.0120 -0.8219
 5628TIP3   OH238518   6.091   0.834   3.377 -0.5181 -0.0316 -0.3228
 5628TIP3    H138519   6.090   0.823   3.472 -1.8278 -1.0855 -0.4251
 5628TIP3    H238520   6.107   0.927   3.363  1.3612 -0.1383  0.8788
 5629TIP3   OH238521   4.431   3.683   1.363 -0.0814  0.4467 -0.1902
 5629TIP3    H138522   4.480   3.765   1.359 -0.2249  0.6151  1.0308
 5629TIP3    H238523   4.396   3.680   1.453 -0.5712 -0.6621 -0.3953
 5630TIP3   OH238524   2.645   2.953   2.182  1.2260 -0.3721  0.1824
 5630TIP3    H138525   2.652   3.047   2.165  1.7298  0.0178  2.3264
 5630TIP3    H238526   2.710   2.936   2.250  1.3290 -2.3380 -0.3620
 5631TIP3   OH238527   4.777   2.022   2.714  0.6801  0.0528  0.0749
 5631TIP3    H138528   4.808   2.076   2.787  0.3942 -0.8217  0.8668
 5631TIP3    H238529   4.849   2.023   2.651  1.5959 -0.4653  1.0792
 5632TIP3   OH238530   3.760   1.692   3.508 -0.4105  0.1369  0.5427
 5632TIP3    H138531   3.759   1.712   3.601  0.0567 -1.6207  0.9611
 5632TIP3    H238532   3.853   1.683   3.486 -0.3005  3.0788 -0.7536
 5633TIP3   OH238533   4.182   1.984   1.104 -0.0735 -0.7083  0.0731
 5633TIP3    H138534   4.191   2.025   1.190  1.3350  2.5960 -1.4714
 5633TIP3    H238535   4.270   1.956   1.081 -0.1223 -0.1502 -0.8758
 5634TIP3   OH238536   6.175   1.359   5.303 -0.3130 -0.2285 -0.4504
 5634TIP3    H138537   6.186   1.351   5.209 -0.5652  0.0299 -0.5020
 5634TIP3    H238538   6.094   1.408   5.314  0.7644  1.5551 -0.1267
 5635TIP3   OH238539   3.573   2.498   3.604  0.3301  0.3131  0.3091
 5635TIP3    H138540   3.590   2.404   3.601  0.5945  0.3792 -0.5243
 5635TIP3    H238541   3.479   2.504   3.620  0.2292 -0.1012 -0.0905
 5636TIP3   OH238542   6.719   4.474   4.115  0.6134  0.3303  0.8415
 5636TIP3    H138543   6.681   4.440   4.035  2.2266 -0.3893  0.3408
 5636TIP3    H238544   6.658   4.448   4.184  0.6226 -1.5592  0.1814
 5637TIP3   OH238545   1.327   6.601   3.333  0.0983  0.2006 -0.4545
 5637TIP3    H138546   1.286   6.600   3.419  1.1928  0.0756  0.0901
 5637TIP3    H238547   1.385   6.677   3.335 -0.3193  0.5472 -1.3059
 5638TIP3   OH238548   6.447   4.992   2.795  0.2576  0.2546 -0.2276
 5638TIP3    H138549   6.417   4.907   2.827  0.9428  0.4155  0.9010
 5638TIP3    H238550   6.506   4.971   2.723  1.4442 -0.3259  0.8604
 5639TIP3   OH238551   3.683   3.678   4.330 -0.1063  0.0593  0.1986
 5639TIP3    H138552   3.751   3.744   4.321  0.8020 -0.8817  0.0534
 5639TIP3    H238553   3.710   3.625   4.404 -0.3916 -0.6669 -0.2102
 5640TIP3   OH238554   0.093   6.405   4.354  0.1065 -0.0558  0.1371
 5640TIP3    H138555   0.070   6.347   4.281  0.4614 -0.8131  0.6243
 5640TIP3    H238556   0.056   6.364   4.431  0.7538  0.1206  0.5522
 5641TIP3   OH238557   1.244   0.701   3.539  0.4841 -0.0383 -0.0254
 5641TIP3    H138558   1.156   0.695   3.577  0.4653 -1.8251 -0.2708
 5641TIP3    H238559   1.233   0.674   3.448  1.3001 -0.3882 -0.0275
 5642TIP3   OH238560   4.726   2.210   3.895  0.0990  0.1884  0.4332
 5642TIP3    H138561   4.732   2.218   3.990 -1.1135  0.0216  0.5314
 5642TIP3    H238562   4.663   2.277   3.869  1.2730  1.0155 -0.3973
 5643TIP3   OH238563   0.549   1.499   3.338  0.1589 -0.4042 -0.2547
 5643TIP3    H138564   0.572   1.585   3.374  2.1389 -1.4674  1.2589
 5643TIP3    H238565   0.632   1.452   3.334 -0.8756 -2.2664 -0.9984
 5644TIP3   OH238566   4.760   2.987   3.833  0.2281 -0.2044 -0.5375
 5644TIP3    H138567   4.789   2.996   3.742  0.1947 -2.7804 -0.8812
 5644TIP3    H238568   4.782   3.071   3.874  2.2048  0.2544 -2.3665
 5645TIP3   OH238569   5.546   6.750   1.659  0.2139 -0.2044 -0.1997
 5645TIP3    H138570   5.531   6.764   1.753 -2.8899 -1.1473 -0.4542
 5645TIP3    H238571   5.543   6.655   1.648 -1.8370 -0.0355 -1.5217
 5646TIP3   OH238572   0.389   5.463   2.009  0.4535  0.0507  0.0735
 5646TIP3    H138573   0.387   5.428   1.920 -2.0873 -0.7764  0.3969
 5646TIP3    H238574   0.360   5.391   2.064  0.4735  1.0238  1.4126
 5647TIP3   OH238575   0.886   0.323   1.488  0.4107 -0.0928  0.7886
 5647TIP3    H138576   0.897   0.384   1.560  0.6887  0.9349 -0.0994
 5647TIP3    H238577   0.792   0.304   1.486  0.1547  1.1591  0.4011
 5648TIP3   OH238578   6.820   0.317   3.445  0.4713  0.3593 -0.5111
 5648TIP3    H138579   6.845   0.256   3.514 -1.6648  0.7138  0.6957
 5648TIP3    H238580   6.762   0.267   3.388 -0.2795  0.8852 -0.2318
 5649TIP3   OH238581   5.670   6.398   1.326 -0.5499 -0.0481  0.0478
 5649TIP3    H138582   5.656   6.408   1.420 -3.2881  0.8927 -0.3500
 5649TIP3    H238583   5.687   6.486   1.294  0.0980 -0.3212 -0.3857
 5650TIP3   OH238584   2.907   1.466   2.381  0.1156 -0.0171  0.1046
 5650TIP3    H138585   2.845   1.473   2.453 -0.8424 -0.1413 -0.6882
 5650TIP3    H238586   2.928   1.373   2.376 -0.0561 -0.0531  0.0346
 5651TIP3   OH238587   2.301   0.522   3.680  0.2014 -0.6652 -0.0336
 5651TIP3    H138588   2.302   0.484   3.592 -1.3333 -1.3865  0.2279
 5651TIP3    H238589   2.235   0.591   3.676  1.0519  0.1735  0.2211
 5652TIP3   OH238590   1.046   6.755   8.729 -0.0928 -0.1911  0.1124
 5652TIP3    H138591   1.037   6.849   8.714  1.4035  0.0669  0.6011
 5652TIP3    H238592   1.100   6.724   8.657 -2.3483 -1.1365 -1.2743
 5653TIP3   OH238593   5.641   4.199   4.101 -0.4890 -0.1185 -0.1869
 5653TIP3    H138594   5.600   4.248   4.173 -0.1862  2.0754 -1.4009
 5653TIP3    H238595   5.732   4.186   4.130 -0.8556 -0.9875  0.6170
 5654TIP3   OH238596   5.723   5.591   2.527 -1.4455  0.3084  0.4135
 5654TIP3    H138597   5.656   5.524   2.517 -1.2284  0.1873 -0.2753
 5654TIP3    H238598   5.685   5.654   2.589 -3.7007  2.1326 -2.5769
 5655TIP3   OH238599   4.483   0.836   3.687 -0.4494  0.5269  0.3673
 5655TIP3    H138600   4.512   0.902   3.750  0.6767  0.0239  0.4073
 5655TIP3    H238601   4.440   0.769   3.741  0.9895 -0.1653  0.6973
 5656TIP3   OH238602   1.060   3.276   1.671 -0.0271 -0.2267  0.1487
 5656TIP3    H138603   1.099   3.364   1.673  1.9496 -1.0506 -0.3185
 5656TIP3    H238604   1.001   3.278   1.595 -0.9748  1.0479  0.8733
 5657TIP3   OH238605   2.902   3.273   1.596 -0.5069  0.4201  0.1777
 5657TIP3    H138606   2.942   3.312   1.518 -1.1356  2.2871  0.7352
 5657TIP3    H238607   2.856   3.196   1.563  1.7605 -0.6288 -0.7984
 5658TIP3   OH238608   2.493   5.944   1.896 -0.0368  0.7839  0.4949
 5658TIP3    H138609   2.446   6.017   1.937 -0.1546  0.0198  1.7850
 5658TIP3    H238610   2.583   5.975   1.886 -0.2423  1.3493  0.3908
 5659TIP3   OH238611   4.281   0.434   4.205  0.3984  0.2687 -0.0301
 5659TIP3    H138612   4.245   0.421   4.117  1.9166  0.4931 -0.7171
 5659TIP3    H238613   4.213   0.484   4.251 -1.6467 -2.2391 -0.1344
 5660TIP3   OH238614   4.435   5.244   0.609 -0.1491  0.3171  0.3211
 5660TIP3    H138615   4.519   5.217   0.572 -0.9874 -0.4789 -1.0841
 5660TIP3    H238616   4.423   5.335   0.579  0.3764  0.5697  0.8583
 5661TIP3   OH238617   0.227   2.457   1.022  0.1852 -0.1145  0.5004
 5661TIP3    H138618   0.195   2.383   0.969  0.9933 -1.6365  2.0653
 5661TIP3    H238619   0.287   2.504   0.964  1.4905 -2.0723  0.1991
 5662TIP3   OH238620   2.823   2.449   3.906 -0.1812 -0.5254  0.0469
 5662TIP3    H138621   2.793   2.416   3.821  0.0734  0.3859 -0.4115
 5662TIP3    H238622   2.772   2.399   3.970 -0.8649 -0.7642 -0.6575
 5663TIP3   OH238623   1.172   3.907   1.898 -0.0296 -0.2043  0.9401
 5663TIP3    H138624   1.227   3.967   1.949 -0.1702  0.3850  0.4095
 5663TIP3    H238625   1.170   3.945   1.810 -1.8436  0.1552  1.1012
 5664TIP3   OH238626   0.275   5.761   4.311 -0.0120 -0.6121  0.1121
 5664TIP3    H138627   0.214   5.688   4.322 -2.1534  1.0929  0.1148
 5664TIP3    H238628   0.243   5.808   4.234 -0.2893  1.7568  1.5731
 5665TIP3   OH238629   2.897   5.734   1.030  0.7146  0.0404 -0.0901
 5665TIP3    H138630   2.867   5.724   0.940  3.3225  1.2237 -1.2101
 5665TIP3    H238631   2.921   5.646   1.058 -0.2319 -0.3538 -0.4888
 5666TIP3   OH238632   0.477   4.895   0.044 -0.4127  0.2602 -0.3491
 5666TIP3    H138633   0.447   4.985   0.037  1.4755  1.0387  0.8902
 5666TIP3    H238634   0.551   4.889  -0.016 -0.5153 -0.4631 -0.4164
 5667TIP3   OH238635   4.011   2.064   2.285 -0.1568 -0.5501  0.1805
 5667TIP3    H138636   3.987   2.124   2.355 -0.6616  0.7954 -1.1039
 5667TIP3    H238637   3.949   1.991   2.294 -0.1004 -0.4790  1.2219
 5668TIP3   OH238638   4.312   1.053   4.710  0.6204  0.4231  0.2737
 5668TIP3    H138639   4.242   1.118   4.702  1.3510  1.0125 -2.5224
 5668TIP3    H238640   4.282   0.979   4.658  1.4848  0.1319  0.1734
 5669TIP3   OH238641   4.795   1.923   2.268 -0.1609  0.1210  0.4561
 5669TIP3    H138642   4.849   1.857   2.311  0.1803 -0.5558 -0.9431
 5669TIP3    H238643   4.725   1.872   2.227 -2.4396  1.0173  2.8935
 5670TIP3   OH238644   4.322   3.939   1.939  0.5291 -0.6934 -0.6794
 5670TIP3    H138645   4.325   4.011   2.001  1.5445 -1.0381 -0.2993
 5670TIP3    H238646   4.401   3.888   1.958 -0.6709 -2.4635 -0.2609
 5671TIP3   OH238647   5.631   5.658   1.520 -0.2375  0.6077 -0.6939
 5671TIP3    H138648   5.546   5.657   1.477 -0.3851 -2.3734 -0.5386
 5671TIP3    H238649   5.693   5.682   1.451 -1.0505  1.6379 -1.0918
 5672TIP3   OH238650   4.866   3.402   2.797 -0.6128  0.3817  0.3211
 5672TIP3    H138651   4.806   3.341   2.841 -0.0900  0.1819  0.7760
 5672TIP3    H238652   4.953   3.379   2.831 -0.4994  1.9840  1.2137
 5673TIP3   OH238653   1.128   0.372   0.005 -0.2657 -0.9546 -0.2894
 5673TIP3    H138654   1.043   0.384  -0.036 -0.2533  0.0693 -0.0350
 5673TIP3    H238655   1.159   0.461   0.023  0.0443 -1.3577  1.2981
 5674TIP3   OH238656   0.179   2.123   4.438  0.6848 -0.2233  0.4120
 5674TIP3    H138657   0.258   2.127   4.491  0.7355 -1.4908  0.4744
 5674TIP3    H238658   0.114   2.172   4.488  1.5097  1.1183  0.1927
 5675TIP3   OH238659   4.415   2.864   1.310  0.1596  0.2062  0.6131
 5675TIP3    H138660   4.340   2.889   1.365  1.5355  1.2617  2.1432
 5675TIP3    H238661   4.407   2.920   1.233 -0.9595 -0.1664  0.4304
 5676TIP3   OH238662   0.417   4.393   4.102  0.0888 -0.2014 -0.5784
 5676TIP3    H138663   0.501   4.349   4.087 -0.6332 -1.8784 -0.0083
 5676TIP3    H238664   0.396   4.433   4.018  1.4781  0.3288 -0.7079
 5677TIP3   OH238665   4.598   4.310   4.252  0.2352 -0.2274 -0.0753
 5677TIP3    H138666   4.567   4.220   4.263 -2.6219  0.4574 -1.5576
 5677TIP3    H238667   4.656   4.306   4.176  2.1349 -1.1417  1.3315
 5678TIP3   OH238668   3.467   1.268   0.434 -0.1190  0.2682 -0.7834
 5678TIP3    H138669   3.513   1.192   0.398 -1.6899  0.0862 -2.5664
 5678TIP3    H238670   3.532   1.338   0.434  1.5849 -1.1418  1.5458
 5679TIP3   OH238671   3.825   5.205   1.432  0.1643 -0.5661 -0.4379
 5679TIP3    H138672   3.845   5.130   1.376  0.3746 -0.5410 -0.3968
 5679TIP3    H238673   3.757   5.173   1.492  1.3624 -1.2023  0.6243
 5680TIP3   OH238674   4.461   6.293   2.786 -0.5870 -0.4011 -0.7572
 5680TIP3    H138675   4.457   6.198   2.777  0.1128 -0.3622 -1.6312
 5680TIP3    H238676   4.475   6.307   2.880 -1.1212 -1.1357 -0.5550
 5681TIP3   OH238677   4.844   4.580   2.370 -0.0229 -0.2037  0.3297
 5681TIP3    H138678   4.815   4.630   2.294  0.5609 -1.0706 -0.4785
 5681TIP3    H238679   4.773   4.518   2.386 -0.1819  0.0314  0.5588
 5682TIP3   OH238680   1.222   4.154   2.287  0.0090  0.7024  0.1961
 5682TIP3    H138681   1.241   4.061   2.278  1.0199  0.8940  0.2362
 5682TIP3    H238682   1.133   4.157   2.323  0.9428 -0.3506  2.8826
 5683TIP3   OH238683   1.604   2.986   2.812  0.4145  0.6399 -0.5407
 5683TIP3    H138684   1.666   2.932   2.764  0.3798 -0.1685  0.2897
 5683TIP3    H238685   1.636   2.985   2.902 -1.1406 -0.3649  0.0472
 5684TIP3   OH238686   1.358   2.761   3.100 -0.3140 -0.3982 -0.0473
 5684TIP3    H138687   1.268   2.786   3.079 -0.9265 -2.2749  0.1957
 5684TIP3    H238688   1.350   2.708   3.179  0.9047 -1.3711 -0.5561
 5685TIP3   OH238689   5.848   1.393   2.264 -0.6857 -0.1037 -0.0471
 5685TIP3    H138690   5.826   1.306   2.232 -2.5715  0.8432 -1.5174
 5685TIP3    H238691   5.942   1.390   2.278 -0.8394 -2.7102  1.1035
 5686TIP3   OH238692   4.627   2.280   8.741 -0.2019  0.2746  0.1492
 5686TIP3    H138693   4.571   2.241   8.673  0.2489  0.1992 -0.1840
 5686TIP3    H238694   4.715   2.276   8.704 -0.3432  3.5007 -0.8147
 5687TIP3   OH238695   1.584   5.685   1.414 -0.1457  0.3210  0.1813
 5687TIP3    H138696   1.638   5.629   1.471  0.0020 -0.8745 -1.0640
 5687TIP3    H238697   1.574   5.766   1.462  2.0746  0.2752  0.8364
 5688TIP3   OH238698   3.390   3.978   1.911  0.0501  0.1302  0.3748
 5688TIP3    H138699   3.409   4.071   1.899 -0.6733  0.3482  0.8714
 5688TIP3    H238700   3.333   3.974   1.988  2.1008 -0.9597  1.9281
 5689TIP3   OH238701   6.096   6.761   0.159  0.1390  0.6098  0.0525
 5689TIP3    H138702   6.024   6.809   0.119  0.6540  0.2832 -1.3020
 5689TIP3    H238703   6.068   6.670   0.159  0.1185  0.6131  0.5019
 5690TIP3   OH238704   0.290   2.908   2.566  0.4021  0.1723 -0.9532
 5690TIP3    H138705   0.298   2.988   2.619  1.4049 -0.6214  0.1292
 5690TIP3    H238706   0.206   2.871   2.591  0.5834  0.1373 -0.3989
 5691TIP3   OH238707   3.079   5.168   3.634 -0.0145 -0.1966  0.1168
 5691TIP3    H138708   3.029   5.096   3.596  1.8701 -0.9883 -1.0231
 5691TIP3    H238709   3.164   5.130   3.654  0.3374  1.2103  1.5095
 5692TIP3   OH238710   1.265   5.559   4.029 -0.0308  0.8266  0.3558
 5692TIP3    H138711   1.195   5.500   4.056  0.7081 -0.4185 -0.3800
 5692TIP3    H238712   1.237   5.591   3.943 -0.6046  1.8820  0.9068
 5693TIP3   OH238713   1.552   2.088   2.317  0.0179 -0.1861 -0.0284
 5693TIP3    H138714   1.629   2.036   2.338 -0.4231 -0.5470  0.7422
 5693TIP3    H238715   1.561   2.168   2.370  1.4582  1.2906 -2.3177
 5694TIP3   OH238716   1.485   5.592   0.244  0.2201 -0.0762 -0.0773
 5694TIP3    H138717   1.561   5.542   0.214 -0.8118 -0.8950 -1.4592
 5694TIP3    H238718   1.427   5.526   0.282 -0.2489  0.3918  0.0193
 5695TIP3   OH238719   2.573   0.231   0.984 -1.2100 -0.5363 -0.6477
 5695TIP3    H138720   2.640   0.283   1.028 -1.1335 -1.4246  0.3161
 5695TIP3    H238721   2.524   0.190   1.055 -1.8333 -1.0781 -1.3781
 5696TIP3   OH238722   1.444   4.319   3.454  0.1654 -0.0777 -0.2268
 5696TIP3    H138723   1.511   4.293   3.390  0.3179  0.1986 -0.1790
 5696TIP3    H238724   1.490   4.324   3.537  0.2038  0.6108 -0.2786
 5697TIP3   OH238725   4.976   0.052   1.736 -0.5183 -0.6622  0.3628
 5697TIP3    H138726   4.885   0.030   1.756 -0.4687 -0.9928  0.2242
 5697TIP3    H238727   5.023  -0.031   1.740 -0.2836 -0.5472  0.0789
 5698TIP3   OH238728   2.472   3.505   3.621 -0.2593 -0.4450 -0.1786
 5698TIP3    H138729   2.477   3.538   3.711 -0.5004  0.2400 -0.4074
 5698TIP3    H238730   2.391   3.454   3.619  0.8541 -2.3097  0.5694
 5699TIP3   OH238731   0.635   6.090   1.845  0.1765  0.2201  0.2465
 5699TIP3    H138732   0.728   6.085   1.868 -0.0915 -0.0687  1.3339
 5699TIP3    H238733   0.630   6.160   1.780  0.9378  1.4352  1.4444
 5700TIP3   OH238734   2.090   6.183   2.649 -0.1658 -0.0936 -0.4304
 5700TIP3    H138735   2.017   6.233   2.614 -0.9837 -0.3876  0.8140
 5700TIP3    H238736   2.066   6.091   2.632 -0.0696 -0.1898 -0.0469
 5701TIP3   OH238737   1.824   4.395   3.218  0.1357  0.3204 -0.0767
 5701TIP3    H138738   1.757   4.438   3.165  0.1368 -0.6347 -0.8723
 5701TIP3    H238739   1.901   4.393   3.162  0.8156  1.3005  0.7918
 5702TIP3   OH238740   5.773   1.798   5.319  0.4790  0.0567  0.0256
 5702TIP3    H138741   5.719   1.845   5.256 -1.1034  1.4165  2.2357
 5702TIP3    H238742   5.818   1.866   5.369  0.5378 -0.8859  1.3212
 5703TIP3   OH238743   4.406   4.621   0.989  0.0385  0.0837 -0.1055
 5703TIP3    H138744   4.457   4.695   0.956  0.1479  0.4166  0.7816
 5703TIP3    H238745   4.315   4.650   0.982  0.0331 -0.0423 -0.5739
 5704TIP3   OH238746   4.851   3.533   3.516 -0.1990  0.0701 -0.2078
 5704TIP3    H138747   4.937   3.563   3.544 -0.8330  0.5692  1.3423
 5704TIP3    H238748   4.865   3.495   3.429  1.5636  0.1553  0.0100
 5705TIP3   OH238749   4.813   1.902   1.535  0.1920 -0.2055 -0.2587
 5705TIP3    H138750   4.846   1.819   1.501 -0.8040 -0.2163 -1.2629
 5705TIP3    H238751   4.832   1.899   1.629 -0.0114 -1.6521 -0.2476
 5706TIP3   OH238752   2.954   0.472   8.537  0.0594 -0.5878 -0.1718
 5706TIP3    H138753   2.878   0.482   8.595 -0.2506 -1.5480 -0.3954
 5706TIP3    H238754   2.921   0.421   8.463  0.8166 -0.6279 -0.4868
 5707TIP3   OH238755   3.565   6.709   1.687 -0.0900  0.3462 -0.4958
 5707TIP3    H138756   3.548   6.642   1.753  0.0947  2.2548  1.6476
 5707TIP3    H238757   3.479   6.748   1.671 -0.3062 -0.7634 -2.2194
 5708TIP3   OH238758   1.224   4.671   1.858 -0.1354 -0.4897 -0.1856
 5708TIP3    H138759   1.274   4.591   1.844  0.4333 -0.0091 -1.0713
 5708TIP3    H238760   1.136   4.642   1.879 -0.1205 -1.3488 -1.2190
 5709TIP3   OH238761   0.376   6.248   1.118 -0.5903  0.2351 -0.3708
 5709TIP3    H138762   0.393   6.317   1.055  1.6368 -0.3978 -0.5522
 5709TIP3    H238763   0.462   6.210   1.136 -1.0611  0.5268  3.2448
 5710TIP3   OH238764   2.378   3.067   4.022 -0.0973  0.1733  0.1062
 5710TIP3    H138765   2.315   3.004   3.986 -0.4706  0.8033 -0.3553
 5710TIP3    H238766   2.338   3.153   4.007  0.4421  0.5311  0.6611
 5711TIP3   OH238767   3.724   3.973   2.731 -0.1195 -0.4378  0.3899
 5711TIP3    H138768   3.746   4.057   2.770  1.1746  0.1358 -1.4944
 5711TIP3    H238769   3.804   3.922   2.737 -0.2642 -0.7684 -0.4398
 5712TIP3   OH238770   5.778   5.416   1.469  0.1932 -0.3334  0.0631
 5712TIP3    H138771   5.721   5.361   1.416 -0.4540 -0.6618  1.0768
 5712TIP3    H238772   5.744   5.504   1.458  0.2231 -0.3619 -0.2656
 5713TIP3   OH238773   4.793   4.703   3.791 -0.2711  0.8578  0.1550
 5713TIP3    H138774   4.787   4.651   3.871 -3.2962 -0.0182 -0.5064
 5713TIP3    H238775   4.886   4.727   3.785  0.6269 -1.5785  2.2944
 5714TIP3   OH238776   4.093   4.837   1.353  0.7057 -0.4004 -0.0424
 5714TIP3    H138777   4.011   4.860   1.397 -0.0375  1.3643 -2.1665
 5714TIP3    H238778   4.160   4.887   1.402  0.2740 -0.4431  0.6078
 5715TIP3   OH238779   0.391   4.594   1.979 -0.3708  0.1660  0.1299
 5715TIP3    H138780   0.365   4.519   1.926 -2.5975  0.9086  0.0740
 5715TIP3    H238781   0.450   4.644   1.923  1.6494 -1.7381  0.3767
 5716TIP3   OH238782   5.312   0.139   1.123 -0.0113  0.2793  0.3555
 5716TIP3    H138783   5.259   0.173   1.194  1.4596 -0.1422  1.7252
 5716TIP3    H238784   5.382   0.089   1.167  1.8204  1.2473 -1.2768
 5717TIP3   OH238785   4.732   2.921   1.745  0.0805  0.6503 -0.1379
 5717TIP3    H138786   4.685   2.877   1.815 -0.2578  0.1182 -0.6814
 5717TIP3    H238787   4.823   2.924   1.774 -0.3328  2.0610  1.1064
 5718TIP3   OH238788   5.184   2.548   4.180 -0.2364 -0.0041 -0.6571
 5718TIP3    H138789   5.165   2.506   4.096 -2.1566 -0.2122 -0.1661
 5718TIP3    H238790   5.262   2.502   4.212  1.2718  0.8933 -2.8276
 5719TIP3   OH238791   5.091   5.763   4.047  0.2979  0.1328 -0.1161
 5719TIP3    H138792   5.107   5.781   3.954  1.5436 -0.1764  0.0171
 5719TIP3    H238793   5.041   5.838   4.078  0.5381  0.6161 -0.8632
 5720TIP3   OH238794   5.771   2.513   1.286  0.2002 -0.6211  0.3480
 5720TIP3    H138795   5.700   2.500   1.223  1.2254  1.3007 -1.2993
 5720TIP3    H238796   5.746   2.592   1.334  1.3001  0.2391 -0.4423
 5721TIP3   OH238797   3.634   5.313   0.775  0.3589 -0.0278  0.5189
 5721TIP3    H138798   3.684   5.237   0.805 -2.2235 -1.8740  0.4457
 5721TIP3    H238799   3.554   5.277   0.737 -0.4790  2.6962 -0.5892
 5722TIP3   OH238800   5.807   0.344   1.503  0.0706 -0.4312 -0.3269
 5722TIP3    H138801   5.725   0.298   1.520  0.3873 -1.5512 -1.6128
 5722TIP3    H238802   5.781   0.428   1.464 -0.4716 -0.8030 -0.7727
 5723TIP3   OH238803   3.394   1.694   2.381 -0.4145  0.3871  0.3433
 5723TIP3    H138804   3.419   1.767   2.325  1.3257 -0.5372 -0.1352
 5723TIP3    H238805   3.300   1.684   2.366 -0.3952  1.5470 -0.7393
 5724TIP3   OH238806   5.401   1.185   5.061  0.2003 -0.1511  0.5674
 5724TIP3    H138807   5.474   1.151   5.113 -0.4457 -1.2125  0.8168
 5724TIP3    H238808   5.363   1.107   5.019  0.5386  0.6240 -1.3123
 5725TIP3   OH238809   5.150   4.279   0.199  0.0548 -0.1254  0.0006
 5725TIP3    H138810   5.175   4.367   0.171 -1.6280  0.5220  0.4067
 5725TIP3    H238811   5.163   4.278   0.294 -1.4849  0.2750  0.2433
 5726TIP3   OH238812   1.698   5.562   0.900 -0.7673  0.2251 -0.0956
 5726TIP3    H138813   1.688   5.633   0.964 -1.9790  1.2380 -1.3530
 5726TIP3    H238814   1.737   5.490   0.951  0.2061  1.6542  1.2851
 5727TIP3   OH238815   0.300   5.504   0.729 -0.0173  0.1397 -0.1725
 5727TIP3    H138816   0.296   5.496   0.633 -2.1328 -0.3774 -0.0875
 5727TIP3    H238817   0.304   5.414   0.761 -1.8863  0.1889  0.2664
 5728TIP3   OH238818   6.767   0.417   4.530 -0.5947 -0.1912  0.3423
 5728TIP3    H138819   6.736   0.332   4.560 -1.5871  0.0479  0.0352
 5728TIP3    H238820   6.689   0.459   4.492 -0.1364  0.8819  0.5585
 5729TIP3   OH238821   6.140   5.753   1.592 -0.4101 -0.5435 -0.9604
 5729TIP3    H138822   6.107   5.671   1.630 -0.4337  0.6792  1.8947
 5729TIP3    H238823   6.230   5.759   1.623 -0.1649  0.1363 -1.7803
 5730TIP3   OH238824   5.708   6.123   4.613  0.1193  0.2283 -0.1574
 5730TIP3    H138825   5.630   6.138   4.665  0.8835  2.7444  0.3982
 5730TIP3    H238826   5.773   6.091   4.675 -0.9665 -4.2925 -1.0152
 5731TIP3   OH238827   2.411   2.762   4.027  0.0740  0.2531  0.0564
 5731TIP3    H138828   2.427   2.843   4.075  0.1269  0.2567  0.0334
 5731TIP3    H238829   2.394   2.697   4.094 -3.9948  1.0640  0.0760
 5732TIP3   OH238830   0.658   1.719   1.436  0.3179 -0.1312 -0.1603
 5732TIP3    H138831   0.679   1.686   1.348  1.0615 -2.6774  0.8854
 5732TIP3    H238832   0.660   1.814   1.427 -3.2920 -0.1344 -3.7489
 5733TIP3   OH238833   2.233   5.707   2.384  0.6479 -0.2410  0.6328
 5733TIP3    H138834   2.180   5.682   2.308  0.2896  1.2348  0.3559
 5733TIP3    H238835   2.172   5.702   2.458  0.4599  0.2074  0.5124
 5734TIP3   OH238836   2.973   5.472   3.946  0.2178 -0.1393 -1.0418
 5734TIP3    H138837   3.024   5.553   3.952 -0.0415  0.0773 -1.6558
 5734TIP3    H238838   2.884   5.499   3.967  0.4084 -0.6049  0.5103
 5735TIP3   OH238839   2.985   5.061   1.267  0.0254 -0.4784  0.4688
 5735TIP3    H138840   2.899   5.049   1.305  0.0237  1.9512  1.3686
 5735TIP3    H238841   3.044   5.072   1.342  0.6085  0.7917 -0.1326
 5736TIP3   OH238842   6.391   1.232   0.894  0.4104  0.2239 -0.2736
 5736TIP3    H138843   6.422   1.142   0.900  3.6047  1.1449 -0.9309
 5736TIP3    H238844   6.397   1.254   0.801 -0.5588  1.0428 -0.1612
 5737TIP3   OH238845   1.582   0.119   8.740 -0.3403 -0.0280  0.7936
 5737TIP3    H138846   1.572   0.203   8.694 -0.5589 -0.3702  0.2120
 5737TIP3    H238847   1.560   0.053   8.674 -0.6288 -0.5254  1.3855
 5738TIP3   OH238848   0.368   0.554   4.509  0.7621 -0.7460  0.0302
 5738TIP3    H138849   0.396   0.616   4.442 -1.4901  1.0254  0.5796
 5738TIP3    H238850   0.449   0.515   4.542  2.3521  2.2606 -0.0220
 5739TIP3   OH238851   5.199   4.313   4.279 -0.3703 -0.8078 -0.1456
 5739TIP3    H138852   5.107   4.330   4.263 -0.2070 -0.2650 -0.5309
 5739TIP3    H238853   5.223   4.374   4.350 -0.0636 -0.2010 -0.7530
 5740TIP3   OH238854   6.377   4.046   1.778 -0.4117  0.2500  0.1969
 5740TIP3    H138855   6.366   3.986   1.705 -0.8432  0.8700 -0.2510
 5740TIP3    H238856   6.383   4.133   1.738 -3.0618  0.8778  1.0001
 5741TIP3   OH238857   4.357   3.018   1.869  0.5171 -0.0143 -0.0176
 5741TIP3    H138858   4.358   3.001   1.775 -0.1513  0.6687 -0.1612
 5741TIP3    H238859   4.444   3.054   1.888 -0.1431  2.2158 -0.8673
 5742TIP3   OH238860   5.121   2.962   2.635  0.3209  0.4857  0.4408
 5742TIP3    H138861   5.083   3.047   2.658  2.0188  1.4998 -0.3190
 5742TIP3    H238862   5.173   2.938   2.711 -0.9483 -0.4097  1.0669
 5743TIP3   OH238863   3.559   0.553   0.213 -0.0745  0.0749  0.1273
 5743TIP3    H138864   3.537   0.534   0.121 -1.7162 -0.9124  0.6860
 5743TIP3    H238865   3.655   0.560   0.214 -0.0896  1.4240 -1.8895
 5744TIP3   OH238866   2.873   3.423   0.891  0.0285  0.0184 -0.5378
 5744TIP3    H138867   2.940   3.455   0.951  0.1480  0.1036 -0.7161
 5744TIP3    H238868   2.791   3.448   0.932  0.1096  0.0877 -0.4155
 5745TIP3   OH238869   6.159   1.275   2.808 -0.3202 -0.2971 -0.1966
 5745TIP3    H138870   6.150   1.179   2.809 -0.2373 -0.3061 -0.3127
 5745TIP3    H238871   6.253   1.290   2.803 -0.2328 -0.1995  1.3087
 5746TIP3   OH238872   1.527   2.926   3.244 -0.2447  0.1732  0.3710
 5746TIP3    H138873   1.580   2.974   3.181 -2.5192  2.3242 -0.0618
 5746TIP3    H238874   1.479   2.862   3.191 -0.2317  0.1949  0.3330
 5747TIP3   OH238875   3.767   4.498   4.272 -0.1886 -0.5888  0.2590
 5747TIP3    H138876   3.760   4.530   4.362 -1.3858  1.5200 -0.4995
 5747TIP3    H238877   3.676   4.481   4.245 -0.1677  1.4327 -1.3630
 5748TIP3   OH238878   6.568   3.475   8.762 -0.3289 -0.1949 -0.2543
 5748TIP3    H138879   6.582   3.569   8.776 -2.7533 -0.0387  2.1266
 5748TIP3    H238880   6.496   3.471   8.699 -0.1624 -0.4652 -0.4268
 5749TIP3   OH238881   0.422   5.452   2.640  0.1708 -0.6471 -0.7620
 5749TIP3    H138882   0.436   5.503   2.560  1.1814 -0.7255 -0.6464
 5749TIP3    H238883   0.468   5.370   2.624  1.3195 -0.2395  0.3102
 5750TIP3   OH238884   1.819   1.544   1.725  0.3834 -0.2860  0.2610
 5750TIP3    H138885   1.734   1.526   1.766  0.7648  1.0055  1.7415
 5750TIP3    H238886   1.799   1.603   1.653  0.1277  1.5963  1.7736
 5751TIP3   OH238887   0.417   0.511   0.653 -0.2970 -0.0904  0.0105
 5751TIP3    H138888   0.444   0.519   0.561  2.0599 -2.2616  0.4044
 5751TIP3    H238889   0.364   0.589   0.669  1.1330  1.5686 -2.5511
 5752TIP3   OH238890   6.742   2.256   2.352 -0.1812  0.4623 -0.1874
 5752TIP3    H138891   6.775   2.218   2.271  0.9859  1.5946 -0.2817
 5752TIP3    H238892   6.808   2.232   2.418 -0.5166  0.5343  0.1790
 5753TIP3   OH238893   4.177   3.734   4.123 -0.1593  0.8031 -0.0650
 5753TIP3    H138894   4.234   3.658   4.107 -1.3521 -0.2116  0.3678
 5753TIP3    H238895   4.093   3.710   4.084 -1.1495  1.0463  1.8263
 5754TIP3   OH238896   4.283   0.026   3.501  0.4701  0.5083 -0.5568
 5754TIP3    H138897   4.308   0.021   3.593 -0.7809 -1.4389 -0.2624
 5754TIP3    H238898   4.361  -0.003   3.453  1.4879  2.5493 -0.2314
 5755TIP3   OH238899   2.078   4.212   0.482 -0.1768 -0.5707  0.2131
 5755TIP3    H138900   2.022   4.154   0.534 -1.9969 -0.2462 -1.2379
 5755TIP3    H238901   2.088   4.290   0.536 -2.1899 -0.1623  0.1095
 5756TIP3   OH238902   6.442   2.822   3.896 -0.2099  0.4383 -0.1294
 5756TIP3    H138903   6.455   2.798   3.804 -2.9714 -1.9979 -0.0650
 5756TIP3    H238904   6.366   2.770   3.923  0.6386  0.8693  3.6341
 5757TIP3   OH238905   3.142   0.015   1.149 -0.4218 -0.4949  0.6163
 5757TIP3    H138906   3.129  -0.072   1.113 -0.6308 -0.2284  0.0333
 5757TIP3    H238907   3.140   0.073   1.073  1.6810 -0.1586  0.7356
 5758TIP3   OH238908   6.429   6.343   2.461 -0.2942 -0.1542 -0.6866
 5758TIP3    H138909   6.459   6.308   2.545  1.9245  0.2330 -1.2675
 5758TIP3    H238910   6.379   6.271   2.422 -2.3546  0.0145  1.3588
 5759TIP3   OH238911   2.202   1.818   4.192 -0.1981  0.4213 -0.3974
 5759TIP3    H138912   2.203   1.778   4.279  0.3111 -0.2066 -0.6867
 5759TIP3    H238913   2.130   1.881   4.196  0.8159  1.5630  0.9828
 5760TIP3   OH238914   3.484   1.947   0.299  0.0591  0.8288  0.2644
 5760TIP3    H138915   3.491   1.964   0.206 -0.5787 -0.2526 -0.0032
 5760TIP3    H238916   3.575   1.937   0.329  0.2276 -1.9926 -0.9056
 5761TIP3   OH238917   1.893   4.838   1.879  0.3604 -0.1975 -0.1236
 5761TIP3    H138918   1.928   4.798   1.958 -0.7259 -0.0908  0.4346
 5761TIP3    H238919   1.798   4.831   1.889  0.0934  2.5299  0.0404
 5762TIP3   OH238920   5.409   4.216   2.353  0.2706  0.5584 -0.0145
 5762TIP3    H138921   5.357   4.185   2.279 -0.6532  0.2952  0.7264
 5762TIP3    H238922   5.368   4.175   2.430  0.9261  1.1868  0.6834
 5763TIP3   OH238923   3.159   3.437   0.456  0.0233  0.4457 -0.6575
 5763TIP3    H138924   3.129   3.527   0.445  1.5414  0.9130 -1.1314
 5763TIP3    H238925   3.253   3.444   0.473  0.1731 -1.0427 -0.6976
 5764TIP3   OH238926   5.584   4.305   4.923 -0.1213  0.1758 -0.0357
 5764TIP3    H138927   5.680   4.298   4.924 -0.1648 -1.3631 -1.7681
 5764TIP3    H238928   5.554   4.232   4.977 -0.3052 -0.8886 -1.5074
 5765TIP3   OH238929   4.014   2.456   3.266 -0.6183 -0.0061  0.6081
 5765TIP3    H138930   4.002   2.362   3.280 -0.3760 -0.5957 -2.4575
 5765TIP3    H238931   4.109   2.466   3.253 -0.7242  0.5521  0.2499
 5766TIP3   OH238932   6.503   6.219   0.991 -0.2898 -0.0902  0.0595
 5766TIP3    H138933   6.507   6.314   0.999 -1.9882  0.1246 -1.2725
 5766TIP3    H238934   6.479   6.188   1.079  0.5417  0.6651  0.5654
 5767TIP3   OH238935   4.973   0.141   4.387 -0.1445 -0.3869 -0.2783
 5767TIP3    H138936   5.044   0.205   4.390 -1.7275  1.4728 -0.1737
 5767TIP3    H238937   4.977   0.096   4.471  1.1330 -0.5991 -0.4397
 5768TIP3   OH238938   1.092   4.350   3.803  0.0401  0.5937  0.1211
 5768TIP3    H138939   1.154   4.412   3.763  0.4217  0.2282  0.1284
 5768TIP3    H238940   1.008   4.372   3.765  0.3630  0.3997 -0.7336
 5769TIP3   OH238941   6.233   0.416   2.567 -0.0777 -0.4625  0.4244
 5769TIP3    H138942   6.318   0.422   2.609 -0.0812 -0.7605  0.4780
 5769TIP3    H238943   6.180   0.364   2.628 -0.2278 -0.4724  0.2859
 5770TIP3   OH238944   2.306   1.281   1.527 -0.3252 -0.5039 -0.1295
 5770TIP3    H138945   2.308   1.351   1.593  0.5367 -0.1435 -0.5121
 5770TIP3    H238946   2.388   1.293   1.479  0.0636 -2.0758  0.0977
 5771TIP3   OH238947   5.383   5.240   4.148 -0.1084 -0.0506 -0.1565
 5771TIP3    H138948   5.335   5.252   4.066 -1.3467 -0.7666  0.4294
 5771TIP3    H238949   5.465   5.199   4.122 -0.1720  0.3993 -1.1017
 5772TIP3   OH238950   0.159   2.997   2.109 -0.5145  0.0093 -0.2295
 5772TIP3    H138951   0.088   2.934   2.097 -0.2631 -0.3545  0.1839
 5772TIP3    H238952   0.217   2.957   2.174 -1.5707  1.6889  1.8766
 5773TIP3   OH238953   0.864   0.546   3.030 -0.0855  0.3866 -0.1986
 5773TIP3    H138954   0.860   0.641   3.032 -3.7722  0.4513 -1.8617
 5773TIP3    H238955   0.808   0.518   3.103  0.1603 -0.4754 -0.3252
 5774TIP3   OH238956   3.020   0.718   2.219 -0.4917  0.1337  0.5499
 5774TIP3    H138957   3.060   0.760   2.295  0.4114 -0.3524  0.3570
 5774TIP3    H238958   3.041   0.625   2.230  1.3696  0.2755 -1.2769
 5775TIP3   OH238959   6.199   2.681   3.958 -0.1881 -0.1843  0.6109
 5775TIP3    H138960   6.164   2.633   3.882  3.3518 -1.1151 -0.6197
 5775TIP3    H238961   6.202   2.616   4.027  0.0195 -0.3580  0.4389
 5776TIP3   OH238962   5.314   6.450   2.015 -0.2330  0.0644  0.1216
 5776TIP3    H138963   5.271   6.394   2.080  1.4619  1.6779  2.8345
 5776TIP3    H238964   5.295   6.540   2.045  2.1472  0.8448 -0.4993
 5777TIP3   OH238965   4.548   1.766   3.438 -0.1335 -0.3591 -0.0844
 5777TIP3    H138966   4.621   1.719   3.397  0.9768  0.5664  0.7618
 5777TIP3    H238967   4.588   1.846   3.472 -1.4998  0.0334  0.6470
 5778TIP3   OH238968   5.146   2.290   1.267 -0.3300  0.0064 -0.0116
 5778TIP3    H138969   5.153   2.196   1.252 -1.0383 -0.4146  1.9189
 5778TIP3    H238970   5.219   2.328   1.218 -1.2293 -1.2925 -2.5096
 5779TIP3   OH238971   3.098   4.952   4.021 -0.0697  0.0103 -0.2219
 5779TIP3    H138972   3.035   5.024   4.014  1.4253  1.7767  2.6714
 5779TIP3    H238973   3.054   4.887   4.075 -0.8041 -0.5743 -1.4741
 5780TIP3   OH238974   6.436   5.569   1.990  0.0577 -0.1402 -0.3473
 5780TIP3    H138975   6.394   5.623   1.923 -0.0689 -0.7257 -0.7500
 5780TIP3    H238976   6.444   5.627   2.066  3.5731  1.8003 -1.9521
 5781TIP3   OH238977   0.581   5.288   1.815 -0.0974  0.4948  0.4385
 5781TIP3    H138978   0.585   5.204   1.861  0.4141 -0.1067 -0.6755
 5781TIP3    H238979   0.533   5.269   1.734  2.0736  0.6909 -0.9767
 5782TIP3   OH238980   3.646   4.859   1.587 -0.5135 -0.0127  0.3916
 5782TIP3    H138981   3.658   4.825   1.676 -0.6431 -1.2263 -0.0340
 5782TIP3    H238982   3.563   4.820   1.558  0.9623 -2.0445 -1.3251
 5783TIP3   OH238983   0.667   3.308   4.940 -0.0553  0.4154 -0.0758
 5783TIP3    H138984   0.656   3.214   4.955 -1.2994  0.2862 -1.5482
 5783TIP3    H238985   0.761   3.322   4.940  0.3729 -1.5170 -3.4750
 5784TIP3   OH238986   5.518   1.236   2.277 -0.0114  0.6089  0.6479
 5784TIP3    H138987   5.598   1.200   2.239 -1.0985  1.4323 -2.6797
 5784TIP3    H238988   5.480   1.162   2.324 -0.2518 -1.6849 -2.7873
 5785TIP3   OH238989   3.433   6.513   1.838 -0.7189 -0.0268  0.3006
 5785TIP3    H138990   3.456   6.429   1.878  1.6521  1.4612  2.4080
 5785TIP3    H238991   3.388   6.561   1.907 -0.8431  0.9055 -0.4085
 5786TIP3   OH238992   6.206   3.539   1.022 -0.6029 -0.4216 -0.3455
 5786TIP3    H138993   6.137   3.566   1.083 -0.3801 -0.3540 -0.1227
 5786TIP3    H238994   6.194   3.445   1.013  0.7028 -0.8316  1.5110
 5787TIP3   OH238995   5.494   0.008   1.963 -0.0414  0.1184  0.2013
 5787TIP3    H138996   5.523   0.064   2.035 -0.4902  0.6469 -0.0220
 5787TIP3    H238997   5.402   0.032   1.949  0.3966  0.9671 -1.4188
 5788TIP3   OH238998   4.555   2.429   3.877  0.2382  0.2413 -0.7150
 5788TIP3    H138999   4.482   2.416   3.817  0.0621  0.2636 -0.5047
 5788TIP3    H239000   4.551   2.522   3.900 -0.4449 -0.0238  0.2985
 5789TIP3   OH239001   4.692   5.766   1.036 -0.2350 -0.4650 -0.1137
 5789TIP3    H139002   4.681   5.675   1.010  1.6920 -0.7351 -0.1672
 5789TIP3    H239003   4.606   5.805   1.025 -1.0489 -2.2195 -0.2994
 5790TIP3   OH239004   5.637   3.515   2.912 -0.3824  0.0814  0.0081
 5790TIP3    H139005   5.546   3.545   2.906  0.4182  3.0923  1.2055
 5790TIP3    H239006   5.678   3.545   2.832  0.2025  1.4305  0.7802
 5791TIP3   OH239007   4.366   2.764   0.947 -0.4354 -0.0330  0.0817
 5791TIP3    H139008   4.436   2.727   0.894  0.4256  0.3025  0.9633
 5791TIP3    H239009   4.409   2.829   1.002 -1.5249  0.5482  0.2756
 5792TIP3   OH239010   4.905   6.593   3.477 -0.1914  0.2062  0.4017
 5792TIP3    H139011   4.893   6.603   3.383  1.9638 -0.3677  0.0242
 5792TIP3    H239012   4.849   6.661   3.515  0.8746  2.2357 -1.3985
 5793TIP3   OH239013   5.777   2.696   3.348 -0.2199  0.3952  0.1520
 5793TIP3    H139014   5.845   2.663   3.406 -0.8767 -0.3676  0.5094
 5793TIP3    H239015   5.799   2.661   3.262  0.0580  0.4885  0.1843
 5794TIP3   OH239016   5.912   6.531   4.293  0.7607 -0.4899  0.0389
 5794TIP3    H139017   5.966   6.610   4.286  2.0640 -1.4135 -0.8942
 5794TIP3    H239018   5.837   6.549   4.237  0.8506  0.2428  0.1418
 5795TIP3   OH239019   1.532   6.316   8.559 -0.3847 -0.4220  0.2352
 5795TIP3    H139020   1.530   6.240   8.617  0.1155 -0.5276  0.1232
 5795TIP3    H239021   1.518   6.280   8.471  0.7722 -0.5166  0.0700
 5796TIP3   OH239022   0.455   0.879   3.119 -0.6199 -0.3448  0.5870
 5796TIP3    H139023   0.436   0.793   3.156 -1.5845 -0.4300 -0.0621
 5796TIP3    H239024   0.443   0.940   3.192 -3.7340 -0.3716  0.2700
 5797TIP3   OH239025   5.617   2.535   2.051 -0.1388  0.0225  0.4836
 5797TIP3    H139026   5.578   2.550   1.965  0.2611  0.9384  0.4518
 5797TIP3    H239027   5.711   2.542   2.037 -0.0251 -0.6527  0.8481
 5798TIP3   OH239028   6.285   3.788   4.105 -0.1121 -0.1322  0.4610
 5798TIP3    H139029   6.288   3.764   4.197  2.7805  1.3010  0.8785
 5798TIP3    H239030   6.336   3.720   4.061  0.7501  0.5654  0.3539
 5799TIP3   OH239031   3.184   1.301   1.900 -0.1137  0.0605 -0.2808
 5799TIP3    H139032   3.135   1.221   1.881 -0.7772  0.1585  0.8825
 5799TIP3    H239033   3.146   1.366   1.841  0.3657 -0.4451 -1.1694
 5800TIP3   OH239034   5.792   3.424   3.562  0.4731  0.2169 -0.5386
 5800TIP3    H139035   5.703   3.421   3.595  0.6273  0.6312 -0.0591
 5800TIP3    H239036   5.822   3.513   3.583  0.7186  0.3545 -1.4272
 5801TIP3   OH239037   1.385   5.249   0.841 -0.2770  0.5429  0.5402
 5801TIP3    H139038   1.308   5.193   0.837  0.7332 -0.8396 -0.5012
 5801TIP3    H239039   1.440   5.220   0.768  0.8632  2.0562  0.7408
 5802TIP3   OH239040   6.068   0.157   2.050 -0.5158 -0.3133 -0.3380
 5802TIP3    H139041   6.107   0.244   2.047 -0.6879 -0.2262 -0.1146
 5802TIP3    H239042   6.097   0.121   2.134  3.5215 -2.3527 -2.3566
 5803TIP3   OH239043   2.916   3.328   3.899 -0.2230 -0.4105  0.3335
 5803TIP3    H139044   2.880   3.248   3.937  1.0666 -1.4670 -0.6071
 5803TIP3    H239045   2.858   3.349   3.826 -0.0779 -0.9940  0.0435
 5804TIP3   OH239046   3.119   1.548   0.759 -0.3251  0.1028  0.2258
 5804TIP3    H139047   3.096   1.467   0.803 -0.6743  0.6348  1.0573
 5804TIP3    H239048   3.112   1.528   0.666 -1.3043 -0.5703  0.4301
 5805TIP3   OH239049   0.656   5.451   3.189 -0.2080 -0.4943  0.4617
 5805TIP3    H139050   0.701   5.436   3.106  1.9791 -0.6799  1.6007
 5805TIP3    H239051   0.651   5.546   3.197 -0.2340 -0.4739  0.1984
 5806TIP3   OH239052   2.648   6.512   0.767 -0.1442 -0.1426 -0.2117
 5806TIP3    H139053   2.686   6.429   0.738  0.9154 -0.2161  1.2538
 5806TIP3    H239054   2.568   6.521   0.716  0.1180 -1.6781 -0.9613
 5807TIP3   OH239055   4.381   3.303   3.434  0.1119  0.5778 -0.1244
 5807TIP3    H139056   4.329   3.334   3.360  1.5923 -0.1037 -1.5069
 5807TIP3    H239057   4.471   3.304   3.402  0.5389 -2.4043  0.6554
 5808TIP3   OH239058   1.158   4.416   1.034 -0.4342 -0.0413 -0.1794
 5808TIP3    H139059   1.197   4.332   1.012 -1.6801 -0.4324 -0.9767
 5808TIP3    H239060   1.106   4.440   0.957 -2.3440  0.0909  1.0789
 5809TIP3   OH239061   0.062   6.647   4.751  0.1241 -0.1233  0.0704
 5809TIP3    H139062  -0.014   6.691   4.712 -1.1790 -2.1103  0.2433
 5809TIP3    H239063   0.126   6.644   4.681  0.0517  1.5221 -0.1088
 5810TIP3   OH239064   1.813   6.389   3.576  0.8011  0.1154 -0.0348
 5810TIP3    H139065   1.857   6.430   3.501  1.7896 -0.4371  0.2152
 5810TIP3    H239066   1.864   6.310   3.593 -1.1372 -1.3400 -0.6053
 5811TIP3   OH239067   3.603   4.413   8.839 -0.0419  0.1931  0.3428
 5811TIP3    H139068   3.549   4.468   8.783  0.4260  1.0905  0.7583
 5811TIP3    H239069   3.543   4.380   8.906 -0.3446  0.1181  0.0343
 5812TIP3   OH239070   0.968   0.419   3.840  0.2450  0.1107  0.1396
 5812TIP3    H139071   0.986   0.457   3.926  0.7313  0.4352 -0.1029
 5812TIP3    H239072   0.873   0.406   3.839 -0.1180  2.3302 -0.1772
 5813TIP3   OH239073   3.102   1.921   4.839 -0.2121  0.1722 -0.4417
 5813TIP3    H139074   3.198   1.920   4.841 -0.0958  1.5185 -2.4937
 5813TIP3    H239075   3.079   2.011   4.861 -0.9523  0.1481 -1.0856
 5814TIP3   OH239076   6.194   3.044   3.164 -0.3667 -0.1869 -0.0534
 5814TIP3    H139077   6.208   2.961   3.117  0.4521  0.0126 -0.1836
 5814TIP3    H239078   6.108   3.035   3.203 -1.0700 -0.3905 -1.5669
 5815TIP3   OH239079   5.866   4.622   4.281  0.4406  0.5545  0.3609
 5815TIP3    H139080   5.937   4.562   4.259  0.3921  0.0187  1.6183
 5815TIP3    H239081   5.880   4.643   4.373 -0.0563  1.7930  0.1733
 5816TIP3   OH239082   3.330   6.736   1.335 -0.4826  0.0545 -0.5085
 5816TIP3    H139083   3.258   6.769   1.389 -1.0765 -1.3527 -0.3897
 5816TIP3    H239084   3.320   6.782   1.251 -1.5626 -0.1602 -0.5080
 5817TIP3   OH239085   2.432   0.008   4.351  0.1518 -0.0239 -0.8283
 5817TIP3    H139086   2.420  -0.070   4.406  0.4465  0.8310  0.4896
 5817TIP3    H239087   2.524   0.032   4.365 -0.3081  1.3760 -0.0978
 5818TIP3   OH239088   6.783   3.476   1.165  0.0933 -0.1947  0.1438
 5818TIP3    H139089   6.717   3.483   1.096  2.7793  0.5770 -2.6008
 5818TIP3    H239090   6.832   3.397   1.142  0.7349 -0.2157  1.5026
 5819TIP3   OH239091   1.236   6.447   0.136 -0.8157 -0.3558 -0.5093
 5819TIP3    H139092   1.236   6.542   0.133  1.5171 -0.1526  1.7687
 5819TIP3    H239093   1.266   6.420   0.050 -1.3473  0.9579 -1.1307
 5820TIP3   OH239094   1.046   0.156   3.003  0.3384  0.0862 -0.6943
 5820TIP3    H139095   0.990   0.104   2.945 -0.3202 -2.2501  1.8542
 5820TIP3    H239096   1.130   0.112   3.002  0.8980  1.1325 -1.2602
 5821TIP3   OH239097   0.563   2.918   0.121  0.1675  0.6603 -0.5224
 5821TIP3    H139098   0.586   2.837   0.166 -0.7518 -0.2595 -1.6235
 5821TIP3    H239099   0.612   2.915   0.039  0.5124  1.4747 -0.3588
 5822TIP3   OH239100   3.095   0.941   2.805  0.4009 -0.5674  0.5425
 5822TIP3    H139101   3.167   0.926   2.866  2.1689  0.8852 -1.0471
 5822TIP3    H239102   3.111   0.881   2.732 -0.1335 -0.4199  0.2931
 5823TIP3   OH239103   2.286   0.945   0.463  0.1995  0.3784  0.2946
 5823TIP3    H139104   2.302   0.871   0.521  0.0643 -1.0145 -1.3360
 5823TIP3    H239105   2.310   0.912   0.376  1.0562  2.5736 -0.3848
 5824TIP3   OH239106   3.539   3.837   1.690 -0.0813  0.9904  0.4626
 5824TIP3    H139107   3.575   3.751   1.713 -1.2570 -0.0392 -1.3585
 5824TIP3    H239108   3.454   3.840   1.732 -0.7910  0.4903 -0.8647
 5825TIP3   OH239109   6.393   6.329   3.318  0.1899  0.0225 -0.1608
 5825TIP3    H139110   6.433   6.415   3.305  2.0083 -0.4419  1.8812
 5825TIP3    H239111   6.362   6.330   3.408  0.3346 -1.4856 -0.0729
 5826TIP3   OH239112   5.709   4.216   3.042 -0.2303  0.4629  0.1282
 5826TIP3    H139113   5.716   4.305   3.076 -1.7577  0.2677  1.0488
 5826TIP3    H239114   5.686   4.163   3.118 -1.1413 -0.4177 -0.7205
 5827TIP3   OH239115   3.216   2.323   3.313  0.0876  0.3485 -0.0510
 5827TIP3    H139116   3.170   2.251   3.354 -0.7507  0.1657 -1.2509
 5827TIP3    H239117   3.189   2.401   3.361 -0.3769  0.0648  0.1499
 5828TIP3   OH239118   0.848   2.041   4.370  0.2253  0.5844  0.3118
 5828TIP3    H139119   0.875   2.027   4.279 -0.2064  0.6385  0.1745
 5828TIP3    H239120   0.884   1.966   4.417 -0.0081  0.2800  0.0037
 5829TIP3   OH239121   5.327   4.374   1.167  0.4403 -0.0982  0.0140
 5829TIP3    H139122   5.415   4.408   1.180  0.2465  0.1633  0.6651
 5829TIP3    H239123   5.281   4.441   1.116  0.6429 -0.2750 -0.4014
 5830TIP3   OH239124   5.084   6.576   2.427 -0.3128  0.0759 -0.0510
 5830TIP3    H139125   5.167   6.591   2.383  0.3381 -0.3997  0.9796
 5830TIP3    H239126   5.079   6.482   2.440 -1.6032 -0.0514 -1.1755
 5831TIP3   OH239127   3.119   0.484   2.311  0.1184  0.4568  0.4525
 5831TIP3    H139128   3.207   0.518   2.299  0.1616  0.2804  0.2637
 5831TIP3    H239129   3.131   0.398   2.351 -0.0014  0.7730  1.1850
 5832TIP3   OH239130   0.286   0.326   2.109  0.1884 -0.2632  0.2549
 5832TIP3    H139131   0.343   0.295   2.179  0.0143 -0.6622  0.2206
 5832TIP3    H239132   0.206   0.354   2.153  0.4393  0.3857  0.3131
 5833TIP3   OH239133   2.433   4.610   4.273 -0.1696 -0.3968  0.2388
 5833TIP3    H139134   2.463   4.575   4.357  0.4256  0.1931  0.2793
 5833TIP3    H239135   2.512   4.615   4.220 -0.8172 -2.5733 -1.0460
 5834TIP3   OH239136   4.107   0.268   2.248 -0.5417  0.7005  0.0245
 5834TIP3    H139137   4.134   0.180   2.224 -0.4694  1.2308 -1.9582
 5834TIP3    H239138   4.115   0.270   2.344  0.5265 -1.0704  0.0112
 5835TIP3   OH239139   5.871   1.714   3.632 -0.1523 -0.8859 -0.1453
 5835TIP3    H139140   5.776   1.706   3.623 -0.3418  1.0924 -0.5788
 5835TIP3    H239141   5.888   1.698   3.725 -0.7882 -2.0697 -0.2165
 5836TIP3   OH239142   3.714   5.123   2.698  0.6600 -0.3167 -0.0256
 5836TIP3    H139143   3.775   5.175   2.750 -0.0805  1.6176 -1.0044
 5836TIP3    H239144   3.637   5.115   2.753  0.2427  0.8943 -0.3984
 5837TIP3   OH239145   2.735   0.815   0.834 -0.1892  0.1364 -0.0735
 5837TIP3    H139146   2.676   0.873   0.881  0.2735  0.0296  0.6568
 5837TIP3    H239147   2.758   0.863   0.755  0.1789  0.9560  0.5161
 5838TIP3   OH239148   4.388   5.078   3.485  0.2832 -0.6588 -0.0292
 5838TIP3    H139149   4.433   5.051   3.566  1.4576 -1.1290 -0.8063
 5838TIP3    H239150   4.346   4.999   3.452  1.0164 -0.8147 -0.6181
 5839TIP3   OH239151   1.976   0.943   4.120 -0.6122 -0.2095  0.1820
 5839TIP3    H139152   2.033   0.944   4.197 -1.4803 -1.5219  0.8916
 5839TIP3    H239153   2.033   0.915   4.048 -0.3032 -1.4313  0.8637
 5840TIP3   OH239154   3.363   1.753   1.595  0.0555  0.4021 -0.0767
 5840TIP3    H139155   3.374   1.805   1.674 -0.0795 -0.8292  0.7856
 5840TIP3    H239156   3.284   1.788   1.554 -1.7017 -0.9164  1.9830
 5841TIP3   OH239157   4.752   4.208   4.056 -0.0519  0.9612  0.0770
 5841TIP3    H139158   4.707   4.239   3.978 -1.4836  0.5098  0.6926
 5841TIP3    H239159   4.765   4.115   4.041 -2.5816  0.3109  1.3415
 5842TIP3   OH239160   3.962   1.921   0.583  0.1435  0.3298  0.2698
 5842TIP3    H139161   3.929   1.969   0.659 -0.6315 -0.7252  0.6249
 5842TIP3    H239162   3.884   1.894   0.535  0.6324  1.2667 -1.1065
 5843TIP3   OH239163   3.120   6.050   1.858 -0.2981 -0.1124 -1.0548
 5843TIP3    H139164   3.091   5.976   1.805 -0.2408  0.1247 -1.4193
 5843TIP3    H239165   3.048   6.114   1.850 -0.0827  0.1091 -1.2202
 5844TIP3   OH239166   6.028   1.849   3.092  0.6706  0.1400  0.2440
 5844TIP3    H139167   6.117   1.817   3.078  0.3166 -0.7367 -0.0050
 5844TIP3    H239168   6.017   1.918   3.027  1.2720  0.4775  0.4856
 5845TIP3   OH239169   4.435   5.248   0.936 -0.4572 -0.2247  0.4450
 5845TIP3    H139170   4.367   5.310   0.909  0.4604  0.2473 -0.9298
 5845TIP3    H239171   4.507   5.263   0.874  0.5702 -1.2929  1.3235
 5846TIP3   OH239172   1.226   1.846   2.434 -0.6549  0.1103  0.0791
 5846TIP3    H139173   1.304   1.888   2.470 -0.9149  0.9485 -0.2931
 5846TIP3    H239174   1.251   1.822   2.344 -0.4504 -0.7136  0.3478
 5847TIP3   OH239175   2.963   1.698   2.635 -0.2428  0.2825 -0.3455
 5847TIP3    H139176   2.898   1.639   2.595 -1.2874  0.1374  1.4767
 5847TIP3    H239177   2.926   1.719   2.720  2.6336 -0.6978  1.2625
 5848TIP3   OH239178   1.348   1.467   1.385 -0.7160 -0.4145 -0.0087
 5848TIP3    H139179   1.291   1.464   1.308 -0.0441 -0.5410 -0.5115
 5848TIP3    H239180   1.291   1.497   1.456 -1.3289 -0.2234 -0.5695
 5849TIP3   OH239181   0.765   1.195   2.539  0.1057 -0.2286  0.1139
 5849TIP3    H139182   0.834   1.129   2.528 -0.3166 -0.5828 -0.4754
 5849TIP3    H239183   0.684   1.145   2.542 -0.1833  0.2338  0.1589
 5850TIP3   OH239184   6.472   1.056   3.161  0.0593  0.0560 -0.2798
 5850TIP3    H139185   6.491   0.974   3.206  0.8702  0.1249 -0.4888
 5850TIP3    H239186   6.385   1.042   3.123  1.4186 -1.9439 -3.0324
 5851TIP3   OH239187   1.809   2.636   2.844  0.2448 -0.2692 -0.2531
 5851TIP3    H139188   1.732   2.653   2.899 -0.3786  0.2565 -1.2430
 5851TIP3    H239189   1.864   2.579   2.896 -0.5018 -0.0941  0.7622
 5852TIP3   OH239190   2.915   1.541   8.806 -0.0386 -0.3495 -0.3762
 5852TIP3    H139191   3.010   1.544   8.792  0.1518 -0.7327  0.7152
 5852TIP3    H239192   2.904   1.487   8.884 -1.0316  1.3421  0.7181
 5853TIP3   OH239193   3.779   6.435   4.050  0.2170  0.5189 -0.2990
 5853TIP3    H139194   3.730   6.511   4.019  2.1943  1.8952 -0.2397
 5853TIP3    H239195   3.771   6.438   4.146  2.9995  2.7652  0.0171
 5854TIP3   OH239196   4.580   1.043   8.857  0.1052  0.1455 -0.3523
 5854TIP3    H139197   4.495   1.087   8.849 -0.3389 -0.8360 -1.4467
 5854TIP3    H239198   4.643   1.106   8.824  0.1429  1.7159  2.4339
 5855TIP3   OH239199   1.217   6.714   8.525  0.6478 -0.2331 -0.0450
 5855TIP3    H139200   1.205   6.622   8.500 -0.6496  0.0185 -0.4563
 5855TIP3    H239201   1.308   6.720   8.553  0.0865 -2.2727  2.6307
 5856TIP3   OH239202   2.702   5.987   3.420 -0.0004 -0.2333 -0.5862
 5856TIP3    H139203   2.710   5.999   3.514 -0.5009  1.9467 -0.7631
 5856TIP3    H239204   2.608   5.982   3.404  0.0958 -3.3789 -0.7557
 5857TIP3   OH239205   6.198   0.695   4.012  0.3339  0.3483  0.0595
 5857TIP3    H139206   6.112   0.666   3.980  1.6532 -2.5024 -1.1792
 5857TIP3    H239207   6.202   0.787   3.987 -1.3962 -0.0672 -2.0807
 5858TIP3   OH239208   1.497   0.707   3.867  0.1770  0.0335 -0.6528
 5858TIP3    H139209   1.494   0.722   3.772 -0.3321 -2.4100 -1.1098
 5858TIP3    H239210   1.407   0.721   3.897 -0.3805 -2.1288 -1.1388
 5859TIP3   OH239211   0.926   5.685   4.138 -0.3474 -0.6303  0.0756
 5859TIP3    H139212   0.895   5.595   4.152  1.0264 -1.2195 -0.4894
 5859TIP3    H239213   1.014   5.686   4.176  0.3535 -0.0267 -1.5106
 5860TIP3   OH239214   5.568   5.604   4.109  0.3518 -0.1856  0.4297
 5860TIP3    H139215   5.584   5.510   4.120  0.9528 -0.1506 -0.1370
 5860TIP3    H239216   5.473   5.613   4.121  0.4645 -0.6467  1.9705
 5861TIP3   OH239217   1.974   2.209   2.513  0.6443  0.0526  0.1738
 5861TIP3    H139218   2.056   2.190   2.467  0.1970 -1.0555 -0.1914
 5861TIP3    H239219   1.951   2.298   2.484  2.2754  0.8507  1.1584
 5862TIP3   OH239220   2.587   0.206   3.478  0.5168  0.6571 -0.0609
 5862TIP3    H139221   2.630   0.169   3.400  0.4084  0.6380 -0.1115
 5862TIP3    H239222   2.586   0.134   3.541 -0.7444  0.2129 -0.5666
 5863TIP3   OH239223   6.606   1.119   2.900 -0.3640 -0.0264 -0.6828
 5863TIP3    H139224   6.562   1.089   2.980 -1.9556  1.7982 -0.7941
 5863TIP3    H239225   6.699   1.121   2.923 -0.7267 -0.0981  0.9432
 5864TIP3   OH239226   2.558   0.515   1.927 -0.3865  0.1024  0.1610
 5864TIP3    H139227   2.554   0.602   1.967  0.2516  0.3954 -0.3913
 5864TIP3    H239228   2.492   0.519   1.858 -1.0090 -0.1722  0.7334
 5865TIP3   OH239229   0.868   0.739   2.817  0.3392 -0.1903  0.4828
 5865TIP3    H139230   0.777   0.767   2.829  0.8222  2.1991 -0.7434
 5865TIP3    H239231   0.866   0.679   2.743  0.0022  2.0552 -1.4556
 5866TIP3   OH239232   2.479   4.000   1.559 -0.0697  0.0623  0.3358
 5866TIP3    H139233   2.458   3.908   1.572  0.1828  0.1412  1.4605
 5866TIP3    H239234   2.429   4.026   1.481 -1.1782 -0.6996  0.7684
 5867TIP3   OH239235   2.239   3.528   4.380 -0.4889  0.5317  0.1204
 5867TIP3    H139236   2.313   3.467   4.388  0.5575  1.4590 -1.7876
 5867TIP3    H239237   2.214   3.524   4.288 -0.8987  2.3879  0.1036
 5868TIP3   OH239238   0.423   4.655   0.247 -1.1698 -0.2371  0.0988
 5868TIP3    H139239   0.344   4.601   0.255 -0.2035 -2.0725 -1.7711
 5868TIP3    H239240   0.405   4.712   0.171 -0.4132 -1.2841 -0.8995
 5869TIP3   OH239241   5.256   0.364   3.328 -0.3215  0.0071 -0.2200
 5869TIP3    H139242   5.230   0.333   3.414 -1.4173 -0.8005 -0.8160
 5869TIP3    H239243   5.206   0.310   3.267 -0.9722  1.8046 -1.3437
 5870TIP3   OH239244   0.304   0.058   8.827 -0.6451  0.7189 -0.2576
 5870TIP3    H139245   0.334  -0.008   8.890 -0.2681  2.7882  1.8803
 5870TIP3    H239246   0.376   0.066   8.765  0.0111  0.2895  0.4225
 5871TIP3   OH239247   3.965   4.106   4.033 -0.1952  0.0651 -0.5072
 5871TIP3    H139248   4.053   4.076   4.010 -0.5128 -1.2236 -0.0919
 5871TIP3    H239249   3.933   4.150   3.954  1.3091  1.7744 -0.2334
 5872TIP3   OH239250   3.815   1.166   3.453  0.2916 -0.1524  0.5296
 5872TIP3    H139251   3.892   1.222   3.458  1.2151 -1.3569  0.1776
 5872TIP3    H239252   3.850   1.078   3.442 -1.1350 -0.7643  0.6859
 5873TIP3   OH239253   5.718   0.328   1.894  0.0687 -0.2152 -0.3317
 5873TIP3    H139254   5.724   0.348   1.987 -1.4040 -4.2742  0.8707
 5873TIP3    H239255   5.649   0.385   1.861 -0.5663  0.1384  1.5141
 5874TIP3   OH239256   2.153   3.760   4.709  0.3278  0.2180  0.1449
 5874TIP3    H139257   2.149   3.839   4.763 -0.8688  0.0433  0.3433
 5874TIP3    H239258   2.147   3.688   4.771 -0.5887  0.0092 -0.1622
 5875TIP3   OH239259   6.707   2.820   0.350 -0.2856  0.6267 -0.5488
 5875TIP3    H139260   6.801   2.804   0.354 -0.7435 -2.8285 -0.3763
 5875TIP3    H239261   6.696   2.880   0.276  2.0539  1.6215 -0.1716
 5876TIP3   OH239262   5.931   5.615   3.522  0.9885 -0.0408  0.1264
 5876TIP3    H139263   5.909   5.629   3.431  0.8699  1.0257  0.3117
 5876TIP3    H239264   6.024   5.638   3.528  1.2858 -1.1556  0.0651
 5877TIP3   OH239265   4.033   5.240   4.393  0.1569 -0.1713 -0.0837
 5877TIP3    H139266   4.062   5.158   4.433 -0.1703 -0.2155  0.0651
 5877TIP3    H239267   4.025   5.221   4.300 -1.3496 -0.7400  0.1272
 5878TIP3   OH239268   4.685   1.045   0.819  0.2594 -1.3301 -0.3779
 5878TIP3    H139269   4.610   1.019   0.873  0.2844 -2.2191 -0.7569
 5878TIP3    H239270   4.655   1.123   0.772 -0.5742 -1.9216 -0.8460
 5879TIP3   OH239271   1.197   0.970   0.187  0.0039 -0.0757  0.1608
 5879TIP3    H139272   1.212   0.987   0.280 -1.2350  1.8401  0.0535
 5879TIP3    H239273   1.199   1.056   0.146 -1.1585 -0.7210 -1.3389
 5880TIP3   OH239274   4.375   5.019   1.054 -0.2345  0.2788  0.0589
 5880TIP3    H139275   4.397   5.108   1.028 -0.1283  0.1354 -0.3414
 5880TIP3    H239276   4.405   4.964   0.982 -0.5265 -0.0576  0.1883
 5881TIP3   OH239277   0.372   1.650   3.551  1.1280 -0.5766  0.0754
 5881TIP3    H139278   0.452   1.599   3.545  1.3350 -0.4374  1.4571
 5881TIP3    H239279   0.400   1.741   3.538  1.3198 -0.4491  1.3284
 5882TIP3   OH239280   3.405   5.687   4.386 -0.7384 -0.3539  0.9577
 5882TIP3    H139281   3.467   5.688   4.458 -0.0781 -0.6981  0.4125
 5882TIP3    H239282   3.319   5.689   4.427 -0.3672  0.6629  1.7097
 5883TIP3   OH239283   6.036   1.683   2.688  0.2554 -0.0129 -0.2141
 5883TIP3    H139284   5.942   1.676   2.674  0.3855  1.2776 -2.2731
 5883TIP3    H239285   6.071   1.598   2.659 -0.2804 -0.6474  0.9534
 5884TIP3   OH239286   6.748   2.163   1.897  0.0238 -0.1354  0.0705
 5884TIP3    H139287   6.843   2.163   1.886 -0.0127 -0.2674 -0.2629
 5884TIP3    H239288   6.729   2.246   1.941  0.2041  0.3381 -0.7123
 5885TIP3   OH239289   3.455   3.371   2.697 -0.4023 -0.2918  0.0024
 5885TIP3    H139290   3.428   3.314   2.625  1.0592 -0.9154 -0.0912
 5885TIP3    H239291   3.534   3.415   2.665 -0.2207  0.0740  0.9053
 5886TIP3   OH239292   4.580   2.735   4.945  0.2608  0.2516 -0.2618
 5886TIP3    H139293   4.568   2.823   4.980 -3.3368 -0.5223  0.9217
 5886TIP3    H239294   4.514   2.728   4.876  2.1641 -0.7803 -2.0675
 5887TIP3   OH239295   1.864   3.507   4.228  1.0936  0.0414  0.3414
 5887TIP3    H139296   1.901   3.553   4.303  0.7668  0.2572  0.3697
 5887TIP3    H239297   1.912   3.424   4.225  3.0433  1.1139 -0.8190
 5888TIP3   OH239298   2.539   5.069   0.730  0.1280 -0.3008 -0.2081
 5888TIP3    H139299   2.557   5.152   0.686 -0.5115  0.9432  1.7748
 5888TIP3    H239300   2.613   5.058   0.790 -0.6595 -0.2368  0.7976
 5889TIP3   OH239301   2.378   1.923   1.966  0.0851  0.1652  0.0622
 5889TIP3    H139302   2.316   1.850   1.969  0.0874  0.1561 -0.1127
 5889TIP3    H239303   2.324   2.000   1.945  0.1003  0.1943  0.1291
 5890TIP3   OH239304   0.785   0.703   3.331 -0.3190  0.0337  0.3988
 5890TIP3    H139305   0.729   0.750   3.394 -0.5416 -0.1722  0.3561
 5890TIP3    H239306   0.751   0.614   3.332  0.1386 -0.1411  0.5190
 5891TIP3   OH239307   4.391   1.575   0.956 -0.0780  0.0342  0.0563
 5891TIP3    H139308   4.316   1.620   0.916  0.2451  0.8073  0.2997
 5891TIP3    H239309   4.389   1.487   0.918 -0.1548  0.5441 -1.1756
 5892TIP3   OH239310   5.600   3.755   5.004 -0.1073  0.4496 -0.2176
 5892TIP3    H139311   5.567   3.826   4.949  0.0323  0.1922 -0.6453
 5892TIP3    H239312   5.562   3.771   5.090 -0.5411  0.7147 -0.4556
 5893TIP3   OH239313   3.437   0.724   3.402 -0.9851  0.5527 -0.1397
 5893TIP3    H139314   3.503   0.775   3.448 -1.9710 -0.1128  2.1800
 5893TIP3    H239315   3.382   0.789   3.359  1.6444  1.0989 -3.0072
 5894TIP3   OH239316   1.820   2.738   2.050  0.1527 -0.6331  0.4910
 5894TIP3    H139317   1.822   2.718   2.144  0.5724  1.4344  0.9649
 5894TIP3    H239318   1.728   2.752   2.030  0.0406 -1.2828  0.5338
 5895TIP3   OH239319   6.341   0.253   4.430 -0.1819  0.2228  0.8752
 5895TIP3    H139320   6.368   0.181   4.487 -1.3118 -0.5699  0.4573
 5895TIP3    H239321   6.384   0.330   4.466  0.2037 -0.4888  1.9828
 5896TIP3   OH239322   0.181   6.471   3.115 -0.1460 -0.1429 -0.2589
 5896TIP3    H139323   0.123   6.509   3.181 -0.9612  0.0087 -1.0405
 5896TIP3    H239324   0.135   6.391   3.087 -1.1197  1.0925 -2.4625
 5897TIP3   OH239325   2.224   3.371   3.620  0.1058  0.5234  0.0982
 5897TIP3    H139326   2.181   3.456   3.629  0.2289  0.8249 -1.7328
 5897TIP3    H239327   2.159   3.315   3.579  1.0214  0.6778 -1.6717
 5898TIP3   OH239328   4.064   4.785   0.519 -0.1878 -0.5414 -0.3828
 5898TIP3    H139329   4.146   4.766   0.473 -0.5628 -1.6346 -0.6246
 5898TIP3    H239330   4.043   4.704   0.565 -0.9245 -0.1329  0.0113
 5899TIP3   OH239331   3.115   2.105   3.426 -0.2158  0.1480 -0.2786
 5899TIP3    H139332   3.105   2.035   3.362  0.7406  0.5555 -0.8886
 5899TIP3    H239333   3.185   2.076   3.484  1.3652  1.2746 -1.5250
 5900TIP3   OH239334   4.587   4.360   3.823  0.0292  1.1176 -0.2764
 5900TIP3    H139335   4.518   4.413   3.863 -0.2768  0.5968 -0.1124
 5900TIP3    H239336   4.545   4.318   3.748  0.2816  1.1406 -0.4313
 5901TIP3   OH239337   5.214   2.127   0.422  0.0417  0.1688  0.3504
 5901TIP3    H139338   5.253   2.181   0.354  2.0456 -0.2809  1.0655
 5901TIP3    H239339   5.173   2.054   0.375 -0.3124  0.8767 -0.4596
 5902TIP3   OH239340   1.740   3.293   1.755  0.0354 -0.0329  0.1409
 5902TIP3    H139341   1.713   3.365   1.698 -1.0374  0.0232  0.6940
 5902TIP3    H239342   1.754   3.334   1.840 -1.5206 -0.5924  0.7047
 5903TIP3   OH239343   4.104   3.060   0.705 -0.2318 -0.1619 -0.4812
 5903TIP3    H139344   4.009   3.061   0.701 -0.2480  2.2025 -0.9359
 5903TIP3    H239345   4.126   3.102   0.788  0.4138  0.0791 -0.7631
 5904TIP3   OH239346   0.228   0.647   3.655 -0.3001  0.1143 -0.6021
 5904TIP3    H139347   0.299   0.620   3.596 -0.3969 -0.7671 -0.3323
 5904TIP3    H239348   0.219   0.573   3.716 -2.2819 -0.3422 -1.3871
 5905TIP3   OH239349   1.848   4.362   1.409  0.5747 -0.4052  0.4212
 5905TIP3    H139350   1.766   4.315   1.397  0.3337  0.4228 -1.6710
 5905TIP3    H239351   1.871   4.347   1.501 -1.4315 -1.4001  0.8308
 5906TIP3   OH239352   3.419   6.527   3.875  0.1591 -0.2002  0.0397
 5906TIP3    H139353   3.365   6.464   3.922  0.5209  0.0597  0.8237
 5906TIP3    H239354   3.487   6.552   3.938  0.6430  0.1695 -0.6187
 5907TIP3   OH239355   2.788   5.308   2.942 -0.0903 -0.3123  0.0429
 5907TIP3    H139356   2.829   5.382   2.899  1.5410 -1.5885 -0.7119
 5907TIP3    H239357   2.736   5.265   2.874  1.0061 -1.2790 -0.2086
 5908TIP3   OH239358   3.070   2.459   2.569 -0.1672  0.3429  0.1175
 5908TIP3    H139359   3.122   2.528   2.611 -1.6002  1.1587  0.6306
 5908TIP3    H239360   3.113   2.378   2.595  0.8004  0.9880  0.5882
 5909TIP3   OH239361   6.404   2.136   2.809  0.8054 -0.9052 -0.3016
 5909TIP3    H139362   6.409   2.058   2.865 -0.9750  0.2385  1.5711
 5909TIP3    H239363   6.354   2.108   2.732  0.3203 -1.6635  0.2774
 5910TIP3   OH239364   2.774   6.064   1.882 -0.2247 -0.3239 -0.0172
 5910TIP3    H139365   2.820   6.001   1.827  1.4059  0.8776 -0.1234
 5910TIP3    H239366   2.769   6.022   1.968 -0.4826 -1.1725 -0.4363
 5911TIP3   OH239367   6.321   1.683   1.810  0.0304  0.2662 -0.6152
 5911TIP3    H139368   6.246   1.711   1.862  1.8025  1.3048  1.5719
 5911TIP3    H239369   6.359   1.611   1.860  1.8740  1.3793 -0.3314
 5912TIP3   OH239370   0.599   0.302   1.520  0.0081 -0.5761  0.0331
 5912TIP3    H139371   0.533   0.282   1.586 -0.3623 -1.6339 -0.6432
 5912TIP3    H239372   0.600   0.398   1.516 -0.2182 -0.5023  1.3026
 5913TIP3   OH239373   5.524   1.000   4.845  0.2856 -0.1778  0.1101
 5913TIP3    H139374   5.548   0.991   4.753 -1.6533 -2.3718 -0.2566
 5913TIP3    H239375   5.594   1.054   4.882  1.9103 -0.4610 -2.2969
 5914TIP3   OH239376   4.374   0.448   2.443  0.2497  0.0688  0.0901
 5914TIP3    H139377   4.447   0.504   2.471  0.2248  0.5083 -0.7156
 5914TIP3    H239378   4.410   0.396   2.371  0.6720 -1.9165  1.6157
 5915TIP3   OH239379   6.437   4.698   4.684 -0.2047  0.4836  0.2740
 5915TIP3    H139380   6.373   4.697   4.755  0.0122  0.8226  0.4833
 5915TIP3    H239381   6.440   4.608   4.652  2.0546 -0.5130  2.8580
 5916TIP3   OH239382   1.112   3.609   1.152  0.5345 -0.3917  0.1609
 5916TIP3    H139383   1.203   3.602   1.125 -0.1687 -2.8573 -1.9078
 5916TIP3    H239384   1.061   3.586   1.074 -1.9261  1.5344  1.0451
 5917TIP3   OH239385   4.825   2.098   1.136 -0.1620  0.0737  0.2162
 5917TIP3    H139386   4.891   2.131   1.075 -1.7362  0.5554 -1.2804
 5917TIP3    H239387   4.844   2.004   1.142  1.5496  0.4318  0.9906
 5918TIP3   OH239388   5.580   6.093   2.349  0.5054 -0.0525 -0.0281
 5918TIP3    H139389   5.658   6.130   2.390 -0.2647 -0.7004  2.1869
 5918TIP3    H239390   5.528   6.170   2.323  1.1989  0.3828 -0.1620
 5919TIP3   OH239391   2.217   3.750   2.070  0.7721 -0.1064  0.0630
 5919TIP3    H139392   2.253   3.668   2.037 -0.8235 -0.3199 -1.2491
 5919TIP3    H239393   2.231   3.812   1.998 -0.0981  0.1758  0.1265
 5920TIP3   OH239394   0.689   0.673   3.811 -0.2474 -0.1820  0.4036
 5920TIP3    H139395   0.624   0.738   3.838 -0.5053 -0.0393 -0.5436
 5920TIP3    H239396   0.671   0.658   3.718 -0.8742 -2.3757  0.8200
 5921TIP3   OH239397   2.591   1.335   1.429  0.1956  0.1954 -0.0101
 5921TIP3    H139398   2.623   1.377   1.349 -0.9058  1.2452  0.0816
 5921TIP3    H239399   2.668   1.330   1.485  0.9475 -0.3866 -1.0393
 5922TIP3   OH239400   1.424   4.580   2.615 -0.0664  0.0968  0.5415
 5922TIP3    H139401   1.475   4.655   2.648  0.1472  0.7312 -1.1546
 5922TIP3    H239402   1.335   4.616   2.604  0.1152  0.2241 -0.6093
 5923TIP3   OH239403   1.129   1.411   1.848 -1.3029 -0.5189 -0.7317
 5923TIP3    H139404   1.103   1.331   1.803 -2.2055 -0.8530  0.3204
 5923TIP3    H239405   1.218   1.394   1.879 -0.4178 -0.0386 -2.8683
 5924TIP3   OH239406   5.688   4.899   2.948 -0.4905 -0.3591  0.2790
 5924TIP3    H139407   5.754   4.870   3.011  1.1656  2.2953 -0.1081
 5924TIP3    H239408   5.624   4.947   3.001  1.4312  2.7725  0.0308
 5925TIP3   OH239409   4.402   6.824   1.179 -0.0397  0.1990 -0.3915
 5925TIP3    H139410   4.343   6.767   1.131 -2.5536  1.8963  0.4534
 5925TIP3    H239411   4.358   6.909   1.181  2.3789  1.5550  0.4759
 5926TIP3   OH239412   4.323   1.688   2.749  0.3874 -0.2184  0.9513
 5926TIP3    H139413   4.253   1.696   2.684 -0.1516  1.0986  1.6588
 5926TIP3    H239414   4.285   1.631   2.817  0.1062  0.2321  1.1787
 5927TIP3   OH239415   3.104   2.372   3.670  0.3665  0.0071 -0.4769
 5927TIP3    H139416   3.118   2.433   3.598  0.8878 -0.9614 -1.2197
 5927TIP3    H239417   3.189   2.366   3.714 -0.0698  0.9523  0.5180
 5928TIP3   OH239418   1.361   3.843   4.358  0.5770 -0.1022  0.4604
 5928TIP3    H139419   1.284   3.899   4.369  1.2930  0.6883  1.7345
 5928TIP3    H239420   1.434   3.898   4.384  1.6308 -0.7331 -1.0647
 5929TIP3   OH239421   2.862   4.350   4.188 -0.2055  0.3945  0.1473
 5929TIP3    H139422   2.899   4.282   4.243  0.0452 -0.3766 -0.9455
 5929TIP3    H239423   2.830   4.416   4.250  0.8185 -0.0415  1.1781
 5930TIP3   OH239424   2.208   4.437   3.222 -0.1280  0.2351  0.0776
 5930TIP3    H139425   2.173   4.409   3.307 -1.2190 -0.2242 -0.5076
 5930TIP3    H239426   2.135   4.424   3.161  1.0422 -0.6425 -1.1656
 5931TIP3   OH239427   0.681   0.069   1.387 -0.7558  0.4190 -0.7100
 5931TIP3    H139428   0.623   0.136   1.424  0.3489  0.4420  1.1113
 5931TIP3    H239429   0.622   0.004   1.350 -2.0512 -0.2370  2.2746
 5932TIP3   OH239430   1.632   3.137   1.107 -0.6848 -0.1572 -0.7386
 5932TIP3    H139431   1.714   3.144   1.155 -0.6734 -0.1414 -0.7604
 5932TIP3    H239432   1.636   3.207   1.042 -0.1346 -0.9772 -1.6129
 5933TIP3   OH239433   5.640   5.094   3.435 -0.2156 -0.0641  0.5144
 5933TIP3    H139434   5.624   5.088   3.341  0.6775 -0.6639  0.3934
 5933TIP3    H239435   5.563   5.051   3.474 -0.5203  0.0542  0.0571
 5934TIP3   OH239436   2.761   3.818   3.942 -0.1856 -0.1427 -0.0695
 5934TIP3    H139437   2.844   3.795   3.900  0.8290  1.6712  0.8063
 5934TIP3    H239438   2.768   3.785   4.031 -0.2135  0.3880  0.1344
 5935TIP3   OH239439   6.389   4.148   0.915 -0.3184  0.7331  0.1936
 5935TIP3    H139440   6.346   4.088   0.854  0.9219  1.3385 -1.3358
 5935TIP3    H239441   6.457   4.095   0.956 -0.3080  0.6614  0.0843
 5936TIP3   OH239442   2.035   6.720   1.859 -0.0835  0.1499  0.3472
 5936TIP3    H139443   2.015   6.810   1.834 -0.0944  0.1785  0.4559
 5936TIP3    H239444   1.988   6.667   1.796 -0.4034  0.2187  0.5249
 5937TIP3   OH239445   5.261   1.563   3.807 -0.4280 -0.0418 -0.3765
 5937TIP3    H139446   5.189   1.533   3.752 -0.8011 -0.6007  0.3990
 5937TIP3    H239447   5.337   1.516   3.774 -0.5570 -0.0077 -0.7251
 5938TIP3   OH239448   1.048   3.831   0.714  0.3208  0.0849  0.4636
 5938TIP3    H139449   1.101   3.756   0.741 -1.3599 -1.0144  0.8098
 5938TIP3    H239450   0.971   3.793   0.673 -1.3294  1.5507  2.0234
 5939TIP3   OH239451   2.882   4.003   4.145  0.2280  0.4412 -0.6572
 5939TIP3    H139452   2.918   4.049   4.220  0.9149 -3.0431  1.3835
 5939TIP3    H239453   2.957   3.984   4.090  0.2948 -0.0099 -0.4169
 5940TIP3   OH239454   1.936   3.793   4.217  0.3124 -0.2540 -0.8085
 5940TIP3    H139455   1.926   3.764   4.308 -1.2264  2.0234 -0.1457
 5940TIP3    H239456   2.022   3.761   4.191  1.3301  0.0063  1.8879
 5941TIP3   OH239457   1.805   3.405   2.011 -0.1164  0.3423 -0.5200
 5941TIP3    H139458   1.737   3.442   2.067 -0.2233  1.0122 -1.0807
 5941TIP3    H239459   1.887   3.438   2.046 -0.1444  0.3102 -0.4250
 5942TIP3   OH239460   2.524   3.935   1.207 -0.4012 -0.2715  0.1398
 5942TIP3    H139461   2.491   4.020   1.178 -1.0939 -0.4424  0.3944
 5942TIP3    H239462   2.455   3.873   1.183 -1.8283 -0.2286  3.4512
 5943TIP3   OH239463   5.105   1.005   4.029  0.6252 -0.4060 -0.0240
 5943TIP3    H139464   5.051   1.083   4.047  1.5540 -0.1112  1.6912
 5943TIP3    H239465   5.150   1.026   3.947 -0.4839  0.0791 -0.5431
 5944TIP3   OH239466   4.733   3.535   2.418  0.1847 -0.1234 -0.0118
 5944TIP3    H139467   4.740   3.619   2.371  2.0917 -0.6890 -0.8210
 5944TIP3    H239468   4.639   3.524   2.432 -0.2176  1.4914 -1.0889
 5945TIP3   OH239469   6.326   4.730   1.352 -0.2872  0.2884  0.5916
 5945TIP3    H139470   6.398   4.784   1.386 -0.0142 -1.6506  3.4085
 5945TIP3    H239471   6.254   4.744   1.414 -0.4855 -1.8416  0.9088
 5946TIP3   OH239472   2.062   2.895   4.549  0.0773  0.6031 -0.3189
 5946TIP3    H139473   2.046   2.958   4.619  0.1068 -0.6489  0.8717
 5946TIP3    H239474   1.999   2.918   4.480 -0.4292  1.4422  0.4088
 5947TIP3   OH239475   6.529   2.589   3.142  0.2070 -0.1365  0.0464
 5947TIP3    H139476   6.506   2.512   3.091 -0.0047  0.2167 -0.3971
 5947TIP3    H239477   6.447   2.635   3.156  0.3936  0.2404 -0.0739
 5948TIP3   OH239478   3.105   0.247   2.459  0.2905 -0.1710  0.3646
 5948TIP3    H139479   3.189   0.257   2.503 -0.1558  1.0082  0.9965
 5948TIP3    H239480   3.043   0.231   2.530 -0.2147  0.2533  0.0228
 5949TIP3   OH239481   0.128   4.576   3.761  0.0398 -0.1341  0.2303
 5949TIP3    H139482   0.133   4.658   3.710  0.3859  0.5454  1.3254
 5949TIP3    H239483   0.066   4.522   3.712  0.9439  0.1776 -1.3451
 5950TIP3   OH239484   3.400   2.834   3.575  0.2022  0.5837  0.1173
 5950TIP3    H139485   3.355   2.766   3.624 -0.8933  0.9546 -0.3275
 5950TIP3    H239486   3.493   2.814   3.584 -0.1059 -1.3934 -0.6008
 5951TIP3   OH239487   3.256   5.376   0.824  0.0358  0.3227 -0.3260
 5951TIP3    H139488   3.328   5.380   0.887 -0.6501 -0.5088  0.5380
 5951TIP3    H239489   3.298   5.353   0.741  0.7381 -0.4135  0.2192
 5952TIP3   OH239490   5.460   4.145   1.265 -0.5017 -0.0715 -0.9279
 5952TIP3    H139491   5.398   4.087   1.310  0.2398  0.7242  1.2086
 5952TIP3    H239492   5.405   4.195   1.204 -1.4337 -1.6126 -1.4095
 5953TIP3   OH239493   6.695   3.956   2.934 -0.1892  0.3786 -0.4056
 5953TIP3    H139494   6.761   3.907   2.884 -0.3722  0.9156 -1.2042
 5953TIP3    H239495   6.712   4.047   2.913 -0.9218  0.5516 -0.2980
 5954TIP3   OH239496   4.985   0.466   0.916  0.0446 -0.1976  0.2270
 5954TIP3    H139497   4.962   0.428   1.001 -0.3842  0.0272  0.2183
 5954TIP3    H239498   4.900   0.492   0.879  0.1876 -0.6697 -0.4502
 5955TIP3   OH239499   1.021   6.432   1.443 -0.6431  0.2607  0.5964
 5955TIP3    H139500   1.106   6.434   1.486  0.2436  0.2536 -1.0480
 5955TIP3    H239501   0.995   6.524   1.434 -0.0668  0.3511 -0.2427
 5956TIP3   OH239502   4.272   1.407   3.746 -0.0391 -0.5414 -0.0041
 5956TIP3    H139503   4.195   1.412   3.689 -0.9514 -1.6265  1.0981
 5956TIP3    H239504   4.346   1.403   3.685 -0.7960  0.8943 -1.0759
 5957TIP3   OH239505   4.358   5.129   3.154  0.3131 -0.6063 -0.3161
 5957TIP3    H139506   4.332   5.048   3.110 -0.7501 -0.1297 -0.5744
 5957TIP3    H239507   4.277   5.168   3.185  1.0302 -1.2685  2.7606
 5958TIP3   OH239508   4.163   3.164   1.029 -0.0682 -0.3077  0.0230
 5958TIP3    H139509   4.238   3.209   0.990  0.3471  0.4449  1.6343
 5958TIP3    H239510   4.089   3.221   1.011  0.2762  0.5058  1.0931
 5959TIP3   OH239511   5.399   4.205   1.978 -0.0339  0.8752  0.1407
 5959TIP3    H139512   5.428   4.237   1.893  0.3747  0.3317  0.0756
 5959TIP3    H239513   5.470   4.149   2.009 -1.1514 -0.8196 -0.2016
 5960TIP3   OH239514   2.196   5.716   2.006 -0.1448 -0.5882  0.0310
 5960TIP3    H139515   2.292   5.720   2.001 -0.1704 -1.0509 -0.9457
 5960TIP3    H239516   2.168   5.700   1.916 -1.0631 -2.2471  0.5756
 5961TIP3   OH239517   5.129   0.332   2.970 -1.0898 -0.2438  0.0797
 5961TIP3    H139518   5.135   0.262   3.035 -4.2018 -0.8100 -0.1167
 5961TIP3    H239519   5.205   0.319   2.914  0.6551 -0.8852  2.4359
 5962TIP3   OH239520   2.073   4.010   3.640 -0.3162 -0.1213  0.2876
 5962TIP3    H139521   2.022   3.959   3.702 -1.5153 -1.2442 -1.5268
 5962TIP3    H239522   2.087   4.094   3.684  1.8342 -1.9177  3.4406
 5963TIP3   OH239523   3.210   3.264   4.357  0.2557 -0.2048 -0.6671
 5963TIP3    H139524   3.249   3.345   4.323  2.3537 -0.7356  0.2976
 5963TIP3    H239525   3.163   3.227   4.282 -2.3856  2.7401 -0.6880
 5964TIP3   OH239526   2.598   4.929   1.684 -0.0439 -0.3395  0.5251
 5964TIP3    H139527   2.506   4.906   1.696 -0.5417 -1.0995 -3.2882
 5964TIP3    H239528   2.643   4.845   1.681  0.7341  0.0081  1.8723
 5965TIP3   OH239529   5.651   4.318   2.181  0.3384  0.3874  0.3954
 5965TIP3    H139530   5.704   4.342   2.258 -2.2723  1.0813  2.1249
 5965TIP3    H239531   5.571   4.282   2.218 -1.5116  1.7829 -1.9589
 5966TIP3   OH239532   1.575   5.168   2.811  0.2276  0.0110 -0.6111
 5966TIP3    H139533   1.667   5.167   2.784  0.8978 -0.4012  1.5285
 5966TIP3    H239534   1.565   5.248   2.861  0.0881 -1.0751  1.1818
 5967TIP3   OH239535   1.963   0.613   1.462 -0.5339  0.4479 -0.6675
 5967TIP3    H139536   1.943   0.540   1.403  0.6333 -1.0152  0.6314
 5967TIP3    H239537   1.890   0.614   1.524  0.6179 -1.3527  0.8301
 5968TIP3   OH239538   5.296   2.178   2.665 -0.4835 -0.4737  0.7961
 5968TIP3    H139539   5.334   2.254   2.709 -0.5093  0.1850 -0.2676
 5968TIP3    H239540   5.368   2.115   2.661 -0.2018 -0.1641  0.9201
 5969TIP3   OH239541   2.575   0.730   3.964 -0.0303 -0.0789  0.3329
 5969TIP3    H139542   2.530   0.764   4.041 -0.3173  0.6485 -0.1462
 5969TIP3    H239543   2.651   0.685   3.999 -0.5137 -0.3282  1.0824
 5970TIP3   OH239544   1.586   3.977   4.404  0.7014  0.4635  0.2444
 5970TIP3    H139545   1.540   4.053   4.441  1.0975 -1.0597  4.5131
 5970TIP3    H239546   1.662   4.015   4.359 -0.3211  2.6547  0.2042
 5971TIP3   OH239547   0.028   2.938   1.777 -0.3081 -0.3807 -0.1242
 5971TIP3    H139548   0.051   2.860   1.827  0.2031 -0.5843 -0.6548
 5971TIP3    H239549   0.091   3.005   1.806  0.6690 -0.7877 -1.1952
 5972TIP3   OH239550   2.958   3.730   1.458 -0.1348 -0.1006  0.2225
 5972TIP3    H139551   2.876   3.769   1.426 -0.2601  0.1578  0.8480
 5972TIP3    H239552   2.984   3.785   1.531 -0.2631 -1.1262  1.0661
 5973TIP3   OH239553   3.819   0.409   3.110  0.1264 -0.2312 -0.3964
 5973TIP3    H139554   3.737   0.459   3.103 -0.7816 -1.9148 -3.1683
 5973TIP3    H239555   3.809   0.359   3.191 -0.5291  1.3029  0.5122
 5974TIP3   OH239556   3.273   1.559   4.468 -0.0499  0.7904  0.0459
 5974TIP3    H139557   3.331   1.629   4.499  0.6702  0.8469 -1.3459
 5974TIP3    H239558   3.292   1.552   4.374 -0.2312 -1.1628  0.1187
 5975TIP3   OH239559   6.277   0.361   2.968 -0.4796  0.2009 -0.2935
 5975TIP3    H139560   6.201   0.418   2.978 -0.4659  0.1500  0.1408
 5975TIP3    H239561   6.340   0.393   3.033 -1.2066 -1.4698  1.3363
 5976TIP3   OH239562   2.258   0.262   0.732 -0.1991  0.1075 -0.4690
 5976TIP3    H139563   2.232   0.268   0.823  0.3383  1.0109 -0.3701
 5976TIP3    H239564   2.298   0.175   0.724 -3.7544 -1.6623 -0.7984
 5977TIP3   OH239565   6.351   2.231   3.372  0.1689 -0.6484  0.2717
 5977TIP3    H139566   6.334   2.242   3.279  0.0393  2.0940  0.5489
 5977TIP3    H239567   6.447   2.235   3.379  0.1415 -0.0398  0.3288
 5978TIP3   OH239568   4.269   1.784   3.806 -0.2663  0.0226 -0.6425
 5978TIP3    H139569   4.274   1.792   3.710  1.4450 -1.2777 -0.7108
 5978TIP3    H239570   4.213   1.708   3.820 -0.3081  0.0583 -0.6167
 5979TIP3   OH239571   3.897   5.055   1.834  0.6345  0.3150  0.2855
 5979TIP3    H139572   3.814   5.101   1.838  0.1622 -0.4576 -0.2452
 5979TIP3    H239573   3.930   5.056   1.924 -0.7053 -0.7093  0.8162
 5980TIP3   OH239574   3.399   4.231   2.014  0.8052 -0.1167 -0.3788
 5980TIP3    H139575   3.436   4.269   1.934  0.9701 -1.8157 -1.1556
 5980TIP3    H239576   3.460   4.257   2.083  0.2997  1.9626 -0.6359
 5981TIP3   OH239577   4.801   2.751   1.053  0.6035  0.2825 -0.6907
 5981TIP3    H139578   4.894   2.730   1.043  0.6208  0.5389 -1.0580
 5981TIP3    H239579   4.777   2.794   0.972  0.2104  0.4031 -0.5123
 5982TIP3   OH239580   1.973   3.002   2.099  0.4393 -0.3700  0.4161
 5982TIP3    H139581   2.015   3.010   2.014 -0.0842  0.6792  0.2332
 5982TIP3    H239582   1.926   2.918   2.095  1.2486 -0.8112  0.0641
 5983TIP3   OH239583   6.268   1.333   4.276 -0.2586  0.0960  0.0912
 5983TIP3    H139584   6.298   1.358   4.363 -0.5628  1.5494 -0.1996
 5983TIP3    H239585   6.286   1.409   4.221  0.7422 -1.1100 -1.3432
 5984TIP3   OH239586   1.762   0.669   1.084 -0.4233 -0.7506 -0.0942
 5984TIP3    H139587   1.780   0.745   1.028  0.3449  0.6760  1.9659
 5984TIP3    H239588   1.674   0.685   1.118 -0.5773 -1.2153 -0.2633
 5985TIP3   OH239589   0.770   6.424   1.952 -0.3280 -0.0060 -0.2226
 5985TIP3    H139590   0.813   6.378   1.880 -0.0407  0.2118 -0.1937
 5985TIP3    H239591   0.838   6.481   1.988 -0.1632 -0.8506  0.8614
 5986TIP3   OH239592   3.091   1.125   1.214  0.4787  1.0779 -0.0014
 5986TIP3    H139593   3.000   1.105   1.192  0.9909 -1.1810 -0.3388
 5986TIP3    H239594   3.137   1.124   1.130  0.9169  1.7683  0.2160
 5987TIP3   OH239595   0.651   6.513   3.157 -0.5124 -0.1832  0.3502
 5987TIP3    H139596   0.699   6.552   3.084  1.2238  0.5027  1.7732
 5987TIP3    H239597   0.708   6.527   3.233 -1.0758 -3.0404  1.4313
 5988TIP3   OH239598   0.492   5.528   4.112 -0.4084  0.6888 -0.5011
 5988TIP3    H139599   0.585   5.547   4.121 -1.0755  3.8088  1.5444
 5988TIP3    H239600   0.477   5.452   4.168  0.8315  0.4455 -0.4763
 5989TIP3   OH239601   2.866   2.569   3.263  0.5590  0.2052 -0.1992
 5989TIP3    H139602   2.789   2.511   3.262 -0.0002  0.8985  0.4936
 5989TIP3    H239603   2.911   2.551   3.181 -0.3022 -0.2876 -0.5829
 5990TIP3   OH239604   0.853   4.901   1.040  0.1469 -0.4570 -0.0190
 5990TIP3    H139605   0.779   4.958   1.063  1.7514  1.4044  0.8696
 5990TIP3    H239606   0.841   4.884   0.946 -0.7474  0.8417 -0.1805
 5991TIP3   OH239607   4.304   0.861   2.442  0.8534 -0.0514 -0.0359
 5991TIP3    H139608   4.230   0.816   2.483  1.7860 -0.9023  0.7729
 5991TIP3    H239609   4.263   0.924   2.382 -0.5113 -0.8562 -0.0090
 5992TIP3   OH239610   1.411   1.425   4.253 -0.0507  0.4529 -0.3539
 5992TIP3    H139611   1.474   1.433   4.324 -1.1834 -2.3906  1.1592
 5992TIP3    H239612   1.461   1.391   4.179  0.5041 -0.2574  0.3320
 5993TIP3   OH239613   1.583   0.103   1.527  0.0573 -0.0776 -0.2034
 5993TIP3    H139614   1.550   0.026   1.574 -0.4403  1.0522  1.3717
 5993TIP3    H239615   1.507   0.161   1.519  1.1613  1.8127  1.9066
 5994TIP3   OH239616   5.646   6.434   4.768  0.1035 -0.1061  0.0811
 5994TIP3    H139617   5.663   6.378   4.844  1.5986 -0.3563 -0.3868
 5994TIP3    H239618   5.729   6.433   4.720 -0.2973  1.3846 -0.6858
 5995TIP3   OH239619   0.328   0.649   4.024  0.4400  0.2609  0.5167
 5995TIP3    H139620   0.237   0.630   4.048  0.0316 -0.1906 -1.2317
 5995TIP3    H239621   0.321   0.715   3.955  1.3671 -0.5579 -0.3860
 5996TIP3   OH239622   5.990   5.573   0.228 -0.0645  0.8882 -0.0873
 5996TIP3    H139623   5.930   5.645   0.250 -0.2516  2.5676 -4.9394
 5996TIP3    H239624   5.932   5.500   0.205 -0.1511  1.2795 -1.1502
 5997TIP3   OH239625   0.124   0.132   1.160 -0.1189 -0.3513  0.8685
 5997TIP3    H139626   0.164   0.180   1.232  1.1134 -1.2664  0.8186
 5997TIP3    H239627   0.060   0.075   1.202 -0.8161  0.5248  1.0279
 5998TIP3   OH239628   4.942   6.027   5.197  0.5822  0.4861  0.2041
 5998TIP3    H139629   4.943   5.992   5.108 -4.1655  1.1845 -0.3979
 5998TIP3    H239630   5.008   5.976   5.244  1.7591 -1.3969 -3.1983
 5999TIP3   OH239631   4.037   1.181   0.678 -0.1547 -0.5142 -0.7066
 5999TIP3    H139632   3.982   1.127   0.734  0.9753 -0.1478  0.8070
 5999TIP3    H239633   3.979   1.249   0.645 -0.1457  1.7222  3.2615
 6000TIP3   OH239634   4.359   3.791   0.617  0.0164 -0.3671 -0.4336
 6000TIP3    H139635   4.379   3.882   0.638 -1.0606 -0.2697  0.2436
 6000TIP3    H239636   4.436   3.760   0.569 -0.0766  1.2380 -1.7167
 6001TIP3   OH239637   2.072   0.402   2.365  0.1109 -0.7166 -0.6215
 6001TIP3    H139638   2.128   0.418   2.440 -0.5252 -2.3311  0.2594
 6001TIP3    H239639   1.996   0.459   2.378  0.7969  0.3105 -0.9994
 6002TIP3   OH239640   3.767   4.212   0.062 -0.0569  0.1736 -0.0489
 6002TIP3    H139641   3.699   4.276   0.042  0.1538  0.0013 -1.3853
 6002TIP3    H239642   3.719   4.130   0.073 -0.0401 -0.0404 -1.4547
 6003TIP3   OH239643   0.412   3.206   2.215 -0.5678 -0.0777  0.0133
 6003TIP3    H139644   0.380   3.130   2.263 -0.1830  0.8578  1.8568
 6003TIP3    H239645   0.348   3.275   2.234 -0.8717  0.0947 -1.5582
 6004TIP3   OH239646   1.283   6.241   0.782  0.0623 -0.1196  0.0265
 6004TIP3    H139647   1.233   6.264   0.704 -0.3178  2.0377  0.8143
 6004TIP3    H239648   1.243   6.293   0.852  0.6246 -1.6976  1.5948
 6005TIP3   OH239649   3.763   4.815   3.007  0.2744  0.0624 -0.2956
 6005TIP3    H139650   3.700   4.754   3.044  0.5899  0.1985  0.4844
 6005TIP3    H239651   3.733   4.830   2.918 -0.5122 -0.2496 -0.0861
 6006TIP3   OH239652   6.030   2.797   3.131 -0.0047  0.2861  0.5726
 6006TIP3    H139653   6.050   2.769   3.220  0.2680 -0.7503  0.1987
 6006TIP3    H239654   6.060   2.725   3.076  0.3322  1.1460 -0.4020
 6007TIP3   OH239655   6.499   5.769   2.481  0.1710  0.1054  0.2192
 6007TIP3    H139656   6.453   5.722   2.550  0.1823 -2.5289 -1.4141
 6007TIP3    H239657   6.591   5.757   2.501  0.1715  0.9977  0.7647
 6008TIP3   OH239658   4.799   0.695   4.226  0.4551 -0.0038  0.3528
 6008TIP3    H139659   4.830   0.692   4.135  0.3215  0.1149  0.3035
 6008TIP3    H239660   4.814   0.785   4.253 -1.1249  0.4433 -0.1227
 6009TIP3   OH239661   1.503   6.330   0.912 -0.0713 -0.1647  0.3486
 6009TIP3    H139662   1.475   6.415   0.946  1.0565  0.2651  0.2347
 6009TIP3    H239663   1.430   6.302   0.857 -0.5270  0.6476  0.5132
 6010TIP3   OH239664   5.721   1.666   1.183  0.1343  0.0140  0.2771
 6010TIP3    H139665   5.701   1.708   1.267  1.7012  0.9899  0.2009
 6010TIP3    H239666   5.817   1.665   1.179  0.1014 -1.2849 -0.8950
 6011TIP3   OH239667   1.397   0.776   1.445  0.3479  0.8113  0.7323
 6011TIP3    H139668   1.463   0.842   1.423  0.8085  0.1056 -0.0779
 6011TIP3    H239669   1.318   0.808   1.403  0.6057  0.7748  0.2101
 6012TIP3   OH239670   1.549   0.238   4.351  0.1608 -0.3189 -0.1751
 6012TIP3    H139671   1.479   0.189   4.395  1.2176 -1.5726  0.1946
 6012TIP3    H239672   1.589   0.291   4.421 -2.3240  2.8627 -0.9614
 6013TIP3   OH239673   0.224   5.268   2.137 -0.1629  0.0875 -0.4861
 6013TIP3    H139674   0.147   5.237   2.089 -1.6158  0.6328  1.3375
 6013TIP3    H239675   0.190   5.337   2.194  1.8674  0.9369 -0.2270
 6014TIP3   OH239676   1.021   0.579   2.214 -0.2861 -0.0756 -0.2413
 6014TIP3    H139677   1.028   0.664   2.257  0.7532 -0.3177  0.0996
 6014TIP3    H239678   1.082   0.523   2.262 -1.6941 -1.3019  0.1920
 6015TIP3   OH239679   5.208   0.128   3.173 -0.0277 -0.9729 -0.0758
 6015TIP3    H139680   5.296   0.123   3.135  0.2631 -2.2571  0.6814
 6015TIP3    H239681   5.213   0.072   3.251 -1.5464 -1.1434 -0.0734
 6016TIP3   OH239682   6.332   3.373   4.558 -0.1610 -0.0629 -0.3419
 6016TIP3    H139683   6.259   3.310   4.564  1.6533 -2.1535  2.1915
 6016TIP3    H239684   6.314   3.438   4.626 -1.0400  1.1166 -1.6510
 6017TIP3   OH239685   0.625   3.998   3.640 -0.0210  0.0516  0.5423
 6017TIP3    H139686   0.585   3.912   3.627  0.6123 -0.4841  1.9161
 6017TIP3    H239687   0.688   3.984   3.711  1.0636  1.3531 -0.1293
 6018TIP3   OH239688   1.140   4.641   1.547 -0.5794 -0.8254  0.1273
 6018TIP3    H139689   1.215   4.668   1.494 -0.4414 -0.1618  0.6436
 6018TIP3    H239690   1.175   4.635   1.636 -1.5699  1.7016  0.7959
 6019TIP3   OH239691   5.393   4.174   2.677  0.0868  0.6793 -0.3867
 6019TIP3    H139692   5.351   4.100   2.634 -0.9424  0.4070  1.0180
 6019TIP3    H239693   5.453   4.135   2.740 -0.0883  1.0349  0.0103
 6020TIP3   OH239694   5.622   4.559   4.176  1.0986  0.0685 -0.2355
 6020TIP3    H139695   5.590   4.648   4.192  1.7147  0.2146  0.2071
 6020TIP3    H239696   5.703   4.553   4.227  0.9404 -0.8221 -0.0759
 6021TIP3   OH239697   4.532   3.086   3.530  0.0382  0.5469 -0.8804
 6021TIP3    H139698   4.502   3.085   3.621 -0.1824 -0.2665 -0.9555
 6021TIP3    H239699   4.478   3.153   3.487 -1.5839 -0.7713 -0.9724
 6022TIP3   OH239700   5.669   0.554   4.229 -0.5038 -0.3121 -0.2366
 6022TIP3    H139701   5.640   0.568   4.320 -0.0722 -0.1309 -0.1239
 6022TIP3    H239702   5.708   0.638   4.204  0.5197 -0.7541 -0.1604
 6023TIP3   OH239703   1.011   4.153   3.959 -0.5583  0.4316  0.3248
 6023TIP3    H139704   0.992   4.223   4.022 -2.7204  0.0937  0.1208
 6023TIP3    H239705   1.072   4.193   3.897 -0.0727  1.4384  1.4006
 6024TIP3   OH239706   1.252   0.152   3.496 -0.4940  0.2525  0.3103
 6024TIP3    H139707   1.204   0.173   3.576  1.5063 -0.9771  1.9479
 6024TIP3    H239708   1.190   0.103   3.442 -1.7218  0.6244  1.3428
 6025TIP3   OH239709   5.332   5.955   1.425  0.0668  0.1958  0.4408
 6025TIP3    H139710   5.246   5.938   1.463 -0.5006  0.7840 -0.5275
 6025TIP3    H239711   5.328   5.916   1.338  0.5001  0.9095  0.0889
 6026TIP3   OH239712   2.387   2.649   3.071  0.3453  0.5182 -0.0282
 6026TIP3    H139713   2.432   2.710   3.013 -0.8134  1.0105 -0.4383
 6026TIP3    H239714   2.379   2.569   3.019  0.5765  0.4956 -0.0282
 6027TIP3   OH239715   4.759   5.250   4.313 -0.7229 -0.3366 -0.1803
 6027TIP3    H139716   4.688   5.313   4.325  1.4015  2.2597 -0.2966
 6027TIP3    H239717   4.763   5.202   4.396 -1.3683  0.8210  0.5403
 6028TIP3   OH239718   0.817   3.261   2.418  0.4114 -0.0639  0.0923
 6028TIP3    H139719   0.725   3.263   2.445  0.7712 -0.5374  1.4764
 6028TIP3    H239720   0.834   3.169   2.398  0.6360 -0.0158  0.0614
 6029TIP3   OH239721   4.946   1.147   3.254 -0.2396  0.0911 -0.2134
 6029TIP3    H139722   4.901   1.106   3.180  0.2020  0.5173 -0.7285
 6029TIP3    H239723   5.030   1.101   3.258 -0.1906  0.1914 -0.0973
 6030TIP3   OH239724   2.960   4.227   2.569  0.1316 -0.7063 -0.4525
 6030TIP3    H139725   2.962   4.273   2.654  1.5765 -1.8482  0.1814
 6030TIP3    H239726   2.963   4.297   2.504  1.3730  0.1671  0.4804
 6031TIP3   OH239727   6.612   6.338   3.519 -0.0404  0.2567 -0.1876
 6031TIP3    H139728   6.618   6.281   3.443  4.3692  2.4546 -1.8212
 6031TIP3    H239729   6.638   6.283   3.593  0.3561 -0.7743 -1.0824
 6032TIP3   OH239730   5.834   2.395   5.166 -0.3974  0.7295 -0.3918
 6032TIP3    H139731   5.836   2.432   5.077 -3.3066  0.3517 -0.7092
 6032TIP3    H239732   5.861   2.304   5.155  1.1816  1.1891 -0.5316
 6033TIP3   OH239733   1.972   1.375   3.915 -0.0854  0.1424  0.1785
 6033TIP3    H139734   1.926   1.445   3.868 -0.6697  0.0989  0.6763
 6033TIP3    H239735   1.909   1.302   3.916  0.1454 -0.0516  0.5288
 6034TIP3   OH239736   3.935   0.342   1.632  0.1188  0.3393 -0.3184
 6034TIP3    H139737   3.883   0.408   1.677 -0.9081 -1.1032  0.7368
 6034TIP3    H239738   3.873   0.271   1.616  1.4133 -0.8146 -0.4077
 6035TIP3   OH239739   4.777   0.644   3.701 -0.1482  0.2769 -0.0298
 6035TIP3    H139740   4.681   0.648   3.702 -0.1094  2.1401  0.4667
 6035TIP3    H239741   4.803   0.723   3.653  1.1345 -1.3520 -2.1601
 6036TIP3   OH239742   6.491   5.870   3.839  0.1724 -0.3072 -0.1117
 6036TIP3    H139743   6.415   5.920   3.807 -0.3311  0.4506  2.1018
 6036TIP3    H239744   6.454   5.809   3.904  1.5445  0.8626  1.8661
 6037TIP3   OH239745   4.530   2.232   3.561  0.6313  0.3449  0.0962
 6037TIP3    H139746   4.447   2.273   3.584  0.0583 -0.2130 -0.9094
 6037TIP3    H239747   4.540   2.160   3.622 -0.3756 -0.5041 -0.7018
 6038TIP3   OH239748   3.026   1.964   3.699  0.4026  0.8386  0.2144
 6038TIP3    H139749   3.065   2.016   3.629 -0.3104  0.9382 -0.1258
 6038TIP3    H239750   2.934   1.956   3.673 -0.2322  2.1372  1.8723
 6039TIP3   OH239751   0.519   1.244   2.302  0.0582 -0.2418  0.4553
 6039TIP3    H139752   0.514   1.277   2.392 -1.4747 -0.9490  0.6664
 6039TIP3    H239753   0.525   1.149   2.312 -1.3599 -0.4124 -0.1905
 6040TIP3   OH239754   5.123   0.375   8.670  0.0791 -0.0647  0.4055
 6040TIP3    H139755   5.066   0.317   8.620  2.5298  0.7838 -3.8423
 6040TIP3    H239756   5.185   0.316   8.714 -0.2040 -0.8053 -0.1686
 6041TIP3   OH239757   2.106   4.953   0.347 -0.5652  0.1767 -0.0490
 6041TIP3    H139758   2.146   4.867   0.360  2.1362  1.1600 -1.1080
 6041TIP3    H239759   2.056   4.969   0.427  1.6496 -0.9616  1.6623
 6042TIP3   OH239760   6.601   4.500   2.762 -0.1344 -0.9832  0.0967
 6042TIP3    H139761   6.649   4.433   2.712  0.2833  0.1465 -1.0829
 6042TIP3    H239762   6.625   4.485   2.853  0.5799 -1.9334 -0.2353
 6043TIP3   OH239763   1.793   5.665   3.782  0.6563 -0.1516 -0.1111
 6043TIP3    H139764   1.829   5.752   3.799 -1.0786  0.2745  1.7406
 6043TIP3    H239765   1.698   5.678   3.782  0.3725 -2.0012 -0.0768
 6044TIP3   OH239766   1.671   4.400   2.244 -0.0736  0.1562  0.1792
 6044TIP3    H139767   1.626   4.354   2.174 -1.2093 -0.5100  1.2906
 6044TIP3    H239768   1.748   4.346   2.264 -0.5556 -0.4537  0.4257
 6045TIP3   OH239769   6.333   4.226   2.515  0.1260 -0.2565  0.0459
 6045TIP3    H139770   6.300   4.316   2.528 -0.4926  0.0122 -2.8545
 6045TIP3    H239771   6.399   4.234   2.447  0.4337 -1.9719  0.0968
 6046TIP3   OH239772   2.118   3.806   3.115  0.5354 -0.9799  0.1401
 6046TIP3    H139773   2.074   3.772   3.192 -0.7968 -1.2612 -0.7038
 6046TIP3    H239774   2.074   3.763   3.041 -0.6297  1.7766 -0.9485
 6047TIP3   OH239775   6.602   3.861   4.040  0.4074  0.0886  0.0205
 6047TIP3    H139776   6.566   3.925   3.979  0.3367 -0.8183 -0.9027
 6047TIP3    H239777   6.654   3.913   4.102 -3.0290  1.6064  1.9267
 6048TIP3   OH239778   0.847   4.960   2.602  0.0219 -0.1378 -0.0170
 6048TIP3    H139779   0.816   4.870   2.601  0.7458 -0.4037 -1.0971
 6048TIP3    H239780   0.939   4.954   2.627  0.6873  0.0318 -2.1952
 6049TIP3   OH239781   0.424   3.813   3.609  0.2001  0.6758  0.2707
 6049TIP3    H139782   0.388   3.741   3.662 -0.1071  0.8672  0.3190
 6049TIP3    H239783   0.347   3.861   3.578  0.3775  0.5135 -0.4213
 6050TIP3   OH239784   2.194   1.173   4.594 -0.5625  0.1183  0.2466
 6050TIP3    H139785   2.283   1.208   4.588 -0.5160 -0.2513 -2.7259
 6050TIP3    H239786   2.205   1.078   4.589 -1.1003  0.0802 -0.4811
 6051TIP3   OH239787   2.779   3.497   2.471  0.7674  0.1903 -0.1511
 6051TIP3    H139788   2.726   3.565   2.510  0.7920  0.3267 -0.3573
 6051TIP3    H239789   2.722   3.420   2.467  1.3899 -0.4693  2.1431
 6052TIP3   OH239790   0.964   6.125   0.755 -0.2792 -0.6151  0.0902
 6052TIP3    H139791   1.014   6.139   0.835  0.9621  0.4854 -0.8431
 6052TIP3    H239792   1.015   6.061   0.705 -1.1050 -1.3868  0.1944
 6053TIP3   OH239793   1.958   5.440   8.605 -0.5816  0.5604 -0.7957
 6053TIP3    H139794   2.018   5.496   8.654 -2.3287  2.9929 -1.2369
 6053TIP3    H239795   1.874   5.485   8.610 -1.5163 -0.6801 -3.4449
 6054TIP3   OH239796   0.980   5.714   2.408  0.2456  0.4288 -0.1734
 6054TIP3    H139797   1.045   5.775   2.441  1.0551 -0.8691  0.7609
 6054TIP3    H239798   0.926   5.693   2.484 -2.0716  2.3616 -1.1747
 6055TIP3   OH239799   6.827   5.652   4.419  0.5683  0.5976 -0.3499
 6055TIP3    H139800   6.855   5.560   4.420  2.1590  1.0552 -0.4040
 6055TIP3    H239801   6.749   5.653   4.363  0.4554 -0.7260 -0.2536
 6056TIP3   OH239802   6.575   5.779   4.649 -0.3251  0.6810  0.0225
 6056TIP3    H139803   6.610   5.790   4.737  0.6601  1.2485 -0.4277
 6056TIP3    H239804   6.594   5.862   4.605 -0.2809  0.1923 -0.9044
 6057TIP3   OH239805   3.508   4.119   2.844 -0.2454  0.4154 -0.2295
 6057TIP3    H139806   3.494   4.080   2.930  0.5890  1.7100  0.5309
 6057TIP3    H239807   3.558   4.054   2.796 -0.1406 -0.0493  0.4888
 6058TIP3   OH239808   3.392   4.979   2.270 -0.4799  0.5682 -0.0661
 6058TIP3    H139809   3.313   5.023   2.299  0.1861  1.5645  0.2880
 6058TIP3    H239810   3.455   5.050   2.254  0.3415 -0.1971 -0.3135
 6059TIP3   OH239811   3.255   2.750   0.891 -0.0841 -0.0015  0.1283
 6059TIP3    H139812   3.227   2.802   0.815 -1.0982  1.3624  1.3739
 6059TIP3    H239813   3.333   2.704   0.861  0.1687  1.3249 -1.4165
 6060TIP3   OH239814   5.118   0.648   8.771  0.0399 -0.2254  0.2514
 6060TIP3    H139815   5.211   0.670   8.763  0.5250 -1.1304  2.5686
 6060TIP3    H239816   5.108   0.569   8.718  0.5305  0.0231 -0.2222
 6061TIP3   OH239817   1.638   0.182   4.097  0.3040  0.5053 -0.1512
 6061TIP3    H139818   1.732   0.202   4.106  0.3478  0.1779  0.1579
 6061TIP3    H239819   1.599   0.217   4.177  0.5326 -1.4898  0.8889
 6062TIP3   OH239820   5.619   5.719   3.272  0.2541 -0.1657 -0.1746
 6062TIP3    H139821   5.527   5.697   3.290 -0.1895  1.3558 -0.3934
 6062TIP3    H239822   5.624   5.813   3.291  1.8469 -0.2923  0.1118
 6063TIP3   OH239823   2.250   5.597   3.930 -0.0682  0.2009  0.3814
 6063TIP3    H139824   2.251   5.648   4.011  0.0758 -0.9294  1.1102
 6063TIP3    H239825   2.335   5.553   3.928 -1.2314 -2.2341  1.2568
 6064TIP3   OH239826   6.686   3.468   3.682 -0.0770 -0.5912  0.1410
 6064TIP3    H139827   6.769   3.509   3.704  0.0152 -1.6445  1.8938
 6064TIP3    H239828   6.661   3.419   3.760 -0.6899 -3.0003 -1.4531
 6065TIP3   OH239829   0.801   2.923   3.428 -0.1470  0.4560 -0.4170
 6065TIP3    H139830   0.751   3.005   3.431 -0.4777  0.2326  2.1018
 6065TIP3    H239831   0.886   2.949   3.393 -0.1316  1.9873  0.6321
 6066TIP3   OH239832   1.977   4.492   4.010 -0.1502 -0.2516 -0.0800
 6066TIP3    H139833   1.896   4.510   4.058 -0.5610 -0.6328 -0.6238
 6066TIP3    H239834   2.043   4.480   4.079 -1.2094 -3.3736  0.5750
 6067TIP3   OH239835   4.059   5.237   4.023  0.5267 -0.3620 -0.2410
 6067TIP3    H139836   4.044   5.159   3.969  2.3208 -1.0226  0.1725
 6067TIP3    H239837   4.111   5.295   3.967 -0.0222  0.1723 -0.2119
 6068TIP3   OH239838   4.172   0.320   2.778 -0.3371 -0.2169  0.0347
 6068TIP3    H139839   4.114   0.349   2.849  0.6110 -2.6153  1.9191
 6068TIP3    H239840   4.259   0.317   2.817  0.2036 -1.7231 -1.1847
 6069TIP3   OH239841   0.051   0.154   3.969  0.2086 -0.4186  0.2399
 6069TIP3    H139842   0.031   0.234   4.018 -1.9583  0.2791 -1.6193
 6069TIP3    H239843  -0.016   0.092   3.996 -0.4563 -0.3147 -1.0979
 6070TIP3   OH239844   0.530   4.529   5.072  0.6343  0.4368  0.8191
 6070TIP3    H139845   0.557   4.449   5.028 -0.4778  0.3310  0.2880
 6070TIP3    H239846   0.602   4.549   5.133  0.0379 -2.1172  2.5151
 6071TIP3   OH239847   5.537   4.043   3.286 -0.3631 -0.1129  0.1891
 6071TIP3    H139848   5.500   4.101   3.352  1.6312  0.7258  0.6608
 6071TIP3    H239849   5.583   3.975   3.336  3.2598  1.8667 -0.1022
 6072TIP3   OH239850   5.168   1.185   0.799  0.2529  0.4414  0.1855
 6072TIP3    H139851   5.145   1.256   0.859  0.3636  0.7201 -0.0930
 6072TIP3    H239852   5.125   1.108   0.835 -2.5503  1.2161 -1.1843
 6073TIP3   OH239853   0.997   4.027   2.973 -0.0633  0.0480 -0.7705
 6073TIP3    H139854   1.043   4.085   2.913 -0.0121  0.2705 -0.5194
 6073TIP3    H239855   1.059   3.957   2.993  0.5883  0.9571  0.4701
 6074TIP3   OH239856   0.755   4.906   0.379  0.8626 -0.2523  0.1940
 6074TIP3    H139857   0.711   4.965   0.318  0.7432 -0.4002  0.1358
 6074TIP3    H239858   0.758   4.954   0.461  0.0967 -0.4493  0.3474
 6075TIP3   OH239859   1.673   4.539   1.867 -0.4464 -0.3110 -0.2234
 6075TIP3    H139860   1.621   4.547   1.947 -0.6316  2.0849 -0.4987
 6075TIP3    H239861   1.764   4.543   1.896 -0.5157  0.9011 -0.1095
 6076TIP3   OH239862   3.066   4.637   1.811 -0.1228  0.4064 -0.0559
 6076TIP3    H139863   3.009   4.562   1.828  0.3129  0.6249  2.9380
 6076TIP3    H239864   3.153   4.607   1.839  0.5016  1.3409 -0.9267
 6077TIP3   OH239865   0.370   5.667   4.544 -0.4237 -0.5282  0.3804
 6077TIP3    H139866   0.374   5.574   4.521 -1.0573 -0.1426 -1.4844
 6077TIP3    H239867   0.342   5.710   4.463  1.6168  1.5049  0.6536
 6078TIP3   OH239868   6.779   1.935   4.903  0.0786 -0.3080  0.3059
 6078TIP3    H139869   6.738   1.981   4.830 -0.2177 -0.9623  0.0457
 6078TIP3    H239870   6.789   1.845   4.872  1.6003 -0.2063  0.4162
 6079TIP3   OH239871   5.289   4.388   2.863  0.1714 -0.1652  0.1104
 6079TIP3    H139872   5.299   4.300   2.898  2.6917  0.3550  0.8720
 6079TIP3    H239873   5.340   4.388   2.782 -1.7334 -0.0091 -1.1575
 6080TIP3   OH239874   3.237   1.906   4.357  0.6408  0.0778 -0.7459
 6080TIP3    H139875   3.145   1.932   4.360 -0.4858 -3.4930 -0.5467
 6080TIP3    H239876   3.257   1.878   4.446  2.2282  1.5037 -0.6035
 6081TIP3   OH239877   5.639   4.208   0.567 -0.0685 -0.0239 -0.4922
 6081TIP3    H139878   5.715   4.234   0.618  0.0229  1.0488 -1.1465
 6081TIP3    H239879   5.675   4.181   0.482 -0.0455 -3.3220  0.4264
 6082TIP3   OH239880   4.801   3.450   1.601  0.2108  0.0510 -1.0356
 6082TIP3    H139881   4.804   3.379   1.664  2.2828 -0.8777 -2.0899
 6082TIP3    H239882   4.869   3.429   1.537  0.6595  2.7709 -1.6004
 6083TIP3   OH239883   0.287   1.417   4.033  0.3124  0.2853  0.0158
 6083TIP3    H139884   0.289   1.505   4.070  2.3323  0.1862  0.2928
 6083TIP3    H239885   0.360   1.416   3.971  0.5808 -1.2978  0.3206
 6084TIP3   OH239886   6.793   4.897   0.216 -0.2975  0.1554 -0.1536
 6084TIP3    H139887   6.724   4.899   0.283 -1.1100 -1.1843 -0.8951
 6084TIP3    H239888   6.870   4.865   0.262 -0.3229  1.0328  0.5373
 6085TIP3   OH239889   0.578   3.493   1.527 -0.0115 -0.1780 -0.6430
 6085TIP3    H139890   0.535   3.519   1.446  0.0821 -0.4723 -0.7881
 6085TIP3    H239891   0.663   3.458   1.499 -1.0346 -2.8064 -0.6888
 6086TIP3   OH239892   6.743   2.017   3.200 -0.4639 -0.3364  0.1355
 6086TIP3    H139893   6.748   1.923   3.180 -0.5691 -0.2784 -0.1673
 6086TIP3    H239894   6.727   2.059   3.116 -0.6078 -0.0611  0.2974
 6087TIP3   OH239895   4.840   3.746   1.147 -0.2722 -0.1551 -0.0134
 6087TIP3    H139896   4.864   3.775   1.059 -0.7917  0.8264  0.1469
 6087TIP3    H239897   4.835   3.828   1.198  2.0932 -0.8129  1.4639
 6088TIP3   OH239898   6.294   1.078   4.201 -0.2812  0.1866 -0.2715
 6088TIP3    H139899   6.214   1.065   4.150 -0.7728 -0.0323  0.5370
 6088TIP3    H239900   6.283   1.165   4.241  0.0417  0.3030 -0.4356
 6089TIP3   OH239901   4.066   5.576   2.986  0.2693  0.1481  0.2333
 6089TIP3    H139902   4.129   5.641   2.954  1.6289 -1.1883  0.1361
 6089TIP3    H239903   4.047   5.604   3.076 -0.2394  1.4376 -0.2418
 6090TIP3   OH239904   3.168   0.891   1.730  0.3378 -0.0232 -0.0431
 6090TIP3    H139905   3.205   0.833   1.664 -0.4904 -2.7465  1.7406
 6090TIP3    H239906   3.136   0.833   1.799 -1.3402  2.5150  1.5106
 6091TIP3   OH239907   0.013   0.585   3.280 -0.0554 -0.0858 -0.3846
 6091TIP3    H139908   0.022   0.575   3.185 -1.5201  1.4794 -0.7350
 6091TIP3    H239909   0.001   0.496   3.312  1.1681 -0.7193 -1.5549
 6092TIP3   OH239910   0.408   5.898   4.975  0.5473  0.1047  0.2657
 6092TIP3    H139911   0.492   5.922   4.937  0.7505  0.8204  1.1385
 6092TIP3    H239912   0.401   5.803   4.961  1.3858  0.0807 -0.0206
 6093TIP3   OH239913   1.746   0.785   1.913 -0.2708  0.5274  0.0917
 6093TIP3    H139914   1.699   0.774   1.830 -2.2560 -0.1255  1.2397
 6093TIP3    H239915   1.688   0.746   1.979  0.9382  1.6281  1.8874
 6094TIP3   OH239916   0.294   6.218   5.286 -0.3958 -0.1150 -0.0003
 6094TIP3    H139917   0.305   6.138   5.337  3.3062  0.7918  0.9586
 6094TIP3    H239918   0.267   6.284   5.350  0.0841  0.1170 -0.0283
 6095TIP3   OH239919   3.308   3.193   4.623 -0.5735  0.2603 -0.3227
 6095TIP3    H139920   3.218   3.189   4.655 -0.2599 -0.3434  0.5312
 6095TIP3    H239921   3.361   3.208   4.702  0.2269 -1.1931 -0.5531
 6096TIP3   OH239922   2.938   0.314   0.202  0.1299  0.3450 -0.4555
 6096TIP3    H139923   2.946   0.235   0.147  3.4156 -0.2749  0.6460
 6096TIP3    H239924   2.847   0.314   0.230 -0.3721 -2.2468 -1.6781
 6097TIP3   OH239925   3.185   0.720   1.524  0.1081 -0.0244 -0.3566
 6097TIP3    H139926   3.164   0.782   1.454 -2.6303  0.8339  1.0954
 6097TIP3    H239927   3.106   0.668   1.535  0.3756 -0.0365  2.1557
 6098TIP3   OH239928   5.697   5.062   2.706  0.8550 -0.0012 -0.4581
 6098TIP3    H139929   5.684   5.013   2.787  0.5329 -1.3469 -1.2941
 6098TIP3    H239930   5.723   5.150   2.734  1.4463 -0.6464  1.0864
 6099TIP3   OH239931   1.912   6.041   2.251  0.3830 -0.1817 -0.1537
 6099TIP3    H139932   1.858   6.119   2.268  0.7613  0.0227  0.1410
 6099TIP3    H239933   1.849   5.972   2.233 -0.0002 -0.0384  0.5771
 6100TIP3   OH239934   1.058   4.543   1.268  0.1865 -0.5368  0.4609
 6100TIP3    H139935   1.084   4.634   1.259 -0.1075 -0.5157 -0.2396
 6100TIP3    H239936   1.102   4.497   1.196 -1.8333 -0.4527 -0.9318
 6101TIP3   OH239937   2.580   4.541   2.154 -0.2468  0.4776 -0.3045
 6101TIP3    H139938   2.582   4.572   2.063  1.9313  0.6490 -0.2570
 6101TIP3    H239939   2.653   4.479   2.159  0.1804  1.0785  1.5140
 6102TIP3   OH239940   1.916   0.087   0.548 -0.6053 -0.0866  0.1151
 6102TIP3    H139941   1.861   0.010   0.533  0.2936 -0.9662  1.2455
 6102TIP3    H239942   1.997   0.068   0.500 -0.4643  0.2608  0.2143
 6103TIP3   OH239943   0.970   0.291   3.238 -0.1052  0.0017  0.2138
 6103TIP3    H139944   0.987   0.238   3.160 -0.1311 -2.2382  1.6465
 6103TIP3    H239945   1.056   0.315   3.272 -0.0902  0.6459 -0.2606
 6104TIP3   OH239946   5.552   1.276   3.066  0.1915  0.2814 -0.3481
 6104TIP3    H139947   5.557   1.370   3.085 -1.3473  0.6046 -1.3447
 6104TIP3    H239948   5.627   1.260   3.008  0.3590  0.9394 -0.3229
 6105TIP3   OH239949   1.382   1.099   1.921 -0.3812 -0.0672  0.0139
 6105TIP3    H139950   1.425   1.017   1.944  1.2092  0.1044 -2.0920
 6105TIP3    H239951   1.330   1.079   1.844 -1.7766  0.4326  0.7886
 6106TIP3   OH239952   1.073   3.284   8.622  0.4618 -0.4236 -0.1067
 6106TIP3    H139953   0.998   3.317   8.572  1.8563  1.6252 -0.9896
 6106TIP3    H239954   1.148   3.296   8.563  1.6347 -1.4508  1.1155
 6107TIP3   OH239955   3.072   4.763   3.613 -0.1596  0.0813  0.4511
 6107TIP3    H139956   3.126   4.835   3.648 -0.8345  0.6234  0.3896
 6107TIP3    H239957   3.127   4.685   3.625  1.4660  0.8520 -1.3700
 6108TIP3   OH239958   4.202   6.602   0.036 -0.6874 -0.1098 -0.5132
 6108TIP3    H139959   4.129   6.591   0.096 -0.8209 -0.9029 -0.8067
 6108TIP3    H239960   4.275   6.629   0.091 -0.3963 -2.3291  0.2688
 6109TIP3   OH239961   0.275   0.182   4.224 -0.4043 -0.5065 -0.3503
 6109TIP3    H139962   0.231   0.245   4.167 -0.2910 -0.6129 -0.5563
 6109TIP3    H239963   0.259   0.215   4.312 -1.1059 -0.6839 -0.4058
 6110TIP3   OH239964   6.481   4.969   4.234  0.1641  0.4347 -0.4353
 6110TIP3    H139965   6.406   5.000   4.184  0.3425  2.4125  0.4124
 6110TIP3    H239966   6.521   4.901   4.179 -0.6853  1.2388 -2.1130
 6111TIP3   OH239967   3.648   6.532   2.897 -0.6477 -0.0151 -0.7489
 6111TIP3    H139968   3.743   6.533   2.888 -0.6315 -2.1175 -1.3651
 6111TIP3    H239969   3.614   6.544   2.809 -0.9488  0.3691 -0.5846
 6112TIP3   OH239970   0.485   5.122   4.597  0.2900 -0.1848 -0.5719
 6112TIP3    H139971   0.412   5.061   4.606 -0.2089  0.3915 -0.5752
 6112TIP3    H239972   0.513   5.140   4.686  1.1840 -1.2833 -0.6239
 6113TIP3   OH239973   5.349   0.368   2.150 -0.0497  0.1931  0.1531
 6113TIP3    H139974   5.413   0.297   2.153 -0.1050  0.1150 -0.4229
 6113TIP3    H239975   5.366   0.419   2.229  2.1370  1.3958 -1.0080
 6114TIP3   OH239976   0.385   3.395   1.973 -0.1380  0.2820  0.1139
 6114TIP3    H139977   0.418   3.347   2.050  1.2459  0.9799 -0.0184
 6114TIP3    H239978   0.333   3.330   1.925 -2.1845  0.1596  2.2825
 6115TIP3   OH239979   5.984   1.179   1.614  0.0365 -0.1965 -0.1705
 6115TIP3    H139980   5.962   1.140   1.699 -1.0965  2.1775  0.7169
 6115TIP3    H239981   6.077   1.198   1.619 -0.1380  0.4548  0.8007
 6116TIP3   OH239982   3.591   0.431   1.737 -1.1771 -0.0217  0.0609
 6116TIP3    H139983   3.661   0.493   1.755 -1.6975  0.0243  2.1280
 6116TIP3    H239984   3.557   0.458   1.651  0.3467  0.8530 -0.3045
 6117TIP3   OH239985   4.775   0.342   5.139 -1.2837  0.3826  0.5381
 6117TIP3    H139986   4.868   0.323   5.149 -0.3759  2.1245 -2.8936
 6117TIP3    H239987   4.735   0.257   5.118  0.2108  0.0373 -1.1950
 6118TIP3   OH239988   0.169   1.621   1.637 -0.2694 -0.1928  0.1280
 6118TIP3    H139989   0.224   1.567   1.580 -1.5284 -0.2507 -1.1145
 6118TIP3    H239990   0.209   1.614   1.724 -0.4103 -3.2174  0.0579
 6119TIP3   OH239991   3.851   0.176   3.464  0.2407  0.2427 -0.1919
 6119TIP3    H139992   3.946   0.176   3.451  0.3501 -0.0687  0.5634
 6119TIP3    H239993   3.840   0.158   3.557 -0.6179 -2.6166 -0.7506
 6120TIP3   OH239994   4.188   5.996   0.792  0.3016 -0.6705  0.5417
 6120TIP3    H139995   4.207   6.081   0.830  1.0930 -0.3612 -0.4916
 6120TIP3    H239996   4.109   6.010   0.739 -0.2352 -0.8697  1.2700
 6121TIP3   OH239997   2.712   3.334   3.709  0.0923  0.1250 -0.1283
 6121TIP3    H139998   2.645   3.394   3.677 -1.0749  0.0868  2.0248
 6121TIP3    H239999   2.664   3.253   3.728  1.1393 -0.5807 -0.4463
 6122TIP3   OH240000   6.007   1.412   0.422 -0.1374  0.1217 -0.2756
 6122TIP3    H140001   5.916   1.407   0.390 -0.5307 -0.0187  0.8320
 6122TIP3    H240002   6.034   1.321   0.433 -0.2162  0.1704  0.3570
 6123TIP3   OH240003   1.737   6.255   0.635 -0.6773 -0.4128  0.0048
 6123TIP3    H140004   1.701   6.322   0.577  1.3868  0.9462  0.2076
 6123TIP3    H240005   1.750   6.300   0.718 -0.0298 -1.2928  0.3886
 6124TIP3   OH240006   5.606   1.201   4.127  0.6565  0.1028  0.2366
 6124TIP3    H140007   5.551   1.149   4.068  0.2265  0.2618  0.4867
 6124TIP3    H240008   5.618   1.284   4.081  1.0602 -0.0895 -0.0130
 6125TIP3   OH240009   3.552   3.234   0.957 -0.4525 -0.0695  0.4040
 6125TIP3    H140010   3.523   3.148   0.987  0.1297 -0.5821 -0.4450
 6125TIP3    H240011   3.473   3.288   0.959 -0.8588 -0.6626  0.7985
 6126TIP3   OH240012   6.177   4.255   4.009 -0.0057 -0.4985 -0.5084
 6126TIP3    H140013   6.244   4.224   4.070  0.1245  2.2303  0.9058
 6126TIP3    H240014   6.225   4.313   3.949 -0.8409  0.3409 -0.3818
 6127TIP3   OH240015   0.675   4.457   3.234  0.3858  0.0551  0.0176
 6127TIP3    H140016   0.728   4.390   3.276 -1.5352 -2.5424 -1.3707
 6127TIP3    H240017   0.730   4.490   3.163  1.4099  0.0769  0.7922
 6128TIP3   OH240018   3.835   5.915   2.774  0.7665 -0.1337  0.0265
 6128TIP3    H140019   3.764   5.971   2.742 -0.5836 -1.4312  0.5906
 6128TIP3    H240020   3.915   5.956   2.741 -0.1083  2.2820  0.7083
 6129TIP3   OH240021   3.089   0.668   1.895  0.2376  0.2670  0.3300
 6129TIP3    H140022   3.169   0.614   1.899  0.2295  0.3256  2.5924
 6129TIP3    H240023   3.019   0.605   1.877  0.7852  0.2700 -2.1040
 6130TIP3   OH240024   0.544   5.863   2.284  0.2157 -0.3019 -0.2762
 6130TIP3    H140025   0.479   5.793   2.281  0.3126 -0.4383  0.7946
 6130TIP3    H240026   0.493   5.943   2.266 -0.5062 -0.2511  1.8000
 6131TIP3   OH240027   5.830   4.098   2.058  0.3758  0.2083  0.2752
 6131TIP3    H140028   5.765   4.166   2.076  1.0740  0.5103  1.8048
 6131TIP3    H240029   5.913   4.145   2.055  0.6664 -0.3347 -0.5338
 6132TIP3   OH240030   0.481   1.326   0.859 -0.1555 -0.0601 -0.0326
 6132TIP3    H140031   0.467   1.271   0.937 -0.6553 -0.3851 -0.3444
 6132TIP3    H240032   0.561   1.291   0.820  0.6508  0.7351  0.8588
 6133TIP3   OH240033   2.790   3.830   3.367 -0.0355  0.0372  0.3967
 6133TIP3    H140034   2.805   3.907   3.422 -0.0727  0.8213 -0.6648
 6133TIP3    H240035   2.712   3.789   3.404 -1.0139  1.4567 -0.0358
 6134TIP3   OH240036   6.489   0.746   1.544  0.3517  0.0893 -0.1349
 6134TIP3    H140037   6.418   0.779   1.599  0.8051  3.5083 -1.3557
 6134TIP3    H240038   6.567   0.754   1.599  0.4050  0.8279 -0.3010
 6135TIP3   OH240039   6.435   1.096   3.952  0.0904  0.2357  0.5223
 6135TIP3    H140040   6.487   1.173   3.975  0.1538  0.6666 -0.9247
 6135TIP3    H240041   6.377   1.082   4.026  0.5885  1.2415  1.1147
 6136TIP3   OH240042   2.374   1.271   0.877 -0.2532 -0.4016 -0.5405
 6136TIP3    H140043   2.372   1.349   0.822 -0.5138  0.6904  0.9568
 6136TIP3    H240044   2.291   1.226   0.858 -0.3692 -0.0101 -0.9821
 6137TIP3   OH240045   1.779   0.886   0.795  0.5720  0.1056 -0.1970
 6137TIP3    H140046   1.869   0.867   0.766  1.7107 -1.2828  3.6157
 6137TIP3    H240047   1.729   0.809   0.770  1.4840 -1.0033  1.2310
 6138TIP3   OH240048   5.193   6.115   2.032  0.2705 -0.3209  0.4995
 6138TIP3    H140049   5.164   6.028   2.059  0.6294  0.2151  2.8234
 6138TIP3    H240050   5.128   6.175   2.068  1.4113  0.5353  1.1940
 6139TIP3   OH240051   0.874   5.059   0.599 -0.8060  0.2632  0.0133
 6139TIP3    H140052   0.830   5.136   0.633 -0.7309  0.2640  0.1094
 6139TIP3    H240053   0.962   5.089   0.577 -1.3316  0.6399 -1.6710
 6140TIP3   OH240054   0.393   2.713   3.775 -0.4908  0.5535 -0.0330
 6140TIP3    H140055   0.440   2.773   3.833  0.2622 -0.4784  0.4494
 6140TIP3    H240056   0.334   2.770   3.725  1.9509  2.0602 -1.3790
 6141TIP3   OH240057   5.195   1.778   3.046 -0.1110 -0.0930 -0.2792
 6141TIP3    H140058   5.156   1.796   2.961  1.8351 -1.7472 -1.6323
 6141TIP3    H240059   5.143   1.829   3.108 -2.7227 -0.2284 -2.1993
 6142TIP3   OH240060   5.397   2.309   1.487 -0.1896 -0.2533  0.0618
 6142TIP3    H140061   5.476   2.319   1.541 -0.1771  3.1328 -0.3603
 6142TIP3    H240062   5.429   2.315   1.397 -0.5120 -3.4103 -0.3764
 6143TIP3   OH240063   4.986   6.518   0.528 -0.6465  0.3775 -0.1139
 6143TIP3    H140064   4.914   6.481   0.477  0.0336  0.4844 -1.1799
 6143TIP3    H240065   4.948   6.595   0.571 -1.3832 -0.0613  0.0317
 6144TIP3   OH240066   0.666   0.935   1.896  0.6153 -0.0405 -0.3129
 6144TIP3    H140067   0.699   1.014   1.938 -0.9010 -0.1372  1.2026
 6144TIP3    H240068   0.727   0.866   1.922  1.8664  0.5665 -1.5315
 6145TIP3   OH240069   1.585   2.305   1.995 -0.3631  0.2339  0.3026
 6145TIP3    H140070   1.506   2.353   1.970 -0.0050  0.9634  0.5354
 6145TIP3    H240071   1.646   2.373   2.025  0.6083 -0.2353 -0.5267
 6146TIP3   OH240072   6.716   3.239   1.697  0.5244 -0.6001 -0.8707
 6146TIP3    H140073   6.783   3.306   1.706 -0.9682  1.1412 -1.8554
 6146TIP3    H240074   6.732   3.200   1.611 -1.1972  1.7467 -2.4203
 6147TIP3   OH240075   3.195   0.232   0.686  0.3487 -0.4578  0.2444
 6147TIP3    H140076   3.184   0.146   0.645 -0.7370  0.0190 -0.4955
 6147TIP3    H240077   3.254   0.279   0.626 -1.7269  0.4544 -1.1791
 6148TIP3   OH240078   5.098   5.665   2.639  0.5883  0.3408  0.0859
 6148TIP3    H140079   5.094   5.745   2.587  0.7926  1.5588  1.8608
 6148TIP3    H240080   5.160   5.609   2.591 -0.8497  0.4975 -2.0982
 6149TIP3   OH240081   2.246   4.056   4.143  0.3317  0.0612  0.5390
 6149TIP3    H140082   2.153   4.064   4.120  0.4811 -0.0673 -0.1430
 6149TIP3    H240083   2.292   4.082   4.063  0.8573 -2.0568  0.1012
 6150TIP3   OH240084   2.569   1.717   2.673  0.4348  0.1425 -0.4441
 6150TIP3    H140085   2.629   1.778   2.715 -0.9144  0.5391  1.0069
 6150TIP3    H240086   2.509   1.690   2.743 -0.1064 -1.4642 -1.4675
 6151TIP3   OH240087   2.988   1.664   3.060 -0.2195 -0.1205 -0.3832
 6151TIP3    H140088   2.893   1.660   3.063 -0.2145  0.2815  0.8538
 6151TIP3    H240089   3.017   1.591   3.114  0.1251  1.0812  1.1257
 6152TIP3   OH240090   0.712   2.303   3.150 -0.2059  0.3678  0.1960
 6152TIP3    H140091   0.748   2.297   3.238 -0.2740  2.4871  0.4264
 6152TIP3    H240092   0.702   2.213   3.121  0.0538 -0.3614  2.2609
 6153TIP3   OH240093   3.695   6.420   0.588  0.3948  0.3358 -0.1023
 6153TIP3    H140094   3.611   6.461   0.568  0.7583  0.6103 -1.1903
 6153TIP3    H240095   3.746   6.431   0.507  1.1208 -0.7127  0.1919
 6154TIP3   OH240096   2.564   0.772   0.434 -0.0153  0.5576 -0.4349
 6154TIP3    H140097   2.520   0.831   0.373 -0.9444  0.3030 -0.0267
 6154TIP3    H240098   2.542   0.684   0.405 -1.7664  0.4216  1.1283
 6155TIP3   OH240099   2.248   3.135   2.486 -0.6414  0.1402  0.1906
 6155TIP3    H140100   2.287   3.207   2.534 -0.3296  0.3512 -0.3733
 6155TIP3    H240101   2.302   3.059   2.508  0.1998  0.4631 -0.7155
 6156TIP3   OH240102   1.492   3.684   4.657  0.0203 -0.1160 -0.4629
 6156TIP3    H140103   1.447   3.765   4.682 -0.0505 -0.0351 -0.8403
 6156TIP3    H240104   1.433   3.614   4.684 -0.8473  0.0121 -1.9120
 6157TIP3   OH240105   1.083   1.155   2.999  0.1651 -0.6718 -0.3228
 6157TIP3    H140106   1.106   1.102   3.075 -1.4400 -0.8397  0.0927
 6157TIP3    H240107   1.063   1.090   2.931 -1.9010 -0.7014  0.2158
 6158TIP3   OH240108   2.421   3.307   4.194  0.2718 -0.5855 -0.1288
 6158TIP3    H140109   2.516   3.309   4.182  0.4244 -0.6071  0.9312
 6158TIP3    H240110   2.406   3.232   4.253 -0.5271 -1.2953 -1.1980
 6159TIP3   OH240111   1.047   5.907   1.772  0.4992 -0.3658  0.1206
 6159TIP3    H140112   1.117   5.964   1.740  0.1445 -1.1154 -2.1322
 6159TIP3    H240113   0.967   5.946   1.737 -0.0222 -0.7076  0.9128
 6160TIP3   OH240114   4.252   0.829   4.561 -0.2536 -0.0315 -0.2559
 6160TIP3    H140115   4.274   0.837   4.468 -1.0201 -0.2419 -0.4659
 6160TIP3    H240116   4.233   0.736   4.572 -1.6768  0.2346 -0.2523
 6161TIP3   OH240117   5.327   5.513   1.318  0.2513  0.4199 -0.4820
 6161TIP3    H140118   5.296   5.485   1.232  0.2947 -2.9331  0.4454
 6161TIP3    H240119   5.416   5.480   1.323  0.2243  0.4973  0.8557
 6162TIP3   OH240120   5.406   0.274   0.886  0.1109 -0.5896 -0.1215
 6162TIP3    H140121   5.334   0.317   0.841 -1.8320 -4.1429 -0.8354
 6162TIP3    H240122   5.366   0.236   0.965  1.5581 -1.3662  0.2770
 6163TIP3   OH240123   1.675   2.343   4.808 -0.2293 -0.7859  0.0022
 6163TIP3    H140124   1.739   2.399   4.765 -1.5710 -1.3112 -2.9909
 6163TIP3    H240125   1.713   2.255   4.804  0.5677 -0.5624  1.9446
 6164TIP3   OH240126   0.388   3.419   1.284 -0.1557 -0.0110 -0.1438
 6164TIP3    H140127   0.352   3.382   1.203 -2.5137  1.9080 -0.0797
 6164TIP3    H240128   0.316   3.415   1.347  0.7236  1.1047  0.9961
 6165TIP3   OH240129   0.386   5.020   3.244  0.4819 -0.1420 -0.8877
 6165TIP3    H140130   0.458   4.956   3.243  2.3046  1.7026  1.4083
 6165TIP3    H240131   0.428   5.104   3.225 -0.8906  1.0906  1.2124
 6166TIP3   OH240132   3.714   2.417   1.155  0.4195 -0.1734  0.0222
 6166TIP3    H140133   3.685   2.476   1.224 -1.2530  1.6590 -2.1197
 6166TIP3    H240134   3.787   2.463   1.113 -0.5958  0.2131 -1.3735
 6167TIP3   OH240135   3.570   0.016   1.446  0.1068  0.3550 -0.2214
 6167TIP3    H140136   3.482  -0.008   1.473  0.4368 -0.8017 -0.1027
 6167TIP3    H240137   3.618  -0.067   1.443  1.2407  0.9793 -0.1043
 6168TIP3   OH240138   6.815   5.775   3.880 -0.0652  0.0987 -0.5476
 6168TIP3    H140139   6.812   5.738   3.969  0.3957 -1.3636 -1.1152
 6168TIP3    H240140   6.853   5.863   3.892 -0.2973  0.0445  0.7252
 6169TIP3   OH240141   3.400   4.365   0.597  0.1536  0.3586 -0.1246
 6169TIP3    H140142   3.464   4.371   0.668 -0.1679  0.9837  0.1222
 6169TIP3    H240143   3.442   4.310   0.531  0.3031 -0.5590  0.7142
 6170TIP3   OH240144   5.568   1.275   1.974 -0.2222  0.1378 -0.1896
 6170TIP3    H140145   5.487   1.327   1.979 -0.2864  0.1309 -1.1170
 6170TIP3    H240146   5.544   1.189   2.008 -0.6295  0.1146 -0.5311
 6171TIP3   OH240147   4.469   4.683   2.441  0.1003  0.6512 -0.0644
 6171TIP3    H140148   4.452   4.706   2.532 -1.7913  0.6041 -0.3712
 6171TIP3    H240149   4.555   4.641   2.443  0.1574  0.7593  1.6710
 6172TIP3   OH240150   2.929   3.292   0.517 -0.3593  0.7523 -0.6994
 6172TIP3    H140151   2.873   3.311   0.593  1.4321  0.4674  0.7623
 6172TIP3    H240152   3.001   3.354   0.524 -0.0744  0.6213 -2.1214
 6173TIP3   OH240153   0.489   4.784   1.158  0.0419 -0.9183 -0.1362
 6173TIP3    H140154   0.579   4.808   1.178 -0.1205  0.0999 -0.5573
 6173TIP3    H240155   0.441   4.801   1.240 -0.3584  1.8424 -0.8304
 6174TIP3   OH240156   4.205   0.741   1.353  0.3289 -0.3543 -0.7341
 6174TIP3    H140157   4.124   0.691   1.340 -0.2935 -0.0075  1.3841
 6174TIP3    H240158   4.234   0.716   1.440  1.1387  1.4143 -0.4714
 6175TIP3   OH240159   2.118   0.334   1.621  0.2807 -0.6016  0.3888
 6175TIP3    H140160   2.039   0.363   1.666 -0.3514  3.0740 -2.6136
 6175TIP3    H240161   2.182   0.404   1.638  0.7891 -0.3563 -2.1799
 6176TIP3   OH240162   5.981   3.012   3.338  0.2149  0.2232  0.7944
 6176TIP3    H140163   5.981   2.927   3.293 -0.4594  0.9110 -0.5985
 6176TIP3    H240164   5.894   3.017   3.379 -0.1687  0.6642 -0.0377
 6177TIP3   OH240165   1.732   5.600   8.600 -0.1704  0.3308 -0.4415
 6177TIP3    H140166   1.731   5.691   8.629  0.5221  0.2826 -0.2362
 6177TIP3    H240167   1.690   5.551   8.671  0.0496  0.4140 -0.2504
 6178TIP3   OH240168   1.660   3.665   2.778  0.2603  1.1560 -0.1164
 6178TIP3    H140169   1.627   3.654   2.867  0.8134 -0.0084 -0.0332
 6178TIP3    H240170   1.643   3.756   2.757 -1.0381  1.1283  0.7127
 6179TIP3   OH240171   6.685   3.112   3.461  0.0611 -0.3478 -0.2380
 6179TIP3    H140172   6.678   3.025   3.422  1.6353 -0.0185 -1.3417
 6179TIP3    H240173   6.602   3.125   3.506 -0.4103 -2.1995 -0.4979
 6180TIP3   OH240174   4.706   5.941   0.788 -0.2570  0.3599 -0.5359
 6180TIP3    H140175   4.652   6.018   0.776  2.4607  2.1708 -2.3345
 6180TIP3    H240176   4.712   5.902   0.700 -0.4184 -1.0897  0.0641
 6181TIP3   OH240177   0.194   3.450   3.959 -0.8088 -0.2049  0.2836
 6181TIP3    H140178   0.201   3.416   4.048  0.3087 -1.0189 -0.0903
 6181TIP3    H240179   0.161   3.375   3.908 -0.5640 -0.0190 -0.1497
 6182TIP3   OH240180   0.070   5.624   0.847 -0.1139 -0.7421  0.1554
 6182TIP3    H140181   0.005   5.661   0.787  2.6730  1.8057 -1.6147
 6182TIP3    H240182   0.115   5.557   0.796 -0.4642 -1.5731  0.9173
 6183TIP3   OH240183   4.601   1.520   4.398  0.0491 -0.7580 -0.0755
 6183TIP3    H140184   4.684   1.478   4.377  0.5688 -0.8904  2.0543
 6183TIP3    H240185   4.624   1.610   4.420 -0.8882  0.3975 -3.1402
 6184TIP3   OH240186   4.977   2.073   0.865  0.2790  0.2967 -0.4202
 6184TIP3    H140187   5.036   2.021   0.811 -1.9703 -1.4146 -1.3771
 6184TIP3    H240188   5.028   2.150   0.889  3.5338 -1.9381  0.4421
 6185TIP3   OH240189   3.716   1.485   1.346 -0.5018  0.1095 -0.1139
 6185TIP3    H140190   3.676   1.416   1.291 -1.4977 -0.7625  1.6252
 6185TIP3    H240191   3.653   1.557   1.342  0.7246  1.1568 -2.2507
 6186TIP3   OH240192   3.560   4.312   4.394 -0.1831 -0.5380 -0.1938
 6186TIP3    H140193   3.583   4.248   4.326  1.0798  0.1967 -0.5007
 6186TIP3    H240194   3.597   4.276   4.474  0.5915 -0.1887 -0.3797
 6187TIP3   OH240195   1.608   2.638   3.020 -0.2797  0.5451 -0.6027
 6187TIP3    H140196   1.524   2.680   3.037 -1.5209 -1.8462 -0.4215
 6187TIP3    H240197   1.662   2.661   3.095 -0.5292  2.5087 -0.9476
 6188TIP3   OH240198   6.064   0.303   1.081 -0.3841 -1.2995  0.4538
 6188TIP3    H140199   6.098   0.370   1.139 -1.1181 -1.1464  0.7155
 6188TIP3    H240200   6.130   0.295   1.011 -0.0671 -0.6598  0.6786
 6189TIP3   OH240201   2.022   2.012   3.166  0.1931 -0.0844  0.0212
 6189TIP3    H140202   2.025   2.009   3.262  1.0137 -0.4194 -0.0107
 6189TIP3    H240203   2.073   1.936   3.138  2.7881  1.7584 -0.6806
 6190TIP3   OH240204   5.915   6.493   2.779 -0.4609 -0.2593  0.0769
 6190TIP3    H140205   5.875   6.563   2.728 -0.5843 -0.7386 -0.4977
 6190TIP3    H240206   5.971   6.538   2.842 -1.0778  0.3779  0.1859
 6191TIP3   OH240207   1.922   5.959   0.864 -0.1500  0.1159  0.4121
 6191TIP3    H140208   1.994   5.897   0.857 -0.4347 -0.0883 -0.9775
 6191TIP3    H240209   1.916   5.998   0.777 -0.5405  1.4715  1.0183
 6192TIP3   OH240210   0.100   1.395   4.581 -0.2152  0.3939 -0.8191
 6192TIP3    H140211   0.095   1.429   4.491 -1.5690  1.0593 -0.5193
 6192TIP3    H240212   0.176   1.336   4.580 -0.4332  0.0813 -2.4960
 6193TIP3   OH240213   5.793   2.001   1.290  0.1958 -0.3990 -0.1669
 6193TIP3    H140214   5.865   2.032   1.236  0.8021  1.3027  1.4991
 6193TIP3    H240215   5.831   1.931   1.344  1.3933  2.0082  2.3572
 6194TIP3   OH240216   2.934   1.983   1.026 -0.8693  0.0911 -0.2483
 6194TIP3    H140217   2.907   1.927   0.954 -0.4136 -0.0232 -0.3311
 6194TIP3    H240218   2.892   2.067   1.008 -0.6920  0.0878 -0.6906
 6195TIP3   OH240219   0.627   1.662   4.354 -0.1461 -0.0031 -0.2153
 6195TIP3    H140220   0.662   1.579   4.386  0.9611  0.2859 -0.6534
 6195TIP3    H240221   0.532   1.652   4.363 -0.0582 -1.4512 -0.5647
 6196TIP3   OH240222   4.358   1.922   2.913 -0.0866 -0.6592 -0.0600
 6196TIP3    H140223   4.336   1.830   2.896  0.8443 -0.9225  0.0625
 6196TIP3    H240224   4.281   1.958   2.956 -1.8828 -0.4136 -3.2150
 6197TIP3   OH240225   2.311   5.144   1.889 -0.9523 -0.1181  0.3607
 6197TIP3    H140226   2.244   5.078   1.869 -1.1690  0.4314 -0.8275
 6197TIP3    H240227   2.336   5.127   1.980  0.1733 -2.8598 -0.3713
 6198TIP3   OH240228   5.478   0.323   0.606  0.2882 -0.3351 -0.5580
 6198TIP3    H140229   5.445   0.357   0.689 -1.7437  1.4516 -1.9891
 6198TIP3    H240230   5.429   0.242   0.592  0.9451 -0.8736  0.1324
 6199TIP3   OH240231   3.929   5.773   2.446  0.4339 -0.2309 -0.8941
 6199TIP3    H140232   3.899   5.736   2.364 -3.6097  2.6447 -1.0509
 6199TIP3    H240233   3.896   5.714   2.513  1.0130 -0.9581 -1.2398
 6200TIP3   OH240234   5.960   0.690   2.410  0.2665 -0.2484 -0.3689
 6200TIP3    H140235   5.900   0.732   2.349  0.1929 -0.5578 -0.5156
 6200TIP3    H240236   5.908   0.674   2.489 -0.0012 -0.9902 -0.6826
 6201TIP3   OH240237   6.326   2.853   3.423 -0.8815  0.0230  0.3569
 6201TIP3    H140238   6.258   2.787   3.411 -0.7610 -0.4031  1.7722
 6201TIP3    H240239   6.278   2.936   3.429 -1.1034 -0.0291 -0.6094
 6202TIP3   OH240240   5.613   0.056   1.211 -0.0629 -0.0514 -0.4579
 6202TIP3    H140241   5.562   0.071   1.291  0.4302 -1.1609  0.0914
 6202TIP3    H240242   5.624  -0.039   1.208  0.8585  0.0742 -1.2708
 6203TIP3   OH240243   3.931   5.069   2.343  0.7780 -0.0746  0.3380
 6203TIP3    H140244   3.843   5.099   2.363 -0.0746 -1.7500 -0.7362
 6203TIP3    H240245   3.971   5.052   2.429 -0.4990 -0.8063  0.8050
 6204TIP3   OH240246   1.465   3.261   1.860  0.1604  0.6522  0.7853
 6204TIP3    H140247   1.556   3.277   1.835 -0.3038  1.6009 -0.3656
 6204TIP3    H240248   1.435   3.193   1.799 -0.2168  1.1275  0.4359
 6205TIP3   OH240249   0.775   0.434   4.215 -0.3660 -0.2845  0.2685
 6205TIP3    H140250   0.778   0.339   4.202 -1.4291 -0.4290  0.9311
 6205TIP3    H240251   0.693   0.461   4.175 -0.8646  0.1010  1.5077
 6206TIP3   OH240252   1.734   3.764   1.204  0.4754  0.2674 -0.1018
 6206TIP3    H140253   1.693   3.721   1.129  1.0410  0.9186 -0.8024
 6206TIP3    H240254   1.743   3.696   1.270 -0.1518 -0.2847 -0.5819
 6207TIP3   OH240255   3.766   0.256   3.771  0.5302  0.0982 -0.0694
 6207TIP3    H140256   3.843   0.307   3.796  0.2546  1.7099 -2.1366
 6207TIP3    H240257   3.693   0.301   3.814  0.6375 -1.0419  1.3669
 6208TIP3   OH240258   1.473   0.952   2.741  0.0415  0.1046  0.1824
 6208TIP3    H140259   1.419   0.983   2.668  0.4391  0.6302  0.0992
 6208TIP3    H240260   1.422   0.882   2.781  0.6790 -1.6243 -1.8384
 6209TIP3   OH240261   6.227   1.329   3.171  0.3777  0.3195  0.3627
 6209TIP3    H140262   6.171   1.357   3.098  0.2874 -0.2172  0.2229
 6209TIP3    H240263   6.255   1.411   3.212 -0.3082  0.6019  0.2813
 6210TIP3   OH240264   6.787   1.068   0.771 -0.4199 -0.1758  0.1728
 6210TIP3    H140265   6.816   1.136   0.831  0.2451 -0.6906  0.4491
 6210TIP3    H240266   6.801   0.986   0.819  0.3676 -0.6141 -0.7613
 6211TIP3   OH240267   0.833   1.607   3.225 -0.1168  0.1380  0.3759
 6211TIP3    H140268   0.775   1.672   3.187  0.3313  0.9661  1.0556
 6211TIP3    H240269   0.907   1.602   3.165 -1.7568 -2.4556 -1.6115
 6212TIP3   OH240270   3.715   1.636   2.253  0.2637 -0.0109  0.1601
 6212TIP3    H140271   3.679   1.678   2.174 -0.3525  0.1650  0.5282
 6212TIP3    H240272   3.638   1.600   2.298  0.6830 -0.7043  0.3388
 6213TIP3   OH240273   3.463   2.994   1.040  0.2437 -0.4597 -0.0593
 6213TIP3    H140274   3.368   2.990   1.050  0.0570  0.4019 -1.2428
 6213TIP3    H240275   3.497   2.995   1.129 -0.7733 -2.1000  0.3875
 6214TIP3   OH240276   4.504   6.484   2.123  0.2792 -0.3439  0.2215
 6214TIP3    H140277   4.452   6.435   2.060  0.1336 -1.7634  1.3872
 6214TIP3    H240278   4.467   6.461   2.208  0.1427  1.8913  0.8460
 6215TIP3   OH240279   1.937   4.549   0.341 -0.1043 -0.5763 -0.3700
 6215TIP3    H140280   1.848   4.569   0.370  0.5739  0.8444  0.8645
 6215TIP3    H240281   1.927   4.475   0.281 -2.1323 -0.2577 -0.4764
 6216TIP3   OH240282   2.452   0.006   3.883  0.6328 -0.1661 -0.3530
 6216TIP3    H140283   2.510   0.044   3.949  0.8176  1.3024 -1.2934
 6216TIP3    H240284   2.501   0.014   3.801  0.5723 -2.3093 -0.6604
 6217TIP3   OH240285   3.533   0.427   2.064  0.5296  0.0630  0.0029
 6217TIP3    H140286   3.582   0.505   2.092 -0.8621  0.0163  2.9539
 6217TIP3    H240287   3.593   0.354   2.082  0.3469  0.1885  1.2157
 6218TIP3   OH240288   6.111   2.717   1.587  0.5046 -0.2049  0.2389
 6218TIP3    H140289   6.161   2.746   1.511 -0.9263  0.3079 -0.5614
 6218TIP3    H240290   6.173   2.718   1.660  1.0271  3.1059 -0.1228
 6219TIP3   OH240291   0.550   5.855   0.495  0.3304  0.3639  0.1623
 6219TIP3    H140292   0.561   5.785   0.558 -1.4167  1.4198  1.7679
 6219TIP3    H240293   0.625   5.848   0.436  0.6809 -2.2170  0.8248
 6220TIP3   OH240294   3.990   4.037   2.130  0.2335  0.3116 -0.2191
 6220TIP3    H140295   3.987   4.123   2.088  1.5846  0.9741  0.9905
 6220TIP3    H240296   4.053   3.987   2.078 -0.0024  0.2709 -0.4745
 6221TIP3   OH240297   5.597   6.341   3.890  0.0508  0.3189  0.4026
 6221TIP3    H140298   5.524   6.355   3.950  0.4906  1.3588  0.7299
 6221TIP3    H240299   5.654   6.280   3.936  0.3984  1.1291  1.0798
 6222TIP3   OH240300   5.979   0.789   1.294 -0.4565  0.8198 -0.3224
 6222TIP3    H140301   6.007   0.839   1.217  0.5593  2.8248  1.2489
 6222TIP3    H240302   6.035   0.821   1.365 -0.3214 -2.0361  0.9791
 6223TIP3   OH240303   4.442   5.575   3.717  0.0883 -0.1485  0.4352
 6223TIP3    H140304   4.508   5.612   3.774  1.1685 -0.2383 -0.7148
 6223TIP3    H240305   4.382   5.648   3.698 -0.5543 -0.2354  2.0057
 6224TIP3   OH240306   6.553   5.202   1.411 -0.7749 -0.1187 -0.1663
 6224TIP3    H140307   6.498   5.151   1.471 -0.5298 -0.7724 -0.4993
 6224TIP3    H240308   6.492   5.263   1.370 -0.6003  2.0497  2.5019
 6225TIP3   OH240309   2.985   0.220   2.029  0.0960  0.3905  0.1942
 6225TIP3    H140310   3.064   0.214   2.083 -0.1927 -1.5278  0.4784
 6225TIP3    H240311   2.916   0.180   2.083 -0.8662  1.1940 -0.4117
 6226TIP3   OH240312   0.550   2.378   1.047 -0.3023 -0.1265 -0.1181
 6226TIP3    H140313   0.509   2.314   0.989 -0.0181  0.7369 -1.3224
 6226TIP3    H240314   0.565   2.454   0.991 -0.5424  0.9627  1.2409
 6227TIP3   OH240315   4.221   2.093   1.349 -0.4406  0.0537 -0.8036
 6227TIP3    H140316   4.271   2.172   1.328  1.7246 -1.3595 -1.2009
 6227TIP3    H240317   4.158   2.122   1.415 -1.7527  2.7568 -2.9947
 6228TIP3   OH240318   4.827   5.343   1.719  0.6377 -0.1667 -0.4480
 6228TIP3    H140319   4.779   5.264   1.745  1.6968 -1.1523 -1.3898
 6228TIP3    H240320   4.805   5.354   1.626  1.2897  0.0583 -0.5773
 6229TIP3   OH240321   4.621   2.562   0.915  0.5647  0.0544 -0.0743
 6229TIP3    H140322   4.617   2.638   0.858 -0.2342  0.9766  1.1489
 6229TIP3    H240323   4.684   2.503   0.873  0.0647  0.7127 -1.8324
 6230TIP3   OH240324   1.553   5.363   3.903 -0.0591 -0.3295  0.4455
 6230TIP3    H140325   1.543   5.296   3.971 -0.4955 -0.0207  0.6837
 6230TIP3    H240326   1.629   5.414   3.930  0.9054 -1.3407 -0.2546
 6231TIP3   OH240327   2.669   3.008   1.554 -0.0266  0.1954 -0.0344
 6231TIP3    H140328   2.659   3.103   1.542 -2.2109 -0.1337 -1.5117
 6231TIP3    H240329   2.722   2.980   1.480 -2.8507 -0.1575 -2.1326
 6232TIP3   OH240330   6.208   3.511   3.333 -0.1751 -0.3953  0.0296
 6232TIP3    H140331   6.158   3.432   3.353  0.3121 -0.8557 -0.5426
 6232TIP3    H240332   6.183   3.532   3.243 -0.7230  0.4218  0.3671
 6233TIP3   OH240333   2.159   0.346   0.988  0.6081 -0.5572 -0.1200
 6233TIP3    H140334   2.118   0.432   0.982  0.0784 -0.8400 -0.5609
 6233TIP3    H240335   2.159   0.326   1.082 -0.6763 -0.7503 -0.1483
 6234TIP3   OH240336   6.155   0.510   1.282  0.4003  0.2187  0.5056
 6234TIP3    H140337   6.143   0.595   1.323  2.3433  1.4799 -1.3138
 6234TIP3    H240338   6.242   0.481   1.310 -0.4505 -1.4860  1.5404
 6235TIP3   OH240339   3.996   5.659   1.700 -0.0131  0.2543  0.1528
 6235TIP3    H140340   3.928   5.593   1.693  0.0719 -0.1252  2.4385
 6235TIP3    H240341   4.067   5.616   1.747  1.1692  1.1543 -0.7367
 6236TIP3   OH240342   5.646   3.047   1.941 -0.0310  0.3320  0.1099
 6236TIP3    H140343   5.716   3.108   1.965  1.6105 -1.7118  0.8493
 6236TIP3    H240344   5.648   3.046   1.846  0.7637  0.5265  0.1093
 6237TIP3   OH240345   0.669   2.463   1.764 -0.2451  0.0072 -0.5881
 6237TIP3    H140346   0.667   2.548   1.720 -0.8732  0.2890 -0.0269
 6237TIP3    H240347   0.658   2.399   1.694 -1.2269  0.4536 -0.8547
 6238TIP3   OH240348   0.487   4.137   4.305 -0.1250 -0.3655  0.0037
 6238TIP3    H140349   0.557   4.122   4.241  0.0448  1.2228 -0.2297
 6238TIP3    H240350   0.525   4.111   4.389  0.4442 -0.3554 -0.2443
 6239TIP3   OH240351   5.970   1.407   4.044  0.2382 -0.0448  0.0530
 6239TIP3    H140352   6.006   1.372   3.962 -0.1067 -1.4343  0.4670
 6239TIP3    H240353   5.992   1.341   4.110 -0.0499  0.7483  0.9602
 6240TIP3   OH240354   2.376   1.043   2.220  0.0643 -0.1339 -0.1714
 6240TIP3    H140355   2.351   1.122   2.269 -0.1825  0.0885 -0.6456
 6240TIP3    H240356   2.394   1.075   2.131 -2.6474 -0.9268 -1.1199
 6241TIP3   OH240357   2.644   3.559   0.985  0.2251 -0.0709 -0.1612
 6241TIP3    H140358   2.575   3.537   0.922 -0.0001  0.5531 -0.1406
 6241TIP3    H240359   2.644   3.655   0.989 -0.0382 -0.1074  1.0988
 6242TIP3   OH240360   2.004   1.313   1.627  0.1039  0.1491  0.3663
 6242TIP3    H140361   2.089   1.291   1.665  0.8846  0.7361 -0.9783
 6242TIP3    H240362   2.000   1.408   1.632  0.9738  0.4332 -2.4020
 6243TIP3   OH240363   1.226   0.744   1.082 -0.4459  0.1629  0.3936
 6243TIP3    H140364   1.198   0.809   1.018 -0.1159  0.0023  0.0783
 6243TIP3    H240365   1.219   0.787   1.166  0.2846  0.7927  0.1445
 6244TIP3   OH240366   4.847   3.094   4.116 -0.0165  0.2292  0.4293
 6244TIP3    H140367   4.847   3.174   4.064  1.0557  0.3623  0.6096
 6244TIP3    H240368   4.939   3.077   4.133 -0.1537 -1.5485 -0.3650
 6245TIP3   OH240369   4.167   1.501   1.881 -0.1455 -0.0107 -0.1249
 6245TIP3    H140370   4.125   1.435   1.825 -0.2137  0.8510 -1.1251
 6245TIP3    H240371   4.094   1.547   1.922 -0.0913 -1.0437  1.2096
 6246TIP3   OH240372   5.487   5.030   2.540  0.8411  0.3489 -0.0027
 6246TIP3    H140373   5.511   5.046   2.449  2.7777 -1.9872 -0.0034
 6246TIP3    H240374   5.570   5.036   2.588  0.1285 -0.1779  1.3468
 6247TIP3   OH240375   2.865   0.406   2.336  0.0989 -0.1205 -0.1049
 6247TIP3    H140376   2.950   0.435   2.305 -0.2703  0.1985 -0.8433
 6247TIP3    H240377   2.838   0.338   2.273 -1.1005  1.2264 -1.1268
 6248TIP3   OH240378   2.255   5.406   4.238  0.0798 -0.5145 -0.0555
 6248TIP3    H140379   2.346   5.429   4.219 -0.0244 -1.4611 -1.8832
 6248TIP3    H240380   2.257   5.312   4.254 -1.0087 -1.2904 -3.6733
 6249TIP3   OH240381   5.636   2.537   4.582 -0.0168  0.2778  0.2333
 6249TIP3    H140382   5.610   2.445   4.585 -0.3826  0.3979  2.1054
 6249TIP3    H240383   5.731   2.536   4.600 -0.2063  0.3011  1.3147
 6250TIP3   OH240384   6.290   1.968   1.585  0.0958  0.0832 -0.0418
 6250TIP3    H140385   6.236   1.993   1.660 -1.4828 -2.3106 -0.2644
 6250TIP3    H240386   6.359   1.913   1.623 -0.1866 -0.4059 -0.2261
 6251TIP3   OH240387   4.292   4.806   0.374 -0.2092 -0.2584  0.4882
 6251TIP3    H140388   4.282   4.773   0.285  0.0993  0.9002  0.0085
 6251TIP3    H240389   4.328   4.894   0.363  0.5578 -0.3846  1.7830
 6252TIP3   OH240390   5.834   5.217   3.560 -0.1905  0.2598  0.4608
 6252TIP3    H140391   5.781   5.291   3.589 -0.5028  0.9693 -1.6963
 6252TIP3    H240392   5.776   5.168   3.501  0.9031 -0.0686 -0.3873
 6253TIP3   OH240393   5.926   2.537   2.343 -0.1168 -0.0209 -0.3277
 6253TIP3    H140394   6.002   2.528   2.400 -0.9122 -2.1563  0.4924
 6253TIP3    H240395   5.852   2.506   2.396 -1.5560  1.8181 -1.1623
 6254TIP3   OH240396   5.453   5.904   0.398 -0.0360  0.0612  0.5688
 6254TIP3    H140397   5.417   5.990   0.420  2.4152  1.8829 -1.8268
 6254TIP3    H240398   5.382   5.843   0.416 -3.1033  2.9560 -0.6095
 6255TIP3   OH240399   4.685   6.461   4.452  0.2009 -0.4267 -0.8059
 6255TIP3    H140400   4.613   6.508   4.494 -0.5670 -1.1774 -1.2542
 6255TIP3    H240401   4.744   6.529   4.421 -0.9143  0.2508 -1.4972
 6256TIP3   OH240402   6.085   1.522   1.767 -0.5051  0.1057  0.1051
 6256TIP3    H140403   6.114   1.451   1.825 -0.2533  0.5443  0.5261
 6256TIP3    H240404   6.166   1.553   1.726 -0.5423  0.5046  0.3311
 6257TIP3   OH240405   3.350   0.928   2.592 -0.1553 -0.0350 -0.2354
 6257TIP3    H140406   3.415   0.930   2.662 -0.0605 -1.8700 -0.2264
 6257TIP3    H240407   3.392   0.972   2.518  1.4433 -1.8995 -0.4876
 6258TIP3   OH240408   1.783   2.741   4.396 -0.4625 -0.2224 -0.7966
 6258TIP3    H140409   1.799   2.834   4.410 -2.1523 -0.0620  0.4084
 6258TIP3    H240410   1.869   2.701   4.397  0.2200  1.1910 -0.2757
 6259TIP3   OH240411   5.819   0.749   0.800 -0.6845 -0.2441  0.0267
 6259TIP3    H140412   5.820   0.797   0.717  1.6011 -0.2278 -0.0185
 6259TIP3    H240413   5.862   0.808   0.862 -1.2038 -0.7698  0.8975
 6260TIP3   OH240414   0.690   0.468   3.286 -0.0679  0.0026  0.2744
 6260TIP3    H140415   0.612   0.485   3.339  0.6629 -0.5636  1.5772
 6260TIP3    H240416   0.714   0.378   3.307 -0.9308 -1.0383 -2.6271
 6261TIP3   OH240417   1.245   3.484   3.671  0.3110  0.6157 -0.0908
 6261TIP3    H140418   1.275   3.432   3.746 -0.5727  0.8977  0.4876
 6261TIP3    H240419   1.325   3.511   3.626  0.8180 -0.5035  0.0975
 6262TIP3   OH240420   1.697   5.972   2.568  0.1068 -0.0674  0.0757
 6262TIP3    H140421   1.764   5.953   2.633 -0.0450 -0.1391  0.2106
 6262TIP3    H240422   1.621   6.000   2.619 -0.4253 -1.3094  0.0008
 6263TIP3   OH240423   3.665   5.541   3.749 -0.4079  0.1190  0.3991
 6263TIP3    H140424   3.744   5.487   3.758  0.4225  1.2504  0.1523
 6263TIP3    H240425   3.694   5.619   3.700 -2.0276 -0.1595 -1.1332
 6264TIP3   OH240426   5.763   1.381   0.306  0.2803 -0.0020  0.2539
 6264TIP3    H140427   5.722   1.413   0.225  1.1368 -2.4629 -1.2421
 6264TIP3    H240428   5.704   1.314   0.338  1.1665 -0.8050  0.2538
 6265TIP3   OH240429   6.771   2.848   2.128 -0.0972 -0.3336 -0.7542
 6265TIP3    H140430   6.696   2.827   2.073 -1.0775 -0.9088  0.7182
 6265TIP3    H240431   6.734   2.897   2.202  1.1918  0.6219 -0.6944
 6266TIP3   OH240432   2.341   3.300   1.645 -0.3270  0.1758  0.0039
 6266TIP3    H140433   2.274   3.366   1.666 -1.8652 -0.9396 -1.1776
 6266TIP3    H240434   2.420   3.333   1.687 -1.4930  1.7952  1.0815
 6267TIP3   OH240435   3.636   4.996   5.098  0.5336  0.5072 -0.8188
 6267TIP3    H140436   3.705   4.930   5.093  0.0573 -0.0945  0.2164
 6267TIP3    H240437   3.564   4.952   5.142  0.0843  1.6167 -0.4066
 6268TIP3   OH240438   4.838   3.809   3.771  0.1297 -0.4546 -0.2891
 6268TIP3    H140439   4.921   3.783   3.732  0.6923  1.4498 -0.4235
 6268TIP3    H240440   4.793   3.726   3.787  1.2482 -1.4291 -1.9348
 6269TIP3   OH240441   5.059   6.579   4.405  0.3130 -0.0163 -0.3337
 6269TIP3    H140442   5.138   6.610   4.448  0.1150 -0.0769  0.0758
 6269TIP3    H240443   5.059   6.485   4.418  1.1401 -0.2673 -1.9545
 6270TIP3   OH240444   6.384   5.020   1.562  0.1403 -0.3491  0.2947
 6270TIP3    H140445   6.328   5.072   1.505  1.9015  0.7966 -0.4638
 6270TIP3    H240446   6.329   4.946   1.589 -1.2855 -0.0120 -1.5126
 6271TIP3   OH240447   3.609   6.422   3.145  0.5367 -0.2763 -0.3851
 6271TIP3    H140448   3.622   6.480   3.070 -2.4005  0.6029 -0.3642
 6271TIP3    H240449   3.522   6.385   3.132  0.2156 -0.6450  2.2162
 6272TIP3   OH240450   1.911   6.500   3.358 -0.0757  0.1137  0.7148
 6272TIP3    H140451   1.940   6.422   3.311  0.9398 -0.1460  1.7137
 6272TIP3    H240452   1.862   6.551   3.294  0.5645 -0.6230 -0.3791
 6273TIP3   OH240453   4.857   5.565   2.692  0.3588 -0.1015 -0.3047
 6273TIP3    H140454   4.872   5.471   2.685  0.2673 -0.0755 -0.9406
 6273TIP3    H240455   4.944   5.604   2.685  0.1809  0.0170 -3.3493
 6274TIP3   OH240456   4.549   6.568   4.123  0.0096  0.7045  0.3437
 6274TIP3    H140457   4.482   6.547   4.058  0.1050  0.2785  0.3838
 6274TIP3    H240458   4.521   6.522   4.202  1.5605 -1.4185 -0.2629
 6275TIP3   OH240459   0.125   2.658   1.842  0.1547 -0.3020 -0.5724
 6275TIP3    H140460   0.209   2.638   1.883 -0.2493 -0.6705  0.0791
 6275TIP3    H240461   0.132   2.619   1.754  0.8513  0.1123 -0.7109
 6276TIP3   OH240462   4.895   4.970   2.313 -0.3304  0.0732  0.0793
 6276TIP3    H140463   4.958   4.960   2.241  0.0158  1.9944  0.0484
 6276TIP3    H240464   4.812   4.989   2.270 -0.8935 -2.0559  0.1344
 6277TIP3   OH240465   3.892   4.192   2.498 -0.4167  0.4682  0.2749
 6277TIP3    H140466   3.947   4.137   2.553  2.1334  2.5270 -0.0306
 6277TIP3    H240467   3.856   4.132   2.432  2.3780 -0.8853 -0.1686
 6278TIP3   OH240468   5.912   2.508   4.595 -0.1246 -0.6410 -0.0856
 6278TIP3    H140469   5.977   2.481   4.660  0.0681  0.4704  0.2043
 6278TIP3    H240470   5.963   2.528   4.516 -0.0268  0.7004  0.2878
 6279TIP3   OH240471   3.533   4.482   4.122 -0.2763  0.1486  0.3835
 6279TIP3    H140472   3.477   4.476   4.044 -1.1380  0.2647  0.9836
 6279TIP3    H240473   3.590   4.406   4.116  1.1039  1.2324 -1.4339
 6280TIP3   OH240474   0.596   6.191   0.701  0.1116  0.2016  0.2129
 6280TIP3    H140475   0.553   6.146   0.773  0.7130 -0.9774 -0.1421
 6280TIP3    H240476   0.534   6.185   0.628 -0.8478  2.0995  0.8111
 6281TIP3   OH240477   4.221   6.647   2.101 -0.0512 -0.0800  0.4480
 6281TIP3    H140478   4.171   6.720   2.066  1.9889  1.3213  0.2800
 6281TIP3    H240479   4.163   6.571   2.092 -2.3125  1.5041  0.7978
 6282TIP3   OH240480   1.934   1.473   2.895 -1.0652 -0.1186 -0.0025
 6282TIP3    H140481   1.946   1.564   2.922  1.4011 -0.4428  0.2378
 6282TIP3    H240482   2.010   1.454   2.840  0.7000 -3.0747  3.0631
 6283TIP3   OH240483   1.590   1.858   3.161 -0.0923  0.0100 -0.0939
 6283TIP3    H140484   1.654   1.865   3.091  2.8805 -1.3640  2.2667
 6283TIP3    H240485   1.525   1.796   3.127  0.5467  0.3282 -2.0524
 6284TIP3   OH240486   1.746   1.448   0.417 -0.3230  0.4168  0.1364
 6284TIP3    H140487   1.782   1.367   0.454 -0.9255  0.1974  0.2441
 6284TIP3    H240488   1.823   1.494   0.383 -0.0790 -0.7444 -0.9726
 6285TIP3   OH240489   4.248   1.331   0.480 -0.0878 -0.1908 -0.0641
 6285TIP3    H140490   4.156   1.308   0.496 -0.7454  0.7578 -2.1894
 6285TIP3    H240491   4.268   1.293   0.395  1.4158 -0.1332  0.2495
 6286TIP3   OH240492   1.581   1.075   0.732 -0.4789 -0.0799 -0.5570
 6286TIP3    H140493   1.657   1.020   0.752 -1.3005 -0.7231  0.9859
 6286TIP3    H240494   1.506   1.014   0.735 -1.3567  1.0172  0.7087
 6287TIP3   OH240495   3.098   0.251   4.336  0.2757 -0.0716 -0.0667
 6287TIP3    H140496   3.138   0.310   4.400  0.1736 -1.7093  1.5947
 6287TIP3    H240497   3.042   0.194   4.388  0.0017 -1.3126 -1.6583
 6288TIP3   OH240498   6.033   6.779   5.017 -0.2358 -0.2319  0.2024
 6288TIP3    H140499   6.058   6.865   4.983 -0.2690 -0.4474 -0.3728
 6288TIP3    H240500   5.937   6.780   5.018 -0.2680 -0.6868 -0.9338
 6289TIP3   OH240501   1.381   6.118   1.376 -0.2032 -0.7811 -0.0233
 6289TIP3    H140502   1.292   6.153   1.387  1.0858  2.7911  0.3614
 6289TIP3    H240503   1.401   6.133   1.284  0.7781  0.6638  0.3975
 6290TIP3   OH240504   6.078   6.654   2.934  0.0318 -0.4535  0.4946
 6290TIP3    H140505   6.153   6.632   2.880 -0.1593 -0.0421  0.0578
 6290TIP3    H240506   6.115   6.702   3.009  0.1744  0.0130  0.1271
 6291TIP3   OH240507   3.753   3.803   1.508 -0.8128  0.0239 -0.5727
 6291TIP3    H140508   3.757   3.849   1.591 -1.0063 -0.5383 -0.2464
 6291TIP3    H240509   3.664   3.769   1.503 -0.2438 -1.6178 -0.0830
 6292TIP3   OH240510   3.317   6.762   4.040 -0.7532  0.2943  0.4300
 6292TIP3    H140511   3.348   6.677   4.072 -0.4141  0.6650  1.0959
 6292TIP3    H240512   3.306   6.815   4.118  2.4536  2.0143 -0.1401
 6293TIP3   OH240513   2.040   0.136   2.443 -0.1499  0.2375 -0.2926
 6293TIP3    H140514   2.002   0.143   2.530 -3.2997  0.7418 -1.6002
 6293TIP3    H240515   2.037   0.225   2.408  1.6008  0.1463 -0.8020
 6294TIP3   OH240516   3.608   4.357   0.783  0.1862  0.7546 -0.0661
 6294TIP3    H140517   3.618   4.414   0.859 -0.1503  0.3293  0.3047
 6294TIP3    H240518   3.669   4.285   0.800  0.1135  0.6621 -0.1986
 6295TIP3   OH240519   0.271   1.871   2.453 -0.2014 -0.4684 -0.0951
 6295TIP3    H140520   0.300   1.823   2.374  0.5374  0.5815 -0.4854
 6295TIP3    H240521   0.348   1.922   2.478 -0.5895 -0.4339  1.0460
 6296TIP3   OH240522   5.788   5.582   0.487 -0.2854 -0.0561 -0.3990
 6296TIP3    H140523   5.785   5.535   0.570 -1.9132  0.9998  0.1919
 6296TIP3    H240524   5.822   5.518   0.425 -0.6348 -1.4081  0.7468
 6297TIP3   OH240525   3.168   4.008   3.570 -0.4104  0.2401 -0.3504
 6297TIP3    H140526   3.238   3.980   3.630  0.4665 -2.5805 -2.4963
 6297TIP3    H240527   3.202   3.990   3.483 -3.7251 -1.0926 -1.5188
 6298TIP3   OH240528   0.369   4.536   3.884 -0.5958  0.0205  0.2602
 6298TIP3    H140529   0.390   4.481   3.809  1.5687  0.7219  0.2770
 6298TIP3    H240530   0.277   4.559   3.873 -0.4081 -0.1333 -2.0151
 6299TIP3   OH240531   1.164   4.297   1.669  0.6608  0.1399 -0.6738
 6299TIP3    H140532   1.079   4.342   1.667 -0.3247 -1.6610 -1.4588
 6299TIP3    H240533   1.197   4.304   1.579  0.1855 -1.2162 -0.9755
 6300TIP3   OH240534   4.727   5.979   1.712 -0.1324  0.2032 -0.4671
 6300TIP3    H140535   4.761   5.990   1.800  0.8947  0.3555 -0.8744
 6300TIP3    H240536   4.789   6.025   1.656  0.0302 -1.1290 -1.4245
 6301TIP3   OH240537   3.387   5.295   3.677  0.2669 -0.1011  0.1818
 6301TIP3    H140538   3.456   5.247   3.724 -0.9058 -1.0794  0.9657
 6301TIP3    H240539   3.333   5.332   3.747 -0.8426 -0.5959 -0.3991
 6302TIP3   OH240540   5.397   2.646   2.211  0.1263  0.3476 -0.2792
 6302TIP3    H140541   5.340   2.642   2.134 -2.4120 -1.0540  1.5442
 6302TIP3    H240542   5.456   2.571   2.201 -0.1029  0.2477 -0.9205
 6303TIP3   OH240543   2.865   6.711   0.797 -0.0812  0.2940 -0.3799
 6303TIP3    H140544   2.817   6.786   0.760 -0.6036 -0.1069 -0.5245
 6303TIP3    H240545   2.800   6.641   0.802  0.2143  0.0628  0.4506
 6304TIP3   OH240546   3.996   6.621   1.289 -0.3439  0.0408 -0.9630
 6304TIP3    H140547   4.062   6.653   1.228 -0.4711 -0.9349 -1.6434
 6304TIP3    H240548   4.040   6.620   1.374  0.0755  0.6986 -1.1669
 6305TIP3   OH240549   4.861   2.476   2.412 -0.2048 -0.2106 -0.5343
 6305TIP3    H140550   4.946   2.439   2.435 -0.6722 -0.5621  0.7246
 6305TIP3    H240551   4.798   2.409   2.439 -0.9976  1.0033  0.7927
 6306TIP3   OH240552   6.147   1.880   1.139  0.7150  0.0397  0.1603
 6306TIP3    H140553   6.083   1.945   1.168  1.3430  0.8094 -0.1388
 6306TIP3    H240554   6.206   1.928   1.081  1.0923 -0.8419 -0.2088
 6307TIP3   OH240555   5.169   6.444   3.537 -0.2923  0.3977 -0.0201
 6307TIP3    H140556   5.163   6.373   3.600  0.3134  0.6443  0.3222
 6307TIP3    H240557   5.180   6.401   3.452 -0.5468  0.0744  0.1146
 6308TIP3   OH240558   5.011   1.027   2.322  0.3131 -0.1822 -0.3088
 6308TIP3    H140559   4.966   1.112   2.321  0.8517  0.1215 -1.7241
 6308TIP3    H240560   5.091   1.042   2.273  0.9640 -1.2470  0.4019
 6309TIP3   OH240561   4.328   1.367   1.509 -0.4607  0.5151  0.1297
 6309TIP3    H140562   4.281   1.308   1.450 -0.2212  2.4278 -2.1883
 6309TIP3    H240563   4.271   1.444   1.516  0.2149  0.9428  1.1923
 6310TIP3   OH240564   1.767   2.284   1.032  0.0637 -0.3548 -0.4920
 6310TIP3    H140565   1.762   2.273   0.937  0.5209 -1.0015 -0.4519
 6310TIP3    H240566   1.811   2.204   1.063  0.6562  0.2156  0.1723
 6311TIP3   OH240567   3.954   6.481   3.825  0.1293  0.8486 -0.5334
 6311TIP3    H140568   4.032   6.528   3.853  0.3875  0.2305 -0.1895
 6311TIP3    H240569   3.894   6.487   3.899  0.5843 -0.2811 -0.0521
 6312TIP3   OH240570   2.535   5.112   2.884 -0.4076  0.6224 -0.2863
 6312TIP3    H140571   2.557   5.179   2.819  1.5847  0.7030  0.3911
 6312TIP3    H240572   2.575   5.032   2.851 -2.7171 -0.2859 -1.0519
 6313TIP3   OH240573   5.120   5.372   3.552 -0.1505  0.2232 -0.1881
 6313TIP3    H140574   5.209   5.360   3.585 -0.2002 -0.3681 -0.2419
 6313TIP3    H240575   5.113   5.309   3.480 -0.6857  0.0866 -0.0229
 6314TIP3   OH240576   5.401   3.383   0.630 -0.3107 -0.0787  0.0832
 6314TIP3    H140577   5.465   3.377   0.559 -0.6770 -1.0307 -0.1856
 6314TIP3    H240578   5.446   3.345   0.706  0.3766  1.6818  0.6080
 6315TIP3   OH240579   1.742   2.858   3.417 -0.6557 -0.1361  0.1524
 6315TIP3    H140580   1.759   2.789   3.353 -0.1174 -0.9398  1.1345
 6315TIP3    H240581   1.661   2.898   3.387  0.5576  0.8277 -2.1409
 6316TIP3   OH240582   0.582   2.161   1.204 -0.6956  0.5883 -0.3799
 6316TIP3    H140583   0.593   2.253   1.224  2.1543  0.6713 -1.8125
 6316TIP3    H240584   0.620   2.150   1.117  1.3035 -2.2966  0.6813
 6317TIP3   OH240585   2.442   4.350   1.437 -0.3325 -0.3502  0.3115
 6317TIP3    H140586   2.510   4.381   1.377  0.1245 -0.9140  0.5231
 6317TIP3    H240587   2.364   4.342   1.382 -1.2606  3.6609  0.7389
 6318TIP3   OH240588   3.824   1.814   1.214 -0.3701  0.3004 -1.0380
 6318TIP3    H140589   3.887   1.743   1.204 -0.6454 -0.1342  0.0952
 6318TIP3    H240590   3.858   1.866   1.287 -1.8144 -0.5604  0.3415
 6319TIP3   OH240591   6.117   5.585   2.582 -0.2204  0.0866 -0.2251
 6319TIP3    H140592   6.110   5.639   2.502 -0.1125 -0.5504 -0.6714
 6319TIP3    H240593   6.139   5.498   2.550  1.9485  0.2626  0.6010
 6320TIP3   OH240594   0.112   2.868   2.815 -0.6320  0.4297  0.5612
 6320TIP3    H140595   0.174   2.835   2.880 -2.0343 -0.6041  1.4298
 6320TIP3    H240596   0.114   2.804   2.744 -0.3895  0.6213  0.3963
 6321TIP3   OH240597   4.713   3.763   1.543 -0.5092  0.1397 -0.1136
 6321TIP3    H140598   4.681   3.805   1.463  0.4310  0.3247 -0.3962
 6321TIP3    H240599   4.796   3.724   1.518  0.2581  1.0018  1.0062
 6322TIP3   OH240600   6.338   2.353   4.120 -0.0335  0.8607  0.4550
 6322TIP3    H140601   6.369   2.378   4.033  0.2330  0.2597  0.3713
 6322TIP3    H240602   6.418   2.339   4.171 -0.1556 -0.4615  0.3099
 6323TIP3   OH240603   1.223   3.992   2.766 -0.4082 -0.5712 -0.4044
 6323TIP3    H140604   1.242   3.915   2.711 -1.2657 -0.4075 -0.9429
 6323TIP3    H240605   1.204   3.955   2.852  2.3237 -0.7571  0.2129
 6324TIP3   OH240606   2.336   4.304   2.190  0.1377 -0.0614  0.3349
 6324TIP3    H140607   2.408   4.285   2.250  0.0791  1.3358  0.8880
 6324TIP3    H240608   2.340   4.234   2.124  1.7877 -0.1850  0.5336
 6325TIP3   OH240609   0.813   5.606   2.704  0.0766  0.1039 -0.0248
 6325TIP3    H140610   0.754   5.661   2.652  0.8674 -0.0445 -1.1057
 6325TIP3    H240611   0.822   5.525   2.654 -0.3939 -0.7029  1.1334
 6326TIP3   OH240612   0.628   2.675   3.385  0.1759  0.5234 -0.3219
 6326TIP3    H140613   0.535   2.691   3.402  0.1080  1.7117 -1.5385
 6326TIP3    H240614   0.672   2.755   3.415  0.6681  0.4103 -0.7228
 6327TIP3   OH240615   4.902   1.017   1.975 -0.3268  0.0021  0.5373
 6327TIP3    H140616   4.885   0.931   1.938 -0.1794 -0.9670  2.5456
 6327TIP3    H240617   4.996   1.017   1.993 -0.3357  0.5583  0.6054
 6328TIP3   OH240618   2.745   5.158   3.337 -0.6178 -0.2953 -0.2719
 6328TIP3    H140619   2.759   5.118   3.423  0.4784 -0.7113 -0.6333
 6328TIP3    H240620   2.799   5.238   3.340 -0.0388 -0.6610 -0.8084
 6329TIP3   OH240621   6.255   0.761   3.136  0.0622  0.0109  0.5250
 6329TIP3    H140622   6.253   0.837   3.079 -1.4783 -1.4420 -1.5188
 6329TIP3    H240623   6.194   0.782   3.207 -0.4384  0.6209 -0.0781
 6330TIP3   OH240624   3.191   2.079   3.923  0.0052 -0.2535  0.0407
 6330TIP3    H140625   3.150   2.017   3.862  2.3466  0.2960 -2.3188
 6330TIP3    H240626   3.119   2.131   3.957 -1.4640 -0.3095 -2.6700
 6331TIP3   OH240627   0.267   1.083   0.722 -0.4952 -0.1514  0.3618
 6331TIP3    H140628   0.300   1.149   0.661  3.8320  0.3035  2.8249
 6331TIP3    H240629   0.199   1.128   0.772 -0.1483  1.2901 -0.4164
 6332TIP3   OH240630   3.622   5.393   4.514  0.0051  0.1340  0.1938
 6332TIP3    H140631   3.659   5.322   4.566 -0.6843 -1.4955 -1.4322
 6332TIP3    H240632   3.698   5.430   4.468  0.2007 -0.4582  0.0260
 6333TIP3   OH240633   3.209   4.506   0.162 -0.4652  0.2037 -0.0811
 6333TIP3    H140634   3.150   4.579   0.176  0.4090  0.9864 -0.4002
 6333TIP3    H240635   3.180   4.439   0.225 -0.2714  1.4281  1.3652
 6334TIP3   OH240636   2.577   3.715   1.536  0.6482  0.2466  0.2144
 6334TIP3    H140637   2.597   3.636   1.586  1.7130  0.6092  0.4066
 6334TIP3    H240638   2.535   3.684   1.456 -0.2077 -0.4071  0.8985
 6335TIP3   OH240639   1.789   4.448   2.677  0.9903 -0.6547  0.0333
 6335TIP3    H140640   1.765   4.364   2.639  1.1192 -0.2620 -0.9365
 6335TIP3    H240641   1.763   4.441   2.769  1.7989 -2.0772  0.1892
 6336TIP3   OH240642   2.187   2.848   2.238 -0.0810 -0.2953  0.2830
 6336TIP3    H140643   2.263   2.870   2.185 -1.6844  1.8203 -1.2963
 6336TIP3    H240644   2.134   2.928   2.239 -2.1386 -1.5789  1.5804
 6337TIP3   OH240645   6.074   4.824   3.489 -0.1461 -0.5811 -0.1469
 6337TIP3    H140646   6.151   4.878   3.474 -0.5736 -0.0066 -0.3069
 6337TIP3    H240647   6.087   4.788   3.577  0.9539 -1.5946 -0.6943
 6338TIP3   OH240648   1.278   1.408   3.042 -0.1695  0.2192 -0.1736
 6338TIP3    H140649   1.240   1.327   3.075 -1.3695  1.3559  1.3862
 6338TIP3    H240650   1.356   1.380   2.993  0.2415 -1.7622  1.4780
 6339TIP3   OH240651   0.450   4.710   2.938  0.2062  0.1767  0.0840
 6339TIP3    H140652   0.391   4.673   3.003  0.8809 -1.4707 -0.2084
 6339TIP3    H240653   0.503   4.637   2.908 -0.3499  0.7801 -2.6309
 6340TIP3   OH240654   2.165   3.209   1.425 -0.0019  0.3412 -0.3752
 6340TIP3    H140655   2.235   3.241   1.481 -0.6436  3.4594 -1.1411
 6340TIP3    H240656   2.086   3.214   1.479  0.1687 -2.5443  0.2826
 6341TIP3   OH240657   2.357   4.497   2.919 -0.0625 -0.1066  0.3010
 6341TIP3    H140658   2.408   4.576   2.898  0.5757 -0.5127  0.3026
 6341TIP3    H240659   2.407   4.453   2.987 -0.6999 -0.2403  0.6972
 6342TIP3   OH240660   4.807   4.988   4.218 -0.3287  0.5397 -0.5161
 6342TIP3    H140661   4.808   4.963   4.126 -0.0376  2.8323 -1.1840
 6342TIP3    H240662   4.793   5.082   4.218  1.9671  0.9964  1.6733
 6343TIP3   OH240663   4.165   4.617   3.858  0.0980 -0.1157 -0.0585
 6343TIP3    H140664   4.120   4.692   3.819  0.3569 -0.3082 -0.7390
 6343TIP3    H240665   4.169   4.552   3.787  0.7561 -0.3921  0.2283
 6344TIP3   OH240666   1.020   6.517   1.106  0.2000 -0.8230  0.1340
 6344TIP3    H140667   0.926   6.529   1.112  0.3469  0.8320 -0.5059
 6344TIP3    H240668   1.053   6.530   1.195 -0.0533 -0.1646  0.1322
 6345TIP3   OH240669   2.247   5.447   1.420 -0.7072  0.0594  0.6267
 6345TIP3    H140670   2.160   5.407   1.409 -0.7896  0.3041  0.3910
 6345TIP3    H240671   2.234   5.539   1.395 -0.1875 -0.0951 -0.2430
 6346TIP3   OH240672   2.818   0.387   4.468  0.3457  0.1348  0.7374
 6346TIP3    H140673   2.857   0.307   4.432 -0.5118 -1.3452  2.9065
 6346TIP3    H240674   2.886   0.453   4.457  1.5984 -1.1929  0.0629
 6347TIP3   OH240675   3.758   3.338   4.988  0.4360 -0.2686  0.0618
 6347TIP3    H140676   3.795   3.354   4.901 -1.9124 -0.4865 -1.0372
 6347TIP3    H240677   3.719   3.251   4.982 -0.9830  0.2906  0.8687
 6348TIP3   OH240678   1.578   2.485   4.060 -0.4728 -0.2907 -0.0112
 6348TIP3    H140679   1.670   2.470   4.041 -0.0408  1.3832  0.5735
 6348TIP3    H240680   1.534   2.479   3.975  0.3919  0.3090 -0.5090
 6349TIP3   OH240681   2.160   4.472   2.722  0.3800  0.4287 -0.0848
 6349TIP3    H140682   2.176   4.566   2.712  1.9643 -0.0080 -2.0892
 6349TIP3    H240683   2.224   4.444   2.787 -0.5854  0.8145  1.0787
 6350TIP3   OH240684   1.095   0.312   1.315 -0.5645  0.4251  0.0642
 6350TIP3    H140685   1.032   0.340   1.381 -0.8457  0.5083 -0.2344
 6350TIP3    H240686   1.132   0.394   1.281  0.0201  0.3651  0.5342
 6351TIP3   OH240687   2.610   2.122   4.670 -0.2411 -0.3882 -0.2882
 6351TIP3    H140688   2.519   2.095   4.665  0.4048 -2.8077  0.0718
 6351TIP3    H240689   2.638   2.097   4.758  0.9209 -0.1274 -0.5640
 6352TIP3   OH240690   3.777   2.858   8.426 -0.0306 -0.2482 -0.3997
 6352TIP3    H140691   3.747   2.811   8.348 -1.0066  0.1415 -0.2655
 6352TIP3    H240692   3.730   2.817   8.499  0.0597  0.1134 -0.1367
 6353TIP3   OH240693   4.808   1.008   1.503 -0.3433  0.4496 -0.2254
 6353TIP3    H140694   4.869   0.936   1.517 -0.2025  0.7087  0.5463
 6353TIP3    H240695   4.723   0.974   1.529 -0.3549  0.4236 -0.2958
 6354TIP3   OH240696   5.497   3.018   0.675  0.8008  1.0161  0.1950
 6354TIP3    H140697   5.491   2.930   0.712  0.8056  1.1406  0.4958
 6354TIP3    H240698   5.455   3.011   0.589  1.4183  0.5641 -0.0757
 6355TIP3   OH240699   3.663   4.687   0.980 -0.4063  0.4645 -0.0638
 6355TIP3    H140700   3.691   4.597   0.995  0.8179  0.9598  0.7683
 6355TIP3    H240701   3.702   4.711   0.896  0.4677  0.6676  0.3890
 6356TIP3   OH240702   2.159   3.781   1.683  0.3301  0.1719 -0.3820
 6356TIP3    H140703   2.200   3.853   1.729 -2.7915  2.4341 -0.8076
 6356TIP3    H240704   2.164   3.805   1.590 -0.8799 -0.0243 -0.5181
 6357TIP3   OH240705   2.349   4.957   2.276  0.0917 -0.1812 -0.2168
 6357TIP3    H140706   2.380   4.901   2.204 -1.2622  0.5001 -1.3818
 6357TIP3    H240707   2.361   5.046   2.243 -1.7081  0.1177 -0.1515
 6358TIP3   OH240708   5.456   4.989   5.324  0.8211 -0.1076 -0.3490
 6358TIP3    H140709   5.443   4.942   5.242  0.2701 -0.1237 -0.2547
 6358TIP3    H240710   5.551   4.994   5.334  0.9099  0.4405 -1.3014
 6359TIP3   OH240711   1.932   5.870   1.356 -0.2556  0.1244  0.5432
 6359TIP3    H140712   1.853   5.823   1.328  0.4627 -1.3255  0.8558
 6359TIP3    H240713   1.900   5.938   1.416 -1.3362  0.1366 -0.0194
 6360TIP3   OH240714   4.926   1.213   2.608  0.1312 -0.6789 -0.2616
 6360TIP3    H140715   4.905   1.290   2.662  2.4040 -0.2331  0.0876
 6360TIP3    H240716   4.921   1.244   2.518  1.4061  0.0069 -0.1094
 6361TIP3   OH240717   3.195   0.184   2.203 -0.3681  0.4776  0.2904
 6361TIP3    H140718   3.148   0.202   2.284  0.0492 -1.6279  1.0571
 6361TIP3    H240719   3.278   0.231   2.211 -0.5037  0.6144  0.9067
 6362TIP3   OH240720   2.909   6.411   3.345 -0.1328  0.0408 -0.5861
 6362TIP3    H140721   2.921   6.325   3.305  1.5961 -0.7882  1.5046
 6362TIP3    H240722   2.996   6.450   3.345 -0.6269  1.2071 -0.1952
 6363TIP3   OH240723   4.624   4.121   1.981 -0.1244 -0.0505 -0.4872
 6363TIP3    H140724   4.566   4.123   1.905 -1.6199 -0.0246  0.6186
 6363TIP3    H240725   4.706   4.085   1.947 -0.9305 -0.5765 -1.9857
 6364TIP3   OH240726   3.095   4.942   3.145  0.0189  0.1664  0.3259
 6364TIP3    H140727   3.104   4.994   3.225  1.1261  0.4847  0.0142
 6364TIP3    H240728   3.014   4.974   3.105 -0.2218  0.4321  1.0084
 6365TIP3   OH240729   5.665   2.808   2.701 -0.4352 -0.1731  0.0960
 6365TIP3    H140730   5.712   2.882   2.740 -0.1231 -0.1854 -0.2576
 6365TIP3    H240731   5.707   2.795   2.616 -1.0831 -0.1720 -0.2320
 6366TIP3   OH240732   6.170   1.212   0.116  0.0794  0.0924 -0.0407
 6366TIP3    H140733   6.119   1.293   0.105  1.7381  1.5138  1.8514
 6366TIP3    H240734   6.258   1.243   0.139  0.4639 -2.2366  2.0135
 6367TIP3   OH240735   6.246   5.592   0.960 -0.2397 -0.3005  0.3209
 6367TIP3    H140736   6.340   5.610   0.952 -0.3358  0.0664 -0.0059
 6367TIP3    H240737   6.222   5.550   0.878 -0.5277  0.3693  0.0486
 6368TIP3   OH240738   2.155   6.780   0.713  0.5178  0.3856 -0.6653
 6368TIP3    H140739   2.124   6.753   0.627 -0.3508 -0.1459 -0.2060
 6368TIP3    H240740   2.085   6.837   0.746  0.6355  0.2376 -0.1481
 6369TIP3   OH240741   2.050   3.376   1.123  1.0690  0.6209 -0.4010
 6369TIP3    H140742   2.016   3.292   1.155 -1.6202  1.8774  0.2799
 6369TIP3    H240743   2.144   3.371   1.140  0.6683 -1.3236  1.7798
 6370TIP3   OH240744   2.169   6.806   2.071  0.2971 -0.2574  0.2856
 6370TIP3    H140745   2.123   6.759   2.140 -1.2916 -0.2971 -0.7391
 6370TIP3    H240746   2.108   6.806   1.997  1.9539 -0.3077 -1.1593
 6371TIP3   OH240747   3.520   3.616   0.702 -0.0112  0.1139 -0.2692
 6371TIP3    H140748   3.540   3.656   0.786 -1.0246 -0.3904  0.2236
 6371TIP3    H240749   3.431   3.645   0.682  0.0147 -0.2209 -0.8992
 6372TIP3   OH240750   1.857   2.420   4.042  0.1070  0.1612  0.0375
 6372TIP3    H140751   1.875   2.489   3.978  0.2736  0.7448  0.7006
 6372TIP3    H240752   1.919   2.351   4.021 -0.9067 -0.3390 -1.4470
 6373TIP3   OH240753   3.764   4.017   3.575 -0.3891 -0.4481 -0.6152
 6373TIP3    H140754   3.797   4.068   3.501  1.2515 -2.1923 -1.1537
 6373TIP3    H240755   3.764   3.927   3.544 -1.6433 -0.9895  0.8516
 6374TIP3   OH240756   6.198   1.623   2.194 -0.0684 -0.0783 -0.1940
 6374TIP3    H140757   6.162   1.545   2.236 -0.7808  0.4208  0.1374
 6374TIP3    H240758   6.213   1.684   2.266 -0.0324  0.2945 -0.5119
 6375TIP3   OH240759   3.780   6.363   2.618  0.3987 -0.1426 -0.1202
 6375TIP3    H140760   3.686   6.365   2.637  0.6911  0.5371  1.4831
 6375TIP3    H240761   3.790   6.416   2.540 -0.4269  0.8186  0.4016
 6376TIP3   OH240762   0.918   6.365   3.930 -0.1425 -0.4827 -0.1967
 6376TIP3    H140763   0.863   6.355   3.852 -0.7848  1.2553  0.0038
 6376TIP3    H240764   0.857   6.358   4.004  0.3117 -1.1185  0.1248
 6377TIP3   OH240765   5.890   4.813   1.711  0.1883 -0.0053 -0.1631
 6377TIP3    H140766   5.882   4.843   1.801  1.1607 -1.1765  0.3453
 6377TIP3    H240767   5.835   4.734   1.706 -0.3484  0.3921 -0.7768
 6378TIP3   OH240768   0.428   6.612   0.639 -0.4081 -0.0108  0.2823
 6378TIP3    H140769   0.458   6.698   0.608 -2.0763  0.3184 -0.5071
 6378TIP3    H240770   0.377   6.577   0.566 -1.5866 -0.7264  1.4162
 6379TIP3   OH240771   2.921   0.020   4.884 -0.7360  0.0011  0.5465
 6379TIP3    H140772   2.954  -0.059   4.842  1.1368 -0.2679  2.3523
 6379TIP3    H240773   2.896   0.077   4.811  1.1918 -0.8895 -0.9085
 6380TIP3   OH240774   3.982   3.248   2.962 -0.6089  0.3062 -0.2359
 6380TIP3    H140775   3.907   3.240   3.021 -0.9897 -0.8042 -0.8328
 6380TIP3    H240776   4.022   3.162   2.961 -0.1884  0.4916 -1.0427
 6381TIP3   OH240777   3.523   1.877   3.285  0.0296  0.6837 -0.4593
 6381TIP3    H140778   3.477   1.864   3.368  0.6733  1.4796  0.0220
 6381TIP3    H240779   3.527   1.789   3.247  0.8533  0.0930  0.9379
 6382TIP3   OH240780   3.725   0.674   4.001  0.2207  0.9593  0.0516
 6382TIP3    H140781   3.789   0.651   4.068  2.1153  0.1804 -1.8948
 6382TIP3    H240782   3.777   0.709   3.929 -1.5465  0.4246 -1.5846
 6383TIP3   OH240783   5.975   4.699   3.696 -0.0439  0.1634  0.2025
 6383TIP3    H140784   5.976   4.695   3.792 -0.7600  0.7402  0.2430
 6383TIP3    H240785   5.912   4.768   3.675 -2.4640 -2.1344 -0.7140
 6384TIP3   OH240786   4.273   2.399   3.301  0.2142 -0.0359 -0.1847
 6384TIP3    H140787   4.262   2.308   3.327 -3.2270 -0.3126 -1.9745
 6384TIP3    H240788   4.335   2.396   3.228  1.5076 -0.6491  0.9075
 6385TIP3   OH240789   5.820   0.381   4.078 -0.0622 -0.0168  0.4086
 6385TIP3    H140790   5.775   0.309   4.035 -1.9595 -0.3205  2.6622
 6385TIP3    H240791   5.752   0.448   4.091  1.6213  2.2502 -1.5613
 6386TIP3   OH240792   5.940   2.135   4.496 -0.1994 -0.6545  0.3924
 6386TIP3    H140793   5.947   2.226   4.523 -1.5966 -0.3265 -0.3010
 6386TIP3    H240794   5.866   2.100   4.546  0.3497 -1.4443  0.6921
 6387TIP3   OH240795   4.632   5.785   0.510  0.3520 -0.3985  0.0123
 6387TIP3    H140796   4.544   5.751   0.492  0.6160 -0.7017 -0.7260
 6387TIP3    H240797   4.620   5.880   0.511  0.2140 -0.3784 -1.2820
 6388TIP3   OH240798   4.923   6.613   1.666 -0.0558 -0.1983  0.5992
 6388TIP3    H140799   4.856   6.546   1.680  0.4105 -1.1734 -1.5001
 6388TIP3    H240800   4.993   6.568   1.618 -0.3983  2.1064 -2.3467
 6389TIP3   OH240801   6.061   6.476   1.464  0.7968 -0.1181 -0.2388
 6389TIP3    H140802   6.057   6.514   1.552 -3.8391  0.9813 -0.6561
 6389TIP3    H240803   6.038   6.384   1.477 -0.0259  0.0755 -0.2577
 6390TIP3   OH240804   3.876   3.480   3.775 -0.2240 -0.1170 -0.1572
 6390TIP3    H140805   3.838   3.466   3.688  0.0182  1.6604 -0.5725
 6390TIP3    H240806   3.950   3.539   3.760 -0.0299  0.0205  1.2252
 6391TIP3   OH240807   4.075   2.606   0.824  0.4022 -0.4683 -0.4441
 6391TIP3    H140808   4.049   2.540   0.760  1.1404  0.4063 -1.6911
 6391TIP3    H240809   4.058   2.690   0.780  0.1331  0.1723  0.8423
 6392TIP3   OH240810   6.648   2.720   1.284  0.1146 -0.9209 -0.1018
 6392TIP3    H140811   6.734   2.691   1.254  0.1719 -1.3483  0.4574
 6392TIP3    H240812   6.666   2.787   1.349 -0.0219  0.5849 -1.5590
 6393TIP3   OH240813   6.036   6.143   4.380 -0.3562 -0.1612 -0.3384
 6393TIP3    H140814   5.952   6.098   4.375 -0.1105 -0.6815  0.0152
 6393TIP3    H240815   6.039   6.199   4.303 -1.6405  0.9615  0.3976
 6394TIP3   OH240816   0.924   5.721   0.539  0.4690  0.2977 -0.4689
 6394TIP3    H140817   0.870   5.773   0.480 -1.5511 -0.9900  0.1107
 6394TIP3    H240818   0.871   5.714   0.619  2.1913  0.2196  0.7273
 6395TIP3   OH240819   4.648   5.025   2.211  0.0047  0.6014 -0.2569
 6395TIP3    H140820   4.654   4.992   2.121  0.7440 -0.4757  0.1640
 6395TIP3    H240821   4.556   5.013   2.234 -0.0579  0.2727 -0.6486
 6396TIP3   OH240822   0.682   5.068   4.411 -0.3985 -0.3790 -0.0554
 6396TIP3    H140823   0.627   5.080   4.488 -2.2856  1.4517 -1.5610
 6396TIP3    H240824   0.722   5.153   4.395 -0.9269 -0.3927 -1.6898
 6397TIP3   OH240825   5.374   2.455   3.281 -0.2705  0.5143  0.3130
 6397TIP3    H140826   5.469   2.459   3.283 -0.1299 -1.7244  1.3174
 6397TIP3    H240827   5.349   2.505   3.204  1.5584  2.7816  1.0865
 6398TIP3   OH240828   6.825   5.479   0.493  0.0266  0.3412  0.2284
 6398TIP3    H140829   6.746   5.486   0.440 -0.7021  0.4036  1.2834
 6398TIP3    H240830   6.836   5.385   0.508 -0.3771  0.3808  0.8240
 6399TIP3   OH240831   4.881   1.815   1.093 -0.4077  0.6726  0.1464
 6399TIP3    H140832   4.835   1.785   1.014  0.9185 -1.3820  0.0806
 6399TIP3    H240833   4.868   1.744   1.156  0.2976  1.3406  1.0702
 6400TIP3   OH240834   3.580   0.505   8.804  0.7883  0.3544 -0.3501
 6400TIP3    H140835   3.616   0.562   8.736  1.3096 -1.1754 -1.3991
 6400TIP3    H240836   3.519   0.448   8.759  1.5329 -1.0457  0.3248
 6401TIP3   OH240837   5.880   1.692   1.412  0.2643 -1.0721 -0.2769
 6401TIP3    H140838   5.958   1.728   1.453 -0.2430  1.5304 -1.3533
 6401TIP3    H240839   5.885   1.598   1.427  2.6698 -0.7817  1.1969
 6402TIP3   OH240840   0.478   6.158   0.470  0.1458  0.2759  0.0079
 6402TIP3    H140841   0.552   6.114   0.428 -1.9175 -2.1043 -1.4497
 6402TIP3    H240842   0.439   6.210   0.401 -0.2144  0.6001  0.4503
 6403TIP3   OH240843   0.580   0.052   0.900 -0.0021  0.2348 -0.2139
 6403TIP3    H140844   0.567   0.135   0.854  1.0489  0.7456  0.3689
 6403TIP3    H240845   0.507   0.046   0.961 -0.8762  0.0140 -1.2380
 6404TIP3   OH240846   6.295   4.947   1.916  0.1932 -0.7438 -1.3580
 6404TIP3    H140847   6.300   5.038   1.887  0.8434 -0.4133 -0.2651
 6404TIP3    H240848   6.367   4.937   1.978 -0.7255 -1.6108 -0.3895
 6405TIP3   OH240849   2.944   6.446   0.668  0.2568 -0.4027 -0.0162
 6405TIP3    H140850   2.934   6.534   0.705  3.2774  0.5996 -1.3104
 6405TIP3    H240851   2.935   6.387   0.743 -1.3549  0.9767  0.9525
 6406TIP3   OH240852   6.730   6.022   0.979  0.2048 -0.2208  0.0809
 6406TIP3    H140853   6.802   6.050   0.923 -0.5754  0.3634 -0.6637
 6406TIP3    H240854   6.661   6.087   0.964 -1.1124 -1.7006 -0.5353
 6407TIP3   OH240855   3.473   5.765   1.969 -0.0431  1.3339  0.4867
 6407TIP3    H140856   3.444   5.852   1.943 -0.0982  1.0611 -0.4122
 6407TIP3    H240857   3.569   5.772   1.975 -0.1420  1.8367  1.9397
 6408TIP3   OH240858   0.734   2.212   0.224 -0.3720 -1.1140  0.2793
 6408TIP3    H140859   0.811   2.266   0.204 -0.8765 -0.7866 -0.8534
 6408TIP3    H240860   0.660   2.265   0.196 -1.1090 -0.9844  2.3427
 6409TIP3   OH240861   6.555   3.131   0.395  0.3754 -0.1739 -0.0148
 6409TIP3    H140862   6.647   3.153   0.380  1.0644 -2.6148  0.2515
 6409TIP3    H240863   6.519   3.208   0.438  2.2221  0.9467 -0.3749
 6410TIP3   OH240864   2.205   4.907   2.482  0.5229 -0.3435  0.0251
 6410TIP3    H140865   2.253   4.950   2.410 -0.5257  1.5326  0.3714
 6410TIP3    H240866   2.139   4.855   2.438 -0.9251  1.7648 -0.4534
 6411TIP3   OH240867   4.508   3.360   2.000  0.8271  0.8063  0.0390
 6411TIP3    H140868   4.464   3.303   2.063  1.1281 -0.5187 -0.9032
 6411TIP3    H240869   4.521   3.442   2.047  1.0246 -0.1280  1.7093
 6412TIP3   OH240870   0.956   1.420   4.688 -0.0068  0.8303 -0.3710
 6412TIP3    H140871   1.035   1.471   4.675 -0.6651  1.5215 -1.9075
 6412TIP3    H240872   0.971   1.340   4.639  0.6881 -0.1596  1.3572
 6413TIP3   OH240873   4.630   0.711   1.377 -0.2449  0.6602  0.0079
 6413TIP3    H140874   4.703   0.673   1.426  0.4960  1.1064 -0.7309
 6413TIP3    H240875   4.593   0.776   1.437  2.4385  3.2923 -0.9385
 6414TIP3   OH240876   3.370   2.771   2.106 -0.1167 -0.3927  0.1895
 6414TIP3    H140877   3.299   2.753   2.169 -0.4025 -2.6176 -0.6958
 6414TIP3    H240878   3.427   2.695   2.112  1.6706  0.8719  0.0790
 6415TIP3   OH240879   6.449   1.047   1.799 -0.0401  0.0800 -0.0621
 6415TIP3    H140880   6.429   0.954   1.800  1.1981 -0.4200 -3.8290
 6415TIP3    H240881   6.544   1.050   1.809 -0.1015  0.9450  0.2770
 6416TIP3   OH240882   4.602   3.044   0.607  0.6488  0.2789  0.4414
 6416TIP3    H140883   4.642   2.974   0.555 -0.6698  0.0540 -0.3084
 6416TIP3    H240884   4.616   3.123   0.554 -0.6020  0.0664 -0.2380
 6417TIP3   OH240885   0.522   4.975   2.748 -0.0793  0.2146 -0.1898
 6417TIP3    H140886   0.565   4.890   2.762 -1.7744 -0.6291  0.1067
 6417TIP3    H240887   0.532   5.020   2.832 -0.0272 -0.1053 -0.0189
 6418TIP3   OH240888   1.808   5.346   4.336  0.5643  0.0782  0.8273
 6418TIP3    H140889   1.749   5.359   4.411 -0.2894  0.6931  0.0681
 6418TIP3    H240890   1.750   5.322   4.264  0.7923  3.6851 -0.7478
 6419TIP3   OH240891   3.126   2.251   0.879 -0.1481 -0.3802  0.6509
 6419TIP3    H140892   3.161   2.263   0.790 -2.4276  1.7537 -0.0928
 6419TIP3    H240893   3.032   2.235   0.866 -0.3517 -1.0798  2.6647
 6420TIP3   OH240894   3.659   5.444   1.496  0.1851 -0.1000  0.0324
 6420TIP3    H140895   3.725   5.399   1.443  0.1888  0.1635 -0.1875
 6420TIP3    H240896   3.589   5.464   1.433 -0.5039 -1.1676  0.4295
 6421TIP3   OH240897   4.733   0.525   2.082  0.4168 -0.4285  0.3594
 6421TIP3    H140898   4.690   0.461   2.139 -2.3034  0.5989 -0.4149
 6421TIP3    H240899   4.788   0.472   2.024 -1.5965 -2.1061 -0.1373
 6422TIP3   OH240900   1.531   1.598   0.478 -0.0813 -0.0255  0.1140
 6422TIP3    H140901   1.618   1.559   0.490  0.6591  1.5716  0.2296
 6422TIP3    H240902   1.471   1.538   0.522  0.9157 -1.3076 -0.2178
 6423TIP3   OH240903   3.402   6.105   3.091 -0.0883 -0.4480  0.0211
 6423TIP3    H140904   3.472   6.040   3.085  0.1741 -0.1675 -0.0389
 6423TIP3    H240905   3.331   6.070   3.038  0.1266 -0.5926 -0.1733
 6424TIP3   OH240906   0.170   4.650   3.304 -0.0303  0.8078 -0.8508
 6424TIP3    H140907   0.139   4.672   3.392 -0.0786  1.4620 -1.0222
 6424TIP3    H240908   0.262   4.625   3.316 -0.0975  0.6904 -0.5875
 6425TIP3   OH240909   5.085   0.404   4.010  0.1113  0.3720  0.3050
 6425TIP3    H140910   5.040   0.440   4.087 -0.7508 -0.0383  0.0044
 6425TIP3    H240911   5.155   0.349   4.047 -0.6022 -0.2075  0.8119
 6426TIP3   OH240912   3.513   1.816   3.559 -0.0675 -0.1913  0.1658
 6426TIP3    H140913   3.518   1.807   3.654 -0.7521 -1.4068  0.1101
 6426TIP3    H240914   3.593   1.777   3.526  0.5800  1.0178  0.2689
 6427TIP3   OH240915   5.750   4.148   4.382  0.0263 -0.2167  0.1191
 6427TIP3    H140916   5.843   4.169   4.369 -0.3604  0.6078 -1.6969
 6427TIP3    H240917   5.732   4.173   4.472  1.2642  0.9114  0.0841
 6428TIP3   OH240918   2.798   2.151   1.984  0.0982 -0.4820  0.0290
 6428TIP3    H140919   2.798   2.096   2.061 -0.0139 -0.4701  0.0382
 6428TIP3    H240920   2.706   2.159   1.960  0.1702 -0.8885 -0.3951
 6429TIP3   OH240921   0.496   0.298   0.780 -0.1170 -0.5139  0.0862
 6429TIP3    H140922   0.444   0.368   0.740  0.6396 -0.7769 -1.4121
 6429TIP3    H240923   0.553   0.267   0.710  0.3250 -1.9117  1.0243
 6430TIP3   OH240924   4.192   4.637   1.575  0.1936 -0.2044 -0.2909
 6430TIP3    H140925   4.288   4.631   1.575  0.1262 -2.1876 -1.2514
 6430TIP3    H240926   4.172   4.694   1.500  0.6094 -0.8123 -0.8774
 6431TIP3   OH240927   1.862   0.396   0.017 -0.3317 -0.1729  0.0370
 6431TIP3    H140928   1.920   0.459  -0.026 -0.4604  0.7423  1.1426
 6431TIP3    H240929   1.774   0.432   0.005 -0.8234 -1.9750 -2.3375
 6432TIP3   OH240930   3.063   3.192   0.245  0.4554  0.4724 -0.3603
 6432TIP3    H140931   3.152   3.162   0.228  0.6041  1.9001 -2.3974
 6432TIP3    H240932   3.068   3.235   0.330  1.8420  0.9689 -0.6677
 6433TIP3   OH240933   6.413   2.848   0.676 -0.5619 -0.4851 -0.0559
 6433TIP3    H140934   6.483   2.892   0.724  0.3372 -0.9143 -0.9400
 6433TIP3    H240935   6.388   2.774   0.732  2.1875 -2.4864 -1.2370
 6434TIP3   OH240936   6.599   4.830   2.022  0.0088  0.8459 -0.2386
 6434TIP3    H140937   6.675   4.810   2.077 -0.8703  0.3733  0.8602
 6434TIP3    H240938   6.564   4.911   2.058 -1.7542 -0.5102  1.2918
 6435TIP3   OH240939   0.210   4.371   2.269 -0.0668  0.1821 -0.4793
 6435TIP3    H140940   0.286   4.414   2.308  1.4458 -1.4525 -1.4673
 6435TIP3    H240941   0.173   4.436   2.210  0.6095  0.9896 -0.0346
 6436TIP3   OH240942   0.423   1.969   3.956 -0.5201  0.2455  0.0550
 6436TIP3    H140943   0.491   1.962   3.889  0.7294  1.4450  1.1510
 6436TIP3    H240944   0.453   1.911   4.026  0.0315  1.6588  1.0389
 6437TIP3   OH240945   3.869   6.189   1.025  0.0491 -0.1224  0.4597
 6437TIP3    H140946   3.900   6.104   1.056 -0.6460 -0.7714 -0.5994
 6437TIP3    H240947   3.842   6.235   1.105 -1.0007 -1.4784  0.9217
 6438TIP3   OH240948   0.864   5.622   3.831  0.0435  0.2353  0.7975
 6438TIP3    H140949   0.824   5.704   3.801 -1.4652 -0.9330 -0.6027
 6438TIP3    H240950   0.952   5.646   3.859 -0.1798  2.2376 -0.0928
 6439TIP3   OH240951   6.490   5.949   4.135 -0.9403  0.3159  0.3023
 6439TIP3    H140952   6.412   5.894   4.124 -0.5984  0.0909 -1.2250
 6439TIP3    H240953   6.462   6.020   4.193 -2.1995  0.1018 -0.0236
 6440TIP3   OH240954   1.380   5.337   4.863 -0.6957 -0.1341  0.4028
 6440TIP3    H140955   1.388   5.244   4.883  2.8652  0.2108  1.1762
 6440TIP3    H240956   1.418   5.346   4.775  1.8122  0.8708  1.4940
 6441TIP3   OH240957   4.850   1.635   3.998 -0.2837 -0.0929 -0.9676
 6441TIP3    H140958   4.867   1.700   4.067 -1.9475 -0.6358  0.0164
 6441TIP3    H240959   4.937   1.613   3.964  0.5425  0.6364  0.5582
 6442TIP3   OH240960   0.338   5.330   1.181  0.1190 -0.1569 -0.3560
 6442TIP3    H140961   0.286   5.260   1.222  0.3731 -0.3967 -0.4388
 6442TIP3    H240962   0.428   5.314   1.210  0.5193 -1.0757 -1.9501
 6443TIP3   OH240963   1.827   2.561   0.795 -0.7273  0.4431 -0.0488
 6443TIP3    H140964   1.756   2.557   0.860 -0.4369 -1.0289  0.2187
 6443TIP3    H240965   1.783   2.578   0.712 -1.5860 -1.7580 -0.1092
 6444TIP3   OH240966   4.584   1.329   3.226 -0.4200  0.3190 -0.1183
 6444TIP3    H140967   4.496   1.296   3.246 -0.7865  1.1310 -0.3301
 6444TIP3    H240968   4.628   1.256   3.183 -0.5992 -0.4842  1.0212
 6445TIP3   OH240969   5.979   3.309   1.821 -1.0780  0.1844  0.0887
 6445TIP3    H140970   5.999   3.362   1.744  0.3395  0.5465  0.6849
 6445TIP3    H240971   5.977   3.219   1.787 -2.0717  0.4710 -0.6588
 6446TIP3   OH240972   3.471   5.074   0.845  0.7837 -0.2045  0.0296
 6446TIP3    H140973   3.413   5.075   0.769  1.5759  1.0806 -0.5763
 6446TIP3    H240974   3.523   4.994   0.834  1.5492  0.4514 -1.2997
 6447TIP3   OH240975   6.011   3.952   2.325 -0.1911 -0.1009  0.3219
 6447TIP3    H140976   6.076   3.971   2.258 -1.2279 -0.6046 -0.8601
 6447TIP3    H240977   6.063   3.928   2.402  1.0280 -1.9853 -1.0159
 6448TIP3   OH240978   0.943   4.354   3.443 -0.1013 -0.0043  0.0390
 6448TIP3    H140979   0.946   4.430   3.501  2.3516  0.1757 -0.2087
 6448TIP3    H240980   0.865   4.306   3.470 -0.5799  1.5293  1.5770
 6449TIP3   OH240981   3.834   5.565   1.266  0.1235 -0.3777  0.3893
 6449TIP3    H140982   3.765   5.625   1.295  0.4360 -0.4748  1.3998
 6449TIP3    H240983   3.912   5.595   1.312  0.8736  0.0097 -1.0967
 6450TIP3   OH240984   1.666   3.764   1.536 -0.4749  0.3754 -0.5419
 6450TIP3    H140985   1.572   3.782   1.543 -0.5455  0.0486 -0.6088
 6450TIP3    H240986   1.704   3.845   1.503 -0.8385  0.2736 -1.2287
 6451TIP3   OH240987   5.317   2.808   4.901  0.1437  0.0587 -0.2365
 6451TIP3    H140988   5.351   2.843   4.984  0.1401  1.1256 -0.6708
 6451TIP3    H240989   5.387   2.751   4.870 -0.6234 -1.8775  1.4108
 6452TIP3   OH240990   4.996   6.324   2.485 -0.0823 -0.1514  0.1231
 6452TIP3    H140991   4.965   6.323   2.576 -1.4854  1.2144 -0.2870
 6452TIP3    H240992   4.922   6.292   2.434  0.5657 -0.5637 -0.5758
 6453TIP3   OH240993   4.326   6.438   1.790 -0.0069  0.0159  0.5174
 6453TIP3    H140994   4.299   6.408   1.877  1.3963 -0.5643  0.7873
 6453TIP3    H240995   4.246   6.438   1.738 -0.3139 -3.2268  0.8058
 6454TIP3   OH240996   5.257   5.835   3.337 -0.3088 -0.6765  0.4457
 6454TIP3    H140997   5.287   5.903   3.277 -2.0166 -2.5131 -2.7330
 6454TIP3    H240998   5.172   5.866   3.367 -0.5230 -0.8441  0.0096
 6455TIP3   OH240999   2.812   2.723   2.880  0.0713  0.0543  0.5301
 6455TIP3    H141000   2.792   2.801   2.829 -0.9401  0.3155  1.2937
 6455TIP3    H241001   2.786   2.650   2.824  0.1048  0.2958  0.1988
 6456TIP3   OH241002   4.207   6.500   4.556  0.0521 -0.4949 -0.3505
 6456TIP3    H141003   4.123   6.458   4.536 -0.7283  0.8215  0.0782
 6456TIP3    H241004   4.184   6.577   4.607  1.6262 -0.8596  0.9879
 6457TIP3   OH241005   5.683   4.128   0.870 -0.5603 -0.4322 -0.7751
 6457TIP3    H141006   5.610   4.151   0.813  0.6467  0.1500 -2.1761
 6457TIP3    H241007   5.761   4.158   0.822  0.7559 -2.8139 -0.2891
 6458TIP3   OH241008   3.413   6.521   4.156  0.2469  0.4696  0.1540
 6458TIP3    H141009   3.433   6.428   4.150 -0.5275  0.2627  0.6963
 6458TIP3    H241010   3.410   6.539   4.250 -0.6846  0.8000  0.0714
 6459TIP3   OH241011   3.242   2.433   8.697 -0.0285  0.2007 -0.3937
 6459TIP3    H141012   3.222   2.527   8.691 -0.2183  0.4215  2.5596
 6459TIP3    H241013   3.321   2.428   8.751  0.0326 -1.3735 -0.5713
 6460TIP3   OH241014   3.362   5.609   3.773  0.1602  0.2364  0.3522
 6460TIP3    H141015   3.322   5.543   3.830 -0.1440  0.5679  0.5244
 6460TIP3    H241016   3.453   5.580   3.763  0.5853  0.8441  2.0557
 6461TIP3   OH241017   4.033   3.092   2.525 -0.9859 -0.6281  0.3843
 6461TIP3    H141018   4.030   3.125   2.615 -1.4865  1.1926 -0.2405
 6461TIP3    H241019   3.983   3.157   2.475 -1.1756 -1.8910 -1.1270
 6462TIP3   OH241020   5.015   4.936   4.971  0.8422 -0.2967  0.2259
 6462TIP3    H141021   4.936   4.887   4.952  1.3445 -0.4665 -1.6659
 6462TIP3    H241022   5.005   4.965   5.061 -0.7815 -1.3857  0.4271
 6463TIP3   OH241023   6.107   6.040   2.966  0.1909  0.6314 -0.1880
 6463TIP3    H141024   6.167   6.052   3.039  1.0325  1.0913 -0.9282
 6463TIP3    H241025   6.153   6.077   2.891 -0.8810  0.6762 -0.8497
 6464TIP3   OH241026   2.234   4.559   2.049  0.1936  0.3702 -0.0202
 6464TIP3    H141027   2.234   4.467   2.076 -0.3676  0.4254  0.1774
 6464TIP3    H241028   2.290   4.561   1.971  0.6943 -0.0313  0.3193
 6465TIP3   OH241029   2.912   4.427   1.855 -0.0262 -0.3071 -0.1060
 6465TIP3    H141030   2.977   4.372   1.899  0.6259  0.4009 -0.1705
 6465TIP3    H241031   2.828   4.394   1.886  0.4036  0.3704  1.9490
 6466TIP3   OH241032   6.385   0.103   3.335  0.4800  0.4903  0.2322
 6466TIP3    H141033   6.450   0.071   3.397  0.5309  1.9176  0.9583
 6466TIP3    H241034   6.407   0.195   3.323 -1.2197  0.9360  0.2754
 6467TIP3   OH241035   5.977   2.012   1.559  0.2536  0.3283  0.2993
 6467TIP3    H141036   5.902   1.962   1.589  0.3314 -0.0072 -0.0554
 6467TIP3    H241037   6.052   1.974   1.605 -0.0178  1.9819  2.2192
 6468TIP3   OH241038   6.146   5.005   4.616 -0.4014 -0.3947  0.3067
 6468TIP3    H141039   6.145   5.065   4.690  0.9976  1.7060 -1.2908
 6468TIP3    H241040   6.092   5.047   4.550  1.1976 -0.4700 -1.1151
 6469TIP3   OH241041   0.954   4.383   2.754  0.2583  0.5067 -0.0214
 6469TIP3    H141042   0.923   4.474   2.754  0.0385  0.4454 -0.9558
 6469TIP3    H241043   1.024   4.381   2.689 -0.2282 -0.1434 -0.5462
 6470TIP3   OH241044   0.410   2.202   2.311 -0.1559 -0.2574 -0.0618
 6470TIP3    H141045   0.468   2.138   2.268 -1.2546 -0.9689 -0.5409
 6470TIP3    H241046   0.399   2.168   2.400  1.6504  0.9048  0.6697
 6471TIP3   OH241047   6.350   1.795   8.847  0.2093 -0.1448 -0.0226
 6471TIP3    H141048   6.377   1.886   8.842  0.4323 -0.2614 -2.0819
 6471TIP3    H241049   6.257   1.796   8.823  0.5686 -0.5622 -1.5563
 6472TIP3   OH241050   6.103   6.290   4.728  0.2573  0.3140 -0.1422
 6472TIP3    H141051   6.149   6.332   4.801  0.7306 -1.1854  0.4563
 6472TIP3    H241052   6.027   6.346   4.712  1.3429  1.8927  0.0047
 6473TIP3   OH241053   3.141   4.142   4.946  0.0049  0.0464 -0.4876
 6473TIP3    H141054   3.103   4.087   4.878 -1.3666 -0.6359  0.7688
 6473TIP3    H241055   3.090   4.122   5.025  1.3651  0.9873  0.6942
 6474TIP3   OH241056   4.869   6.509   1.207 -0.0292 -0.1210 -0.6414
 6474TIP3    H141057   4.853   6.466   1.291  3.8802  0.9296  0.8520
 6474TIP3    H241058   4.816   6.589   1.211 -0.6476 -0.5545  0.3531
 6475TIP3   OH241059   0.881   5.150   0.167 -0.2599  0.7631 -0.3531
 6475TIP3    H141060   0.893   5.224   0.108  1.2601  0.8305 -0.0115
 6475TIP3    H241061   0.793   5.162   0.203  0.8992  4.1040  1.9165
 6476TIP3   OH241062   5.515   4.324   3.318 -0.2288 -0.6619  0.0481
 6476TIP3    H141063   5.594   4.309   3.369  1.4929  2.1852 -1.5461
 6476TIP3    H241064   5.457   4.372   3.377 -0.7043 -2.4135  1.0905
 6477TIP3   OH241065   2.022   6.196   1.342  0.0292 -0.0643 -0.2898
 6477TIP3    H141066   1.948   6.166   1.290  0.2480 -0.5288 -0.3333
 6477TIP3    H241067   2.047   6.280   1.301  1.2822 -1.2134 -2.0456
 6478TIP3   OH241068   3.484   2.633   0.774 -0.5061 -1.1006 -0.3528
 6478TIP3    H141069   3.499   2.561   0.713  0.9164 -0.7972 -0.3949
 6478TIP3    H241070   3.552   2.697   0.753 -1.9965  0.4711 -0.6008
 6479TIP3   OH241071   1.650   1.315   3.005  0.4741  0.0412 -0.4375
 6479TIP3    H141072   1.585   1.252   2.973 -0.1967  0.4399  0.1157
 6479TIP3    H241073   1.723   1.261   3.036  0.6266 -0.3920 -1.5082
 6480TIP3   OH241074   6.126   3.011   1.197 -0.2830 -0.1229  0.0767
 6480TIP3    H141075   6.087   3.082   1.145 -0.9296  0.0921  0.8281
 6480TIP3    H241076   6.104   3.033   1.287  0.1887 -0.8779  0.3855
 6481TIP3   OH241077   4.193   1.022   0.881  0.6174 -0.2014 -0.2246
 6481TIP3    H141078   4.227   0.936   0.907  3.5926  0.2832 -2.0368
 6481TIP3    H241079   4.211   1.028   0.787 -2.4222  1.2211 -0.8413
 6482TIP3   OH241080   0.054   6.392   2.177 -0.2646 -0.0744  0.5951
 6482TIP3    H141081   0.131   6.354   2.135  0.3583 -0.1303  1.7399
 6482TIP3    H241082   0.080   6.481   2.199 -0.8563  0.2097  0.1566
 6483TIP3   OH241083   1.622   2.586   0.956  0.2262 -0.1355  0.3591
 6483TIP3    H141084   1.593   2.549   1.040 -1.2340  2.1071  0.9336
 6483TIP3    H241085   1.542   2.599   0.906  0.9068  0.2242 -0.6756
 6484TIP3   OH241086   0.049   3.397   4.559  0.0270 -0.2920 -0.8231
 6484TIP3    H141087  -0.032   3.423   4.602 -0.0600 -1.4661 -0.2288
 6484TIP3    H241088   0.114   3.459   4.591  0.4014 -2.2222  2.6754
 6485TIP3   OH241089   2.364   6.096   2.470  0.5239  0.5064 -0.2380
 6485TIP3    H141090   2.270   6.081   2.479  0.7769 -0.7861  0.5646
 6485TIP3    H241091   2.388   6.149   2.546  0.4951  0.5712 -0.2744
 6486TIP3   OH241092   6.729   4.201   3.808  0.7064  0.1714 -0.0302
 6486TIP3    H141093   6.781   4.138   3.859 -0.9662 -1.0206  0.2956
 6486TIP3    H241094   6.652   4.151   3.781  1.3359  0.8208 -3.5047
 6487TIP3   OH241095   6.153   1.779   1.429 -0.1439 -0.1676  0.2360
 6487TIP3    H141096   6.164   1.797   1.335  0.6835 -0.3262  0.2919
 6487TIP3    H241097   6.181   1.861   1.471  0.6574 -0.5051  0.3790
 6488TIP3   OH241098   4.605   6.355   0.806  0.2440  0.0226 -0.3985
 6488TIP3    H141099   4.613   6.363   0.711  0.4393  1.8102 -0.2691
 6488TIP3    H241100   4.684   6.398   0.840 -1.2172  2.0763  0.5873
 6489TIP3   OH241101   4.541   4.654   3.591  0.3795 -0.3673  0.6836
 6489TIP3    H141102   4.597   4.730   3.607  1.2177 -0.6388 -0.7179
 6489TIP3    H241103   4.590   4.580   3.628  0.6582 -0.5169  0.0342
 6490TIP3   OH241104   6.542   3.246   3.866 -0.0602  0.1584 -0.1469
 6490TIP3    H141105   6.460   3.241   3.916 -0.6491  0.4716 -1.0504
 6490TIP3    H241106   6.609   3.220   3.929 -0.9028 -0.6499  0.4639
 6491TIP3   OH241107   4.155   1.920   0.392 -0.4613  0.0657  0.2004
 6491TIP3    H141108   4.207   1.999   0.374  0.5133 -0.8155 -1.0164
 6491TIP3    H241109   4.104   1.943   0.470  1.3455  1.1706  1.1340
 6492TIP3   OH241110   0.489   3.831   1.400  0.1529  0.6509  0.1995
 6492TIP3    H141111   0.460   3.811   1.489  0.1594 -1.4287 -0.2158
 6492TIP3    H241112   0.437   3.906   1.373 -1.4074 -0.0338  1.2002
 6493TIP3   OH241113   4.589   3.169   2.661 -0.0859 -0.3851 -0.3439
 6493TIP3    H141114   4.581   3.190   2.568 -0.1642 -0.4450 -0.3500
 6493TIP3    H241115   4.513   3.209   2.702 -0.8227 -1.5712 -0.5057
 6494TIP3   OH241116   1.126   4.949   2.155 -0.0967  0.2590 -0.3455
 6494TIP3    H141117   1.067   5.019   2.184 -0.0963 -0.0152  0.3359
 6494TIP3    H241118   1.173   4.923   2.234 -2.6309 -2.9920  0.3213
 6495TIP3   OH241119   5.394   2.774   4.215 -0.1643 -0.2582 -0.5145
 6495TIP3    H141120   5.440   2.751   4.295  2.5824 -2.9797 -2.6504
 6495TIP3    H241121   5.345   2.695   4.192 -0.3308  0.2093 -1.8656
 6496TIP3   OH241122   6.149   5.841   2.690 -0.2821  0.7544 -0.4020
 6496TIP3    H141123   6.087   5.768   2.701 -0.3748  0.9902  0.8568
 6496TIP3    H241124   6.231   5.800   2.664 -0.6891  0.3306 -1.0232
 6497TIP3   OH241125   6.593   4.187   4.127  0.3208 -0.1831  0.4983
 6497TIP3    H141126   6.578   4.264   4.183 -0.1591 -0.4577  0.7514
 6497TIP3    H241127   6.508   4.145   4.121  0.0259  0.6250 -1.6421
 6498TIP3   OH241128   4.114   0.221   3.761 -0.5927  0.3932  0.5911
 6498TIP3    H141129   4.198   0.182   3.786 -0.5019 -1.0590 -1.6676
 6498TIP3    H241130   4.049   0.155   3.785 -0.4408 -1.4475 -3.2145
 6499TIP3   OH241131   4.412   3.081   3.801  1.0108  0.4069 -0.2712
 6499TIP3    H141132   4.355   3.150   3.835  0.9853  1.2373 -1.8926
 6499TIP3    H241133   4.453   3.043   3.878 -2.7528 -1.2023  1.1703
 6500TIP3   OH241134   6.680   5.423   5.307 -0.0321  0.3215 -0.4491
 6500TIP3    H141135   6.727   5.502   5.333 -0.4119  0.3505  0.1657
 6500TIP3    H241136   6.592   5.454   5.284 -1.1000 -0.2145  2.4838
 6501TIP3   OH241137   0.536   1.436   0.296  0.3229 -0.0664 -0.1764
 6501TIP3    H141138   0.447   1.409   0.271  0.8532 -1.5591 -0.5229
 6501TIP3    H241139   0.585   1.437   0.213  1.1640 -1.4200  0.2726
 6502TIP3   OH241140   2.689   2.659   4.211 -0.5498 -0.7089  0.4536
 6502TIP3    H141141   2.653   2.630   4.127  2.8331 -1.3205 -0.9557
 6502TIP3    H241142   2.722   2.579   4.252 -0.3247 -0.1373  1.4352
 6503TIP3   OH241143   6.231   4.001   2.178  0.1859 -0.0814  0.4423
 6503TIP3    H141144   6.284   3.944   2.233 -1.6840 -3.3515 -0.8406
 6503TIP3    H241145   6.294   4.058   2.134  2.3584 -1.9224  0.9944
 6504TIP3   OH241146   1.915   1.819   1.897 -0.0724  0.0092  0.0532
 6504TIP3    H141147   1.911   1.908   1.861  1.0517  0.6602  1.4580
 6504TIP3    H241148   1.897   1.762   1.822 -1.6805  1.4207 -0.7102
 6505TIP3   OH241149   3.202   2.636   2.282 -0.4688  0.0241  0.1287
 6505TIP3    H141150   3.221   2.552   2.322 -0.8921  0.5236  1.4421
 6505TIP3    H241151   3.194   2.697   2.356 -0.9908  1.0445 -0.7313
 6506TIP3   OH241152   6.381   0.369   3.366 -0.6568  0.6008 -0.5609
 6506TIP3    H141153   6.336   0.439   3.414  2.2575  1.3458  1.3870
 6506TIP3    H241154   6.431   0.415   3.298 -0.8439  0.0914 -1.0449
 6507TIP3   OH241155   6.489   3.886   1.583  0.3586  0.0624 -0.3079
 6507TIP3    H141156   6.467   3.794   1.568 -0.5470  0.1462  0.4837
 6507TIP3    H241157   6.516   3.917   1.496  0.1397 -0.7974 -0.7025
 6508TIP3   OH241158   1.728   0.551   1.567 -0.2904 -0.3776 -0.3149
 6508TIP3    H141159   1.661   0.541   1.634  0.2186  0.0288  0.2639
 6508TIP3    H241160   1.682   0.531   1.485 -1.1837  0.1175  0.0427
 6509TIP3   OH241161   5.463   3.425   3.620  0.0585 -0.0185 -0.3414
 6509TIP3    H141162   5.501   3.463   3.699 -0.9277  0.1226  0.0860
 6509TIP3    H241163   5.369   3.419   3.640  0.1628 -2.7554 -0.3585
 6510TIP3   OH241164   0.182   6.648   4.500 -0.3098 -0.1784  0.3838
 6510TIP3    H141165   0.138   6.717   4.451  1.0790  0.3174 -0.2298
 6510TIP3    H241166   0.168   6.569   4.448 -1.5012 -0.2915  0.8426
 6511TIP3   OH241167   3.571   0.068   1.173 -0.1138  0.1150  0.1329
 6511TIP3    H141168   3.490   0.118   1.162 -0.5768 -0.6617 -0.1095
 6511TIP3    H241169   3.575   0.050   1.267 -0.3849 -0.0897  0.1090
 6512TIP3   OH241170   0.582   4.561   4.600 -0.2790  0.3720 -0.5248
 6512TIP3    H141171   0.517   4.606   4.656 -0.1131 -1.7964  1.5466
 6512TIP3    H241172   0.544   4.475   4.584  0.9911 -0.0487 -1.3923
 6513TIP3   OH241173   6.529   6.021   2.218 -0.3569  0.1607  0.1428
 6513TIP3    H141174   6.470   6.048   2.289  0.0700  1.3850  0.0550
 6513TIP3    H241175   6.607   6.075   2.230  1.4861 -2.5411  1.2334
 6514TIP3   OH241176   3.218   6.381   2.634  0.0764 -0.2008  0.1719
 6514TIP3    H141177   3.208   6.287   2.616  1.0623 -0.0203 -1.5778
 6514TIP3    H241178   3.175   6.394   2.718 -1.4291 -1.9489 -0.2506
 6515TIP3   OH241179   3.871   4.407   3.586  0.0744  0.2701  0.1300
 6515TIP3    H141180   3.851   4.321   3.549  2.8373 -0.0512 -0.7928
 6515TIP3    H241181   3.852   4.469   3.516  1.7191  0.0086 -0.5847
 6516TIP3   OH241182   3.875   2.622   1.367 -0.6479  0.0041  0.1768
 6516TIP3    H141183   3.968   2.626   1.389 -0.8151  0.7882  0.7691
 6516TIP3    H241184   3.873   2.610   1.272  0.0554  0.1451  0.1441
 6517TIP3   OH241185   5.823   6.065   4.854  0.3770  0.4142  0.4587
 6517TIP3    H141186   5.824   6.130   4.924 -0.7912 -0.5870  1.4350
 6517TIP3    H241187   5.802   5.982   4.897  0.4216 -0.3759 -0.9626
 6518TIP3   OH241188   6.202   0.935   0.099 -0.0362 -0.6417 -0.1570
 6518TIP3    H141189   6.194   1.031   0.100 -0.4047 -0.6663 -0.4105
 6518TIP3    H241190   6.153   0.907   0.176  0.1958 -0.6169 -0.0011
 6519TIP3   OH241191   4.718   1.968   3.093  0.2299 -1.0180  0.2069
 6519TIP3    H141192   4.632   2.011   3.094  0.4051 -0.6385  2.1030
 6519TIP3    H241193   4.761   2.003   3.015 -0.5462  0.4174  0.3873
 6520TIP3   OH241194   1.678   4.335   1.669 -0.4069  0.0479 -0.4405
 6520TIP3    H141195   1.645   4.369   1.752 -0.9923 -0.8072 -0.3002
 6520TIP3    H241196   1.669   4.407   1.608 -0.9701  0.3596  0.0006
 6521TIP3   OH241197   5.101   5.607   3.724 -0.4894  0.1825  0.2452
 6521TIP3    H141198   5.097   5.531   3.666  0.5072 -0.1955  0.6496
 6521TIP3    H241199   5.192   5.608   3.756 -0.5740  1.3602  0.4871
 6522TIP3   OH241200   5.513   3.602   1.833  0.3842 -0.3641  0.0173
 6522TIP3    H141201   5.518   3.521   1.885  0.0787  0.0269  0.6709
 6522TIP3    H241202   5.442   3.652   1.873  0.8854  0.4405 -0.0695
 6523TIP3   OH241203   0.277   6.272   2.053  0.3932  0.5186  0.2070
 6523TIP3    H141204   0.295   6.179   2.038  0.0725  0.4970 -0.0571
 6523TIP3    H241205   0.346   6.300   2.113  0.5441  0.1309  0.2202
 6524TIP3   OH241206   5.545   5.738   4.809  0.0196 -0.7268 -0.1924
 6524TIP3    H141207   5.565   5.807   4.872 -0.3325 -0.4206 -0.4129
 6524TIP3    H241208   5.612   5.748   4.741 -0.8519  0.2888 -0.9232
 6525TIP3   OH241209   4.348   5.047   2.014  0.4753  0.2439 -0.4755
 6525TIP3    H141210   4.363   5.027   2.106  0.0095  1.8709 -0.0022
 6525TIP3    H241211   4.273   4.994   1.990 -0.8404  1.4640  0.7621
 6526TIP3   OH241212   2.743   4.590   3.461  0.8202 -0.1326  0.1155
 6526TIP3    H141213   2.667   4.640   3.492  1.3677 -0.0210  1.3501
 6526TIP3    H241214   2.714   4.552   3.378 -1.2420 -1.6043  1.3939
 6527TIP3   OH241215   0.933   5.417   1.456 -0.1367 -0.3647  0.4327
 6527TIP3    H141216   1.028   5.410   1.445 -0.0929  0.2576  0.4129
 6527TIP3    H241217   0.920   5.494   1.511 -0.6698  0.1425 -0.3759
 6528TIP3   OH241218   5.554   0.748   2.765 -0.1743  0.1248  0.0849
 6528TIP3    H141219   5.613   0.774   2.837 -1.5151 -1.4638  1.8595
 6528TIP3    H241220   5.500   0.825   2.750 -1.5815 -0.2497  2.6469
 6529TIP3   OH241221   6.203   1.771   4.024 -0.2691 -0.0703  0.4115
 6529TIP3    H141222   6.298   1.760   4.024 -0.2175  0.1209  1.8681
 6529TIP3    H241223   6.189   1.865   4.030 -0.5338 -0.1205  0.6381
 6530TIP3   OH241224   5.688   4.113   2.478 -0.1148  0.1380  0.4149
 6530TIP3    H141225   5.726   4.198   2.502 -0.2208 -0.1172  1.5278
 6530TIP3    H241226   5.667   4.122   2.385  0.4087  1.1301  0.3805
 6531TIP3   OH241227   0.969   3.288   4.858  0.0692 -0.8136 -0.0978
 6531TIP3    H141228   1.004   3.229   4.791  1.5722 -0.9776  0.7796
 6531TIP3    H241229   1.024   3.366   4.851 -1.0451 -0.0411 -0.3602
 6532TIP3   OH241230   1.293   5.462   3.420 -0.3444  0.2535 -0.3224
 6532TIP3    H141231   1.286   5.457   3.325  0.7557 -0.9860 -0.3753
 6532TIP3    H241232   1.350   5.389   3.443  0.9565  1.6353  1.1064
 6533TIP3   OH241233   6.544   6.695   2.873  0.3193 -0.7498 -0.1423
 6533TIP3    H141234   6.540   6.727   2.963  0.6903  0.1930 -0.4377
 6533TIP3    H241235   6.454   6.672   2.850  0.1164 -0.3463  0.2460
 6534TIP3   OH241236   1.197   1.581   2.794  0.2486 -0.8584  0.2318
 6534TIP3    H141237   1.225   1.503   2.842  0.7158  0.9876  3.2775
 6534TIP3    H241238   1.278   1.627   2.775 -0.1316  0.0420  0.7184
 6535TIP3   OH241239   2.130   6.345   0.158 -0.0256  0.0926  0.6011
 6535TIP3    H141240   2.188   6.275   0.190  0.1004 -0.9157 -1.6174
 6535TIP3    H241241   2.185   6.423   0.160 -0.3638  0.3841  3.7482
 6536TIP3   OH241242   0.130   1.503   4.320  0.1726 -0.3728  0.1617
 6536TIP3    H141243   0.132   1.450   4.239  1.3868  0.8064 -0.6206
 6536TIP3    H241244   0.221   1.530   4.332 -0.3720  1.2540  0.7223
 6537TIP3   OH241245   3.081   1.067   4.864 -0.2459  0.2261 -0.1812
 6537TIP3    H141246   3.073   1.032   4.775  0.3164  0.0352 -0.1611
 6537TIP3    H241247   2.999   1.114   4.879 -0.6219 -0.2962 -0.5552
 6538TIP3   OH241248   4.762   0.418   1.118 -0.0723 -0.4478 -0.1326
 6538TIP3    H141249   4.796   0.445   1.204 -1.5781  0.1037  0.3151
 6538TIP3    H241250   4.792   0.328   1.108  2.0401  0.1889 -0.0628
 6539TIP3   OH241251   4.685   0.209   1.653  0.6416  0.1487 -0.1691
 6539TIP3    H141252   4.675   0.156   1.733  1.3629  0.9445  0.4702
 6539TIP3    H241253   4.638   0.160   1.586  0.8462 -1.0441  0.5218
 6540TIP3   OH241254   4.925   5.448   1.450 -0.3605  0.1898 -0.9593
 6540TIP3    H141255   4.895   5.357   1.447 -1.1213  0.3792  0.4020
 6540TIP3    H241256   4.921   5.477   1.358  1.1765 -1.5205 -1.6214
 6541TIP3   OH241257   6.774   3.026   4.135 -0.5127 -0.0598  0.0770
 6541TIP3    H141258   6.721   3.106   4.140 -1.2710 -0.5127 -0.5152
 6541TIP3    H241259   6.711   2.955   4.144  0.2254 -0.5952  1.1267
 6542TIP3   OH241260   2.689   5.188   2.171 -0.1499  0.2386 -0.1975
 6542TIP3    H141261   2.622   5.252   2.148 -0.8305  0.1066  1.2951
 6542TIP3    H241262   2.697   5.133   2.094  0.3376  1.9878 -1.4656
 6543TIP3   OH241263   4.871   2.226   8.697 -0.1269  0.6682 -0.4794
 6543TIP3    H141264   4.917   2.183   8.769 -0.8389 -0.6752 -0.7848
 6543TIP3    H241265   4.931   2.293   8.665  0.9834 -0.0435  0.0827
 6544TIP3   OH241266   6.784   0.043   2.857 -0.2819  0.5410 -0.0694
 6544TIP3    H141267   6.876   0.068   2.858 -0.3410  0.7508  0.9312
 6544TIP3    H241268   6.781  -0.038   2.909 -0.5695  0.1712 -0.6459
 6545TIP3   OH241269   1.273   1.150   8.814 -0.1899  0.2773  0.0358
 6545TIP3    H141270   1.330   1.215   8.854  0.3972  0.7701 -1.5309
 6545TIP3    H241271   1.323   1.117   8.739 -2.0723  0.9951 -1.6172
 6546TIP3   OH241272   0.743   3.396   2.915  0.2293 -0.1881  0.5909
 6546TIP3    H141273   0.672   3.349   2.958 -0.7676 -0.5947 -1.4030
 6546TIP3    H241274   0.781   3.333   2.854  0.4361  0.8590 -0.4125
 6547TIP3   OH241275   3.930   3.326   0.994 -0.1613  0.2111 -0.0378
 6547TIP3    H141276   3.953   3.419   0.987 -1.4342  0.6092  0.6185
 6547TIP3    H241277   3.892   3.318   1.082  0.3896 -1.0406  0.0975
 6548TIP3   OH241278   4.659   4.889   1.967  0.4644 -0.0644  0.3289
 6548TIP3    H141279   4.694   4.806   2.000 -1.2484 -0.6158  0.8576
 6548TIP3    H241280   4.583   4.863   1.915  0.0963  1.1677  0.2381
 6549TIP3   OH241281   5.087   3.894   4.608  0.4943  0.3092  0.4083
 6549TIP3    H141282   5.081   3.946   4.688  4.8955  1.5663  0.1929
 6549TIP3    H241283   5.139   3.948   4.548  0.2262 -1.9602 -2.0583
 6550TIP3   OH241284   4.511   5.795   4.304 -0.0840 -0.8380 -0.1798
 6550TIP3    H141285   4.606   5.789   4.309 -0.0279  0.2416  0.2981
 6550TIP3    H241286   4.492   5.810   4.212  0.0343 -3.3636 -0.6846
 6551TIP3   OH241287   3.693   2.686   0.086 -0.1688  0.3839 -0.2796
 6551TIP3    H141288   3.725   2.642   0.007  0.2550  0.9460 -0.4337
 6551TIP3    H241289   3.605   2.652   0.098 -0.5501  0.8871 -1.4760
 6552TIP3   OH241290   5.263   5.340   2.386  0.2534 -0.4901 -0.1148
 6552TIP3    H141291   5.204   5.361   2.313  0.5582 -1.7938 -0.7542
 6552TIP3    H241292   5.213   5.281   2.442  0.1949  0.1274  0.5055
 6553TIP3   OH241293   4.835   6.724   2.370  0.4843 -0.1255 -0.3833
 6553TIP3    H141294   4.900   6.661   2.403  0.5439  0.0328 -0.1923
 6553TIP3    H241295   4.756   6.706   2.421  0.6673  0.3241  0.0687
 6554TIP3   OH241296   0.005   5.018   4.090  0.2493  0.0953  0.2123
 6554TIP3    H141297   0.059   4.962   4.034 -1.5438 -1.4648 -0.0284
 6554TIP3    H241298  -0.026   5.087   4.032 -0.3453 -0.6453 -0.3710
 6555TIP3   OH241299   1.751   1.928   2.908  0.0193  0.3083 -0.1664
 6555TIP3    H141300   1.787   1.841   2.888 -0.7108 -0.0567  0.0998
 6555TIP3    H241301   1.758   1.975   2.825 -1.8222 -0.7943 -1.0027
 6556TIP3   OH241302   6.764   0.344   1.067  0.1693  0.1568 -0.0620
 6556TIP3    H141303   6.826   0.272   1.065 -0.6309 -0.5263 -1.6438
 6556TIP3    H241304   6.786   0.393   1.147  0.5027 -2.0057  1.2408
 6557TIP3   OH241305   3.637   3.914   4.043  0.4481  0.0008 -0.2031
 6557TIP3    H141306   3.593   3.894   4.125  1.4475  1.1907  0.6536
 6557TIP3    H241307   3.642   3.829   3.997  1.0031 -0.9368  1.5105
 6558TIP3   OH241308   2.517   1.178   3.744 -0.6750 -0.3959  0.6474
 6558TIP3    H141309   2.524   1.099   3.797 -0.9562 -1.0988 -0.3426
 6558TIP3    H241310   2.469   1.151   3.666  0.9424  0.2641 -0.6275
 6559TIP3   OH241311   0.484   5.753   3.025 -0.1301  0.4857  0.1551
 6559TIP3    H141312   0.513   5.793   3.107 -1.2688 -1.1804  1.4510
 6559TIP3    H241313   0.403   5.800   3.003 -0.6978 -0.1023  0.9028
 6560TIP3   OH241314   4.294   4.279   3.411  0.4552  0.2530  0.1561
 6560TIP3    H141315   4.315   4.361   3.367 -2.8440  1.8644  1.2584
 6560TIP3    H241316   4.274   4.218   3.340  3.0005  0.2578 -0.6809
 6561TIP3   OH241317   0.544   0.179   2.795 -0.2507 -0.6021 -0.0399
 6561TIP3    H141318   0.604   0.225   2.854  0.6869 -2.0562  0.1764
 6561TIP3    H241319   0.497   0.118   2.853 -0.3593 -1.0211 -0.5681
 6562TIP3   OH241320   4.713   5.737   2.873 -0.8375  0.0272 -0.3484
 6562TIP3    H141321   4.751   5.679   2.806  0.2350 -0.2221  0.4585
 6562TIP3    H241322   4.746   5.824   2.851  1.9473 -0.4505  1.4822
 6563TIP3   OH241323   5.545   5.226   1.690 -0.9090 -0.3549  0.4075
 6563TIP3    H141324   5.535   5.161   1.621 -0.9176 -0.8148  0.8366
 6563TIP3    H241325   5.633   5.261   1.678 -0.9602 -0.3405  0.0843
 6564TIP3   OH241326   1.194   0.889   2.299  0.5739  0.5830 -0.8449
 6564TIP3    H141327   1.248   0.836   2.242 -0.3722  0.9932 -2.1976
 6564TIP3    H241328   1.145   0.826   2.352  0.8876  0.1605 -1.0536
 6565TIP3   OH241329   1.032   4.582   5.186 -0.1946  0.2592  0.4408
 6565TIP3    H141330   1.077   4.665   5.199  0.5490 -0.1539  0.5590
 6565TIP3    H241331   1.049   4.560   5.095 -0.8469  0.4969  0.2570
 6566TIP3   OH241332   1.433   3.910   1.456 -0.1336 -0.7298 -0.1773
 6566TIP3    H141333   1.478   3.908   1.371 -1.9724 -1.0968 -1.2179
 6566TIP3    H241334   1.432   4.002   1.481  1.6739 -0.7793  0.1830
 6567TIP3   OH241335   2.105   6.558   3.101  0.2283 -0.1072  0.3390
 6567TIP3    H141336   2.158   6.552   3.022  1.7913  0.3307  1.3172
 6567TIP3    H241337   2.146   6.497   3.162 -0.8384 -0.2975  0.8865
 6568TIP3   OH241338   0.014   3.808   0.728 -0.3459 -0.0774 -0.3835
 6568TIP3    H141339  -0.001   3.826   0.820 -0.0470  4.0446 -0.9574
 6568TIP3    H241340   0.108   3.792   0.721 -0.2688  0.2431 -0.0543
 6569TIP3   OH241341   5.678   5.321   3.064 -0.3731  0.4076  0.3197
 6569TIP3    H141342   5.715   5.375   3.134  0.0186  0.7526 -0.1454
 6569TIP3    H241343   5.711   5.233   3.081  1.1365  0.8106 -0.3976
 6570TIP3   OH241344   6.124   4.976   1.131  0.1587 -0.2075  0.6876
 6570TIP3    H141345   6.129   5.009   1.220  0.0449  0.1062  0.5801
 6570TIP3    H241346   6.103   4.883   1.140 -0.1663 -0.1080  0.9827
 6571TIP3   OH241347   6.152   2.009   1.809 -0.0819  0.2427  0.1253
 6571TIP3    H141348   6.164   1.932   1.865 -0.0344  1.1628  1.4346
 6571TIP3    H241349   6.129   2.079   1.870 -2.7922  0.7033 -1.2939
 6572TIP3   OH241350   4.270   0.539   0.424 -1.0249 -0.2774  0.1513
 6572TIP3    H141351   4.187   0.560   0.381 -1.0482 -3.0718 -1.4184
 6572TIP3    H241352   4.299   0.458   0.382  1.9911  0.0167  1.4035
 6573TIP3   OH241353   0.830   3.107   0.573 -0.5332  0.6693 -0.4962
 6573TIP3    H141354   0.747   3.064   0.556 -0.2479  0.6043 -1.8437
 6573TIP3    H241355   0.826   3.132   0.665 -1.1351 -1.2850  0.0502
 6574TIP3   OH241356   0.070   4.168   1.375 -0.0049  0.1386 -0.0338
 6574TIP3    H141357   0.019   4.170   1.294  1.7108 -0.6909 -1.1987
 6574TIP3    H241358   0.108   4.256   1.382  0.3867  0.0066 -0.5004
 6575TIP3   OH241359   0.269   6.544   0.424  0.1186 -0.5215  0.2022
 6575TIP3    H141360   0.219   6.470   0.461 -1.3628 -0.1023 -0.8609
 6575TIP3    H241361   0.271   6.527   0.330  0.9996  0.0725  0.1076
 6576TIP3   OH241362   1.629   0.217   2.977  0.5062  0.3641 -0.0454
 6576TIP3    H141363   1.560   0.275   2.944  0.1567  0.1027  0.2160
 6576TIP3    H241364   1.595   0.184   3.060  1.1932  0.6830  0.3756
 6577TIP3   OH241365   3.312   6.543   2.148  0.1386 -0.0996 -0.2654
 6577TIP3    H141366   3.261   6.535   2.229 -2.8992  1.3232 -1.8542
 6577TIP3    H241367   3.293   6.463   2.099  2.3877 -1.2028  0.5306
 6578TIP3   OH241368   5.669   5.339   4.070  0.4982  0.0361  0.0067
 6578TIP3    H141369   5.704   5.345   4.159 -1.1027 -1.4669  0.8004
 6578TIP3    H241370   5.636   5.249   4.063  2.3098 -0.5283 -2.8105
 6579TIP3   OH241371   4.489   0.643   2.006 -0.1062  0.2163  0.3520
 6579TIP3    H141372   4.485   0.702   2.082  1.7210 -1.9688  2.2799
 6579TIP3    H241373   4.574   0.600   2.013  0.1700 -0.0553 -3.0417
 6580TIP3   OH241374   0.267   0.117   4.794 -0.3305 -0.8534 -0.1687
 6580TIP3    H141375   0.275   0.101   4.888 -0.5230  1.7879  0.3711
 6580TIP3    H241376   0.187   0.169   4.784  0.7019  0.6016 -1.4982
 6581TIP3   OH241377   4.469   1.052   1.152  0.2575  0.4040 -0.9482
 6581TIP3    H141378   4.547   1.019   1.196 -1.9202 -1.3786  1.9854
 6581TIP3    H241379   4.460   0.996   1.075 -0.7524 -3.0328  1.4296
 6582TIP3   OH241380   2.698   1.680   1.255  0.2910 -0.0564  0.6541
 6582TIP3    H141381   2.652   1.666   1.173  0.3361 -1.5067  0.8427
 6582TIP3    H241382   2.644   1.743   1.303 -1.1518 -1.1768  0.5757
 6583TIP3   OH241383   6.733   1.149   2.201 -0.6235  0.3136  0.1609
 6583TIP3    H141384   6.750   1.223   2.259  0.0210 -0.6050  1.2062
 6583TIP3    H241385   6.743   1.184   2.113 -0.7336  1.5480  0.6254
 6584TIP3   OH241386   5.791   4.260   1.687  0.0483  0.0559 -0.1364
 6584TIP3    H141387   5.767   4.289   1.775  0.4246 -1.2318  0.4058
 6584TIP3    H241388   5.873   4.212   1.698  0.5209  0.5442 -1.3087
 6585TIP3   OH241389   4.756   5.668   1.543  0.3202  0.0339  1.5202
 6585TIP3    H141390   4.817   5.599   1.518 -0.2300 -0.2296  0.8549
 6585TIP3    H241391   4.769   5.680   1.637  1.6671  0.2673  1.3214
 6586TIP3   OH241392   2.369   5.677   4.174  0.4280  0.1832 -0.3897
 6586TIP3    H141393   2.394   5.760   4.214  0.7721  0.3063 -0.8609
 6586TIP3    H241394   2.451   5.631   4.159  0.1674 -1.0850  1.6160
 6587TIP3   OH241395   0.131   1.247   0.911  0.2390 -0.2450  0.0844
 6587TIP3    H141396   0.089   1.248   0.997  0.2840 -0.0746  0.1042
 6587TIP3    H241397   0.132   1.339   0.883  1.5176 -0.1058  0.5302
 6588TIP3   OH241398   2.185   2.370   1.730 -0.7544  0.0646 -0.1123
 6588TIP3    H141399   2.189   2.463   1.706  0.3814  0.2691  0.8255
 6588TIP3    H241400   2.169   2.325   1.646 -1.7220  1.1165 -0.5207
 6589TIP3   OH241401   6.197   3.081   3.491 -0.3714 -0.5918 -0.3061
 6589TIP3    H141402   6.129   3.071   3.425 -0.9582 -1.4239  0.4009
 6589TIP3    H241403   6.151   3.103   3.571  0.4423  1.8318 -0.4278
 6590TIP3   OH241404   6.543   5.242   3.724  0.1643 -0.1584  0.3077
 6590TIP3    H141405   6.628   5.284   3.739  0.4739 -0.3549 -0.8451
 6590TIP3    H241406   6.479   5.313   3.734  0.4946  0.0880  0.7074
 6591TIP3   OH241407   6.091   0.466   3.901 -0.0095 -0.1414 -0.0876
 6591TIP3    H141408   5.996   0.468   3.893  0.0823 -0.6438 -1.5389
 6591TIP3    H241409   6.109   0.400   3.968 -0.6877  0.7411  1.0143
 6592TIP3   OH241410   1.241   2.383   2.182 -0.5031  0.0347  0.7199
 6592TIP3    H141411   1.246   2.473   2.149 -0.4928  0.0581  0.7863
 6592TIP3    H241412   1.200   2.334   2.110 -0.4033  0.0689  0.6384
 6593TIP3   OH241413   3.803   6.593   1.719 -0.6405  0.3329 -0.0072
 6593TIP3    H141414   3.722   6.621   1.678 -0.3166  1.1318 -0.1195
 6593TIP3    H241415   3.818   6.504   1.685 -1.6431  0.0316  0.3027
 6594TIP3   OH241416   5.150   6.035   2.645 -0.0855  0.2021 -0.0090
 6594TIP3    H141417   5.181   5.975   2.712  2.2960  3.1747  1.7969
 6594TIP3    H241418   5.055   6.028   2.649  0.0520 -1.5566  1.8451
 6595TIP3   OH241419   0.626   3.277   4.291  0.2669  0.6451 -0.2966
 6595TIP3    H141420   0.561   3.336   4.330  1.2425  1.2200  0.5100
 6595TIP3    H241421   0.635   3.307   4.201  0.6206  1.6199  0.0573
 6596TIP3   OH241422   2.707   2.609   2.633 -0.9614  0.0066  0.2738
 6596TIP3    H141423   2.768   2.610   2.559 -1.6652 -2.9438 -0.4623
 6596TIP3    H241424   2.621   2.617   2.593 -1.3468 -1.5660  0.7042
 6597TIP3   OH241425   6.006   6.009   0.854 -0.3502 -0.3573  0.3339
 6597TIP3    H141426   5.973   6.052   0.933 -0.8620 -0.1289  0.0011
 6597TIP3    H241427   5.980   6.067   0.782  0.5571 -0.2990  0.0347
 6598TIP3   OH241428   6.037   2.874   3.677 -0.0735 -0.6252  0.4068
 6598TIP3    H141429   5.995   2.873   3.592 -1.1333  1.3529  0.8681
 6598TIP3    H241430   6.034   2.782   3.706 -2.4014 -0.8553 -0.3859
 6599TIP3   OH241431   0.771   5.953   0.697  0.4812  0.7346 -0.0744
 6599TIP3    H141432   0.845   6.010   0.716  0.6574 -0.1498  2.2851
 6599TIP3    H241433   0.695   6.012   0.695  0.8610  1.2614  0.6860
 6600TIP3   OH241434   0.042   0.709   2.588 -0.1257  0.0173  0.0879
 6600TIP3    H141435   0.052   0.787   2.643 -0.4746  0.2769 -0.2093
 6600TIP3    H241436   0.097   0.643   2.630  1.1918  0.7863 -0.3491
 6601TIP3   OH241437   0.408   5.014   0.992 -0.3939 -0.0079 -0.5267
 6601TIP3    H141438   0.491   5.018   1.040 -0.0642 -0.5515 -1.0306
 6601TIP3    H241439   0.364   4.936   1.026 -0.5863  0.1386 -0.4389
 6602TIP3   OH241440   6.168   2.528   4.192  0.4380 -0.0048  0.1278
 6602TIP3    H141441   6.216   2.448   4.173  0.3622  0.4421 -2.1799
 6602TIP3    H241442   6.181   2.542   4.286  1.2950 -2.1428  0.3750
 6603TIP3   OH241443   1.677   4.200   3.356 -0.1491  0.0757  0.2190
 6603TIP3    H141444   1.746   4.258   3.323  0.0217 -0.2936 -0.0747
 6603TIP3    H241445   1.693   4.117   3.313  0.2436 -0.5006  1.4189
 6604TIP3   OH241446   5.650   6.190   2.783  1.0162  0.2534  0.0594
 6604TIP3    H141447   5.625   6.260   2.724  0.1641  1.3378  1.6323
 6604TIP3    H241448   5.609   6.112   2.747  0.2028  0.9557 -0.5753
 6605TIP3   OH241449   5.008   1.244   1.854 -0.6823  0.3643  0.1400
 6605TIP3    H141450   4.931   1.300   1.862 -0.5900  0.5611 -0.2997
 6605TIP3    H241451   4.976   1.156   1.876 -1.0845  0.4119 -0.2357
 6606TIP3   OH241452   3.684   4.772   1.839  0.2872 -0.3911 -0.6024
 6606TIP3    H141453   3.664   4.702   1.900  0.6273 -0.7002 -0.8391
 6606TIP3    H241454   3.763   4.812   1.873  0.0460 -0.0624 -0.4205
 6607TIP3   OH241455   1.882   1.044   0.991 -0.3826 -0.9799 -0.1271
 6607TIP3    H141456   1.855   1.013   0.905  1.9126 -0.1143 -1.2658
 6607TIP3    H241457   1.959   1.098   0.973 -0.8030  0.5770  2.3326
 6608TIP3   OH241458   2.610   3.393   3.353 -0.4891  0.0574  0.2068
 6608TIP3    H141459   2.578   3.430   3.436 -1.4119  1.6986 -0.8230
 6608TIP3    H241460   2.558   3.438   3.286 -1.1718 -2.6509 -1.2017
 6609TIP3   OH241461   0.066   3.716   3.210 -0.0229  0.1094  0.6084
 6609TIP3    H141462   0.048   3.685   3.121  1.1988  0.0565  0.3598
 6609TIP3    H241463   0.159   3.739   3.209  0.1413 -0.3950  2.0218
 6610TIP3   OH241464   0.968   6.568   2.064 -0.9321  0.4943 -0.8315
 6610TIP3    H141465   1.044   6.574   2.122 -0.4163 -0.1283 -1.4350
 6610TIP3    H241466   0.893   6.567   2.124 -0.3577 -1.4322 -0.0749
 6611TIP3   OH241467   2.538   6.026   3.696  0.0341  0.4750 -0.1353
 6611TIP3    H141468   2.524   6.074   3.778  1.4091 -1.4187  1.3268
 6611TIP3    H241469   2.459   5.975   3.684  0.8696 -1.3948  1.6760
 6612TIP3   OH241470   1.264   0.583   0.303  0.7145  0.2708 -0.5033
 6612TIP3    H141471   1.215   0.582   0.221 -0.2063  2.2612 -0.0313
 6612TIP3    H241472   1.197   0.581   0.371  1.4581 -0.9679  0.2124
 6613TIP3   OH241473   2.847   4.107   1.502  0.0919 -0.1780  0.3105
 6613TIP3    H141474   2.798   4.087   1.582 -2.0267 -0.7879 -1.0485
 6613TIP3    H241475   2.826   4.034   1.443  0.6405  0.8531 -1.2064
 6614TIP3   OH241476   3.546   5.454   3.071  0.0727  0.4894  0.3234
 6614TIP3    H141477   3.509   5.391   3.009  1.7720 -0.1224 -0.1156
 6614TIP3    H241478   3.625   5.485   3.028  1.4395 -0.1414  2.2786
 6615TIP3   OH241479   2.272   2.252   2.590 -0.6612 -0.0072  0.2416
 6615TIP3    H141480   2.349   2.202   2.618  1.8420  3.6427  0.6314
 6615TIP3    H241481   2.243   2.209   2.510  2.5362 -0.9519 -0.5563
 6616TIP3   OH241482   3.500   0.530   1.063 -0.1616  0.4112  0.2432
 6616TIP3    H141483   3.593   0.509   1.075 -0.3949 -0.1555  1.1348
 6616TIP3    H241484   3.489   0.534   0.968  0.4398 -1.0587  0.0867
 6617TIP3   OH241485   0.804   1.730   4.086  0.7862  0.5870 -0.4829
 6617TIP3    H141486   0.744   1.754   4.157  0.9796  1.4979 -0.6093
 6617TIP3    H241487   0.814   1.635   4.094  0.1451  0.5628  0.1831
 6618TIP3   OH241488   4.460   3.855   1.098 -0.0710 -0.0678  0.3062
 6618TIP3    H141489   4.419   3.770   1.083 -0.9640 -0.1948  2.9783
 6618TIP3    H241490   4.475   3.859   1.192  2.5574  1.6189 -0.0656
 6619TIP3   OH241491   0.762   5.681   0.788 -0.4493 -0.0381 -1.0249
 6619TIP3    H141492   0.695   5.631   0.834  0.7249 -1.2732 -0.5915
 6619TIP3    H241493   0.741   5.773   0.806 -1.8150 -0.4083 -0.6385
 6620TIP3   OH241494   1.106   0.071   4.264 -0.1998 -0.2350  0.2587
 6620TIP3    H141495   1.196   0.065   4.230 -0.3734  2.5845 -0.9944
 6620TIP3    H241496   1.117   0.077   4.359  1.1654  1.7880  0.0417
 6621TIP3   OH241497   5.887   5.342   0.577 -0.0930 -0.4958  0.1746
 6621TIP3    H141498   5.824   5.286   0.532  0.8375  0.1531 -2.0757
 6621TIP3    H241499   5.971   5.298   0.567  0.2642  0.0635  0.6056
 6622TIP3   OH241500   0.029   1.054   2.413 -0.1955  0.2555 -0.2463
 6622TIP3    H141501   0.015   1.082   2.322 -0.4921  0.3165 -0.1843
 6622TIP3    H241502   0.025   0.958   2.409 -0.6830  0.2729 -0.2246
 6623TIP3   OH241503   1.210   5.636   2.215 -1.3852 -0.8434 -0.6058
 6623TIP3    H141504   1.121   5.646   2.250 -2.1129 -1.9844 -2.0210
 6623TIP3    H241505   1.250   5.571   2.272 -1.6478 -0.7506 -0.3067
 6624TIP3   OH241506   3.805   4.518   3.314  0.0581  0.3724  0.0705
 6624TIP3    H141507   3.812   4.458   3.240  0.0011 -1.3533  1.3948
 6624TIP3    H241508   3.718   4.502   3.350  0.2483  0.8786  0.7825
 6625TIP3   OH241509   2.414   3.858   0.553 -0.3927  0.3977  0.5683
 6625TIP3    H141510   2.421   3.777   0.603 -0.2842  0.7795  1.1748
 6625TIP3    H241511   2.347   3.839   0.487  0.5212 -0.5978 -0.1090
 6626TIP3   OH241512   0.933   4.618   0.453  0.6290  0.1115 -0.1179
 6626TIP3    H141513   0.987   4.554   0.406  0.1866  0.2620 -0.8331
 6626TIP3    H241514   0.861   4.566   0.489  1.1770 -0.0724  0.7542
 6627TIP3   OH241515   6.497   5.628   1.360  0.6406 -0.2297 -0.4715
 6627TIP3    H141516   6.581   5.646   1.318  0.1033 -0.2007 -1.5834
 6627TIP3    H241517   6.442   5.704   1.338 -0.4932 -1.4316 -2.0844
 6628TIP3   OH241518   1.649   0.961   3.050 -0.0569 -0.2448  0.2614
 6628TIP3    H141519   1.686   0.874   3.067  3.6401  1.2873  1.0950
 6628TIP3    H241520   1.690   0.989   2.968 -1.3847  0.6689 -0.1226
 6629TIP3   OH241521   1.338   1.465   0.662  0.3294  0.2595 -0.3931
 6629TIP3    H141522   1.259   1.412   0.674  0.0325  0.8910  0.5255
 6629TIP3    H241523   1.406   1.415   0.707 -0.5082  1.9427  3.0425
 6630TIP3   OH241524   3.477   1.665   3.079  0.7075  0.8453  0.1029
 6630TIP3    H141525   3.423   1.586   3.085  0.4647  1.0948  2.0920
 6630TIP3    H241526   3.467   1.695   2.989  0.3338 -1.0565 -0.5253
 6631TIP3   OH241527   3.435   4.194   1.023 -0.0318 -0.0734  0.4224
 6631TIP3    H141528   3.501   4.141   1.067 -0.4858 -0.6466  0.4164
 6631TIP3    H241529   3.470   4.283   1.028  1.5722 -0.5571 -1.0656
 6632TIP3   OH241530   1.266   5.827   4.236 -0.2466  0.6311  0.4072
 6632TIP3    H141531   1.264   5.922   4.248 -0.2390  0.7779 -0.6676
 6632TIP3    H241532   1.217   5.793   4.310 -0.7010  1.5020  0.5223
 6633TIP3   OH241533   0.314   4.119   2.993  0.2876 -0.1997 -0.3418
 6633TIP3    H141534   0.261   4.084   2.921  0.9889 -2.9050  0.3396
 6633TIP3    H241535   0.380   4.052   3.009  1.5959  1.3785  1.3230
 6634TIP3   OH241536   5.747   3.254   3.940  0.2540  0.6174  0.4212
 6634TIP3    H141537   5.815   3.215   3.994 -1.2336 -1.3696  0.9611
 6634TIP3    H241538   5.753   3.208   3.856 -0.8203 -0.0898  0.7043
 6635TIP3   OH241539   5.862   5.760   0.831 -0.3373  0.4660 -0.1704
 6635TIP3    H141540   5.810   5.810   0.767 -0.0537  0.1346 -0.6689
 6635TIP3    H241541   5.933   5.819   0.856  0.3006  0.1471 -1.1544
 6636TIP3   OH241542   4.923   5.623   1.754 -0.2904  0.7714  0.0639
 6636TIP3    H141543   4.868   5.552   1.785  0.4094  1.0570  2.1013
 6636TIP3    H241544   4.997   5.579   1.712 -0.8094  0.3607 -0.4466
 6637TIP3   OH241545   2.991   1.449   1.444 -0.4954  0.7923 -0.0692
 6637TIP3    H141546   2.974   1.513   1.513 -0.3128  0.4876  0.2641
 6637TIP3    H241547   3.058   1.391   1.481 -2.4690 -1.1703  0.7027
 6638TIP3   OH241548   6.016   2.148   1.157 -0.4892  0.2863  0.3340
 6638TIP3    H141549   6.084   2.145   1.090 -0.8291  2.6893 -0.1981
 6638TIP3    H241550   6.022   2.236   1.195 -1.2668 -0.4998  2.4749
 6639TIP3   OH241551   0.047   4.937   2.449  0.5832  0.0170  0.0983
 6639TIP3    H141552   0.019   5.016   2.403  3.5684  0.3996 -1.3095
 6639TIP3    H241553   0.126   4.963   2.496 -0.4431 -1.2746  2.7567
 6640TIP3   OH241554   4.670   1.598   1.668  0.2505 -0.7392 -0.4427
 6640TIP3    H141555   4.585   1.556   1.678  0.8173 -1.4224  2.4720
 6640TIP3    H241556   4.661   1.683   1.711  1.6347 -1.8757  2.3570
 6641TIP3   OH241557   4.615   5.444   0.791  0.0894  0.3593 -0.4729
 6641TIP3    H141558   4.638   5.453   0.884 -1.9524 -0.8592  0.2251
 6641TIP3    H241559   4.561   5.521   0.772  0.3877  0.5348 -0.6075
 6642TIP3   OH241560   1.592   0.443   1.331  0.1310  0.0559 -0.3665
 6642TIP3    H141561   1.682   0.463   1.306  0.1766  0.9852  0.4941
 6642TIP3    H241562   1.567   0.370   1.273  1.2446  0.1304 -0.9734
 6643TIP3   OH241563   4.735   5.902   4.568  0.3837  0.0121  0.0456
 6643TIP3    H141564   4.778   5.943   4.643 -2.2495  0.1760  1.5711
 6643TIP3    H241565   4.647   5.939   4.567 -0.0797 -0.9455 -2.4009
 6644TIP3   OH241566   3.886   5.410   0.103  0.1031  0.6438 -0.6767
 6644TIP3    H141567   3.875   5.317   0.121 -0.1418  0.8134  0.1334
 6644TIP3    H241568   3.981   5.423   0.101  0.1357  0.3134 -1.1415
 6645TIP3   OH241569   1.378   5.894   3.926  0.0555  0.3365 -0.0661
 6645TIP3    H141570   1.319   5.918   3.855 -2.6381 -1.2255  1.4881
 6645TIP3    H241571   1.394   5.976   3.972 -0.3972  0.9029 -0.8861
 6646TIP3   OH241572   3.136   2.514   2.040  0.2686 -0.0126 -0.1400
 6646TIP3    H141573   3.042   2.527   2.050  0.4385  1.1908  0.0616
 6646TIP3    H241574   3.173   2.537   2.126  0.6379 -1.8819  0.2506
 6647TIP3   OH241575   1.898   4.958   4.745  0.1472  0.1297 -0.2631
 6647TIP3    H141576   1.951   4.958   4.824  1.2076  0.5343 -0.9539
 6647TIP3    H241577   1.934   4.887   4.692  1.5768  1.8131 -1.7139
 6648TIP3   OH241578   6.671   4.811   2.937  0.1048 -0.2589 -0.0207
 6648TIP3    H141579   6.701   4.724   2.966 -0.1669  0.1763  1.6946
 6648TIP3    H241580   6.577   4.801   2.927 -0.4112  0.5032  3.0808
 6649TIP3   OH241581   1.149   3.117   8.847 -0.1214 -0.2962  0.4115
 6649TIP3    H141582   1.103   3.048   8.895 -0.0030  0.4557  1.6593
 6649TIP3    H241583   1.081   3.161   8.796 -0.1279 -1.5965 -0.7778
 6650TIP3   OH241584   6.202   1.002   2.777  0.3523  0.5096 -0.7379
 6650TIP3    H141585   6.287   0.977   2.740  1.8923  3.0826  0.7037
 6650TIP3    H241586   6.181   0.932   2.839  0.6250 -0.9243 -2.2147
 6651TIP3   OH241587   1.780   6.689   0.695  0.4138  0.3229 -0.3360
 6651TIP3    H141588   1.847   6.753   0.718  1.6551 -1.2750  0.7349
 6651TIP3    H241589   1.797   6.669   0.603  0.1422  1.3459 -0.6239
 6652TIP3   OH241590   4.236   0.826   3.069  0.1954  0.1413 -0.9855
 6652TIP3    H141591   4.323   0.846   3.035  0.5822 -1.8617 -1.2991
 6652TIP3    H241592   4.178   0.887   3.024  1.5101  2.2124 -0.0124
 6653TIP3   OH241593   4.058   6.346   4.125 -0.6248  0.1719  0.3035
 6653TIP3    H141594   3.971   6.354   4.087 -1.5411 -3.0474  1.3830
 6653TIP3    H241595   4.053   6.394   4.208 -0.1937  2.9219 -1.1788
 6654TIP3   OH241596   1.424   3.183   2.311  0.4543 -0.1712  0.6275
 6654TIP3    H141597   1.411   3.156   2.220 -0.5387 -0.4077  0.8258
 6654TIP3    H241598   1.497   3.130   2.342  1.0864  0.2108 -0.1454
 6655TIP3   OH241599   0.596   5.073   3.895  0.4148  0.2945 -0.0706
 6655TIP3    H141600   0.501   5.062   3.903  0.3820 -0.0236 -0.7907
 6655TIP3    H241601   0.612   5.164   3.919  0.0372  0.1159  0.8922
 6656TIP3   OH241602   6.637   1.674   2.723 -0.3713  0.6679 -0.0218
 6656TIP3    H141603   6.634   1.606   2.656 -0.3171 -0.0114  0.6517
 6656TIP3    H241604   6.562   1.730   2.704 -0.3715  0.4651 -0.6283
 6657TIP3   OH241605   5.678   0.497   3.300  0.1922  0.0931 -0.0550
 6657TIP3    H141606   5.619   0.436   3.345  0.0406 -0.2357 -0.7005
 6657TIP3    H241607   5.710   0.449   3.224 -0.8609  1.2240 -1.2635
 6658TIP3   OH241608   5.548   2.627   3.159  0.1747 -0.4912  0.2031
 6658TIP3    H141609   5.639   2.598   3.159  0.0886 -0.7690  0.2542
 6658TIP3    H241610   5.511   2.589   3.079 -0.9615 -3.8856  2.1192
 6659TIP3   OH241611   2.565   0.541   3.750 -0.2932  0.1102  0.6442
 6659TIP3    H141612   2.582   0.610   3.813 -0.3878  0.1502  0.6264
 6659TIP3    H241613   2.470   0.534   3.747 -0.3324  0.7389 -0.1665
 6660TIP3   OH241614   4.874   0.348   3.739  0.0075  1.0077  0.3380
 6660TIP3    H141615   4.798   0.358   3.683 -0.1389  0.6486  0.4724
 6660TIP3    H241616   4.852   0.275   3.797  1.1219 -0.2195 -0.7242
 6661TIP3   OH241617   0.726   1.653   1.164  0.8793 -0.5649 -0.2950
 6661TIP3    H141618   0.781   1.634   1.088  0.8489  2.8126 -1.3318
 6661TIP3    H241619   0.637   1.636   1.134  1.0332 -2.5643  0.2162
 6662TIP3   OH241620   6.391   5.992   5.252 -0.2157 -1.0350 -0.6053
 6662TIP3    H141621   6.348   6.047   5.187 -0.4945 -0.1429  0.3149
 6662TIP3    H241622   6.454   5.940   5.202  0.3114  0.3757 -1.4545
 6663TIP3   OH241623   2.813   5.455   1.391 -0.1673 -0.4005  0.0878
 6663TIP3    H141624   2.871   5.466   1.316 -0.0061 -1.3483  0.0639
 6663TIP3    H241625   2.732   5.420   1.354 -1.1018  1.6665  0.0018
 6664TIP3   OH241626   5.421   6.332   0.927 -0.3744  0.1213 -0.2821
 6664TIP3    H141627   5.475   6.299   0.999  0.1543  1.5409 -0.0037
 6664TIP3    H241628   5.476   6.324   0.850 -0.5595 -0.4231 -0.3622
 6665TIP3   OH241629   2.131   0.672   0.540 -0.5333 -0.1495  0.3921
 6665TIP3    H141630   2.169   0.671   0.452 -1.3351  0.9651  0.0090
 6665TIP3    H241631   2.131   0.580   0.567 -1.8379 -0.7654 -1.4754
 6666TIP3   OH241632   4.632   2.365   4.447 -0.0045  0.1133 -0.1578
 6666TIP3    H141633   4.673   2.280   4.460 -1.4524 -0.7736 -1.2027
 6666TIP3    H241634   4.683   2.406   4.377  0.0869 -0.3010 -0.3341
 6667TIP3   OH241635   6.825   5.571   2.808 -0.0551 -0.0328 -0.4223
 6667TIP3    H141636   6.830   5.539   2.718  0.1461 -1.0859 -0.0541
 6667TIP3    H241637   6.916   5.571   2.838 -0.0511  0.9194 -0.4123
 6668TIP3   OH241638   2.801   2.436   4.310 -0.2669  0.4428  0.0022
 6668TIP3    H141639   2.897   2.435   4.316 -0.3192  0.5428  0.9901
 6668TIP3    H241640   2.772   2.376   4.379 -0.8529 -2.4932 -2.5633
 6669TIP3   OH241641   2.115   1.129   1.849 -0.0758  0.2418  0.2103
 6669TIP3    H141642   2.172   1.059   1.879  0.4382  0.4668 -0.2391
 6669TIP3    H241643   2.026   1.094   1.859  0.1601 -0.3151  0.3679
 6670TIP3   OH241644   0.612   0.814   0.956  0.6793  0.1140  0.3169
 6670TIP3    H141645   0.556   0.742   0.985  1.0041 -0.2947 -0.0664
 6670TIP3    H241646   0.574   0.843   0.873 -0.4092  1.4601  1.2386
 6671TIP3   OH241647   3.607   1.578   8.852  0.5901 -0.2805  0.3698
 6671TIP3    H141648   3.675   1.522   8.889  0.4410  0.2684  1.5151
 6671TIP3    H241649   3.525   1.536   8.878  0.4778 -0.3758 -0.1243
 6672TIP3   OH241650   3.421   3.288   3.514 -0.0660  0.4587 -0.1929
 6672TIP3    H141651   3.358   3.216   3.521 -0.4165  0.6395 -1.2103
 6672TIP3    H241652   3.433   3.318   3.603  1.1662 -1.7570  0.4771
 6673TIP3   OH241653   6.576   3.729   8.841  0.3277  0.5225 -0.2086
 6673TIP3    H141654   6.664   3.766   8.832  1.8803 -2.0247  2.6057
 6673TIP3    H241655   6.542   3.766   8.922 -0.0072 -0.5519  0.1637
 6674TIP3   OH241656   5.537   1.458   1.248  0.3101 -0.5502 -0.0256
 6674TIP3    H141657   5.510   1.469   1.339  1.1756 -1.6837  0.3965
 6674TIP3    H241658   5.539   1.546   1.212 -0.2347 -0.1081  1.0030
 6675TIP3   OH241659   5.350   4.644   3.277 -0.4299 -0.3077  0.1586
 6675TIP3    H141660   5.278   4.585   3.258 -1.6067  1.8719 -3.1337
 6675TIP3    H241661   5.403   4.644   3.197  1.6617  0.3131  1.4478
 6676TIP3   OH241662   1.550   5.323   3.115 -0.6665  0.8747  0.1494
 6676TIP3    H141663   1.583   5.331   3.205  2.3158  1.0200 -0.8548
 6676TIP3    H241664   1.548   5.413   3.082 -0.2573  0.7002 -0.3737
 6677TIP3   OH241665   1.060   2.989   0.857 -0.6166 -0.0462  0.2980
 6677TIP3    H141666   1.068   2.947   0.943  1.0985  0.6164  0.5110
 6677TIP3    H241667   1.099   2.926   0.796  1.4904  0.9297  0.5491
 6678TIP3   OH241668   1.274   0.202   0.672  0.6088  0.0240  0.7472
 6678TIP3    H141669   1.259   0.218   0.765 -0.6585  1.1642  0.3761
 6678TIP3    H241670   1.368   0.217   0.660  0.5140  1.4187  1.5599
 6679TIP3   OH241671   5.638   1.107   1.740  0.5389 -0.3025  0.0790
 6679TIP3    H141672   5.611   1.161   1.666 -1.1694 -0.6533  0.4013
 6679TIP3    H241673   5.566   1.113   1.802  1.3986 -1.0012  1.1903
 6680TIP3   OH241674   6.386   0.579   1.084  0.1774  0.5237  0.0380
 6680TIP3    H141675   6.431   0.515   1.029 -2.3265 -0.5053 -0.9760
 6680TIP3    H241676   6.367   0.532   1.165 -0.3102  0.4717 -0.1040
 6681TIP3   OH241677   3.689   3.745   5.274  0.9140 -0.1601 -0.3801
 6681TIP3    H141678   3.692   3.653   5.248  2.1747 -0.1650 -0.2839
 6681TIP3    H241679   3.739   3.791   5.207  1.2476  0.2961  0.1712
 6682TIP3   OH241680   4.584   4.089   4.663 -0.2846 -0.0202  0.1253
 6682TIP3    H141681   4.640   4.098   4.586 -0.0418 -0.1004  0.2926
 6682TIP3    H241682   4.625   4.144   4.730  0.8168 -1.7157  0.9255
 6683TIP3   OH241683   3.147   5.060   1.487  0.2674  0.0861  0.3310
 6683TIP3    H141684   3.222   5.043   1.431 -0.7060  0.4674 -1.1359
 6683TIP3    H241685   3.184   5.103   1.564  1.5445  0.2757 -0.3664
 6684TIP3   OH241686   2.571   4.941   4.037  0.0030  0.5404 -0.2085
 6684TIP3    H141687   2.635   5.006   4.067 -0.4643  0.4621  1.0030
 6684TIP3    H241688   2.607   4.857   4.066 -0.6306  0.4948  0.4868
 6685TIP3   OH241689   5.559   5.332   1.322 -0.2754 -0.2036 -0.0973
 6685TIP3    H141690   5.543   5.251   1.370 -1.3452  0.0677  0.0327
 6685TIP3    H241691   5.530   5.313   1.232 -0.7006  0.0864 -0.0236
 6686TIP3   OH241692   4.409   5.250   3.821  0.7360  0.1385 -0.1127
 6686TIP3    H141693   4.447   5.267   3.735 -1.6602 -3.7514 -2.2165
 6686TIP3    H241694   4.331   5.305   3.824 -1.5322 -2.5788 -2.5413
 6687TIP3   OH241695   6.340   3.683   8.679 -0.0763  0.6719  0.4471
 6687TIP3    H141696   6.268   3.699   8.740 -0.5636  2.7809 -0.5518
 6687TIP3    H241697   6.418   3.717   8.724  0.2007 -0.8915  1.2103
 6688TIP3   OH241698   4.744   1.099   2.195  0.4355  0.2031 -0.0283
 6688TIP3    H141699   4.741   1.192   2.171 -1.0641 -0.3300 -2.1912
 6688TIP3    H241700   4.789   1.057   2.121 -0.2243 -0.9635  0.2168
 6689TIP3   OH241701   4.493   5.685   0.800  0.2073 -0.0020 -0.6295
 6689TIP3    H141702   4.469   5.756   0.861 -1.4129 -1.2861  0.2964
 6689TIP3    H241703   4.429   5.691   0.729  0.9985  0.3657 -1.3366
 6690TIP3   OH241704   5.525   1.706   1.395 -0.2445  0.2486  0.3541
 6690TIP3    H141705   5.583   1.661   1.457  1.5055  2.8316  0.7033
 6690TIP3    H241706   5.445   1.722   1.446  0.5963  0.9705  1.4950
 6691TIP3   OH241707   0.831   5.371   0.004 -0.0262 -0.3152  0.4684
 6691TIP3    H141708   0.745   5.396   0.039 -0.1727 -0.1964  0.0297
 6691TIP3    H241709   0.889   5.442   0.031 -0.2051 -0.0652  0.2045
 6692TIP3   OH241710   0.040   5.163   4.311  0.0865 -0.7366  0.1365
 6692TIP3    H141711   0.131   5.159   4.341  0.2961  1.8514  0.1037
 6692TIP3    H241712   0.042   5.132   4.221  0.6532 -2.1160  0.6078
 6693TIP3   OH241713   6.678   2.277   1.478  0.4256 -0.0819 -0.4289
 6693TIP3    H141714   6.740   2.345   1.506 -3.0921  3.4179 -0.2322
 6693TIP3    H241715   6.624   2.261   1.556 -0.9098 -0.5823 -1.4197
 6694TIP3   OH241716   5.028   4.934   1.422 -0.9002 -0.2049  0.3809
 6694TIP3    H141717   5.008   4.860   1.478  1.8145 -2.0439 -0.8859
 6694TIP3    H241718   4.981   4.916   1.341  0.5892 -1.1892 -0.3090
 6695TIP3   OH241719   0.318   3.945   1.004  0.2179  0.1207 -1.0098
 6695TIP3    H141720   0.340   3.956   1.097 -1.8894  0.6079 -0.5094
 6695TIP3    H241721   0.345   4.028   0.963 -1.7936  1.2835 -0.1508
 6696TIP3   OH241722   2.182   1.871   0.603  0.3873 -0.2682 -0.1279
 6696TIP3    H141723   2.199   1.874   0.697 -0.6520  0.2132  0.0551
 6696TIP3    H241724   2.223   1.949   0.567  0.2181 -0.1113  0.0231
 6697TIP3   OH241725   1.064   1.311   3.266 -0.1440  0.2572  0.4577
 6697TIP3    H141726   0.980   1.279   3.233  0.8381 -1.0733 -0.8747
 6697TIP3    H241727   1.095   1.241   3.324  0.7064  0.0375 -0.2339
 6698TIP3   OH241728   1.717   5.682   2.570  0.2629 -0.0053  0.1318
 6698TIP3    H141729   1.674   5.765   2.586 -1.2121 -0.2089 -2.3195
 6698TIP3    H241730   1.807   5.705   2.547 -0.4854  1.1143 -1.9374
 6699TIP3   OH241731   5.025   6.327   0.737 -0.0198 -0.0283 -0.0112
 6699TIP3    H141732   5.003   6.392   0.670 -2.1553  0.7830  1.3794
 6699TIP3    H241733   4.983   6.247   0.707 -0.8614  0.2992  0.2785
 6700TIP3   OH241734   4.497   4.405   1.134 -0.1252  0.4820  0.2593
 6700TIP3    H141735   4.477   4.462   1.059  0.9374  1.6418  0.8402
 6700TIP3    H241736   4.492   4.317   1.097  2.0006  1.0560 -1.6412
 6701TIP3   OH241737   5.975   0.057   4.648  0.1006  0.5047 -0.1900
 6701TIP3    H141738   6.016   0.095   4.725 -0.8177 -0.8585  1.0352
 6701TIP3    H241739   5.955  -0.034   4.673 -1.1737  0.3249 -1.6524
 6702TIP3   OH241740   5.789   5.354   0.239 -0.1297  0.0466 -0.2717
 6702TIP3    H141741   5.730   5.294   0.283  0.6623  0.3485  1.2559
 6702TIP3    H241742   5.734   5.401   0.177 -0.9406 -1.5480 -0.8050
 6703TIP3   OH241743   0.389   0.934   1.984  0.1597  0.1403 -0.2540
 6703TIP3    H141744   0.337   1.010   1.960 -0.6073  0.8028  2.9527
 6703TIP3    H241745   0.480   0.962   1.975 -0.0861  0.6136 -1.3191
 6704TIP3   OH241746   3.114   6.338   1.443 -0.5306  0.1447 -0.8363
 6704TIP3    H141747   3.139   6.320   1.533 -1.0871 -0.3440 -0.7708
 6704TIP3    H241748   3.177   6.403   1.412 -0.1129  0.0354 -0.2150
 6705TIP3   OH241749   0.335   2.328   3.536 -0.3507 -0.4729  0.0197
 6705TIP3    H141750   0.383   2.357   3.613 -0.4286  0.6362 -0.3306
 6705TIP3    H241751   0.268   2.268   3.570 -0.7314  0.4095  0.8897
 6706TIP3   OH241752   2.368   5.777   1.144  0.3725  0.1227  0.3262
 6706TIP3    H141753   2.381   5.776   1.049  0.3911  0.9774  0.3110
 6706TIP3    H241754   2.395   5.865   1.171  0.8179 -0.2675  1.1924
 6707TIP3   OH241755   3.363   0.180   0.975 -0.2244  0.4727  0.4956
 6707TIP3    H141756   3.429   0.247   0.956 -0.7849  0.7633 -0.5278
 6707TIP3    H241757   3.349   0.135   0.891 -1.5480  0.6368  0.6008
 6708TIP3   OH241758   4.895   2.897   3.253  0.6265  0.2802 -0.1425
 6708TIP3    H141759   4.915   2.962   3.185 -1.6881  2.1856  0.8874
 6708TIP3    H241760   4.802   2.907   3.270  0.9270 -0.8149  2.6581
 6709TIP3   OH241761   1.204   1.696   8.773 -0.0206 -0.1462 -0.1733
 6709TIP3    H141762   1.198   1.749   8.694  1.3919 -1.2693 -1.0875
 6709TIP3    H241763   1.297   1.697   8.796 -0.5635  1.3581  2.3814
 6710TIP3   OH241764   4.721   4.936   3.514 -0.0284  0.1458  0.1687
 6710TIP3    H141765   4.659   4.957   3.584 -1.3221  0.1614 -0.9454
 6710TIP3    H241766   4.799   4.986   3.536 -0.5952  0.5853  1.3036
 6711TIP3   OH241767   4.571   5.281   3.069 -0.2050 -0.1896 -0.2825
 6711TIP3    H141768   4.479   5.303   3.081  0.3573  1.7343  0.9326
 6711TIP3    H241769   4.588   5.212   3.134 -1.1740 -1.9867 -1.8149
 6712TIP3   OH241770   4.235   3.231   3.945 -0.3146  0.4280 -0.5073
 6712TIP3    H141771   4.257   3.324   3.942 -0.8707  0.5416 -2.4038
 6712TIP3    H241772   4.213   3.214   4.036  1.9131  1.6325  0.3268
 6713TIP3   OH241773   4.711   5.696   5.128  0.0784 -0.2525  0.0217
 6713TIP3    H141774   4.748   5.758   5.191 -0.4888 -0.1207  0.2260
 6713TIP3    H241775   4.783   5.680   5.066  0.3542  0.3048  0.1880
 6714TIP3   OH241776   3.870   2.901   3.111  0.5146  0.6546  0.1513
 6714TIP3    H141777   3.850   2.807   3.113  0.0880  0.7220 -0.5456
 6714TIP3    H241778   3.785   2.943   3.101  0.8353  1.0280 -1.1676
 6715TIP3   OH241779   0.121   3.595   2.617 -0.8568  0.3077 -0.0406
 6715TIP3    H141780   0.214   3.617   2.614 -0.8051  0.2144  0.5912
 6715TIP3    H241781   0.118   3.514   2.668 -1.3290  0.5905  0.3921
 6716TIP3   OH241782   2.427   5.064   0.318 -0.1441  0.0510  0.1172
 6716TIP3    H141783   2.459   5.146   0.280 -0.9642 -0.5830 -2.1392
 6716TIP3    H241784   2.410   5.008   0.242 -0.8271 -1.7584  1.5335
 6717TIP3   OH241785   2.445   6.372   0.295 -0.3732 -0.5814  0.3510
 6717TIP3    H141786   2.418   6.286   0.262 -0.4427 -1.2852  2.1273
 6717TIP3    H241787   2.375   6.431   0.267 -0.8544 -1.2981  0.0062
 6718TIP3   OH241788   5.604   4.755   4.614  0.0175 -0.1213 -0.3172
 6718TIP3    H141789   5.531   4.798   4.658 -0.8565 -2.0839  0.2558
 6718TIP3    H241790   5.563   4.704   4.544  0.9390 -0.4817 -0.6118
 6719TIP3   OH241791   4.203   5.240   2.789  0.0691  0.6572 -0.2470
 6719TIP3    H141792   4.277   5.181   2.803 -0.2819  0.2436 -0.1076
 6719TIP3    H241793   4.242   5.326   2.776  0.5907  0.3718 -0.5715
 6720TIP3   OH241794   5.541   0.527   1.877  0.0255  0.2182  0.1786
 6720TIP3    H141795   5.529   0.619   1.902 -1.9549 -0.2462  1.1229
 6720TIP3    H241796   5.470   0.511   1.815 -2.7274 -1.8281  3.4867
 6721TIP3   OH241797   4.198   5.763   4.314 -0.0027  0.7137 -0.0334
 6721TIP3    H141798   4.276   5.817   4.298  0.2751  0.7080  1.2204
 6721TIP3    H241799   4.171   5.735   4.227  0.6945  1.7000 -0.5945
 6722TIP3   OH241800   0.410   6.163   1.404  0.3013 -0.1840 -0.2303
 6722TIP3    H141801   0.347   6.207   1.461 -0.0119 -2.3597  1.1795
 6722TIP3    H241802   0.356   6.111   1.344  0.7138 -0.2100 -0.5842
 6723TIP3   OH241803   5.990   6.767   2.649 -0.1897  0.9344  0.4269
 6723TIP3    H141804   6.027   6.841   2.697  1.5091 -0.0346  0.6886
 6723TIP3    H241805   6.061   6.704   2.644 -0.9020  0.2149 -1.7323
 6724TIP3   OH241806   4.698   1.496   3.736  0.1079 -0.1909  0.0702
 6724TIP3    H141807   4.632   1.545   3.786 -1.0394 -2.0973  0.5356
 6724TIP3    H241808   4.736   1.561   3.677 -0.7515  1.4216  1.2042
 6725TIP3   OH241809   5.393   1.807   3.723 -0.3188 -0.6033  0.3835
 6725TIP3    H141810   5.378   1.846   3.809 -0.3779  2.1540 -0.7569
 6725TIP3    H241811   5.313   1.757   3.705 -1.1903  0.4804  1.1011
 6726TIP3   OH241812   6.713   6.152   4.778 -0.0597 -0.7416 -0.6834
 6726TIP3    H141813   6.735   6.082   4.839 -0.7202  0.4785  1.0302
 6726TIP3    H241814   6.633   6.122   4.735 -0.3281 -1.0558  0.0209
 6727TIP3   OH241815   6.771   5.654   2.243 -0.0829 -0.0578  0.4442
 6727TIP3    H141816   6.678   5.632   2.236  0.0926 -1.0663  1.1121
 6727TIP3    H241817   6.781   5.731   2.187 -0.7166 -1.7088 -2.1335
 6728TIP3   OH241818   1.898   3.188   1.270 -0.6079  0.2947  0.2337
 6728TIP3    H141819   1.813   3.187   1.313 -0.0197  1.0937  1.4572
 6728TIP3    H241820   1.946   3.116   1.311  0.0105  1.1593  1.0508
 6729TIP3   OH241821   0.646   2.514   2.464  0.4867  0.6169  0.8220
 6729TIP3    H141822   0.641   2.606   2.490  2.8078  1.3603 -1.0406
 6729TIP3    H241823   0.605   2.467   2.536  1.4840  2.9196  3.0570
 6730TIP3   OH241824   6.156   3.828   0.439  0.2809  0.1995 -0.4716
 6730TIP3    H141825   6.109   3.894   0.490 -1.9798 -1.3352 -0.3932
 6730TIP3    H241826   6.109   3.825   0.356 -1.8819 -3.4825  0.6761
 6731TIP3   OH241827   3.589   3.936   4.658  0.4132 -0.4727 -0.3574
 6731TIP3    H141828   3.521   3.986   4.703  1.6074  1.0928 -0.2302
 6731TIP3    H241829   3.607   3.863   4.717 -1.1613 -0.9512 -0.4180
 6732TIP3   OH241830   1.798   4.119   4.306  0.0050  0.3768  0.0072
 6732TIP3    H141831   1.812   4.213   4.308  1.8706  0.1246  0.3747
 6732TIP3    H241832   1.844   4.089   4.228 -1.7906 -0.1038 -0.9380
 6733TIP3   OH241833   1.437   1.942   3.967  0.7310 -0.2417  0.3044
 6733TIP3    H141834   1.433   1.934   4.063  0.3744 -1.0175  0.2355
 6733TIP3    H241835   1.497   2.015   3.951 -1.0370  1.5059  1.1675
 6734TIP3   OH241836   3.088   1.392   3.753 -0.5661  0.2331 -0.3298
 6734TIP3    H141837   3.126   1.385   3.840  0.3132 -2.5491 -0.8658
 6734TIP3    H241838   3.059   1.483   3.747  0.1201  0.7165  2.5210
 6735TIP3   OH241839   2.464   5.728   2.527  0.4209 -0.0138 -0.0555
 6735TIP3    H141840   2.397   5.718   2.459  1.1254 -0.5082 -0.6906
 6735TIP3    H241841   2.452   5.818   2.558 -0.9302 -0.2885  0.2797
 6736TIP3   OH241842   2.348   3.994   2.141 -0.6899 -0.1526 -0.5756
 6736TIP3    H141843   2.266   4.036   2.167  0.4251 -0.0701  3.5120
 6736TIP3    H241844   2.324   3.906   2.115 -2.1046 -0.1042  0.4870
 6737TIP3   OH241845   4.816   0.267   3.432  0.0431 -0.1861  0.1136
 6737TIP3    H141846   4.901   0.234   3.402  0.5289 -0.0445  1.2652
 6737TIP3    H241847   4.769   0.190   3.463  0.5832 -0.0231  1.3973
 6738TIP3   OH241848   2.347   2.379   1.041  0.1312  0.1351  0.2380
 6738TIP3    H141849   2.344   2.292   1.001  0.6011 -0.3761  1.2621
 6738TIP3    H241850   2.281   2.376   1.111 -0.2515  0.8008 -0.0878
 6739TIP3   OH241851   3.222   4.366   0.840  0.5516  0.3625 -0.6624
 6739TIP3    H141852   3.179   4.307   0.778 -0.3602 -1.7975  1.8327
 6739TIP3    H241853   3.313   4.368   0.811  0.4822 -1.8163 -1.2412
 6740TIP3   OH241854   6.815   2.177   4.267 -0.0818  0.1395 -0.1724
 6740TIP3    H141855   6.908   2.168   4.289  0.1313 -0.0774 -1.1121
 6740TIP3    H241856   6.805   2.269   4.241  0.5257 -0.4891 -2.8644
 6741TIP3   OH241857   4.325   0.331   0.796 -0.1548 -0.1220 -0.2715
 6741TIP3    H141858   4.388   0.353   0.865 -0.9546  0.8976  0.1594
 6741TIP3    H241859   4.268   0.265   0.835 -1.4271  1.4014  0.5558
 6742TIP3   OH241860   1.455   4.521   2.077 -0.6167 -0.1614  0.3752
 6742TIP3    H141861   1.506   4.588   2.121 -0.6370  2.2147 -2.8983
 6742TIP3    H241862   1.373   4.516   2.127  0.2375  0.5938  1.9306
 6743TIP3   OH241863   6.030   4.007   3.551 -0.1288  0.0220  0.0153
 6743TIP3    H141864   6.090   4.042   3.486 -1.2958  1.1433 -0.5023
 6743TIP3    H241865   6.017   4.079   3.613  0.1261 -0.6663  0.8869
 6744TIP3   OH241866   1.999   5.989   2.501  0.8491 -0.3471 -0.2441
 6744TIP3    H141867   1.985   5.894   2.500 -0.2304 -0.2018 -0.6832
 6744TIP3    H241868   1.943   6.022   2.431 -0.7806  0.8813  1.5388
 6745TIP3   OH241869   4.600   6.008   3.106 -0.5524 -0.2413  0.0923
 6745TIP3    H141870   4.590   6.035   3.197 -2.3015  0.1596 -0.1803
 6745TIP3    H241871   4.694   5.999   3.094 -0.2133  0.9346  1.5807
 6746TIP3   OH241872   1.155   0.644   0.017  0.9444  0.1084 -0.3959
 6746TIP3    H141873   1.191   0.714  -0.039  0.5478  0.9269  0.3475
 6746TIP3    H241874   1.066   0.632  -0.014  1.3862 -0.9576 -1.3326
 6747TIP3   OH241875   5.010   2.702   0.627  0.1724  0.2466 -0.0009
 6747TIP3    H141876   5.067   2.648   0.572 -1.9682 -1.2363 -0.9080
 6747TIP3    H241877   5.038   2.791   0.611  2.0026 -0.4108 -0.6446
 6748TIP3   OH241878   1.586   5.746   0.453  0.3222  0.3138 -0.1201
 6748TIP3    H141879   1.576   5.840   0.436 -1.3874 -0.2326 -2.7255
 6748TIP3    H241880   1.543   5.704   0.378  0.0982 -2.5597  1.5029
 6749TIP3   OH241881   2.157   6.412   0.613 -0.2737  0.0655 -0.0041
 6749TIP3    H141882   2.088   6.446   0.670 -0.0808  2.0433 -0.8437
 6749TIP3    H241883   2.159   6.473   0.539  1.3895 -0.7801 -0.7177
 6750TIP3   OH241884   3.695   0.360   4.066  0.0350 -0.2720 -0.1338
 6750TIP3    H141885   3.721   0.413   4.141  1.9990  2.6469 -2.6183
 6750TIP3    H241886   3.604   0.386   4.049 -0.1653 -0.3692  0.7264
 6751TIP3   OH241887   0.455   0.571   2.566  0.3486 -0.2469  0.4098
 6751TIP3    H141888   0.527   0.523   2.605  1.7736 -0.6921 -2.4778
 6751TIP3    H241889   0.495   0.651   2.532 -0.7885  0.1582 -0.0208
 6752TIP3   OH241890   5.407   4.231   0.708 -0.1577  0.8118  0.1874
 6752TIP3    H141891   5.349   4.156   0.695  0.8144  0.1363 -0.4042
 6752TIP3    H241892   5.487   4.209   0.659 -0.8482  3.4260 -2.4225
 6753TIP3   OH241893   6.784   5.884   2.741  0.1607  0.0183 -0.1809
 6753TIP3    H141894   6.759   5.818   2.676 -0.9008 -0.8845  1.0866
 6753TIP3    H241895   6.843   5.943   2.694 -0.6471 -0.5366 -1.9812
 6754TIP3   OH241896   2.216   0.299   8.581  0.3901 -0.1743  0.7251
 6754TIP3    H141897   2.131   0.340   8.569 -0.6851 -2.2967  0.6694
 6754TIP3    H241898   2.270   0.333   8.509 -0.4153  1.0616  0.6716
 6755TIP3   OH241899   4.448   5.235   2.369 -0.3492  0.0322 -0.2307
 6755TIP3    H141900   4.353   5.229   2.360 -0.3695 -0.2824  0.1091
 6755TIP3    H241901   4.472   5.318   2.329 -0.7490  0.0339 -0.4682
 6756TIP3   OH241902   0.017   5.292   0.941 -0.1091  0.1861 -0.2503
 6756TIP3    H141903  -0.015   5.328   1.023 -0.2798 -0.5566  0.0114
 6756TIP3    H241904   0.111   5.279   0.956 -0.2799 -0.6636  0.0892
 6757TIP3   OH241905   1.701   0.388   2.161  0.4003  0.3774  0.3050
 6757TIP3    H141906   1.681   0.298   2.186  0.3819 -0.0281 -1.0492
 6757TIP3    H241907   1.719   0.383   2.067  1.0692  1.6831  0.3345
 6758TIP3   OH241908   3.910   5.903   3.835  0.1242  0.0522  0.7835
 6758TIP3    H141909   3.870   5.857   3.762  0.9519  1.2724 -0.4882
 6758TIP3    H241910   3.854   5.980   3.849  0.8592  0.6797  0.3413
 6759TIP3   OH241911   5.516   1.956   1.284 -0.2347  0.2879 -0.1722
 6759TIP3    H141912   5.538   1.870   1.319  0.4089  0.0576 -1.1091
 6759TIP3    H241913   5.601   1.997   1.267 -0.5253  1.3119  0.7420
 6760TIP3   OH241914   2.879   1.673   1.601 -0.1028 -0.4996  0.6097
 6760TIP3    H141915   2.825   1.728   1.544 -1.7069 -1.3334  1.2551
 6760TIP3    H241916   2.879   1.718   1.685 -1.4181 -1.4235  1.1386
 6761TIP3   OH241917   1.934   3.982   0.456  0.1703  0.2488 -0.1541
 6761TIP3    H141918   1.946   3.888   0.447 -1.0035 -0.1685  2.0949
 6761TIP3    H241919   1.976   4.019   0.378  0.0364 -2.1511 -1.4520
 6762TIP3   OH241920   4.134   1.823   2.462 -0.2891 -0.7787  0.2567
 6762TIP3    H141921   4.075   1.878   2.514 -1.0108  0.5325 -1.8153
 6762TIP3    H241922   4.076   1.763   2.415  0.1158 -0.5087 -0.6292
 6763TIP3   OH241923   2.590   1.078   8.621 -0.2036 -1.0800 -0.3350
 6763TIP3    H141924   2.590   1.169   8.590 -1.7303 -1.1692 -0.6970
 6763TIP3    H241925   2.656   1.034   8.567 -1.1165 -0.6883 -1.8307
 6764TIP3   OH241926   1.072   6.523   3.582 -0.6244 -0.6874  0.0927
 6764TIP3    H141927   1.011   6.540   3.511  0.1564 -0.4186 -0.5343
 6764TIP3    H241928   1.065   6.599   3.639 -1.0552 -0.7749  0.1541
 6765TIP3   OH241929   3.067   2.993   2.297 -0.0040 -0.4267 -0.3071
 6765TIP3    H141930   3.074   3.076   2.344  0.8259 -1.0484  0.7120
 6765TIP3    H241931   3.131   3.000   2.226  1.1429 -0.7352  0.6604
 6766TIP3   OH241932   1.354   6.543   3.807  0.1736  0.9134 -0.1824
 6766TIP3    H141933   1.356   6.609   3.738 -2.6401 -0.1531 -1.4268
 6766TIP3    H241934   1.285   6.572   3.866  0.5502  0.3096  0.5670
 6767TIP3   OH241935   4.961   2.814   3.916  0.1894  0.1360 -0.0684
 6767TIP3    H141936   5.037   2.851   3.961  0.8317 -0.1818 -0.8711
 6767TIP3    H241937   4.901   2.888   3.907  0.5589  0.4811  0.2366
 6768TIP3   OH241938   6.124   0.044   0.815 -0.1272  0.2611  0.2247
 6768TIP3    H141939   6.133   0.137   0.796 -2.6079  0.0517 -2.7398
 6768TIP3    H241940   6.077   0.041   0.898 -2.8867  1.8372 -1.1497
 6769TIP3   OH241941   0.652   1.800   1.997 -0.3494  0.4744  0.4212
 6769TIP3    H141942   0.629   1.786   2.088  0.2950  1.4623  0.7512
 6769TIP3    H241943   0.685   1.890   1.994  3.0373 -0.6313 -0.0435
 6770TIP3   OH241944   1.549   1.262   4.093  0.1673  0.5000  0.1957
 6770TIP3    H141945   1.495   1.218   4.028  0.0913  0.4955  0.2618
 6770TIP3    H241946   1.614   1.197   4.119  0.8758  0.8450 -0.6666
 6771TIP3   OH241947   2.700   6.354   0.207 -0.4381  0.4155 -0.4061
 6771TIP3    H141948   2.610   6.357   0.240 -1.0019  1.8749 -1.9359
 6771TIP3    H241949   2.692   6.330   0.115  0.8380 -0.3657 -0.3447
 6772TIP3   OH241950   6.385   5.362   2.373  0.2498  0.1232 -0.4144
 6772TIP3    H141951   6.297   5.374   2.408  0.6258  0.4039  0.4530
 6772TIP3    H241952   6.399   5.267   2.376 -0.4841 -0.0511 -1.7356
 6773TIP3   OH241953   3.825   2.225   1.592  0.0998  0.3705 -0.5873
 6773TIP3    H141954   3.742   2.216   1.545 -1.3614  0.9924  1.7089
 6773TIP3    H241955   3.817   2.165   1.667  1.1993  1.3383  0.3465
 6774TIP3   OH241956   4.436   2.687   2.851 -0.1506 -0.0102  0.0504
 6774TIP3    H141957   4.485   2.768   2.865 -2.0464  0.9901  1.3352
 6774TIP3    H241958   4.357   2.697   2.904 -1.0381 -2.1894 -0.7360
 6775TIP3   OH241959   1.495   3.895   2.971 -0.0402 -0.0072 -0.4358
 6775TIP3    H141960   1.512   3.885   2.878 -1.1611 -0.6566 -0.5799
 6775TIP3    H241961   1.405   3.866   2.983 -0.3923  1.4085  0.6262
 6776TIP3   OH241962   4.244   5.992   3.478  0.4755 -0.0319 -0.4069
 6776TIP3    H141963   4.246   5.919   3.539  0.0526  0.3397  0.0647
 6776TIP3    H241964   4.189   6.058   3.521  1.4439  0.8537 -0.4820
 6777TIP3   OH241965   0.128   5.955   1.819 -0.6444 -0.2676 -0.5081
 6777TIP3    H141966   0.205   5.958   1.875 -2.3683 -0.7745  2.1025
 6777TIP3    H241967   0.072   5.888   1.859 -2.4288  0.0606 -2.2831
 6778TIP3   OH241968   1.280   3.727   3.371  0.8087  0.1556  0.0335
 6778TIP3    H141969   1.320   3.808   3.341 -0.4660  1.0905  0.7523
 6778TIP3    H241970   1.186   3.740   3.358  0.2163  0.3397  3.5353
 6779TIP3   OH241971   4.370   0.002   0.697 -0.1108  0.0661  0.2372
 6779TIP3    H141972   4.282  -0.020   0.668 -0.3019 -1.0964  1.5865
 6779TIP3    H241973   4.370   0.097   0.709 -0.9643  0.1515 -0.4175
 6780TIP3   OH241974   1.895   2.054   1.035 -0.0541 -0.3969 -0.0034
 6780TIP3    H141975   1.848   1.980   1.072 -1.8433 -0.0406 -1.4288
 6780TIP3    H241976   1.909   2.030   0.943 -0.2593  0.8101 -0.3698
 6781TIP3   OH241977   0.809   4.901   3.777 -0.3478 -0.2571 -0.0429
 6781TIP3    H141978   0.853   4.937   3.701  1.2353 -0.0276  0.9443
 6781TIP3    H241979   0.767   4.977   3.819 -0.7370 -0.2926 -0.3643
 6782TIP3   OH241980   2.244   3.807   1.420 -0.4533 -0.1485 -0.4580
 6782TIP3    H141981   2.262   3.724   1.376  1.8525  0.2955 -0.4773
 6782TIP3    H241982   2.193   3.857   1.356  0.0958 -0.6961 -1.3492
 6783TIP3   OH241983   3.188   6.742   0.530 -0.8417  0.6541  0.5097
 6783TIP3    H141984   3.254   6.751   0.461 -1.8028  3.2442 -0.1863
 6783TIP3    H241985   3.238   6.741   0.611  0.2331 -1.0910 -0.1156
 6784TIP3   OH241986   3.842   1.556   4.082 -0.5955 -0.0779  0.2248
 6784TIP3    H141987   3.904   1.483   4.077 -1.0649 -0.5338  1.0324
 6784TIP3    H241988   3.869   1.605   4.159 -1.0427 -0.0996  0.3972
 6785TIP3   OH241989   4.775   4.062   3.611  0.2434  0.2764 -0.6356
 6785TIP3    H141990   4.792   3.998   3.542  0.1219 -2.5940  1.7769
 6785TIP3    H241991   4.861   4.075   3.653 -0.2550 -0.7350  0.7698
 6786TIP3   OH241992   1.648   1.460   2.003  0.2847  0.0663 -0.3076
 6786TIP3    H141993   1.730   1.421   2.033  0.3331 -0.0035 -0.5302
 6786TIP3    H241994   1.644   1.545   2.047  0.2662 -0.1124  0.0362
 6787TIP3   OH241995   3.260   6.290   0.610  0.1137  0.2275 -0.0309
 6787TIP3    H141996   3.214   6.240   0.543  0.6891 -0.8386  0.3394
 6787TIP3    H241997   3.191   6.336   0.658 -0.3178  0.8742 -1.2237
 6788TIP3   OH241998   0.868   4.513   0.926 -0.0277  0.1928  0.0231
 6788TIP3    H141999   0.905   4.432   0.891  0.4786  0.5068 -0.1869
 6788TIP3    H242000   0.808   4.544   0.857 -0.0336  0.1256 -0.0021
 6789TIP3   OH242001   3.670   4.990   0.018  0.0832 -0.0852 -0.1419
 6789TIP3    H142002   3.719   4.910  -0.004  0.2652  0.0776 -0.3277
 6789TIP3    H242003   3.579   4.961   0.022  0.1737 -0.3517  0.0195
 6790TIP3   OH242004   4.665   0.030   3.256 -0.1461  0.1854 -0.4556
 6790TIP3    H142005   4.682   0.007   3.347  0.2839  0.8966 -0.3522
 6790TIP3    H242006   4.751   0.047   3.218 -0.1651 -1.5797 -1.4173
 6791TIP3   OH242007   6.259   5.802   3.101 -0.1408 -0.0436 -0.3021
 6791TIP3    H142008   6.233   5.718   3.062 -0.2554  0.2654 -0.8998
 6791TIP3    H242009   6.241   5.791   3.195 -1.1474 -0.3177 -0.5124
 6792TIP3   OH242010   4.778   6.288   3.214 -0.3778  0.3072 -0.3299
 6792TIP3    H142011   4.869   6.257   3.214  0.2910  2.1502 -0.2897
 6792TIP3    H242012   4.738   6.244   3.289  1.2417  1.4550  1.3016
 6793TIP3   OH242013   3.315   3.565   1.529 -0.1141 -0.5030  0.1614
 6793TIP3    H142014   3.241   3.520   1.490  0.4483  1.6887 -4.0176
 6793TIP3    H242015   3.276   3.624   1.594 -1.8696 -0.6628 -0.6838
 6794TIP3   OH242016   6.198   6.738   3.172  0.3446  0.2692  0.6301
 6794TIP3    H142017   6.164   6.697   3.252  0.9946 -0.8206  0.3700
 6794TIP3    H242018   6.266   6.797   3.202 -1.5530  2.3489  1.1480
 6795TIP3   OH242019   5.433   3.230   1.561  0.1470 -0.2296 -0.4384
 6795TIP3    H142020   5.338   3.224   1.569  0.2792 -0.2063  1.8319
 6795TIP3    H242021   5.450   3.324   1.557  0.1380 -0.1802  0.5262
 6796TIP3   OH242022   6.259   3.804   1.015  0.0980 -0.1105  0.2545
 6796TIP3    H142023   6.223   3.716   1.005  3.4338 -1.4000 -2.4376
 6796TIP3    H242024   6.234   3.850   0.934  0.1381  0.7415  0.7093
 6797TIP3   OH242025   4.348   1.130   3.644 -0.1999  0.1942  0.3549
 6797TIP3    H142026   4.378   1.072   3.574 -1.6833 -2.5111  1.8050
 6797TIP3    H242027   4.409   1.204   3.641  0.1367 -0.0414 -3.3758
 6798TIP3   OH242028   0.199   6.075   1.234 -0.8470 -0.5262 -0.0154
 6798TIP3    H142029   0.245   5.999   1.198  0.3720 -0.8899  2.0837
 6798TIP3    H242030   0.237   6.150   1.189 -0.1591 -1.0079 -0.2600
 6799TIP3   OH242031   0.634   2.067   2.196  0.1222 -0.2252 -0.1151
 6799TIP3    H142032   0.643   1.975   2.223  4.2886  0.2069  0.6822
 6799TIP3    H242033   0.680   2.116   2.265 -2.8805  2.6657  0.0525
 6800TIP3   OH242034   5.329   0.620   2.065  0.2598  0.2581 -0.3286
 6800TIP3    H142035   5.351   0.678   2.138 -3.4798  0.4514  0.8890
 6800TIP3    H242036   5.360   0.534   2.093 -0.9869  0.3469  1.5524
 6801TIP3   OH242037   2.297   2.059   4.357 -0.1312 -0.0441  0.1260
 6801TIP3    H142038   2.241   2.017   4.423  0.2588  0.9265  1.0940
 6801TIP3    H242039   2.378   2.009   4.360 -0.5574 -0.8018 -0.5445
 6802TIP3   OH242040   4.497   1.430   2.248  0.0781  0.0988 -0.2458
 6802TIP3    H142041   4.453   1.429   2.333  0.3318  1.3734 -0.0905
 6802TIP3    H242042   4.438   1.478   2.191  1.2816  1.9340 -0.0061
 6803TIP3   OH242043   2.410   0.748   0.680 -0.8949 -0.1626  0.5414
 6803TIP3    H142044   2.477   0.760   0.613 -0.2705  2.8458  1.5523
 6803TIP3    H242045   2.403   0.654   0.691  1.7916 -0.6236 -0.9610
 6804TIP3   OH242046   0.899   4.095   0.687  0.2600  0.3240  0.3216
 6804TIP3    H142047   0.938   4.021   0.734 -0.0299 -0.5346 -0.7467
 6804TIP3    H242048   0.823   4.119   0.739 -0.3706 -0.9716  0.0292
 6805TIP3   OH242049   6.599   0.508   1.775 -0.1103  0.0524  0.0581
 6805TIP3    H142050   6.632   0.432   1.823  0.4596 -0.8679 -1.6905
 6805TIP3    H242051   6.506   0.491   1.763  0.4195 -1.7195 -2.4717
 6806TIP3   OH242052   5.185   1.469   2.739 -0.2459 -0.1336  0.5272
 6806TIP3    H142053   5.188   1.388   2.688 -1.0765 -0.3418  0.7957
 6806TIP3    H242054   5.205   1.441   2.828  0.5450  0.1299  0.4417
 6807TIP3   OH242055   3.414   0.295   4.313  0.0777  0.0443 -0.3206
 6807TIP3    H142056   3.380   0.367   4.365  0.1748  0.0550 -0.2703
 6807TIP3    H242057   3.508   0.293   4.334  0.0011 -0.3622 -0.0052
 6808TIP3   OH242058   5.851   4.730   3.105 -0.6793 -0.4833 -0.0296
 6808TIP3    H142059   5.855   4.793   3.178 -0.4943 -1.7980  1.1504
 6808TIP3    H242060   5.790   4.663   3.136  0.1472 -1.5582 -0.6947
 6809TIP3   OH242061   3.877   6.225   2.925  0.6484  0.0045  0.1226
 6809TIP3    H142062   3.867   6.303   2.870  0.6928  1.7144  2.3689
 6809TIP3    H242063   3.864   6.258   3.014 -0.2770 -2.7652  1.1099
 6810TIP3   OH242064   2.528   3.741   3.469  0.2474 -0.0014 -0.4945
 6810TIP3    H142065   2.505   3.664   3.521  3.3306 -1.0893 -0.5436
 6810TIP3    H242066   2.448   3.762   3.420 -1.0172 -2.4679  0.3574
 6811TIP3   OH242067   1.993   0.727   1.778 -0.1197 -0.3769  0.1248
 6811TIP3    H142068   1.915   0.771   1.813  0.7947  0.5578  1.0836
 6811TIP3    H242069   2.027   0.788   1.712  0.3831 -0.2565  0.4834
 6812TIP3   OH242070   3.748   5.583   3.307  0.2646  0.5177  0.3362
 6812TIP3    H142071   3.655   5.602   3.324  0.0789 -0.2020  0.1570
 6812TIP3    H242072   3.782   5.664   3.268 -0.4212  0.6034 -0.0979
 6813TIP3   OH242073   3.004   3.717   3.850 -0.0413 -0.5563 -0.2695
 6813TIP3    H142074   3.037   3.805   3.868 -1.9561  0.5772 -1.8258
 6813TIP3    H242075   3.048   3.691   3.769  1.2117 -1.4746  0.6683
 6814TIP3   OH242076   0.266   5.414   4.785  0.4403 -0.1791  0.3535
 6814TIP3    H142077   0.358   5.389   4.794 -0.3932 -3.5555  0.6751
 6814TIP3    H242078   0.229   5.349   4.726 -1.5148  1.9232 -0.8950
 6815TIP3   OH242079   2.326   0.762   2.735 -0.3840  0.3926 -0.0799
 6815TIP3    H142080   2.230   0.761   2.742 -0.3172 -1.0964  1.0266
 6815TIP3    H242081   2.342   0.754   2.641 -1.3640 -1.3102 -0.1402
 6816TIP3   OH242082   1.484   2.021   3.412 -0.0511  0.0425  0.1036
 6816TIP3    H142083   1.533   1.945   3.380  0.7017  0.8505 -0.7017
 6816TIP3    H242084   1.517   2.095   3.362 -1.8160  0.7020 -0.1765
 6817TIP3   OH242085   2.401   6.780   3.200  0.3979 -0.7342 -0.2315
 6817TIP3    H142086   2.411   6.851   3.264 -0.9149 -0.9540  0.2437
 6817TIP3    H242087   2.322   6.803   3.152  1.0833 -0.8503 -1.4552
 6818TIP3   OH242088   3.968   6.383   3.164  0.1161  0.4635  0.2428
 6818TIP3    H142089   3.968   6.477   3.177  1.6095  0.5762 -0.3547
 6818TIP3    H242090   4.038   6.351   3.221  1.3304  0.0540 -1.3733
 6819TIP3   OH242091   4.321   1.224   3.186  0.2998  0.0794 -0.7833
 6819TIP3    H142092   4.367   1.169   3.251  1.1520  0.1195 -1.3316
 6819TIP3    H242093   4.250   1.168   3.154  1.4936 -0.9562 -1.7487
 6820TIP3   OH242094   6.640   5.800   1.102  0.1493  0.0041  0.1731
 6820TIP3    H142095   6.566   5.844   1.144  1.7031  1.9892  0.9892
 6820TIP3    H242096   6.686   5.869   1.055  1.0535 -1.3326 -0.9934
 6821TIP3   OH242097   2.311   4.110   3.173  0.4130  0.0567 -0.4660
 6821TIP3    H142098   2.403   4.136   3.181  0.3629  0.0840  0.0825
 6821TIP3    H242099   2.274   4.126   3.260  0.1722 -1.0645 -0.3488
 6822TIP3   OH242100   4.532   0.357   4.323  0.3951 -0.2735 -0.1938
 6822TIP3    H142101   4.460   0.353   4.260  0.1746 -3.3483  0.0925
 6822TIP3    H242102   4.500   0.309   4.399  1.6640  0.9943  1.2062
 6823TIP3   OH242103   1.389   5.886   1.105  0.2149  0.2292 -0.5132
 6823TIP3    H142104   1.359   5.976   1.092 -1.8351 -0.3963 -0.3680
 6823TIP3    H242105   1.340   5.855   1.181  2.7373 -0.2429  1.0239
 6824TIP3   OH242106   4.722   1.174   3.459 -0.2874 -0.1201 -0.2120
 6824TIP3    H142107   4.796   1.182   3.400  0.5645  1.0103  0.9422
 6824TIP3    H242108   4.758   1.194   3.546 -1.9218  0.4173  0.3884
 6825TIP3   OH242109   0.998   0.869   3.376  0.1338 -0.8169 -0.3962
 6825TIP3    H142110   0.939   0.806   3.336 -2.1663  1.5503 -1.0049
 6825TIP3    H242111   1.003   0.843   3.468  0.0579 -2.3982 -0.8198
 6826TIP3   OH242112   5.815   2.800   4.838 -0.0552 -0.6503  0.7165
 6826TIP3    H142113   5.892   2.744   4.852  0.3640 -0.0247  0.9312
 6826TIP3    H242114   5.841   2.886   4.870 -1.5851 -0.9216  2.8802
 6827TIP3   OH242115   6.815   2.929   1.117  0.7337  0.6921 -0.0723
 6827TIP3    H142116   6.832   2.898   1.028  0.8821  0.3671  0.0677
 6827TIP3    H242117   6.728   2.970   1.113 -0.1017 -1.0063  0.0554
 6828TIP3   OH242118   5.953   0.829   3.615 -0.0737 -0.0470  0.2987
 6828TIP3    H142119   5.902   0.910   3.609  0.0654  0.1871  1.8291
 6828TIP3    H242120   5.889   0.763   3.642  0.0755 -0.1530  0.3929
 6829TIP3   OH242121   2.729   3.351   0.684  0.4707  0.8309  0.8811
 6829TIP3    H142122   2.767   3.395   0.760  0.6963  1.9516  0.1421
 6829TIP3    H242123   2.678   3.419   0.640 -0.3634 -0.0250  0.4980
 6830TIP3   OH242124   0.650   5.930   4.842  0.8012 -0.3455  0.6178
 6830TIP3    H142125   0.637   5.846   4.797  0.0905  0.4776 -0.7861
 6830TIP3    H242126   0.700   5.908   4.920 -0.5504 -2.2771  1.0146
 6831TIP3   OH242127   3.160   0.830   2.415 -0.2494 -0.3214  0.5851
 6831TIP3    H142128   3.159   0.924   2.400 -0.6132 -0.3181  0.6299
 6831TIP3    H242129   3.217   0.819   2.491 -0.2918 -0.1308  0.6451
 6832TIP3   OH242130   4.607   3.106   3.097 -0.3761  0.5296 -0.2457
 6832TIP3    H142131   4.591   3.052   3.175  0.8559 -0.9410 -0.9536
 6832TIP3    H242132   4.653   3.183   3.131  0.7233 -0.3911  0.4323
 6833TIP3   OH242133   1.441   0.713   4.807 -0.0902  0.1498 -0.2272
 6833TIP3    H142134   1.439   0.619   4.823  2.8588 -0.3824 -2.0840
 6833TIP3    H242135   1.378   0.727   4.737  0.6003 -0.7990 -1.0809
 6834TIP3   OH242136   0.310   4.619   4.217  0.2187 -0.0140  0.2697
 6834TIP3    H142137   0.341   4.547   4.162  1.7095  0.2924  0.6823
 6834TIP3    H242138   0.308   4.582   4.306 -0.9116 -0.1124  0.2186
 6835TIP3   OH242139   1.235   0.568   3.289  1.0004  0.2062 -0.5873
 6835TIP3    H142140   1.249   0.586   3.196 -0.8027  1.5054 -0.6600
 6835TIP3    H242141   1.212   0.475   3.292  1.7911 -0.0247 -1.3390
 6836TIP3   OH242142   3.150   0.349   4.800 -0.0568 -0.2398  0.4288
 6836TIP3    H142143   3.066   0.365   4.757 -0.0275 -0.4470  0.2948
 6836TIP3    H242144   3.126   0.321   4.889 -0.1011  0.8839  0.7840
 6837TIP3   OH242145   0.254   0.336   0.951  0.3182 -0.6924  0.3551
 6837TIP3    H142146   0.346   0.350   0.929  0.4674 -1.5909  0.3675
 6837TIP3    H242147   0.254   0.258   1.007 -0.2951  0.2218  1.6717
 6838TIP3   OH242148   5.718   1.079   2.483  0.1672  0.0281 -0.1512
 6838TIP3    H142149   5.779   1.100   2.412 -0.8622 -0.0865 -1.0875
 6838TIP3    H242150   5.747   0.994   2.515 -0.0611 -0.4597 -1.2118
 6839TIP3   OH242151   3.493   1.265   2.188 -0.1775  0.6982  0.4294
 6839TIP3    H142152   3.459   1.340   2.138  1.5234  1.4772  0.3681
 6839TIP3    H242153   3.509   1.197   2.122 -0.7384  0.6556  0.3369
 6840TIP3   OH242154   5.830   2.552   3.116 -0.3571  0.0813  0.7660
 6840TIP3    H142155   5.922   2.527   3.117  0.0387  1.4327  0.9745
 6840TIP3    H242156   5.793   2.511   3.038  0.6288  0.1971  0.2325
 6841TIP3   OH242157   1.008   1.547   2.360 -0.4409 -0.0278  0.4654
 6841TIP3    H142158   1.053   1.479   2.311 -1.0028  0.2855 -0.5149
 6841TIP3    H242159   1.075   1.612   2.379  0.1072 -0.8451  1.4345
 6842TIP3   OH242160   3.731   5.786   1.928  0.2697 -0.5741  0.0158
 6842TIP3    H142161   3.737   5.845   1.853  1.2914  0.6957  1.0501
 6842TIP3    H242162   3.800   5.721   1.913 -1.5209 -2.2073 -1.6419
 6843TIP3   OH242163   4.350   3.364   2.543 -0.0436 -0.1502  0.3543
 6843TIP3    H142164   4.291   3.344   2.470 -2.3754 -0.9026  2.2875
 6843TIP3    H242165   4.415   3.424   2.506 -1.5296  0.0753 -2.1339
 6844TIP3   OH242166   2.230   2.550   0.798 -0.3537  0.3595  0.0225
 6844TIP3    H142167   2.203   2.494   0.871 -0.3980 -0.5762 -0.6949
 6844TIP3    H242168   2.164   2.534   0.730  1.0958 -0.7907 -1.1969
 6845TIP3   OH242169   1.219   5.407   1.453  0.0636 -0.2755  0.1132
 6845TIP3    H142170   1.264   5.323   1.457 -0.5033 -0.5471  0.9928
 6845TIP3    H242171   1.225   5.442   1.542 -1.6168 -0.4170  0.3138
 6846TIP3   OH242172   1.075   5.038   4.663  0.0879 -0.2892  0.2442
 6846TIP3    H142173   1.150   4.979   4.670 -1.2555 -1.9970  1.0290
 6846TIP3    H242174   1.065   5.052   4.569  0.7120 -0.9535  0.0668
 6847TIP3   OH242175   4.077   2.094   4.873 -0.2357  0.4437  0.1400
 6847TIP3    H142176   4.125   2.138   4.803 -0.0256  1.4545  0.8912
 6847TIP3    H242177   4.001   2.054   4.829  1.0191 -0.8034 -0.9887
 6848TIP3   OH242178   4.221   2.582   4.397  0.2218 -0.3491 -0.1546
 6848TIP3    H142179   4.184   2.494   4.397  0.7899 -0.5948 -0.6979
 6848TIP3    H242180   4.202   2.616   4.485 -2.5787  0.0951 -0.8507
 6849TIP3   OH242181   0.535   3.617   1.213 -0.5851  0.2020 -0.5245
 6849TIP3    H142182   0.465   3.559   1.243  1.8223 -1.5884  2.0825
 6849TIP3    H242183   0.528   3.695   1.269  1.8175 -1.7094  2.7613
 6850TIP3   OH242184   6.613   2.170   1.142  0.2196 -0.5441  0.2457
 6850TIP3    H142185   6.594   2.248   1.195  1.1112 -0.5777  0.6348
 6850TIP3    H242186   6.627   2.205   1.054  1.6602 -0.1194  0.6231
 6851TIP3   OH242187   3.712   6.656   2.203 -0.3817 -0.1595  0.5886
 6851TIP3    H142188   3.761   6.655   2.121 -0.7296  0.6657  0.3587
 6851TIP3    H242189   3.638   6.715   2.186 -0.3912  0.1224  1.5306
 6852TIP3   OH242190   5.093   5.245   5.060  0.2560 -0.3794  0.0450
 6852TIP3    H142191   5.130   5.181   5.120 -1.2165 -0.8755  0.4508
 6852TIP3    H242192   5.052   5.193   4.991 -0.2677  0.1452 -0.0456
 6853TIP3   OH242193   5.345   0.519   3.948  0.7852  0.5019 -0.9964
 6853TIP3    H142194   5.264   0.548   3.991  0.6603 -1.1544 -0.0411
 6853TIP3    H242195   5.385   0.600   3.916 -0.7671  1.4523 -0.6371
 6854TIP3   OH242196   2.103   0.065   1.184  0.2720  0.6424  0.6310
 6854TIP3    H142197   2.197   0.069   1.198  0.7013 -0.5652 -1.3914
 6854TIP3    H242198   2.086  -0.027   1.164 -1.6371  0.5041  2.5722
 6855TIP3   OH242199   5.583   1.224   2.667  0.2667 -0.6362  0.5804
 6855TIP3    H142200   5.601   1.175   2.587  2.2666 -0.2302  0.7306
 6855TIP3    H242201   5.566   1.313   2.637 -0.5304 -0.8032  0.5146
 6856TIP3   OH242202   4.447   6.128   0.813  0.1787  0.2540  0.0386
 6856TIP3    H142203   4.456   6.210   0.863 -1.2577  0.0288  0.7270
 6856TIP3    H242204   4.457   6.154   0.722  1.0192  0.9874  0.3298
 6857TIP3   OH242205   0.382   4.442   2.707  0.0418  1.0991  0.3875
 6857TIP3    H142206   0.356   4.534   2.705  0.9098  1.3509 -1.4929
 6857TIP3    H242207   0.314   4.397   2.657  0.6939  1.0480 -0.4723
 6858TIP3   OH242208   2.861   2.173   8.650  0.0154  0.0780 -0.3463
 6858TIP3    H142209   2.833   2.127   8.571  1.8598  0.9163 -1.5728
 6858TIP3    H242210   2.783   2.176   8.705 -1.0265 -1.5558 -1.6229
 6859TIP3   OH242211   5.480   0.480   0.024  0.4782 -0.0540 -0.1140
 6859TIP3    H142212   5.482   0.528  -0.059 -0.8608  1.7620  0.8543
 6859TIP3    H242213   5.573   0.469   0.047  0.8373  0.8943 -1.0240
 6860TIP3   OH242214   4.688   1.086   0.292  0.4274 -0.4867 -0.3674
 6860TIP3    H142215   4.620   1.153   0.285  0.4396 -0.5387 -0.9750
 6860TIP3    H242216   4.715   1.069   0.202 -0.3907 -2.1392 -0.3321
 6861TIP3   OH242217   5.289   1.204   3.588 -0.3538  0.4098 -0.2310
 6861TIP3    H142218   5.325   1.292   3.598 -0.6946  0.6281 -0.8782
 6861TIP3    H242219   5.209   1.216   3.538 -2.2750  0.1390  2.5655
 6862TIP3   OH242220   3.946   1.427   3.565 -0.1998  0.5044 -0.2469
 6862TIP3    H142221   3.868   1.429   3.620 -0.4681  0.3502 -0.6155
 6862TIP3    H242222   3.987   1.343   3.585 -0.6347  0.1663 -0.7345
 6863TIP3   OH242223   6.724   4.486   1.426  0.5308  0.2771  0.0889
 6863TIP3    H142224   6.778   4.563   1.443  0.3192  0.1925  1.2335
 6863TIP3    H242225   6.654   4.492   1.491  0.3136 -0.6947 -0.0489
 6864TIP3   OH242226   2.555   5.196   1.779 -0.4425 -0.5986  0.2931
 6864TIP3    H142227   2.469   5.182   1.818 -0.7291  1.8105  0.6653
 6864TIP3    H242228   2.567   5.122   1.720 -3.0315 -0.6733 -0.2319
 6865TIP3   OH242229   0.006   1.892   1.788  0.4468 -0.2300 -0.1172
 6865TIP3    H142230  -0.060   1.830   1.820  1.1723 -1.1640 -0.3804
 6865TIP3    H242231  -0.016   1.975   1.830 -1.3496 -0.3262 -0.7848
 6866TIP3   OH242232   4.955   4.639   3.196  0.4351 -0.1790 -0.4392
 6866TIP3    H142233   4.952   4.653   3.102  0.8815  0.6550 -0.3349
 6866TIP3    H242234   4.890   4.700   3.232  0.8419  0.0868 -0.1495
 6867TIP3   OH242235   3.504   6.030   1.617  0.2363  0.2697  0.0520
 6867TIP3    H142236   3.528   5.953   1.567  0.9774  0.2473  0.4397
 6867TIP3    H242237   3.502   6.101   1.553  0.6914  0.1460 -0.0996
 6868TIP3   OH242238   3.568   0.948   2.772 -0.0461 -0.1660  0.0321
 6868TIP3    H142239   3.563   0.864   2.817  0.8866  0.1914  0.8496
 6868TIP3    H242240   3.661   0.965   2.763 -0.2220  0.7868 -0.1229
 6869TIP3   OH242241   5.338   0.835   0.214  0.3020 -0.2012 -0.0367
 6869TIP3    H142242   5.382   0.912   0.251 -0.2580 -0.3449  0.9619
 6869TIP3    H242243   5.274   0.871   0.152  1.0978  0.0541 -0.7323
 6870TIP3   OH242244   2.846   0.423   2.609 -0.7923 -0.3928 -0.5955
 6870TIP3    H142245   2.853   0.412   2.515 -2.1316 -0.9845 -0.6593
 6870TIP3    H242246   2.930   0.458   2.637  0.3717 -2.1783 -1.7251
 6871TIP3   OH242247   4.496   2.158   3.137 -0.0596  0.2657  0.1602
 6871TIP3    H142248   4.403   2.142   3.150 -0.2059  1.6069  0.8608
 6871TIP3    H242249   4.504   2.178   3.043 -0.4819  0.2632  0.1229
 6872TIP3   OH242250   5.093   0.542   3.647  0.4826 -0.2096  0.0934
 6872TIP3    H142251   5.110   0.465   3.593  1.0594 -0.3757  0.5055
 6872TIP3    H242252   5.124   0.615   3.594 -1.1218 -0.1315 -0.7868
 6873TIP3   OH242253   3.807   3.227   3.176 -0.4318 -0.1453 -0.3069
 6873TIP3    H142254   3.744   3.159   3.152 -1.2428  0.3735  0.3167
 6873TIP3    H242255   3.772   3.266   3.256  0.4530  0.4559 -0.1931
 6874TIP3   OH242256   6.075   6.746   2.252 -0.1634  0.5053 -0.8789
 6874TIP3    H142257   6.162   6.722   2.283  0.1381  3.8965  1.4095
 6874TIP3    H242258   6.015   6.694   2.305  0.4923  1.2808  0.7034
 6875TIP3   OH242259   2.968   4.923   2.260 -0.2859 -0.5082 -0.6673
 6875TIP3    H142260   3.038   4.987   2.253 -0.9823  0.1915 -1.6669
 6875TIP3    H242261   2.905   4.949   2.193 -1.1328 -1.5755 -0.3301
 6876TIP3   OH242262   1.522   5.970   4.213  0.0599 -0.1854  0.2722
 6876TIP3    H142263   1.578   5.924   4.275 -1.4950 -1.1466  1.0136
 6876TIP3    H242264   1.494   6.049   4.259  1.6433  0.8828 -0.5083
 6877TIP3   OH242265   1.721   1.518   3.472 -0.6425 -0.3316 -0.0712
 6877TIP3    H142266   1.673   1.492   3.393 -1.6721  0.5056  0.2510
 6877TIP3    H242267   1.705   1.447   3.534 -1.5865 -0.0165  0.0684
 6878TIP3   OH242268   2.867   5.422   2.086 -0.0888  0.0874  0.7422
 6878TIP3    H142269   2.860   5.364   2.010 -1.2442 -1.1452  1.7500
 6878TIP3    H242270   2.791   5.401   2.140  1.4162 -0.0762  2.9195
 6879TIP3   OH242271   6.668   2.551   3.652 -0.0575 -0.1217  0.2770
 6879TIP3    H142272   6.731   2.559   3.580  1.2459  1.3242  1.5131
 6879TIP3    H242273   6.716   2.579   3.730 -1.9275  0.0001  1.4564
 6880TIP3   OH242274   3.696   4.499   2.860 -0.0207 -0.0545  0.5710
 6880TIP3    H142275   3.783   4.531   2.840 -0.7685  1.7213 -0.1003
 6880TIP3    H242276   3.638   4.573   2.841 -1.9425 -1.8969 -1.2955
 6881TIP3   OH242277   5.841   3.941   1.572 -0.4110 -0.4420 -0.0772
 6881TIP3    H142278   5.762   3.923   1.622  0.6167 -0.9029  1.4674
 6881TIP3    H242279   5.894   3.996   1.630  1.3940 -2.0825 -0.0826
 6882TIP3   OH242280   5.174   2.025   2.017 -0.7223  0.4605  0.1090
 6882TIP3    H142281   5.082   2.022   2.044 -1.1203  0.2466 -1.2288
 6882TIP3    H242282   5.219   1.973   2.083 -1.5138  0.7344  0.9053
 6883TIP3   OH242283   4.304   3.858   4.346  0.1684  0.2417 -0.1419
 6883TIP3    H142284   4.282   3.795   4.415  2.3320 -1.2831 -0.7482
 6883TIP3    H242285   4.241   3.841   4.277 -0.2532 -0.1471  0.3290
 6884TIP3   OH242286   1.612   2.300   1.276 -0.2264 -0.1341  0.5899
 6884TIP3    H142287   1.572   2.386   1.270  0.8454  0.3381 -0.4271
 6884TIP3    H242288   1.641   2.281   1.186  0.6240 -1.0085  1.0237
 6885TIP3   OH242289   2.183   3.927   2.745  0.2799  0.2208 -0.2948
 6885TIP3    H142290   2.240   3.885   2.681 -1.4759 -0.4723 -1.4808
 6885TIP3    H242291   2.229   4.007   2.768  1.7930 -0.3709 -1.0827
 6886TIP3   OH242292   0.148   6.778   4.210 -0.2082 -0.3528 -0.1067
 6886TIP3    H142293   0.100   6.819   4.282  0.6973  0.1839  0.2071
 6886TIP3    H242294   0.233   6.821   4.211 -0.0304 -0.6649 -1.2197
 6887TIP3   OH242295   5.671   6.251   1.683  0.4604 -0.6501 -0.0226
 6887TIP3    H142296   5.744   6.224   1.738 -0.5799 -1.1476  1.1629
 6887TIP3    H242297   5.624   6.170   1.664 -1.2171 -0.0669  1.3872
 6888TIP3   OH242298   1.822   2.990   4.160 -0.4232 -0.0558 -0.0242
 6888TIP3    H142299   1.731   2.987   4.130 -0.6274 -1.0373  0.6399
 6888TIP3    H242300   1.816   2.981   4.255  0.2532  2.2118  0.2942
 6889TIP3   OH242301   6.464   6.189   1.799 -0.1482 -0.3803  0.0677
 6889TIP3    H142302   6.450   6.267   1.853 -2.4756  1.4082 -2.7962
 6889TIP3    H242303   6.508   6.221   1.720 -0.0372 -2.2075 -0.6665
 6890TIP3   OH242304   1.783   5.456   4.050 -0.3192  0.0698 -0.1578
 6890TIP3    H142305   1.877   5.473   4.046 -0.3982  0.7507  0.7147
 6890TIP3    H242306   1.775   5.383   4.112 -0.1530 -2.0063 -2.4056
 6891TIP3   OH242307   4.286   6.018   4.150 -0.2288 -0.2916  0.5531
 6891TIP3    H142308   4.280   6.092   4.211 -0.1817 -0.3960  0.6850
 6891TIP3    H242309   4.199   5.979   4.152 -0.4459  0.1410 -0.0028
 6892TIP3   OH242310   2.702   3.196   1.137  0.1306 -0.7885 -0.3139
 6892TIP3    H142311   2.717   3.285   1.169 -0.1058 -0.5055 -0.9668
 6892TIP3    H242312   2.624   3.203   1.082  1.1283 -1.0376 -1.8060
 6893TIP3   OH242313   3.262   1.766   0.288 -0.2252 -0.3853  0.5784
 6893TIP3    H142314   3.278   1.686   0.237 -1.9417  0.5363 -1.5554
 6893TIP3    H242315   3.341   1.818   0.276 -0.4805 -0.3106 -0.9755
 6894TIP3   OH242316   0.530   4.970   4.956 -0.3471  0.2646 -0.0204
 6894TIP3    H142317   0.451   4.960   5.010  0.4820  2.1760  1.7171
 6894TIP3    H242318   0.523   5.059   4.922  0.0646 -0.2934 -1.6295
 6895TIP3   OH242319   1.846   1.920   2.411  0.8751  0.3354 -0.0626
 6895TIP3    H142320   1.860   1.837   2.365 -0.3381 -0.1890  0.4762
 6895TIP3    H242321   1.928   1.935   2.459  1.3383 -0.2195 -0.6560
 6896TIP3   OH242322   4.027   2.403   0.625 -0.1447  0.3158  0.4157
 6896TIP3    H142323   4.085   2.441   0.558 -0.7037  0.9639  0.2836
 6896TIP3    H242324   4.070   2.322   0.651  0.1877  0.1542 -0.5916
 6897TIP3   OH242325   2.507   2.856   4.280 -0.2537 -0.0349 -0.2668
 6897TIP3    H142326   2.599   2.839   4.261 -0.5137  0.0113 -1.6452
 6897TIP3    H242327   2.465   2.770   4.276 -0.5514  0.1536 -1.3063
 6898TIP3   OH242328   3.493   2.524   1.280  0.2955  0.0899 -0.4295
 6898TIP3    H142329   3.472   2.512   1.188  2.3975 -0.0007 -0.9521
 6898TIP3    H242330   3.449   2.452   1.324 -1.7841  0.8396 -1.1374
 6899TIP3   OH242331   1.205   1.966   3.395  0.2117  0.0140  0.4910
 6899TIP3    H142332   1.225   1.920   3.314 -0.9094  0.4442 -0.0412
 6899TIP3    H242333   1.287   2.011   3.417 -0.0484  1.6834 -1.6010
 6900TIP3   OH242334   5.957   6.693   0.702  0.2853  0.0177 -0.3413
 6900TIP3    H142335   5.904   6.661   0.775  1.6170 -1.1709  0.1624
 6900TIP3    H242336   6.002   6.770   0.736  0.3241 -0.0860 -0.1588
 6901TIP3   OH242337   0.421   6.208   3.554  0.1081  0.5746  0.6315
 6901TIP3    H142338   0.416   6.129   3.608 -2.9018 -0.0513 -0.3321
 6901TIP3    H242339   0.419   6.280   3.616  3.8071  0.0549  1.5885
 6902TIP3   OH242340   0.814   3.993   2.016  0.9122  0.1040  0.0161
 6902TIP3    H142341   0.849   4.074   1.977  0.7965  0.2206  0.1519
 6902TIP3    H242342   0.720   3.998   2.000  0.9294 -0.0908 -0.1332
 6903TIP3   OH242343   0.712   6.081   2.555 -0.1427 -0.4924 -0.6796
 6903TIP3    H142344   0.664   6.000   2.571  0.9191 -0.6533  2.3417
 6903TIP3    H242345   0.667   6.146   2.609  1.0962  0.0546 -0.2606
 6904TIP3   OH242346   1.656   6.084   2.918 -0.0089  0.0831  0.1899
 6904TIP3    H142347   1.648   6.146   2.991  0.5398  1.5063 -0.9076
 6904TIP3    H242348   1.684   6.138   2.844  0.1766 -1.4454 -0.8982
 6905TIP3   OH242349   5.867   5.280   0.868 -0.0900 -0.4728  0.2806
 6905TIP3    H142350   5.887   5.318   0.782 -0.7509 -1.0576 -0.1484
 6905TIP3    H242351   5.946   5.230   0.891  0.5350  0.6188  0.5586
 6906TIP3   OH242352   1.556   6.749   3.325 -0.0944  0.6028  0.1784
 6906TIP3    H142353   1.598   6.744   3.410  0.3108  1.0726  0.0109
 6906TIP3    H242354   1.622   6.716   3.263 -0.5879 -0.2924  0.1010
 6907TIP3   OH242355   5.246   1.225   2.255  0.1364  0.0307 -0.1388
 6907TIP3    H142356   5.240   1.139   2.213 -1.1960 -1.0133  1.9844
 6907TIP3    H242357   5.336   1.228   2.288  0.5079 -0.0800 -1.0971
 6908TIP3   OH242358   5.232   1.650   0.926 -0.5606  0.0156 -0.5014
 6908TIP3    H142359   5.221   1.692   1.011  2.1580 -0.3247  0.1223
 6908TIP3    H242360   5.275   1.716   0.872 -0.2803 -0.4839 -0.9033
 6909TIP3   OH242361   6.530   4.374   4.302  0.3109  0.2540  0.5848
 6909TIP3    H142362   6.514   4.462   4.338  1.3604 -0.1189  2.0914
 6909TIP3    H242363   6.477   4.316   4.357  1.6650 -0.3013  1.3475
 6910TIP3   OH242364   2.229   5.650   4.423 -0.4117 -0.0006  0.5279
 6910TIP3    H142365   2.147   5.601   4.428 -0.5230  0.0581 -0.4786
 6910TIP3    H242366   2.282   5.601   4.360 -0.5734  1.1970 -0.5986
 6911TIP3   OH242367   0.111   3.367   3.205  0.3652  0.4397  0.0022
 6911TIP3    H142368   0.116   3.455   3.167 -0.5860  0.9629  1.0482
 6911TIP3    H242369   0.018   3.351   3.219  0.4991 -0.8977 -0.5169
 6912TIP3   OH242370   1.635   3.484   3.715  0.4415  0.2665 -0.2548
 6912TIP3    H142371   1.574   3.488   3.641  0.3325  0.4705 -0.1551
 6912TIP3    H242372   1.614   3.561   3.767  0.8391  0.3833 -0.2610
 6913TIP3   OH242373   1.015   0.084   1.606  0.6349 -0.9154  0.1504
 6913TIP3    H142374   0.997   0.161   1.551  2.2522 -0.4272  0.2479
 6913TIP3    H242375   0.929   0.052   1.631 -0.0888  0.7851 -0.0230
 6914TIP3   OH242376   6.282   6.184   4.523 -0.0617 -0.2735  0.7818
 6914TIP3    H142377   6.254   6.145   4.441 -0.0993  1.3722 -0.0318
 6914TIP3    H242378   6.201   6.209   4.567 -0.0087  0.2258  0.6019
 6915TIP3   OH242379   0.174   5.467   4.279  0.2668 -0.3547  0.1420
 6915TIP3    H142380   0.171   5.420   4.196 -1.9191  0.7495 -0.4758
 6915TIP3    H242381   0.165   5.398   4.345  1.4216 -1.1838 -0.5345
 6916TIP3   OH242382   2.705   4.023   1.739  0.1429 -0.5679  0.2248
 6916TIP3    H142383   2.632   4.018   1.676  1.5457  1.8055 -1.7605
 6916TIP3    H242384   2.664   4.052   1.820 -1.1848  1.0752 -0.9424
 6917TIP3   OH242385   4.997   1.573   2.558  0.3807 -0.1427  0.5447
 6917TIP3    H142386   4.920   1.526   2.591 -1.0831  2.0023  0.4228
 6917TIP3    H242387   5.059   1.571   2.631 -0.1689 -1.1168  1.0000
 6918TIP3   OH242388   0.463   0.041   0.566  0.1641 -0.2580 -0.1269
 6918TIP3    H142389   0.390   0.101   0.583 -1.1913 -1.2014 -2.2097
 6918TIP3    H242390   0.541   0.095   0.578 -0.9106  1.2586  0.4677
 6919TIP3   OH242391   4.349   3.473   1.175 -0.2229 -0.1471  0.2163
 6919TIP3    H142392   4.434   3.454   1.135 -0.1269  0.8111 -0.0641
 6919TIP3    H242393   4.370   3.523   1.254 -0.4203 -1.8824  1.4329
 6920TIP3   OH242394   5.115   4.477   3.330  0.1401 -0.0407  0.2281
 6920TIP3    H142395   5.069   4.528   3.263  0.5189  0.4571  0.3430
 6920TIP3    H242396   5.053   4.473   3.403 -1.1678 -2.4030 -0.8765
 6921TIP3   OH242397   6.040   4.150   3.113 -0.0672  0.2198  0.3389
 6921TIP3    H142398   6.054   4.146   3.019 -0.0670 -1.1149  0.3788
 6921TIP3    H242399   6.005   4.238   3.129 -1.8504 -0.1633 -1.1462
 6922TIP3   OH242400   6.644   1.162   2.613 -0.1290  0.1123 -0.2545
 6922TIP3    H142401   6.719   1.150   2.555 -0.8285 -0.5487 -1.0479
 6922TIP3    H242402   6.677   1.216   2.684  1.4078 -1.0495 -0.0287
 6923TIP3   OH242403   6.287   1.303   0.598  0.0408  0.6703 -0.1908
 6923TIP3    H142404   6.358   1.313   0.534  0.2356 -2.3608 -0.5738
 6923TIP3    H242405   6.226   1.241   0.558 -0.7762  0.0925  1.8073
 6924TIP3   OH242406   5.620   2.323   1.656 -0.0627 -0.0267  0.4965
 6924TIP3    H142407   5.604   2.236   1.692 -0.5040 -0.5125 -0.8329
 6924TIP3    H242408   5.692   2.311   1.595  1.2493  0.9545  1.7788
 6925TIP3   OH242409   5.857   4.866   3.333 -0.5939 -0.2282  0.3634
 6925TIP3    H142410   5.940   4.858   3.380  0.5231 -0.1965 -1.5206
 6925TIP3    H242411   5.792   4.829   3.393  0.9066 -1.0873  1.5193
 6926TIP3   OH242412   2.509   2.250   1.965  0.3916  0.0880 -0.2196
 6926TIP3    H142413   2.419   2.226   1.986  0.8773 -0.5136  1.2552
 6926TIP3    H242414   2.510   2.346   1.970  0.3619  0.0247  2.2272
 6927TIP3   OH242415   3.926   4.259   1.673 -0.8764  0.2677 -0.0595
 6927TIP3    H142416   3.976   4.226   1.598  0.3560 -0.6904  1.1326
 6927TIP3    H242417   3.926   4.354   1.662  1.5819  0.3381  0.0863
 6928TIP3   OH242418   0.400   2.199   2.712 -0.3215 -0.1956  0.4408
 6928TIP3    H142419   0.316   2.163   2.740 -0.4329  0.5707  1.1328
 6928TIP3    H242420   0.461   2.172   2.780  0.0789 -1.0847 -0.2637
 6929TIP3   OH242421   6.522   6.756   3.132  0.3962  0.4037  0.2991
 6929TIP3    H142422   6.518   6.663   3.154  1.4969  0.4611  0.8139
 6929TIP3    H242423   6.470   6.798   3.201  1.9505  0.3738  1.5403
 6930TIP3   OH242424   4.269   4.308   1.521  0.6473  0.3030 -0.0741
 6930TIP3    H142425   4.272   4.363   1.599 -1.2252  1.8875 -1.0319
 6930TIP3    H242426   4.350   4.328   1.475  0.5975  1.2960  0.2436
 6931TIP3   OH242427   5.934   3.658   1.533  0.1575 -0.4412 -0.0430
 6931TIP3    H142428   5.926   3.751   1.511 -1.4575 -1.4380 -4.8384
 6931TIP3    H242429   5.846   3.633   1.564  1.4167  0.0779  4.6636
 6932TIP3   OH242430   4.192   2.962   4.195  0.3071  1.0306  0.0799
 6932TIP3    H142431   4.118   3.009   4.156  1.9177  2.4551 -1.3995
 6932TIP3    H242432   4.200   2.882   4.144 -1.7611 -0.4854  1.9163
 6933TIP3   OH242433   0.751   4.905   2.115  0.2337  0.1424  0.2758
 6933TIP3    H142434   0.729   4.822   2.157  3.7213  0.4794  3.3111
 6933TIP3    H242435   0.814   4.881   2.046 -0.7218  0.1177 -0.6107
 6934TIP3   OH242436   0.182   1.376   2.906 -0.2591 -0.0133 -0.3266
 6934TIP3    H142437   0.132   1.455   2.885 -0.9491  0.0956  1.5351
 6934TIP3    H242438   0.252   1.406   2.964  0.1541 -0.6099 -0.5061
 6935TIP3   OH242439   2.954   1.910   4.469 -0.9048  0.2473  0.1466
 6935TIP3    H142440   2.936   1.971   4.540 -2.7009 -0.1659  0.0782
 6935TIP3    H242441   2.898   1.938   4.397 -0.3945 -0.3844 -0.5187
 6936TIP3   OH242442   6.304   2.403   1.439  0.6662 -0.2958  0.5034
 6936TIP3    H142443   6.217   2.371   1.463  0.0238 -0.0598 -1.3484
 6936TIP3    H242444   6.348   2.326   1.403  0.2635  0.1454 -0.9851
 6937TIP3   OH242445   6.677   2.564   0.742  0.5082 -0.1448 -0.4126
 6937TIP3    H142446   6.732   2.622   0.794  0.0718 -0.6273  0.6153
 6937TIP3    H242447   6.733   2.534   0.671  0.8568  1.2073 -0.7280
 6938TIP3   OH242448   6.198   3.719   2.363 -0.5447  0.0221  0.6532
 6938TIP3    H142449   6.176   3.638   2.317 -1.4344 -0.4208  1.8060
 6938TIP3    H242450   6.114   3.763   2.374 -0.1478  0.8136  0.5900
 6939TIP3   OH242451   1.605   2.334   1.560 -0.0699 -0.3283  0.0300
 6939TIP3    H142452   1.636   2.339   1.470 -0.3113 -2.4462 -0.2246
 6939TIP3    H242453   1.511   2.352   1.554  0.0656  0.3840 -0.0082
 6940TIP3   OH242454   3.873   1.852   4.042  0.0991 -0.0166  0.8444
 6940TIP3    H142455   3.959   1.890   4.028  0.3488  0.1255  2.6611
 6940TIP3    H242456   3.852   1.871   4.133 -2.0716  0.3880  0.3221
 6941TIP3   OH242457   2.507   4.668   3.532  0.0996  0.8894  0.2167
 6941TIP3    H142458   2.501   4.573   3.541  0.8707  0.9025  0.9155
 6941TIP3    H242459   2.490   4.702   3.620 -2.3362  1.5310 -0.4244
 6942TIP3   OH242460   4.535   3.976   4.361 -0.1843 -0.0181  0.3593
 6942TIP3    H142461   4.454   3.927   4.377 -0.5417 -0.2414 -1.8287
 6942TIP3    H242462   4.603   3.909   4.360 -0.6206 -0.5505 -2.2151
 6943TIP3   OH242463   4.490   2.407   0.634  0.0334 -0.0364  0.1581
 6943TIP3    H142464   4.546   2.387   0.558 -0.8714 -0.1546 -0.4932
 6943TIP3    H242465   4.509   2.499   0.653  0.6117 -0.1332  0.0873
 6944TIP3   OH242466   3.738   2.974   1.597 -0.3232  0.7107  0.2805
 6944TIP3    H142467   3.780   3.009   1.518 -0.4754 -1.1132 -0.6628
 6944TIP3    H242468   3.797   2.904   1.626 -1.8379 -0.8162 -0.1420
 6945TIP3   OH242469   2.375   2.289   0.160 -0.0235 -0.3992 -0.0999
 6945TIP3    H142470   2.393   2.206   0.116 -1.1565 -1.7074  1.7735
 6945TIP3    H242471   2.448   2.345   0.136  0.3825 -1.6557 -2.0489
 6946TIP3   OH242472   4.746   0.854   2.417 -0.6472 -0.3451 -0.1712
 6946TIP3    H142473   4.799   0.930   2.393 -1.5722 -0.1256 -1.6238
 6946TIP3    H242474   4.789   0.780   2.375 -0.9998 -0.2807 -0.6637
 6947TIP3   OH242475   0.369   4.211   2.058  0.2335 -0.2344 -0.1451
 6947TIP3    H142476   0.331   4.262   1.986  0.9640 -0.8506 -0.9988
 6947TIP3    H242477   0.346   4.260   2.137 -1.7458 -0.2431 -0.6588
 6948TIP3   OH242478   6.035   5.613   3.247  0.6842  0.0625  0.7270
 6948TIP3    H142479   6.028   5.519   3.234 -0.3514  0.2234 -0.0082
 6948TIP3    H242480   6.099   5.623   3.318  0.4589 -1.2042  1.1342
 6949TIP3   OH242481   5.636   5.643   2.946 -0.5387  0.0333 -0.0087
 6949TIP3    H142482   5.606   5.621   3.034 -0.2088 -2.7921 -0.5058
 6949TIP3    H242483   5.557   5.647   2.893 -0.5337 -1.8584 -0.2277
 6950TIP3   OH242484   6.537   4.564   3.273 -0.1816  0.4743  0.5674
 6950TIP3    H142485   6.562   4.518   3.353 -1.2483 -1.0430  0.0891
 6950TIP3    H242486   6.508   4.650   3.303  0.3212  0.2696  1.7044
 6951TIP3   OH242487   0.911   3.003   1.438  0.0758 -0.2975  0.3077
 6951TIP3    H142488   0.944   3.054   1.364 -1.2757 -0.4844 -0.4579
 6951TIP3    H242489   0.908   2.913   1.406 -0.9910 -0.3079  0.3989
 6952TIP3   OH242490   0.519   2.460   2.203  0.7207 -0.2703  0.1542
 6952TIP3    H142491   0.557   2.482   2.288 -1.0105 -0.9354  1.1700
 6952TIP3    H242492   0.493   2.369   2.211 -0.6609  0.0270 -0.5999
 6953TIP3   OH242493   4.619   6.827   0.435  0.3606  0.2313 -0.3589
 6953TIP3    H142494   4.626   6.864   0.347  0.0229 -0.7159 -0.8050
 6953TIP3    H242495   4.610   6.902   0.493  0.1666  0.8523 -1.1808
 6954TIP3   OH242496   1.202   1.381   0.989 -0.0868 -0.5639 -0.0773
 6954TIP3    H142497   1.144   1.389   0.913 -0.1253 -3.5682 -0.4655
 6954TIP3    H242498   1.263   1.311   0.966 -0.5540 -2.1199  2.8804
 6955TIP3   OH242499   5.178   2.271   0.946 -0.1903 -0.0738  0.3800
 6955TIP3    H142500   5.165   2.303   0.856  0.3151 -1.0650 -0.0648
 6955TIP3    H242501   5.245   2.329   0.982  2.7148 -2.0776 -1.3071
 6956TIP3   OH242502   6.275   6.272   3.571 -0.8364 -0.5727 -0.0878
 6956TIP3    H142503   6.345   6.207   3.565 -1.0128 -0.8193  0.4535
 6956TIP3    H242504   6.203   6.235   3.520 -1.0849 -1.0034  0.5641
 6957TIP3   OH242505   5.220   6.723   1.979 -0.5991 -0.0410  0.3363
 6957TIP3    H142506   5.136   6.677   1.984 -0.4379 -0.4738 -0.6091
 6957TIP3    H242507   5.211   6.796   2.039 -1.3066 -0.6280  0.9613
 6958TIP3   OH242508   2.589   1.648   1.975  0.4883 -0.1597 -0.0893
 6958TIP3    H142509   2.576   1.739   1.948 -0.1372  0.4705  2.0830
 6958TIP3    H242510   2.561   1.647   2.067  2.5011 -2.0551  0.5985
 6959TIP3   OH242511   6.115   4.143   4.899 -0.0887 -0.2368  0.0572
 6959TIP3    H142512   6.149   4.173   4.814 -0.0004  0.6015  0.3744
 6959TIP3    H242513   6.081   4.055   4.882  2.0438 -1.0648 -0.3391
 6960TIP3   OH242514   4.038   2.152   4.231  0.2022  0.5357 -0.4530
 6960TIP3    H142515   4.062   2.060   4.220  1.0099  0.8796 -1.8521
 6960TIP3    H242516   3.950   2.159   4.194 -0.1814  0.1891  0.3702
 6961TIP3   OH242517   2.951   2.299   3.111 -0.3812  0.0532 -0.0218
 6961TIP3    H142518   2.968   2.300   3.016 -1.0016  0.4422 -0.1411
 6961TIP3    H242519   3.033   2.328   3.150  0.9596 -3.1163 -0.2179
 6962TIP3   OH242520   4.387   4.420   1.766  0.4780  0.0453 -0.1775
 6962TIP3    H142521   4.482   4.424   1.780  0.0101  1.9295  3.8756
 6962TIP3    H242522   4.355   4.506   1.795 -2.6505 -1.4533  1.2749
 6963TIP3   OH242523   0.201   3.413   4.259  0.1848  0.2438  0.1382
 6963TIP3    H142524   0.141   3.383   4.328 -0.8165  0.3444 -0.6691
 6963TIP3    H242525   0.227   3.333   4.214 -2.3106  0.4604 -1.8727
 6964TIP3   OH242526   4.921   2.157   1.630  0.3118 -0.4380  0.3901
 6964TIP3    H142527   4.999   2.161   1.575 -1.0627 -1.8910 -1.8351
 6964TIP3    H242528   4.927   2.072   1.673 -0.9097 -1.4838 -1.3504
 6965TIP3   OH242529   2.616   0.073   4.087  0.4079 -0.5474  1.2718
 6965TIP3    H142530   2.653   0.155   4.056  3.0051 -2.4905 -1.4600
 6965TIP3    H242531   2.631   0.073   4.181  2.4082  1.2105  1.0199
 6966TIP3   OH242532   0.729   6.569   4.153 -0.3681 -0.1774  0.2327
 6966TIP3    H142533   0.769   6.515   4.221  0.9214  2.3839  1.6305
 6966TIP3    H242534   0.634   6.558   4.166 -0.1282 -0.9114  1.4475
 6967TIP3   OH242535   5.554   2.908   0.391  0.2129  0.7528  0.3704
 6967TIP3    H142536   5.633   2.854   0.385 -0.8209 -0.6194 -2.9104
 6967TIP3    H242537   5.582   2.995   0.363  1.1530  1.1655  2.3768
 6968TIP3   OH242538   6.169   5.281   4.334  0.2643 -0.0526 -0.0181
 6968TIP3    H142539   6.092   5.281   4.392 -2.3968  0.3889 -3.2292
 6968TIP3    H242540   6.186   5.374   4.318 -0.5557 -0.1456 -1.6473
 6969TIP3   OH242541   1.426   3.003   3.711 -0.1139 -0.3885  0.2035
 6969TIP3    H142542   1.481   3.075   3.680  0.2121 -0.6734  0.1139
 6969TIP3    H242543   1.381   3.039   3.788  0.9385 -0.4550  0.8671
 6970TIP3   OH242544   0.220   3.635   2.326  0.2796 -0.1025  0.0398
 6970TIP3    H142545   0.315   3.631   2.315  0.1621  0.5157 -1.3558
 6970TIP3    H242546   0.203   3.723   2.359  0.2093 -0.3056  0.5542
 6971TIP3   OH242547   6.766   5.238   3.956 -0.2136 -0.6096  0.2575
 6971TIP3    H142548   6.738   5.325   3.929 -2.2365 -1.7618 -1.6723
 6971TIP3    H242549   6.802   5.199   3.877  0.0549 -1.7626  0.9306
 6972TIP3   OH242550   0.130   6.035   3.704 -0.2840 -0.1368  0.3529
 6972TIP3    H142551   0.225   6.040   3.712  0.0108 -0.3608 -2.1793
 6972TIP3    H242552   0.113   6.054   3.612 -3.0143  3.5529  1.3929
 6973TIP3   OH242553   0.781   3.873   4.024 -0.2825 -0.3282  0.1052
 6973TIP3    H142554   0.869   3.843   4.048  0.5518  1.0944 -0.9856
 6973TIP3    H242555   0.748   3.805   3.965  0.8240 -0.0339 -0.8898
 6974TIP3   OH242556   2.461   0.341   2.677  0.5529 -0.4934  0.0680
 6974TIP3    H142557   2.516   0.420   2.674  1.1931 -0.8277  1.8179
 6974TIP3    H242558   2.474   0.300   2.592 -0.0168  1.4114 -0.9978
 6975TIP3   OH242559   0.394   6.062   2.233  0.0768  0.4527  0.0127
 6975TIP3    H142560   0.359   6.027   2.152  0.8955  1.0518 -0.6214
 6975TIP3    H242561   0.461   6.124   2.205  0.4207  0.6171  1.1490
 6976TIP3   OH242562   2.329   0.987   1.518  0.1901 -0.3550 -0.1776
 6976TIP3    H142563   2.243   0.952   1.539  0.6252 -1.0679  0.4690
 6976TIP3    H242564   2.317   1.082   1.513 -0.3937 -0.3498  1.0758
 6977TIP3   OH242565   4.340   3.201   0.580 -0.7471 -0.8241 -0.2984
 6977TIP3    H142566   4.277   3.147   0.628  0.6204 -0.5023  2.0399
 6977TIP3    H242567   4.415   3.144   0.566 -0.0544 -0.1375  0.4739
 6978TIP3   OH242568   1.463   2.670   1.575 -0.3383 -0.3691 -0.0330
 6978TIP3    H142569   1.497   2.699   1.490  0.8493 -0.5241  0.3709
 6978TIP3    H242570   1.457   2.575   1.567 -1.3384 -0.2988 -0.3192
 6979TIP3   OH242571   0.452   0.664   2.174 -0.9645  0.0742 -0.4099
 6979TIP3    H142572   0.496   0.748   2.184 -0.0729 -0.5094  0.7882
 6979TIP3    H242573   0.521   0.602   2.152 -1.1467 -0.8360  1.4059
 6980TIP3   OH242574   2.845   0.817   2.897  0.7949 -0.0484 -0.0163
 6980TIP3    H142575   2.805   0.758   2.833 -1.4906  0.1146  1.1563
 6980TIP3    H242576   2.898   0.877   2.845  0.4972 -1.0573 -1.5491
 6981TIP3   OH242577   3.950   0.377   0.607 -0.5454  0.2698  0.2414
 6981TIP3    H142578   3.940   0.310   0.675 -0.4052  0.9210  0.9079
 6981TIP3    H242579   3.931   0.330   0.525 -3.1758  0.0110  0.8917
 6982TIP3   OH242580   3.738   3.309   0.777  0.4136 -0.5349  0.2855
 6982TIP3    H142581   3.679   3.284   0.849  0.8509 -2.8375 -0.0771
 6982TIP3    H242582   3.821   3.328   0.820  0.1046  0.2389  0.5631
 6983TIP3   OH242583   0.687   0.271   3.514  0.8616  0.3435  0.0715
 6983TIP3    H142584   0.621   0.337   3.496  2.0966  1.1764 -1.6376
 6983TIP3    H242585   0.653   0.192   3.471  0.4840  0.4770  0.1172
 6984TIP3   OH242586   3.785   1.454   5.027  0.5958  0.5954 -0.0932
 6984TIP3    H142587   3.782   1.363   4.999 -0.5310  0.5393  0.1697
 6984TIP3    H242588   3.875   1.467   5.057  0.5281 -0.6780  0.7256
 6985TIP3   OH242589   2.435   5.742   0.873  0.2600 -0.2166  0.0268
 6985TIP3    H142590   2.441   5.835   0.849 -2.6396 -0.1058 -0.5359
 6985TIP3    H242591   2.459   5.695   0.793  0.5061  0.0543 -0.0614
 6986TIP3   OH242592   5.429   0.364   1.709 -0.2251  0.1151  0.2309
 6986TIP3    H142593   5.412   0.278   1.747  2.6220  0.1439  1.8627
 6986TIP3    H242594   5.480   0.346   1.630  0.0925  0.2849  0.3944
 6987TIP3   OH242595   5.338   5.008   1.525  0.2178  0.9375  0.6474
 6987TIP3    H142596   5.287   4.927   1.537 -1.8398  2.1253  0.4322
 6987TIP3    H242597   5.272   5.077   1.524  1.7541  2.4643 -1.0018
 6988TIP3   OH242598   4.292   2.993   1.582  0.0931 -0.5397  0.2016
 6988TIP3    H142599   4.248   3.078   1.585  0.4047 -0.3970  1.0173
 6988TIP3    H242600   4.379   3.011   1.548 -0.1006 -0.6587 -0.3729
 6989TIP3   OH242601   4.614   0.237   3.046  0.0204  0.3852 -0.9718
 6989TIP3    H142602   4.551   0.165   3.041  0.6010 -0.0538 -2.2926
 6989TIP3    H242603   4.575   0.306   2.992 -0.2145  0.8329 -0.2512
 6990TIP3   OH242604   5.226   1.932   4.603  0.0822 -0.4267  0.2639
 6990TIP3    H142605   5.158   1.883   4.557 -1.4325 -0.1841  2.1070
 6990TIP3    H242606   5.259   1.871   4.669  1.5244 -0.4596 -0.4478
 6991TIP3   OH242607   3.353   6.574   4.437 -0.0288 -0.4969 -0.3133
 6991TIP3    H142608   3.278   6.625   4.469  0.0301 -1.5472  1.6373
 6991TIP3    H242609   3.424   6.595   4.498  0.8373 -0.6808 -1.2328
 6992TIP3   OH242610   1.565   6.253   4.089 -0.3637  0.8249  0.6870
 6992TIP3    H142611   1.565   6.333   4.037 -1.6887  0.9476  0.8415
 6992TIP3    H242612   1.594   6.280   4.176 -0.5996  1.0943  0.6820
 6993TIP3   OH242613   2.461   2.196   1.312  0.0682 -0.5115  0.3345
 6993TIP3    H142614   2.370   2.224   1.312  0.3877  0.5520  0.7100
 6993TIP3    H242615   2.508   2.263   1.361  0.7613 -2.0385  1.8866
 6994TIP3   OH242616   6.539   1.917   2.982 -0.1269  0.4461 -0.3210
 6994TIP3    H142617   6.601   1.876   3.042  0.4248  0.3570 -0.9469
 6994TIP3    H242618   6.458   1.867   2.994 -0.1248  0.6498  0.5919
 6995TIP3   OH242619   0.628   2.462   1.364  0.3203 -0.5489 -0.6064
 6995TIP3    H142620   0.584   2.513   1.295  1.0500 -0.8600 -1.3198
 6995TIP3    H242621   0.663   2.529   1.423  1.2303 -0.1919 -1.5119
 6996TIP3   OH242622   1.643   3.950   2.729 -0.1641 -0.5002  0.7161
 6996TIP3    H142623   1.706   3.982   2.793 -0.4531 -1.4732  1.5266
 6996TIP3    H242624   1.635   4.020   2.664  1.3777 -0.1729  0.8499
 6997TIP3   OH242625   0.306   5.278   0.908  0.2441  0.1428  0.2662
 6997TIP3    H142626   0.304   5.307   0.999  3.1361 -2.1529  1.2122
 6997TIP3    H242627   0.364   5.202   0.909 -0.0473 -0.2741 -3.4416
 6998TIP3   OH242628   6.765   0.898   3.620 -0.0607  0.3138  0.0281
 6998TIP3    H142629   6.713   0.873   3.696  1.5984 -0.1206  1.0824
 6998TIP3    H242630   6.855   0.871   3.643  0.2364 -1.5813 -2.8309
 6999TIP3   OH242631   3.913   1.342   1.082 -0.2089  0.6962  0.3027
 6999TIP3    H142632   3.826   1.336   1.121 -0.4008  0.2151 -0.1956
 6999TIP3    H242633   3.957   1.261   1.108 -0.2005  0.5554 -0.1496
 7000TIP3   OH242634   3.248   4.405   4.190  0.9013  0.1427 -0.1747
 7000TIP3    H142635   3.332   4.444   4.167  0.6702  1.8303  1.5507
 7000TIP3    H242636   3.183   4.459   4.145  0.6811  0.0544  0.0307
 7001TIP3   OH242637   0.088   6.185   0.211 -0.0798 -0.2606  0.1951
 7001TIP3    H142638   0.040   6.103   0.218 -0.2695 -0.1627  0.0474
 7001TIP3    H242639   0.121   6.187   0.121 -0.5222  0.0674  0.0355
 7002TIP3   OH242640   5.442   5.369   2.087  0.1939  0.3085  0.1590
 7002TIP3    H142641   5.417   5.432   2.154 -0.0912 -0.4956  0.8245
 7002TIP3    H242642   5.536   5.381   2.075  0.0355  1.2931 -0.1949
 7003TIP3   OH242643   3.616   5.208   3.837 -0.0218  0.0586 -0.1946
 7003TIP3    H142644   3.638   5.115   3.839  0.4813  0.1913  1.0094
 7003TIP3    H242645   3.701   5.253   3.836 -0.1504  0.5359  2.5500
 7004TIP3   OH242646   3.563   3.931   3.731  0.0784 -0.3453 -0.0718
 7004TIP3    H142647   3.620   3.866   3.771 -0.8163 -1.5554 -0.7086
 7004TIP3    H242648   3.619   3.977   3.668  0.3315 -1.6782 -0.8636
 7005TIP3   OH242649   6.359   1.472   4.503  0.4477 -0.2940 -0.6133
 7005TIP3    H142650   6.416   1.418   4.557  1.2782  1.8584  0.8158
 7005TIP3    H242651   6.277   1.478   4.552  0.3548 -0.2700 -0.7685
 7006TIP3   OH242652   2.511   0.205   2.434 -0.1481  0.0743 -0.6452
 7006TIP3    H142653   2.509   0.241   2.345  2.9088 -0.7771 -1.2010
 7006TIP3    H242654   2.447   0.134   2.433 -1.3219  1.0952 -1.6248
 7007TIP3   OH242655   4.839   2.678   4.874 -0.1088  0.2441 -0.0833
 7007TIP3    H142656   4.746   2.699   4.871  0.4097  3.5017  1.9775
 7007TIP3    H242657   4.853   2.644   4.962  0.5400 -1.1806 -0.7063
 7008TIP3   OH242658   3.004   5.473   1.127  0.0530 -0.2348 -0.1515
 7008TIP3    H142659   3.100   5.466   1.129  0.0136 -0.8690  1.6819
 7008TIP3    H242660   2.975   5.386   1.103 -0.0615 -0.3652  0.4331
 7009TIP3   OH242661   2.723   5.532   3.606 -0.1703  0.0378  0.3941
 7009TIP3    H142662   2.737   5.583   3.526 -0.7459  1.2221  1.0184
 7009TIP3    H242663   2.811   5.511   3.636  0.1734  2.0949  0.9843
 7010TIP3   OH242664   3.394   0.572   4.485  0.1159  0.4365  0.8844
 7010TIP3    H142665   3.405   0.667   4.477  0.4554  0.3136 -0.1927
 7010TIP3    H242666   3.453   0.547   4.557  2.5773  0.6262 -0.9081
 7011TIP3   OH242667   5.601   1.967   0.805 -0.9438 -0.1684  0.1405
 7011TIP3    H142668   5.553   2.050   0.794 -0.8176 -0.1978 -0.6838
 7011TIP3    H242669   5.677   1.991   0.858 -0.7259  0.3109 -0.3799
 7012TIP3   OH242670   1.679   5.075   1.225 -0.3301 -0.3612  0.2159
 7012TIP3    H142671   1.660   5.131   1.300 -0.0792 -1.0210  0.7878
 7012TIP3    H242672   1.720   4.997   1.263  0.4601 -0.3991 -0.6730
 7013TIP3   OH242673   2.501   1.454   1.801 -0.2803  0.2306  0.5932
 7013TIP3    H142674   2.518   1.523   1.865 -2.4309  1.1480  0.2400
 7013TIP3    H242675   2.413   1.424   1.820  0.0974 -1.4995 -0.1498
 7014TIP3   OH242676   1.089   6.817   3.346 -0.2562  0.4971 -0.6597
 7014TIP3    H142677   1.009   6.763   3.351 -0.3268  0.5853 -0.8256
 7014TIP3    H242678   1.134   6.785   3.268  0.0926  0.1479 -0.3229
 7015TIP3   OH242679   2.598   6.349   2.770  0.1725  0.0452  0.3227
 7015TIP3    H142680   2.517   6.301   2.750  1.3898 -1.8691 -0.2807
 7015TIP3    H242681   2.592   6.429   2.718 -2.2929  1.0358  1.9681
 7016TIP3   OH242682   6.818   3.162   1.426 -0.5251  0.0161 -0.2870
 7016TIP3    H142683   6.911   3.139   1.420 -0.7773 -1.3969  0.9388
 7016TIP3    H242684   6.785   3.148   1.337  0.1813 -0.6241 -0.4598
 7017TIP3   OH242685   2.372   6.446   1.212 -0.4779  0.3053  0.0904
 7017TIP3    H142686   2.430   6.490   1.273 -0.8181  1.0316 -0.1059
 7017TIP3    H242687   2.288   6.492   1.220 -0.6915  0.0317 -0.4898
 7018TIP3   OH242688   4.977   5.701   3.073 -0.4983 -0.8819 -0.3998
 7018TIP3    H142689   4.972   5.672   3.164 -1.4130  0.1990 -0.0805
 7018TIP3    H242690   4.914   5.646   3.027 -0.2675 -1.2159 -0.3174
 7019TIP3   OH242691   1.317   3.045   4.424 -0.3683  0.5152 -0.3185
 7019TIP3    H142692   1.284   2.955   4.417 -0.9456  0.7652 -0.9260
 7019TIP3    H242693   1.410   3.034   4.444 -0.7679 -0.2020  1.3235
 7020TIP3   OH242694   4.200   6.215   4.356 -0.0274 -0.4272 -0.0301
 7020TIP3    H142695   4.188   6.164   4.436 -3.6634 -0.4164 -0.4187
 7020TIP3    H242696   4.156   6.298   4.373  1.4002  0.6391 -1.2029
 7021TIP3   OH242697   0.966   6.158   8.786  0.0661 -0.8563  0.5741
 7021TIP3    H142698   1.002   6.247   8.784  1.1101 -1.2677 -1.7021
 7021TIP3    H242699   0.872   6.171   8.800  0.2277  0.5725  0.4890
 7022TIP3   OH242700   3.903   5.350   3.112 -0.3335  0.0978 -0.4024
 7022TIP3    H142701   3.959   5.304   3.174  0.3918  0.8247 -0.4918
 7022TIP3    H242702   3.924   5.443   3.126 -3.2049  0.6274  1.2122
 7023TIP3   OH242703   0.661   1.783   3.855  0.2826 -0.6249  0.4733
 7023TIP3    H142704   0.708   1.765   3.936 -2.1403  0.9882  2.4056
 7023TIP3    H242705   0.700   1.863   3.821 -0.9129  0.6946  2.0541
 7024TIP3   OH242706   6.506   0.476   2.669  0.7782  0.0044 -0.1689
 7024TIP3    H142707   6.526   0.563   2.703 -0.1447  0.2868 -0.3276
 7024TIP3    H242708   6.558   0.468   2.590  0.0916  0.8293 -0.7196
 7025TIP3   OH242709   3.236   2.135   3.111  0.2176 -0.3889  0.4913
 7025TIP3    H142710   3.163   2.081   3.141 -0.9115 -0.8163 -2.5912
 7025TIP3    H242711   3.247   2.202   3.178 -0.4391 -2.5651  2.9002
 7026TIP3   OH242712   5.272   3.169   3.801  0.3594  0.3241  0.0660
 7026TIP3    H142713   5.359   3.136   3.778  0.9216  1.2328  0.8463
 7026TIP3    H242714   5.212   3.100   3.772  1.4041 -0.7626  0.4199
 7027TIP3   OH242715   5.304   5.607   4.163  0.0891 -0.0616  0.7154
 7027TIP3    H142716   5.262   5.589   4.247 -1.1739 -0.5516  0.0044
 7027TIP3    H242717   5.241   5.661   4.115  0.9240  0.4689  0.1843
 7028TIP3   OH242718   2.714   1.515   2.577 -0.0706  1.0196 -0.2911
 7028TIP3    H142719   2.638   1.573   2.588 -0.4051  0.4223  0.6741
 7028TIP3    H242720   2.697   1.442   2.637  0.1361 -0.2860 -1.7682
 7029TIP3   OH242721   1.954   0.104   0.850  0.3342  0.3269  0.5637
 7029TIP3    H142722   1.997   0.172   0.900  3.1674  0.2099 -1.4754
 7029TIP3    H242723   1.868   0.140   0.828  0.8437  2.2194  1.5455
 7030TIP3   OH242724   2.526   4.289   3.541 -0.2307 -0.4996  0.1476
 7030TIP3    H142725   2.534   4.214   3.600 -1.2913 -0.5005  0.3065
 7030TIP3    H242726   2.439   4.280   3.502 -0.3154  0.5714  0.0579
 7031TIP3   OH242727   3.383   6.272   3.996  0.9009  0.3217 -0.4269
 7031TIP3    H142728   3.326   6.208   3.954  0.8563  0.0232  0.0724
 7031TIP3    H242729   3.454   6.286   3.934  0.3586  0.5928 -0.9952
 7032TIP3   OH242730   0.851   1.980   2.946  0.2483 -0.1976 -0.1029
 7032TIP3    H142731   0.891   1.895   2.933 -1.1151 -0.7547 -0.9350
 7032TIP3    H242732   0.893   2.016   3.024  3.3791 -0.0704 -1.6860
 7033TIP3   OH242733   0.863   2.661   3.176 -0.2776  0.0837 -0.4265
 7033TIP3    H142734   0.879   2.575   3.138 -0.5060  0.3583 -1.1560
 7033TIP3    H242735   0.795   2.645   3.242 -0.3331 -0.2937 -0.5710
 7034TIP3   OH242736   4.123   1.036   4.349  0.1986  0.8633 -0.2747
 7034TIP3    H142737   4.084   0.980   4.282 -2.1904  0.7490  1.0979
 7034TIP3    H242738   4.212   1.001   4.361 -0.2821 -0.8775 -1.3865
 7035TIP3   OH242739   2.159   4.866   1.511  0.1256  0.2780  0.0148
 7035TIP3    H142740   2.123   4.953   1.523 -1.7277 -0.4617  0.1675
 7035TIP3    H242741   2.158   4.851   1.417  1.0438  0.6286 -0.0660
 7036TIP3   OH242742   3.569   0.191   1.910  0.1086  0.1960  0.4522
 7036TIP3    H142743   3.480   0.160   1.891  0.3522 -1.1689  1.3780
 7036TIP3    H242744   3.588   0.253   1.840 -1.7522  0.8982  0.5113
 7037TIP3   OH242745   6.652   2.592   1.624  0.0988 -0.3387  0.0308
 7037TIP3    H142746   6.643   2.678   1.583  0.8107  0.9849  2.4698
 7037TIP3    H242747   6.746   2.575   1.625  0.0182 -0.7836  0.2260
 7038TIP3   OH242748   3.343   4.762   0.412 -0.5592  0.5569  0.8084
 7038TIP3    H142749   3.379   4.828   0.471  1.8824 -1.1859  1.3834
 7038TIP3    H242750   3.288   4.707   0.469 -0.8430  0.7841  0.7601
 7039TIP3   OH242751   5.144   2.433   2.767 -0.0150  0.2780 -0.2401
 7039TIP3    H142752   5.130   2.490   2.692 -0.4148  1.1410  0.4644
 7039TIP3    H242753   5.227   2.389   2.749  0.0265  0.6782 -1.0557
 7040TIP3   OH242754   1.212   6.452   0.905 -0.0313  0.6218  0.0611
 7040TIP3    H142755   1.137   6.456   0.964 -1.4764  3.1514 -1.7398
 7040TIP3    H242756   1.269   6.524   0.934  0.5526  0.2033 -0.0301
 7041TIP3   OH242757   2.292   1.341   3.497  0.0746 -0.0324 -0.1628
 7041TIP3    H142758   2.312   1.250   3.519 -3.0167 -0.5420  1.0726
 7041TIP3    H242759   2.262   1.380   3.580 -1.3477  1.2629 -1.2291
 7042TIP3   OH242760   1.988   4.112   2.609  0.1918 -0.3827 -0.0214
 7042TIP3    H142761   2.064   4.056   2.592 -0.0580 -0.1046 -2.4185
 7042TIP3    H242762   2.000   4.187   2.551 -1.3544  0.1972  0.3543
 7043TIP3   OH242763   5.276   0.138   1.755 -0.0395 -0.6795  0.1791
 7043TIP3    H142764   5.186   0.130   1.786 -0.0239 -1.4402  0.0415
 7043TIP3    H242765   5.304   0.048   1.738  0.4270 -0.3841 -0.6811
 7044TIP3   OH242766   0.617   0.814   1.302  0.3100 -0.5181  0.1832
 7044TIP3    H142767   0.528   0.828   1.269  0.5983 -1.0748 -0.8688
 7044TIP3    H242768   0.670   0.799   1.223  1.0895 -1.5180  0.8714
 7045TIP3   OH242769   6.673   3.114   2.971  0.6785 -0.3479  0.0768
 7045TIP3    H142770   6.651   3.023   2.992  0.6002  0.1407  2.3846
 7045TIP3    H242771   6.589   3.160   2.974  1.0070  0.1948  1.3145
 7046TIP3   OH242772   1.283   5.734   3.366  0.0121  0.0682 -0.5303
 7046TIP3    H142773   1.361   5.782   3.393  0.1143 -0.2335 -0.2797
 7046TIP3    H242774   1.284   5.654   3.419 -0.1023 -0.2563 -1.0054
 7047TIP3   OH242775   1.153   3.994   4.391 -0.3070  0.1530 -0.3332
 7047TIP3    H142776   1.156   4.054   4.465 -0.6828 -0.0735 -0.1293
 7047TIP3    H242777   1.066   3.954   4.396 -0.2646 -0.0031 -0.7855
 7048TIP3   OH242778   0.960   6.799   2.634  0.2962 -0.3667  0.3597
 7048TIP3    H142779   1.011   6.735   2.683  0.3260 -0.8161 -0.2470
 7048TIP3    H242780   0.871   6.788   2.668  0.0868 -1.5077 -0.4964
 7049TIP3   OH242781   0.630   5.598   3.658 -0.5540 -0.2476 -0.1635
 7049TIP3    H142782   0.720   5.584   3.688  0.0710 -0.4523 -2.0179
 7049TIP3    H242783   0.626   5.692   3.640 -0.5114 -0.3414 -0.6727
 7050TIP3   OH242784   0.274   4.982   4.334  0.1280 -0.2953 -0.9190
 7050TIP3    H142785   0.311   4.901   4.368  2.0047 -0.0227 -2.1225
 7050TIP3    H242786   0.254   4.963   4.242 -3.1276 -0.4884 -0.2904
 7051TIP3   OH242787   6.105   2.956   3.987 -1.3299  0.9597 -0.3351
 7051TIP3    H142788   6.146   2.901   3.920 -0.2430  2.4499 -0.9544
 7051TIP3    H242789   6.039   2.900   4.027  1.8177 -1.9021  1.2929
 7052TIP3   OH242790   1.190   4.817   3.854  0.4472  0.3817 -0.6486
 7052TIP3    H142791   1.173   4.798   3.762  1.4826 -1.1043 -0.5719
 7052TIP3    H242792   1.275   4.862   3.854 -0.3908  2.0382 -0.5334
 7053TIP3   OH242793   1.263   4.303   2.803 -0.2707 -0.3394 -0.4364
 7053TIP3    H142794   1.302   4.321   2.717 -1.6624  1.2897 -0.7887
 7053TIP3    H242795   1.224   4.216   2.795 -1.4520  0.2901 -1.9018
 7054TIP3   OH242796   0.412   4.478   3.397  0.3906 -0.1230  0.0427
 7054TIP3    H142797   0.386   4.402   3.345  0.4133 -0.7829  0.9620
 7054TIP3    H242798   0.504   4.493   3.375  0.4184 -0.4433 -0.0598
 7055TIP3   OH242799   5.528   5.661   5.465 -0.1898 -0.4998  0.9850
 7055TIP3    H142800   5.601   5.688   5.409  1.5039  0.8970  3.6639
 7055TIP3    H242801   5.554   5.575   5.499 -1.4996 -1.6347 -0.7400
 7056TIP3   OH242802   2.319   5.357   2.736 -0.0229 -0.0802 -0.1765
 7056TIP3    H142803   2.385   5.358   2.806  0.2658  1.4060 -0.4294
 7056TIP3    H242804   2.347   5.286   2.678  0.5747 -0.3668  0.4416
 7057TIP3   OH242805   1.252   0.580   0.850  0.4262 -0.3858  0.2013
 7057TIP3    H142806   1.305   0.513   0.894  0.6318 -0.7909 -0.6320
 7057TIP3    H242807   1.225   0.640   0.920  2.0627 -0.1192  0.6336
 7058TIP3   OH242808   3.977   2.597   0.330  0.0290  0.0047 -0.0551
 7058TIP3    H142809   3.954   2.622   0.241 -1.2934  0.4480  0.3858
 7058TIP3    H242810   4.042   2.528   0.319  1.3317  1.3701 -1.3299
 7059TIP3   OH242811   2.636   1.589   8.346 -0.0967 -0.0252  0.3649
 7059TIP3    H142812   2.717   1.609   8.394 -0.7311  1.0673  1.0128
 7059TIP3    H242813   2.613   1.500   8.374  0.3675  0.0215  0.9127
 7060TIP3   OH242814   1.948   0.400   3.185 -0.2057  0.2431  0.0347
 7060TIP3    H142815   1.880   0.336   3.207 -0.0032 -0.0047 -0.0387
 7060TIP3    H242816   1.930   0.475   3.240 -1.0237  0.5059 -0.5659
 7061TIP3   OH242817   6.007   3.313   3.427  0.0334 -0.3197 -0.5915
 7061TIP3    H142818   5.986   3.229   3.386 -0.4081 -0.4561 -0.0880
 7061TIP3    H242819   5.925   3.342   3.467  0.6925 -0.6820  1.0986
 7062TIP3   OH242820   4.399   4.510   3.331  0.3956 -0.0750 -0.2790
 7062TIP3    H142821   4.412   4.586   3.273 -0.6635 -0.1424 -0.6127
 7062TIP3    H242822   4.437   4.538   3.414  0.0424  0.8173 -0.4055
 7063TIP3   OH242823   4.771   3.201   1.731 -0.2770  0.4001  0.2594
 7063TIP3    H142824   4.846   3.178   1.786 -0.6911  0.2192  0.7546
 7063TIP3    H242825   4.719   3.120   1.726 -0.1975  0.3886 -0.4773
 7064TIP3   OH242826   2.084   4.723   3.281  0.4515  0.3289 -0.1433
 7064TIP3    H142827   1.992   4.703   3.267  0.5189  0.3673 -0.6622
 7064TIP3    H242828   2.100   4.702   3.373  0.2824 -1.0712 -0.4193
 7065TIP3   OH242829   1.774   1.357   2.673 -0.1312 -0.2202 -0.0676
 7065TIP3    H142830   1.738   1.275   2.708 -0.8126 -0.3079 -0.9275
 7065TIP3    H242831   1.845   1.380   2.733 -0.4398 -1.0273  0.6258
 7066TIP3   OH242832   2.261   3.100   2.876 -0.2870  0.0783 -0.3924
 7066TIP3    H142833   2.332   3.147   2.920 -0.5028 -1.2161  1.4514
 7066TIP3    H242834   2.182   3.130   2.921 -0.5692 -0.8375 -0.2640
 7067TIP3   OH242835   3.715   4.984   0.292  0.2839 -0.6491 -0.2393
 7067TIP3    H142836   3.712   4.984   0.197 -0.1655 -1.4342 -0.2380
 7067TIP3    H242837   3.768   5.060   0.315 -1.3114  0.7549 -1.0460
 7068TIP3   OH242838   2.596   2.999   2.488  0.7196 -0.1552  0.1313
 7068TIP3    H142839   2.667   2.995   2.424  1.8364 -0.8180  1.3832
 7068TIP3    H242840   2.532   2.935   2.457  0.2614  0.9990 -1.4322
 7069TIP3   OH242841   1.726   4.569   4.156 -0.2940 -0.0483  0.1498
 7069TIP3    H142842   1.755   4.503   4.220 -2.8669 -1.1455  0.2804
 7069TIP3    H242843   1.673   4.630   4.207  1.3209  1.7329 -0.1527
 7070TIP3   OH242844   6.373   1.247   1.436 -1.3468  0.3018  0.7149
 7070TIP3    H142845   6.420   1.318   1.393  1.2163 -0.3168  2.2497
 7070TIP3    H242846   6.370   1.177   1.371 -0.8643  0.6581  0.2990
 7071TIP3   OH242847   3.021   4.740   4.545  0.7134  0.0441 -0.1118
 7071TIP3    H142848   2.932   4.715   4.569  1.4187 -0.4436  2.2927
 7071TIP3    H242849   3.011   4.826   4.504 -0.8083  0.4799  1.0560
 7072TIP3   OH242850   6.054   1.002   2.116  0.2350  0.0374 -0.2475
 7072TIP3    H142851   6.000   0.954   2.179  1.6492 -1.1427  0.1127
 7072TIP3    H242852   6.127   1.035   2.167 -0.0125  1.4443 -0.7709
 7073TIP3   OH242853   0.714   1.575   4.761 -0.2430 -0.0627 -0.0010
 7073TIP3    H142854   0.665   1.502   4.800 -0.2606  0.1784  0.4424
 7073TIP3    H242855   0.803   1.541   4.749 -0.3932 -0.3393 -0.3310
 7074TIP3   OH242856   2.910   5.436   2.725 -0.1165  0.2580 -0.8962
 7074TIP3    H142857   2.912   5.354   2.675 -1.7813  0.0760 -0.7522
 7074TIP3    H242858   2.997   5.474   2.715  1.3096 -2.3678  0.4398
 7075TIP3   OH242859   0.930   3.764   1.923 -0.4842 -0.2925  0.3108
 7075TIP3    H142860   1.011   3.812   1.903  0.0591 -0.6037  1.6493
 7075TIP3    H242861   0.870   3.830   1.957 -0.6927 -0.1141 -0.3918
 7076TIP3   OH242862   1.902   3.875   3.814  0.3044 -0.4025 -0.3096
 7076TIP3    H142863   1.851   3.840   3.887 -0.0816  0.5439 -0.1124
 7076TIP3    H242864   1.874   3.824   3.739 -3.6708  2.2818 -0.9802
 7077TIP3   OH242865   2.768   6.035   4.306 -0.1152 -0.1838 -0.4716
 7077TIP3    H142866   2.847   5.994   4.341  0.9513  0.5864 -1.9051
 7077TIP3    H242867   2.736   6.090   4.378  0.1587 -1.1349  0.4068
 7078TIP3   OH242868   5.162   0.086   1.461 -0.2752  0.4536  0.1998
 7078TIP3    H142869   5.169   0.025   1.534  0.1104  0.3394  0.0714
 7078TIP3    H242870   5.095   0.048   1.404 -0.2776  0.3261  0.2882
 7079TIP3   OH242871   3.377   3.169   4.076 -0.0281  0.1735 -0.5948
 7079TIP3    H142872   3.439   3.139   4.011  1.3023  0.6924  0.3855
 7079TIP3    H242873   3.322   3.093   4.094  0.8948 -0.5701 -0.8377
 7080TIP3   OH242874   6.819   2.726   0.913 -0.0996  0.1624  0.4025
 7080TIP3    H142875   6.829   2.663   0.983 -0.4562  0.2596  0.5413
 7080TIP3    H242876   6.908   2.736   0.877  0.0092 -0.1887  0.5713
 7081TIP3   OH242877   0.206   2.570   3.476  0.4245 -0.4116  0.5589
 7081TIP3    H142878   0.179   2.562   3.385  0.6213  2.4725  0.1360
 7081TIP3    H242879   0.250   2.487   3.495  0.8468 -0.9151 -2.1254
 7082TIP3   OH242880   6.518   1.109   0.168 -0.1654 -0.1671  0.6184
 7082TIP3    H142881   6.609   1.116   0.139 -0.1804  0.0112  0.6160
 7082TIP3    H242882   6.484   1.198   0.162 -1.2179 -0.6711 -2.2474
 7083TIP3   OH242883   4.411   5.026   1.579  0.5170 -0.4591  0.0509
 7083TIP3    H142884   4.396   4.964   1.507 -1.2308 -1.5855  1.3030
 7083TIP3    H242885   4.379   5.110   1.545  1.3764 -0.5498 -1.0778
 7084TIP3   OH242886   6.045   3.632   1.197 -0.6584  0.9647  0.4832
 7084TIP3    H142887   6.103   3.657   1.269  1.4003  1.1311 -1.1692
 7084TIP3    H242888   5.991   3.710   1.183 -0.5725  1.1945  1.3356
 7085TIP3   OH242889   3.340   0.947   0.842 -0.1677  0.3258 -0.0787
 7085TIP3    H142890   3.285   0.919   0.768  0.9248  0.7974 -1.1076
 7085TIP3    H242891   3.429   0.925   0.814  0.2095 -0.0847  1.4004
 7086TIP3   OH242892   4.350   4.674   1.917 -0.3026  0.4251 -0.4008
 7086TIP3    H142893   4.398   4.732   1.859 -0.1831 -0.1086 -0.8445
 7086TIP3    H242894   4.272   4.723   1.942  0.1401  1.0384 -0.2121
 7087TIP3   OH242895   2.453   1.241   4.519 -0.1424 -1.0198  0.6930
 7087TIP3    H142896   2.443   1.180   4.446 -1.0321  0.0378 -0.1160
 7087TIP3    H242897   2.547   1.250   4.531  0.0827 -0.0687 -1.3695
 7088TIP3   OH242898   0.237   4.854   2.853  0.1212 -0.4361  0.0781
 7088TIP3    H142899   0.233   4.939   2.896  0.7231  0.0368 -0.7873
 7088TIP3    H242900   0.327   4.846   2.824 -0.9089  0.7715 -4.0662
 7089TIP3   OH242901   0.478   3.363   2.982  0.0963 -0.6471  0.8559
 7089TIP3    H142902   0.400   3.415   2.958 -0.3502 -1.1196  1.2706
 7089TIP3    H242903   0.442   3.280   3.013  0.8110 -1.2922  0.0111
 7090TIP3   OH242904   0.964   0.657   1.421 -0.2565  0.2022  0.0410
 7090TIP3    H142905   0.887   0.617   1.461  0.2516 -1.2677 -0.3753
 7090TIP3    H242906   0.945   0.658   1.327  0.2232 -0.1914 -0.0674
 7091TIP3   OH242907   0.601   0.500   0.428 -0.7757  0.5266 -0.0919
 7091TIP3    H142908   0.607   0.441   0.353  3.0779  0.1147  0.3456
 7091TIP3    H242909   0.618   0.587   0.392 -0.8792  0.6031  0.0407
 7092TIP3   OH242910   2.742   4.262   0.929  0.0695  0.1944 -0.1964
 7092TIP3    H142911   2.705   4.284   0.844 -1.6309  1.1526  0.7192
 7092TIP3    H242912   2.774   4.346   0.963 -0.1625  0.0149  0.4871
 7093TIP3   OH242913   0.209   5.985   1.575  0.6984 -0.3547  0.1587
 7093TIP3    H142914   0.209   6.079   1.554 -1.0801  0.2754  2.5486
 7093TIP3    H242915   0.172   5.980   1.663  1.0398 -3.3121  0.2344
 7094TIP3   OH242916   1.404   1.637   3.092 -0.3131 -0.4138  0.1461
 7094TIP3    H142917   1.358   1.588   3.024  2.9034 -0.0935 -2.5533
 7094TIP3    H242918   1.497   1.624   3.071  0.7767  2.9912  2.1186
 7095TIP3   OH242919   4.064   4.046   3.614 -0.3594  0.0112 -0.1365
 7095TIP3    H142920   3.981   4.004   3.591  0.6561 -1.3376 -1.4867
 7095TIP3    H242921   4.054   4.136   3.581 -1.3285 -0.0935 -0.1709
 7096TIP3   OH242922   3.399   1.551   4.240  0.1694 -0.2281 -0.5311
 7096TIP3    H142923   3.350   1.477   4.204  1.3317 -1.4406  0.2880
 7096TIP3    H242924   3.490   1.535   4.215  0.3472  1.4004 -1.0777
 7097TIP3   OH242925   1.305   5.510   3.145  0.1797  0.1667 -0.6686
 7097TIP3    H142926   1.396   5.539   3.137  0.7387 -0.5811  2.0979
 7097TIP3    H242927   1.254   5.591   3.152  1.0092  0.5812  0.8631
 7098TIP3   OH242928   4.707   0.117   4.495  0.2024 -0.4297 -0.3337
 7098TIP3    H142929   4.615   0.144   4.500  0.1787 -0.5256 -0.2461
 7098TIP3    H242930   4.747   0.156   4.573  0.3362 -0.0028 -0.6108
 7099TIP3   OH242931   1.085   4.975   0.278 -0.6165 -0.1304 -0.0410
 7099TIP3    H142932   1.106   5.023   0.358 -0.0876 -1.5019  0.6842
 7099TIP3    H242933   1.011   5.023   0.240 -0.6194  0.7816  1.0502
 7100TIP3   OH242934   2.356   5.310   3.761  0.1816 -0.0250  0.4691
 7100TIP3    H142935   2.399   5.224   3.757 -0.7846 -0.4771 -0.8274
 7100TIP3    H242936   2.392   5.351   3.840 -1.2827 -2.6836  2.7259
 7101TIP3   OH242937   2.446   6.516   0.549 -0.0095  0.0082 -0.0951
 7101TIP3    H142938   2.495   6.478   0.477 -1.4222 -1.3712 -0.3802
 7101TIP3    H242939   2.416   6.441   0.600  1.2786  0.9454  2.1976
 7102TIP3   OH242940   2.492   4.766   2.689 -0.1067  0.4565  0.1346
 7102TIP3    H142941   2.475   4.744   2.598 -1.1086 -0.7587  0.5974
 7102TIP3    H242942   2.429   4.835   2.709 -1.0301 -0.4400  0.3710
 7103TIP3   OH242943   5.277   2.615   1.525  0.1811 -0.0438 -0.2623
 7103TIP3    H142944   5.277   2.595   1.619 -0.0799  0.9793 -0.0415
 7103TIP3    H242945   5.257   2.530   1.484 -1.5796 -0.1588  0.6902
 7104TIP3   OH242946   2.248   5.391   1.732  0.2009 -0.2108  0.4180
 7104TIP3    H142947   2.325   5.448   1.732  0.2304 -0.2329 -0.6578
 7104TIP3    H242948   2.269   5.323   1.796  0.9890 -0.1016  0.2876
 7105TIP3   OH242949   2.104   6.282   3.947  0.1353  0.2241  0.3121
 7105TIP3    H142950   2.061   6.344   3.889  1.1547 -0.8487 -1.7227
 7105TIP3    H242951   2.177   6.331   3.985  1.2545  0.1945 -1.6903
 7106TIP3   OH242952   5.520   0.021   3.311  0.1367 -0.4355  0.1902
 7106TIP3    H142953   5.428   0.007   3.334 -0.6818  0.1289 -2.4465
 7106TIP3    H242954   5.568  -0.036   3.372 -1.9903 -1.3727  1.1094
 7107TIP3   OH242955   4.665   2.267   2.490 -0.0357  0.2941  0.5222
 7107TIP3    H142956   4.596   2.276   2.424  0.1607 -0.7907  0.1585
 7107TIP3    H242957   4.622   2.287   2.573 -0.9593 -1.0351  0.3873
 7108TIP3   OH242958   0.784   6.604   3.694 -0.4371 -0.1804 -0.1526
 7108TIP3    H142959   0.793   6.508   3.700 -0.4265 -0.1412  0.4847
 7108TIP3    H242960   0.786   6.622   3.600 -1.8591 -0.9495 -0.3607
 7109TIP3   OH242961   0.447   6.386   0.898  0.0232 -0.4736 -0.4128
 7109TIP3    H142962   0.499   6.366   0.820 -0.9543 -0.3559 -1.1293
 7109TIP3    H242963   0.446   6.481   0.903  0.5248 -0.4924  0.0576
 7110TIP3   OH242964   3.958   1.578   1.261 -0.1028  0.5071 -0.3459
 7110TIP3    H142965   3.886   1.534   1.304  2.3066 -1.5348  1.9146
 7110TIP3    H242966   3.956   1.545   1.171 -2.2011  0.9091 -0.5025
 7111TIP3   OH242967   1.196   0.174   1.925 -0.1579 -0.0251  0.1797
 7111TIP3    H142968   1.204   0.079   1.936 -1.9893 -0.4650 -1.7348
 7111TIP3    H242969   1.210   0.189   1.831 -2.2828  1.2633 -0.0011
 7112TIP3   OH242970   1.210   4.359   1.399 -0.2877  0.6107 -0.6219
 7112TIP3    H142971   1.283   4.357   1.337 -0.2040  0.8377 -0.5272
 7112TIP3    H242972   1.164   4.441   1.380 -1.0077  0.0803 -1.2572
 7113TIP3   OH242973   0.526   5.245   4.268  0.6914 -0.1745  0.2179
 7113TIP3    H142974   0.574   5.162   4.270  1.6188  0.3448  0.1949
 7113TIP3    H242975   0.534   5.279   4.357  0.0847 -0.2266  0.2981
 7114TIP3   OH242976   6.223   3.717   2.665 -0.2573  0.0087  0.0207
 7114TIP3    H142977   6.300   3.735   2.720 -0.8298  0.3629  0.7208
 7114TIP3    H242978   6.227   3.783   2.596  0.3130 -0.2589 -0.2053
 7115TIP3   OH242979   1.004   5.934   1.416  0.0818  0.1787  0.3326
 7115TIP3    H142980   1.023   6.014   1.368 -0.6391  0.5831  0.7083
 7115TIP3    H242981   0.928   5.955   1.470 -0.4020 -0.8898  0.0979
 7116TIP3   OH242982   3.868   6.729   3.584  0.4875  0.1165 -0.7776
 7116TIP3    H142983   3.848   6.766   3.498  1.6678 -0.3615 -1.2731
 7116TIP3    H242984   3.947   6.677   3.570  0.5211 -0.2116  0.5368
 7117TIP3   OH242985   3.820   0.171   2.039  0.8050 -0.3826 -0.0072
 7117TIP3    H142986   3.747   0.170   1.976  1.4048 -1.2596 -0.7160
 7117TIP3    H242987   3.784   0.132   2.118 -0.5360  2.4865  0.9374
 7118TIP3   OH242988   3.571   1.652   2.013 -0.3012 -0.3192  0.5116
 7118TIP3    H142989   3.521   1.571   2.002 -1.3741  0.2761  0.8534
 7118TIP3    H242990   3.599   1.675   1.924 -2.6579  0.5632 -0.0789
 7119TIP3   OH242991   1.971   0.182   2.981  0.6224 -0.5121 -0.7507
 7119TIP3    H142992   1.921   0.191   3.063  1.1247  0.2941 -0.5172
 7119TIP3    H242993   1.961   0.090   2.957 -0.0067 -0.6332 -0.0862
 7120TIP3   OH242994   3.147   2.046   1.214  0.4316  0.9722 -0.4332
 7120TIP3    H142995   3.093   1.986   1.163  1.1513 -0.8638  0.8505
 7120TIP3    H242996   3.105   2.131   1.203 -1.5611 -0.0247 -1.0653
 7121TIP3   OH242997   4.017   2.571   4.047 -0.2793  0.4928 -0.0381
 7121TIP3    H142998   3.979   2.522   4.120  4.3476 -1.7006  1.2871
 7121TIP3    H242999   3.996   2.517   3.970  0.1547 -0.7139  0.6543
 7122TIP3   OH243000   6.351   4.093   2.795  0.0908 -0.1809 -0.2129
 7122TIP3    H143001   6.421   4.034   2.765  0.0564 -0.0601 -0.5331
 7122TIP3    H243002   6.365   4.173   2.745 -1.5310 -0.8445 -1.8715
 7123TIP3   OH243003   3.437   0.098   3.830  0.0269 -0.6279 -0.0695
 7123TIP3    H143004   3.420   0.060   3.916 -3.2087 -2.2694 -1.2978
 7123TIP3    H243005   3.436   0.024   3.770 -1.7369  0.8414 -1.9931
 7124TIP3   OH243006   6.077   1.901   2.547 -0.5495  0.0746 -0.8715
 7124TIP3    H143007   5.998   1.907   2.493 -0.3294 -1.5445 -1.4121
 7124TIP3    H243008   6.058   1.831   2.609  0.7918 -0.9753 -1.6044
 7125TIP3   OH243009   2.087   0.568   4.299  0.1995 -0.3360  0.3403
 7125TIP3    H143010   2.000   0.600   4.275  0.1175  0.4650  1.6293
 7125TIP3    H243011   2.147   0.636   4.267  0.7241 -2.2667 -3.3273
 7126TIP3   OH243012   4.930   4.266   1.434 -0.1613  0.2169  1.0952
 7126TIP3    H143013   4.925   4.320   1.513  2.5702  0.0999  1.4292
 7126TIP3    H243014   5.023   4.265   1.411 -0.9537  1.1772 -2.8345
 7127TIP3   OH243015   1.932   5.704   2.971 -0.0170 -0.2439 -0.1750
 7127TIP3    H143016   1.982   5.689   3.051 -2.3866 -0.9530  1.2737
 7127TIP3    H243017   1.891   5.620   2.953 -1.6830  0.6103 -0.5495
 7128TIP3   OH243018   1.518   0.690   2.591  0.1113  0.3638  0.5963
 7128TIP3    H143019   1.470   0.735   2.660  0.8278  1.7827  0.2022
 7128TIP3    H243020   1.597   0.656   2.633  0.0215  0.2700  0.6914
 7129TIP3   OH243021   2.450   2.523   1.980  0.3438  0.4121 -0.2029
 7129TIP3    H143022   2.515   2.559   1.920  0.4637 -0.3678 -0.5538
 7129TIP3    H243023   2.366   2.540   1.938  0.4804 -1.0425 -1.1148
 7130TIP3   OH243024   2.791   5.981   2.132  0.1794  0.0335 -0.1018
 7130TIP3    H143025   2.833   5.900   2.163 -0.5455  0.0451  0.9834
 7130TIP3    H243026   2.709   5.985   2.181 -0.7378  0.4031 -1.6177
 7131TIP3   OH243027   0.018   4.015   4.736  0.1243 -0.2620  0.1300
 7131TIP3    H143028   0.036   3.936   4.684  1.6662  1.4521 -2.1467
 7131TIP3    H243029  -0.024   4.075   4.674 -0.1070  1.0609  1.5225
 7132TIP3   OH243030   1.193   5.516   1.191 -0.3575  0.3475  0.0693
 7132TIP3    H143031   1.200   5.474   1.276 -0.3585 -1.8951 -0.9504
 7132TIP3    H243032   1.265   5.477   1.140 -1.0778  0.7275 -1.2748
 7133TIP3   OH243033   2.824   2.292   1.235  0.7126  0.2040 -0.3311
 7133TIP3    H143034   2.824   2.247   1.320  2.2320 -0.8029 -0.8271
 7133TIP3    H243035   2.915   2.314   1.220  0.6021 -0.4108 -2.0996
 7134TIP3   OH243036   0.326   2.155   4.129 -0.2169  0.3202 -0.0502
 7134TIP3    H143037   0.338   2.122   4.219  2.2131  2.5870  0.5866
 7134TIP3    H243038   0.372   2.091   4.074  0.7582  0.3701  0.6771
 7135TIP3   OH243039   5.217   2.102   3.480 -0.1083 -0.3265  0.6948
 7135TIP3    H143040   5.164   2.178   3.455 -0.0799 -0.2981  0.7213
 7135TIP3    H243041   5.287   2.138   3.534  1.0400 -0.1089 -0.8768
 7136TIP3   OH243042   5.923   4.385   1.147  0.0155 -0.1709 -0.6146
 7136TIP3    H143043   5.852   4.333   1.185  1.8870 -1.8730  0.8375
 7136TIP3    H243044   5.955   4.332   1.074  1.7004 -0.9546  0.6396
 7137TIP3   OH243045   1.049   5.267   0.945  0.1271  0.3268  0.2717
 7137TIP3    H143046   1.112   5.278   1.016 -1.0916 -1.2733  1.6758
 7137TIP3    H243047   0.999   5.349   0.944  0.9482  0.8413  0.4117
 7138TIP3   OH243048   1.343   6.201   1.091  0.0247  0.3199 -0.2184
 7138TIP3    H143049   1.430   6.194   1.053 -0.2271  1.9911 -1.2007
 7138TIP3    H243050   1.339   6.291   1.125 -1.8287  0.7945 -1.5643
 7139TIP3   OH243051   5.227   3.470   2.757  0.3022  0.1570 -0.2242
 7139TIP3    H143052   5.303   3.470   2.816  0.8783  1.4359 -0.9510
 7139TIP3    H243053   5.161   3.522   2.803  0.4337  0.3972 -0.3065
 7140TIP3   OH243054   4.419   2.618   1.521 -0.2346  0.0154 -0.2854
 7140TIP3    H143055   4.447   2.640   1.432 -0.9010 -2.4334 -1.1755
 7140TIP3    H243056   4.491   2.568   1.558 -0.1112  0.7145  0.4429
 7141TIP3   OH243057   6.018   1.949   8.723  0.1142  0.0660  0.0895
 7141TIP3    H143058   6.039   1.885   8.791 -3.4179 -0.8762  0.5305
 7141TIP3    H243059   6.043   2.033   8.760  0.6438 -0.6690  1.4616
 7142TIP3   OH243060   4.503   0.440   2.911 -0.4607 -0.0624  0.2574
 7142TIP3    H143061   4.527   0.469   2.822 -0.8447 -2.3512 -0.6653
 7142TIP3    H243062   4.424   0.491   2.932  1.0880  2.4258  0.4429
 7143TIP3   OH243063   2.654   0.573   3.056  0.1649 -0.6061  0.6690
 7143TIP3    H143064   2.720   0.570   2.987  0.9358 -0.9843  1.3998
 7143TIP3    H243065   2.594   0.642   3.029  1.7869  0.9322  0.7865
 7144TIP3   OH243066   4.066   2.716   1.885 -0.8533 -0.0968 -0.2742
 7144TIP3    H143067   4.093   2.727   1.794 -2.2732 -0.0186 -0.7245
 7144TIP3    H243068   4.144   2.733   1.936 -0.1232  0.2676 -1.4685
 7145TIP3   OH243069   2.063   2.209   1.186 -0.1866 -0.8312 -0.0678
 7145TIP3    H143070   2.062   2.289   1.134 -0.0385 -0.7906 -0.0104
 7145TIP3    H243071   2.000   2.151   1.143 -0.6824 -0.4924  0.1971
 7146TIP3   OH243072   5.976   5.504   1.682 -0.3170  0.2666  0.4737
 7146TIP3    H143073   5.900   5.452   1.658 -1.2131  2.6463 -2.6789
 7146TIP3    H243074   6.049   5.442   1.680 -1.8887 -1.7804  2.0764
 7147LIG     O143075   5.756   4.989   2.422  0.1811 -0.1314 -0.6196
 7147LIG     O243076   5.650   4.876   2.228 -0.3377  0.0020  0.1582
 7147LIG     O343077   5.752   5.205   2.231 -0.0403 -0.2798  0.3701
 7147LIG     O443078   5.462   4.778   2.140  0.4314  0.4184 -0.1283
 7147LIG     O543079   5.498   5.107   2.276  0.6953  0.0281 -0.7432
 7147LIG     O643080   5.243   5.130   2.145 -0.0450  0.4170 -0.0174
 7147LIG     O743081   5.107   4.876   2.111 -0.8342 -0.3624 -0.3973
 7147LIG     O843082   5.361   4.592   1.977  0.0676  0.0871 -0.0131
 7147LIG     O943083   5.164   4.595   2.085  1.2392 -0.2768  0.5015
 7147LIG      N43084   6.183   4.747   2.517 -0.1334  0.3931  0.2009
 7147LIG     C143085   5.929   4.831   2.436  0.3521 -0.6438 -1.0031
 7147LIG     C243086   5.981   4.696   2.380 -0.3172 -0.6340  0.6801
 7147LIG     C343087   5.772   4.845   2.442  0.0277  0.1985 -0.6491
 7147LIG     C443088   6.129   4.722   2.380 -0.1568  0.2521 -0.2756
 7147LIG     C543089   5.985   4.853   2.581  0.4650 -0.2458 -0.0067
 7147LIG     C643090   5.972   4.948   2.359 -0.1723 -0.5084  0.0093
 7147LIG     C743091   6.168   4.843   2.278 -0.1736  0.6573 -0.6118
 7147LIG     C843092   6.134   4.867   2.581 -0.6546 -0.4897  0.0679
 7147LIG     C943093   5.702   4.780   2.321 -0.2511 -0.3590  1.1273
 7147LIG    C1043094   6.081   4.962   2.282  0.2781 -0.2487 -0.5086
 7147LIG    C1143095   5.915   4.659   2.252 -0.4926  0.6951  0.4549
 7147LIG    C1243096   5.862   5.037   2.352  0.3450  0.6504  0.3353
 7147LIG    C1343097   5.788   4.711   2.219 -0.4896 -0.6814  0.7354
 7147LIG    C1443098   6.328   4.735   2.525 -0.5021 -0.4458  0.1467
 7147LIG    C1543099   6.090   5.060   2.190  0.2880  0.0618  0.1974
 7147LIG    C1643100   5.868   5.138   2.257 -0.2047 -0.0935 -0.2096
 7147LIG    C1743101   5.983   5.151   2.178  0.1669  0.4628  0.1333
 7147LIG    C1843102   5.507   4.875   2.226 -0.3478 -0.4150 -0.4544
 7147LIG    C1943103   5.446   5.015   2.186  0.3512  0.1214  0.3198
 7147LIG    C2043104   5.297   5.004   2.186  0.2586 -0.0457  0.2720
 7147LIG    C2143105   5.244   4.894   2.096  0.6654 -0.1899 -0.6736
 7147LIG    C2243106   5.317   4.765   2.146 -1.0184 -0.3916 -0.3819
 7147LIG    C2343107   5.272   4.645   2.077  0.2342  0.3383  0.7550
 7147LIG     H143108   5.957   4.612   2.449 -3.0391 -0.6175 -0.1181
 7147LIG     H243109   5.728   4.818   2.541  0.0051  1.0536 -0.4197
 7147LIG     H343110   6.179   4.632   2.338 -0.6289 -1.2496  2.1217
 7147LIG     H443111   5.951   4.764   2.637  0.9742 -2.0455 -2.3993
 7147LIG     H543112   5.937   4.938   2.635 -0.2471 -0.5132 -0.2091
 7147LIG     H643113   6.175   4.811   2.172  1.1597  0.2534 -0.4207
 7147LIG     H743114   6.271   4.868   2.309 -0.2729 -0.7978  1.0729
 7147LIG     H843115   6.174   4.958   2.530  2.5147 -0.9502  1.4769
 7147LIG     H943116   6.171   4.862   2.686 -2.6435 -2.3641  0.7529
 7147LIG    H1043117   5.628   4.704   2.355  1.9871 -2.3848  1.7570
 7147LIG    H1143118   5.979   4.604   2.181 -1.2524  0.2646  0.0869
 7147LIG    H1243119   5.737   4.678   2.128 -0.5536  0.4730  0.3347
 7147LIG    H1343120   6.377   4.691   2.436  1.3125  0.2379  0.7721
 7147LIG    H1443121   6.356   4.667   2.609 -0.6880 -1.4464 -0.5843
 7147LIG    H1543122   6.373   4.830   2.560  1.3140 -1.6823  1.3362
 7147LIG    H1643123   6.175   5.068   2.123 -1.8084 -1.3455 -2.8791
 7147LIG    H1743124   5.991   5.226   2.100  2.0891  2.5616  2.1736
 7147LIG    H1843125   5.476   4.851   2.330  2.4019 -0.9182  0.3494
 7147LIG    H1943126   5.477   5.039   2.083 -2.0786  1.0350 -0.2582
 7147LIG    H2043127   5.269   4.993   2.293 -1.8768  2.4100  0.0695
 7147LIG    H2143128   5.777   5.289   2.191 -1.1643  1.3796  2.8762
 7147LIG    H2243129   5.270   4.907   1.989  0.1950  0.9867 -0.6535
 7147LIG    H2343130   5.294   4.746   2.253 -1.4328 -0.2146 -0.4407
 7147LIG    H2443131   5.586   5.127   2.245  0.9980 -2.1093 -1.3502
 7147LIG    H2543132   5.272   5.193   2.211  0.9208  1.8297 -1.6811
 7147LIG    H2643133   5.078   4.954   2.063  2.1509  0.1965 -1.4768
 7147LIG    H2743134   5.445   4.635   1.992  1.5625 -2.3539 -0.8458
   6.83144   6.83144   8.87345
