Title
43134
    1CHL1    C3    1   0.421   5.452   7.068  0.0614  0.0992  0.0727
    1CHL1    H3    2   0.492   5.536   7.056 -0.6243  0.7690  0.6492
    1CHL1    O3    3   0.390   5.428   7.201  0.2213 -0.8602 -0.0670
    1CHL1   H3'    4   0.314   5.371   7.193 -1.5647  0.9494  2.3660
    1CHL1    C4    5   0.289   5.462   6.998 -0.0903 -0.1355 -0.1826
    1CHL1   H4A    6   0.219   5.386   7.039  1.2867 -1.6301 -0.5034
    1CHL1   H4B    7   0.246   5.559   7.028 -0.4034 -0.0537 -0.8668
    1CHL1    C5    8   0.291   5.457   6.846  1.0752 -0.2979 -0.1132
    1CHL1    C6    9   0.234   5.557   6.774 -0.4126  0.0386 -0.6070
    1CHL1    H6   10   0.198   5.642   6.834 -1.0263 -1.5529  1.3741
    1CHL1    C7   11   0.209   5.544   6.621 -0.4124 -1.2139 -0.5285
    1CHL1   H7A   12   0.107   5.572   6.588 -0.5105  0.7054  1.2154
    1CHL1   H7B   13   0.284   5.610   6.572 -0.5011  0.4418  1.4341
    1CHL1    C8   14   0.238   5.397   6.572 -0.2440  0.0625  0.4469
    1CHL1    H8   15   0.152   5.333   6.600 -1.4336  1.5920  0.4059
    1CHL1   C14   16   0.265   5.398   6.419 -0.2597 -0.3081 -0.7897
    1CHL1   H14   17   0.347   5.472   6.405 -2.3746  2.3930  0.1152
    1CHL1   C15   18   0.151   5.456   6.332  0.3754  0.0719 -0.6750
    1CHL1  H15A   19   0.055   5.437   6.386  1.9187 -1.1654  1.8138
    1CHL1  H15B   20   0.168   5.565   6.326  1.8208  0.0738  2.1386
    1CHL1   C16   21   0.163   5.399   6.198 -0.6603 -0.2991  0.0859
    1CHL1  H16A   22   0.068   5.341   6.186 -2.1509  1.6367  1.8908
    1CHL1  H16B   23   0.173   5.466   6.110  1.2621 -0.6296  0.0164
    1CHL1   C17   24   0.281   5.294   6.204  0.2651 -0.3469 -0.3475
    1CHL1   H17   25   0.375   5.352   6.186  0.3680 -0.2753  0.4025
    1CHL1   C13   26   0.288   5.263   6.361  0.0172  0.3641 -0.0467
    1CHL1   C18   27   0.184   5.151   6.400  0.3531 -0.4353 -0.0385
    1CHL1  H18A   28   0.084   5.160   6.351 -0.4143 -3.2176  0.8455
    1CHL1  H18B   29   0.228   5.058   6.360  1.5305  0.2751 -0.4515
    1CHL1  H18C   30   0.163   5.137   6.508 -0.7808  0.2509 -0.1480
    1CHL1   C12   31   0.431   5.228   6.413  0.2152 -0.0794  0.5236
    1CHL1  H12A   32   0.480   5.136   6.373  0.1336 -0.7412  1.8514
    1CHL1  H12B   33   0.494   5.314   6.381 -2.1494  0.8563 -1.9202
    1CHL1   C11   34   0.430   5.219   6.568 -0.1644  0.5803 -0.1400
    1CHL1  H11A   35   0.390   5.122   6.603  1.6290 -0.2301 -0.2021
    1CHL1  H11B   36   0.536   5.218   6.602 -0.3067  2.2871  0.4860
    1CHL1    C9   37   0.372   5.348   6.635 -0.4852  0.1147  0.0361
    1CHL1    H9   38   0.445   5.428   6.609 -0.4719  0.0043 -0.2673
    1CHL1   C10   39   0.352   5.335   6.788 -0.1672 -0.0154  0.0565
    1CHL1   C19   40   0.267   5.208   6.817 -0.1411 -0.3868  0.5002
    1CHL1  H19A   41   0.182   5.182   6.750  1.2552 -2.0898 -0.6915
    1CHL1  H19B   42   0.337   5.123   6.806 -1.0453 -1.2431  1.1710
    1CHL1  H19C   43   0.226   5.217   6.921  1.6957  2.1052  1.1127
    1CHL1    C1   44   0.492   5.329   6.850  0.0712 -0.3262  0.1842
    1CHL1   H1A   45   0.540   5.231   6.828 -1.3580 -1.4528  1.7792
    1CHL1   H1B   46   0.565   5.400   6.807  0.7496  0.9326  3.2043
    1CHL1    C2   47   0.499   5.327   7.010 -0.1243 -0.3375 -0.2202
    1CHL1   H2A   48   0.608   5.319   7.033 -0.2888  1.0328  1.2537
    1CHL1   H2B   49   0.451   5.233   7.044  0.0530 -0.0309  0.9610
    1CHL1   C20   50   0.268   5.187   6.104  0.6836  0.3411  0.6648
    1CHL1   H20   51   0.177   5.124   6.117  0.4516 -0.0160 -2.0595
    1CHL1   C21   52   0.400   5.103   6.110  0.5053  0.0437 -0.4523
    1CHL1  H21A   53   0.391   5.011   6.172  1.3675 -0.6333 -1.2949
    1CHL1  H21B   54   0.485   5.168   6.137  0.7049  0.8990 -2.8589
    1CHL1  H21C   55   0.412   5.057   6.009 -2.8349 -1.8850 -0.1296
    1CHL1   C22   56   0.238   5.236   5.959 -0.2125  0.0494 -0.2936
    1CHL1  H22A   57   0.149   5.300   5.943  0.0864  0.6919  0.5351
    1CHL1  H22B   58   0.314   5.308   5.923  0.0540 -0.7750 -1.4703
    1CHL1   C23   59   0.206   5.130   5.856  0.2260  1.3559  0.1764
    1CHL1  H23A   60   0.298   5.072   5.833 -0.0201  0.7217  0.7445
    1CHL1  H23B   61   0.148   5.049   5.906  0.4427  0.7191 -0.5791
    1CHL1   C24   62   0.138   5.177   5.732 -0.3969 -0.6674  0.1358
    1CHL1  H24A   63   0.028   5.174   5.746 -0.2515  1.9449  3.0817
    1CHL1  H24B   64   0.172   5.280   5.706 -3.0465  0.1229 -0.4892
    1CHL1   C25   65   0.167   5.085   5.614  0.4868 -0.0594  0.1673
    1CHL1   H25   66   0.150   4.981   5.650 -0.1278 -0.7883 -2.0503
    1CHL1   C26   67   0.079   5.112   5.495 -0.6461 -0.3273  0.3471
    1CHL1  H26A   68   0.099   5.207   5.443  1.1472 -0.9350 -0.1484
    1CHL1  H26B   69   0.116   5.037   5.422  2.5915  1.7091 -0.3252
    1CHL1  H26C   70  -0.028   5.106   5.524 -0.8186 -1.9411 -0.4758
    1CHL1   C27   71   0.312   5.105   5.563  0.0422  0.1078  0.5790
    1CHL1  H27A   72   0.329   5.208   5.527  1.6944 -0.6826 -1.0769
    1CHL1  H27B   73   0.388   5.074   5.637  1.0461 -0.3182 -0.5893
    1CHL1  H27C   74   0.331   5.039   5.475 -1.6250 -0.5255  0.6458
    2CHL1    C3   75   1.166   0.431   6.949  0.4323  0.0594  0.7296
    2CHL1    H3   76   1.162   0.328   6.991 -0.2658 -0.0643  0.3701
    2CHL1    O3   77   1.217   0.519   7.046 -0.6937  0.4955  0.1410
    2CHL1   H3'   78   1.298   0.475   7.073 -1.2192 -0.0958  0.7790
    2CHL1    C4   79   1.272   0.420   6.833 -0.7952  0.2804 -0.3173
    2CHL1   H4A   80   1.300   0.524   6.806 -0.9698 -0.1244 -2.2498
    2CHL1   H4B   81   1.366   0.372   6.868 -0.2643  0.2326 -1.7150
    2CHL1    C5   82   1.210   0.354   6.701 -0.8729 -0.7833 -0.6863
    2CHL1    C6   83   1.262   0.253   6.628  0.3291  0.9044  0.7718
    2CHL1    H6   84   1.360   0.211   6.653 -0.0246 -1.0165 -0.8133
    2CHL1    C7   85   1.200   0.186   6.499  0.2544  0.1507 -0.5438
    2CHL1   H7A   86   1.276   0.164   6.421  0.5859 -0.9858  0.0773
    2CHL1   H7B   87   1.160   0.090   6.540  0.9665  0.6299  1.4087
    2CHL1    C8   88   1.095   0.288   6.441 -0.3686 -0.2672 -0.4204
    2CHL1    H8   89   1.161   0.364   6.394  1.4918 -2.2401 -1.1771
    2CHL1   C14   90   1.004   0.224   6.338  0.2411 -0.3397 -0.7326
    2CHL1   H14   91   0.968   0.132   6.388  0.3153  1.5433  3.0629
    2CHL1   C15   92   1.088   0.171   6.223 -0.0031  0.2802  0.1354
    2CHL1  H15A   93   1.148   0.250   6.174  0.9789  1.4860  3.0892
    2CHL1  H15B   94   1.156   0.091   6.262  2.1451  1.2813 -1.3295
    2CHL1   C16   95   0.978   0.118   6.132 -1.4557 -0.6937 -0.7115
    2CHL1  H16A   96   1.012   0.146   6.030 -1.6200  1.7456 -0.1536
    2CHL1  H16B   97   0.981   0.007   6.133  0.7105 -0.6664 -0.3657
    2CHL1   C17   98   0.842   0.176   6.172 -0.3883 -1.0444 -0.1715
    2CHL1   H17   99   0.795   0.086   6.215 -1.6000 -0.0337  0.6688
    2CHL1   C13  100   0.882   0.294   6.278 -0.8225  0.8486  0.0329
    2CHL1   C18  101   0.919   0.425   6.208  0.0935 -0.4025  0.1242
    2CHL1  H18A  102   0.988   0.484   6.272 -0.7074 -1.1160  1.7293
    2CHL1  H18B  103   0.969   0.400   6.112 -1.0062 -1.2342 -0.2520
    2CHL1  H18C  104   0.831   0.487   6.182  0.8367 -0.4833 -2.9590
    2CHL1   C12  105   0.792   0.330   6.398 -0.6805  0.6679  0.0721
    2CHL1  H12A  106   0.698   0.378   6.365  0.5827  1.6344 -2.4842
    2CHL1  H12B  107   0.775   0.232   6.449  1.8805  0.4274  0.6046
    2CHL1   C11  108   0.875   0.409   6.498 -0.2371  0.8162  0.8239
    2CHL1  H11A  109   0.894   0.506   6.447  0.6650 -0.2790 -1.0269
    2CHL1  H11B  110   0.806   0.429   6.583  1.6150  3.3706  1.8396
    2CHL1    C9  111   1.001   0.342   6.556 -0.6808  0.2247  0.5133
    2CHL1    H9  112   0.969   0.247   6.602 -0.0244 -0.3270 -0.1348
    2CHL1   C10  113   1.075   0.421   6.661 -0.1690 -0.0941 -0.2218
    2CHL1   C19  114   1.109   0.568   6.609 -0.4568  0.6426  0.5413
    2CHL1  H19A  115   1.155   0.623   6.694 -1.6770 -0.1082  1.7407
    2CHL1  H19B  116   1.176   0.563   6.521 -3.3847 -0.0003 -1.8278
    2CHL1  H19C  117   1.020   0.627   6.579 -1.7817 -1.3342  0.3725
    2CHL1    C1  118   0.975   0.418   6.784  0.5089 -0.0352  0.1335
    2CHL1   H1A  119   0.873   0.455   6.762  0.2933 -0.6888  0.0164
    2CHL1   H1B  120   0.966   0.309   6.802 -0.9530 -0.5530 -3.0031
    2CHL1    C2  121   1.031   0.489   6.908  0.7721  0.9196  1.1033
    2CHL1   H2A  122   0.955   0.462   6.985 -0.1097  0.0379 -0.0334
    2CHL1   H2B  123   1.028   0.598   6.889  0.4905  0.7916  0.4011
    2CHL1   C20  124   0.759   0.222   6.052  0.2685 -0.0247 -0.3472
    2CHL1   H20  125   0.795   0.318   6.012  1.9668  0.1214  1.3583
    2CHL1   C21  126   0.620   0.239   6.106  0.5568 -0.0686 -0.7859
    2CHL1  H21A  127   0.602   0.323   6.175  1.9872  0.6127 -1.2166
    2CHL1  H21B  128   0.589   0.142   6.150  1.6058 -0.0736 -0.0342
    2CHL1  H21C  129   0.553   0.267   6.021 -0.1290 -0.5644 -0.4235
    2CHL1   C22  130   0.748   0.127   5.936  1.0140  0.9921  0.3875
    2CHL1  H22A  131   0.845   0.080   5.908  0.5656  0.7649 -0.8035
    2CHL1  H22B  132   0.682   0.038   5.950  2.6761 -0.3230  0.2287
    2CHL1   C23  133   0.708   0.192   5.796 -0.1083 -0.5707 -0.3901
    2CHL1  H23A  134   0.621   0.258   5.816 -0.3773 -0.6584 -1.2366
    2CHL1  H23B  135   0.794   0.257   5.769  0.3600 -0.7103  0.7233
    2CHL1   C24  136   0.674   0.093   5.687 -0.3286 -0.1302 -0.4639
    2CHL1  H24A  137   0.759   0.023   5.672  0.6013  0.8906 -0.0970
    2CHL1  H24B  138   0.600   0.027   5.735  1.7675 -0.8011  2.0898
    2CHL1   C25  139   0.651   0.149   5.544 -0.1562  0.7475  0.8202
    2CHL1   H25  140   0.753   0.179   5.511  1.4936 -1.5966  3.3487
    2CHL1   C26  141   0.616   0.034   5.450  0.6479  0.3009  0.4027
    2CHL1  H26A  142   0.673  -0.061   5.442 -0.4166 -0.5808  2.5224
    2CHL1  H26B  143   0.518  -0.003   5.486 -0.4117  1.7199 -0.8879
    2CHL1  H26C  144   0.599   0.075   5.348  1.2496 -1.0800 -0.2818
    2CHL1   C27  145   0.554   0.268   5.548  0.2469 -0.1579  0.4425
    2CHL1  H27A  146   0.460   0.250   5.604 -0.9834 -0.7297 -1.7357
    2CHL1  H27B  147   0.599   0.358   5.596 -1.4499  0.6868  0.5153
    2CHL1  H27C  148   0.518   0.290   5.446  1.3743 -3.0748 -0.6991
    3CHL1    C3  149   0.168   0.160   7.125  0.8472  0.1050  0.9021
    3CHL1    H3  150   0.057   0.169   7.115  0.7583 -1.3540  0.3007
    3CHL1    O3  151   0.210   0.156   7.257  0.1318 -0.3523  0.0587
    3CHL1   H3'  152   0.168   0.236   7.292  2.8136  2.3166 -2.2178
    3CHL1    C4  153   0.195   0.018   7.070  0.0456  0.6435 -0.4124
    3CHL1   H4A  154   0.304  -0.001   7.079  0.1738  0.4620 -2.0241
    3CHL1   H4B  155   0.146  -0.063   7.127 -0.8253  2.5205  1.6551
    3CHL1    C5  156   0.158   0.010   6.921  0.1986  0.7219  0.0445
    3CHL1    C6  157   0.076  -0.079   6.870 -0.2150 -1.4979  0.2780
    3CHL1    H6  158   0.031  -0.158   6.932  1.2974 -2.1481  0.5946
    3CHL1    C7  159   0.062  -0.098   6.720 -0.1179 -0.4908 -0.0714
    3CHL1   H7A  160   0.079  -0.206   6.702 -2.3805 -0.8636 -0.1690
    3CHL1   H7B  161  -0.044  -0.078   6.692  0.3200  0.9478 -0.8236
    3CHL1    C8  162   0.167  -0.020   6.637 -0.6485 -0.5058  0.6967
    3CHL1    H8  163   0.266  -0.070   6.637 -0.1208  0.4619 -1.2702
    3CHL1   C14  164   0.133  -0.014   6.490  0.8627  0.0707  0.2900
    3CHL1   H14  165   0.036   0.040   6.482  1.3971  0.8240 -1.6594
    3CHL1   C15  166   0.114  -0.154   6.423 -0.1294  0.2613 -1.0805
    3CHL1  H15A  167   0.198  -0.216   6.459 -1.7287 -0.7833  1.0730
    3CHL1  H15B  168   0.019  -0.204   6.451  0.2007 -1.2407 -2.5350
    3CHL1   C16  169   0.127  -0.129   6.271 -0.5585  0.1289 -0.2200
    3CHL1  H16A  170   0.217  -0.186   6.238  0.0730  1.0007 -0.0400
    3CHL1  H16B  171   0.041  -0.165   6.211  0.8474 -0.3870 -2.0036
    3CHL1   C17  172   0.157   0.027   6.259 -0.2573  0.3808  0.0579
    3CHL1   H17  173   0.059   0.078   6.266  0.2014  1.1276  1.4940
    3CHL1   C13  174   0.225   0.068   6.392 -0.1650  0.3600 -0.4853
    3CHL1   C18  175   0.367   0.016   6.401 -0.7811 -0.2526 -0.3143
    3CHL1  H18A  176   0.444   0.083   6.357 -0.8277  0.1426  0.1986
    3CHL1  H18B  177   0.401  -0.008   6.504 -0.0320 -1.8893 -0.9064
    3CHL1  H18C  178   0.379  -0.087   6.362 -0.2061 -0.8397  1.3641
    3CHL1   C12  179   0.206   0.209   6.445  0.0799 -0.6344 -0.4771
    3CHL1  H12A  180   0.259   0.282   6.380 -0.6727  0.7281  0.3771
    3CHL1  H12B  181   0.099   0.238   6.450  0.6845  2.1005 -1.3694
    3CHL1   C11  182   0.242   0.218   6.599 -0.7017 -0.4768  0.9212
    3CHL1  H11A  183   0.353   0.226   6.608 -0.8371  0.2467  2.2096
    3CHL1  H11B  184   0.202   0.316   6.633 -0.0093 -0.6435  2.2964
    3CHL1    C9  185   0.174   0.120   6.694 -0.0799  0.0955 -0.6826
    3CHL1    H9  186   0.069   0.156   6.693 -0.1191  0.0703  0.7320
    3CHL1   C10  187   0.233   0.115   6.836 -0.5385 -0.2820 -0.6318
    3CHL1   C19  188   0.388   0.079   6.843 -0.5362 -0.0527  0.0354
    3CHL1  H19A  189   0.431   0.166   6.789 -3.5668  1.5799  0.0468
    3CHL1  H19B  190   0.429   0.078   6.946 -0.3241  0.4528 -0.0426
    3CHL1  H19C  191   0.400  -0.019   6.793 -1.5412  0.0267 -0.3822
    3CHL1    C1  192   0.208   0.257   6.895 -0.2331 -0.1336 -0.5585
    3CHL1   H1A  193   0.272   0.331   6.843 -1.4347  0.1545 -1.6958
    3CHL1   H1B  194   0.105   0.291   6.869  0.1498  0.6866 -1.0413
    3CHL1    C2  195   0.237   0.271   7.048 -0.1770 -0.0468 -0.4771
    3CHL1   H2A  196   0.216   0.375   7.079 -0.2148  0.0664 -0.8803
    3CHL1   H2B  197   0.347   0.259   7.060  0.1900  3.0214  0.0299
    3CHL1   C20  198   0.215   0.056   6.120  0.0526  0.5553  0.1190
    3CHL1   H20  199   0.309  -0.004   6.112 -0.0130  0.4119  0.4045
    3CHL1   C21  200   0.258   0.202   6.114  0.9429  0.3973 -1.3408
    3CHL1  H21A  201   0.171   0.270   6.129  1.4997  1.1861 -1.6302
    3CHL1  H21B  202   0.304   0.220   6.014  1.0971  0.5630 -1.2414
    3CHL1  H21C  203   0.343   0.218   6.184  0.5997  1.6002 -1.1721
    3CHL1   C22  204   0.123   0.022   6.002  0.5145 -0.5948 -0.3404
    3CHL1  H22A  205   0.164   0.069   5.910  1.2970 -0.7700 -0.0950
    3CHL1  H22B  206   0.126  -0.088   5.986 -1.2842 -0.5939 -0.8746
    3CHL1   C23  207  -0.029   0.057   6.021  0.1163  0.8234 -0.8457
    3CHL1  H23A  208  -0.070   0.003   6.109  0.4102  2.1372  0.1322
    3CHL1  H23B  209  -0.053   0.164   6.036  0.0131  0.5194  1.4865
    3CHL1   C24  210  -0.109   0.020   5.895  0.6433  0.0386  0.2689
    3CHL1  H24A  211  -0.218   0.041   5.901  0.5766 -0.4677  1.1793
    3CHL1  H24B  212  -0.072   0.080   5.810 -3.4987  1.4961 -0.6891
    3CHL1   C25  213  -0.097  -0.122   5.847  0.6244  0.5377  0.0665
    3CHL1   H25  214   0.009  -0.145   5.823  0.1192 -0.4272 -1.3363
    3CHL1   C26  215  -0.149  -0.233   5.942  0.8270  0.5131 -0.7037
    3CHL1  H26A  216  -0.111  -0.205   6.042  1.8254  2.5757 -1.6048
    3CHL1  H26B  217  -0.260  -0.239   5.953  1.0792 -1.9127  1.4010
    3CHL1  H26C  218  -0.104  -0.330   5.913 -0.2314 -0.1570 -0.1847
    3CHL1   C27  219  -0.168  -0.134   5.708  0.2995 -0.1064  0.6561
    3CHL1  H27A  220  -0.278  -0.124   5.724 -0.3162 -1.8164 -1.9076
    3CHL1  H27B  221  -0.129  -0.060   5.635 -0.7165  0.4325  0.6392
    3CHL1  H27C  222  -0.153  -0.231   5.657 -0.9161  0.5286 -0.9843
    4CHL1    C3  223   0.234   6.621   7.017  0.4079 -0.0964  0.6455
    4CHL1    H3  224   0.156   6.699   7.027 -0.1644 -0.8057  1.9104
    4CHL1    O3  225   0.273   6.588   7.149 -0.1737  0.2889 -0.2896
    4CHL1   H3'  226   0.339   6.652   7.176 -0.5210  0.2594  0.6730
    4CHL1    C4  227   0.167   6.498   6.957 -0.5007  0.6267 -1.5584
    4CHL1   H4A  228   0.237   6.420   6.992 -0.0169  2.1296  1.0588
    4CHL1   H4B  229   0.082   6.471   7.023  1.2552 -1.5675 -0.0121
    4CHL1    C5  230   0.146   6.504   6.807 -1.1120 -0.4233 -0.5848
    4CHL1    C6  231   0.025   6.485   6.751 -0.3488  0.2005 -0.4770
    4CHL1    H6  232  -0.054   6.467   6.826  2.0927  0.8344  2.4785
    4CHL1    C7  233  -0.004   6.485   6.606  0.1235 -0.1324  0.7486
    4CHL1   H7A  234  -0.061   6.393   6.580  0.1061  0.0296  0.1987
    4CHL1   H7B  235  -0.063   6.575   6.579 -1.4801 -0.7386  2.0602
    4CHL1    C8  236   0.127   6.477   6.527  0.9947 -0.4582 -0.0713
    4CHL1    H8  237   0.168   6.375   6.543 -0.1201 -0.7351  1.2291
    4CHL1   C14  238   0.097   6.509   6.378 -0.0943  0.7358 -0.3402
    4CHL1   H14  239   0.065   6.616   6.374 -0.6965  0.7565  2.6068
    4CHL1   C15  240  -0.016   6.440   6.312 -0.3038 -0.8954 -0.3427
    4CHL1  H15A  241  -0.021   6.330   6.330  0.0774 -1.0595 -1.1822
    4CHL1  H15B  242  -0.109   6.490   6.346  0.5490 -0.6911  1.8129
    4CHL1   C16  243   0.025   6.452   6.161 -0.4537 -0.3456  0.5859
    4CHL1  H16A  244   0.035   6.351   6.115 -0.3574 -0.4414  0.8152
    4CHL1  H16B  245  -0.047   6.512   6.103 -1.1468 -1.5192  0.1931
    4CHL1   C17  246   0.160   6.530   6.156 -0.2796 -0.2516  0.2111
    4CHL1   H17  247   0.132   6.638   6.159 -1.8096 -0.5577 -1.3973
    4CHL1   C13  248   0.219   6.494   6.295 -0.4068 -0.3783 -0.1624
    4CHL1   C18  249   0.275   6.352   6.305 -0.7493  0.2128 -0.1414
    4CHL1  H18A  250   0.358   6.343   6.232  0.0411 -0.1827  0.7821
    4CHL1  H18B  251   0.323   6.332   6.403 -0.3266  0.6578 -0.2551
    4CHL1  H18C  252   0.203   6.270   6.282 -1.2851  0.7463 -0.3966
    4CHL1   C12  253   0.326   6.598   6.346 -0.3784  0.3402 -1.2109
    4CHL1  H12A  254   0.421   6.597   6.288  0.8627  0.9867  0.6860
    4CHL1  H12B  255   0.279   6.694   6.315 -1.8326  0.2455  0.5178
    4CHL1   C11  256   0.363   6.591   6.495 -1.3880 -0.1366  0.0984
    4CHL1  H11A  257   0.432   6.506   6.512 -0.3560  0.0473 -2.6663
    4CHL1  H11B  258   0.429   6.673   6.529  0.5098 -0.7922 -1.8242
    4CHL1    C9  259   0.234   6.572   6.582  0.1620 -0.4973 -0.2072
    4CHL1    H9  260   0.179   6.668   6.596  0.6776 -0.2136 -0.0886
    4CHL1   C10  261   0.276   6.542   6.721  0.2771  0.1100  0.3240
    4CHL1   C19  262   0.373   6.414   6.742  0.0360 -0.9052 -0.4947
    4CHL1  H19A  263   0.475   6.428   6.701  0.1445  0.6468  0.2462
    4CHL1  H19B  264   0.379   6.374   6.845  0.0808  0.6452  0.1402
    4CHL1  H19C  265   0.326   6.333   6.681 -0.1368 -1.5981  0.5483
    4CHL1    C1  266   0.336   6.658   6.787 -0.7493 -0.3957 -0.2460
    4CHL1   H1A  267   0.436   6.666   6.740 -0.6126  0.9985  0.2519
    4CHL1   H1B  268   0.292   6.759   6.774  0.0437  0.4022  2.5662
    4CHL1    C2  269   0.366   6.653   6.938 -0.0680  0.1552  0.3448
    4CHL1   H2A  270   0.410   6.751   6.967 -1.5415  0.8900  0.2138
    4CHL1   H2B  271   0.428   6.565   6.965  0.7261  0.4934 -0.3230
    4CHL1   C20  272   0.254   6.525   6.028  0.6675  0.2855 -0.5809
    4CHL1   H20  273   0.361   6.542   6.054 -0.1908  1.9701  2.3452
    4CHL1   C21  274   0.206   6.639   5.934  0.4708 -0.7397 -0.3538
    4CHL1  H21A  275   0.212   6.735   5.990  0.9021 -1.0831  0.1935
    4CHL1  H21B  276   0.107   6.615   5.890 -0.7864  3.6924 -0.5029
    4CHL1  H21C  277   0.281   6.651   5.852  2.4716  1.0357  1.6037
    4CHL1   C22  278   0.241   6.387   5.963 -0.5318  0.1292  0.0885
    4CHL1  H22A  279   0.244   6.314   6.047  1.7355 -0.3094 -0.3071
    4CHL1  H22B  280   0.148   6.392   5.902 -1.2299 -2.8151  0.7639
    4CHL1   C23  281   0.354   6.351   5.865 -0.2582 -0.2139 -0.6381
    4CHL1  H23A  282   0.354   6.422   5.780  1.0970  1.5382  0.7357
    4CHL1  H23B  283   0.452   6.362   5.917 -0.7952 -2.9090  1.1707
    4CHL1   C24  284   0.340   6.202   5.821  0.3528  0.4800 -0.5170
    4CHL1  H24A  285   0.366   6.133   5.904  2.6463  1.7591 -0.1142
    4CHL1  H24B  286   0.237   6.207   5.779  0.7200  0.5424 -1.4286
    4CHL1   C25  287   0.436   6.157   5.713  0.2297 -0.1021  0.2509
    4CHL1   H25  288   0.393   6.059   5.686 -1.4685  0.0260  2.2060
    4CHL1   C26  289   0.443   6.249   5.598  0.0033 -0.4206 -0.1993
    4CHL1  H26A  290   0.350   6.308   5.585 -1.6502 -2.2310  2.4940
    4CHL1  H26B  291   0.531   6.317   5.604  0.2771 -0.8165  0.4784
    4CHL1  H26C  292   0.451   6.196   5.501  0.9885 -0.7151  0.0301
    4CHL1   C27  293   0.581   6.121   5.768  0.0178 -0.2471  0.7217
    4CHL1  H27A  294   0.643   6.209   5.792  3.6740 -2.2340 -0.6996
    4CHL1  H27B  295   0.570   6.059   5.860 -2.4655  0.1369  0.7565
    4CHL1  H27C  296   0.645   6.065   5.697  3.1586  0.4748  2.7705
    5CHL1    C3  297   0.352   1.724   6.956 -0.2499 -0.0030 -0.1421
    5CHL1    H3  298   0.369   1.832   6.938  2.1547 -0.1754  0.6923
    5CHL1    O3  299   0.366   1.714   7.096  0.0861 -0.1998  0.0858
    5CHL1   H3'  300   0.441   1.770   7.114 -1.3272  1.9163 -0.3092
    5CHL1    C4  301   0.204   1.694   6.913  0.3099 -0.2923  0.2023
    5CHL1   H4A  302   0.184   1.593   6.954 -1.0315 -0.1554 -0.0604
    5CHL1   H4B  303   0.134   1.752   6.976 -0.7957 -4.1980  2.9069
    5CHL1    C5  304   0.185   1.701   6.763  0.0673  0.8231  0.3040
    5CHL1    C6  305   0.083   1.774   6.706  0.5486  0.2601 -1.1043
    5CHL1    H6  306   0.012   1.828   6.770  0.9234  2.1759 -2.2205
    5CHL1    C7  307   0.061   1.788   6.558 -0.4363  0.2180 -0.2957
    5CHL1   H7A  308  -0.043   1.789   6.518 -1.0426  1.0977  1.2340
    5CHL1   H7B  309   0.105   1.886   6.531 -2.5987  1.6962  1.1675
    5CHL1    C8  310   0.136   1.677   6.476  0.2099 -0.2323  0.1428
    5CHL1    H8  311   0.078   1.584   6.492 -2.1247  0.4706 -3.1369
    5CHL1   C14  312   0.136   1.704   6.331 -0.4000 -0.5571 -0.2449
    5CHL1   H14  313   0.201   1.794   6.329 -1.7350  0.6049  2.6197
    5CHL1   C15  314   0.004   1.748   6.263 -0.2438 -0.7444  0.6316
    5CHL1  H15A  315  -0.078   1.691   6.311 -1.0003 -0.0566  0.1707
    5CHL1  H15B  316  -0.017   1.857   6.266 -0.0115 -0.5686 -1.7811
    5CHL1   C16  317   0.022   1.707   6.118  0.6078 -0.3565 -0.5929
    5CHL1  H16A  318  -0.044   1.620   6.100  2.4546 -1.8937 -0.2452
    5CHL1  H16B  319  -0.006   1.779   6.038  1.7811 -0.6151 -1.2622
    5CHL1   C17  320   0.169   1.665   6.105 -0.3996  0.6407 -0.0032
    5CHL1   H17  321   0.230   1.757   6.099  0.7033 -0.0391  0.5117
    5CHL1   C13  322   0.201   1.601   6.241  0.0675  0.0700  0.1669
    5CHL1   C18  323   0.136   1.460   6.265 -0.0004  0.1338  0.2487
    5CHL1  H18A  324   0.155   1.435   6.372  1.7443  1.9085  0.4036
    5CHL1  H18B  325   0.028   1.451   6.239  0.0917  0.7493 -0.3770
    5CHL1  H18C  326   0.193   1.394   6.196 -1.1663 -0.4814 -0.1683
    5CHL1   C12  327   0.352   1.590   6.283 -0.4799  0.3676 -0.1629
    5CHL1  H12A  328   0.407   1.511   6.228  1.7673  2.5059 -1.1576
    5CHL1  H12B  329   0.401   1.685   6.255 -0.4513  0.3488 -0.1755
    5CHL1   C11  330   0.367   1.575   6.441 -0.3035 -0.2150 -0.6570
    5CHL1  H11A  331   0.329   1.472   6.459  0.8720 -0.4173  0.8925
    5CHL1  H11B  332   0.476   1.579   6.463 -0.5851  0.9998  0.7377
    5CHL1    C9  333   0.279   1.662   6.532  0.3925  0.3883  0.4102
    5CHL1    H9  334   0.327   1.760   6.513 -2.5560  1.3799 -3.2380
    5CHL1   C10  335   0.288   1.629   6.677 -0.2269  0.4105  0.1478
    5CHL1   C19  336   0.242   1.478   6.707  0.2000  0.1268 -0.2384
    5CHL1  H19A  337   0.132   1.463   6.700 -0.4596  3.9680 -0.3982
    5CHL1  H19B  338   0.296   1.406   6.642  0.2365 -1.1224  1.1183
    5CHL1  H19C  339   0.273   1.452   6.810  3.5579 -0.3071 -1.2438
    5CHL1    C1  340   0.437   1.653   6.730 -0.2873  0.2521  0.2621
    5CHL1   H1A  341   0.502   1.584   6.672 -1.0140  0.8133 -1.2624
    5CHL1   H1B  342   0.465   1.754   6.694 -0.7366  0.5361  0.7026
    5CHL1    C2  343   0.451   1.630   6.879 -0.9050 -0.2291  0.8962
    5CHL1   H2A  344   0.554   1.651   6.915 -1.1714  0.8936  1.0637
    5CHL1   H2B  345   0.428   1.529   6.917 -0.3374 -0.3571  0.9047
    5CHL1   C20  346   0.187   1.570   5.982  0.6127  0.0726 -0.6258
    5CHL1   H20  347   0.141   1.471   6.002 -0.7424  0.8340  0.1533
    5CHL1   C21  348   0.340   1.551   5.962  0.9676  0.5808 -0.3306
    5CHL1  H21A  349   0.382   1.481   6.037 -1.4457  0.0251  0.6133
    5CHL1  H21B  350   0.387   1.652   5.964  1.2975  0.4287  1.3217
    5CHL1  H21C  351   0.366   1.495   5.870 -2.1306 -0.8858 -0.4261
    5CHL1   C22  352   0.108   1.615   5.854 -0.1852 -0.4252  0.2961
    5CHL1  H22A  353  -0.002   1.606   5.873  0.0855 -2.0211  1.2883
    5CHL1  H22B  354   0.129   1.721   5.827 -0.7404 -0.4412 -0.2335
    5CHL1   C23  355   0.136   1.531   5.728  0.2785  0.0466 -0.0383
    5CHL1  H23A  356   0.242   1.546   5.699  0.2734  0.3781  0.1180
    5CHL1  H23B  357   0.127   1.425   5.761 -0.0098 -0.1603 -0.7624
    5CHL1   C24  358   0.026   1.547   5.611  0.2594 -0.4312 -0.1918
    5CHL1  H24A  359  -0.062   1.505   5.665  1.8293  0.2739  3.2211
    5CHL1  H24B  360   0.009   1.653   5.585 -0.9189 -0.9546 -1.6798
    5CHL1   C25  361   0.068   1.475   5.477  0.5262 -0.3415 -0.0707
    5CHL1   H25  362   0.063   1.365   5.491 -1.8563 -0.5591 -1.8571
    5CHL1   C26  363  -0.045   1.509   5.370 -0.6326 -0.7793 -0.0019
    5CHL1  H26A  364  -0.023   1.452   5.277  0.2789 -0.1247 -0.1923
    5CHL1  H26B  365  -0.147   1.474   5.397 -1.2326 -1.8747 -3.1951
    5CHL1  H26C  366  -0.044   1.617   5.347 -0.5992 -1.0403 -1.3467
    5CHL1   C27  367   0.210   1.499   5.428  0.1221 -0.1722  0.2966
    5CHL1  H27A  368   0.238   1.606   5.420 -0.3468 -0.0870 -0.2939
    5CHL1  H27B  369   0.280   1.437   5.487  0.3258  0.6285  0.9074
    5CHL1  H27C  370   0.206   1.461   5.323  0.6342  0.2398  0.1252
    6CHL1    C3  371   6.291   4.436   6.922  0.1222 -0.0858  0.3899
    6CHL1    H3  372   6.273   4.327   6.911  0.4461 -0.2711  1.6623
    6CHL1    O3  373   6.244   4.483   7.050 -0.0160 -0.1337 -0.2845
    6CHL1   H3'  374   6.306   4.552   7.077  0.7353 -1.0468  0.3940
    6CHL1    C4  375   6.444   4.471   6.927 -0.2622 -0.0329  0.0671
    6CHL1   H4A  376   6.463   4.578   6.953  1.9152 -0.5736  0.9854
    6CHL1   H4B  377   6.504   4.429   7.012 -1.2429 -0.5291  0.5265
    6CHL1    C5  378   6.503   4.441   6.790 -0.0611  0.0986 -0.0068
    6CHL1    C6  379   6.590   4.345   6.775  0.0570  0.5555  0.3291
    6CHL1    H6  380   6.611   4.282   6.863  2.5681 -1.4880 -1.5507
    6CHL1    C7  381   6.672   4.323   6.650  0.1584 -0.0938 -0.1420
    6CHL1   H7A  382   6.780   4.312   6.675  0.3446  0.4648 -0.6705
    6CHL1   H7B  383   6.651   4.226   6.600 -1.2271 -1.3214  2.6320
    6CHL1    C8  384   6.651   4.439   6.544 -0.7204 -0.3821  0.5604
    6CHL1    H8  385   6.718   4.524   6.569  0.6204 -0.5207 -2.2045
    6CHL1   C14  386   6.697   4.381   6.412  0.1326  0.3165 -0.2841
    6CHL1   H14  387   6.623   4.299   6.398 -0.6196  0.8151  0.6856
    6CHL1   C15  388   6.820   4.304   6.399 -0.4730  0.3316  0.2044
    6CHL1  H15A  389   6.909   4.354   6.443  0.1170 -0.5519  0.0573
    6CHL1  H15B  390   6.815   4.205   6.451  3.0864  0.9692  2.0897
    6CHL1   C16  391   6.842   4.296   6.245 -0.4648  0.3540  0.2039
    6CHL1  H16A  392   6.946   4.330   6.234 -0.7058  1.0836  0.1539
    6CHL1  H16B  393   6.836   4.189   6.215  1.5098  0.1251  0.4940
    6CHL1   C17  394   6.727   4.382   6.179  0.1610 -0.2554  0.4108
    6CHL1   H17  395   6.641   4.312   6.175 -0.7789  0.5608  3.6103
    6CHL1   C13  396   6.680   4.470   6.293 -0.3130  0.1689 -0.0456
    6CHL1   C18  397   6.781   4.588   6.305 -0.0251 -0.2111  0.2956
    6CHL1  H18A  398   6.888   4.558   6.305  0.2164  0.6301  0.2308
    6CHL1  H18B  399   6.747   4.661   6.228 -0.8939 -0.0556  0.8039
    6CHL1  H18C  400   6.776   4.644   6.401  3.6020 -0.4655  0.7743
    6CHL1   C12  401   6.538   4.518   6.284  0.5337 -0.1235  0.1644
    6CHL1  H12A  402   6.518   4.596   6.207 -2.2165 -0.6371  0.2538
    6CHL1  H12B  403   6.471   4.434   6.257  1.4620 -1.7529  2.5494
    6CHL1   C11  404   6.484   4.575   6.415  0.6777 -0.3875 -1.0750
    6CHL1  H11A  405   6.531   4.672   6.443  0.4393 -1.0772  2.0886
    6CHL1  H11B  406   6.375   4.593   6.405  0.4263 -2.4441 -2.9294
    6CHL1    C9  407   6.510   4.475   6.533  0.3356  0.8417 -0.5940
    6CHL1    H9  408   6.450   4.384   6.511  1.0276  0.3117 -0.3188
    6CHL1   C10  409   6.457   4.526   6.672  0.2511  0.1330  0.8083
    6CHL1   C19  410   6.480   4.677   6.698 -0.3086  0.0267 -1.0194
    6CHL1  H19A  411   6.589   4.696   6.692  0.1818 -1.0441  2.2164
    6CHL1  H19B  412   6.424   4.742   6.628  1.4451  2.1128 -0.6011
    6CHL1  H19C  413   6.444   4.702   6.800  0.2040 -1.1950 -0.5120
    6CHL1    C1  414   6.302   4.498   6.672 -0.3627  0.0988  0.1451
    6CHL1   H1A  415   6.263   4.560   6.589 -1.7493 -2.8812 -1.6016
    6CHL1   H1B  416   6.283   4.390   6.653  1.0265 -0.6375  2.5114
    6CHL1    C2  417   6.225   4.519   6.811  0.0043  0.6743 -0.2819
    6CHL1   H2A  418   6.125   4.471   6.802  1.5896 -2.8375 -1.1204
    6CHL1   H2B  419   6.214   4.627   6.836 -0.7998  0.5803 -0.2137
    6CHL1   C20  420   6.775   4.439   6.045 -0.0249  0.0931 -0.8339
    6CHL1   H20  421   6.854   4.516   6.058 -0.3070  0.2643 -0.0899
    6CHL1   C21  422   6.656   4.506   5.985  0.0396 -0.1647  0.5126
    6CHL1  H21A  423   6.564   4.448   6.005 -0.7164  1.2922  1.4029
    6CHL1  H21B  424   6.683   4.523   5.878  1.4972 -1.9031  0.5517
    6CHL1  H21C  425   6.650   4.606   6.033 -0.2320 -0.6849  1.5902
    6CHL1   C22  426   6.838   4.332   5.946 -0.1242  1.0537  0.2499
    6CHL1  H22A  427   6.882   4.245   6.000  0.2640  0.7288 -0.5727
    6CHL1  H22B  428   6.743   4.279   5.921  0.5915 -2.3263  3.7654
    6CHL1   C23  429   6.932   4.367   5.832 -0.5623 -0.0523  0.8291
    6CHL1  H23A  430   6.891   4.445   5.765  1.0033 -0.2317 -0.4085
    6CHL1  H23B  431   7.024   4.401   5.884  0.0367 -0.7881  0.2803
    6CHL1   C24  432   6.967   4.247   5.741 -0.8451 -0.3183 -0.0437
    6CHL1  H24A  433   7.009   4.171   5.810  1.2479  0.2782 -0.5745
    6CHL1  H24B  434   6.885   4.210   5.676 -0.1378  0.8575 -1.6750
    6CHL1   C25  435   7.077   4.277   5.629  0.3609 -0.3778 -0.5930
    6CHL1   H25  436   7.043   4.365   5.571 -2.2080 -1.0110 -0.1712
    6CHL1   C26  437   7.221   4.295   5.691  0.4094  0.3336 -0.6779
    6CHL1  H26A  438   7.254   4.205   5.747  0.7872  0.7656 -0.1984
    6CHL1  H26B  439   7.290   4.310   5.605  2.5474  0.3411  0.9609
    6CHL1  H26C  440   7.220   4.387   5.752 -1.0853 -0.9393  1.3141
    6CHL1   C27  441   7.084   4.161   5.528  0.3784 -0.3540 -0.7260
    6CHL1  H27A  442   6.996   4.154   5.461  0.5908  0.0986 -1.0588
    6CHL1  H27B  443   7.178   4.176   5.469  0.2710  1.4939 -0.4779
    6CHL1  H27C  444   7.099   4.066   5.583 -0.2576 -0.0541 -0.0237
    7CHL1    C3  445   0.924   3.263   6.894  0.2832 -0.1708  0.1379
    7CHL1    H3  446   0.931   3.153   6.908  0.1862 -0.3520 -1.0658
    7CHL1    O3  447   0.884   3.314   7.019  0.0729  0.3649 -0.1104
    7CHL1   H3'  448   0.835   3.396   7.010  1.0926  1.2994  1.9026
    7CHL1    C4  449   1.051   3.329   6.849 -0.0401  0.1150  0.1102
    7CHL1   H4A  450   1.042   3.439   6.838  2.7043  0.6803  2.5049
    7CHL1   H4B  451   1.122   3.314   6.933  2.1201 -0.3807 -1.6965
    7CHL1    C5  452   1.097   3.261   6.716 -0.3306 -0.6775 -0.9973
    7CHL1    C6  453   1.211   3.197   6.709 -0.0919  0.0855  0.2315
    7CHL1    H6  454   1.276   3.199   6.798 -0.1404  1.2421  0.2649
    7CHL1    C7  455   1.273   3.133   6.582  0.0413 -0.2423 -0.0606
    7CHL1   H7A  456   1.378   3.168   6.572 -0.0342 -0.0223 -0.0891
    7CHL1   H7B  457   1.265   3.022   6.589 -0.3870 -0.1789  0.4862
    7CHL1    C8  458   1.193   3.172   6.453 -0.0686  0.1939 -0.1332
    7CHL1    H8  459   1.229   3.267   6.410 -2.5580  0.1794 -2.5286
    7CHL1   C14  460   1.219   3.073   6.336 -0.5183 -0.0460  0.1061
    7CHL1   H14  461   1.191   2.972   6.373  0.0599 -1.2802 -2.6187
    7CHL1   C15  462   1.367   3.065   6.306 -0.3317  0.3097  0.8249
    7CHL1  H15A  463   1.406   3.169   6.306 -1.6194  0.8788 -1.7411
    7CHL1  H15B  464   1.425   3.005   6.380  0.0948  0.3094  0.4982
    7CHL1   C16  465   1.361   2.995   6.163 -0.0151  0.3645 -0.7812
    7CHL1  H16A  466   1.432   3.053   6.100 -0.6561  0.5469 -1.3439
    7CHL1  H16B  467   1.406   2.894   6.172 -2.2449 -1.0204 -3.5591
    7CHL1   C17  468   1.211   2.989   6.120  0.1093 -0.2959 -0.0170
    7CHL1   H17  469   1.167   2.891   6.152 -0.4136 -0.6619 -1.7746
    7CHL1   C13  470   1.143   3.099   6.207  0.2689 -0.4162 -0.3759
    7CHL1   C18  471   1.183   3.232   6.141 -0.0907  0.4941  0.1983
    7CHL1  H18A  472   1.281   3.232   6.088 -0.5938  1.7339 -0.7652
    7CHL1  H18B  473   1.105   3.250   6.065 -1.7205 -1.2318  1.3829
    7CHL1  H18C  474   1.180   3.314   6.217  3.1900  1.3306 -0.3890
    7CHL1   C12  475   0.996   3.087   6.245  0.2592 -0.0566  0.7505
    7CHL1  H12A  476   0.929   3.101   6.158 -0.5503  2.2381  1.6529
    7CHL1  H12B  477   0.982   2.986   6.289 -0.0121  1.1284  3.6121
    7CHL1   C11  478   0.956   3.200   6.353 -0.5288  1.2340  0.3272
    7CHL1  H11A  479   0.949   3.302   6.309 -0.0609  1.8931  1.7490
    7CHL1  H11B  480   0.849   3.185   6.380  0.1543 -1.2804  1.9438
    7CHL1    C9  481   1.045   3.187   6.475 -0.0913  1.1467 -0.1608
    7CHL1    H9  482   1.017   3.085   6.509 -1.9260  2.0270  1.1696
    7CHL1   C10  483   0.999   3.269   6.598  0.2401 -1.0594 -0.3476
    7CHL1   C19  484   0.992   3.412   6.545  0.1425  0.1526  0.3618
    7CHL1  H19A  485   0.969   3.488   6.623  2.0754  1.2660 -0.0904
    7CHL1  H19B  486   1.090   3.437   6.500  1.2532 -1.8376  1.5256
    7CHL1  H19C  487   0.910   3.418   6.470  2.3219  0.8309 -2.0798
    7CHL1    C1  488   0.863   3.215   6.654 -0.4189  0.0200 -0.1550
    7CHL1   H1A  489   0.788   3.217   6.573  0.4858 -0.1797 -1.0258
    7CHL1   H1B  490   0.876   3.105   6.667 -0.5154  0.1463  1.1359
    7CHL1    C2  491   0.815   3.282   6.785  0.4872 -0.5076 -0.0513
    7CHL1   H2A  492   0.730   3.224   6.826  2.3323 -2.5864  1.0087
    7CHL1   H2B  493   0.783   3.389   6.779  0.8353 -0.3647  0.5845
    7CHL1   C20  494   1.202   2.987   5.967  0.4238  0.1470  0.0495
    7CHL1   H20  495   1.254   3.071   5.916 -1.8600  1.4556 -0.2452
    7CHL1   C21  496   1.051   2.985   5.921  0.4140  0.0532 -0.1408
    7CHL1  H21A  497   1.046   2.959   5.813 -2.4207 -0.3045  0.0072
    7CHL1  H21B  498   1.002   3.081   5.946  0.9743  0.0678  0.9722
    7CHL1  H21C  499   0.991   2.906   5.969  1.0444 -0.6673 -0.5151
    7CHL1   C22  500   1.266   2.862   5.901 -0.6693 -0.1508 -0.2971
    7CHL1  H22A  501   1.368   2.857   5.945 -0.6445  0.0607 -0.3280
    7CHL1  H22B  502   1.210   2.777   5.945  0.0237 -0.3005  0.3226
    7CHL1   C23  503   1.272   2.845   5.748  0.0931 -0.3299  0.8188
    7CHL1  H23A  504   1.353   2.773   5.724 -0.7432 -0.9080 -0.3554
    7CHL1  H23B  505   1.176   2.813   5.702  0.6009 -0.6472 -0.0306
    7CHL1   C24  506   1.308   2.978   5.672 -0.5776 -0.0694  0.9001
    7CHL1  H24A  507   1.259   3.074   5.699  0.5320  1.2792 -1.6247
    7CHL1  H24B  508   1.417   2.998   5.675  0.5340 -4.5246 -1.6237
    7CHL1   C25  509   1.299   2.958   5.514  0.1710  0.1964  0.3476
    7CHL1   H25  510   1.206   2.902   5.492  0.6725 -0.8292  0.7951
    7CHL1   C26  511   1.290   3.103   5.459 -0.8547  0.4324  0.0682
    7CHL1  H26A  512   1.371   3.171   5.495 -0.5902 -0.1568  0.5952
    7CHL1  H26B  513   1.309   3.097   5.350  0.5108  0.4782  0.2776
    7CHL1  H26C  514   1.200   3.165   5.480 -0.6693  0.7825 -0.1543
    7CHL1   C27  515   1.412   2.868   5.453 -0.0248 -0.1882  0.2312
    7CHL1  H27A  516   1.388   2.763   5.481  0.9040 -0.2947  0.6590
    7CHL1  H27B  517   1.427   2.878   5.344 -1.4256  0.0736  0.0411
    7CHL1  H27C  518   1.510   2.894   5.499 -0.9082  0.8103  1.6427
    8CHL1    C3  519   5.912   5.649   7.041 -0.1160 -0.6646 -0.4132
    8CHL1    H3  520   5.901   5.746   6.988 -0.2152  0.8616  2.2279
    8CHL1    O3  521   5.920   5.690   7.177  0.3040  0.4342  0.0747
    8CHL1   H3'  522   5.922   5.605   7.222 -2.2468  0.5461  0.5496
    8CHL1    C4  523   5.784   5.565   7.023  0.2452  0.4886 -0.6279
    8CHL1   H4A  524   5.791   5.482   7.097  1.1404  2.3436  1.5196
    8CHL1   H4B  525   5.695   5.621   7.058  0.4324  1.8441 -2.2328
    8CHL1    C5  526   5.763   5.507   6.881  0.3039 -0.8031  0.4395
    8CHL1    C6  527   5.651   5.530   6.813 -0.4515 -0.1399  0.4289
    8CHL1    H6  528   5.566   5.579   6.863 -0.7292  0.7996 -0.9030
    8CHL1    C7  529   5.639   5.493   6.670 -0.1963 -0.0878  0.4791
    8CHL1   H7A  530   5.540   5.442   6.660 -0.7605  0.9835  0.4682
    8CHL1   H7B  531   5.633   5.584   6.607 -1.1380  0.5612  1.4711
    8CHL1    C8  532   5.747   5.401   6.623  0.5661 -0.2955 -0.3023
    8CHL1    H8  533   5.720   5.299   6.658 -1.9723  0.4842  0.2318
    8CHL1   C14  534   5.738   5.391   6.475  1.0219 -0.1876 -0.0151
    8CHL1   H14  535   5.759   5.492   6.436  0.5792  0.7964  2.1458
    8CHL1   C15  536   5.599   5.363   6.408 -0.5606  0.3701  0.2503
    8CHL1  H15A  537   5.548   5.275   6.452 -1.3301  1.6332  1.9575
    8CHL1  H15B  538   5.532   5.450   6.423 -2.8097 -1.4925  1.4862
    8CHL1   C16  539   5.638   5.335   6.255 -0.4361  0.4937  0.5916
    8CHL1  H16A  540   5.586   5.240   6.230 -1.4184  0.9409  0.8857
    8CHL1  H16B  541   5.601   5.419   6.192 -1.6108 -0.1882  0.3521
    8CHL1   C17  542   5.794   5.324   6.251  0.5469 -0.1065  0.1216
    8CHL1   H17  543   5.831   5.427   6.232 -1.5317  0.7367  0.3646
    8CHL1   C13  544   5.839   5.303   6.397  0.4525 -0.6121  0.3240
    8CHL1   C18  545   5.822   5.155   6.434 -0.1039 -0.2871 -0.5150
    8CHL1  H18A  546   5.797   5.142   6.542 -3.2972  0.0924 -1.1311
    8CHL1  H18B  547   5.749   5.100   6.372  0.5610 -1.5798 -0.1966
    8CHL1  H18C  548   5.918   5.102   6.414  1.3215  1.1273  2.0231
    8CHL1   C12  549   5.974   5.360   6.444  0.2579  0.2820 -0.2194
    8CHL1  H12A  550   6.052   5.294   6.399  0.6611 -0.2783  1.2280
    8CHL1  H12B  551   5.985   5.462   6.402  2.7262 -0.2076 -0.9071
    8CHL1   C11  552   5.995   5.355   6.598 -1.3521 -0.5895 -0.3612
    8CHL1  H11A  553   6.015   5.253   6.636  2.2923 -0.1249 -0.5984
    8CHL1  H11B  554   6.085   5.415   6.624 -1.7279 -0.3596  0.4318
    8CHL1    C9  555   5.887   5.441   6.672  0.9430 -0.0225  0.2510
    8CHL1    H9  556   5.906   5.546   6.641 -1.0026  0.0727 -0.7663
    8CHL1   C10  557   5.891   5.444   6.818  1.2472  0.0319 -0.2983
    8CHL1   C19  558   5.896   5.309   6.890  0.3216 -0.5162 -0.1470
    8CHL1  H19A  559   6.000   5.270   6.878  0.5646  0.3449 -0.9584
    8CHL1  H19B  560   5.887   5.313   7.001 -3.6634 -0.9666 -0.3302
    8CHL1  H19C  561   5.818   5.239   6.851  0.3908  0.2416 -1.7275
    8CHL1    C1  562   6.025   5.515   6.856  0.2383  0.0637  0.1679
    8CHL1   H1A  563   6.122   5.467   6.829  1.0627  1.1246  1.1115
    8CHL1   H1B  564   6.019   5.610   6.798 -3.1853  0.2991  0.7086
    8CHL1    C2  565   6.036   5.563   7.003  0.0740 -0.3790 -0.2162
    8CHL1   H2A  566   6.116   5.639   7.014 -0.7671  0.3693  1.0027
    8CHL1   H2B  567   6.031   5.483   7.080 -0.3687 -0.8212 -0.6919
    8CHL1   C20  568   5.848   5.233   6.142  0.2264 -0.0422 -0.2249
    8CHL1   H20  569   5.854   5.129   6.181 -3.0225 -0.5166 -0.6774
    8CHL1   C21  570   5.991   5.272   6.098  0.3826 -0.5351 -0.5124
    8CHL1  H21A  571   6.066   5.280   6.180  0.9287  1.8554 -1.1877
    8CHL1  H21B  572   5.979   5.370   6.048 -2.0475 -1.1072 -1.1605
    8CHL1  H21C  573   6.021   5.194   6.025 -0.1235  0.2059 -1.5256
    8CHL1   C22  574   5.760   5.219   6.014 -0.1474 -0.0930  0.8019
    8CHL1  H22A  575   5.664   5.166   6.030 -0.5723  0.3602 -0.1569
    8CHL1  H22B  576   5.733   5.320   5.974 -0.6802 -0.3812  0.4179
    8CHL1   C23  577   5.814   5.127   5.899  0.4094  0.1062  0.0135
    8CHL1  H23A  578   5.736   5.139   5.821  0.7077  1.1787 -0.1291
    8CHL1  H23B  579   5.911   5.171   5.867 -0.7193  1.8003 -1.2559
    8CHL1   C24  580   5.819   4.978   5.943  0.0720 -0.4236 -1.0867
    8CHL1  H24A  581   5.887   4.971   6.030 -1.1756 -1.2690 -0.1466
    8CHL1  H24B  582   5.722   4.961   5.994  1.0381  1.3317  1.5279
    8CHL1   C25  583   5.868   4.881   5.836 -0.0660  0.7154 -0.7666
    8CHL1   H25  584   5.977   4.888   5.814  0.2697  0.1872  0.6175
    8CHL1   C26  585   5.854   4.734   5.889  0.3994 -0.6584  0.9120
    8CHL1  H26A  586   5.920   4.721   5.978  1.8995  2.0809  0.3274
    8CHL1  H26B  587   5.749   4.713   5.921  0.3623 -2.3396 -0.2343
    8CHL1  H26C  588   5.872   4.648   5.823  0.5928  1.4013 -1.8948
    8CHL1   C27  589   5.780   4.900   5.709 -0.6981  0.3779  0.1162
    8CHL1  H27A  590   5.675   4.872   5.732 -0.1803 -1.0381  0.8666
    8CHL1  H27B  591   5.791   5.001   5.664  3.1902 -0.0935 -0.2983
    8CHL1  H27C  592   5.814   4.828   5.632 -0.7760 -1.3008  1.5791
    9CHL1    C3  593   1.295   3.596   6.661  0.2144  0.1610  0.3857
    9CHL1    H3  594   1.262   3.493   6.635 -0.1069  0.0353  1.2665
    9CHL1    O3  595   1.239   3.622   6.787  0.1734  0.1187 -0.0269
    9CHL1   H3'  596   1.305   3.624   6.857  1.0861  1.7684 -0.8777
    9CHL1    C4  597   1.451   3.603   6.652  0.3019  0.2283 -0.3134
    9CHL1   H4A  598   1.485   3.707   6.670  2.6568 -0.1833 -1.9609
    9CHL1   H4B  599   1.510   3.545   6.726  0.4999  1.8437  0.8500
    9CHL1    C5  600   1.492   3.563   6.510  0.3008 -0.3307  0.2808
    9CHL1    C6  601   1.577   3.461   6.493 -0.2567 -0.7286 -0.0606
    9CHL1    H6  602   1.609   3.403   6.581 -1.3819 -1.2207  0.0476
    9CHL1    C7  603   1.630   3.415   6.367  0.1801  0.0241  0.4435
    9CHL1   H7A  604   1.741   3.415   6.366  0.3473  2.1605 -3.7093
    9CHL1   H7B  605   1.602   3.313   6.335  1.1423 -0.0645 -0.1524
    9CHL1    C8  606   1.595   3.506   6.242 -0.3405 -0.3178 -0.4314
    9CHL1    H8  607   1.658   3.598   6.242 -1.8831  0.8027  1.0412
    9CHL1   C14  608   1.602   3.435   6.103 -0.1411  0.5336 -0.7377
    9CHL1   H14  609   1.522   3.358   6.112 -1.2394  1.5703 -1.2994
    9CHL1   C15  610   1.730   3.345   6.070 -0.1097 -0.1801  0.2294
    9CHL1  H15A  611   1.806   3.421   6.100 -0.4085  1.1784 -2.2152
    9CHL1  H15B  612   1.732   3.248   6.124  3.1991 -0.5377 -0.3081
    9CHL1   C16  613   1.717   3.325   5.917 -0.2074 -0.3813 -0.3111
    9CHL1  H16A  614   1.811   3.360   5.868  0.6375 -1.9296  0.1329
    9CHL1  H16B  615   1.709   3.216   5.898  2.3421 -0.7622  0.3994
    9CHL1   C17  616   1.601   3.421   5.871 -0.4295 -0.2421  0.0280
    9CHL1   H17  617   1.506   3.366   5.884 -1.9488  2.1672 -0.1052
    9CHL1   C13  618   1.581   3.529   5.981  0.3398 -0.7276 -1.1157
    9CHL1   C18  619   1.686   3.639   5.983 -0.2772  0.4867  0.6147
    9CHL1  H18A  620   1.785   3.593   6.004 -1.5611 -1.9404  1.8135
    9CHL1  H18B  621   1.694   3.691   5.885  0.5482  0.5089  0.6890
    9CHL1  H18C  622   1.654   3.721   6.050 -0.3913  0.9496 -0.0028
    9CHL1   C12  623   1.437   3.590   5.997 -0.2315  0.1689  0.7059
    9CHL1  H12A  624   1.425   3.658   5.911  1.1932 -3.0358 -2.2877
    9CHL1  H12B  625   1.363   3.508   5.980  0.5621 -0.7845  1.6579
    9CHL1   C11  626   1.412   3.652   6.132  0.5750 -0.1147  0.0081
    9CHL1  H11A  627   1.473   3.744   6.117 -0.3814  0.4919 -0.3001
    9CHL1  H11B  628   1.307   3.689   6.134  1.1549  1.6864 -0.4929
    9CHL1    C9  629   1.453   3.569   6.256 -0.3706  0.3424  0.4357
    9CHL1    H9  630   1.396   3.474   6.250 -0.1540 -0.0121  2.9012
    9CHL1   C10  631   1.425   3.641   6.389 -0.2070  0.4245 -0.1925
    9CHL1   C19  632   1.493   3.778   6.393 -0.6587  0.8676 -0.0740
    9CHL1  H19A  633   1.604   3.776   6.395 -0.6656 -1.2687  0.0788
    9CHL1  H19B  634   1.447   3.857   6.329  0.5505  0.7629 -1.1057
    9CHL1  H19C  635   1.474   3.812   6.497 -2.5591  1.2537 -0.5096
    9CHL1    C1  636   1.276   3.658   6.411  0.0787  0.9724  0.6957
    9CHL1   H1A  637   1.246   3.728   6.331  1.2287 -0.2016 -0.8224
    9CHL1   H1B  638   1.222   3.564   6.389  1.7559  0.2485 -0.5478
    9CHL1    C2  639   1.237   3.698   6.556 -0.1857  0.0451 -0.5320
    9CHL1   H2A  640   1.127   3.693   6.569  0.0417 -0.1193  1.6756
    9CHL1   H2B  641   1.276   3.798   6.584  1.7661 -0.9035  0.3108
    9CHL1   C20  642   1.596   3.462   5.724 -0.3209  0.0979  0.1352
    9CHL1   H20  643   1.547   3.562   5.728  2.2499  1.4592  0.2209
    9CHL1   C21  644   1.508   3.361   5.651  0.2338  1.1047  0.5729
    9CHL1  H21A  645   1.529   3.260   5.691  0.3827  1.0505  0.3558
    9CHL1  H21B  646   1.537   3.360   5.544 -1.0254  0.6714  0.2164
    9CHL1  H21C  647   1.403   3.393   5.669 -0.7220 -1.2054 -0.5626
    9CHL1   C22  648   1.740   3.481   5.659 -0.1065 -0.1331  0.1956
    9CHL1  H22A  649   1.799   3.538   5.734 -1.3692  0.2799  0.9002
    9CHL1  H22B  650   1.789   3.381   5.662 -1.3493 -0.8023 -0.7979
    9CHL1   C23  651   1.744   3.545   5.518  0.3238  0.6671 -0.1276
    9CHL1  H23A  652   1.692   3.475   5.449 -1.2383  1.4082  0.2490
    9CHL1  H23B  653   1.710   3.651   5.511  1.2662  0.8719 -2.4557
    9CHL1   C24  654   1.885   3.538   5.472 -0.1168 -0.4991  0.2917
    9CHL1  H24A  655   1.929   3.618   5.535  0.4131  0.1417 -0.8603
    9CHL1  H24B  656   1.929   3.439   5.498 -2.4853 -1.0779  2.5437
    9CHL1   C25  657   1.904   3.577   5.327 -0.0010  0.1485 -0.6027
    9CHL1   H25  658   1.845   3.512   5.259  0.3329  0.6716 -1.3994
    9CHL1   C26  659   1.862   3.720   5.303  0.2906  0.1878  0.3181
    9CHL1  H26A  660   1.752   3.727   5.318 -0.3035 -3.3533 -1.4541
    9CHL1  H26B  661   1.910   3.789   5.376 -0.9027 -0.7402  2.0336
    9CHL1  H26C  662   1.886   3.749   5.198  3.7186 -1.3133  0.5711
    9CHL1   C27  663   2.053   3.569   5.299  0.8047  0.1195 -0.0832
    9CHL1  H27A  664   2.105   3.626   5.379 -2.0660 -0.8676  2.6662
    9CHL1  H27B  665   2.075   3.460   5.297  1.5561  0.2652 -2.1133
    9CHL1  H27C  666   2.071   3.610   5.197 -1.2534  0.3889 -0.3820
   10CHL1    C3  667   0.688   0.582   7.043 -0.1299  0.6602 -0.5180
   10CHL1    H3  668   0.768   0.518   7.000  0.8122  0.1425  1.8628
   10CHL1    O3  669   0.704   0.592   7.183  0.4141 -0.0165  0.3105
   10CHL1   H3'  670   0.787   0.636   7.201 -0.1453  1.0038  0.4283
   10CHL1    C4  671   0.705   0.715   6.983  0.2365 -0.6247 -0.1188
   10CHL1   H4A  672   0.637   0.785   7.036 -2.5431 -1.7102 -1.9948
   10CHL1   H4B  673   0.809   0.748   7.004 -0.3463  0.8599  0.5412
   10CHL1    C5  674   0.682   0.728   6.839 -0.4202  0.0460  0.7415
   10CHL1    C6  675   0.761   0.790   6.751 -0.2291 -0.2649  0.2694
   10CHL1    H6  676   0.853   0.833   6.795  0.8059 -1.7947 -0.3195
   10CHL1    C7  677   0.740   0.805   6.606 -0.5211  0.4036  0.1299
   10CHL1   H7A  678   0.766   0.906   6.568  1.2297 -0.4143 -1.0112
   10CHL1   H7B  679   0.804   0.723   6.567 -0.8154 -1.1630  2.7669
   10CHL1    C8  680   0.600   0.769   6.553  0.8380  0.2582 -0.1906
   10CHL1    H8  681   0.534   0.853   6.584  0.4150 -0.3495  0.5936
   10CHL1   C14  682   0.593   0.751   6.400  0.3216 -0.0876  0.0425
   10CHL1   H14  683   0.675   0.678   6.380 -0.6237 -0.6030 -2.2863
   10CHL1   C15  684   0.632   0.864   6.301  0.0518 -0.1349  0.4393
   10CHL1  H15A  685   0.563   0.949   6.318 -0.6755 -0.5026 -0.5544
   10CHL1  H15B  686   0.737   0.891   6.322  0.3792  1.4451 -2.6520
   10CHL1   C16  687   0.595   0.802   6.170 -1.0466 -0.0815  0.0370
   10CHL1  H16A  688   0.530   0.870   6.111  0.5793 -0.3761 -2.2262
   10CHL1  H16B  689   0.676   0.775   6.098  0.5654  3.5137  0.3040
   10CHL1   C17  690   0.514   0.671   6.200  0.4076  0.4366 -0.6727
   10CHL1   H17  691   0.591   0.592   6.204  2.3925  2.2782 -0.5947
   10CHL1   C13  692   0.466   0.687   6.344  0.3902 -0.4177 -0.1249
   10CHL1   C18  693   0.353   0.794   6.357 -0.2959 -0.0606 -0.4670
   10CHL1  H18A  694   0.252   0.755   6.332 -1.5446  1.0641  2.3705
   10CHL1  H18B  695   0.339   0.839   6.458  0.4974 -1.1438  0.1449
   10CHL1  H18C  696   0.369   0.875   6.282 -1.7137  0.7744  0.0821
   10CHL1   C12  697   0.435   0.564   6.428  0.5279 -0.1624  0.4046
   10CHL1  H12A  698   0.334   0.523   6.405  0.0118  1.3039 -0.0755
   10CHL1  H12B  699   0.515   0.490   6.408  0.6601 -0.1854  0.9881
   10CHL1   C11  700   0.424   0.589   6.578  0.6255 -0.1554 -0.3128
   10CHL1  H11A  701   0.341   0.662   6.588  1.5650  0.9744 -0.5607
   10CHL1  H11B  702   0.395   0.493   6.625 -1.6655 -0.0347 -1.3271
   10CHL1    C9  703   0.556   0.644   6.628  0.1306  0.3374 -0.0486
   10CHL1    H9  704   0.630   0.564   6.608 -2.0779 -1.9369  0.2910
   10CHL1   C10  705   0.554   0.658   6.793 -0.7721  0.9121  0.3886
   10CHL1   C19  706   0.436   0.748   6.841 -0.1693 -0.1157 -0.3836
   10CHL1  H19A  707   0.439   0.845   6.788  2.5796  1.5311  2.4200
   10CHL1  H19B  708   0.336   0.707   6.816  0.6162 -2.3771 -0.0815
   10CHL1  H19C  709   0.441   0.752   6.952  1.4425 -1.7006 -0.3382
   10CHL1    C1  710   0.537   0.515   6.851  0.1041  0.3599 -0.0315
   10CHL1   H1A  711   0.437   0.466   6.842  0.0034  0.4539  0.5401
   10CHL1   H1B  712   0.614   0.449   6.806  0.4264  1.4251 -1.0778
   10CHL1    C2  713   0.561   0.511   7.002 -1.0962  0.1710 -0.3065
   10CHL1   H2A  714   0.567   0.406   7.038 -2.8293  0.1132 -0.1161
   10CHL1   H2B  715   0.479   0.568   7.051 -0.8963 -0.4550  0.7862
   10CHL1   C20  716   0.414   0.641   6.089  0.2738 -0.5142 -0.3512
   10CHL1   H20  717   0.342   0.725   6.077 -1.0453 -1.6280 -0.4580
   10CHL1   C21  718   0.326   0.524   6.126  0.0972 -0.5048 -0.1543
   10CHL1  H21A  719   0.383   0.432   6.150 -0.7923 -0.9151  0.4460
   10CHL1  H21B  720   0.251   0.495   6.049 -1.7854 -0.5265  1.6158
   10CHL1  H21C  721   0.251   0.542   6.206  0.0486 -0.2332 -0.2598
   10CHL1   C22  722   0.475   0.636   5.953  0.2077  0.1041  0.2381
   10CHL1  H22A  723   0.500   0.742   5.931  0.8601  0.4862  2.5576
   10CHL1  H22B  724   0.571   0.580   5.950  1.1284  1.6587 -1.8585
   10CHL1   C23  725   0.375   0.594   5.837  0.4501 -0.3827 -0.0142
   10CHL1  H23A  726   0.345   0.488   5.844 -0.5681 -0.0478  0.9343
   10CHL1  H23B  727   0.290   0.665   5.835  0.9119  0.1674 -0.6613
   10CHL1   C24  728   0.437   0.630   5.699 -0.1658  0.1578  0.2249
   10CHL1  H24A  729   0.466   0.737   5.704  0.6895  0.1909 -3.2053
   10CHL1  H24B  730   0.527   0.566   5.690 -1.3080 -1.3349 -1.3394
   10CHL1   C25  731   0.347   0.598   5.573 -0.3668  0.6540  0.0204
   10CHL1   H25  732   0.326   0.489   5.578 -1.2685  0.8581  1.6554
   10CHL1   C26  733   0.220   0.684   5.561  0.5965  0.5202 -0.4288
   10CHL1  H26A  734   0.141   0.638   5.623  0.8933  0.7890  0.1590
   10CHL1  H26B  735   0.235   0.792   5.584  0.4590  0.5304 -0.3896
   10CHL1  H26C  736   0.177   0.679   5.459  0.0542  0.2639 -0.1870
   10CHL1   C27  737   0.438   0.610   5.451  0.7255  0.3865  0.1533
   10CHL1  H27A  738   0.506   0.522   5.440  0.1161  0.0949 -1.7529
   10CHL1  H27B  739   0.385   0.616   5.354  0.1164  1.3857  0.5310
   10CHL1  H27C  740   0.502   0.701   5.445 -0.4325  1.1455 -1.5880
   11CHL1    C3  741   3.690   4.445   7.106  0.4124 -0.0913 -0.2299
   11CHL1    H3  742   3.633   4.539   7.094  4.2436  2.2243 -2.5123
   11CHL1    O3  743   3.727   4.433   7.242 -0.4983  0.0790 -0.2360
   11CHL1   H3'  744   3.774   4.351   7.260  0.9534  0.8644 -0.2808
   11CHL1    C4  745   3.598   4.331   7.070 -0.6853  1.4021  0.4413
   11CHL1   H4A  746   3.647   4.234   7.093 -2.3742  0.2735 -0.5258
   11CHL1   H4B  747   3.513   4.338   7.142 -1.5099 -1.1793 -0.1856
   11CHL1    C5  748   3.558   4.325   6.924 -0.0837 -0.5687  0.9017
   11CHL1    C6  749   3.432   4.325   6.884  0.0792  0.5805  0.4316
   11CHL1    H6  750   3.353   4.319   6.961  0.4868 -1.9821  0.7564
   11CHL1    C7  751   3.393   4.322   6.739 -0.4714  0.7737 -0.1579
   11CHL1   H7A  752   3.325   4.234   6.729 -0.2395  0.7195 -1.5193
   11CHL1   H7B  753   3.327   4.409   6.717 -0.9364  0.3216 -0.5920
   11CHL1    C8  754   3.508   4.309   6.641  0.1395 -0.1804 -0.6639
   11CHL1    H8  755   3.541   4.205   6.617  0.9246  0.8520 -4.6966
   11CHL1   C14  756   3.464   4.367   6.503  0.0718  0.2620 -0.8243
   11CHL1   H14  757   3.459   4.476   6.521 -1.0718  0.2995 -1.2455
   11CHL1   C15  758   3.326   4.323   6.444  0.3737 -0.0804  0.7097
   11CHL1  H15A  759   3.317   4.212   6.444 -1.9499  0.0505 -0.0981
   11CHL1  H15B  760   3.242   4.371   6.499 -0.9197  1.1189 -2.0625
   11CHL1   C16  761   3.336   4.371   6.299 -0.5479  0.6519  0.2927
   11CHL1  H16A  762   3.305   4.283   6.238 -1.1541 -0.5201  2.2163
   11CHL1  H16B  763   3.274   4.461   6.281  0.3397  0.4446 -6.6807
   11CHL1   C17  764   3.486   4.404   6.272 -0.4183 -0.6308  0.5707
   11CHL1   H17  765   3.492   4.515   6.283  1.0585 -0.6168 -0.1352
   11CHL1   C13  766   3.562   4.349   6.386 -0.3929  0.2568  0.1631
   11CHL1   C18  767   3.591   4.199   6.348  0.4815 -0.7269 -0.2451
   11CHL1  H18A  768   3.601   4.143   6.444 -0.2779  0.8869  0.8261
   11CHL1  H18B  769   3.510   4.159   6.284 -1.2631  1.2113  0.6130
   11CHL1  H18C  770   3.688   4.180   6.297  1.7833 -2.4200  2.5676
   11CHL1   C12  771   3.692   4.422   6.430  0.6005 -0.8262  0.7266
   11CHL1  H12A  772   3.777   4.406   6.359  0.4411 -1.7368  0.7248
   11CHL1  H12B  773   3.683   4.532   6.422  4.2839 -0.3792  1.2010
   11CHL1   C11  774   3.743   4.371   6.570 -0.2668  0.3221  0.3335
   11CHL1  H11A  775   3.768   4.264   6.556 -1.5573 -0.1320  1.2582
   11CHL1  H11B  776   3.831   4.432   6.601 -0.8252  1.6623 -0.6318
   11CHL1    C9  777   3.630   4.389   6.686  0.3531  0.9020  0.1157
   11CHL1    H9  778   3.598   4.495   6.691 -2.7468  0.0052  1.5247
   11CHL1   C10  779   3.679   4.344   6.822  0.8239 -0.6224  0.3226
   11CHL1   C19  780   3.750   4.204   6.817 -0.3739  0.3286 -0.3137
   11CHL1  H19A  781   3.692   4.119   6.773 -0.4572  0.9411 -1.4318
   11CHL1  H19B  782   3.850   4.210   6.771  0.4718 -2.1378  1.0473
   11CHL1  H19C  783   3.786   4.171   6.917 -0.1219  0.0760 -0.4865
   11CHL1    C1  784   3.765   4.458   6.869  0.2178 -0.8451  1.2531
   11CHL1   H1A  785   3.856   4.471   6.807 -0.4493 -0.3962  0.3438
   11CHL1   H1B  786   3.711   4.555   6.868  1.1237 -0.2912 -1.5166
   11CHL1    C2  787   3.809   4.453   7.011 -0.4159  0.0586 -0.8407
   11CHL1   H2A  788   3.876   4.537   7.037 -0.4956  0.5992 -2.2875
   11CHL1   H2B  789   3.870   4.363   7.033  1.1143  1.7080  2.2998
   11CHL1   C20  790   3.532   4.363   6.127 -0.3452  0.0048 -0.1779
   11CHL1   H20  791   3.535   4.253   6.111  3.4427 -0.2920  1.4830
   11CHL1   C21  792   3.685   4.396   6.103  0.3524 -0.3662  0.4461
   11CHL1  H21A  793   3.755   4.325   6.152  1.6500  0.1772 -0.5476
   11CHL1  H21B  794   3.707   4.491   6.155  2.0886 -0.3354 -0.2786
   11CHL1  H21C  795   3.717   4.408   5.997  1.5123  0.9632  0.9211
   11CHL1   C22  796   3.452   4.433   6.014  0.0761 -0.0411 -0.2891
   11CHL1  H22A  797   3.349   4.457   6.047  0.2823  0.0931  0.2724
   11CHL1  H22B  798   3.489   4.537   5.999 -0.4166  0.1735 -0.0181
   11CHL1   C23  799   3.461   4.357   5.886 -0.0513  0.3544  0.3029
   11CHL1  H23A  800   3.551   4.377   5.824 -0.2087 -1.5014 -0.5754
   11CHL1  H23B  801   3.456   4.250   5.916 -0.3427 -0.5725 -2.7258
   11CHL1   C24  802   3.336   4.377   5.803  1.0570  0.3694  0.4376
   11CHL1  H24A  803   3.241   4.353   5.855  0.0324  0.3242 -1.3714
   11CHL1  H24B  804   3.323   4.485   5.781  1.1235  0.3319  0.2163
   11CHL1   C25  805   3.342   4.300   5.669 -0.2401  0.3518 -0.1197
   11CHL1   H25  806   3.409   4.352   5.598  0.0443  1.2120  0.7468
   11CHL1   C26  807   3.403   4.161   5.674  0.0252 -0.3703  0.3156
   11CHL1  H26A  808   3.372   4.109   5.581 -1.7674  0.3240  0.4945
   11CHL1  H26B  809   3.514   4.166   5.682 -0.0441  0.5196  0.9297
   11CHL1  H26C  810   3.364   4.097   5.756 -1.4713  0.4781  0.2995
   11CHL1   C27  811   3.197   4.288   5.605  0.0870  0.6285  0.6381
   11CHL1  H27A  812   3.127   4.235   5.674 -0.7009  0.3620 -0.3549
   11CHL1  H27B  813   3.170   4.393   5.581 -1.7650  0.3934  1.5548
   11CHL1  H27C  814   3.205   4.222   5.517  0.6919  1.8449 -0.2513
   12CHL1    C3  815   6.949   3.813   6.870  0.1290 -0.8299 -0.3776
   12CHL1    H3  816   7.047   3.763   6.886 -0.6304 -1.9882  0.9248
   12CHL1    O3  817   6.895   3.824   7.005  0.2122  0.2542  0.0106
   12CHL1   H3'  818   6.810   3.779   7.008  0.3942 -0.4679 -2.9035
   12CHL1    C4  819   6.950   3.947   6.798  0.6583  0.1862 -0.2638
   12CHL1   H4A  820   6.854   3.996   6.824  0.8580  1.2183 -1.3912
   12CHL1   H4B  821   7.021   4.009   6.858  0.8555 -0.7173  0.4555
   12CHL1    C5  822   6.997   3.943   6.653 -0.4637  0.1746  0.3645
   12CHL1    C6  823   7.079   4.036   6.609 -0.1307  0.1417 -0.4341
   12CHL1    H6  824   7.119   4.105   6.685 -0.3830 -0.2440  0.0498
   12CHL1    C7  825   7.118   4.067   6.471 -0.1242  0.1436  0.5838
   12CHL1   H7A  826   7.099   4.173   6.445  3.1955  0.6753 -0.1477
   12CHL1   H7B  827   7.226   4.052   6.448 -0.6609 -1.6990 -1.0421
   12CHL1    C8  828   7.045   3.972   6.373 -0.3088 -0.8051  0.2822
   12CHL1    H8  829   6.946   4.017   6.351  0.0227 -0.7674 -1.2736
   12CHL1   C14  830   7.121   3.951   6.244  0.2552  0.4039  0.2542
   12CHL1   H14  831   7.216   3.906   6.279 -0.6433 -1.5194  0.3551
   12CHL1   C15  832   7.166   4.078   6.167  0.6461  0.7223  0.1264
   12CHL1  H15A  833   7.087   4.156   6.161 -0.1077  0.1245  1.6816
   12CHL1  H15B  834   7.244   4.130   6.228 -0.3291  1.0934  1.0953
   12CHL1   C16  835   7.208   4.019   6.030 -0.7818 -0.7657 -0.2773
   12CHL1  H16A  836   7.141   4.070   5.958  2.0072 -1.7661 -3.8563
   12CHL1  H16B  837   7.314   4.041   6.002 -0.4811 -2.3638 -0.5048
   12CHL1   C17  838   7.184   3.870   6.035 -0.2041  0.4955 -0.0007
   12CHL1   H17  839   7.275   3.824   6.080 -0.8090 -0.6661  0.0589
   12CHL1   C13  840   7.072   3.858   6.142 -0.4983  0.2847  0.8772
   12CHL1   C18  841   6.934   3.901   6.087  0.0380 -0.3832 -0.3281
   12CHL1  H18A  842   6.859   3.927   6.165 -0.5841 -0.7763 -0.7829
   12CHL1  H18B  843   6.938   3.992   6.022 -0.0575  1.1024  1.6673
   12CHL1  H18C  844   6.900   3.816   6.024 -2.2623  0.3397 -0.1458
   12CHL1   C12  845   7.069   3.721   6.215  0.1559 -0.0974 -0.0075
   12CHL1  H12A  846   7.033   3.641   6.146  0.0079 -1.9607  2.1315
   12CHL1  H12B  847   7.171   3.701   6.252 -0.8812 -0.2058  3.0968
   12CHL1   C11  848   6.975   3.720   6.337 -0.8042 -0.0863 -0.0046
   12CHL1  H11A  849   6.870   3.739   6.306 -0.7624  2.1340  1.0472
   12CHL1  H11B  850   6.984   3.623   6.391  1.5221  0.4169  0.6188
   12CHL1    C9  851   7.019   3.829   6.439  0.5319  0.0202 -0.0725
   12CHL1    H9  852   7.118   3.791   6.475 -0.4666 -1.2120  1.4926
   12CHL1   C10  853   6.932   3.837   6.567 -0.4259  0.1574 -0.7026
   12CHL1   C19  854   6.788   3.874   6.531 -0.0960 -0.4090  0.3021
   12CHL1  H19A  855   6.753   3.794   6.462  1.9631  1.5408 -3.2843
   12CHL1  H19B  856   6.729   3.879   6.625  0.7280 -0.0961  0.8102
   12CHL1  H19C  857   6.772   3.974   6.487  0.5305  0.2113  1.4346
   12CHL1    C1  858   6.930   3.706   6.646  0.0267  0.6806 -0.1932
   12CHL1   H1A  859   6.877   3.629   6.586  2.0359  0.1406 -1.3612
   12CHL1   H1B  860   7.036   3.682   6.666  0.1908  0.3727 -1.3812
   12CHL1    C2  861   6.861   3.717   6.781  0.1473  0.1106 -0.4894
   12CHL1   H2A  862   6.878   3.623   6.839  0.2644  0.5687  0.2332
   12CHL1   H2B  863   6.753   3.742   6.780  0.2021  0.3744 -0.1392
   12CHL1   C20  864   7.169   3.812   5.898  0.0237 -0.2116 -0.2911
   12CHL1   H20  865   7.076   3.859   5.860  0.2525  0.5656  0.0670
   12CHL1   C21  866   7.143   3.658   5.901 -0.7350 -0.2095 -0.4110
   12CHL1  H21A  867   7.054   3.630   5.961 -0.7890  1.9927  0.6022
   12CHL1  H21B  868   7.218   3.610   5.968 -2.4677  0.5084  2.1929
   12CHL1  H21C  869   7.143   3.607   5.802  0.5896  0.1488 -0.6103
   12CHL1   C22  870   7.284   3.857   5.799  0.1166  0.3694  0.1004
   12CHL1  H22A  871   7.245   3.828   5.699  1.1047  2.6243 -1.0120
   12CHL1  H22B  872   7.289   3.968   5.788 -2.1809  0.4211 -0.9314
   12CHL1   C23  873   7.415   3.785   5.825 -1.0734  0.5366 -0.3013
   12CHL1  H23A  874   7.435   3.799   5.933 -0.8383  2.7154 -0.5817
   12CHL1  H23B  875   7.395   3.677   5.815  0.5160  0.2289 -0.5527
   12CHL1   C24  876   7.529   3.823   5.726 -0.5424 -0.7506  0.6916
   12CHL1  H24A  877   7.520   3.753   5.640  0.6824 -0.4566  0.3117
   12CHL1  H24B  878   7.515   3.930   5.700 -1.6897 -0.9710  0.3333
   12CHL1   C25  879   7.676   3.800   5.780  0.5413  0.0103  0.4243
   12CHL1   H25  880   7.678   3.819   5.889 -0.2008  1.2131  0.2519
   12CHL1   C26  881   7.712   3.647   5.775  0.5109 -0.1902  0.0029
   12CHL1  H26A  882   7.816   3.628   5.810  0.4305  0.5030  0.6439
   12CHL1  H26B  883   7.634   3.593   5.833  0.2414 -0.0540 -0.2327
   12CHL1  H26C  884   7.700   3.606   5.673  1.2719 -3.1679  0.9865
   12CHL1   C27  885   7.779   3.885   5.713 -0.5631  0.3307 -0.5823
   12CHL1  H27A  886   7.753   3.990   5.738 -1.5647  0.1246 -0.7307
   12CHL1  H27B  887   7.883   3.864   5.746 -1.4210 -1.3431  1.3280
   12CHL1  H27C  888   7.784   3.862   5.605 -2.0531 -0.8227 -0.4323
   13CHL1    C3  889   0.453   5.890   6.978 -0.0512  0.1258  0.0899
   13CHL1    H3  890   0.354   5.870   6.931  0.3932  0.7554 -1.1749
   13CHL1    O3  891   0.462   5.856   7.114 -0.0587  0.7298 -0.9805
   13CHL1   H3'  892   0.555   5.872   7.133 -0.2084 -0.5285  1.1357
   13CHL1    C4  893   0.569   5.809   6.910 -1.0483 -0.4653  0.0610
   13CHL1   H4A  894   0.667   5.815   6.962 -2.1015 -0.2534  2.1272
   13CHL1   H4B  895   0.538   5.703   6.911 -2.0873 -0.2953 -2.8925
   13CHL1    C5  896   0.590   5.848   6.765 -0.4075  0.0157 -0.7555
   13CHL1    C6  897   0.576   5.760   6.669  0.1217  0.2921 -0.2520
   13CHL1    H6  898   0.566   5.653   6.694 -0.3506  0.5651  0.7613
   13CHL1    C7  899   0.583   5.784   6.526 -0.3537 -0.1773 -0.7260
   13CHL1   H7A  900   0.638   5.699   6.482  0.1246 -0.9321  1.2081
   13CHL1   H7B  901   0.478   5.796   6.489 -0.5510  1.0351  0.1521
   13CHL1    C8  902   0.670   5.910   6.502 -0.4256 -0.7541 -0.2018
   13CHL1    H8  903   0.773   5.879   6.529 -1.0393 -1.9341  0.9080
   13CHL1   C14  904   0.677   5.949   6.358 -0.4359 -0.5303 -0.5869
   13CHL1   H14  905   0.576   5.991   6.341 -0.4344  1.0459  2.5006
   13CHL1   C15  906   0.702   5.834   6.264 -0.8600  0.0286  0.7162
   13CHL1  H15A  907   0.773   5.759   6.305  0.0380 -0.6259 -1.8308
   13CHL1  H15B  908   0.615   5.770   6.239  0.2739 -1.3873  0.2218
   13CHL1   C16  909   0.780   5.894   6.148  0.6426 -0.1093 -0.3637
   13CHL1  H16A  910   0.885   5.858   6.138  2.1635  3.2779  1.5636
   13CHL1  H16B  911   0.727   5.884   6.051 -0.9602 -0.8226  0.5494
   13CHL1   C17  912   0.794   6.053   6.175  0.0895  0.9520 -0.4480
   13CHL1   H17  913   0.703   6.097   6.129  0.4098  1.5393 -0.5321
   13CHL1   C13  914   0.777   6.066   6.324 -0.3193 -0.3508 -0.6653
   13CHL1   C18  915   0.918   6.041   6.387 -0.1199  0.1429  0.0054
   13CHL1  H18A  916   0.913   6.041   6.498  1.4687 -1.7783  0.1306
   13CHL1  H18B  917   0.939   5.936   6.359 -0.0751  0.1695 -0.0639
   13CHL1  H18C  918   1.001   6.101   6.343 -1.3672  2.9352  1.2162
   13CHL1   C12  919   0.712   6.190   6.390  0.2381 -0.0021  1.1694
   13CHL1  H12A  920   0.758   6.289   6.373 -2.1989  1.1583  0.9510
   13CHL1  H12B  921   0.613   6.200   6.339  0.8611 -0.2363 -0.1149
   13CHL1   C11  922   0.680   6.163   6.541  0.5919 -0.4272 -0.2375
   13CHL1  H11A  923   0.780   6.162   6.589 -0.8666 -1.4602  3.0242
   13CHL1  H11B  924   0.621   6.244   6.589  2.0916  1.1293 -0.9174
   13CHL1    C9  925   0.613   6.026   6.586 -0.0932  0.1402 -0.3197
   13CHL1    H9  926   0.509   6.021   6.546 -1.2306 -2.6623  2.5266
   13CHL1   C10  927   0.612   5.994   6.737 -0.0438  0.2940 -0.3148
   13CHL1   C19  928   0.747   6.029   6.805  0.1089  0.7822  0.2467
   13CHL1  H19A  929   0.740   6.032   6.915 -0.1890 -1.0773  0.3062
   13CHL1  H19B  930   0.820   5.955   6.766 -1.7278 -0.1034 -1.7256
   13CHL1  H19C  931   0.768   6.136   6.784  1.4269  0.7860  1.4237
   13CHL1    C1  932   0.497   6.075   6.804  0.3713 -0.0212  0.0489
   13CHL1   H1A  933   0.519   6.184   6.800  1.5542 -0.1943  1.3937
   13CHL1   H1B  934   0.404   6.053   6.747  2.0180 -0.4173 -2.6696
   13CHL1    C2  935   0.473   6.043   6.962 -0.0349 -0.7861  0.7433
   13CHL1   H2A  936   0.386   6.103   6.994  0.1280 -0.1964  0.0937
   13CHL1   H2B  937   0.562   6.074   7.020 -0.2949 -0.7403  1.1170
   13CHL1   C20  938   0.906   6.125   6.101 -0.5025  0.1171 -0.1718
   13CHL1   H20  939   1.004   6.077   6.120  0.1286  0.5665 -2.1393
   13CHL1   C21  940   0.913   6.271   6.142 -0.1642 -0.3413 -0.3840
   13CHL1  H21A  941   0.980   6.323   6.071 -1.1165  0.7848 -0.4888
   13CHL1  H21B  942   0.949   6.297   6.243  0.5319  2.1333 -1.2154
   13CHL1  H21C  943   0.815   6.324   6.144  0.3534  0.6202 -0.1951
   13CHL1   C22  944   0.892   6.120   5.942  0.1225  0.5481  0.1379
   13CHL1  H22A  945   0.874   6.014   5.912  0.2276  0.4229  0.5119
   13CHL1  H22B  946   0.810   6.188   5.913  0.5710  0.8173 -0.5364
   13CHL1   C23  947   1.014   6.163   5.870  1.0251 -0.1045 -0.4107
   13CHL1  H23A  948   1.022   6.273   5.882 -1.2568  0.4520 -3.0112
   13CHL1  H23B  949   1.094   6.122   5.935  0.6768  3.4767  2.6409
   13CHL1   C24  950   1.007   6.133   5.721 -0.1391  0.0000  0.3893
   13CHL1  H24A  951   0.990   6.023   5.713  2.0509 -0.3610  0.2417
   13CHL1  H24B  952   0.919   6.184   5.676  0.0942 -0.9800 -1.2669
   13CHL1   C25  953   1.133   6.163   5.647  0.1373  0.3360  0.7791
   13CHL1   H25  954   1.212   6.102   5.694  0.6530  1.1320  0.9708
   13CHL1   C26  955   1.114   6.131   5.496  0.2101  0.7046  0.1001
   13CHL1  H26A  956   1.027   6.181   5.449  1.8538  2.0109 -1.7502
   13CHL1  H26B  957   1.196   6.163   5.427 -0.6751  2.3389 -0.2468
   13CHL1  H26C  958   1.129   6.023   5.476  4.4630  1.3057 -0.9310
   13CHL1   C27  959   1.176   6.309   5.669  0.5735  0.8192 -0.1062
   13CHL1  H27A  960   1.226   6.325   5.767 -3.1859  2.0953  1.8065
   13CHL1  H27B  961   1.247   6.342   5.591  2.6777  1.5877  2.0156
   13CHL1  H27C  962   1.088   6.377   5.667 -0.4875 -0.5249 -0.6537
   14CHL1    C3  963   6.075   2.183   7.158  0.6183 -0.6929 -0.3772
   14CHL1    H3  964   5.993   2.251   7.130 -0.6824 -1.3305  1.6960
   14CHL1    O3  965   6.081   2.186   7.298  0.7696 -0.3037  0.7271
   14CHL1   H3'  966   6.171   2.161   7.323  1.8742  1.5904 -1.0887
   14CHL1    C4  967   6.048   2.038   7.098 -0.1744 -0.1364 -0.0601
   14CHL1   H4A  968   6.119   1.964   7.141  0.6603 -0.2880 -1.6299
   14CHL1   H4B  969   5.946   2.025   7.140  0.5335  0.3459  1.9250
   14CHL1    C5  970   6.064   2.022   6.951  0.2595  0.0017 -0.7471
   14CHL1    C6  971   5.968   1.958   6.882 -0.1400  0.0178  0.1130
   14CHL1    H6  972   5.876   1.917   6.924 -1.7523  1.4518 -1.8240
   14CHL1    C7  973   5.974   1.932   6.732 -0.8862  0.2699  0.0253
   14CHL1   H7A  974   5.943   1.828   6.709  2.1335 -0.2540 -2.2339
   14CHL1   H7B  975   5.908   2.003   6.677 -0.2324  0.8814  0.0117
   14CHL1    C8  976   6.118   1.954   6.673 -0.4858 -0.3207 -0.2236
   14CHL1    H8  977   6.186   1.869   6.697 -2.1784 -1.2445  1.6631
   14CHL1   C14  978   6.105   1.974   6.525 -0.3889  0.3844  0.9545
   14CHL1   H14  979   6.029   2.050   6.500 -0.0152  0.4926  0.1341
   14CHL1   C15  980   6.039   1.851   6.448  0.1142  0.2348 -0.1643
   14CHL1  H15A  981   6.090   1.759   6.486  1.9136 -0.0254 -2.9452
   14CHL1  H15B  982   5.928   1.842   6.451  0.2762 -2.6768  2.6277
   14CHL1   C16  983   6.083   1.874   6.302  0.6832  0.7210  1.1598
   14CHL1  H16A  984   6.156   1.797   6.270 -0.0109  0.5482 -0.0743
   14CHL1  H16B  985   6.002   1.865   6.226  1.8505 -0.5636  0.0037
   14CHL1   C17  986   6.165   2.008   6.302  0.3735  0.0002 -0.6049
   14CHL1   H17  987   6.091   2.087   6.279 -0.2814 -0.4335 -0.0327
   14CHL1   C13  988   6.225   2.020   6.442 -0.4303  1.2978 -0.2517
   14CHL1   C18  989   6.340   1.911   6.451  0.3545  0.1070 -0.5043
   14CHL1  H18A  990   6.360   1.886   6.557  0.2820 -2.8039 -1.1131
   14CHL1  H18B  991   6.324   1.818   6.393 -0.7864  0.4996 -0.8560
   14CHL1  H18C  992   6.433   1.959   6.414  0.7312  0.6372  1.0400
   14CHL1   C12  993   6.273   2.153   6.492  0.2342 -0.0563 -0.7822
   14CHL1  H12A  994   6.369   2.178   6.441 -0.4348  1.0969 -1.5039
   14CHL1  H12B  995   6.189   2.220   6.465 -1.4684 -0.6584  2.4652
   14CHL1   C11  996   6.287   2.157   6.649 -0.2830  0.1542 -0.3012
   14CHL1  H11A  997   6.390   2.123   6.672  0.7803  2.2917 -1.5993
   14CHL1  H11B  998   6.294   2.264   6.676 -0.3473  0.3617 -1.0831
   14CHL1    C9  999   6.169   2.091   6.732  0.4588 -0.2696  0.1388
   14CHL1    H9 1000   6.088   2.166   6.721  2.1436  1.6781  0.5146
   14CHL1   C10 1001   6.188   2.087   6.888  0.5228  0.2515 -0.4082
   14CHL1   C19 1002   6.311   2.000   6.920  0.0246 -0.6044  0.6297
   14CHL1  H19A 1003   6.319   1.909   6.857 -0.9489 -0.3757  0.1554
   14CHL1  H19B 1004   6.404   2.056   6.899 -1.0986  0.6446 -1.3811
   14CHL1  H19C 1005   6.312   1.961   7.024  0.0476 -0.2797  0.7508
   14CHL1    C1 1006   6.207   2.230   6.945  0.3529  0.3215  0.2318
   14CHL1   H1A 1007   6.302   2.277   6.912  0.4809 -0.7841 -1.0873
   14CHL1   H1B 1008   6.125   2.292   6.902  0.2088  0.3118  0.4919
   14CHL1    C2 1009   6.209   2.236   7.101  0.7189 -0.6268  0.8006
   14CHL1   H2A 1010   6.219   2.341   7.136 -0.9716  0.1768 -0.9741
   14CHL1   H2B 1011   6.293   2.174   7.140  0.7520 -2.2451 -1.6443
   14CHL1   C20 1012   6.273   2.016   6.188 -0.2127  0.4570 -0.3502
   14CHL1   H20 1013   6.341   1.929   6.196 -1.0313 -0.1023  1.0441
   14CHL1   C21 1014   6.345   2.156   6.189 -0.1690 -0.2373  0.1510
   14CHL1  H21A 1015   6.356   2.184   6.082  0.2527 -2.1282 -0.3385
   14CHL1  H21B 1016   6.446   2.145   6.234 -0.0123 -1.4877 -0.4553
   14CHL1  H21C 1017   6.285   2.227   6.249  1.3488  0.2071  1.2008
   14CHL1   C22 1018   6.203   1.995   6.053 -0.7838  0.0641 -0.0585
   14CHL1  H22A 1019   6.123   1.918   6.052 -1.2238  0.4877  0.8740
   14CHL1  H22B 1020   6.150   2.091   6.035 -1.1674  0.0064  0.7355
   14CHL1   C23 1021   6.292   1.974   5.933 -0.3246 -0.0905  0.6216
   14CHL1  H23A 1022   6.355   2.062   5.910 -0.3594 -0.2571 -0.1729
   14CHL1  H23B 1023   6.350   1.883   5.960 -2.6713 -1.5578  0.9511
   14CHL1   C24 1024   6.217   1.948   5.805  0.2959  0.5054  0.0420
   14CHL1  H24A 1025   6.153   1.857   5.810  0.1939  0.6040  0.5967
   14CHL1  H24B 1026   6.145   2.031   5.790 -1.5954 -1.1365 -0.5305
   14CHL1   C25 1027   6.292   1.956   5.669  0.1187  0.6226  0.0347
   14CHL1   H25 1028   6.339   2.056   5.662 -0.0554  0.5818 -3.8418
   14CHL1   C26 1029   6.406   1.858   5.667 -0.0584  0.2561 -0.2374
   14CHL1  H26A 1030   6.472   1.871   5.755 -0.1022  0.6843 -0.2662
   14CHL1  H26B 1031   6.365   1.756   5.652  1.7131 -0.6390  0.6855
   14CHL1  H26C 1032   6.467   1.883   5.577 -1.1142  0.7931 -0.8263
   14CHL1   C27 1033   6.207   1.939   5.539  0.4074  0.4545 -0.2919
   14CHL1  H27A 1034   6.148   2.031   5.520 -1.1934 -0.5966 -0.6006
   14CHL1  H27B 1035   6.266   1.917   5.447 -1.1644 -0.8094 -1.0496
   14CHL1  H27C 1036   6.142   1.849   5.531  2.1471 -0.9758  0.6743
   15CHL1    C3 1037   4.607   1.400   7.205  0.3340 -0.4866  0.4252
   15CHL1    H3 1038   4.504   1.359   7.196 -0.4967  1.7990 -1.4282
   15CHL1    O3 1039   4.637   1.416   7.340 -0.7432 -0.2489  0.2171
   15CHL1   H3' 1040   4.680   1.502   7.340 -1.9430  0.4545 -2.3080
   15CHL1    C4 1041   4.711   1.295   7.161 -0.1705 -0.6477 -0.1188
   15CHL1   H4A 1042   4.810   1.344   7.177  0.3822 -1.6663 -0.3207
   15CHL1   H4B 1043   4.705   1.209   7.231 -1.5021 -1.2714 -0.9685
   15CHL1    C5 1044   4.686   1.253   7.020  0.4079 -0.2352 -0.8104
   15CHL1    C6 1045   4.663   1.123   6.986 -0.0496  0.2670 -0.3452
   15CHL1    H6 1046   4.658   1.045   7.064  1.1386  0.7514  0.2469
   15CHL1    C7 1047   4.643   1.071   6.842  0.4613  0.0766  0.1967
   15CHL1   H7A 1048   4.702   0.980   6.822  3.3013  2.4851 -3.7276
   15CHL1   H7B 1049   4.534   1.051   6.831  1.0599 -4.0456  0.2394
   15CHL1    C8 1050   4.695   1.175   6.739 -0.1157 -0.1583 -0.1103
   15CHL1    H8 1051   4.805   1.166   6.734 -0.2165 -1.2333 -0.7273
   15CHL1   C14 1052   4.633   1.134   6.597  0.6479 -0.4359  0.3590
   15CHL1   H14 1053   4.522   1.141   6.599  0.6988  0.2299  0.9666
   15CHL1   C15 1054   4.678   0.988   6.555 -0.1488 -0.0236  0.2291
   15CHL1  H15A 1055   4.784   0.972   6.582  0.1239  0.4461 -0.5304
   15CHL1  H15B 1056   4.612   0.915   6.606 -3.0599  1.3017 -1.3877
   15CHL1   C16 1057   4.664   0.987   6.400  0.3073  0.0628  0.5303
   15CHL1  H16A 1058   4.762   0.955   6.360  0.6539  1.6131  0.0535
   15CHL1  H16B 1059   4.593   0.906   6.373  2.4062 -2.6451  2.6915
   15CHL1   C17 1060   4.605   1.130   6.372 -0.0254  0.8156  0.2474
   15CHL1   H17 1061   4.497   1.114   6.389  0.0075  0.6320  0.2877
   15CHL1   C13 1062   4.664   1.225   6.481 -0.5674  0.1915  0.8263
   15CHL1   C18 1063   4.818   1.237   6.468 -0.0997  0.6050  0.5803
   15CHL1  H18A 1064   4.871   1.283   6.555 -1.5593  1.3689  1.0915
   15CHL1  H18B 1065   4.864   1.137   6.457 -0.7333  0.1252  2.0623
   15CHL1  H18C 1066   4.849   1.285   6.372  1.3646  0.8869  1.1729
   15CHL1   C12 1067   4.606   1.356   6.520  0.0192 -0.5217 -0.6037
   15CHL1  H12A 1068   4.643   1.425   6.440  0.8681 -1.2424 -0.8552
   15CHL1  H12B 1069   4.496   1.344   6.514 -0.2845  1.2308  0.6771
   15CHL1   C11 1070   4.656   1.412   6.655 -0.3517  0.5735  0.1662
   15CHL1  H11A 1071   4.763   1.433   6.630 -0.2149 -2.3604 -2.1257
   15CHL1  H11B 1072   4.594   1.499   6.686  2.7101  1.7082  4.0188
   15CHL1    C9 1073   4.644   1.311   6.775 -0.0459  0.4086  0.1555
   15CHL1    H9 1074   4.533   1.308   6.780 -0.0147  0.5365  0.9543
   15CHL1   C10 1075   4.688   1.366   6.913 -0.3793 -0.1910  0.1215
   15CHL1   C19 1076   4.832   1.417   6.892 -0.0624  0.2581 -0.6296
   15CHL1  H19A 1077   4.877   1.444   6.991 -1.0690  0.0629 -0.1082
   15CHL1  H19B 1078   4.913   1.362   6.838  0.6711  0.4578  0.2300
   15CHL1  H19C 1079   4.829   1.514   6.839 -0.3467  2.6260  3.2886
   15CHL1    C1 1080   4.605   1.487   6.971 -0.2296  0.0115 -0.0557
   15CHL1   H1A 1081   4.619   1.581   6.914 -0.3902 -0.8190 -1.5292
   15CHL1   H1B 1082   4.498   1.456   6.964  0.0332 -0.9258 -0.1308
   15CHL1    C2 1083   4.617   1.525   7.123 -0.4262  0.7688 -0.8432
   15CHL1   H2A 1084   4.534   1.594   7.147 -0.8917 -0.3700  1.0624
   15CHL1   H2B 1085   4.720   1.565   7.135  0.3739 -0.7016 -2.3075
   15CHL1   C20 1086   4.620   1.162   6.221 -0.0029 -0.3924  0.2943
   15CHL1   H20 1087   4.726   1.190   6.209 -0.0088  0.6662  2.3682
   15CHL1   C21 1088   4.535   1.283   6.183 -0.3492  0.0176  0.2280
   15CHL1  H21A 1089   4.429   1.250   6.178  0.3049 -2.0963 -3.6883
   15CHL1  H21B 1090   4.566   1.314   6.082 -0.6696  0.2667  0.2062
   15CHL1  H21C 1091   4.551   1.366   6.255  2.6183 -0.8789  0.7675
   15CHL1   C22 1092   4.573   1.048   6.128  0.0246  0.2176 -0.5585
   15CHL1  H22A 1093   4.625   0.957   6.167 -0.8510 -0.0817 -0.0739
   15CHL1  H22B 1094   4.465   1.028   6.142 -0.2277  0.2341 -2.2297
   15CHL1   C23 1095   4.614   1.074   5.982  0.5507  0.7834  0.0042
   15CHL1  H23A 1096   4.538   1.148   5.952 -1.0741 -0.2066  1.4767
   15CHL1  H23B 1097   4.713   1.125   5.976  0.0783  1.6188 -0.8651
   15CHL1   C24 1098   4.608   0.950   5.888 -0.5782  0.0120 -0.3283
   15CHL1  H24A 1099   4.668   0.873   5.942  0.0128  0.9951  0.4542
   15CHL1  H24B 1100   4.503   0.918   5.878  0.0853 -2.0722 -1.2331
   15CHL1   C25 1101   4.682   0.967   5.753 -0.8011  0.3053  0.2522
   15CHL1   H25 1102   4.785   0.992   5.784 -0.6430 -1.4397  1.2645
   15CHL1   C26 1103   4.709   0.839   5.676  0.2370 -0.8340  0.4505
   15CHL1  H26A 1104   4.759   0.860   5.579 -2.8849  4.3191 -0.4477
   15CHL1  H26B 1105   4.772   0.767   5.733 -0.2610 -1.1543  0.6067
   15CHL1  H26C 1106   4.612   0.787   5.660 -0.7248  0.8346  0.6002
   15CHL1   C27 1107   4.611   1.070   5.660  0.4208  0.9198 -0.4964
   15CHL1  H27A 1108   4.685   1.102   5.583  1.3346 -2.8534 -1.3591
   15CHL1  H27B 1109   4.515   1.036   5.615  0.5836  0.7396 -0.7105
   15CHL1  H27C 1110   4.591   1.155   5.728  1.0482 -0.6842  1.7907
   16CHL1    C3 1111   2.996   5.763   7.027  0.0520 -0.8508 -0.3849
   16CHL1    H3 1112   3.097   5.734   7.064 -0.4790 -1.3480  0.7318
   16CHL1    O3 1113   2.902   5.791   7.130  0.0299  0.3457 -0.3386
   16CHL1   H3' 1114   2.917   5.885   7.144 -0.5413  0.2228  1.4534
   16CHL1    C4 1115   3.012   5.896   6.945  0.2926 -0.6239  0.4427
   16CHL1   H4A 1116   2.909   5.937   6.941 -0.8575 -3.1544  1.6849
   16CHL1   H4B 1117   3.072   5.976   6.993 -1.3321  1.7278 -1.2288
   16CHL1    C5 1118   3.080   5.859   6.808 -0.3464 -1.0361  0.8316
   16CHL1    C6 1119   3.194   5.934   6.777  0.2268 -0.1272  0.1654
   16CHL1    H6 1120   3.226   6.013   6.846 -0.2830 -0.3592  0.6777
   16CHL1    C7 1121   3.280   5.907   6.655  0.1257 -0.2463 -0.0769
   16CHL1   H7A 1122   3.317   5.999   6.605 -2.1711 -0.3761 -2.2151
   16CHL1   H7B 1123   3.374   5.858   6.690 -0.6102 -1.2482  0.5341
   16CHL1    C8 1124   3.203   5.828   6.550 -0.2252  0.5209  0.0405
   16CHL1    H8 1125   3.125   5.893   6.503 -1.0223  0.1487  0.8190
   16CHL1   C14 1126   3.287   5.777   6.436 -0.3208 -0.1769  0.1817
   16CHL1   H14 1127   3.360   5.704   6.478  0.6171 -1.0857 -2.7787
   16CHL1   C15 1128   3.375   5.875   6.356  0.0775 -0.6649 -0.4304
   16CHL1  H15A 1129   3.311   5.956   6.314 -0.3040 -0.3266  0.7774
   16CHL1  H15B 1130   3.451   5.920   6.423  2.0738 -1.7221 -1.8703
   16CHL1   C16 1131   3.418   5.813   6.227 -0.1887 -0.2997 -0.5598
   16CHL1  H16A 1132   3.382   5.881   6.147  0.7064  1.0567  0.1382
   16CHL1  H16B 1133   3.528   5.794   6.235 -0.3156 -0.5022  1.0649
   16CHL1   C17 1134   3.352   5.671   6.224 -0.0410 -0.4242  0.1815
   16CHL1   H17 1135   3.433   5.621   6.281  1.2874  2.5941  1.1595
   16CHL1   C13 1136   3.226   5.688   6.322 -0.4081 -0.0132  0.7387
   16CHL1   C18 1137   3.115   5.762   6.245 -1.2342 -0.6992  0.4130
   16CHL1  H18A 1138   3.079   5.701   6.160 -1.1027  1.1514 -1.0163
   16CHL1  H18B 1139   3.032   5.793   6.312 -0.8739  0.4622  0.3429
   16CHL1  H18C 1140   3.157   5.849   6.191 -1.1991 -0.6663  0.4922
   16CHL1   C12 1141   3.176   5.562   6.386  0.2294  0.1368 -0.7767
   16CHL1  H12A 1142   3.125   5.505   6.306 -0.8456 -1.5722  1.0433
   16CHL1  H12B 1143   3.255   5.500   6.432 -0.1934  0.1455 -0.0231
   16CHL1   C11 1144   3.078   5.595   6.497 -0.6569 -1.2193 -0.5020
   16CHL1  H11A 1145   2.983   5.640   6.460 -0.6397 -0.0838  0.7339
   16CHL1  H11B 1146   3.050   5.502   6.551 -0.0775 -0.5152  1.0727
   16CHL1    C9 1147   3.134   5.700   6.611 -0.5093  0.7277 -0.8477
   16CHL1    H9 1148   3.220   5.653   6.662 -0.2719  0.2770 -1.6402
   16CHL1   C10 1149   3.029   5.740   6.722 -0.3058  0.3875  0.7943
   16CHL1   C19 1150   2.894   5.782   6.657 -0.5536  0.2308  0.4783
   16CHL1  H19A 1151   2.813   5.808   6.728 -2.4538 -0.4333 -1.3332
   16CHL1  H19B 1152   2.903   5.864   6.583  1.1108 -0.4135 -0.0766
   16CHL1  H19C 1153   2.847   5.692   6.611 -0.0345  0.3110 -0.2222
   16CHL1    C1 1154   3.014   5.616   6.809 -0.3926  0.2100 -0.4355
   16CHL1   H1A 1155   2.963   5.527   6.767  0.7187 -0.3759 -0.5807
   16CHL1   H1B 1156   3.116   5.580   6.834  0.4109  2.1286 -0.7588
   16CHL1    C2 1157   2.937   5.643   6.941 -0.1943 -0.1271 -0.2121
   16CHL1   H2A 1158   2.941   5.555   7.009  0.4738 -0.2901 -0.4541
   16CHL1   H2B 1159   2.834   5.676   6.917 -0.5258  0.1423  1.4955
   16CHL1   C20 1160   3.321   5.629   6.081 -0.1612 -0.0021  0.0182
   16CHL1   H20 1161   3.249   5.699   6.033 -0.9396 -1.4007 -0.9704
   16CHL1   C21 1162   3.246   5.493   6.068 -0.3974  0.2260  0.0845
   16CHL1  H21A 1163   3.137   5.516   6.066 -0.0038  2.5284  1.3518
   16CHL1  H21B 1164   3.277   5.429   6.154 -0.6813 -0.3607 -0.2432
   16CHL1  H21C 1165   3.277   5.456   5.968 -1.6018  4.1234 -1.9341
   16CHL1   C22 1166   3.445   5.612   5.984 -0.4319  0.2958 -0.7559
   16CHL1  H22A 1167   3.540   5.655   6.024  0.7301 -1.8450 -1.0856
   16CHL1  H22B 1168   3.471   5.504   5.985 -0.0968  0.3466  1.2079
   16CHL1   C23 1169   3.427   5.667   5.850 -0.1885 -0.2513  0.1148
   16CHL1  H23A 1170   3.326   5.646   5.809 -0.0202 -2.5946  0.7419
   16CHL1  H23B 1171   3.429   5.778   5.860 -0.7974  0.0712 -2.5780
   16CHL1   C24 1172   3.538   5.637   5.749  0.1056 -0.3088 -0.4111
   16CHL1  H24A 1173   3.642   5.654   5.785  1.3103 -4.5804 -1.2264
   16CHL1  H24B 1174   3.541   5.529   5.721 -1.4353 -0.8556  1.3632
   16CHL1   C25 1175   3.534   5.713   5.617  0.1181 -0.9196 -1.0553
   16CHL1   H25 1176   3.520   5.822   5.630 -0.4855 -1.2243  1.1414
   16CHL1   C26 1177   3.655   5.689   5.523 -0.0133 -0.1742  0.3894
   16CHL1  H26A 1178   3.627   5.712   5.418  0.8383  2.9834  0.7574
   16CHL1  H26B 1179   3.742   5.752   5.551 -0.3818  0.0107  1.1397
   16CHL1  H26C 1180   3.685   5.583   5.538 -0.2570 -0.5799 -1.6478
   16CHL1   C27 1181   3.410   5.669   5.539  0.6179  0.1830 -0.1482
   16CHL1  H27A 1182   3.324   5.642   5.603  0.6049 -2.9644 -1.3151
   16CHL1  H27B 1183   3.368   5.744   5.470  0.8590  0.3137 -0.1544
   16CHL1  H27C 1184   3.427   5.578   5.476 -0.9425 -0.2788  0.0751
   17CHL1    C3 1185   5.369   2.805   7.412 -0.1677  0.7026  1.1045
   17CHL1    H3 1186   5.439   2.720   7.431 -0.5218  0.6649  2.3247
   17CHL1    O3 1187   5.331   2.854   7.541  0.1464  0.3695 -0.3739
   17CHL1   H3' 1188   5.329   2.783   7.606  0.7387  0.6193 -0.0760
   17CHL1    C4 1189   5.456   2.901   7.327 -0.1854 -0.2425 -0.5922
   17CHL1   H4A 1190   5.398   2.995   7.334 -1.8848 -1.3863  2.4407
   17CHL1   H4B 1191   5.543   2.927   7.391 -2.0846  2.4965  1.0898
   17CHL1    C5 1192   5.497   2.838   7.199  0.5125 -0.6424 -0.6722
   17CHL1    C6 1193   5.625   2.822   7.164  0.4509 -0.1129  0.7404
   17CHL1    H6 1194   5.704   2.852   7.235  0.9669  0.0928  0.0846
   17CHL1    C7 1195   5.664   2.782   7.030  0.5974 -0.7525 -0.2638
   17CHL1   H7A 1196   5.747   2.846   6.992 -0.5041 -0.1048 -1.6743
   17CHL1   H7B 1197   5.698   2.676   7.028 -0.3127 -1.0518 -1.3473
   17CHL1    C8 1198   5.546   2.799   6.929 -0.5025  0.0305  0.5434
   17CHL1    H8 1199   5.526   2.908   6.928  0.4543  0.3322 -3.7335
   17CHL1   C14 1200   5.584   2.755   6.790 -0.2647 -0.4454  0.2113
   17CHL1   H14 1201   5.624   2.651   6.798  1.3285  0.1656  0.4965
   17CHL1   C15 1202   5.709   2.822   6.722  0.1880 -0.3582 -0.4485
   17CHL1  H15A 1203   5.714   2.932   6.733 -0.1947 -0.0912 -2.5652
   17CHL1  H15B 1204   5.799   2.771   6.763  0.3791  1.4636  1.5322
   17CHL1   C16 1205   5.691   2.794   6.572 -0.0251 -0.1321  0.0308
   17CHL1  H16A 1206   5.694   2.890   6.516 -0.2629 -0.2113 -0.1207
   17CHL1  H16B 1207   5.775   2.731   6.536  0.5381 -0.5959  2.0422
   17CHL1   C17 1208   5.558   2.712   6.557 -0.2248 -0.4976 -0.3153
   17CHL1   H17 1209   5.577   2.604   6.577  1.0431 -0.2576 -0.1920
   17CHL1   C13 1210   5.476   2.753   6.684 -0.0868  0.3786  0.2457
   17CHL1   C18 1211   5.421   2.894   6.664 -0.4173 -0.6427  0.4691
   17CHL1  H18A 1212   5.324   2.900   6.610 -0.6011  1.2617  0.9429
   17CHL1  H18B 1213   5.399   2.938   6.764 -0.2026 -2.4369  1.3306
   17CHL1  H18C 1214   5.495   2.958   6.611  1.0270 -0.6116  2.4343
   17CHL1   C12 1215   5.369   2.648   6.731  0.0444 -0.5704 -0.1591
   17CHL1  H12A 1216   5.268   2.657   6.685 -1.0392  2.3562  2.4869
   17CHL1  H12B 1217   5.399   2.541   6.729 -0.8956 -0.8333 -1.6348
   17CHL1   C11 1218   5.319   2.680   6.872 -0.3243 -0.2075 -0.2807
   17CHL1  H11A 1219   5.264   2.775   6.858  0.5289  0.1798 -1.0968
   17CHL1  H11B 1220   5.241   2.609   6.907 -1.3124  1.2257  0.5052
   17CHL1    C9 1221   5.429   2.718   6.980 -0.4102 -0.0760 -0.4554
   17CHL1    H9 1222   5.462   2.619   7.018  1.2934 -0.1707 -2.0588
   17CHL1   C10 1223   5.379   2.793   7.107  0.4341 -0.0729  0.7035
   17CHL1   C19 1224   5.290   2.916   7.070  0.9644 -0.7764  1.0158
   17CHL1  H19A 1225   5.185   2.891   7.042  1.0187  0.3536 -0.2365
   17CHL1  H19B 1226   5.282   2.990   7.153  0.3266  1.7542 -1.1956
   17CHL1  H19C 1227   5.333   2.962   6.979  1.0673 -1.7872  0.5399
   17CHL1    C1 1228   5.286   2.693   7.192 -0.1513 -0.9380 -0.0718
   17CHL1   H1A 1229   5.205   2.649   7.130 -0.7135  1.8610 -1.4710
   17CHL1   H1B 1230   5.353   2.611   7.226  0.5882  0.7648  2.9481
   17CHL1    C2 1231   5.242   2.750   7.331  0.1077  0.0012  0.2554
   17CHL1   H2A 1232   5.188   2.681   7.400  0.9141 -0.1881  0.7035
   17CHL1   H2B 1233   5.177   2.836   7.306  0.9643  0.8064  0.7378
   17CHL1   C20 1234   5.495   2.723   6.418  0.1241 -0.2334 -0.6224
   17CHL1   H20 1235   5.485   2.828   6.383  1.1749  0.2523  0.4971
   17CHL1   C21 1236   5.363   2.639   6.413 -0.2697 -0.3234  0.2723
   17CHL1  H21A 1237   5.385   2.539   6.458 -0.3747  0.3394  1.8387
   17CHL1  H21B 1238   5.334   2.643   6.306 -0.8379  3.3345  0.4535
   17CHL1  H21C 1239   5.288   2.694   6.474  0.8714  0.7594  0.7379
   17CHL1   C22 1240   5.585   2.675   6.301 -0.4063  0.6899  0.0813
   17CHL1  H22A 1241   5.694   2.680   6.320 -0.1644 -0.2049 -0.9471
   17CHL1  H22B 1242   5.563   2.571   6.268  0.2460  1.3335 -2.7015
   17CHL1   C23 1243   5.561   2.751   6.167  0.6400 -0.3442  0.3971
   17CHL1  H23A 1244   5.452   2.740   6.150  0.4523  0.9418  0.7284
   17CHL1  H23B 1245   5.589   2.857   6.185  0.2865 -0.6054  2.7543
   17CHL1   C24 1246   5.652   2.702   6.049  0.6355  0.5689 -0.2615
   17CHL1  H24A 1247   5.759   2.707   6.075  0.4511 -1.2667  1.0161
   17CHL1  H24B 1248   5.648   2.591   6.043  2.1722  0.2920  2.4625
   17CHL1   C25 1249   5.620   2.751   5.910 -0.5597  0.0127  0.2686
   17CHL1   H25 1250   5.515   2.726   5.885 -0.7262  0.5730  0.3740
   17CHL1   C26 1251   5.636   2.910   5.895 -0.1228  0.9268  0.2851
   17CHL1  H26A 1252   5.610   2.945   5.793  0.1019  0.2600 -0.0090
   17CHL1  H26B 1253   5.571   2.966   5.965 -0.0340 -0.6951  1.7215
   17CHL1  H26C 1254   5.740   2.945   5.912  0.3857 -0.1649 -0.4337
   17CHL1   C27 1255   5.722   2.693   5.803 -0.7000 -0.4917  0.1947
   17CHL1  H27A 1256   5.802   2.766   5.780 -0.1197 -1.7307 -1.9114
   17CHL1  H27B 1257   5.773   2.604   5.847 -0.5349 -0.8030 -0.6075
   17CHL1  H27C 1258   5.672   2.672   5.707 -2.1799  0.7962  0.6378
   18CHL1    C3 1259   4.754   4.176   7.206 -0.1773  0.9181  0.3088
   18CHL1    H3 1260   4.806   4.079   7.220  0.6170  0.9191 -2.0618
   18CHL1    O3 1261   4.769   4.251   7.322 -0.6134  0.4216  0.1110
   18CHL1   H3' 1262   4.712   4.327   7.307 -1.6616 -0.1674  0.9646
   18CHL1    C4 1263   4.814   4.245   7.085  0.1950 -0.9760 -0.2701
   18CHL1   H4A 1264   4.763   4.344   7.088  0.0492 -0.9970 -1.3933
   18CHL1   H4B 1265   4.922   4.262   7.099  0.2467  1.4336 -2.6319
   18CHL1    C5 1266   4.798   4.181   6.950 -0.6690 -0.2484  0.2174
   18CHL1    C6 1267   4.910   4.149   6.873  0.2697 -0.2795 -0.4841
   18CHL1    H6 1268   5.010   4.171   6.916  0.0388 -2.1273  1.1277
   18CHL1    C7 1269   4.905   4.067   6.743  0.1530 -0.5338 -0.8594
   18CHL1   H7A 1270   4.974   4.113   6.669 -1.1549  1.2518 -1.0491
   18CHL1   H7B 1271   4.942   3.964   6.760 -0.1202 -0.7589 -1.5698
   18CHL1    C8 1272   4.753   4.056   6.695 -0.5694  0.1352 -0.2901
   18CHL1    H8 1273   4.733   4.162   6.669  1.0836  0.2423 -1.2984
   18CHL1   C14 1274   4.746   3.960   6.580 -0.1508 -0.4861 -1.6025
   18CHL1   H14 1275   4.762   3.857   6.619  0.6055  0.1154 -0.2557
   18CHL1   C15 1276   4.847   3.974   6.468 -0.0639 -0.2377 -0.3438
   18CHL1  H15A 1277   4.856   4.080   6.437  0.8004 -0.4404 -0.8213
   18CHL1  H15B 1278   4.949   3.944   6.500 -0.1021 -0.4596 -0.4243
   18CHL1   C16 1279   4.790   3.884   6.355  0.4243 -0.2799 -0.0988
   18CHL1  H16A 1280   4.779   3.951   6.267 -1.6218  1.2543  1.2245
   18CHL1  H16B 1281   4.848   3.800   6.312 -0.9522 -1.5288  0.4348
   18CHL1   C17 1282   4.646   3.847   6.406  0.0545 -0.7163 -0.1479
   18CHL1   H17 1283   4.662   3.749   6.456 -1.8958 -0.4965  1.0121
   18CHL1   C13 1284   4.611   3.949   6.516  0.0494  0.2005 -0.1658
   18CHL1   C18 1285   4.574   4.077   6.445 -0.5051 -0.0808  0.0234
   18CHL1  H18A 1286   4.591   4.172   6.501 -0.8460  0.5743 -0.9639
   18CHL1  H18B 1287   4.648   4.102   6.366  0.1212  0.7472  0.8367
   18CHL1  H18C 1288   4.471   4.066   6.405 -0.5834  0.1679  0.1512
   18CHL1   C12 1289   4.510   3.903   6.621 -0.6052 -0.7078 -0.0502
   18CHL1  H12A 1290   4.410   3.888   6.575 -0.2437  0.6425 -1.3453
   18CHL1  H12B 1291   4.558   3.811   6.661  0.0365 -1.3560 -2.1555
   18CHL1   C11 1292   4.512   3.995   6.746 -0.2683 -0.5350 -0.2023
   18CHL1  H11A 1293   4.462   4.089   6.714 -0.3303 -0.4095  0.2555
   18CHL1  H11B 1294   4.453   3.946   6.827  0.7528 -0.8775  0.3592
   18CHL1    C9 1295   4.654   4.021   6.809 -0.0164 -0.4491 -0.9566
   18CHL1    H9 1296   4.700   3.930   6.854 -0.1334  0.3506  0.8780
   18CHL1   C10 1297   4.655   4.135   6.920 -0.3756  0.1838 -0.0735
   18CHL1   C19 1298   4.588   4.270   6.875  0.0981  1.0659 -0.1507
   18CHL1  H19A 1299   4.484   4.248   6.841  0.3664 -0.8486  0.1089
   18CHL1  H19B 1300   4.588   4.339   6.961 -1.9323 -1.0061  1.6649
   18CHL1  H19C 1301   4.640   4.325   6.794 -0.2387 -0.3865 -1.4013
   18CHL1    C1 1302   4.587   4.074   7.052  0.1225  0.4308  0.7308
   18CHL1   H1A 1303   4.481   4.052   7.028  0.8269 -3.1617  0.3410
   18CHL1   H1B 1304   4.628   3.973   7.072  3.1431  1.5251  0.6150
   18CHL1    C2 1305   4.602   4.158   7.184  0.3395  0.1017  0.1074
   18CHL1   H2A 1306   4.560   4.101   7.270  0.6503  1.1423  0.9851
   18CHL1   H2B 1307   4.549   4.255   7.169 -1.4507 -0.6869  0.9856
   18CHL1   C20 1308   4.562   3.826   6.280  0.2958 -0.5679  0.1160
   18CHL1   H20 1309   4.550   3.913   6.212 -4.4468 -1.4141 -0.4873
   18CHL1   C21 1310   4.417   3.786   6.316  0.3082  0.2147 -0.0622
   18CHL1  H21A 1311   4.364   3.757   6.222  1.8353 -1.2038 -0.5302
   18CHL1  H21B 1312   4.374   3.875   6.366 -0.2240  0.0429 -0.2054
   18CHL1  H21C 1313   4.422   3.703   6.389  0.5461  0.7199  0.5037
   18CHL1   C22 1314   4.626   3.719   6.184 -0.0236  0.2046  0.2099
   18CHL1  H22A 1315   4.730   3.739   6.150 -0.1765 -0.7308 -0.8420
   18CHL1  H22B 1316   4.628   3.622   6.239 -1.0806  0.2401  0.3402
   18CHL1   C23 1317   4.561   3.708   6.049  0.2135 -0.0957 -0.0763
   18CHL1  H23A 1318   4.464   3.656   6.067  1.6247 -2.8836 -0.0475
   18CHL1  H23B 1319   4.561   3.812   6.009 -0.7421  0.4068  1.1393
   18CHL1   C24 1320   4.632   3.615   5.949 -0.5193  0.1532 -0.1604
   18CHL1  H24A 1321   4.742   3.635   5.947 -0.4684 -0.0152  0.7609
   18CHL1  H24B 1322   4.621   3.517   5.999 -0.9916  0.1887 -0.1913
   18CHL1   C25 1323   4.576   3.606   5.803  0.9893  0.5575 -0.5228
   18CHL1   H25 1324   4.608   3.688   5.735 -0.7754  0.0037 -2.0965
   18CHL1   C26 1325   4.626   3.471   5.737 -0.2566 -1.0405  0.2580
   18CHL1  H26A 1326   4.597   3.467   5.630  2.2037  0.7676 -0.5770
   18CHL1  H26B 1327   4.736   3.460   5.729 -0.1795  0.5870 -1.2916
   18CHL1  H26C 1328   4.577   3.385   5.789  0.5989 -0.7289  1.6497
   18CHL1   C27 1329   4.417   3.608   5.812 -0.2182  0.1118  0.0977
   18CHL1  H27A 1330   4.367   3.606   5.712 -2.4842 -1.4010  1.1713
   18CHL1  H27B 1331   4.379   3.519   5.866  1.8587 -0.6761  0.3229
   18CHL1  H27C 1332   4.375   3.698   5.862 -0.4804  0.2573 -0.3768
   19CHL1    C3 1333   5.596   3.421   7.193  0.2084 -0.3621  0.1023
   19CHL1    H3 1334   5.706   3.426   7.178  0.2431 -0.8809  0.1838
   19CHL1    O3 1335   5.556   3.432   7.326  0.8403 -0.0041  0.1812
   19CHL1   H3' 1336   5.490   3.364   7.343 -0.9414  2.0684  2.4439
   19CHL1    C4 1337   5.531   3.535   7.105  0.2037  0.4663 -1.2418
   19CHL1   H4A 1338   5.421   3.530   7.122  0.2811 -0.0679 -0.8469
   19CHL1   H4B 1339   5.564   3.630   7.152  1.4169 -0.5873  0.1130
   19CHL1    C5 1340   5.570   3.523   6.965 -0.6219 -0.4555  0.0767
   19CHL1    C6 1341   5.623   3.622   6.891  0.1342  0.1322 -0.1660
   19CHL1    H6 1342   5.645   3.715   6.945  0.0732 -1.3500  2.6003
   19CHL1    C7 1343   5.641   3.609   6.740  0.4980 -0.5104  0.6907
   19CHL1   H7A 1344   5.599   3.702   6.697  1.0221 -1.6049 -2.4202
   19CHL1   H7B 1345   5.750   3.608   6.716  0.3967 -0.2989  0.1997
   19CHL1    C8 1346   5.571   3.494   6.671  0.4121 -0.3353 -0.1722
   19CHL1    H8 1347   5.468   3.535   6.666  0.4238 -0.4262 -1.3211
   19CHL1   C14 1348   5.624   3.475   6.528  0.0591  0.4349 -0.9026
   19CHL1   H14 1349   5.728   3.442   6.550  0.1330  2.2518  2.1114
   19CHL1   C15 1350   5.634   3.596   6.436 -0.2874 -1.5770  0.5322
   19CHL1  H15A 1351   5.538   3.651   6.431 -0.7823 -2.5385 -1.7111
   19CHL1  H15B 1352   5.714   3.668   6.464 -1.3688  0.4877 -1.3908
   19CHL1   C16 1353   5.659   3.525   6.308  0.4153  0.6538 -0.2053
   19CHL1  H16A 1354   5.612   3.580   6.225  0.0278  0.7682  0.0860
   19CHL1  H16B 1355   5.766   3.543   6.283  0.1594  3.0586  0.1733
   19CHL1   C17 1356   5.616   3.375   6.319  0.3613 -0.2458  0.5239
   19CHL1   H17 1357   5.708   3.315   6.335 -0.2184 -1.5033 -0.7285
   19CHL1   C13 1358   5.543   3.363   6.454 -0.5060 -0.3603 -0.4243
   19CHL1   C18 1359   5.400   3.411   6.444  0.0313 -0.2013 -0.9000
   19CHL1  H18A 1360   5.339   3.341   6.383  1.4898  0.3735 -3.1306
   19CHL1  H18B 1361   5.352   3.425   6.544 -0.4790  0.7517 -1.2658
   19CHL1  H18C 1362   5.387   3.509   6.392  4.0345  1.5934  1.0259
   19CHL1   C12 1363   5.555   3.236   6.532 -0.0628  0.0322 -0.1417
   19CHL1  H12A 1364   5.499   3.151   6.488 -0.7627 -0.2648  1.2716
   19CHL1  H12B 1365   5.663   3.211   6.543 -0.1686  0.0762  1.1229
   19CHL1   C11 1366   5.508   3.246   6.676  0.0686  0.2768 -0.3331
   19CHL1  H11A 1367   5.397   3.245   6.681  0.1098 -0.5809  0.7495
   19CHL1  H11B 1368   5.540   3.146   6.713 -2.3779 -0.2464  0.5922
   19CHL1    C9 1369   5.578   3.367   6.753  0.0119 -0.0614 -0.5523
   19CHL1    H9 1370   5.689   3.359   6.759 -0.0699 -0.2460  2.5120
   19CHL1   C10 1371   5.532   3.383   6.904 -0.3825 -0.3124  0.1492
   19CHL1   C19 1372   5.377   3.379   6.896 -0.3459 -0.6408  0.4940
   19CHL1  H19A 1373   5.332   3.282   6.867 -1.5279 -0.8842  2.9049
   19CHL1  H19B 1374   5.331   3.400   6.995  0.8170 -0.2694  0.9747
   19CHL1  H19C 1375   5.334   3.452   6.824  0.6122  1.1176  1.6125
   19CHL1    C1 1376   5.589   3.271   6.988 -0.2321 -0.3864  0.3022
   19CHL1   H1A 1377   5.556   3.170   6.953  2.7489 -1.1179 -0.6665
   19CHL1   H1B 1378   5.700   3.272   6.981 -0.1706  2.8272  0.6811
   19CHL1    C2 1379   5.554   3.284   7.134  0.2939 -0.2920 -0.6026
   19CHL1   H2A 1380   5.615   3.208   7.188  0.4288 -0.5054 -1.0431
   19CHL1   H2B 1381   5.447   3.264   7.156 -0.2442  1.0819 -1.7785
   19CHL1   C20 1382   5.551   3.310   6.186  0.0820 -0.4478 -0.3891
   19CHL1   H20 1383   5.456   3.361   6.158 -0.1664  0.3710  1.7450
   19CHL1   C21 1384   5.507   3.161   6.208 -0.0604 -0.4055  0.6766
   19CHL1  H21A 1385   5.458   3.127   6.114  1.1360 -0.9202  0.2205
   19CHL1  H21B 1386   5.435   3.143   6.291 -1.4781 -1.3018 -0.6966
   19CHL1  H21C 1387   5.599   3.101   6.216  0.6265  0.1176 -2.2246
   19CHL1   C22 1388   5.643   3.330   6.069 -0.2000  0.1378 -0.5762
   19CHL1  H22A 1389   5.691   3.431   6.070 -0.9663  0.5172  0.6454
   19CHL1  H22B 1390   5.725   3.255   6.067 -0.2042  0.1350 -0.6427
   19CHL1   C23 1391   5.579   3.316   5.931 -0.5546 -0.1281  0.2143
   19CHL1  H23A 1392   5.538   3.213   5.921  0.7145 -0.7078  0.8342
   19CHL1  H23B 1393   5.501   3.395   5.929 -1.3062 -0.7601  2.0907
   19CHL1   C24 1394   5.672   3.339   5.815 -0.5277 -0.0064 -0.3365
   19CHL1  H24A 1395   5.737   3.428   5.828 -1.4479  0.9755 -2.0416
   19CHL1  H24B 1396   5.729   3.245   5.802  0.2274  0.5849 -1.4299
   19CHL1   C25 1397   5.604   3.374   5.679 -0.0297  0.8959 -0.2144
   19CHL1   H25 1398   5.553   3.471   5.692 -1.7385 -0.0242  0.2694
   19CHL1   C26 1399   5.718   3.389   5.575  0.5962  0.3473  0.0324
   19CHL1  H26A 1400   5.781   3.479   5.580 -0.7123  1.4465 -1.8123
   19CHL1  H26B 1401   5.786   3.301   5.579  0.3621  0.1261 -0.5305
   19CHL1  H26C 1402   5.670   3.393   5.474  0.7487  0.2735 -0.0427
   19CHL1   C27 1403   5.500   3.262   5.639 -0.6999 -0.6147  0.5878
   19CHL1  H27A 1404   5.428   3.255   5.723 -2.6991  2.2268 -0.7304
   19CHL1  H27B 1405   5.452   3.297   5.546  2.1722 -0.3267 -0.9076
   19CHL1  H27C 1406   5.556   3.170   5.613 -1.4555 -1.2774  1.2580
   20CHL1    C3 1407   4.856   3.791   7.101 -0.7443 -0.4145 -0.2255
   20CHL1    H3 1408   4.821   3.881   7.046  0.1135 -0.4451 -0.8386
   20CHL1    O3 1409   4.908   3.832   7.230  0.0178  0.4994 -0.0980
   20CHL1   H3' 1410   4.846   3.810   7.300  0.1932 -0.1623 -0.1432
   20CHL1    C4 1411   4.736   3.701   7.126  0.0531  0.0060 -0.7243
   20CHL1   H4A 1412   4.763   3.620   7.198  0.7913 -0.5135 -1.5603
   20CHL1   H4B 1413   4.674   3.768   7.191 -1.6078 -2.1261  0.0476
   20CHL1    C5 1414   4.669   3.650   7.006  0.2845  0.6554  0.0740
   20CHL1    C6 1415   4.539   3.669   6.976 -0.4712  0.4950 -0.0530
   20CHL1    H6 1416   4.477   3.736   7.038 -3.1045 -1.1993 -0.6645
   20CHL1    C7 1417   4.461   3.607   6.860 -0.3531  0.0291  0.4173
   20CHL1   H7A 1418   4.364   3.567   6.898 -0.4852 -1.5077 -1.4251
   20CHL1   H7B 1419   4.446   3.691   6.789 -0.8793  0.2252  0.7449
   20CHL1    C8 1420   4.537   3.498   6.791  0.5422  0.1376 -0.1330
   20CHL1    H8 1421   4.530   3.405   6.851  0.5170  0.3786  0.2405
   20CHL1   C14 1422   4.483   3.476   6.653  0.4316  0.1519  0.1826
   20CHL1   H14 1423   4.511   3.565   6.593 -0.3250 -0.8115 -1.6950
   20CHL1   C15 1424   4.338   3.469   6.629 -0.2817 -0.9904 -0.1618
   20CHL1  H15A 1425   4.293   3.414   6.715 -0.6065  1.8035  1.5693
   20CHL1  H15B 1426   4.299   3.573   6.623  1.8638 -0.1359 -0.2324
   20CHL1   C16 1427   4.304   3.387   6.501 -0.0708 -0.3249 -0.3903
   20CHL1  H16A 1428   4.263   3.292   6.541  0.7910 -1.4581 -2.0696
   20CHL1  H16B 1429   4.241   3.435   6.423 -2.5650  0.0389  1.7258
   20CHL1   C17 1430   4.455   3.372   6.445 -0.3666  0.2356 -0.3461
   20CHL1   H17 1431   4.490   3.469   6.404 -0.4212 -1.1718 -4.1173
   20CHL1   C13 1432   4.546   3.358   6.571  0.8927 -0.5382 -0.3472
   20CHL1   C18 1433   4.517   3.219   6.627 -0.1893 -0.0868 -0.3617
   20CHL1  H18A 1434   4.409   3.214   6.654 -0.4343 -0.9885 -1.4242
   20CHL1  H18B 1435   4.539   3.138   6.554  1.0458  1.0979 -1.3565
   20CHL1  H18C 1436   4.569   3.207   6.724  0.7946  3.0705 -0.3870
   20CHL1   C12 1437   4.700   3.387   6.557  0.4444 -0.1463  0.2305
   20CHL1  H12A 1438   4.765   3.309   6.513 -0.3423 -0.5004 -0.3230
   20CHL1  H12B 1439   4.702   3.479   6.494 -1.3987  0.8236  1.4981
   20CHL1   C11 1440   4.760   3.419   6.691  0.2081  0.2399 -0.7584
   20CHL1  H11A 1441   4.755   3.324   6.750  0.5224  0.9549  0.4446
   20CHL1  H11B 1442   4.867   3.443   6.674  0.5127  0.2641  1.0101
   20CHL1    C9 1443   4.687   3.534   6.773 -0.0370  0.7075 -0.1970
   20CHL1    H9 1444   4.701   3.628   6.717  0.2694  2.0594  2.0200
   20CHL1   C10 1445   4.762   3.564   6.911 -0.2512 -0.6308 -0.3919
   20CHL1   C19 1446   4.796   3.428   6.977  0.4650 -0.1038 -0.7855
   20CHL1  H19A 1447   4.707   3.363   6.966  0.3079 -0.5300  2.2063
   20CHL1  H19B 1448   4.891   3.383   6.940  1.7917  1.9413 -0.1019
   20CHL1  H19C 1449   4.813   3.452   7.085 -0.7617  1.4899 -0.9103
   20CHL1    C1 1450   4.892   3.643   6.881 -0.4256 -0.0564  0.2512
   20CHL1   H1A 1451   4.972   3.581   6.835 -1.8435 -1.1122 -0.8903
   20CHL1   H1B 1452   4.866   3.737   6.828 -2.4013  1.4769  3.6148
   20CHL1    C2 1453   4.954   3.707   7.012 -0.3026  0.4394  0.3512
   20CHL1   H2A 1454   5.042   3.773   6.994  0.4276 -0.4288  0.6305
   20CHL1   H2B 1455   4.979   3.625   7.083  0.1759  0.7325  0.5278
   20CHL1   C20 1456   4.466   3.268   6.336  0.6587 -0.1024 -0.1862
   20CHL1   H20 1457   4.442   3.166   6.373  0.0907 -1.0838 -3.0258
   20CHL1   C21 1458   4.608   3.266   6.285  0.0047  0.4852  0.0139
   20CHL1  H21A 1459   4.650   3.364   6.254  1.1613  0.1468  0.4267
   20CHL1  H21B 1460   4.615   3.195   6.200 -0.8491 -1.1406  1.2296
   20CHL1  H21C 1461   4.675   3.224   6.364 -0.6567 -1.1742 -0.2700
   20CHL1   C22 1462   4.365   3.306   6.224  0.4840  0.6773  0.4900
   20CHL1  H22A 1463   4.261   3.289   6.258  0.0982  1.7426 -0.0885
   20CHL1  H22B 1464   4.379   3.412   6.193  0.5097  1.4892  3.0647
   20CHL1   C23 1465   4.369   3.214   6.102 -0.6351  0.8442 -0.2637
   20CHL1  H23A 1466   4.461   3.232   6.043 -1.3860 -1.1172 -2.1925
   20CHL1  H23B 1467   4.376   3.107   6.134 -0.4815  0.9183 -0.0475
   20CHL1   C24 1468   4.247   3.228   6.006 -0.0293  0.3068 -0.5141
   20CHL1  H24A 1469   4.158   3.196   6.066  0.4387 -0.4131 -0.1816
   20CHL1  H24B 1470   4.244   3.335   5.979 -1.1463  0.6096  0.7357
   20CHL1   C25 1471   4.273   3.148   5.876  0.2127 -0.0246  0.4077
   20CHL1   H25 1472   4.378   3.168   5.845 -0.7741  0.0619 -3.3782
   20CHL1   C26 1473   4.259   2.994   5.900  0.3102  0.4975  0.1882
   20CHL1  H26A 1474   4.343   2.957   5.962 -0.2183  0.9157  1.1937
   20CHL1  H26B 1475   4.168   2.978   5.962  0.8113  1.9041  1.3615
   20CHL1  H26C 1476   4.247   2.932   5.809 -1.0471  0.3195  0.4662
   20CHL1   C27 1477   4.189   3.198   5.756  0.3850  0.5795  0.2697
   20CHL1  H27A 1478   4.085   3.213   5.791  0.5533  0.3352  0.8822
   20CHL1  H27B 1479   4.227   3.293   5.711  1.3749 -0.2277 -0.6460
   20CHL1  H27C 1480   4.189   3.114   5.684 -0.7240 -0.5907  1.5922
   21CHL1    C3 1481   3.022   4.204   6.831 -0.1725 -1.2744 -0.2511
   21CHL1    H3 1482   3.106   4.274   6.812 -1.3497  0.3452  0.2332
   21CHL1    O3 1483   2.989   4.234   6.966 -0.0826  0.0095 -0.3734
   21CHL1   H3' 1484   2.894   4.224   6.960 -0.2727  0.7562  0.9508
   21CHL1    C4 1485   2.906   4.251   6.740  0.9804  0.6370 -0.0235
   21CHL1   H4A 1486   2.815   4.198   6.776  1.8374 -0.9555 -0.1113
   21CHL1   H4B 1487   2.886   4.360   6.755 -2.9028 -0.2431  2.9659
   21CHL1    C5 1488   2.943   4.210   6.593 -0.5320  0.2192  0.4053
   21CHL1    C6 1489   2.941   4.307   6.502  0.4129  0.6283  0.1413
   21CHL1    H6 1490   2.909   4.405   6.539 -0.6099 -0.6984  3.0831
   21CHL1    C7 1491   2.962   4.279   6.356 -0.3710  1.0605  0.0438
   21CHL1   H7A 1492   2.885   4.331   6.295  0.5828  1.2344 -1.0461
   21CHL1   H7B 1493   3.048   4.343   6.324  0.1931  1.7315  2.6714
   21CHL1    C8 1494   2.954   4.127   6.322  0.5419  0.0762  0.1370
   21CHL1    H8 1495   2.847   4.096   6.325 -0.1073  2.0542 -0.8335
   21CHL1   C14 1496   3.015   4.107   6.182 -0.3860 -0.1369 -0.3541
   21CHL1   H14 1497   3.124   4.130   6.179  0.1299 -2.1800  0.6854
   21CHL1   C15 1498   2.962   4.200   6.063 -0.0089 -0.1247 -0.0262
   21CHL1  H15A 1499   2.851   4.199   6.071 -0.0254 -0.6289 -0.3070
   21CHL1  H15B 1500   2.988   4.308   6.066 -1.7310  0.3144  0.8683
   21CHL1   C16 1501   3.000   4.120   5.942 -0.6678 -0.7505  0.5111
   21CHL1  H16A 1502   2.903   4.099   5.891  0.6520 -2.5539 -1.3865
   21CHL1  H16B 1503   3.061   4.184   5.875 -2.0185 -1.1924 -1.2096
   21CHL1   C17 1504   3.066   3.985   5.989 -0.2879  0.0772  0.0308
   21CHL1   H17 1505   3.171   4.015   6.006 -0.8273  0.8785  2.4092
   21CHL1   C13 1506   3.011   3.961   6.133 -0.4122  0.8565  1.2743
   21CHL1   C18 1507   2.863   3.913   6.117  0.2352  0.4788 -0.0388
   21CHL1  H18A 1508   2.865   3.817   6.061 -0.6058  1.1034 -1.1929
   21CHL1  H18B 1509   2.814   3.908   6.216  0.0891  2.1253  0.0020
   21CHL1  H18C 1510   2.799   3.982   6.057 -1.6300  1.0968  2.4808
   21CHL1   C12 1511   3.090   3.872   6.232 -0.0023 -0.6400 -0.2123
   21CHL1  H12A 1512   3.080   3.762   6.217 -2.0030 -0.6589  0.8641
   21CHL1  H12B 1513   3.196   3.897   6.214  0.3946 -1.5304  0.7744
   21CHL1   C11 1514   3.056   3.900   6.377  0.4081  0.8749 -0.8609
   21CHL1  H11A 1515   2.971   3.833   6.399  2.4270 -1.0400  1.6742
   21CHL1  H11B 1516   3.129   3.853   6.446 -2.7919 -2.4374  0.6050
   21CHL1    C9 1517   3.031   4.044   6.426  0.5330  0.1556  0.5279
   21CHL1    H9 1518   3.133   4.088   6.418  0.4596  0.0090 -2.8194
   21CHL1   C10 1519   2.976   4.065   6.571 -0.0469  0.3230 -0.1395
   21CHL1   C19 1520   2.850   3.977   6.587  0.5547 -0.6390  0.1332
   21CHL1  H19A 1521   2.885   3.872   6.602  3.3656  0.2234  0.1909
   21CHL1  H19B 1522   2.788   4.018   6.670 -2.8896  4.2870 -4.2022
   21CHL1  H19C 1523   2.786   3.977   6.496  0.7034 -1.6656  0.0204
   21CHL1    C1 1524   3.074   4.013   6.680 -0.4464 -1.1429  0.3706
   21CHL1   H1A 1525   3.094   3.904   6.679  2.6151 -0.6926  1.4545
   21CHL1   H1B 1526   3.173   4.052   6.646 -2.1158  2.5388 -0.8407
   21CHL1    C2 1527   3.053   4.060   6.823  0.1011  0.1159 -0.1641
   21CHL1   H2A 1528   3.140   4.032   6.886 -0.0565 -1.9422 -0.8088
   21CHL1   H2B 1529   2.969   4.001   6.863  0.8383 -1.3965 -0.7795
   21CHL1   C20 1530   3.073   3.871   5.883  0.0545 -0.2745  0.3476
   21CHL1   H20 1531   2.968   3.842   5.858 -0.0790  0.3217  0.1807
   21CHL1   C21 1532   3.156   3.760   5.936  0.3025  0.2372 -0.1729
   21CHL1  H21A 1533   3.251   3.796   5.980 -0.0018  0.6443  0.1557
   21CHL1  H21B 1534   3.172   3.678   5.863 -3.7448  1.7408 -3.1589
   21CHL1  H21C 1535   3.098   3.712   6.017 -1.0953 -1.0569 -1.8459
   21CHL1   C22 1536   3.124   3.921   5.750  0.1431 -0.7030 -0.4472
   21CHL1  H22A 1537   3.085   4.021   5.722 -1.8311 -1.5229 -0.7565
   21CHL1  H22B 1538   3.235   3.934   5.753  0.1104 -0.3667 -0.5972
   21CHL1   C23 1539   3.091   3.834   5.630 -0.5786  0.3368  0.9557
   21CHL1  H23A 1540   3.159   3.748   5.647  1.2968  1.7852  1.1473
   21CHL1  H23B 1541   2.984   3.804   5.628 -0.8779  1.3915  0.0975
   21CHL1   C24 1542   3.130   3.904   5.500  0.1097  0.1481  0.4608
   21CHL1  H24A 1543   3.070   3.991   5.467 -1.6142 -1.2691 -0.3419
   21CHL1  H24B 1544   3.231   3.945   5.520  0.4449 -0.5103  0.1411
   21CHL1   C25 1545   3.141   3.809   5.376 -0.1630  0.7023 -0.3871
   21CHL1   H25 1546   3.178   3.870   5.291 -1.5300  1.3042 -0.5756
   21CHL1   C26 1547   3.230   3.684   5.392 -0.3603  0.4497 -0.4618
   21CHL1  H26A 1548   3.333   3.721   5.409 -0.3379  0.5814 -0.8626
   21CHL1  H26B 1549   3.191   3.609   5.465 -1.2037  0.8493 -0.4968
   21CHL1  H26C 1550   3.233   3.636   5.292  0.2835 -0.5425  0.0148
   21CHL1   C27 1551   3.003   3.764   5.332  0.4543 -0.0339 -0.1878
   21CHL1  H27A 1552   2.931   3.843   5.363  0.6504 -0.0164  0.2394
   21CHL1  H27B 1553   3.003   3.752   5.222 -0.3390  2.3424 -0.5089
   21CHL1  H27C 1554   2.974   3.673   5.388 -1.7575  0.2227 -0.8220
   22CHL1    C3 1555   4.699   0.598   7.315 -0.1503  0.5528 -0.6066
   22CHL1    H3 1556   4.602   0.649   7.297  0.8297  3.1260  0.9130
   22CHL1    O3 1557   4.716   0.588   7.451 -0.3814 -0.3716  0.0052
   22CHL1   H3' 1558   4.708   0.496   7.476 -1.9954 -0.6600 -1.4086
   22CHL1    C4 1559   4.706   0.460   7.252 -0.4746 -0.4627  0.1270
   22CHL1   H4A 1560   4.793   0.395   7.273 -0.6279 -0.6978  0.0476
   22CHL1   H4B 1561   4.632   0.391   7.299  0.1484 -1.4367 -0.2708
   22CHL1    C5 1562   4.686   0.471   7.103  0.2926 -0.3042 -0.1630
   22CHL1    C6 1563   4.579   0.411   7.052  0.2379 -0.6228  0.7590
   22CHL1    H6 1564   4.521   0.343   7.116  0.9218 -2.8076 -0.8195
   22CHL1    C7 1565   4.547   0.400   6.903  1.0918  0.7855 -0.2263
   22CHL1   H7A 1566   4.521   0.295   6.879  0.0189  0.6808  1.2383
   22CHL1   H7B 1567   4.456   0.459   6.877  1.6566  0.2809 -3.8173
   22CHL1    C8 1568   4.674   0.437   6.816 -0.0865 -0.0991 -0.2913
   22CHL1    H8 1569   4.729   0.341   6.820 -0.7455 -0.4473  1.0551
   22CHL1   C14 1570   4.634   0.467   6.674  0.4264 -0.5056  0.3487
   22CHL1   H14 1571   4.569   0.555   6.691 -1.9256 -1.5020 -2.5906
   22CHL1   C15 1572   4.545   0.366   6.597  0.2790 -0.2390  0.0923
   22CHL1  H15A 1573   4.586   0.272   6.641  1.4288  0.9226  1.6376
   22CHL1  H15B 1574   4.439   0.382   6.626  0.5759 -0.0125  1.1089
   22CHL1   C16 1575   4.565   0.381   6.444 -0.2415 -0.5641 -0.3377
   22CHL1  H16A 1576   4.605   0.285   6.407 -1.2509 -1.5505  0.9984
   22CHL1  H16B 1577   4.473   0.409   6.389 -1.7244 -1.8487  1.3727
   22CHL1   C17 1578   4.668   0.500   6.443 -0.0475  0.0146  0.2582
   22CHL1   H17 1579   4.597   0.585   6.444  0.0834  0.1609 -1.2763
   22CHL1   C13 1580   4.745   0.501   6.581 -0.0779 -0.2649  0.4718
   22CHL1   C18 1581   4.837   0.381   6.569 -0.1828 -0.3567 -1.3872
   22CHL1  H18A 1582   4.902   0.391   6.480  1.5508 -1.0169 -0.2484
   22CHL1  H18B 1583   4.910   0.363   6.651 -2.2627 -2.9015  0.1045
   22CHL1  H18C 1584   4.784   0.284   6.556 -1.2560  0.3340 -2.2901
   22CHL1   C12 1585   4.805   0.639   6.627  0.3891  0.2076 -0.0468
   22CHL1  H12A 1586   4.904   0.655   6.580  1.2757 -0.0335  1.6656
   22CHL1  H12B 1587   4.735   0.722   6.604  0.1783  0.7191  2.1732
   22CHL1   C11 1588   4.840   0.625   6.780  0.4248 -0.2584  0.6953
   22CHL1  H11A 1589   4.926   0.555   6.786  0.1986 -0.5849  0.1382
   22CHL1  H11B 1590   4.872   0.723   6.821 -0.5408 -0.2894  1.5811
   22CHL1    C9 1591   4.735   0.570   6.878  0.0196 -0.1022 -0.0575
   22CHL1    H9 1592   4.655   0.647   6.885  0.6799  0.5226  0.9229
   22CHL1   C10 1593   4.778   0.556   7.027 -0.3647  0.2198 -0.3305
   22CHL1   C19 1594   4.906   0.479   7.024 -0.6162  0.7943  0.1078
   22CHL1  H19A 1595   4.979   0.545   6.972  1.1850 -0.0633  1.4412
   22CHL1  H19B 1596   4.954   0.463   7.123  1.1598 -0.6268 -0.9219
   22CHL1  H19C 1597   4.898   0.381   6.974  1.8387  0.6209 -0.0678
   22CHL1    C1 1598   4.787   0.697   7.094 -0.1925  0.7777  0.4866
   22CHL1   H1A 1599   4.883   0.733   7.051  0.2763 -1.0985 -0.1077
   22CHL1   H1B 1600   4.699   0.758   7.064 -0.9911 -1.1338 -1.3037
   22CHL1    C2 1601   4.796   0.695   7.246 -0.2518 -0.5270  0.1713
   22CHL1   H2A 1602   4.784   0.801   7.279  0.0763 -0.2740 -0.5017
   22CHL1   H2B 1603   4.897   0.660   7.277 -0.0320 -1.2674 -1.3204
   22CHL1   C20 1604   4.743   0.498   6.304  0.5704  0.1820  0.1700
   22CHL1   H20 1605   4.798   0.403   6.291  1.3449  0.3664  1.8692
   22CHL1   C21 1606   4.842   0.614   6.306  0.5410 -0.3098  0.0645
   22CHL1  H21A 1607   4.816   0.712   6.351  0.5785  1.9702 -4.3489
   22CHL1  H21B 1608   4.864   0.632   6.199 -2.8110  0.0664 -0.6652
   22CHL1  H21C 1609   4.934   0.584   6.362  1.1938 -1.3999 -1.5110
   22CHL1   C22 1610   4.634   0.521   6.192 -0.5083 -0.0027 -0.0478
   22CHL1  H22A 1611   4.564   0.435   6.200 -0.3790 -0.2048 -0.9906
   22CHL1  H22B 1612   4.576   0.613   6.213 -2.3016 -1.2392  0.6464
   22CHL1   C23 1613   4.685   0.535   6.049 -0.5146  0.6155  0.3497
   22CHL1  H23A 1614   4.758   0.617   6.031  1.6136 -0.9402  1.4661
   22CHL1  H23B 1615   4.737   0.441   6.022 -1.2886 -0.0278  1.0488
   22CHL1   C24 1616   4.575   0.560   5.956  0.0314  0.2116  0.0423
   22CHL1  H24A 1617   4.548   0.667   5.969 -0.7720 -0.0506  0.5559
   22CHL1  H24B 1618   4.613   0.553   5.852 -2.1955  2.5232 -1.0524
   22CHL1   C25 1619   4.455   0.472   5.960  0.4205  0.1105  0.3287
   22CHL1   H25 1620   4.405   0.469   6.059 -1.7024 -0.6101 -0.7054
   22CHL1   C26 1621   4.348   0.530   5.879  0.3803  0.7647 -0.1335
   22CHL1  H26A 1622   4.250   0.478   5.881 -0.0581  1.3301 -3.0260
   22CHL1  H26B 1623   4.319   0.633   5.911  0.7994  0.1688  2.3685
   22CHL1  H26C 1624   4.378   0.522   5.773  0.5053 -1.8742  0.0297
   22CHL1   C27 1625   4.491   0.330   5.920 -0.2614 -0.0318  0.6695
   22CHL1  H27A 1626   4.431   0.249   5.967  0.5603 -1.3495 -0.4661
   22CHL1  H27B 1627   4.494   0.330   5.809  1.1070 -1.1303  0.6785
   22CHL1  H27C 1628   4.597   0.304   5.941 -0.6327  0.3082  3.2584
   23CHL1    C3 1629   3.403   5.633   7.073 -0.2707 -0.8032 -0.6155
   23CHL1    H3 1630   3.331   5.695   7.015  0.1549 -0.3689 -0.6911
   23CHL1    O3 1631   3.384   5.656   7.214  0.4970 -0.0871 -0.3526
   23CHL1   H3' 1632   3.299   5.616   7.234  0.6850 -0.4735 -0.3252
   23CHL1    C4 1633   3.383   5.491   7.043  0.3393 -0.5293 -0.1913
   23CHL1   H4A 1634   3.455   5.447   7.115 -1.5488 -0.1775  2.0263
   23CHL1   H4B 1635   3.288   5.448   7.081  0.6484 -1.4838 -0.4821
   23CHL1    C5 1636   3.423   5.448   6.904 -0.1494  1.0661  0.5766
   23CHL1    C6 1637   3.326   5.378   6.833  0.9356 -0.3760  1.1882
   23CHL1    H6 1638   3.229   5.352   6.879  0.8014 -0.9325  0.6066
   23CHL1    C7 1639   3.347   5.329   6.696  0.1810  0.5102 -0.7645
   23CHL1   H7A 1640   3.319   5.221   6.694 -2.3725  1.0729  1.1470
   23CHL1   H7B 1641   3.288   5.367   6.610 -1.5576  1.0440  0.6247
   23CHL1    C8 1642   3.490   5.350   6.639  0.5954  0.3235 -0.0539
   23CHL1    H8 1643   3.553   5.271   6.686  1.4095  1.1881  0.3501
   23CHL1   C14 1644   3.501   5.332   6.487  0.0930  0.7733  0.1794
   23CHL1   H14 1645   3.442   5.414   6.440 -1.0128  0.1138  0.4046
   23CHL1   C15 1646   3.452   5.194   6.432 -0.5275  0.1632  1.3009
   23CHL1  H15A 1647   3.483   5.105   6.491  2.3893 -0.7328 -1.2826
   23CHL1  H15B 1648   3.341   5.196   6.431 -0.5578 -0.7920  2.0048
   23CHL1   C16 1649   3.507   5.183   6.289  0.1452  0.0243  0.1086
   23CHL1  H16A 1650   3.552   5.084   6.265  1.8797  1.5470 -3.5702
   23CHL1  H16B 1651   3.427   5.207   6.216  1.3881 -0.7870 -1.5793
   23CHL1   C17 1652   3.613   5.295   6.284 -0.6666 -0.2133 -0.0888
   23CHL1   H17 1653   3.566   5.382   6.233  2.4316  0.6523 -1.7443
   23CHL1   C13 1654   3.644   5.340   6.436 -0.5108  0.6464  0.2066
   23CHL1   C18 1655   3.746   5.241   6.492 -0.1399  0.5123 -0.6923
   23CHL1  H18A 1656   3.770   5.250   6.601 -1.1305  0.0026 -0.4200
   23CHL1  H18B 1657   3.722   5.134   6.476  2.7048  0.1095 -3.2310
   23CHL1  H18C 1658   3.844   5.255   6.441  1.1887 -1.6016  1.0816
   23CHL1   C12 1659   3.687   5.485   6.476 -0.1784 -0.1814 -0.3441
   23CHL1  H12A 1660   3.783   5.521   6.434 -1.3071  2.7659 -0.6677
   23CHL1  H12B 1661   3.608   5.551   6.433 -0.4015 -0.6628 -0.6866
   23CHL1   C11 1662   3.691   5.515   6.628 -0.2178 -0.0233 -0.0696
   23CHL1  H11A 1663   3.766   5.444   6.668  1.7607  0.9062 -1.9185
   23CHL1  H11B 1664   3.727   5.619   6.644  1.4998 -0.1664 -2.3947
   23CHL1    C9 1665   3.553   5.487   6.695 -0.2150  0.0544  0.4039
   23CHL1    H9 1666   3.482   5.564   6.657  2.0248  2.0465 -0.0581
   23CHL1   C10 1667   3.557   5.510   6.844  0.5105 -1.0172 -0.1882
   23CHL1   C19 1668   3.661   5.428   6.909  0.0777 -0.5970 -0.1376
   23CHL1  H19A 1669   3.757   5.469   6.871  0.7839  0.0617  2.1876
   23CHL1  H19B 1670   3.663   5.423   7.020 -0.8324 -0.6083 -0.1131
   23CHL1  H19C 1671   3.663   5.320   6.882 -0.2595 -0.9001  0.9842
   23CHL1    C1 1672   3.564   5.658   6.884  0.4330 -0.0123 -0.6986
   23CHL1   H1A 1673   3.656   5.708   6.846 -0.1015  2.0415  0.5160
   23CHL1   H1B 1674   3.480   5.710   6.833  0.7953 -0.0473 -1.3458
   23CHL1    C2 1675   3.539   5.682   7.033 -0.4930 -0.3666  0.1630
   23CHL1   H2A 1676   3.539   5.792   7.046 -1.9924 -0.4985  1.6776
   23CHL1   H2B 1677   3.617   5.644   7.102 -0.3317  1.2768  0.9276
   23CHL1   C20 1678   3.735   5.267   6.197  0.8089  0.2074  0.2280
   23CHL1   H20 1679   3.800   5.192   6.248  2.3137  1.6159  0.4378
   23CHL1   C21 1680   3.820   5.391   6.187 -0.4252 -0.0673 -0.1798
   23CHL1  H21A 1681   3.768   5.483   6.150 -1.8247  0.1662  2.1477
   23CHL1  H21B 1682   3.905   5.364   6.122  0.3373  0.6518  0.4930
   23CHL1  H21C 1683   3.877   5.425   6.276 -0.6249 -1.2709  0.4229
   23CHL1   C22 1684   3.696   5.213   6.054  0.0343 -0.9141  0.4549
   23CHL1  H22A 1685   3.615   5.138   6.065  0.6117 -1.4155  1.3497
   23CHL1  H22B 1686   3.673   5.303   5.993  0.1383  0.3672  2.2194
   23CHL1   C23 1687   3.813   5.135   5.986 -0.0374  0.3942  0.1329
   23CHL1  H23A 1688   3.901   5.203   5.986  0.7954 -0.6152  2.0240
   23CHL1  H23B 1689   3.852   5.051   6.046 -0.3260  0.8539  0.9713
   23CHL1   C24 1690   3.763   5.091   5.848 -0.1364 -0.6989  0.4631
   23CHL1  H24A 1691   3.704   4.997   5.847 -1.2727 -0.0295 -1.7921
   23CHL1  H24B 1692   3.694   5.167   5.806 -1.9329 -0.8687  2.8670
   23CHL1   C25 1693   3.884   5.057   5.750 -0.1706  0.0327 -0.0015
   23CHL1   H25 1694   3.834   5.029   5.655  1.9355 -0.3890 -1.0325
   23CHL1   C26 1695   3.980   5.168   5.724 -0.2045  0.2115  0.0002
   23CHL1  H26A 1696   4.064   5.155   5.652 -0.1795  1.4536 -0.2175
   23CHL1  H26B 1697   3.920   5.252   5.683 -1.3774 -0.2123  0.8089
   23CHL1  H26C 1698   4.021   5.196   5.823  0.7473  0.2745 -0.3955
   23CHL1   C27 1699   3.951   4.928   5.813  0.3479 -0.0310 -0.1367
   23CHL1  H27A 1700   4.020   4.879   5.742  0.6608 -0.4121  0.4231
   23CHL1  H27B 1701   4.009   4.964   5.900 -0.8367 -1.2656  1.2139
   23CHL1  H27C 1702   3.880   4.847   5.842  2.4459 -1.4448  1.2800
   24CHL1    C3 1703   4.904   3.014   7.267 -0.2402 -0.3228  0.0101
   24CHL1    H3 1704   5.005   2.977   7.296  0.0247 -0.6336 -1.2865
   24CHL1    O3 1705   4.833   3.044   7.389  0.5184 -0.0737 -0.1936
   24CHL1   H3' 1706   4.857   2.970   7.446  0.3213  0.1771  0.2175
   24CHL1    C4 1707   4.910   3.132   7.169 -0.3017  0.1363  0.2090
   24CHL1   H4A 1708   4.809   3.180   7.174 -0.1855  0.3667  0.3905
   24CHL1   H4B 1709   4.979   3.208   7.212  0.4754 -0.4104 -0.0591
   24CHL1    C5 1710   4.954   3.103   7.029 -0.7424 -0.6200  0.3759
   24CHL1    C6 1711   5.060   3.162   6.968 -0.0990 -0.4349  0.4050
   24CHL1    H6 1712   5.126   3.239   7.011 -1.8518  1.6281 -0.4178
   24CHL1    C7 1713   5.087   3.145   6.821  0.1478  0.6018 -0.1557
   24CHL1   H7A 1714   5.092   3.244   6.771 -1.4052  0.4924 -0.5647
   24CHL1   H7B 1715   5.188   3.099   6.812  0.2409  0.8052 -0.1562
   24CHL1    C8 1716   4.996   3.060   6.747  0.5200 -0.1025  0.1142
   24CHL1    H8 1717   4.906   3.118   6.718  0.9657 -0.4475 -2.1436
   24CHL1   C14 1718   5.050   3.020   6.615 -0.3546  0.2833  0.2023
   24CHL1   H14 1719   5.137   2.953   6.632  0.8342  1.6008 -0.4500
   24CHL1   C15 1720   5.100   3.132   6.523  0.1227  0.0599  0.3919
   24CHL1  H15A 1721   5.039   3.225   6.518  2.8930  2.1625  2.0941
   24CHL1  H15B 1722   5.198   3.175   6.553  0.1284  0.1140  0.2966
   24CHL1   C16 1723   5.119   3.069   6.389  0.7871  0.3951  0.0107
   24CHL1  H16A 1724   5.071   3.127   6.307  1.7603 -0.3480 -1.1257
   24CHL1  H16B 1725   5.227   3.062   6.363  0.4492  2.5141 -2.2957
   24CHL1   C17 1726   5.055   2.925   6.403 -0.3326 -0.2619  0.4918
   24CHL1   H17 1727   5.138   2.854   6.424 -0.2564 -0.9566 -1.9463
   24CHL1   C13 1728   4.961   2.935   6.524  0.5179 -0.5429 -0.2395
   24CHL1   C18 1729   4.832   3.012   6.473  0.2811 -0.5480 -0.1473
   24CHL1  H18A 1730   4.782   3.056   6.562  0.5264 -0.5365 -0.0142
   24CHL1  H18B 1731   4.859   3.091   6.400  0.5582 -0.3957  0.1164
   24CHL1  H18C 1732   4.768   2.932   6.428  0.2093 -1.2060  1.0781
   24CHL1   C12 1733   4.926   2.807   6.606  0.3970  0.5264 -0.0002
   24CHL1  H12A 1734   4.857   2.737   6.555 -0.5522  1.8963 -0.6489
   24CHL1  H12B 1735   5.023   2.754   6.617  1.4456  1.4456 -3.3516
   24CHL1   C11 1736   4.863   2.834   6.741 -0.5095  0.3501  0.1548
   24CHL1  H11A 1737   4.760   2.869   6.717 -0.9177 -0.2979  0.8987
   24CHL1  H11B 1738   4.871   2.740   6.799 -0.8769 -0.3195 -0.8593
   24CHL1    C9 1739   4.952   2.938   6.823  0.1021 -0.6299  0.3388
   24CHL1    H9 1740   5.049   2.892   6.851  0.0507  0.9900  3.7200
   24CHL1   C10 1741   4.878   2.984   6.955 -0.2328 -0.0179 -0.1639
   24CHL1   C19 1742   4.733   3.046   6.926  0.1535  0.5520 -1.0272
   24CHL1  H19A 1743   4.660   2.974   6.885 -2.3337  1.8534  0.8625
   24CHL1  H19B 1744   4.688   3.095   7.016  1.3835  1.5821 -0.9350
   24CHL1  H19C 1745   4.750   3.141   6.870  2.3853  0.6950 -0.2188
   24CHL1    C1 1746   4.874   2.870   7.056 -0.4856 -0.0563 -0.1358
   24CHL1   H1A 1747   4.801   2.796   7.016 -0.9715 -0.4556  1.4214
   24CHL1   H1B 1748   4.976   2.828   7.065 -0.1349  1.2328  3.1242
   24CHL1    C2 1749   4.820   2.908   7.198 -0.7174  0.5190  0.0610
   24CHL1   H2A 1750   4.805   2.820   7.264 -1.7193  0.0728 -0.7462
   24CHL1   H2B 1751   4.716   2.948   7.192 -0.6338  0.9214  1.0738
   24CHL1   C20 1752   5.003   2.878   6.267 -0.3154  1.1440  1.1523
   24CHL1   H20 1753   4.933   2.952   6.222 -0.9466  0.6523  1.3071
   24CHL1   C21 1754   4.928   2.742   6.286 -0.3013  0.6898  0.3979
   24CHL1  H21A 1755   4.987   2.657   6.325 -1.2837 -0.0624  0.2746
   24CHL1  H21B 1756   4.885   2.700   6.193 -0.4111  1.0246  0.2941
   24CHL1  H21C 1757   4.838   2.757   6.350  0.0758  2.6486  0.5422
   24CHL1   C22 1758   5.136   2.862   6.178  0.5160 -0.5071 -0.4031
   24CHL1  H22A 1759   5.184   2.962   6.182  2.2632 -1.3371  2.3826
   24CHL1  H22B 1760   5.210   2.794   6.227  0.3782 -1.0523 -0.9439
   24CHL1   C23 1761   5.119   2.807   6.031  0.3188  0.0091 -1.2885
   24CHL1  H23A 1762   5.130   2.699   6.056  3.0206  1.0467  3.0968
   24CHL1  H23B 1763   5.023   2.833   5.982 -2.1294 -0.4941  2.7838
   24CHL1   C24 1764   5.239   2.862   5.947  0.1744 -0.0613 -1.0507
   24CHL1  H24A 1765   5.234   2.973   5.953  0.1815 -0.1047  0.0141
   24CHL1  H24B 1766   5.338   2.821   5.977 -0.0365 -0.0477 -0.3268
   24CHL1   C25 1767   5.221   2.826   5.803 -0.5683 -0.5381  1.0977
   24CHL1   H25 1768   5.120   2.859   5.773  0.2669 -0.5457 -1.9909
   24CHL1   C26 1769   5.310   2.898   5.702 -0.0621 -0.1005 -0.4352
   24CHL1  H26A 1770   5.315   3.009   5.707  0.1822 -0.1679  1.9042
   24CHL1  H26B 1771   5.417   2.871   5.714  1.0504  2.4697 -3.2450
   24CHL1  H26C 1772   5.285   2.870   5.597  0.4818 -0.8431 -0.3730
   24CHL1   C27 1773   5.236   2.675   5.779  0.2338 -0.0637  0.5513
   24CHL1  H27A 1774   5.343   2.653   5.760  0.4181  0.4823  0.9130
   24CHL1  H27B 1775   5.202   2.611   5.863 -2.7278 -2.3751 -2.1297
   24CHL1  H27C 1776   5.173   2.640   5.694  1.2372 -0.4279 -0.0525
   25CHL1    C3 1777   3.235   2.863   6.767 -0.2714  0.2292 -0.6301
   25CHL1    H3 1778   3.289   2.766   6.776 -1.1194 -0.2705 -0.7560
   25CHL1    O3 1779   3.206   2.906   6.898  0.0583 -0.3263 -0.2867
   25CHL1   H3' 1780   3.144   2.843   6.937 -2.3966  0.7568 -2.2032
   25CHL1    C4 1781   3.325   2.962   6.695  0.2753  0.4983  0.0581
   25CHL1   H4A 1782   3.296   3.069   6.691 -2.3111 -0.1683 -0.6746
   25CHL1   H4B 1783   3.419   2.949   6.753  0.5184  0.4775 -0.3328
   25CHL1    C5 1784   3.350   2.929   6.548 -0.7026  0.5953  0.0849
   25CHL1    C6 1785   3.472   2.920   6.490  0.3164  0.2851 -0.5644
   25CHL1    H6 1786   3.564   2.954   6.540  0.4496 -0.6560 -0.1523
   25CHL1    C7 1787   3.502   2.892   6.347 -0.1227 -0.1660 -0.2968
   25CHL1   H7A 1788   3.572   2.972   6.314  2.7231 -2.0376  0.7859
   25CHL1   H7B 1789   3.552   2.793   6.341 -0.3814 -0.2525 -1.2568
   25CHL1    C8 1790   3.380   2.898   6.266  0.9858  0.7069  0.5348
   25CHL1    H8 1791   3.358   3.002   6.234 -1.8396 -0.1273 -0.5494
   25CHL1   C14 1792   3.403   2.822   6.137  0.1892 -0.7279 -0.7422
   25CHL1   H14 1793   3.416   2.720   6.179 -0.8920  0.2772  2.2630
   25CHL1   C15 1794   3.533   2.854   6.053  0.0362 -0.0524  0.1629
   25CHL1  H15A 1795   3.538   2.960   6.018  1.1520 -0.2549 -0.3164
   25CHL1  H15B 1796   3.625   2.826   6.108  0.4123  1.5769  0.4307
   25CHL1   C16 1797   3.509   2.778   5.923  0.5065  0.1197 -0.2006
   25CHL1  H16A 1798   3.523   2.840   5.832  2.1500  0.5389  0.3074
   25CHL1  H16B 1799   3.570   2.685   5.915  0.4876  0.1388 -0.5956
   25CHL1   C17 1800   3.355   2.738   5.913 -0.3416  0.0257  0.0750
   25CHL1   H17 1801   3.338   2.635   5.952 -2.2953  0.2822  0.0141
   25CHL1   C13 1802   3.288   2.816   6.038  0.2879 -0.6644 -0.5859
   25CHL1   C18 1803   3.256   2.957   5.982  0.0927 -0.6724  0.0602
   25CHL1  H18A 1804   3.240   3.027   6.067 -0.2977 -0.9717  0.2368
   25CHL1  H18B 1805   3.336   3.004   5.920 -1.2571 -0.3224 -1.5018
   25CHL1  H18C 1806   3.168   2.961   5.914 -0.7897 -3.3582  0.9338
   25CHL1   C12 1807   3.168   2.744   6.101 -0.6838  0.3219 -0.5433
   25CHL1  H12A 1808   3.083   2.762   6.031  0.1648  1.5480 -1.2937
   25CHL1  H12B 1809   3.186   2.634   6.100  0.9200  0.3158 -6.1786
   25CHL1   C11 1810   3.130   2.809   6.245 -0.1633 -0.9091  0.1580
   25CHL1  H11A 1811   3.084   2.907   6.219 -1.9436 -1.2114  1.9120
   25CHL1  H11B 1812   3.061   2.752   6.311 -0.2640  0.1669  1.0186
   25CHL1    C9 1813   3.257   2.838   6.333  0.2478 -0.3941 -0.2313
   25CHL1    H9 1814   3.293   2.740   6.370  2.8588 -0.7200 -3.2132
   25CHL1   C10 1815   3.220   2.906   6.471  0.4717 -0.0460 -1.0106
   25CHL1   C19 1816   3.167   3.049   6.456  0.8861 -0.2392  0.4584
   25CHL1  H19A 1817   3.113   3.080   6.549  1.8506  0.9238  0.6490
   25CHL1  H19B 1818   3.224   3.133   6.412 -1.0060  0.4176 -0.9086
   25CHL1  H19C 1819   3.081   3.042   6.385 -0.3777 -1.1934  2.0065
   25CHL1    C1 1820   3.126   2.807   6.548 -0.1761 -0.2463 -0.5363
   25CHL1   H1A 1821   3.031   2.813   6.490 -0.8446  2.3299  0.6994
   25CHL1   H1B 1822   3.159   2.701   6.543  1.6140  0.1165  1.7709
   25CHL1    C2 1823   3.103   2.846   6.698 -0.3608  0.2623 -0.8613
   25CHL1   H2A 1824   3.037   2.776   6.753  0.1147  1.8206  1.9074
   25CHL1   H2B 1825   3.050   2.944   6.693 -1.6436 -0.2709  1.1395
   25CHL1   C20 1826   3.282   2.747   5.776  0.5721  0.6678 -0.1467
   25CHL1   H20 1827   3.303   2.846   5.730 -0.2464 -0.1378 -2.3847
   25CHL1   C21 1828   3.124   2.729   5.779 -1.2025  0.3861 -1.0402
   25CHL1  H21A 1829   3.075   2.817   5.826  1.7692  1.7458 -0.2190
   25CHL1  H21B 1830   3.096   2.637   5.835 -2.4658  1.0311 -0.5544
   25CHL1  H21C 1831   3.091   2.738   5.674  0.6086  2.0924 -1.5128
   25CHL1   C22 1832   3.343   2.647   5.671 -0.2584  0.3161  0.0397
   25CHL1  H22A 1833   3.454   2.657   5.669 -0.2014 -0.2340 -1.5779
   25CHL1  H22B 1834   3.328   2.542   5.705 -1.9117 -0.2796 -2.2467
   25CHL1   C23 1835   3.299   2.664   5.527  0.0362  0.2840 -0.0751
   25CHL1  H23A 1836   3.348   2.584   5.467 -0.9595 -0.7000  0.4113
   25CHL1  H23B 1837   3.191   2.642   5.522  0.1060 -0.6287  1.7884
   25CHL1   C24 1838   3.322   2.809   5.454  0.1484  0.8750 -0.3225
   25CHL1  H24A 1839   3.346   2.890   5.526  1.7320  0.0809  0.0894
   25CHL1  H24B 1840   3.411   2.789   5.390 -0.7887 -0.0501 -1.3826
   25CHL1   C25 1841   3.204   2.856   5.365 -0.6194 -0.0426 -0.6034
   25CHL1   H25 1842   3.242   2.949   5.319  0.7322 -0.9640 -1.4068
   25CHL1   C26 1843   3.171   2.760   5.249 -0.1266 -0.3910 -0.3181
   25CHL1  H26A 1844   3.259   2.757   5.181 -1.1295  1.2764 -1.8095
   25CHL1  H26B 1845   3.132   2.663   5.285 -2.9315  0.6861 -0.1916
   25CHL1  H26C 1846   3.088   2.801   5.187 -0.2788 -2.0825 -1.3022
   25CHL1   C27 1847   3.078   2.893   5.450 -0.1097 -0.1555  0.3000
   25CHL1  H27A 1848   3.114   2.959   5.532  0.5770 -0.4218  0.2186
   25CHL1  H27B 1849   2.999   2.938   5.386  0.7813  1.4144  0.2671
   25CHL1  H27C 1850   3.050   2.797   5.499 -0.1291 -0.2094  0.1845
   26CHL1    C3 1851   5.744   4.202   6.943 -0.0845 -0.4571  0.0570
   26CHL1    H3 1852   5.640   4.169   6.920  0.6348 -2.5978 -0.3031
   26CHL1    O3 1853   5.754   4.209   7.087 -0.2009 -0.5028  0.2944
   26CHL1   H3' 1854   5.680   4.158   7.121  0.5845 -0.7306  1.7805
   26CHL1    C4 1855   5.846   4.109   6.884  0.5199  0.3067 -0.0936
   26CHL1   H4A 1856   5.949   4.148   6.901  0.0193  2.3828 -1.4309
   26CHL1   H4B 1857   5.821   4.015   6.936  2.0532 -0.8159 -1.2910
   26CHL1    C5 1858   5.832   4.104   6.734  0.0644  0.4108 -0.1308
   26CHL1    C6 1859   5.786   3.985   6.683 -0.0707 -0.0668 -0.5969
   26CHL1    H6 1860   5.779   3.897   6.749 -1.6741  0.4946  0.0405
   26CHL1    C7 1861   5.767   3.958   6.541  1.1398 -0.1327 -0.1810
   26CHL1   H7A 1862   5.810   3.858   6.520 -1.4705 -0.9974 -1.7959
   26CHL1   H7B 1863   5.657   3.954   6.525  0.6830  3.6080  1.0150
   26CHL1    C8 1864   5.826   4.073   6.453 -0.3071  0.4862  0.0572
   26CHL1    H8 1865   5.936   4.060   6.447 -0.2980  1.1454 -1.9699
   26CHL1   C14 1866   5.759   4.052   6.321  0.2985  0.0409  0.5110
   26CHL1   H14 1867   5.649   4.065   6.335 -0.0146 -1.1922 -0.5741
   26CHL1   C15 1868   5.765   3.912   6.255  0.0687  0.0885  0.3239
   26CHL1  H15A 1869   5.860   3.863   6.284 -0.9050 -1.0557  1.7192
   26CHL1  H15B 1870   5.683   3.854   6.303 -1.2506 -0.3637 -2.2503
   26CHL1   C16 1871   5.747   3.938   6.109  0.0282  0.5053  0.3685
   26CHL1  H16A 1872   5.836   3.895   6.058 -1.3888  0.5216 -2.3018
   26CHL1  H16B 1873   5.665   3.878   6.064  1.6011 -1.9487  0.5888
   26CHL1   C17 1874   5.739   4.088   6.093  0.0098 -0.1835  0.2470
   26CHL1   H17 1875   5.631   4.112   6.103 -0.6686 -2.6546 -0.5079
   26CHL1   C13 1876   5.801   4.152   6.218  0.2516  0.1796 -0.3438
   26CHL1   C18 1877   5.957   4.143   6.197 -0.0657  0.2335  0.4320
   26CHL1  H18A 1878   5.985   4.223   6.125 -0.7805  0.4995  0.4336
   26CHL1  H18B 1879   6.013   4.156   6.292 -0.2183  0.0657  0.5463
   26CHL1  H18C 1880   5.996   4.046   6.159  3.9114  1.8997 -0.2825
   26CHL1   C12 1881   5.764   4.298   6.265  0.1194 -0.5241 -0.3794
   26CHL1  H12A 1882   5.807   4.380   6.204  0.2173  0.4027  0.9073
   26CHL1  H12B 1883   5.654   4.307   6.271  0.0526 -1.3700 -0.2236
   26CHL1   C11 1884   5.825   4.323   6.407 -0.1180 -0.2158 -1.0119
   26CHL1  H11A 1885   5.936   4.333   6.402 -0.2432  1.7341 -0.8230
   26CHL1  H11B 1886   5.778   4.413   6.454  0.8573  0.5642 -1.4879
   26CHL1    C9 1887   5.786   4.215   6.515  0.4139  0.2781  0.7992
   26CHL1    H9 1888   5.675   4.220   6.518  0.4635  1.5053  0.8649
   26CHL1   C10 1889   5.841   4.235   6.659 -0.0595  0.1472 -0.6163
   26CHL1   C19 1890   5.991   4.270   6.655 -0.6849  0.3671 -0.4338
   26CHL1  H19A 1891   6.041   4.177   6.619 -1.2285 -0.7832  1.5825
   26CHL1  H19B 1892   6.015   4.362   6.598  1.1032  0.1084 -0.1639
   26CHL1  H19C 1893   6.031   4.290   6.757 -1.9205  0.4940  0.0423
   26CHL1    C1 1894   5.767   4.348   6.738  0.2879 -0.3602  0.8539
   26CHL1   H1A 1895   5.797   4.446   6.696 -1.3218  0.8769  2.4488
   26CHL1   H1B 1896   5.659   4.324   6.722  0.6440 -1.1728 -0.5300
   26CHL1    C2 1897   5.779   4.342   6.891 -0.5475 -0.4066 -0.7510
   26CHL1   H2A 1898   5.706   4.414   6.934 -0.8205 -0.1505 -1.6278
   26CHL1   H2B 1899   5.884   4.372   6.912 -0.3560 -1.7675  0.3374
   26CHL1   C20 1900   5.794   4.135   5.955  1.0660  0.2600 -0.6921
   26CHL1   H20 1901   5.904   4.123   5.958  1.0056 -0.1669  1.1079
   26CHL1   C21 1902   5.764   4.282   5.930  0.3364  0.5092  0.5284
   26CHL1  H21A 1903   5.656   4.302   5.948  0.6893  1.9508  1.1857
   26CHL1  H21B 1904   5.786   4.299   5.823 -0.0054 -0.5938  0.2695
   26CHL1  H21C 1905   5.821   4.358   5.987 -0.1235 -1.2342  3.5581
   26CHL1   C22 1906   5.750   4.041   5.838  0.4931 -0.4242 -0.1489
   26CHL1  H22A 1907   5.808   4.070   5.747  0.6894 -0.1200  0.0721
   26CHL1  H22B 1908   5.771   3.935   5.865 -2.2549 -0.4719  2.3358
   26CHL1   C23 1909   5.603   4.032   5.811  0.3040 -0.0670 -0.2231
   26CHL1  H23A 1910   5.547   3.998   5.901  0.6864 -0.5736 -0.1760
   26CHL1  H23B 1911   5.555   4.129   5.786 -0.8050 -0.5745 -0.1585
   26CHL1   C24 1912   5.547   3.936   5.705  0.7332  0.5724 -0.1761
   26CHL1  H24A 1913   5.583   3.964   5.604  1.0378  1.9133  0.2931
   26CHL1  H24B 1914   5.598   3.841   5.734  2.1327  1.4463  0.3337
   26CHL1   C25 1915   5.389   3.931   5.707  0.0105  0.0523 -0.3766
   26CHL1   H25 1916   5.355   3.905   5.810 -3.0460  3.2562 -0.3706
   26CHL1   C26 1917   5.327   4.069   5.665  0.2673  0.6831 -0.0964
   26CHL1  H26A 1918   5.216   4.060   5.667  0.1990  1.4241 -0.2302
   26CHL1  H26B 1919   5.354   4.141   5.745 -0.4929 -2.1114  2.8897
   26CHL1  H26C 1920   5.361   4.096   5.563  0.1396  1.3940  0.0425
   26CHL1   C27 1921   5.343   3.813   5.619 -0.3182 -0.4279 -0.1010
   26CHL1  H27A 1922   5.431   3.780   5.560  1.3923  2.7261  0.4568
   26CHL1  H27B 1923   5.310   3.746   5.700  2.3132  1.7966  3.0738
   26CHL1  H27C 1924   5.271   3.859   5.548  2.0172 -0.0516 -2.3910
   27CHL1    C3 1925   4.074   1.223   6.954 -0.3636  1.1207 -0.2354
   27CHL1    H3 1926   4.056   1.128   6.900  1.6340  1.1015 -0.9242
   27CHL1    O3 1927   4.129   1.205   7.086  0.9045 -0.6646  0.4635
   27CHL1   H3' 1928   4.138   1.298   7.106 -0.6535 -0.4329  0.2587
   27CHL1    C4 1929   4.178   1.298   6.868  0.0822  0.2966 -1.3981
   27CHL1   H4A 1930   4.207   1.395   6.914 -0.8752  1.2032 -2.6195
   27CHL1   H4B 1931   4.273   1.241   6.871  1.1853  2.0875  0.4332
   27CHL1    C5 1932   4.120   1.313   6.728 -0.1034  0.3016 -0.9693
   27CHL1    C6 1933   4.186   1.256   6.628  0.1877  0.5517 -1.1471
   27CHL1    H6 1934   4.282   1.204   6.644 -0.6766 -0.4304  1.2942
   27CHL1    C7 1935   4.147   1.266   6.484 -0.2926  0.0578  0.2726
   27CHL1   H7A 1936   4.223   1.320   6.424 -1.6519  2.4843  0.6381
   27CHL1   H7B 1937   4.115   1.168   6.443  0.1297  0.6091 -1.4270
   27CHL1    C8 1938   4.027   1.363   6.470 -0.6208 -1.0411  0.4419
   27CHL1    H8 1939   4.068   1.467   6.474 -0.0411 -1.0946 -2.1523
   27CHL1   C14 1940   3.954   1.338   6.340 -0.1429 -0.6345  0.1373
   27CHL1   H14 1941   3.924   1.232   6.351  1.3718 -1.1668 -0.5824
   27CHL1   C15 1942   4.041   1.336   6.215 -0.3829 -0.5512  0.6292
   27CHL1  H15A 1943   4.092   1.434   6.209  1.1945 -1.1867  2.4940
   27CHL1  H15B 1944   4.111   1.250   6.220 -1.8631 -1.7923  0.9132
   27CHL1   C16 1945   3.931   1.318   6.104  0.0597 -0.0649  0.8574
   27CHL1  H16A 1946   3.957   1.378   6.014  2.5485 -1.5219  0.5243
   27CHL1  H16B 1947   3.919   1.210   6.079 -0.4437 -0.3334  2.1647
   27CHL1   C17 1948   3.794   1.359   6.170  0.1255 -0.1971 -0.4875
   27CHL1   H17 1949   3.742   1.267   6.205 -1.4664  1.3307  1.4449
   27CHL1   C13 1950   3.834   1.425   6.301 -0.0158 -0.1620 -0.7535
   27CHL1   C18 1951   3.880   1.571   6.266  0.1034  0.1650  0.0201
   27CHL1  H18A 1952   3.924   1.621   6.354 -2.3216 -0.1582  1.5248
   27CHL1  H18B 1953   3.944   1.577   6.175  0.6394  1.0391  0.4474
   27CHL1  H18C 1954   3.786   1.623   6.238  0.2509  0.4024 -0.0342
   27CHL1   C12 1955   3.733   1.419   6.418 -1.0541 -0.9754 -0.2465
   27CHL1  H12A 1956   3.638   1.475   6.403 -2.1981 -1.8113  3.0240
   27CHL1  H12B 1957   3.707   1.311   6.412 -1.7885 -0.7457 -1.6808
   27CHL1   C11 1958   3.794   1.450   6.551  0.5366 -0.0264  0.0297
   27CHL1  H11A 1959   3.830   1.553   6.532  2.7296 -1.3299 -4.0332
   27CHL1  H11B 1960   3.715   1.452   6.629 -0.6519  0.2030 -1.1491
   27CHL1    C9 1961   3.917   1.355   6.579  0.7823  0.4103  0.6414
   27CHL1    H9 1962   3.877   1.251   6.576  0.9475  0.2385  2.9549
   27CHL1   C10 1963   3.980   1.380   6.720 -0.4553 -0.7660  0.3795
   27CHL1   C19 1964   3.986   1.530   6.751  0.1074 -0.0839  0.6156
   27CHL1  H19A 1965   4.049   1.550   6.840  1.9965 -0.0411 -0.6579
   27CHL1  H19B 1966   4.026   1.575   6.657 -0.0786 -0.2211  0.4688
   27CHL1  H19C 1967   3.885   1.571   6.770 -0.0226  0.6641 -1.3828
   27CHL1    C1 1968   3.884   1.306   6.815 -0.9505  0.0407  0.5003
   27CHL1   H1A 1969   3.776   1.331   6.807 -1.0534 -0.8832 -1.7390
   27CHL1   H1B 1970   3.876   1.201   6.780  1.8943 -0.0029 -0.2447
   27CHL1    C2 1971   3.942   1.293   6.959 -0.3280  0.4081 -0.0368
   27CHL1   H2A 1972   3.868   1.236   7.019 -2.0804  2.3675 -0.2077
   27CHL1   H2B 1973   3.953   1.390   7.012  0.6803  0.0595  0.4173
   27CHL1   C20 1974   3.698   1.423   6.064  1.1392 -0.1417  0.3621
   27CHL1   H20 1975   3.737   1.521   6.030 -1.8765  0.8598 -0.5430
   27CHL1   C21 1976   3.564   1.452   6.141  1.1332  0.2307  0.2039
   27CHL1  H21A 1977   3.532   1.360   6.195  0.0110  0.3020 -0.3043
   27CHL1  H21B 1978   3.491   1.502   6.073  1.0860 -2.1041 -1.5877
   27CHL1  H21C 1979   3.593   1.531   6.212 -0.9935  1.4733 -0.2030
   27CHL1   C22 1980   3.658   1.336   5.939  0.5675 -0.1797  1.2330
   27CHL1  H22A 1981   3.683   1.229   5.951 -0.2367 -0.7919 -1.7420
   27CHL1  H22B 1982   3.548   1.335   5.925  0.5616 -0.6635  1.3044
   27CHL1   C23 1983   3.721   1.410   5.814 -0.1466  0.0439  0.0406
   27CHL1  H23A 1984   3.701   1.519   5.828 -1.1213 -0.2784  1.3065
   27CHL1  H23B 1985   3.831   1.392   5.805 -0.1674 -0.1970  0.2641
   27CHL1   C24 1986   3.663   1.365   5.679  0.2125  0.2993  0.0666
   27CHL1  H24A 1987   3.697   1.263   5.651 -1.3700  0.1143 -1.3256
   27CHL1  H24B 1988   3.553   1.355   5.689  0.5515 -1.9096  2.9209
   27CHL1   C25 1989   3.683   1.458   5.564  0.0963  0.1928  0.9049
   27CHL1   H25 1990   3.607   1.538   5.581 -0.3076 -0.2103  1.0105
   27CHL1   C26 1991   3.824   1.518   5.552 -0.2477  0.5177  0.0786
   27CHL1  H26A 1992   3.860   1.574   5.641 -1.6228 -1.8186  2.2799
   27CHL1  H26B 1993   3.896   1.436   5.531 -0.3615  0.5447 -0.4255
   27CHL1  H26C 1994   3.842   1.587   5.468 -0.5087 -0.7757 -1.0812
   27CHL1   C27 1995   3.637   1.377   5.436 -0.1444  0.5395  0.5074
   27CHL1  H27A 1996   3.546   1.318   5.458  1.0572 -1.6231 -0.0821
   27CHL1  H27B 1997   3.632   1.447   5.350 -3.0360  0.2578  0.3731
   27CHL1  H27C 1998   3.720   1.308   5.411 -1.1804  0.4621 -3.3401
   28CHL1    C3 1999   4.472   2.555   7.031  0.4475 -0.3135  0.0035
   28CHL1    H3 2000   4.379   2.605   6.996  0.5695  0.9408  1.3883
   28CHL1    O3 2001   4.497   2.576   7.168  0.7179  0.0555 -0.0663
   28CHL1   H3' 2002   4.419   2.538   7.209  0.1283  0.8708 -0.3952
   28CHL1    C4 2003   4.465   2.400   7.005  0.5387 -0.0135  0.4948
   28CHL1   H4A 2004   4.559   2.359   7.049  0.4550 -0.3793  0.3293
   28CHL1   H4B 2005   4.380   2.360   7.064 -1.1363  0.4772 -1.4794
   28CHL1    C5 2006   4.459   2.349   6.863 -0.1394 -0.3434  0.2620
   28CHL1    C6 2007   4.363   2.267   6.818  0.2336 -0.0989 -0.2651
   28CHL1    H6 2008   4.287   2.235   6.891 -0.9859  1.1389 -0.9407
   28CHL1    C7 2009   4.348   2.221   6.678  0.1241  0.1864 -0.0436
   28CHL1   H7A 2010   4.349   2.110   6.670  0.2793  0.2995 -2.8843
   28CHL1   H7B 2011   4.250   2.252   6.635 -1.6758 -0.3863  3.2969
   28CHL1    C8 2012   4.466   2.273   6.588  0.3973  0.5838  0.5576
   28CHL1    H8 2013   4.550   2.201   6.599 -0.1539 -0.5858 -2.0463
   28CHL1   C14 2014   4.428   2.268   6.445 -0.2917  0.4538 -0.0789
   28CHL1   H14 2015   4.347   2.344   6.437 -0.1987  0.7258  1.2437
   28CHL1   C15 2016   4.376   2.127   6.404 -0.1386 -0.4439  0.2337
   28CHL1  H15A 2017   4.446   2.055   6.452 -0.4352 -2.1843 -1.8408
   28CHL1  H15B 2018   4.272   2.101   6.430  0.8290 -2.4336  2.5421
   28CHL1   C16 2019   4.388   2.135   6.249  1.3065  0.1341  0.0204
   28CHL1  H16A 2020   4.447   2.044   6.225  2.9929  1.2047 -0.0472
   28CHL1  H16B 2021   4.290   2.135   6.198  1.5036 -1.6046 -0.3950
   28CHL1   C17 2022   4.466   2.262   6.211 -0.7640 -0.5280 -0.7878
   28CHL1   H17 2023   4.386   2.336   6.189  1.0108  1.6572 -0.2729
   28CHL1   C13 2024   4.541   2.301   6.345 -0.0331  0.0788 -0.1755
   28CHL1   C18 2025   4.660   2.203   6.360  0.0855 -0.2550  0.4602
   28CHL1  H18A 2026   4.714   2.210   6.457  0.8239  0.3983  0.0146
   28CHL1  H18B 2027   4.639   2.098   6.331  0.2952 -0.7697  2.0757
   28CHL1  H18C 2028   4.746   2.232   6.296 -0.3341  2.7707  1.1247
   28CHL1   C12 2029   4.588   2.449   6.372  0.4352 -0.2472  0.1573
   28CHL1  H12A 2030   4.678   2.465   6.309 -0.1048  1.6968 -0.2110
   28CHL1  H12B 2031   4.509   2.519   6.335  0.3468 -0.7590 -0.6507
   28CHL1   C11 2032   4.634   2.465   6.516  0.3164  0.2598 -0.6608
   28CHL1  H11A 2033   4.735   2.420   6.513  0.9467  1.4247  1.0654
   28CHL1  H11B 2034   4.641   2.573   6.542 -1.2095 -0.0792  1.4645
   28CHL1    C9 2035   4.528   2.415   6.623  1.0893  0.3272 -0.0979
   28CHL1    H9 2036   4.448   2.491   6.614  2.0793  1.2285 -1.8371
   28CHL1   C10 2037   4.565   2.422   6.771 -0.3144 -0.4936  0.1909
   28CHL1   C19 2038   4.702   2.350   6.788 -0.5373 -0.2524  0.5193
   28CHL1  H19A 2039   4.717   2.246   6.753 -0.3572 -0.1542  0.2994
   28CHL1  H19B 2040   4.778   2.409   6.733 -0.6474 -1.3832 -0.9145
   28CHL1  H19C 2041   4.726   2.366   6.895 -1.5928 -1.2127  0.9237
   28CHL1    C1 2042   4.579   2.579   6.804 -0.2010  0.2422 -0.4846
   28CHL1   H1A 2043   4.666   2.620   6.748  0.0740  1.7059  0.9496
   28CHL1   H1B 2044   4.490   2.634   6.767 -0.8082 -0.5847 -0.2636
   28CHL1    C2 2045   4.590   2.614   6.955  0.3496  0.3722 -0.2482
   28CHL1   H2A 2046   4.582   2.724   6.973 -3.7375  0.0554  0.9439
   28CHL1   H2B 2047   4.686   2.573   6.992 -0.8567 -1.4044  1.0647
   28CHL1   C20 2048   4.548   2.251   6.082  0.1660 -0.2031  0.1392
   28CHL1   H20 2049   4.649   2.213   6.110  0.1392 -0.5370 -0.2189
   28CHL1   C21 2050   4.568   2.386   6.029  0.6737 -0.3991 -0.1444
   28CHL1  H21A 2051   4.629   2.391   5.936 -0.3085  0.2588 -0.7709
   28CHL1  H21B 2052   4.630   2.442   6.102 -0.8847  1.0203  0.1541
   28CHL1  H21C 2053   4.478   2.450   6.021 -0.0376 -1.3289  0.3043
   28CHL1   C22 2054   4.487   2.167   5.969  0.3688 -0.4649  0.3292
   28CHL1  H22A 2055   4.520   2.062   5.986  1.0369 -0.4647 -0.8792
   28CHL1  H22B 2056   4.378   2.188   5.973  0.1801 -1.2651 -0.2913
   28CHL1   C23 2057   4.513   2.195   5.823  0.1358  0.4458 -0.8833
   28CHL1  H23A 2058   4.471   2.297   5.806 -1.2561  0.2100  0.8071
   28CHL1  H23B 2059   4.623   2.198   5.808  0.8881 -0.2028  3.3807
   28CHL1   C24 2060   4.432   2.100   5.734 -0.1179  0.2433  0.9852
   28CHL1  H24A 2061   4.435   2.008   5.795  0.2447  0.4090  1.2223
   28CHL1  H24B 2062   4.326   2.134   5.731 -0.1772  0.0125 -0.1786
   28CHL1   C25 2063   4.483   2.072   5.584  0.2365  0.1441  0.1227
   28CHL1   H25 2064   4.487   2.166   5.525  0.5180  0.2468  0.3027
   28CHL1   C26 2065   4.619   2.004   5.582  0.1180 -0.4470 -0.3547
   28CHL1  H26A 2066   4.603   1.903   5.625 -1.6140 -0.1497 -0.2517
   28CHL1  H26B 2067   4.644   1.993   5.475  2.2647 -0.1532  0.0649
   28CHL1  H26C 2068   4.696   2.052   5.647  0.1199 -2.3854  1.1580
   28CHL1   C27 2069   4.389   1.977   5.508 -0.3017 -0.7319  0.0167
   28CHL1  H27A 2070   4.380   1.879   5.561 -1.4562 -2.3248 -2.9290
   28CHL1  H27B 2071   4.290   2.017   5.480  0.1873  0.7282  0.3078
   28CHL1  H27C 2072   4.441   1.937   5.418  1.2425 -3.2741  1.8943
   29CHL1    C3 2073   4.785   2.524   3.488  0.2146  0.5617 -1.0557
   29CHL1    H3 2074   4.814   2.631   3.490  0.9544  0.3543  0.0746
   29CHL1    O3 2075   4.762   2.491   3.352  0.0938 -0.7003 -0.0400
   29CHL1   H3' 2076   4.799   2.403   3.343  0.0895 -0.8320  1.1728
   29CHL1    C4 2077   4.905   2.435   3.535 -0.2150  0.2026 -0.6823
   29CHL1   H4A 2078   4.888   2.331   3.499  0.9918 -0.4188  0.4451
   29CHL1   H4B 2079   4.995   2.469   3.479  0.8967  0.0058  0.9142
   29CHL1    C5 2080   4.935   2.442   3.678 -0.0521 -0.1683 -0.0949
   29CHL1    C6 2081   5.061   2.469   3.722  0.0699 -0.0088 -0.6441
   29CHL1    H6 2082   5.148   2.469   3.656  0.8943  4.0736  0.2044
   29CHL1    C7 2083   5.102   2.468   3.870 -0.8552  0.4107  0.1807
   29CHL1   H7A 2084   5.191   2.402   3.876 -1.7127 -0.7566  0.3199
   29CHL1   H7B 2085   5.124   2.574   3.895  0.6601  0.0712  0.3787
   29CHL1    C8 2086   4.987   2.415   3.970  0.1184 -0.7010  0.3728
   29CHL1    H8 2087   4.985   2.304   3.971  1.6167 -0.8002 -1.5619
   29CHL1   C14 2088   5.012   2.467   4.113  0.2514 -0.1084 -0.0233
   29CHL1   H14 2089   4.985   2.575   4.113  2.0114  0.3600 -0.4806
   29CHL1   C15 2090   5.152   2.467   4.168  0.5042  0.1587 -0.0017
   29CHL1  H15A 2091   5.210   2.375   4.145 -1.9124 -0.7749 -2.8591
   29CHL1  H15B 2092   5.200   2.557   4.125 -1.6915  0.9377 -0.9454
   29CHL1   C16 2093   5.135   2.469   4.319  0.7800  0.1811 -0.2948
   29CHL1  H16A 2094   5.177   2.374   4.358 -2.0886 -0.1380  2.4312
   29CHL1  H16B 2095   5.188   2.553   4.369  0.7370 -0.7261  1.3739
   29CHL1   C17 2096   4.981   2.479   4.344  1.0881 -0.1767 -0.2673
   29CHL1   H17 2097   4.948   2.584   4.331  2.7120  0.3713 -0.1282
   29CHL1   C13 2098   4.921   2.414   4.215  0.3497  0.1097  0.6698
   29CHL1   C18 2099   4.920   2.254   4.229  0.5288  0.2012 -0.4795
   29CHL1  H18A 2100   5.024   2.216   4.233  0.6074  0.5294  1.8888
   29CHL1  H18B 2101   4.870   2.226   4.323  0.1509 -1.5828 -1.1756
   29CHL1  H18C 2102   4.867   2.205   4.145  1.3612 -1.1931 -0.2181
   29CHL1   C12 2103   4.777   2.459   4.170  0.0135 -0.3621  0.5738
   29CHL1  H12A 2104   4.702   2.414   4.239 -0.3333 -1.8378 -0.7114
   29CHL1  H12B 2105   4.765   2.569   4.185  1.1297 -0.0394 -0.6839
   29CHL1   C11 2106   4.737   2.428   4.023  0.9597 -0.0225 -0.1196
   29CHL1  H11A 2107   4.720   2.318   4.025 -2.2427  0.4096  1.1436
   29CHL1  H11B 2108   4.643   2.484   4.005  1.0987  0.0527 -0.6234
   29CHL1    C9 2109   4.847   2.473   3.924 -0.1542  0.1951 -0.8063
   29CHL1    H9 2110   4.868   2.582   3.932  1.7067 -0.0834 -1.2056
   29CHL1   C10 2111   4.815   2.436   3.778 -0.0374  0.6303  0.1374
   29CHL1   C19 2112   4.765   2.282   3.771 -0.3280  0.0286 -0.6405
   29CHL1  H19A 2113   4.736   2.258   3.666 -0.9615 -1.7834 -0.0923
   29CHL1  H19B 2114   4.844   2.209   3.799 -1.0952 -0.9188 -0.8900
   29CHL1  H19C 2115   4.676   2.277   3.837 -1.8877  2.5624 -2.3849
   29CHL1    C1 2116   4.704   2.531   3.728 -0.7105 -0.3571  0.5515
   29CHL1   H1A 2117   4.615   2.527   3.794  0.3703 -2.1894  1.9873
   29CHL1   H1B 2118   4.757   2.629   3.727 -0.6315 -0.3946 -0.9991
   29CHL1    C2 2119   4.661   2.501   3.579  0.3213 -0.0354  0.0285
   29CHL1   H2A 2120   4.578   2.571   3.556 -0.4777 -1.1900 -0.6664
   29CHL1   H2B 2121   4.612   2.403   3.567  1.0426 -0.3425 -0.4972
   29CHL1   C20 2122   4.938   2.431   4.484 -0.1479 -0.2699  0.7729
   29CHL1   H20 2123   4.952   2.321   4.480  0.0210 -0.2440  0.6533
   29CHL1   C21 2124   4.785   2.456   4.506 -0.7401 -0.2994 -0.1003
   29CHL1  H21A 2125   4.721   2.389   4.446  1.3771 -0.1765 -2.6790
   29CHL1  H21B 2126   4.755   2.560   4.482 -0.9100 -0.7997 -2.2113
   29CHL1  H21C 2127   4.769   2.432   4.613  3.5610 -0.0875  0.7962
   29CHL1   C22 2128   5.022   2.503   4.590  0.7786  0.3318  0.2868
   29CHL1  H22A 2129   5.132   2.504   4.578  0.6592 -2.6611 -2.7276
   29CHL1  H22B 2130   4.989   2.609   4.589 -0.8310 -0.1449 -0.1876
   29CHL1   C23 2131   4.999   2.456   4.732  0.2064 -0.0151 -0.4679
   29CHL1  H23A 2132   4.894   2.481   4.758  0.2764  1.6135 -1.5578
   29CHL1  H23B 2133   5.001   2.347   4.755  0.7104 -0.1043 -0.9089
   29CHL1   C24 2134   5.097   2.517   4.833  0.2993  0.0304 -0.0563
   29CHL1  H24A 2135   5.189   2.457   4.817  0.4787  0.2948 -0.0330
   29CHL1  H24B 2136   5.113   2.623   4.803  0.3246  1.0205  3.1409
   29CHL1   C25 2137   5.044   2.521   4.980  0.0541 -0.5502  0.6149
   29CHL1   H25 2138   4.938   2.550   4.967  0.3309  0.2447  0.0397
   29CHL1   C26 2139   5.059   2.382   5.049 -0.1281 -0.6779  0.2237
   29CHL1  H26A 2140   5.025   2.387   5.154  2.3157 -2.5448  1.2080
   29CHL1  H26B 2141   4.997   2.312   4.989  0.0995 -0.1695 -0.6343
   29CHL1  H26C 2142   5.165   2.347   5.054  1.8986  4.6415  3.1048
   29CHL1   C27 2143   5.120   2.632   5.051 -0.0789  0.1106  0.0678
   29CHL1  H27A 2144   5.228   2.608   5.066  0.1904  0.6280 -0.9692
   29CHL1  H27B 2145   5.115   2.728   4.995 -0.4626  0.1453  0.1602
   29CHL1  H27C 2146   5.080   2.651   5.152 -0.8058 -0.0380 -0.1903
   30CHL1    C3 2147   5.724   5.569   4.189  0.5066  0.3316  0.2857
   30CHL1    H3 2148   5.741   5.460   4.179  2.2460  0.5206  0.8138
   30CHL1    O3 2149   5.692   5.612   4.058 -0.5046  0.1303  0.4053
   30CHL1   H3' 2150   5.596   5.622   4.050 -0.7124  0.1334  2.2868
   30CHL1    C4 2151   5.601   5.597   4.287  0.8001  0.3674  0.3594
   30CHL1   H4A 2152   5.567   5.703   4.287 -0.0101  0.1165  1.2054
   30CHL1   H4B 2153   5.515   5.536   4.252 -0.4591  2.6537 -0.7715
   30CHL1    C5 2154   5.641   5.558   4.428 -0.3618 -1.0019  0.1323
   30CHL1    C6 2155   5.562   5.479   4.502  0.3712  0.5240  0.2738
   30CHL1    H6 2156   5.473   5.433   4.458  0.0639  1.2952  0.0612
   30CHL1    C7 2157   5.600   5.431   4.640 -0.4472 -0.8559 -0.7093
   30CHL1   H7A 2158   5.509   5.421   4.704 -0.9678 -1.9533 -1.5824
   30CHL1   H7B 2159   5.639   5.327   4.635 -1.1389 -1.0830 -1.7362
   30CHL1    C8 2160   5.711   5.519   4.709  0.5974  0.7392 -0.0149
   30CHL1    H8 2161   5.675   5.623   4.720  1.1839  1.1436 -1.6338
   30CHL1   C14 2162   5.753   5.463   4.830  0.2758 -0.1317 -0.8477
   30CHL1   H14 2163   5.786   5.357   4.817  0.3950 -0.0318 -1.4085
   30CHL1   C15 2164   5.649   5.431   4.936  0.7716 -0.1088  0.0029
   30CHL1  H15A 2165   5.588   5.518   4.968  0.1518 -0.6087  0.2118
   30CHL1  H15B 2166   5.580   5.352   4.899  3.2488 -2.0992 -0.6205
   30CHL1   C16 2167   5.740   5.395   5.055  0.2857  0.3893  0.7174
   30CHL1  H16A 2168   5.699   5.442   5.147  1.8838  0.6608  1.3172
   30CHL1  H16B 2169   5.757   5.286   5.066  1.7495  0.3031 -1.7369
   30CHL1   C17 2170   5.875   5.456   5.028 -0.0132  0.4542  0.0674
   30CHL1   H17 2171   5.942   5.372   5.002  2.7525  2.1920  1.1848
   30CHL1   C13 2172   5.857   5.539   4.902  0.0711 -0.3978  0.2260
   30CHL1   C18 2173   5.815   5.678   4.943  0.0942 -0.1771 -0.3681
   30CHL1  H18A 2174   5.734   5.682   5.019 -1.0315  0.2568 -1.5462
   30CHL1  H18B 2175   5.900   5.739   4.980  0.1216 -1.3177  1.6209
   30CHL1  H18C 2176   5.780   5.730   4.852  0.2225 -0.2957 -0.4865
   30CHL1   C12 2177   5.983   5.538   4.808  0.1805 -0.0460 -0.0999
   30CHL1  H12A 2178   6.070   5.589   4.855 -0.3474  0.4613  0.3422
   30CHL1  H12B 2179   5.999   5.429   4.794  2.1056  0.2331 -0.4121
   30CHL1   C11 2180   5.949   5.606   4.673  0.4577 -0.1334  0.4908
   30CHL1  H11A 2181   5.931   5.713   4.698 -1.2769 -0.0320 -1.0029
   30CHL1  H11B 2182   6.039   5.590   4.610  0.7044  1.9966  0.2453
   30CHL1    C9 2183   5.821   5.547   4.602 -0.7905  0.4012  0.0135
   30CHL1    H9 2184   5.852   5.442   4.582 -0.6763  0.0390  1.8811
   30CHL1   C10 2185   5.775   5.617   4.477 -0.3580 -0.1592 -0.8344
   30CHL1   C19 2186   5.762   5.772   4.493 -0.6962  0.1642 -0.6136
   30CHL1  H19A 2187   5.726   5.802   4.393  1.8679 -1.4171 -2.1241
   30CHL1  H19B 2188   5.692   5.790   4.578 -0.4390  2.5447 -0.8249
   30CHL1  H19C 2189   5.859   5.825   4.508 -0.6250  0.1185 -0.9147
   30CHL1    C1 2190   5.888   5.587   4.369  0.0625 -0.0476 -0.0606
   30CHL1   H1A 2191   5.976   5.650   4.391  1.4885 -1.2832 -1.9012
   30CHL1   H1B 2192   5.916   5.479   4.371 -1.0622 -0.3441  2.0270
   30CHL1    C2 2193   5.860   5.630   4.227 -0.4558  0.2929  0.2982
   30CHL1   H2A 2194   5.931   5.585   4.155 -2.1619  0.0977 -1.3288
   30CHL1   H2B 2195   5.860   5.740   4.214 -2.7192  0.5072  1.5183
   30CHL1   C20 2196   5.942   5.523   5.157  0.2021  0.6740  0.9285
   30CHL1   H20 2197   5.886   5.618   5.174  0.3505  1.0678 -0.6577
   30CHL1   C21 2198   6.098   5.552   5.135 -0.5560 -0.3199  0.1917
   30CHL1  H21A 2199   6.131   5.590   5.234 -1.5711 -1.6902  1.0969
   30CHL1  H21B 2200   6.127   5.622   5.053 -2.4731  0.1383 -0.1519
   30CHL1  H21C 2201   6.158   5.462   5.110  0.1618 -0.1312  1.1752
   30CHL1   C22 2202   5.923   5.440   5.288 -0.0683  0.0087  0.0199
   30CHL1  H22A 2203   5.965   5.496   5.374  1.9070 -1.6529  0.2473
   30CHL1  H22B 2204   5.814   5.424   5.302 -0.0085 -1.1659 -0.6958
   30CHL1   C23 2205   5.996   5.300   5.292  0.4043 -0.3719  0.8141
   30CHL1  H23A 2206   5.974   5.233   5.206  2.2971 -0.3681  0.2898
   30CHL1  H23B 2207   6.105   5.316   5.281 -0.0313  1.4206 -1.6222
   30CHL1   C24 2208   5.979   5.235   5.429 -0.4483  0.0523  0.3226
   30CHL1  H24A 2209   6.026   5.313   5.493  0.7041 -0.0800 -0.3306
   30CHL1  H24B 2210   5.874   5.214   5.459 -0.5031  0.1354  0.1877
   30CHL1   C25 2211   6.068   5.110   5.448 -0.4689  0.3673  0.3026
   30CHL1   H25 2212   6.167   5.131   5.402 -1.0068 -0.6037 -1.3744
   30CHL1   C26 2213   6.094   5.078   5.597 -0.3244 -0.8491 -0.4818
   30CHL1  H26A 2214   5.996   5.055   5.643 -0.7264  2.2022  0.3917
   30CHL1  H26B 2215   6.159   4.987   5.597 -2.6140 -2.5821  0.2582
   30CHL1  H26C 2216   6.139   5.156   5.661 -0.1744 -0.8749 -0.5552
   30CHL1   C27 2217   6.014   4.989   5.371  0.9319  0.7606 -0.0398
   30CHL1  H27A 2218   5.910   4.958   5.397  0.1313  2.7020 -0.7484
   30CHL1  H27B 2219   5.992   5.007   5.263 -3.3073 -0.6716  0.3688
   30CHL1  H27C 2220   6.080   4.900   5.374 -2.1872 -1.9275 -2.1160
   31CHL1    C3 2221   0.373   6.113   3.712  0.3678 -0.1673  0.1058
   31CHL1    H3 2222   0.316   6.202   3.744  1.5782  1.0414 -0.9627
   31CHL1    O3 2223   0.385   6.104   3.571  0.6665  0.5831  0.5364
   31CHL1   H3' 2224   0.437   6.024   3.560 -0.1000  0.0859  0.5005
   31CHL1    C4 2225   0.515   6.125   3.765 -1.2088 -0.8145 -0.7407
   31CHL1   H4A 2226   0.577   6.049   3.713 -1.5448 -0.5080 -1.6034
   31CHL1   H4B 2227   0.552   6.221   3.724  0.3642 -0.4871  1.3401
   31CHL1    C5 2228   0.513   6.110   3.922  0.2121 -0.1136  0.3827
   31CHL1    C6 2229   0.557   6.208   4.000 -1.0850 -0.3556  0.4253
   31CHL1    H6 2230   0.606   6.294   3.952  0.1105 -1.1735  0.1174
   31CHL1    C7 2231   0.568   6.195   4.153 -0.1029  0.3291 -0.3865
   31CHL1   H7A 2232   0.675   6.213   4.175 -0.7979  1.6670  2.4186
   31CHL1   H7B 2233   0.512   6.273   4.209  1.6979  0.9287  0.6659
   31CHL1    C8 2234   0.541   6.059   4.206 -0.0996  0.5556  0.0292
   31CHL1    H8 2235   0.632   5.997   4.188 -1.4559 -1.8191  0.8423
   31CHL1   C14 2236   0.502   6.066   4.355  0.1896  0.0403 -1.1165
   31CHL1   H14 2237   0.406   6.121   4.361 -0.4687 -1.0685 -1.3539
   31CHL1   C15 2238   0.587   6.147   4.456 -0.1012  0.6509 -0.0953
   31CHL1  H15A 2239   0.696   6.146   4.438 -0.0233  1.0660  0.3242
   31CHL1  H15B 2240   0.549   6.252   4.453 -1.0441  0.3786 -4.8530
   31CHL1   C16 2241   0.545   6.090   4.599  0.0240 -0.0060  0.5985
   31CHL1  H16A 2242   0.636   6.043   4.642  0.8305  0.4701 -0.5274
   31CHL1  H16B 2243   0.500   6.178   4.650 -0.4745  0.2688 -0.2982
   31CHL1   C17 2244   0.444   5.974   4.567 -0.7477 -0.0104  1.3143
   31CHL1   H17 2245   0.353   6.036   4.575 -1.4779 -0.7603 -0.6429
   31CHL1   C13 2246   0.479   5.931   4.420 -0.3479 -0.1217  0.4988
   31CHL1   C18 2247   0.599   5.840   4.429 -0.2453  0.2234  0.5083
   31CHL1  H18A 2248   0.658   5.825   4.336  0.4543 -0.5771  1.0638
   31CHL1  H18B 2249   0.673   5.856   4.510  0.7359  1.1914 -0.5318
   31CHL1  H18C 2250   0.562   5.737   4.451  2.5281 -1.4593 -1.8914
   31CHL1   C12 2251   0.354   5.873   4.348 -0.7701  0.3866 -0.8529
   31CHL1  H12A 2252   0.344   5.767   4.380 -1.6623  0.6699 -0.1916
   31CHL1  H12B 2253   0.261   5.931   4.358 -1.7967 -1.2686 -0.4629
   31CHL1   C11 2254   0.385   5.849   4.198 -0.7202  0.1989  0.1447
   31CHL1  H11A 2255   0.467   5.773   4.191 -1.5533 -0.6246 -1.2683
   31CHL1  H11B 2256   0.300   5.803   4.143 -1.0588 -0.5660  1.2789
   31CHL1    C9 2257   0.425   5.987   4.131 -0.3956  0.6623  0.3763
   31CHL1    H9 2258   0.330   6.042   4.147 -0.9048  0.5029 -1.7549
   31CHL1   C10 2259   0.441   5.986   3.977 -0.2321 -0.0732  0.5408
   31CHL1   C19 2260   0.532   5.872   3.933  0.8785 -0.2543 -0.4159
   31CHL1  H19A 2261   0.638   5.879   3.966  0.6396  0.3166  0.2708
   31CHL1  H19B 2262   0.492   5.771   3.958 -0.8859  0.1110 -1.6015
   31CHL1  H19C 2263   0.541   5.873   3.823  1.3697 -2.7931 -0.4651
   31CHL1    C1 2264   0.307   5.968   3.916 -0.1121  0.5088  0.1854
   31CHL1   H1A 2265   0.270   5.865   3.933 -1.2794  0.3556 -2.7296
   31CHL1   H1B 2266   0.229   6.034   3.960  0.6348  0.8396  1.0584
   31CHL1    C2 2267   0.308   5.983   3.764  0.3291  0.4315  0.0408
   31CHL1   H2A 2268   0.205   5.974   3.722 -0.8458  0.0001  2.7772
   31CHL1   H2B 2269   0.367   5.895   3.732 -0.5488 -1.0834  2.2653
   31CHL1   C20 2270   0.427   5.872   4.682  0.3091  0.1458  0.4199
   31CHL1   H20 2271   0.516   5.806   4.673  0.8381  0.9321 -0.2463
   31CHL1   C21 2272   0.295   5.796   4.656  0.2246  0.5254 -0.0584
   31CHL1  H21A 2273   0.309   5.709   4.588  2.2665  1.6209 -1.1212
   31CHL1  H21B 2274   0.227   5.869   4.607  3.0779  2.0244 -2.0972
   31CHL1  H21C 2275   0.255   5.759   4.753 -0.1439  0.5012 -0.2182
   31CHL1   C22 2276   0.435   5.939   4.819  0.6606 -0.8519  0.2037
   31CHL1  H22A 2277   0.533   5.990   4.826  0.3777  0.4657 -3.3175
   31CHL1  H22B 2278   0.356   6.017   4.829  0.8935 -0.5030 -0.5791
   31CHL1   C23 2279   0.416   5.839   4.934 -0.3060 -0.1430  0.3056
   31CHL1  H23A 2280   0.315   5.791   4.936 -0.3105 -0.1004  1.7358
   31CHL1  H23B 2281   0.492   5.760   4.918  0.2037  0.7899 -2.3978
   31CHL1   C24 2282   0.454   5.903   5.072 -0.1669 -0.4700  0.3525
   31CHL1  H24A 2283   0.562   5.930   5.066  0.2011 -2.1071 -2.2268
   31CHL1  H24B 2284   0.408   6.002   5.092  0.0295 -0.4555  0.7326
   31CHL1   C25 2285   0.401   5.811   5.189  0.1342 -0.4966  0.5949
   31CHL1   H25 2286   0.296   5.784   5.163  0.1718 -1.9825  1.8149
   31CHL1   C26 2287   0.464   5.673   5.193 -0.3704  1.0624 -0.3733
   31CHL1  H26A 2288   0.574   5.688   5.179 -0.1589 -0.3274 -0.3505
   31CHL1  H26B 2289   0.455   5.610   5.284 -0.7247  2.3323  0.4923
   31CHL1  H26C 2290   0.431   5.607   5.110 -0.0005  0.8492 -0.3544
   31CHL1   C27 2291   0.425   5.879   5.326 -0.0059  0.8093 -0.0288
   31CHL1  H27A 2292   0.384   5.808   5.401 -2.1067 -0.5170 -2.2805
   31CHL1  H27B 2293   0.530   5.897   5.357  0.4895  1.4832 -1.9327
   31CHL1  H27C 2294   0.379   5.980   5.320  0.2563  1.0271  1.3046
   32CHL1    C3 2295   5.589   3.010   3.757 -0.4237  0.5119 -0.2853
   32CHL1    H3 2296   5.670   2.936   3.769 -0.2388  0.6788 -0.5049
   32CHL1    O3 2297   5.589   3.041   3.621  0.0154  0.0340  0.2018
   32CHL1   H3' 2298   5.515   3.098   3.602 -0.1149  0.1142  0.9343
   32CHL1    C4 2299   5.443   2.955   3.791  0.5731  0.2128  0.7934
   32CHL1   H4A 2300   5.366   3.023   3.748 -0.4096  0.0682  2.2403
   32CHL1   H4B 2301   5.441   2.855   3.742 -1.4859  1.3253 -1.6160
   32CHL1    C5 2302   5.429   2.945   3.943  0.7542  0.3337 -0.2138
   32CHL1    C6 2303   5.396   2.828   3.998  0.4326 -0.5052 -0.4339
   32CHL1    H6 2304   5.365   2.754   3.923 -2.3184 -0.5380  0.6182
   32CHL1    C7 2305   5.374   2.802   4.147  0.2434 -0.3865 -0.9273
   32CHL1   H7A 2306   5.287   2.741   4.179  0.8079  0.0480  1.6494
   32CHL1   H7B 2307   5.458   2.738   4.184  0.7109  1.3206  1.1831
   32CHL1    C8 2308   5.367   2.942   4.218 -0.4972  0.3014  0.7869
   32CHL1    H8 2309   5.263   2.980   4.208  0.5069  3.2530  0.6371
   32CHL1   C14 2310   5.384   2.927   4.368  0.2777  0.7155  0.8185
   32CHL1   H14 2311   5.486   2.887   4.387 -0.0121  0.1586  1.2209
   32CHL1   C15 2312   5.286   2.827   4.438 -0.3748  0.1748 -0.7120
   32CHL1  H15A 2313   5.182   2.831   4.399 -0.0393  1.2606 -1.5405
   32CHL1  H15B 2314   5.316   2.720   4.434 -1.1659 -0.0625 -0.5726
   32CHL1   C16 2315   5.279   2.869   4.585 -0.7339 -0.5826 -0.6152
   32CHL1  H16A 2316   5.179   2.899   4.623  0.6991  2.5774  0.9799
   32CHL1  H16B 2317   5.327   2.789   4.646  0.6449 -1.4000 -2.6619
   32CHL1   C17 2318   5.373   2.996   4.590 -0.6225 -0.0370 -0.8817
   32CHL1   H17 2319   5.474   2.950   4.597 -0.5112  0.2190 -0.7463
   32CHL1   C13 2320   5.368   3.060   4.454  0.5347  1.1652  0.4020
   32CHL1   C18 2321   5.234   3.124   4.433  0.1255  0.0328  0.1092
   32CHL1  H18A 2322   5.145   3.094   4.491 -0.8086  1.4943 -0.5063
   32CHL1  H18B 2323   5.252   3.231   4.456  0.5768 -0.3001  1.3829
   32CHL1  H18C 2324   5.198   3.122   4.328 -2.9786 -1.3712  1.1005
   32CHL1   C12 2325   5.477   3.157   4.410 -0.6871  0.4528 -0.3257
   32CHL1  H12A 2326   5.466   3.256   4.458  0.2898  0.1455  0.5814
   32CHL1  H12B 2327   5.578   3.119   4.438 -0.3734  1.7958  0.4715
   32CHL1   C11 2328   5.467   3.170   4.260 -0.4244 -0.0150  0.0618
   32CHL1  H11A 2329   5.395   3.248   4.226  3.0454  3.1022 -0.7219
   32CHL1  H11B 2330   5.566   3.214   4.236  1.7308 -3.9086  0.9748
   32CHL1    C9 2331   5.471   3.042   4.175  0.2264 -0.2158  0.2720
   32CHL1    H9 2332   5.571   2.996   4.190 -0.8473 -3.5648 -1.8115
   32CHL1   C10 2333   5.464   3.069   4.021  0.1614  0.4006 -0.1037
   32CHL1   C19 2334   5.347   3.160   3.976  0.5821 -0.2104 -0.2415
   32CHL1  H19A 2335   5.337   3.176   3.867 -1.0607 -0.4389 -0.1519
   32CHL1  H19B 2336   5.248   3.124   4.012  0.3499  1.6095  1.0886
   32CHL1  H19C 2337   5.348   3.259   4.027 -1.2760 -0.1844 -0.1909
   32CHL1    C1 2338   5.595   3.141   3.974 -0.1850 -0.5573 -0.2890
   32CHL1   H1A 2339   5.604   3.248   4.004 -0.4705 -0.9550  1.2949
   32CHL1   H1B 2340   5.681   3.086   4.017 -0.6187 -1.3849 -0.4582
   32CHL1    C2 2341   5.608   3.144   3.822 -0.2086  0.1537  0.6704
   32CHL1   H2A 2342   5.711   3.175   3.794  0.3755 -2.0128  0.2895
   32CHL1   H2B 2343   5.529   3.212   3.785 -1.4545 -0.4750  2.0612
   32CHL1   C20 2344   5.362   3.080   4.720  0.5591  0.2675 -1.0081
   32CHL1   H20 2345   5.294   3.166   4.697 -0.8322 -0.5817 -0.1866
   32CHL1   C21 2346   5.498   3.146   4.765  0.3802 -0.4900 -0.1035
   32CHL1  H21A 2347   5.484   3.219   4.848  0.5305 -0.8167  0.2116
   32CHL1  H21B 2348   5.549   3.198   4.681  1.6380 -0.0427  0.8896
   32CHL1  H21C 2349   5.568   3.065   4.795  1.1116  0.3254  0.4481
   32CHL1   C22 2350   5.299   3.007   4.842 -0.5062  0.8512  0.7963
   32CHL1  H22A 2351   5.202   2.956   4.821  0.5322 -1.1875  0.6671
   32CHL1  H22B 2352   5.369   2.923   4.862 -1.2072  0.1591  0.4193
   32CHL1   C23 2353   5.291   3.078   4.983  0.0437 -0.0398  0.2905
   32CHL1  H23A 2354   5.393   3.095   5.025  1.3873  0.1964 -2.7846
   32CHL1  H23B 2355   5.247   3.178   4.965  0.6422  0.0750 -0.6284
   32CHL1   C24 2356   5.196   2.996   5.076  0.3865  0.2180 -0.1528
   32CHL1  H24A 2357   5.103   2.973   5.021  0.2852  0.7774 -0.2273
   32CHL1  H24B 2358   5.241   2.895   5.065 -1.7759 -0.8315  0.1105
   32CHL1   C25 2359   5.185   3.044   5.221  0.1822  0.0917  0.1102
   32CHL1   H25 2360   5.288   3.073   5.252 -0.0887  2.9651 -1.4275
   32CHL1   C26 2361   5.108   3.173   5.237 -0.4507  0.5274 -0.1097
   32CHL1  H26A 2362   5.113   3.219   5.337  2.9974 -1.2145  0.6870
   32CHL1  H26B 2363   5.147   3.250   5.166 -0.9695  0.1093 -0.8662
   32CHL1  H26C 2364   5.006   3.158   5.194 -0.7620  2.4290 -0.1091
   32CHL1   C27 2365   5.138   2.938   5.325 -0.6721 -0.3743  0.2963
   32CHL1  H27A 2366   5.115   2.989   5.421 -0.6077 -1.2591  0.7945
   32CHL1  H27B 2367   5.039   2.893   5.303 -0.5570  0.2924 -1.7741
   32CHL1  H27C 2368   5.220   2.864   5.340 -0.8761 -0.6679 -0.0162
   33CHL1    C3 2369   3.310   5.601   4.300 -0.0135 -0.1826 -0.2257
   33CHL1    H3 2370   3.322   5.705   4.264 -2.2950 -1.1645 -4.3637
   33CHL1    O3 2371   3.289   5.507   4.191 -0.1611 -0.3920 -0.3869
   33CHL1   H3' 2372   3.280   5.420   4.231  1.5513 -1.4388 -2.1201
   33CHL1    C4 2373   3.432   5.553   4.369 -0.5487 -0.7833 -0.3770
   33CHL1   H4A 2374   3.439   5.442   4.375 -0.3758 -0.6981  2.4646
   33CHL1   H4B 2375   3.514   5.584   4.301 -0.0630  3.4130  1.7815
   33CHL1    C5 2376   3.465   5.634   4.499 -0.5315 -0.4220 -0.0635
   33CHL1    C6 2377   3.580   5.701   4.514  0.5091 -0.0253 -0.1334
   33CHL1    H6 2378   3.660   5.701   4.438  0.9367  0.6821  0.2946
   33CHL1    C7 2379   3.603   5.772   4.645  0.8511 -0.2278  0.1009
   33CHL1   H7A 2380   3.707   5.757   4.681  1.1133  1.8165  0.3113
   33CHL1   H7B 2381   3.588   5.879   4.621 -1.7391 -0.8338 -1.2535
   33CHL1    C8 2382   3.506   5.735   4.763 -0.0923  0.0447 -0.3968
   33CHL1    H8 2383   3.530   5.631   4.794 -0.4015 -0.8741 -2.9680
   33CHL1   C14 2384   3.521   5.835   4.879  0.6367 -0.0028 -0.3597
   33CHL1   H14 2385   3.495   5.936   4.841 -0.9344 -0.5135 -0.6943
   33CHL1   C15 2386   3.656   5.848   4.944 -0.6797 -0.0996  0.1195
   33CHL1  H15A 2387   3.695   5.744   4.952 -4.0759 -1.3785  2.8420
   33CHL1  H15B 2388   3.732   5.904   4.887  0.5014  1.3385  2.9198
   33CHL1   C16 2389   3.619   5.916   5.078  0.5169 -0.2281  0.6011
   33CHL1  H16A 2390   3.664   5.860   5.163  0.3340 -1.7730 -0.2919
   33CHL1  H16B 2391   3.659   6.020   5.081 -0.8210  0.5969 -3.3581
   33CHL1   C17 2392   3.463   5.919   5.090 -0.4996 -0.7244 -0.3947
   33CHL1   H17 2393   3.443   6.016   5.039  1.1318  0.7267  1.5813
   33CHL1   C13 2394   3.417   5.810   4.990 -0.9795  0.1242 -0.5160
   33CHL1   C18 2395   3.427   5.671   5.058 -0.6023  0.6953  0.5137
   33CHL1  H18A 2396   3.520   5.665   5.118  1.8258 -0.4087 -3.0239
   33CHL1  H18B 2397   3.342   5.655   5.128  1.0993 -0.9763  2.3351
   33CHL1  H18C 2398   3.423   5.589   4.983 -1.3895  2.3830 -1.4054
   33CHL1   C12 2399   3.276   5.825   4.931  0.2833 -0.0551 -0.4492
   33CHL1  H12A 2400   3.199   5.813   5.010 -0.5966  0.3812 -1.2177
   33CHL1  H12B 2401   3.260   5.925   4.886 -1.4418 -1.0561 -2.2422
   33CHL1   C11 2402   3.250   5.734   4.816  0.2240 -0.0797 -0.3718
   33CHL1  H11A 2403   3.234   5.629   4.852 -4.1669  0.0997 -1.1807
   33CHL1  H11B 2404   3.149   5.758   4.775  0.4973 -0.0175 -1.0104
   33CHL1    C9 2405   3.359   5.737   4.707 -0.2289  0.7547  0.0874
   33CHL1    H9 2406   3.345   5.840   4.668 -0.2355  1.6621  2.3023
   33CHL1   C10 2407   3.336   5.633   4.590 -0.5580 -0.2967  0.1447
   33CHL1   C19 2408   3.320   5.483   4.645  0.0446 -0.4508  0.2872
   33CHL1  H19A 2409   3.297   5.406   4.568 -3.5767 -0.2769  1.0171
   33CHL1  H19B 2410   3.414   5.459   4.698  0.1851  1.5430  1.0332
   33CHL1  H19C 2411   3.229   5.475   4.708 -0.5168  0.0669 -0.4215
   33CHL1    C1 2412   3.204   5.672   4.516 -0.1769 -0.4301  0.4092
   33CHL1   H1A 2413   3.124   5.650   4.590  1.5368  0.4979  2.6410
   33CHL1   H1B 2414   3.215   5.782   4.500 -0.3518 -0.4592  0.0714
   33CHL1    C2 2415   3.186   5.596   4.385 -0.4488 -0.0230 -0.3233
   33CHL1   H2A 2416   3.109   5.648   4.323  0.4021  1.8237  0.1088
   33CHL1   H2B 2417   3.164   5.487   4.394 -0.5521 -0.1250 -1.5897
   33CHL1   C20 2418   3.409   5.933   5.234  0.0414  0.0241  0.7599
   33CHL1   H20 2419   3.400   5.832   5.279 -3.0873  0.0480  0.3814
   33CHL1   C21 2420   3.261   5.981   5.228 -1.2063  0.3461  0.5520
   33CHL1  H21A 2421   3.260   6.072   5.164  2.0925  0.2233  0.1535
   33CHL1  H21B 2422   3.220   5.986   5.331  0.0465 -0.6702  1.1169
   33CHL1  H21C 2423   3.207   5.894   5.184 -1.1718 -1.1408  3.2069
   33CHL1   C22 2424   3.488   6.021   5.329 -0.2805  0.5242  0.5886
   33CHL1  H22A 2425   3.444   6.034   5.431  1.2421  0.3915  1.2892
   33CHL1  H22B 2426   3.588   5.976   5.347  0.4774  1.8792 -0.1297
   33CHL1   C23 2427   3.514   6.170   5.281  0.3306 -0.7295  0.0605
   33CHL1  H23A 2428   3.569   6.175   5.185 -1.4492 -0.9897 -1.0324
   33CHL1  H23B 2429   3.414   6.216   5.265  0.5182 -1.1159 -2.7975
   33CHL1   C24 2430   3.587   6.255   5.394  0.3421 -0.5262  0.3461
   33CHL1  H24A 2431   3.606   6.360   5.362  1.6914 -0.8806 -0.1046
   33CHL1  H24B 2432   3.521   6.247   5.483 -1.0995  1.6866 -0.4411
   33CHL1   C25 2433   3.729   6.211   5.436  0.2363  0.4316  0.0091
   33CHL1   H25 2434   3.734   6.100   5.444 -0.3141  0.4509  0.7256
   33CHL1   C26 2435   3.842   6.275   5.351  0.4335  0.1740 -0.0181
   33CHL1  H26A 2436   3.837   6.386   5.355 -2.6745  0.2584 -2.4876
   33CHL1  H26B 2437   3.938   6.236   5.392 -0.2851 -2.1389 -0.4276
   33CHL1  H26C 2438   3.826   6.248   5.245  0.0043  0.0101  0.0867
   33CHL1   C27 2439   3.762   6.245   5.583  0.1863  0.4841  0.1783
   33CHL1  H27A 2440   3.840   6.175   5.618 -1.4707 -0.7615  1.5624
   33CHL1  H27B 2441   3.796   6.351   5.590 -1.2111  1.1000 -1.5901
   33CHL1  H27C 2442   3.668   6.247   5.643 -0.0861 -1.1083 -0.1573
   34CHL1    C3 2443   1.211   4.764   3.780 -0.6503  0.3778  0.2001
   34CHL1    H3 2444   1.319   4.766   3.806 -0.9591  0.7691  1.5595
   34CHL1    O3 2445   1.194   4.774   3.641 -0.0185 -0.0611 -0.1998
   34CHL1   H3' 2446   1.110   4.729   3.627  0.7352 -1.0590 -1.8000
   34CHL1    C4 2447   1.143   4.640   3.833 -0.9040 -0.1495 -1.1147
   34CHL1   H4A 2448   1.035   4.643   3.806 -1.5949 -1.4149  1.1378
   34CHL1   H4B 2449   1.165   4.544   3.782 -1.1201 -0.8247  0.0035
   34CHL1    C5 2450   1.154   4.622   3.984 -0.5616 -1.0893 -0.2870
   34CHL1    C6 2451   1.217   4.519   4.034  0.7442 -0.3405 -0.2005
   34CHL1    H6 2452   1.240   4.427   3.977  0.3316 -0.3202 -0.4008
   34CHL1    C7 2453   1.247   4.507   4.184 -0.1874  0.0771  0.3106
   34CHL1   H7A 2454   1.222   4.404   4.218  1.6025 -0.5209 -0.0907
   34CHL1   H7B 2455   1.355   4.526   4.200 -0.0512  0.3406 -0.8243
   34CHL1    C8 2456   1.160   4.603   4.274 -0.0385  0.2147 -0.4037
   34CHL1    H8 2457   1.055   4.568   4.279 -0.6032  2.0480  2.9646
   34CHL1   C14 2458   1.224   4.610   4.413 -0.3026  0.1292  0.5499
   34CHL1   H14 2459   1.323   4.656   4.394  0.5706 -1.0658  1.9891
   34CHL1   C15 2460   1.252   4.478   4.490 -0.5443  0.2786 -0.2045
   34CHL1  H15A 2461   1.172   4.401   4.488 -2.3023  1.9236  2.0279
   34CHL1  H15B 2462   1.346   4.434   4.449 -2.4139 -4.4591 -0.0482
   34CHL1   C16 2463   1.274   4.529   4.631  0.1957 -0.1163 -0.6232
   34CHL1  H16A 2464   1.239   4.458   4.708  3.5627  0.6654  1.8642
   34CHL1  H16B 2465   1.382   4.537   4.655  0.0291 -2.3134  1.1203
   34CHL1   C17 2466   1.231   4.678   4.639  0.3830 -0.1585  0.6067
   34CHL1   H17 2467   1.316   4.746   4.619  0.6958 -1.0793 -1.4478
   34CHL1   C13 2468   1.143   4.694   4.512  0.0317 -0.1898 -0.0940
   34CHL1   C18 2469   1.002   4.629   4.532 -0.0011 -0.1222  0.9942
   34CHL1  H18A 2470   0.939   4.685   4.604 -1.1523  1.0977 -0.8595
   34CHL1  H18B 2471   0.943   4.648   4.440 -1.2127 -1.5522  1.4418
   34CHL1  H18C 2472   0.998   4.521   4.560  3.5406 -0.5987  0.1664
   34CHL1   C12 2473   1.130   4.839   4.451 -1.0628  0.8430 -0.1908
   34CHL1  H12A 2474   1.071   4.909   4.514  1.9681  1.2495  2.4430
   34CHL1  H12B 2475   1.234   4.878   4.457 -0.7824  0.1495 -0.5262
   34CHL1   C11 2476   1.085   4.843   4.307  0.7052 -0.0187  0.4192
   34CHL1  H11A 2477   0.977   4.819   4.309  0.9565 -1.1782  2.6406
   34CHL1  H11B 2478   1.100   4.947   4.270 -1.1116  0.7275  1.6762
   34CHL1    C9 2479   1.160   4.742   4.214  0.3241  0.4909 -0.3474
   34CHL1    H9 2480   1.267   4.775   4.213  0.6810 -0.6299 -0.3701
   34CHL1   C10 2481   1.109   4.746   4.070 -0.2538  0.8054  0.1909
   34CHL1   C19 2482   0.957   4.746   4.061  0.6037  0.4604 -0.4232
   34CHL1  H19A 2483   0.920   4.728   3.959 -1.6889 -2.9167  0.8412
   34CHL1  H19B 2484   0.909   4.674   4.130  1.4389  0.7620  0.5172
   34CHL1  H19C 2485   0.916   4.846   4.088 -0.0243 -0.1807  1.1239
   34CHL1    C1 2486   1.171   4.874   3.999 -0.3866 -0.3839  0.4240
   34CHL1   H1A 2487   1.117   4.958   4.047  0.2135  1.1677 -1.5383
   34CHL1   H1B 2488   1.279   4.882   4.021 -0.5318 -0.1708  1.0775
   34CHL1    C2 2489   1.148   4.884   3.847  0.5126  0.2586  0.0882
   34CHL1   H2A 2490   1.192   4.981   3.815  0.2930  0.1471 -0.5513
   34CHL1   H2B 2491   1.039   4.884   3.831  0.1912  2.9966  1.6609
   34CHL1   C20 2492   1.165   4.708   4.777 -0.5325  0.4797 -0.1343
   34CHL1   H20 2493   1.057   4.683   4.783 -0.6729  1.1687  0.2873
   34CHL1   C21 2494   1.158   4.859   4.803 -0.8445 -0.5417 -0.5066
   34CHL1  H21A 2495   1.258   4.905   4.790 -0.5702 -0.9716  0.0382
   34CHL1  H21B 2496   1.128   4.872   4.909  1.0318  0.5553 -0.0770
   34CHL1  H21C 2497   1.089   4.902   4.727 -0.4701  0.3718 -0.3352
   34CHL1   C22 2498   1.230   4.635   4.897  0.5958 -0.0471 -0.0222
   34CHL1  H22A 2499   1.172   4.663   4.988  3.5033  3.3785  0.9945
   34CHL1  H22B 2500   1.226   4.525   4.881 -0.5060  0.2773 -2.3698
   34CHL1   C23 2501   1.369   4.686   4.942 -0.1679 -0.3563 -0.2685
   34CHL1  H23A 2502   1.436   4.710   4.856  0.6450 -4.0201 -0.8482
   34CHL1  H23B 2503   1.352   4.785   4.988 -0.3002 -0.6763  0.3747
   34CHL1   C24 2504   1.440   4.591   5.041 -0.0524  0.4964 -0.0722
   34CHL1  H24A 2505   1.372   4.563   5.123  0.5863 -0.9768 -0.0091
   34CHL1  H24B 2506   1.467   4.499   4.984  0.4511  1.3903 -1.3516
   34CHL1   C25 2507   1.580   4.634   5.097 -0.3177  0.5969  0.2501
   34CHL1   H25 2508   1.585   4.743   5.119  3.1948  0.4787  0.6045
   34CHL1   C26 2509   1.613   4.556   5.228  0.5037 -0.1767  0.6183
   34CHL1  H26A 2510   1.540   4.571   5.311  0.4913 -1.6253  0.8938
   34CHL1  H26B 2511   1.612   4.448   5.202 -0.0003  0.4037 -2.0715
   34CHL1  H26C 2512   1.710   4.590   5.270  1.4536 -0.7159 -1.0800
   34CHL1   C27 2513   1.697   4.608   4.997  0.0478  0.0226  0.2456
   34CHL1  H27A 2514   1.678   4.645   4.894 -0.8916 -2.0937 -0.3888
   34CHL1  H27B 2515   1.790   4.660   5.028  0.0982  0.7902 -1.0887
   34CHL1  H27C 2516   1.723   4.501   4.983  0.7960  0.5322 -2.9884
   35CHL1    C3 2517   3.071   6.093   4.155  0.3157 -0.8239 -0.2517
   35CHL1    H3 2518   3.130   6.179   4.116 -0.9776  0.2166  0.0511
   35CHL1    O3 2519   3.015   6.024   4.040 -0.2789 -0.5018  0.5332
   35CHL1   H3' 2520   3.089   6.011   3.979 -0.7117 -0.1314 -0.0848
   35CHL1    C4 2521   3.162   5.988   4.235  0.4747 -0.7887  0.7067
   35CHL1   H4A 2522   3.093   5.907   4.268  2.9093 -3.4036 -0.1788
   35CHL1   H4B 2523   3.241   5.948   4.168 -0.0412 -1.2496  0.3582
   35CHL1    C5 2524   3.216   6.061   4.354 -0.6236  0.5820  0.1998
   35CHL1    C6 2525   3.354   6.065   4.370  0.3735  0.5938  0.1660
   35CHL1    H6 2526   3.429   6.016   4.307  2.3995  0.9962  2.1437
   35CHL1    C7 2527   3.419   6.126   4.492  0.0607  0.4888  0.5135
   35CHL1   H7A 2528   3.500   6.061   4.530  0.1742  1.0709  1.2821
   35CHL1   H7B 2529   3.480   6.212   4.457 -0.0186  1.4044  2.5030
   35CHL1    C8 2530   3.320   6.160   4.609 -0.1324 -0.4073  0.9425
   35CHL1    H8 2531   3.297   6.067   4.666 -0.4669  0.3272  2.0465
   35CHL1   C14 2532   3.376   6.273   4.694 -0.1178  0.1980 -0.5168
   35CHL1   H14 2533   3.388   6.361   4.627 -1.0427  0.3125 -0.5387
   35CHL1   C15 2534   3.525   6.251   4.749  0.1153 -0.4462 -0.2226
   35CHL1  H15A 2535   3.535   6.146   4.784 -0.1697  0.5999  3.4778
   35CHL1  H15B 2536   3.603   6.270   4.672 -1.3611  0.9692 -1.4411
   35CHL1   C16 2537   3.545   6.348   4.859  0.0831 -0.3977  1.2986
   35CHL1  H16A 2538   3.549   6.294   4.956 -2.0608  0.3591  1.8766
   35CHL1  H16B 2539   3.636   6.404   4.830 -0.5764 -0.6594 -1.6267
   35CHL1   C17 2540   3.412   6.427   4.869 -0.1892 -0.3562  0.7466
   35CHL1   H17 2541   3.421   6.515   4.801  0.7297 -1.1795 -0.2248
   35CHL1   C13 2542   3.299   6.332   4.807  0.5755 -0.3331  0.5684
   35CHL1   C18 2543   3.259   6.221   4.907  0.0929  0.1078 -0.0974
   35CHL1  H18A 2544   3.181   6.154   4.864 -0.0200 -0.2317  0.6148
   35CHL1  H18B 2545   3.348   6.160   4.934  1.2285  1.3230 -0.9819
   35CHL1  H18C 2546   3.207   6.260   4.998 -3.1554 -0.3972 -1.5783
   35CHL1   C12 2547   3.183   6.405   4.739  0.0329  0.4563  0.4490
   35CHL1  H12A 2548   3.111   6.451   4.811  0.6839  0.7995  0.8869
   35CHL1  H12B 2549   3.231   6.485   4.680  0.1277  0.0280 -0.0651
   35CHL1   C11 2550   3.108   6.295   4.658  0.0540  0.3876 -0.2175
   35CHL1  H11A 2551   3.057   6.220   4.722  0.6838 -0.1323 -0.3057
   35CHL1  H11B 2552   3.032   6.350   4.599  0.3451 -1.2373 -2.2033
   35CHL1    C9 2553   3.191   6.217   4.553  0.1271 -0.4117  0.7233
   35CHL1    H9 2554   3.237   6.301   4.496  1.5195 -2.1832 -0.8995
   35CHL1   C10 2555   3.120   6.122   4.457  0.2595  0.3612 -0.2637
   35CHL1   C19 2556   3.034   6.011   4.533  0.4427  0.0229 -0.2226
   35CHL1  H19A 2557   2.969   5.956   4.462  0.8421 -1.0422  0.2218
   35CHL1  H19B 2558   3.102   5.945   4.591 -1.0232 -0.1182  1.4253
   35CHL1  H19C 2559   2.976   6.063   4.612  0.6457  0.6569 -0.4858
   35CHL1    C1 2560   3.019   6.213   4.370 -0.5017  0.7237 -0.2840
   35CHL1   H1A 2561   2.947   6.265   4.436 -0.0931  0.5913  0.2783
   35CHL1   H1B 2562   3.086   6.292   4.329  0.9263 -0.4163 -0.2442
   35CHL1    C2 2563   2.960   6.140   4.245  0.2647 -0.1891  0.1559
   35CHL1   H2A 2564   2.904   6.215   4.185  3.3613  1.5827 -0.7410
   35CHL1   H2B 2565   2.896   6.064   4.294 -2.6847  1.1257 -1.3996
   35CHL1   C20 2566   3.387   6.503   4.990 -0.3281 -0.0968 -0.0950
   35CHL1   H20 2567   3.391   6.427   5.071 -1.1957 -1.9522 -1.7090
   35CHL1   C21 2568   3.252   6.579   4.993  0.1784  0.8248 -0.5120
   35CHL1  H21A 2569   3.245   6.629   5.092  0.4031  2.7127 -1.4048
   35CHL1  H21B 2570   3.177   6.498   5.008  1.0434  0.5346  3.4717
   35CHL1  H21C 2571   3.238   6.652   4.912 -0.7791  1.8417  0.5399
   35CHL1   C22 2572   3.503   6.601   5.021 -0.0197  0.5437 -0.6184
   35CHL1  H22A 2573   3.596   6.581   4.963  0.7282  0.3764  0.5887
   35CHL1  H22B 2574   3.467   6.705   5.006  0.2824  0.9040  0.9229
   35CHL1   C23 2575   3.558   6.584   5.161 -0.8229  0.2706 -0.3465
   35CHL1  H23A 2576   3.480   6.584   5.240 -0.1397  0.0948  0.3448
   35CHL1  H23B 2577   3.610   6.485   5.165 -0.8212  0.2789 -0.1551
   35CHL1   C24 2578   3.660   6.703   5.193  0.5900  0.0518  0.4210
   35CHL1  H24A 2579   3.745   6.700   5.122 -1.0366 -0.3206 -1.6182
   35CHL1  H24B 2580   3.604   6.794   5.163  0.6898  0.1751  0.6079
   35CHL1   C25 2581   3.723   6.707   5.333 -0.2810  0.6398  0.1876
   35CHL1   H25 2582   3.731   6.599   5.359  1.3021  0.8730  0.8045
   35CHL1   C26 2583   3.860   6.776   5.325  0.0447  0.9047 -0.5783
   35CHL1  H26A 2584   3.909   6.791   5.423 -1.3286  0.9427  0.1343
   35CHL1  H26B 2585   3.931   6.719   5.262  1.2039  0.5523  1.0116
   35CHL1  H26C 2586   3.847   6.878   5.284 -0.1206  0.7391 -0.9488
   35CHL1   C27 2587   3.632   6.763   5.445  0.3502  0.1843 -0.0003
   35CHL1  H27A 2588   3.529   6.724   5.426 -0.1314  0.7703  1.2729
   35CHL1  H27B 2589   3.670   6.740   5.547 -0.0593  2.4132  0.7055
   35CHL1  H27C 2590   3.616   6.872   5.432  1.1803  0.2866 -0.1938
   36CHL1    C3 2591   7.009   2.239   4.036  0.4760 -0.0220  0.2436
   36CHL1    H3 2592   7.117   2.228   4.012  0.1796  0.8674 -1.7524
   36CHL1    O3 2593   6.935   2.232   3.912 -0.7467  0.5764  0.4767
   36CHL1   H3' 2594   6.841   2.223   3.926 -0.8873 -2.3616 -1.4220
   36CHL1    C4 2595   6.966   2.121   4.124 -0.6301  0.1077 -0.3699
   36CHL1   H4A 2596   6.855   2.112   4.117 -0.5671 -1.1825 -0.0145
   36CHL1   H4B 2597   7.011   2.026   4.088  3.0584  1.7373 -0.4338
   36CHL1    C5 2598   7.003   2.131   4.271 -0.3050  0.1324  0.1759
   36CHL1    C6 2599   7.076   2.039   4.332 -0.5823 -0.1236 -0.2076
   36CHL1    H6 2600   7.110   1.951   4.276 -0.3336  0.7638 -1.4966
   36CHL1    C7 2601   7.119   2.050   4.473  0.3039 -0.1952 -0.1056
   36CHL1   H7A 2602   7.130   1.946   4.512 -0.6271 -0.4655 -0.5398
   36CHL1   H7B 2603   7.221   2.094   4.480 -0.0455  0.8199 -1.2132
   36CHL1    C8 2604   7.032   2.146   4.554 -0.1812  0.2102 -0.2259
   36CHL1    H8 2605   6.935   2.098   4.578 -0.0490  1.1947  2.5956
   36CHL1   C14 2606   7.107   2.171   4.681  0.3347 -0.5268 -0.1469
   36CHL1   H14 2607   7.199   2.225   4.648 -0.5617  2.2167  1.5481
   36CHL1   C15 2608   7.163   2.055   4.767 -0.0003 -0.2770  0.4718
   36CHL1  H15A 2609   7.075   1.987   4.771 -0.4223  0.2717  0.6684
   36CHL1  H15B 2610   7.258   2.016   4.724  1.3394  3.6681 -0.6052
   36CHL1   C16 2611   7.190   2.121   4.910 -0.2094 -0.2713  0.3007
   36CHL1  H16A 2612   7.128   2.059   4.978 -1.6678  2.4409  1.6335
   36CHL1  H16B 2613   7.295   2.110   4.944  0.1168 -0.0311 -0.5932
   36CHL1   C17 2614   7.145   2.268   4.888 -0.0808 -0.3053 -0.5854
   36CHL1   H17 2615   7.232   2.318   4.840  0.7086 -0.5296  0.5413
   36CHL1   C13 2616   7.043   2.276   4.774 -0.3554 -0.1771 -0.3755
   36CHL1   C18 2617   6.902   2.227   4.826  0.5316  0.1281  0.9428
   36CHL1  H18A 2618   6.829   2.208   4.745  1.1447  0.9122  0.1860
   36CHL1  H18B 2619   6.932   2.133   4.878 -0.3127 -2.0700 -2.2264
   36CHL1  H18C 2620   6.860   2.308   4.889 -1.3441  0.5755 -0.7689
   36CHL1   C12 2621   7.035   2.408   4.694 -0.0077  0.0548 -0.1155
   36CHL1  H12A 2622   6.993   2.478   4.770  0.4437 -1.5831  1.7460
   36CHL1  H12B 2623   7.143   2.432   4.683 -0.3227  2.5924  1.4935
   36CHL1   C11 2624   6.967   2.389   4.558 -0.4107  0.1253  0.0725
   36CHL1  H11A 2625   6.861   2.358   4.576  0.6942 -2.7116  2.8423
   36CHL1  H11B 2626   6.964   2.489   4.510  0.8332 -0.4770 -1.3399
   36CHL1    C9 2627   7.021   2.278   4.472 -0.6299 -0.5904 -0.1608
   36CHL1    H9 2628   7.120   2.325   4.453 -0.7285  0.0499  0.8716
   36CHL1   C10 2629   6.959   2.266   4.333 -0.1006 -0.5179  0.0863
   36CHL1   C19 2630   6.808   2.271   4.334  0.2753  0.0477 -0.5152
   36CHL1  H19A 2631   6.757   2.359   4.378  0.4367  1.0089 -2.2013
   36CHL1  H19B 2632   6.764   2.275   4.233  2.1228  0.5601 -1.3486
   36CHL1  H19C 2633   6.777   2.175   4.382  2.3592 -0.5754 -0.2766
   36CHL1    C1 2634   7.004   2.391   4.249  0.7118 -0.7936 -0.2821
   36CHL1   H1A 2635   6.960   2.488   4.281  1.6668 -0.5525  0.3623
   36CHL1   H1B 2636   7.115   2.384   4.256  0.8947  2.3271  3.0903
   36CHL1    C2 2637   6.968   2.374   4.097 -0.1919 -0.7859  0.3422
   36CHL1   H2A 2638   7.019   2.460   4.049  0.2888 -0.8881  0.6650
   36CHL1   H2B 2639   6.857   2.383   4.098 -0.2678 -1.7009  1.2293
   36CHL1   C20 2640   7.116   2.353   5.016  0.3391  0.1944  0.2324
   36CHL1   H20 2641   7.047   2.437   4.992 -2.7822 -1.9526  1.1777
   36CHL1   C21 2642   7.243   2.420   5.050 -0.8383 -0.4012  0.0516
   36CHL1  H21A 2643   7.237   2.470   5.149  0.4545  0.8958 -0.4825
   36CHL1  H21B 2644   7.272   2.506   4.987 -1.2213  0.2732  0.7709
   36CHL1  H21C 2645   7.331   2.352   5.052 -0.5707 -0.0751  1.8549
   36CHL1   C22 2646   7.056   2.280   5.134  0.5103 -0.5641  0.1232
   36CHL1  H22A 2647   6.963   2.232   5.097 -1.7067  1.5619  2.5220
   36CHL1  H22B 2648   7.122   2.197   5.168 -0.9050 -0.4332  3.6559
   36CHL1   C23 2649   7.023   2.364   5.258 -0.5317  0.6461 -0.0989
   36CHL1  H23A 2650   6.964   2.294   5.322 -0.8046 -0.1271 -1.1529
   36CHL1  H23B 2651   7.119   2.381   5.310  0.4651 -1.5895 -1.0731
   36CHL1   C24 2652   6.943   2.498   5.245 -0.5460 -0.3610  0.1209
   36CHL1  H24A 2653   6.993   2.570   5.176 -1.9681 -0.0917 -0.6581
   36CHL1  H24B 2654   6.852   2.467   5.191  0.9100 -0.5122 -2.4170
   36CHL1   C25 2655   6.911   2.578   5.378  0.2310  0.0957  0.0261
   36CHL1   H25 2656   6.998   2.591   5.446 -1.6075  3.3543  2.0431
   36CHL1   C26 2657   6.857   2.722   5.342 -0.4278  0.4470 -0.5321
   36CHL1  H26A 2658   6.769   2.714   5.274 -1.0166 -0.5799  0.3214
   36CHL1  H26B 2659   6.821   2.777   5.432 -0.0144 -1.5933  0.9612
   36CHL1  H26C 2660   6.943   2.781   5.305  2.7800 -2.1500  2.1289
   36CHL1   C27 2661   6.810   2.498   5.463 -0.1321 -0.8045 -0.0517
   36CHL1  H27A 2662   6.846   2.393   5.466  0.3280 -1.0879 -5.5471
   36CHL1  H27B 2663   6.804   2.549   5.561  1.2614 -0.2602 -0.2310
   36CHL1  H27C 2664   6.708   2.499   5.418 -1.7414  0.6751  3.2999
   37CHL1    C3 2665   2.804   5.677   4.389  0.1390 -0.5793 -0.1607
   37CHL1    H3 2666   2.887   5.747   4.414 -0.9031  0.0196  1.7911
   37CHL1    O3 2667   2.810   5.619   4.261  0.2198  0.1142 -0.7508
   37CHL1   H3' 2668   2.723   5.580   4.251  0.9104 -0.9258 -3.6443
   37CHL1    C4 2669   2.795   5.563   4.485  0.2582 -0.1190  0.1924
   37CHL1   H4A 2670   2.702   5.506   4.469 -0.2517  0.8844 -0.5479
   37CHL1   H4B 2671   2.888   5.507   4.459  2.1481  2.8071  0.1286
   37CHL1    C5 2672   2.799   5.618   4.627  0.3961  0.4057  0.6309
   37CHL1    C6 2673   2.895   5.584   4.719 -0.7111 -0.2208 -0.2520
   37CHL1    H6 2674   2.977   5.518   4.685 -0.7651 -1.4825  1.8751
   37CHL1    C7 2675   2.894   5.641   4.860 -0.0311 -0.5055  0.6089
   37CHL1   H7A 2676   2.937   5.565   4.929  0.0451  0.2635  1.4346
   37CHL1   H7B 2677   2.966   5.726   4.862 -0.9158  0.3042 -0.7344
   37CHL1    C8 2678   2.758   5.703   4.903  0.0715  0.1565 -0.7004
   37CHL1    H8 2679   2.684   5.626   4.933  0.9756  0.6076  3.1782
   37CHL1   C14 2680   2.784   5.801   5.020 -0.1519 -0.4070  0.0531
   37CHL1   H14 2681   2.852   5.879   4.979  1.1653  0.0765  2.8784
   37CHL1   C15 2682   2.876   5.749   5.130 -0.4508  0.0464  0.0961
   37CHL1  H15A 2683   2.877   5.641   5.155  1.2351 -0.3477 -1.4280
   37CHL1  H15B 2684   2.982   5.770   5.103 -1.0087  0.4493 -2.0027
   37CHL1   C16 2685   2.832   5.839   5.248  0.0079 -0.7819  0.5664
   37CHL1  H16A 2686   2.785   5.779   5.329  0.4503  0.1350  1.5095
   37CHL1  H16B 2687   2.923   5.884   5.292  0.5318 -1.8158  0.5807
   37CHL1   C17 2688   2.734   5.958   5.190  0.5698 -0.0688  0.5794
   37CHL1   H17 2689   2.809   6.029   5.149  1.2851 -1.0102  0.2246
   37CHL1   C13 2690   2.668   5.884   5.071  0.7679 -0.3353 -0.5392
   37CHL1   C18 2691   2.565   5.793   5.134  0.3275  0.8931  0.0077
   37CHL1  H18A 2692   2.594   5.737   5.225 -0.4901 -2.0830 -1.4144
   37CHL1  H18B 2693   2.485   5.861   5.169  0.1879  0.1659  1.1510
   37CHL1  H18C 2694   2.520   5.728   5.056 -0.0537  1.6193 -0.3850
   37CHL1   C12 2695   2.611   5.971   4.956 -0.4727 -0.3864 -0.2243
   37CHL1  H12A 2696   2.511   6.016   4.974 -3.5564 -4.2691 -4.8685
   37CHL1  H12B 2697   2.687   6.046   4.927  0.5555 -1.2057  0.2986
   37CHL1   C11 2698   2.584   5.876   4.840  0.8515  0.0186  0.4065
   37CHL1  H11A 2699   2.495   5.813   4.860  0.0327  0.5908 -1.2226
   37CHL1  H11B 2700   2.560   5.930   4.746  1.6516 -0.0890  0.1422
   37CHL1    C9 2701   2.707   5.791   4.795  0.4452  0.2552  0.0370
   37CHL1    H9 2702   2.788   5.861   4.766 -1.2704  2.6649  0.7306
   37CHL1   C10 2703   2.677   5.711   4.666 -0.0111  0.1177  0.4979
   37CHL1   C19 2704   2.546   5.628   4.675  0.2518  0.0020  0.4370
   37CHL1  H19A 2705   2.525   5.596   4.571  0.9277  0.0213  0.2910
   37CHL1  H19B 2706   2.559   5.545   4.749 -0.2910  1.3438  2.1096
   37CHL1  H19C 2707   2.451   5.679   4.702  0.8151  1.4843 -0.3460
   37CHL1    C1 2708   2.658   5.813   4.549 -0.3816  0.6807 -0.2128
   37CHL1   H1A 2709   2.552   5.845   4.552 -0.1311  1.5972 -0.5909
   37CHL1   H1B 2710   2.724   5.901   4.569  0.7808  0.1941 -1.6867
   37CHL1    C2 2711   2.673   5.758   4.403 -0.4406  1.2482 -0.0747
   37CHL1   H2A 2712   2.677   5.846   4.336  2.3167  1.3691  0.1511
   37CHL1   H2B 2713   2.584   5.693   4.385  0.9392 -1.1843  1.2848
   37CHL1   C20 2714   2.647   6.021   5.294  0.3519 -0.0057 -0.0783
   37CHL1   H20 2715   2.581   5.947   5.342 -2.1248  2.5645  0.7521
   37CHL1   C21 2716   2.552   6.136   5.241  0.8308 -0.0814  0.1863
   37CHL1  H21A 2717   2.493   6.173   5.327  1.8710 -0.7288  1.2113
   37CHL1  H21B 2718   2.485   6.094   5.163 -1.5832  0.3894  1.9139
   37CHL1  H21C 2719   2.601   6.226   5.199 -0.1656 -0.4698 -1.9458
   37CHL1   C22 2720   2.742   6.087   5.406 -0.6605 -0.3858 -0.6703
   37CHL1  H22A 2721   2.679   6.149   5.473 -2.5853 -1.5541 -1.3257
   37CHL1  H22B 2722   2.785   6.011   5.474 -2.0698 -0.4255  0.1889
   37CHL1   C23 2723   2.845   6.190   5.355  0.1253 -0.4423 -0.7296
   37CHL1  H23A 2724   2.915   6.134   5.289 -1.6615 -0.7111 -2.4868
   37CHL1  H23B 2725   2.796   6.263   5.287  1.2543 -0.5604 -1.7183
   37CHL1   C24 2726   2.911   6.271   5.464  0.7115  0.2628 -0.0865
   37CHL1  H24A 2727   2.829   6.320   5.522  1.5132  1.5005  0.0374
   37CHL1  H24B 2728   2.956   6.199   5.536 -1.7920  0.3581  1.7271
   37CHL1   C25 2729   3.025   6.369   5.421  0.7482 -0.6140 -0.1240
   37CHL1   H25 2730   2.989   6.427   5.333  1.6125 -0.8957 -0.6709
   37CHL1   C26 2731   3.050   6.462   5.533  0.4632 -0.2090  1.1519
   37CHL1  H26A 2732   3.111   6.406   5.607  2.2138 -0.0632 -0.1112
   37CHL1  H26B 2733   3.104   6.545   5.484 -0.3667 -1.0533 -1.3567
   37CHL1  H26C 2734   2.951   6.499   5.569  1.5819  0.1541  4.0945
   37CHL1   C27 2735   3.157   6.295   5.376  0.6227  0.7031 -0.5700
   37CHL1  H27A 2736   3.194   6.248   5.470 -1.5053 -2.5687 -1.2028
   37CHL1  H27B 2737   3.145   6.224   5.292  1.8551  1.5104 -1.4608
   37CHL1  H27C 2738   3.238   6.360   5.338 -1.9723  3.2170 -2.1945
   38CHL1    C3 2739   5.281   4.276   3.706 -0.0571 -0.2075 -0.3487
   38CHL1    H3 2740   5.297   4.386   3.708  0.9569 -0.3432 -0.3230
   38CHL1    O3 2741   5.244   4.235   3.577  0.3557 -0.4123  0.5216
   38CHL1   H3' 2742   5.218   4.142   3.581  0.6332 -0.5177 -0.0263
   38CHL1    C4 2743   5.417   4.221   3.750 -0.2448  0.5228 -0.4422
   38CHL1   H4A 2744   5.422   4.116   3.714  0.6990  0.9366 -1.5896
   38CHL1   H4B 2745   5.488   4.286   3.694 -0.3792 -0.9933 -2.4916
   38CHL1    C5 2746   5.447   4.232   3.899  0.4145 -0.4147 -0.3211
   38CHL1    C6 2747   5.561   4.286   3.948  0.1265 -0.5646 -0.2646
   38CHL1    H6 2748   5.636   4.335   3.885 -1.3529  1.0622 -0.8489
   38CHL1    C7 2749   5.595   4.263   4.092 -0.2310  0.3356 -0.5429
   38CHL1   H7A 2750   5.699   4.225   4.100  0.2035  1.6665  0.4767
   38CHL1   H7B 2751   5.599   4.361   4.144  0.2945  0.6233 -1.1140
   38CHL1    C8 2752   5.502   4.169   4.181 -0.0429 -0.3881 -0.3791
   38CHL1    H8 2753   5.527   4.066   4.148 -1.6138 -0.2548 -2.1187
   38CHL1   C14 2754   5.515   4.190   4.336  0.0697 -0.0243  0.2370
   38CHL1   H14 2755   5.503   4.300   4.351  0.1539 -0.1464  1.3154
   38CHL1   C15 2756   5.652   4.190   4.392 -0.0775  0.1539  0.1333
   38CHL1  H15A 2757   5.702   4.095   4.365 -0.2463 -0.2821  1.2697
   38CHL1  H15B 2758   5.718   4.273   4.361  0.4848  0.6260  2.4336
   38CHL1   C16 2759   5.635   4.173   4.540 -0.0101  0.0477 -0.0007
   38CHL1  H16A 2760   5.695   4.086   4.575  0.6885  0.1002 -0.9946
   38CHL1  H16B 2761   5.666   4.267   4.590  2.6660 -0.5384 -0.3560
   38CHL1   C17 2762   5.482   4.155   4.558 -0.3482  0.4499  0.0539
   38CHL1   H17 2763   5.444   4.259   4.569 -0.7470  0.2613  0.5196
   38CHL1   C13 2764   5.429   4.107   4.424  0.1219  0.4016 -0.1332
   38CHL1   C18 2765   5.469   3.960   4.398  0.2769  0.1522 -0.1831
   38CHL1  H18A 2766   5.380   3.906   4.438 -0.8073  1.5826 -0.5913
   38CHL1  H18B 2767   5.480   3.935   4.290 -1.0229  1.4194 -0.6505
   38CHL1  H18C 2768   5.564   3.931   4.448  0.2603 -1.0178 -0.7760
   38CHL1   C12 2769   5.282   4.130   4.379  0.3797 -0.2329 -0.2863
   38CHL1  H12A 2770   5.213   4.065   4.438  0.9901 -0.0186  0.6902
   38CHL1  H12B 2771   5.258   4.237   4.393 -0.4263 -0.6315  1.7920
   38CHL1   C11 2772   5.261   4.103   4.230 -0.1119 -0.1472  0.4760
   38CHL1  H11A 2773   5.266   3.993   4.215 -0.7231 -0.1843  0.5044
   38CHL1  H11B 2774   5.154   4.132   4.222  0.0692  0.7271  1.1045
   38CHL1    C9 2775   5.359   4.178   4.140 -0.1017  0.7683 -0.3738
   38CHL1    H9 2776   5.346   4.288   4.154  3.0993  1.2598 -0.5349
   38CHL1   C10 2777   5.333   4.158   3.985  0.0953  0.6675 -0.4683
   38CHL1   C19 2778   5.339   4.003   3.941 -0.3023  0.2961  0.5589
   38CHL1  H19A 2779   5.443   3.967   3.954  0.0043  0.6767 -0.7219
   38CHL1  H19B 2780   5.283   3.930   4.003 -1.6148 -0.9538 -1.9728
   38CHL1  H19C 2781   5.304   3.986   3.837 -1.4048  4.9557 -0.0707
   38CHL1    C1 2782   5.199   4.219   3.941 -0.2535 -0.2663  0.1534
   38CHL1   H1A 2783   5.111   4.167   3.983 -0.5567 -0.2690 -0.4716
   38CHL1   H1B 2784   5.200   4.323   3.978  1.0911  0.0755 -0.7522
   38CHL1    C2 2785   5.174   4.224   3.796 -0.0070  0.5845  0.6136
   38CHL1   H2A 2786   5.076   4.273   3.779 -1.1597 -1.2635  1.5346
   38CHL1   H2B 2787   5.156   4.119   3.763  0.5677  0.9991 -1.1721
   38CHL1   C20 2788   5.449   4.068   4.680  0.3322  0.3467 -0.2471
   38CHL1   H20 2789   5.456   3.962   4.650  0.0553 -0.3238  1.8891
   38CHL1   C21 2790   5.304   4.089   4.724 -0.1124 -0.2475 -0.5144
   38CHL1  H21A 2791   5.255   4.105   4.626  0.0012  1.4578 -0.3244
   38CHL1  H21B 2792   5.298   4.180   4.788  2.2187 -1.3252  1.3806
   38CHL1  H21C 2793   5.269   4.001   4.781  2.3553 -0.9837 -0.0096
   38CHL1   C22 2794   5.544   4.098   4.800 -0.1325 -0.6678 -0.0740
   38CHL1  H22A 2795   5.643   4.057   4.771  1.5385  1.7271  1.8396
   38CHL1  H22B 2796   5.570   4.206   4.809  1.1200 -0.9982  0.5647
   38CHL1   C23 2797   5.497   4.043   4.931  1.3235 -0.2414 -0.4010
   38CHL1  H23A 2798   5.389   4.057   4.951  1.0533 -1.5678 -0.8715
   38CHL1  H23B 2799   5.504   3.933   4.935 -0.4141 -0.5652 -3.3997
   38CHL1   C24 2800   5.586   4.090   5.051 -0.6216 -0.2117  0.5116
   38CHL1  H24A 2801   5.692   4.093   5.018 -0.2418 -0.0596  1.7256
   38CHL1  H24B 2802   5.541   4.187   5.079 -1.2740 -0.7636  1.4399
   38CHL1   C25 2803   5.582   3.990   5.165 -0.3121 -0.5200 -0.3586
   38CHL1   H25 2804   5.622   3.895   5.123 -0.8121 -0.2699 -1.4513
   38CHL1   C26 2805   5.680   4.027   5.280 -0.0491 -0.1923 -0.4715
   38CHL1  H26A 2806   5.681   3.937   5.344  2.7159  0.1606  0.0944
   38CHL1  H26B 2807   5.782   4.032   5.237 -1.8545  2.6568 -5.2569
   38CHL1  H26C 2808   5.647   4.117   5.336  1.7315 -0.9181  1.8558
   38CHL1   C27 2809   5.442   3.956   5.223 -0.3372 -0.4626 -0.3901
   38CHL1  H27A 2810   5.374   3.921   5.143  1.5922 -0.8867 -1.9145
   38CHL1  H27B 2811   5.452   3.886   5.309  1.6634 -1.5383 -1.4293
   38CHL1  H27C 2812   5.402   4.050   5.268 -1.9526 -1.0383 -0.5510
   39CHL1    C3 2813   6.284   5.228   3.730  0.7845 -0.2257 -0.0502
   39CHL1    H3 2814   6.362   5.150   3.718 -0.6373 -1.3757 -2.7221
   39CHL1    O3 2815   6.228   5.254   3.603  0.4500  0.0768  1.0197
   39CHL1   H3' 2816   6.136   5.278   3.616  0.6427  0.2083  2.2294
   39CHL1    C4 2817   6.170   5.167   3.821  0.5004 -0.0324 -0.2258
   39CHL1   H4A 2818   6.081   5.233   3.813  0.8176  0.3787 -0.3911
   39CHL1   H4B 2819   6.140   5.071   3.773 -0.0891  1.0263 -2.0665
   39CHL1    C5 2820   6.191   5.142   3.970  0.3174 -0.6389  0.2879
   39CHL1    C6 2821   6.168   5.023   4.028 -0.1736 -0.2420  0.1550
   39CHL1    H6 2822   6.129   4.938   3.970  2.0511 -3.0684  2.5244
   39CHL1    C7 2823   6.199   4.999   4.174  0.4956  0.5711  0.4146
   39CHL1   H7A 2824   6.114   4.940   4.215 -0.7681 -0.1666 -2.8687
   39CHL1   H7B 2825   6.291   4.939   4.192 -0.4403 -0.6377  1.3408
   39CHL1    C8 2826   6.217   5.131   4.252 -0.1926 -0.4990  0.3763
   39CHL1    H8 2827   6.115   5.172   4.265  0.2788  0.6854  0.5073
   39CHL1   C14 2828   6.284   5.102   4.389  0.8535  0.0310 -0.2512
   39CHL1   H14 2829   6.388   5.072   4.362  1.3379  0.5135  1.0108
   39CHL1   C15 2830   6.222   4.982   4.473 -0.0739  0.0338  0.2028
   39CHL1  H15A 2831   6.111   4.990   4.462 -0.1631  1.5359  1.7479
   39CHL1  H15B 2832   6.267   4.886   4.440 -0.9622 -0.2340 -0.2583
   39CHL1   C16 2833   6.278   5.019   4.611 -0.2858 -0.0347  0.1448
   39CHL1  H16A 2834   6.190   5.032   4.678  0.3383  0.9649  0.7869
   39CHL1  H16B 2835   6.348   4.943   4.652  1.0882  0.1704 -1.6845
   39CHL1   C17 2836   6.357   5.151   4.597  0.4251  0.2013 -0.2034
   39CHL1   H17 2837   6.459   5.117   4.572  0.5342  0.1349  0.3239
   39CHL1   C13 2838   6.299   5.221   4.476 -0.1291 -0.3028  0.0430
   39CHL1   C18 2839   6.157   5.280   4.510  0.5809 -0.1231  0.4516
   39CHL1  H18A 2840   6.102   5.302   4.416  0.0629 -0.6435  0.6242
   39CHL1  H18B 2841   6.094   5.213   4.572  0.0054  0.1393  0.1597
   39CHL1  H18C 2842   6.178   5.376   4.562  0.4582 -0.0082  0.2912
   39CHL1   C12 2843   6.399   5.316   4.400 -0.2284  0.7192  0.4616
   39CHL1  H12A 2844   6.419   5.413   4.450 -2.1901  2.1984 -1.4243
   39CHL1  H12B 2845   6.489   5.256   4.375 -0.7580 -0.0382  0.3470
   39CHL1   C11 2846   6.341   5.351   4.259 -0.5256 -0.3503  0.3195
   39CHL1  H11A 2847   6.251   5.410   4.284 -0.2713  1.7806 -3.1054
   39CHL1  H11B 2848   6.415   5.417   4.210 -0.7135 -0.1388  0.3170
   39CHL1    C9 2849   6.307   5.233   4.175  0.0858  0.4675  0.5339
   39CHL1    H9 2850   6.400   5.176   4.153  0.4573  1.8587 -1.7580
   39CHL1   C10 2851   6.251   5.268   4.034 -0.7919  0.0482  0.8474
   39CHL1   C19 2852   6.149   5.385   4.051  0.2306 -0.0911 -0.4321
   39CHL1  H19A 2853   6.185   5.473   4.109  1.2401 -1.5514  1.2743
   39CHL1  H19B 2854   6.112   5.401   3.948 -0.7478 -1.8101 -0.3830
   39CHL1  H19C 2855   6.061   5.354   4.111  1.2589  0.3524  1.3671
   39CHL1    C1 2856   6.364   5.336   3.951  0.2941  0.5522  1.0523
   39CHL1   H1A 2857   6.393   5.435   3.993 -0.4627  2.2139 -2.0636
   39CHL1   H1B 2858   6.454   5.272   3.938  1.1925  1.8928  0.3832
   39CHL1    C2 2859   6.335   5.355   3.799  0.3664  0.4669 -0.4272
   39CHL1   H2A 2860   6.425   5.394   3.745  0.8756 -0.8105 -0.5263
   39CHL1   H2B 2861   6.258   5.435   3.795 -1.6696 -0.9919  3.8809
   39CHL1   C20 2862   6.362   5.229   4.730 -1.2520 -0.5926  0.4006
   39CHL1   H20 2863   6.261   5.269   4.749 -1.2602 -0.9804  1.1966
   39CHL1   C21 2864   6.461   5.344   4.711 -0.0599  0.1005  0.0474
   39CHL1  H21A 2865   6.402   5.423   4.660 -0.6072 -0.0709  0.4051
   39CHL1  H21B 2866   6.544   5.324   4.639  0.5631 -1.0954  1.0617
   39CHL1  H21C 2867   6.496   5.369   4.813 -0.6705  0.5292  0.1575
   39CHL1   C22 2868   6.392   5.145   4.851 -0.9549  0.7745 -0.6412
   39CHL1  H22A 2869   6.377   5.209   4.941 -0.7040 -1.0809  0.7849
   39CHL1  H22B 2870   6.316   5.065   4.868  2.4817 -3.0843 -1.7801
   39CHL1   C23 2871   6.530   5.075   4.875  0.1588  0.5780 -0.0841
   39CHL1  H23A 2872   6.544   4.997   4.798  0.0218 -0.0901  0.5563
   39CHL1  H23B 2873   6.613   5.143   4.847  0.2956  0.6230  0.4289
   39CHL1   C24 2874   6.559   5.046   5.023  0.1144 -0.3649  0.5940
   39CHL1  H24A 2875   6.668   5.026   5.033  0.1819  0.4267  1.5287
   39CHL1  H24B 2876   6.528   5.133   5.085 -1.4856  1.5577 -2.6460
   39CHL1   C25 2877   6.475   4.920   5.068  0.3227 -0.7619  0.1935
   39CHL1   H25 2878   6.374   4.962   5.092  1.5663  2.1462  0.7596
   39CHL1   C26 2879   6.472   4.813   4.957 -0.1353  0.1048 -0.3811
   39CHL1  H26A 2880   6.446   4.719   5.011  0.1898  0.6091  0.6731
   39CHL1  H26B 2881   6.394   4.826   4.878 -1.7622 -0.5167  1.0465
   39CHL1  H26C 2882   6.573   4.807   4.912 -0.9993  0.7031 -2.5648
   39CHL1   C27 2883   6.535   4.863   5.196 -1.0338 -0.5653  0.3858
   39CHL1  H27A 2884   6.549   4.944   5.271  1.9155  0.0189 -0.6522
   39CHL1  H27B 2885   6.475   4.780   5.238 -2.1524  0.2864  0.5064
   39CHL1  H27C 2886   6.634   4.823   5.165 -2.1452 -2.5789 -0.7802
   40CHL1    C3 2887   2.605   2.552   3.544  0.2264 -0.3496 -0.4773
   40CHL1    H3 2888   2.706   2.588   3.516  0.3272  0.4833  0.8739
   40CHL1    O3 2889   2.522   2.573   3.428 -0.0985 -0.0526  0.2175
   40CHL1   H3' 2890   2.452   2.635   3.450 -0.9506 -0.7406 -0.4455
   40CHL1    C4 2891   2.614   2.405   3.576 -0.2710  0.0143  0.1550
   40CHL1   H4A 2892   2.514   2.360   3.593 -0.0899 -0.1326  0.8614
   40CHL1   H4B 2893   2.651   2.354   3.484  0.3072 -1.9653  1.4442
   40CHL1    C5 2894   2.701   2.375   3.694  0.5809  0.1811 -0.1459
   40CHL1    C6 2895   2.810   2.299   3.689  0.2203  0.6930 -0.2161
   40CHL1    H6 2896   2.832   2.257   3.590 -1.2512  0.1718 -0.3484
   40CHL1    C7 2897   2.908   2.276   3.803 -0.3121 -0.2014  0.6417
   40CHL1   H7A 2898   2.942   2.170   3.809  3.8191  0.9978  1.7812
   40CHL1   H7B 2899   3.003   2.333   3.793 -1.1286  2.0519  4.0397
   40CHL1    C8 2900   2.836   2.308   3.938 -0.6411  0.2966 -0.0314
   40CHL1    H8 2901   2.757   2.233   3.960  0.2211 -0.6630 -0.1321
   40CHL1   C14 2902   2.944   2.308   4.050  0.3268 -0.1700  0.1420
   40CHL1   H14 2903   3.003   2.401   4.036 -0.2289  0.5337  2.0701
   40CHL1   C15 2904   3.040   2.184   4.072  0.5552  0.9784  0.2775
   40CHL1  H15A 2905   2.986   2.087   4.068  1.8854  0.2534 -1.7294
   40CHL1  H15B 2906   3.118   2.179   3.993  1.6269 -1.2633  1.4068
   40CHL1   C16 2907   3.099   2.211   4.211 -0.0135  0.4433  0.0270
   40CHL1  H16A 2908   3.111   2.125   4.281 -1.2803  0.2313  0.0090
   40CHL1  H16B 2909   3.196   2.261   4.190  0.9614 -0.9404  1.0188
   40CHL1   C17 2910   3.010   2.325   4.282  0.4447 -0.3331  0.3681
   40CHL1   H17 2911   3.077   2.413   4.268  2.2320 -1.4145  1.7074
   40CHL1   C13 2912   2.880   2.337   4.191 -0.2425  0.1302  0.2897
   40CHL1   C18 2913   2.772   2.229   4.237 -0.6896 -0.3894 -0.4755
   40CHL1  H18A 2914   2.727   2.259   4.333  0.0719  2.2085 -0.8478
   40CHL1  H18B 2915   2.683   2.226   4.170 -1.5162 -2.3100  0.6523
   40CHL1  H18C 2916   2.803   2.123   4.244 -1.7978 -0.8335 -1.9030
   40CHL1   C12 2917   2.825   2.483   4.189  0.0606 -0.0744 -0.6919
   40CHL1  H12A 2918   2.766   2.505   4.280  1.5549 -1.1287  0.5872
   40CHL1  H12B 2919   2.904   2.561   4.186 -1.1928  1.5298  2.9377
   40CHL1   C11 2920   2.723   2.497   4.082 -0.2989  0.3484  1.0144
   40CHL1  H11A 2921   2.636   2.441   4.123 -0.0091 -0.5074  0.5001
   40CHL1  H11B 2922   2.698   2.605   4.074 -0.1733  0.2628 -1.7669
   40CHL1    C9 2923   2.773   2.447   3.942 -0.4044  0.0854  0.0212
   40CHL1    H9 2924   2.858   2.512   3.911  0.6120 -1.2908 -0.1371
   40CHL1   C10 2925   2.664   2.462   3.826  0.5057 -0.3847  0.2483
   40CHL1   C19 2926   2.530   2.422   3.883  0.3043  0.2629 -0.0023
   40CHL1  H19A 2927   2.534   2.325   3.937 -1.7966 -0.0539 -0.3151
   40CHL1  H19B 2928   2.501   2.497   3.960  3.2842  2.9014 -1.2004
   40CHL1  H19C 2929   2.449   2.420   3.808  1.3205  3.5038 -1.3554
   40CHL1    C1 2930   2.650   2.606   3.774  0.2140 -0.2530  0.1333
   40CHL1   H1A 2931   2.616   2.668   3.860 -0.3391  0.1935 -0.3936
   40CHL1   H1B 2932   2.750   2.631   3.734 -0.2718 -1.3592 -1.9242
   40CHL1    C2 2933   2.551   2.632   3.662  0.0162  0.5543 -0.0344
   40CHL1   H2A 2934   2.554   2.739   3.630  0.9011  0.4659 -0.2673
   40CHL1   H2B 2935   2.447   2.603   3.688 -0.4125  1.0056 -1.2024
   40CHL1   C20 2936   2.999   2.307   4.437 -0.0012  0.1033  0.4754
   40CHL1   H20 2937   2.924   2.227   4.454  0.4539 -0.6466 -0.9003
   40CHL1   C21 2938   2.957   2.439   4.501  1.4015 -0.0284 -0.2707
   40CHL1  H21A 2939   3.014   2.529   4.467 -2.1659  1.4560 -3.0330
   40CHL1  H21B 2940   2.953   2.429   4.611  1.1376  1.2684 -0.1403
   40CHL1  H21C 2941   2.856   2.472   4.469  1.3180 -0.3709 -0.3613
   40CHL1   C22 2942   3.127   2.260   4.501  0.6286  0.5141 -0.4667
   40CHL1  H22A 2943   3.095   2.246   4.607  0.0402 -2.2107 -0.9275
   40CHL1  H22B 2944   3.162   2.159   4.472 -0.4907  0.5857 -2.1683
   40CHL1   C23 2945   3.249   2.354   4.502  1.0269 -0.4199 -0.1155
   40CHL1  H23A 2946   3.258   2.388   4.397 -1.5852  1.1014  0.0910
   40CHL1  H23B 2947   3.227   2.452   4.550 -1.8292 -0.0613 -1.9244
   40CHL1   C24 2948   3.379   2.305   4.560 -0.2271  0.0446 -0.2757
   40CHL1  H24A 2949   3.360   2.240   4.648  0.7173  2.7997  2.1764
   40CHL1  H24B 2950   3.439   2.244   4.490  2.0125  0.9442  0.7594
   40CHL1   C25 2951   3.468   2.417   4.606  0.2306 -0.5721  0.6867
   40CHL1   H25 2952   3.420   2.466   4.694  1.4709 -1.0231  1.6496
   40CHL1   C26 2953   3.603   2.370   4.663  0.4428  0.4712  1.2899
   40CHL1  H26A 2954   3.597   2.345   4.771  0.4443 -0.8135  1.0059
   40CHL1  H26B 2955   3.643   2.277   4.618  0.0507 -0.2405  2.3552
   40CHL1  H26C 2956   3.681   2.447   4.642 -0.6015  0.6895 -2.4963
   40CHL1   C27 2957   3.495   2.525   4.499 -0.2264 -0.1514 -0.6836
   40CHL1  H27A 2958   3.564   2.597   4.549 -0.0238  0.2155 -1.4787
   40CHL1  H27B 2959   3.545   2.488   4.407  2.6251 -1.0423  1.0766
   40CHL1  H27C 2960   3.409   2.587   4.468  1.9126  1.1599 -4.6569
   41CHL1    C3 2961   6.768   7.048   4.268 -0.2545 -1.3871 -0.1144
   41CHL1    H3 2962   6.846   6.975   4.297 -0.8956 -0.5441  4.3197
   41CHL1    O3 2963   6.760   7.047   4.127  0.5214 -0.5081 -0.0795
   41CHL1   H3' 2964   6.698   7.120   4.117  1.4702  0.2887 -0.2420
   41CHL1    C4 2965   6.629   7.005   4.325 -0.3958  0.3972  0.2096
   41CHL1   H4A 2966   6.554   7.067   4.271  0.5217  2.1234  0.8395
   41CHL1   H4B 2967   6.617   6.897   4.303 -0.4959 -0.0628  2.3117
   41CHL1    C5 2968   6.627   7.026   4.476  0.4784 -0.4527 -0.8818
   41CHL1    C6 2969   6.603   6.923   4.564 -0.5106 -0.4672  0.6250
   41CHL1    H6 2970   6.580   6.825   4.520 -4.1697  1.1121 -1.3981
   41CHL1    C7 2971   6.584   6.945   4.709 -0.0471 -0.2229  0.4047
   41CHL1   H7A 2972   6.488   6.895   4.736 -1.0672  1.8799  0.9676
   41CHL1   H7B 2973   6.668   6.915   4.775 -0.5170 -1.8641  0.3075
   41CHL1    C8 2974   6.555   7.095   4.743 -0.1369 -0.8633  0.3972
   41CHL1    H8 2975   6.455   7.129   4.709  0.5774  1.4238  0.4149
   41CHL1   C14 2976   6.565   7.116   4.895 -0.4557 -0.5005 -0.4981
   41CHL1   H14 2977   6.671   7.110   4.926 -1.0903 -0.0153  1.9779
   41CHL1   C15 2978   6.490   7.023   4.992  0.3636 -0.1666  0.7563
   41CHL1  H15A 2979   6.390   7.000   4.950  1.0678  0.5549 -1.4434
   41CHL1  H15B 2980   6.555   6.933   5.003  0.7829  0.0091 -0.1744
   41CHL1   C16 2981   6.490   7.105   5.119  0.0148 -0.4971  0.8414
   41CHL1  H16A 2982   6.382   7.105   5.145 -0.0174 -1.2652  0.7228
   41CHL1  H16B 2983   6.554   7.070   5.203  1.1477 -0.0369  0.1814
   41CHL1   C17 2984   6.542   7.244   5.091  0.8515 -0.7877 -0.0539
   41CHL1   H17 2985   6.651   7.235   5.113  0.7516 -0.3411  0.6619
   41CHL1   C13 2986   6.528   7.259   4.944 -0.0811 -0.5751 -0.2796
   41CHL1   C18 2987   6.383   7.297   4.897  0.5802  0.2423  0.5421
   41CHL1  H18A 2988   6.351   7.396   4.934 -1.9159 -0.5894  0.7957
   41CHL1  H18B 2989   6.383   7.315   4.787  0.9647 -0.8150  0.3529
   41CHL1  H18C 2990   6.301   7.225   4.918 -0.1068  0.5231 -0.9796
   41CHL1   C12 2991   6.623   7.363   4.881 -0.0304 -0.2447  0.7047
   41CHL1  H12A 2992   6.592   7.470   4.880 -1.0333 -0.4195 -2.7382
   41CHL1  H12B 2993   6.728   7.351   4.914  0.6895  0.9050 -0.9928
   41CHL1   C11 2994   6.626   7.337   4.722  0.2836  0.4569  0.7601
   41CHL1  H11A 2995   6.532   7.373   4.675  1.3983  0.6338 -1.4183
   41CHL1  H11B 2996   6.699   7.406   4.677 -0.5188 -0.9458 -3.0599
   41CHL1    C9 2997   6.651   7.189   4.670 -0.2562  0.0650 -1.0297
   41CHL1    H9 2998   6.754   7.169   4.706 -1.0783 -2.7696 -0.0481
   41CHL1   C10 2999   6.651   7.171   4.518 -0.0432 -0.1026  0.3268
   41CHL1   C19 3000   6.545   7.270   4.448 -1.0914 -0.5887 -1.0033
   41CHL1  H19A 3001   6.580   7.374   4.464  1.3594 -1.2537 -1.6591
   41CHL1  H19B 3002   6.534   7.258   4.338 -0.7411 -0.5311 -1.0442
   41CHL1  H19C 3003   6.449   7.262   4.504 -0.2038 -1.4428  0.4535
   41CHL1    C1 3004   6.796   7.206   4.470  0.0790 -0.3575  0.5130
   41CHL1   H1A 3005   6.809   7.314   4.490 -0.8129 -0.0344 -0.5557
   41CHL1   H1B 3006   6.860   7.137   4.530  0.5070  1.4231  2.2398
   41CHL1    C2 3007   6.809   7.189   4.318 -0.4836 -0.1176 -0.1706
   41CHL1   H2A 3008   6.911   7.204   4.275 -1.9063  1.7019 -3.2364
   41CHL1   H2B 3009   6.745   7.270   4.278 -2.4965 -1.8134 -0.5147
   41CHL1   C20 3010   6.483   7.358   5.179  0.0273 -0.0857  0.6654
   41CHL1   H20 3011   6.489   7.451   5.119 -0.6095 -0.9348 -0.7701
   41CHL1   C21 3012   6.575   7.376   5.302 -0.1355  0.0322 -0.1866
   41CHL1  H21A 3013   6.578   7.286   5.368 -2.2271  0.5543  0.7075
   41CHL1  H21B 3014   6.543   7.465   5.360 -0.7560  0.1447 -0.6873
   41CHL1  H21C 3015   6.679   7.393   5.268 -0.1750  2.6913  0.8564
   41CHL1   C22 3016   6.339   7.340   5.237 -0.7473  0.0124  0.1841
   41CHL1  H22A 3017   6.267   7.290   5.169  0.3469 -0.4723 -0.6572
   41CHL1  H22B 3018   6.346   7.279   5.330  1.2503  0.2149  0.2083
   41CHL1   C23 3019   6.265   7.469   5.257 -0.1985  0.5085 -0.0079
   41CHL1  H23A 3020   6.313   7.554   5.310 -1.1102  0.2009  1.3690
   41CHL1  H23B 3021   6.239   7.504   5.155  0.6244 -0.2793 -0.4996
   41CHL1   C24 3022   6.130   7.447   5.325 -0.0719  0.1291  0.2914
   41CHL1  H24A 3023   6.074   7.542   5.334 -0.8964 -0.2820 -0.3692
   41CHL1  H24B 3024   6.070   7.381   5.258  2.7095 -1.5725 -0.6903
   41CHL1   C25 3025   6.132   7.381   5.464  0.1347  0.2461  0.4211
   41CHL1   H25 3026   6.190   7.286   5.460 -1.2989 -0.6929  0.8810
   41CHL1   C26 3027   6.208   7.468   5.564  0.0601  0.0746 -0.1715
   41CHL1  H26A 3028   6.168   7.439   5.663  2.1628  1.5949  1.2120
   41CHL1  H26B 3029   6.314   7.437   5.555 -0.3035 -2.6141  2.8583
   41CHL1  H26C 3030   6.191   7.576   5.547  1.5086  0.5959  1.3584
   41CHL1   C27 3031   5.999   7.340   5.514 -0.1605 -0.1604  0.1329
   41CHL1  H27A 3032   6.022   7.282   5.606  1.3506 -1.0011 -0.7255
   41CHL1  H27B 3033   5.927   7.425   5.516 -0.1197 -0.1242  0.0822
   41CHL1  H27C 3034   5.951   7.262   5.451 -3.4099  0.0155  2.1780
   42CHL1    C3 3035   4.670   4.724   3.933  0.1166  0.1554  0.2490
   42CHL1    H3 3036   4.597   4.801   3.966 -0.2971  0.9670 -2.3517
   42CHL1    O3 3037   4.666   4.730   3.792  0.2858  0.1990 -0.0507
   42CHL1   H3' 3038   4.608   4.666   3.750  0.1541  1.1181 -1.3375
   42CHL1    C4 3039   4.819   4.753   3.982  0.8951  0.6047 -0.3779
   42CHL1   H4A 3040   4.894   4.695   3.925  1.0094 -1.0448  1.3309
   42CHL1   H4B 3041   4.847   4.858   3.960  0.0119  1.3339  1.6322
   42CHL1    C5 3042   4.839   4.722   4.130 -0.2159 -0.0193 -0.6046
   42CHL1    C6 3043   4.893   4.817   4.220  0.2578  1.0308 -0.2783
   42CHL1    H6 3044   4.922   4.917   4.186 -0.0203  1.0616 -0.4329
   42CHL1    C7 3045   4.914   4.793   4.370  0.4930  0.5394  0.2201
   42CHL1   H7A 3046   5.006   4.845   4.404  2.2580 -2.6397  0.6700
   42CHL1   H7B 3047   4.825   4.835   4.423  0.2820 -0.9566  1.1035
   42CHL1    C8 3048   4.920   4.642   4.399  0.3069 -0.0491  0.0516
   42CHL1    H8 3049   5.011   4.588   4.365  1.6387  1.2020  1.5099
   42CHL1   C14 3050   4.904   4.622   4.548 -0.5026 -0.3433  0.3965
   42CHL1   H14 3051   4.809   4.666   4.585 -0.2499 -0.3595  1.0856
   42CHL1   C15 3052   4.995   4.708   4.638 -0.0482 -0.4531 -0.6789
   42CHL1  H15A 3053   5.099   4.685   4.609 -0.1536  0.0057 -1.4397
   42CHL1  H15B 3054   4.985   4.816   4.615  0.7036 -0.4851 -1.1724
   42CHL1   C16 3055   4.962   4.649   4.777  0.1507 -0.1490  0.5825
   42CHL1  H16A 3056   5.049   4.659   4.846  0.1396  3.5760  0.2654
   42CHL1  H16B 3057   4.874   4.712   4.804  0.0772  0.5661 -1.1814
   42CHL1   C17 3058   4.912   4.503   4.754 -0.2960  0.5776  0.5992
   42CHL1   H17 3059   4.807   4.508   4.791 -0.5450 -0.5559  0.0891
   42CHL1   C13 3060   4.913   4.476   4.604 -0.0142 -0.9546 -0.1629
   42CHL1   C18 3061   5.052   4.411   4.562 -0.6256 -0.4281 -0.1330
   42CHL1  H18A 3062   5.061   4.403   4.452  2.7014 -1.0154  0.0837
   42CHL1  H18B 3063   5.126   4.484   4.602 -2.8918  0.5894  2.5038
   42CHL1  H18C 3064   5.060   4.308   4.602  1.6502  0.0770  0.9412
   42CHL1   C12 3065   4.794   4.401   4.541 -0.1573 -0.6989 -0.1481
   42CHL1  H12A 3066   4.799   4.296   4.577  2.2989 -0.2207  1.1231
   42CHL1  H12B 3067   4.704   4.448   4.586  0.8565  3.2624 -1.8397
   42CHL1   C11 3068   4.793   4.424   4.390 -0.0246  0.5023 -0.1638
   42CHL1  H11A 3069   4.880   4.367   4.350  1.0315  1.7845  0.2311
   42CHL1  H11B 3070   4.700   4.379   4.348 -0.7784  2.0428 -0.2250
   42CHL1    C9 3071   4.803   4.568   4.334 -0.2876 -1.3006 -0.7244
   42CHL1    H9 3072   4.704   4.613   4.357 -0.4278 -0.6933 -2.3657
   42CHL1   C10 3073   4.800   4.581   4.176 -0.1373 -0.1106  0.3333
   42CHL1   C19 3074   4.902   4.486   4.100  0.3150  0.3714 -0.2813
   42CHL1  H19A 3075   4.880   4.479   3.991 -0.6332 -2.3988 -0.0114
   42CHL1  H19B 3076   5.008   4.510   4.122  1.4484 -3.5792 -0.5395
   42CHL1  H19C 3077   4.879   4.382   4.133  1.6277 -0.2853 -1.3500
   42CHL1    C1 3078   4.652   4.560   4.124  0.4707  0.1111  0.5086
   42CHL1   H1A 3079   4.612   4.464   4.162  0.4898  0.1832  0.7113
   42CHL1   H1B 3080   4.588   4.636   4.173 -0.5324  1.5944 -2.8229
   42CHL1    C2 3081   4.633   4.577   3.968 -0.0382 -0.3607  0.2704
   42CHL1   H2A 3082   4.524   4.568   3.953 -0.2698 -0.6087  1.9376
   42CHL1   H2B 3083   4.690   4.506   3.904  1.4973  2.1810 -1.3713
   42CHL1   C20 3084   4.972   4.393   4.846  0.0841 -0.1309  0.2987
   42CHL1   H20 3085   5.079   4.374   4.825 -0.2000 -0.7505 -0.6952
   42CHL1   C21 3086   4.893   4.255   4.825 -0.9432 -0.3952  0.3693
   42CHL1  H21A 3087   4.915   4.179   4.903 -0.9720 -0.5711  0.2074
   42CHL1  H21B 3088   4.934   4.212   4.732  1.5718  0.4422  1.0184
   42CHL1  H21C 3089   4.782   4.270   4.824 -1.2670 -2.4140  1.1808
   42CHL1   C22 3090   4.970   4.431   4.996  0.3632  0.4791  0.2241
   42CHL1  H22A 3091   5.003   4.534   5.023  0.3664  0.1691  1.4779
   42CHL1  H22B 3092   4.862   4.432   5.020  0.7453  3.3093  2.4848
   42CHL1   C23 3093   5.013   4.319   5.096  0.2164 -0.4827  0.0913
   42CHL1  H23A 3094   4.960   4.222   5.083  1.0214 -0.9847  0.4727
   42CHL1  H23B 3095   5.122   4.303   5.083  0.3090 -0.6184  0.9668
   42CHL1   C24 3096   4.991   4.379   5.239 -0.1332  0.4276 -0.2633
   42CHL1  H24A 3097   5.061   4.462   5.257  1.1971 -0.5461 -0.8140
   42CHL1  H24B 3098   4.888   4.422   5.241 -1.0948 -1.7510  0.7120
   42CHL1   C25 3099   5.001   4.274   5.346 -1.1395 -0.1208  0.1873
   42CHL1   H25 3100   4.914   4.210   5.319 -1.3449 -0.8062  2.2799
   42CHL1   C26 3101   5.135   4.199   5.340  0.0645 -0.3245 -0.3511
   42CHL1  H26A 3102   5.161   4.134   5.426  2.2787 -1.8174 -2.0246
   42CHL1  H26B 3103   5.148   4.133   5.252 -3.1279 -0.1112 -1.0822
   42CHL1  H26C 3104   5.220   4.270   5.331 -0.6123  0.3440 -1.6494
   42CHL1   C27 3105   4.973   4.324   5.485  0.1268  0.1108  0.6520
   42CHL1  H27A 3106   4.887   4.393   5.486 -0.1969 -0.1879 -1.4970
   42CHL1  H27B 3107   4.953   4.240   5.555 -1.4490  0.2380  0.3796
   42CHL1  H27C 3108   5.062   4.381   5.521 -1.0226  2.5282 -0.0953
   43CHL1    C3 3109   3.991   4.464   4.042 -0.0792 -0.4543  0.2691
   43CHL1    H3 3110   3.894   4.518   4.042 -0.9685 -1.9807  0.2053
   43CHL1    O3 3111   4.026   4.438   3.906  0.2264 -0.3576 -0.1431
   43CHL1   H3' 3112   4.010   4.522   3.862 -0.2455  0.3930  1.3832
   43CHL1    C4 3113   4.103   4.539   4.103 -0.1969  0.5949 -0.1968
   43CHL1   H4A 3114   4.197   4.478   4.099 -1.8713 -2.2509  1.0235
   43CHL1   H4B 3115   4.121   4.634   4.049 -1.4014  0.3909 -1.0077
   43CHL1    C5 3116   4.075   4.567   4.252  0.0598 -1.5097 -0.3535
   43CHL1    C6 3117   4.058   4.698   4.287 -0.3771  0.4411 -0.0368
   43CHL1    H6 3118   4.051   4.775   4.209 -3.4415 -0.6887 -1.0214
   43CHL1    C7 3119   3.997   4.728   4.419  0.0861 -0.3143  0.3721
   43CHL1   H7A 3120   4.041   4.820   4.462  0.9714 -1.0404  1.0604
   43CHL1   H7B 3121   3.889   4.753   4.408  0.2611  1.7658  2.4910
   43CHL1    C8 3122   4.024   4.622   4.522 -0.4432  0.5599 -0.5479
   43CHL1    H8 3123   4.134   4.627   4.541 -0.4025  1.7790 -0.9969
   43CHL1   C14 3124   3.955   4.658   4.645  0.2074 -0.3628 -0.3294
   43CHL1   H14 3125   3.846   4.672   4.631  0.2143 -0.8774 -0.9520
   43CHL1   C15 3126   3.997   4.790   4.715 -0.1141  0.2337  0.5357
   43CHL1  H15A 3127   4.107   4.809   4.712 -0.5503  3.1401 -0.5183
   43CHL1  H15B 3128   3.954   4.884   4.675  0.5531  0.1057 -0.5184
   43CHL1   C16 3129   3.938   4.773   4.851  0.3117  0.0064 -0.2730
   43CHL1  H16A 3130   4.015   4.797   4.927 -0.1280  0.5333  0.0146
   43CHL1  H16B 3131   3.854   4.843   4.871  1.3935  1.4125 -0.5021
   43CHL1   C17 3132   3.888   4.620   4.873  0.0321 -0.1786 -0.7457
   43CHL1   H17 3133   3.778   4.622   4.861 -0.2737 -1.9692  1.1201
   43CHL1   C13 3134   3.957   4.548   4.756  0.7154  0.7012 -0.4790
   43CHL1   C18 3135   4.102   4.523   4.800 -0.1520  0.1354 -0.6128
   43CHL1  H18A 3136   4.101   4.455   4.888  0.6668  1.4899  0.4813
   43CHL1  H18B 3137   4.168   4.483   4.720  1.8888 -0.6921  1.3725
   43CHL1  H18C 3138   4.145   4.621   4.830  1.2865 -0.7653  0.4017
   43CHL1   C12 3139   3.895   4.421   4.701  0.8993  0.3761 -0.3158
   43CHL1  H12A 3140   3.900   4.341   4.778 -0.5184  0.8419  0.3017
   43CHL1  H12B 3141   3.788   4.432   4.671  1.2821  2.2171 -1.1081
   43CHL1   C11 3142   3.975   4.372   4.574  0.8960 -1.1072  0.7455
   43CHL1  H11A 3143   4.076   4.335   4.603  0.5011 -2.3231  0.6009
   43CHL1  H11B 3144   3.921   4.285   4.532 -1.5106  0.5014  0.2797
   43CHL1    C9 3145   3.985   4.489   4.471 -0.0681 -0.3547  0.0551
   43CHL1    H9 3146   3.880   4.510   4.441 -0.1726 -1.4764 -0.4258
   43CHL1   C10 3147   4.048   4.442   4.339  0.3699 -0.0481  0.6095
   43CHL1   C19 3148   4.183   4.365   4.361 -0.0976  0.2188  0.0526
   43CHL1  H19A 3149   4.257   4.437   4.403 -1.6945  2.4119 -0.7297
   43CHL1  H19B 3150   4.164   4.288   4.439 -0.0248  1.1054  0.9733
   43CHL1  H19C 3151   4.214   4.316   4.266  0.8356 -1.8058  1.3285
   43CHL1    C1 3152   3.944   4.356   4.265 -0.0151 -0.7114 -0.2609
   43CHL1   H1A 3153   3.922   4.264   4.322 -0.9062 -1.1746 -1.3101
   43CHL1   H1B 3154   3.850   4.416   4.258  1.7616  2.2834 -0.1773
   43CHL1    C2 3155   3.966   4.329   4.118 -0.9438 -0.0145 -0.1940
   43CHL1   H2A 3156   3.875   4.277   4.083 -1.1246  0.2650 -0.1379
   43CHL1   H2B 3157   4.051   4.262   4.091 -0.4041  0.4600  0.3007
   43CHL1   C20 3158   3.901   4.574   5.023  0.5549  0.2739  0.5444
   43CHL1   H20 3159   3.892   4.466   5.001 -2.2731  0.7152 -0.8619
   43CHL1   C21 3160   3.777   4.615   5.096 -0.4003 -0.1408 -0.6217
   43CHL1  H21A 3161   3.682   4.585   5.046  0.0700  0.6023 -1.9971
   43CHL1  H21B 3162   3.778   4.726   5.101  3.4415 -0.0916  0.1074
   43CHL1  H21C 3163   3.773   4.579   5.201  0.4296  3.1758  0.6562
   43CHL1   C22 3164   4.028   4.611   5.100 -0.1269 -0.4656  0.2622
   43CHL1  H22A 3165   4.119   4.594   5.038 -0.1707 -0.5399  0.2172
   43CHL1  H22B 3166   4.017   4.719   5.124 -1.3458 -0.4110 -0.4626
   43CHL1   C23 3167   4.055   4.541   5.232  0.4509  0.4474  1.0810
   43CHL1  H23A 3168   3.980   4.576   5.306 -1.6591 -1.0406 -0.2281
   43CHL1  H23B 3169   4.043   4.433   5.208  0.3480  0.8086 -0.6677
   43CHL1   C24 3170   4.198   4.573   5.276 -0.0935 -0.2607  0.2548
   43CHL1  H24A 3171   4.272   4.506   5.226  0.9016 -0.0199  1.3738
   43CHL1  H24B 3172   4.215   4.678   5.244 -0.2346 -0.0869  0.7509
   43CHL1   C25 3173   4.227   4.545   5.421  0.4785 -0.7967 -0.8600
   43CHL1   H25 3174   4.165   4.620   5.475 -0.4298 -0.8057 -1.8507
   43CHL1   C26 3175   4.202   4.400   5.461  0.2512 -0.2738 -0.1229
   43CHL1  H26A 3176   4.269   4.339   5.396  0.2725 -0.6185  0.2166
   43CHL1  H26B 3177   4.230   4.385   5.568  0.0677  0.9751  0.1124
   43CHL1  H26C 3178   4.102   4.360   5.437  0.2295  0.0392 -0.5696
   43CHL1   C27 3179   4.374   4.580   5.444  0.0761 -0.1151  0.2244
   43CHL1  H27A 3180   4.389   4.583   5.554  0.1204  1.4641  0.1968
   43CHL1  H27B 3181   4.441   4.507   5.394  0.9802  0.9812 -0.2051
   43CHL1  H27C 3182   4.397   4.682   5.405  0.5240  0.2552  1.4142
   44CHL1    C3 3183   2.381   6.254   4.116 -0.1120 -0.1824  0.7479
   44CHL1    H3 3184   2.393   6.365   4.115 -0.2194 -0.1699  0.7784
   44CHL1    O3 3185   2.355   6.191   3.995 -0.1640 -0.0644  0.1411
   44CHL1   H3' 3186   2.423   6.216   3.932 -0.6673 -0.0864 -0.4125
   44CHL1    C4 3187   2.515   6.211   4.186 -0.2105  0.0425 -0.2008
   44CHL1   H4A 3188   2.513   6.102   4.207 -1.6141  0.3726  1.6461
   44CHL1   H4B 3189   2.589   6.230   4.106  0.9559  0.6149  0.9782
   44CHL1    C5 3190   2.541   6.283   4.313  0.4771 -0.3841 -0.5642
   44CHL1    C6 3191   2.653   6.359   4.330  0.7430 -0.5694 -0.1909
   44CHL1    H6 3192   2.725   6.373   4.248  2.4235 -0.7352  1.1949
   44CHL1    C7 3193   2.678   6.436   4.460  0.9547  0.1397  0.6812
   44CHL1   H7A 3194   2.784   6.434   4.492  0.7743  0.9823  1.3704
   44CHL1   H7B 3195   2.649   6.541   4.438  1.6648  0.4702  1.3044
   44CHL1    C8 3196   2.596   6.384   4.579 -0.4065  0.2770  0.1431
   44CHL1    H8 3197   2.635   6.282   4.601  0.1574  0.9369  2.6296
   44CHL1   C14 3198   2.610   6.477   4.698  0.1541  0.7726  0.2186
   44CHL1   H14 3199   2.553   6.568   4.670 -3.0948 -1.4543 -1.0685
   44CHL1   C15 3200   2.746   6.516   4.752  0.6000 -1.0061  0.7158
   44CHL1  H15A 3201   2.817   6.431   4.761 -0.7895 -2.1571  1.3220
   44CHL1  H15B 3202   2.780   6.599   4.686 -0.4569  0.2157  1.6460
   44CHL1   C16 3203   2.719   6.574   4.895 -0.1618 -0.7428  0.9944
   44CHL1  H16A 3204   2.790   6.533   4.970  1.4709 -0.6440 -0.4476
   44CHL1  H16B 3205   2.742   6.682   4.900  1.2267 -0.8458 -1.4828
   44CHL1   C17 3206   2.570   6.540   4.925 -0.0155 -0.8703 -0.2257
   44CHL1   H17 3207   2.520   6.635   4.895 -0.6956 -1.4371 -0.9261
   44CHL1   C13 3208   2.529   6.432   4.822 -0.5340 -0.2659  0.3529
   44CHL1   C18 3209   2.584   6.300   4.875  0.2242  0.0049  0.0314
   44CHL1  H18A 3210   2.566   6.217   4.804  2.2520  0.0325 -0.5713
   44CHL1  H18B 3211   2.694   6.308   4.891  0.0886  1.4186  0.4322
   44CHL1  H18C 3212   2.548   6.261   4.973 -0.2974 -2.3204 -1.0359
   44CHL1   C12 3213   2.381   6.426   4.776 -0.2982 -0.2133  0.5223
   44CHL1  H12A 3214   2.320   6.374   4.854  1.4273 -1.7520  0.9174
   44CHL1  H12B 3215   2.342   6.528   4.757  1.7365  0.1348 -2.3780
   44CHL1   C11 3216   2.360   6.329   4.663 -0.7723  0.6780  0.1932
   44CHL1  H11A 3217   2.372   6.223   4.694 -3.9281  0.5926  1.5376
   44CHL1  H11B 3218   2.259   6.318   4.620 -0.4074  1.3851 -0.8951
   44CHL1    C9 3219   2.448   6.368   4.542  0.2139 -0.4611 -1.0657
   44CHL1    H9 3220   2.420   6.467   4.500  1.4966 -0.5139 -2.1313
   44CHL1   C10 3221   2.426   6.274   4.414  0.4827  0.5668  0.5499
   44CHL1   C19 3222   2.411   6.126   4.453  0.3026 -0.7529 -0.3981
   44CHL1  H19A 3223   2.384   6.064   4.365 -2.7660  0.8567 -0.7301
   44CHL1  H19B 3224   2.507   6.097   4.500  1.8529  1.5397 -1.9611
   44CHL1  H19C 3225   2.332   6.116   4.532  2.0454  4.1952  2.4452
   44CHL1    C1 3226   2.293   6.321   4.337 -0.4077 -0.6301  0.0689
   44CHL1   H1A 3227   2.210   6.322   4.411 -0.3750 -2.0535  0.1515
   44CHL1   H1B 3228   2.297   6.429   4.312 -0.2601 -0.5160  0.5642
   44CHL1    C2 3229   2.259   6.234   4.210  0.1278 -0.1896  0.3895
   44CHL1   H2A 3230   2.173   6.281   4.157  0.7937  0.9414  0.2800
   44CHL1   H2B 3231   2.240   6.128   4.237 -1.2899  0.0801  0.5373
   44CHL1   C20 3232   2.540   6.519   5.076 -0.6959 -0.1914  0.7314
   44CHL1   H20 3233   2.574   6.418   5.107 -1.6294 -1.0980 -1.0285
   44CHL1   C21 3234   2.385   6.524   5.107 -0.7321 -0.4927 -0.1403
   44CHL1  H21A 3235   2.379   6.498   5.215  0.6245  1.7896  0.5466
   44CHL1  H21B 3236   2.332   6.438   5.061 -0.2456 -1.2952  0.7415
   44CHL1  H21C 3237   2.345   6.621   5.070  2.4266  1.3651  0.9282
   44CHL1   C22 3238   2.606   6.625   5.169 -0.1301 -0.3121 -0.1884
   44CHL1  H22A 3239   2.715   6.641   5.155 -0.4828  2.7524 -0.1160
   44CHL1  H22B 3240   2.555   6.723   5.157 -0.0881 -0.1661  0.7476
   44CHL1   C23 3241   2.593   6.595   5.321 -0.3252  0.4382 -0.0602
   44CHL1  H23A 3242   2.488   6.590   5.356 -0.4064 -2.5530 -0.4475
   44CHL1  H23B 3243   2.636   6.494   5.342 -0.8314  0.0918 -0.6661
   44CHL1   C24 3244   2.665   6.704   5.399  0.8756 -0.0268  0.3704
   44CHL1  H24A 3245   2.772   6.674   5.401  0.9573  0.1542 -0.9492
   44CHL1  H24B 3246   2.665   6.798   5.340  0.2183 -0.1718  0.1430
   44CHL1   C25 3247   2.613   6.728   5.544 -0.9207 -0.0213  0.4783
   44CHL1   H25 3248   2.592   6.629   5.590 -0.8906 -0.1539  0.2071
   44CHL1   C26 3249   2.718   6.780   5.633 -0.0932  0.6154  0.5093
   44CHL1  H26A 3250   2.676   6.808   5.731 -0.0114  1.4989  0.2991
   44CHL1  H26B 3251   2.802   6.707   5.642  1.8622  2.6157 -0.3988
   44CHL1  H26C 3252   2.766   6.871   5.591  0.0277  0.4179  0.2108
   44CHL1   C27 3253   2.488   6.819   5.538 -0.7268 -0.1000 -0.0210
   44CHL1  H27A 3254   2.444   6.830   5.640 -1.3641 -1.5605 -0.1036
   44CHL1  H27B 3255   2.502   6.924   5.505  0.2658 -0.2536 -0.1170
   44CHL1  H27C 3256   2.409   6.773   5.474 -1.2988  1.9336 -0.8281
   45CHL1    C3 3257   2.368   6.659   4.083  0.1525  0.3068 -0.6790
   45CHL1    H3 3258   2.417   6.577   4.140 -0.3144  0.3712 -0.1876
   45CHL1    O3 3259   2.352   6.619   3.956  0.1099 -0.0525  0.7071
   45CHL1   H3' 3260   2.310   6.693   3.912 -0.4487 -1.8130 -1.9537
   45CHL1    C4 3261   2.236   6.702   4.137 -0.7031  0.1883 -0.2002
   45CHL1   H4A 3262   2.193   6.786   4.078 -0.8476  0.8088  0.7710
   45CHL1   H4B 3263   2.160   6.621   4.128  0.1912 -1.0466  2.3052
   45CHL1    C5 3264   2.236   6.739   4.282 -0.1984  0.6313  0.4015
   45CHL1    C6 3265   2.165   6.673   4.375 -0.6156  0.8723 -0.1206
   45CHL1    H6 3266   2.103   6.587   4.344 -0.7751  1.1380 -0.5456
   45CHL1    C7 3267   2.172   6.704   4.523  0.0395  0.5275  0.3305
   45CHL1   H7A 3268   2.069   6.728   4.558  0.0206  1.3241 -0.2485
   45CHL1   H7B 3269   2.211   6.612   4.572 -3.3844 -1.8457 -1.0176
   45CHL1    C8 3270   2.245   6.840   4.550 -0.4104 -0.1893 -0.0493
   45CHL1    H8 3271   2.163   6.909   4.524  0.4093  1.0643  0.6143
   45CHL1   C14 3272   2.283   6.843   4.700 -0.2990  0.0521  0.6647
   45CHL1   H14 3273   2.372   6.777   4.713  0.7217  1.0765 -0.7562
   45CHL1   C15 3274   2.192   6.791   4.811  0.2629  0.8264  0.5210
   45CHL1  H15A 3275   2.085   6.801   4.783 -0.5769 -0.2292  3.0785
   45CHL1  H15B 3276   2.205   6.681   4.820 -0.4177  0.6065 -0.8629
   45CHL1   C16 3277   2.228   6.866   4.940  0.2812  0.2277 -0.1361
   45CHL1  H16A 3278   2.136   6.910   4.983 -0.1532 -0.6003 -0.1919
   45CHL1  H16B 3279   2.274   6.801   5.018  0.3452 -0.6292 -0.8719
   45CHL1   C17 3280   2.348   6.954   4.897  0.3575 -0.2270  0.0716
   45CHL1   H17 3281   2.436   6.885   4.899  1.1608  0.7307 -0.9130
   45CHL1   C13 3282   2.333   6.978   4.746 -0.3451 -0.1608 -0.1407
   45CHL1   C18 3283   2.226   7.089   4.724 -0.0826 -0.4743  0.2098
   45CHL1  H18A 3284   2.138   7.079   4.791 -0.0710  1.5576  0.6195
   45CHL1  H18B 3285   2.281   7.185   4.739 -0.3426 -0.5812  2.0668
   45CHL1  H18C 3286   2.198   7.080   4.616  0.8102  1.0596 -0.1833
   45CHL1   C12 3287   2.461   7.011   4.663 -0.3458  0.0556  0.5138
   45CHL1  H12A 3288   2.486   7.117   4.684 -0.5068  0.0264  0.8547
   45CHL1  H12B 3289   2.539   6.936   4.691 -1.5206 -0.5914  2.1678
   45CHL1   C11 3290   2.441   7.006   4.510  0.5219  0.2778 -0.0372
   45CHL1  H11A 3291   2.382   7.097   4.485  1.2086  0.2769 -1.7817
   45CHL1  H11B 3292   2.540   7.019   4.462  1.3272 -1.7951  0.9368
   45CHL1    C9 3293   2.368   6.868   4.459  0.2371  0.2031  0.3481
   45CHL1    H9 3294   2.436   6.786   4.493 -0.9163 -0.5852  0.8388
   45CHL1   C10 3295   2.336   6.852   4.313 -1.0429  0.2971  0.2952
   45CHL1   C19 3296   2.276   6.985   4.267 -0.1569 -0.2268 -0.8302
   45CHL1  H19A 3297   2.347   7.070   4.274 -2.9018  2.2798 -1.2225
   45CHL1  H19B 3298   2.253   6.986   4.158 -0.1292  1.6595 -0.8457
   45CHL1  H19C 3299   2.191   6.999   4.338  0.5330 -1.7170  0.3423
   45CHL1    C1 3300   2.482   6.821   4.247  0.1145  0.3976 -0.1391
   45CHL1   H1A 3301   2.535   6.918   4.251 -3.1253  2.2988  0.2454
   45CHL1   H1B 3302   2.532   6.734   4.294  0.0798  1.1202  1.2908
   45CHL1    C2 3303   2.466   6.774   4.098  0.5385 -0.5737  0.1128
   45CHL1   H2A 3304   2.561   6.757   4.043  1.3280 -0.2544  1.3500
   45CHL1   H2B 3305   2.424   6.858   4.037  1.6379 -1.7131 -2.3628
   45CHL1   C20 3306   2.379   7.070   4.994 -0.2418  0.1600 -0.7445
   45CHL1   H20 3307   2.317   7.157   4.963 -0.8827 -0.2445 -0.6150
   45CHL1   C21 3308   2.529   7.089   4.967 -0.2937 -0.4175  0.4294
   45CHL1  H21A 3309   2.560   7.166   5.041 -0.2258 -0.7875  0.7818
   45CHL1  H21B 3310   2.555   7.114   4.862  2.0079  0.5973  1.1786
   45CHL1  H21C 3311   2.591   7.003   5.000 -1.1695 -1.5095 -0.6616
   45CHL1   C22 3312   2.347   7.045   5.145  0.6126 -0.1586  0.3015
   45CHL1  H22A 3313   2.249   6.992   5.148  1.1945 -1.2391  0.6942
   45CHL1  H22B 3314   2.425   6.975   5.180  1.5975  1.2161  0.9499
   45CHL1   C23 3315   2.344   7.168   5.234  1.0545  0.2532 -0.7073
   45CHL1  H23A 3316   2.339   7.125   5.336  1.2911  1.4672 -0.1793
   45CHL1  H23B 3317   2.434   7.231   5.224  0.7978  0.7877  0.3186
   45CHL1   C24 3318   2.222   7.258   5.210  0.0282 -0.0946 -0.4277
   45CHL1  H24A 3319   2.244   7.308   5.113  2.7968 -0.5671 -0.1383
   45CHL1  H24B 3320   2.130   7.198   5.194  0.7574 -1.8835  1.6558
   45CHL1   C25 3321   2.219   7.374   5.317 -0.5476  0.3773  0.8682
   45CHL1   H25 3322   2.324   7.411   5.323  0.6278 -2.4021 -0.2380
   45CHL1   C26 3323   2.127   7.485   5.268 -0.8151  0.2181  0.0862
   45CHL1  H26A 3324   2.162   7.491   5.163 -0.8100 -1.9511 -0.0774
   45CHL1  H26B 3325   2.018   7.464   5.270 -1.0700  0.9110 -2.6318
   45CHL1  H26C 3326   2.149   7.580   5.321 -0.6068 -1.4600  3.2245
   45CHL1   C27 3327   2.164   7.324   5.450 -0.0325  0.2413  0.2575
   45CHL1  H27A 3328   2.148   7.408   5.520  0.7998  1.9189 -1.4850
   45CHL1  H27B 3329   2.062   7.280   5.449  0.0427  0.0231  1.2001
   45CHL1  H27C 3330   2.235   7.249   5.492 -1.1795  0.0674  1.9603
   46CHL1    C3 3331   0.360   0.401   4.052 -0.3314 -0.6024  0.2643
   46CHL1    H3 3332   0.361   0.511   4.067 -1.4706 -0.2813 -1.6287
   46CHL1    O3 3333   0.388   0.388   3.914 -0.9663 -0.3802 -0.2426
   46CHL1   H3' 3334   0.385   0.294   3.895  0.6566 -0.4688 -0.1652
   46CHL1    C4 3335   0.455   0.325   4.138  0.3237 -0.6818 -0.4588
   46CHL1   H4A 3336   0.456   0.218   4.109 -1.3091 -0.6370 -0.7687
   46CHL1   H4B 3337   0.556   0.371   4.129  0.0988  1.3926  4.6354
   46CHL1    C5 3338   0.423   0.323   4.287  0.9597  0.8901 -0.2889
   46CHL1    C6 3339   0.509   0.354   4.381  0.0599  0.6642 -0.0911
   46CHL1    H6 3340   0.610   0.379   4.344 -0.2260  0.5930 -0.9432
   46CHL1    C7 3341   0.479   0.341   4.528 -1.0887 -0.1925  0.3633
   46CHL1   H7A 3342   0.556   0.282   4.582 -1.5200  1.7771  3.3645
   46CHL1   H7B 3343   0.488   0.440   4.579  0.2094 -0.3283  0.4208
   46CHL1    C8 3344   0.347   0.276   4.559 -0.5565 -0.0252 -0.5752
   46CHL1    H8 3345   0.365   0.167   4.541 -2.2352 -0.5909  0.9092
   46CHL1   C14 3346   0.302   0.315   4.694  0.4441 -0.0666  0.2122
   46CHL1   H14 3347   0.265   0.419   4.686 -1.5452 -0.7697 -0.2447
   46CHL1   C15 3348   0.408   0.325   4.807  0.5333 -0.5272 -0.0353
   46CHL1  H15A 3349   0.468   0.231   4.809  0.1833 -0.7547 -0.1513
   46CHL1  H15B 3350   0.473   0.415   4.797 -0.0679  0.1674  1.8594
   46CHL1   C16 3351   0.312   0.345   4.936 -0.7224 -0.1716  0.1796
   46CHL1  H16A 3352   0.350   0.279   5.017 -1.7721  0.4646  1.2053
   46CHL1  H16B 3353   0.313   0.445   4.983 -0.4119  0.4142 -1.0240
   46CHL1   C17 3354   0.163   0.308   4.889 -0.1030 -0.4948  0.5399
   46CHL1   H17 3355   0.119   0.409   4.877 -1.1753 -0.8526  1.2661
   46CHL1   C13 3356   0.188   0.242   4.749  0.1811 -0.3719 -0.7299
   46CHL1   C18 3357   0.230   0.095   4.776  0.8097  0.3501 -0.7837
   46CHL1  H18A 3358   0.150   0.027   4.811  1.5976  0.5107  1.4505
   46CHL1  H18B 3359   0.281   0.050   4.688  1.2668 -1.7896  0.5029
   46CHL1  H18C 3360   0.307   0.090   4.855  1.5991 -2.4058 -1.6039
   46CHL1   C12 3361   0.070   0.253   4.647  0.3109 -0.6022  0.2289
   46CHL1  H12A 3362  -0.014   0.185   4.672 -0.9208  0.3835 -1.0515
   46CHL1  H12B 3363   0.041   0.359   4.636  2.6365  0.0903  0.1448
   46CHL1   C11 3364   0.116   0.224   4.501 -0.5188 -0.3526 -0.0190
   46CHL1  H11A 3365   0.137   0.115   4.504  1.3129  0.0002  1.6394
   46CHL1  H11B 3366   0.029   0.238   4.432 -0.6665 -1.1548 -0.0136
   46CHL1    C9 3367   0.236   0.306   4.455 -0.7082  0.0921 -1.1210
   46CHL1    H9 3368   0.210   0.413   4.465  1.0899  0.4011  1.4082
   46CHL1   C10 3369   0.280   0.284   4.303 -0.0644 -0.1331 -0.4255
   46CHL1   C19 3370   0.269   0.126   4.280 -0.8331 -1.2013 -0.1938
   46CHL1  H19A 3371   0.334   0.076   4.355 -0.7037  0.0467  0.5520
   46CHL1  H19B 3372   0.163   0.093   4.287 -0.8737 -1.3507 -1.3962
   46CHL1  H19C 3373   0.309   0.105   4.178  0.2450 -0.4831  0.0642
   46CHL1    C1 3374   0.182   0.358   4.209 -0.6707 -0.3387 -0.4049
   46CHL1   H1A 3375   0.088   0.310   4.242 -0.5749 -0.9634 -1.0363
   46CHL1   H1B 3376   0.176   0.465   4.237 -3.0257 -0.2274 -1.1367
   46CHL1    C2 3377   0.212   0.348   4.061  0.5122 -0.7262  0.5846
   46CHL1   H2A 3378   0.144   0.419   4.009  2.3662 -0.9833 -2.4215
   46CHL1   H2B 3379   0.203   0.250   4.011 -0.3751 -0.5446  0.3679
   46CHL1   C20 3380   0.083   0.237   4.999  0.1722 -0.0727 -0.5456
   46CHL1   H20 3381   0.138   0.146   5.031  0.0086 -0.6426 -1.8471
   46CHL1   C21 3382  -0.057   0.209   4.949 -0.0901 -0.3533  0.4756
   46CHL1  H21A 3383  -0.123   0.181   5.035 -1.2114  2.5764  0.6743
   46CHL1  H21B 3384  -0.058   0.131   4.870 -0.2782  1.6714 -1.6331
   46CHL1  H21C 3385  -0.103   0.295   4.896 -0.4131 -1.2239 -0.7065
   46CHL1   C22 3386   0.080   0.332   5.128 -0.1357 -0.6011 -0.2456
   46CHL1  H22A 3387   0.183   0.361   5.157  0.2898 -0.4483 -1.7936
   46CHL1  H22B 3388   0.020   0.425   5.121 -1.1195 -1.0892  1.0627
   46CHL1   C23 3389   0.037   0.246   5.256 -0.7821 -0.4178 -0.1371
   46CHL1  H23A 3390  -0.071   0.222   5.262 -0.7751 -0.5327 -0.4279
   46CHL1  H23B 3391   0.086   0.147   5.247 -1.6073 -0.8082 -0.4446
   46CHL1   C24 3392   0.076   0.317   5.385  0.8011 -0.3630 -0.7523
   46CHL1  H24A 3393   0.184   0.341   5.383  1.3681 -2.6816 -1.4401
   46CHL1  H24B 3394   0.022   0.414   5.392  1.1782 -0.2530  1.4550
   46CHL1   C25 3395   0.042   0.240   5.516  0.1556 -0.0698  0.2871
   46CHL1   H25 3396   0.094   0.142   5.515  0.6646  0.2060 -0.4922
   46CHL1   C26 3397   0.097   0.333   5.630  0.4015  0.4012 -0.6281
   46CHL1  H26A 3398   0.208   0.326   5.626  0.5567  2.4061 -0.8642
   46CHL1  H26B 3399   0.060   0.437   5.616 -1.0546  0.0657  0.5466
   46CHL1  H26C 3400   0.070   0.310   5.735 -1.5382  4.2078 -0.0928
   46CHL1   C27 3401  -0.108   0.220   5.534  0.1241  0.0985  0.4122
   46CHL1  H27A 3402  -0.155   0.321   5.534  1.3581  0.6929 -0.2017
   46CHL1  H27B 3403  -0.149   0.151   5.457 -0.5108  0.5479  0.3323
   46CHL1  H27C 3404  -0.122   0.173   5.634  2.9332 -0.2307  0.7327
   47CHL1    C3 3405   5.413   5.980   4.301  0.2196  0.2196 -0.2413
   47CHL1    H3 3406   5.506   5.920   4.296 -0.2311 -0.5324  0.2345
   47CHL1    O3 3407   5.362   5.997   4.169  0.4878 -0.0943 -0.2552
   47CHL1   H3' 3408   5.267   6.002   4.180  0.2933 -0.2817 -1.6069
   47CHL1    C4 3409   5.308   5.910   4.396  0.1885  1.2460  0.4854
   47CHL1   H4A 3410   5.203   5.943   4.386  0.2257  1.4335  0.6975
   47CHL1   H4B 3411   5.310   5.805   4.359 -0.3593  0.4628  2.5208
   47CHL1    C5 3412   5.352   5.919   4.539  0.4913  0.4560  0.3386
   47CHL1    C6 3413   5.363   5.808   4.615  0.6724 -1.1586 -0.4127
   47CHL1    H6 3414   5.324   5.716   4.571 -0.4674 -0.7919 -0.2105
   47CHL1    C7 3415   5.404   5.810   4.759  0.0656 -0.0834 -0.4074
   47CHL1   H7A 3416   5.335   5.755   4.826  1.1551 -1.9887 -0.7821
   47CHL1   H7B 3417   5.505   5.764   4.755  0.5391  0.9077 -0.1669
   47CHL1    C8 3418   5.415   5.958   4.816  0.3585 -0.3712 -0.0665
   47CHL1    H8 3419   5.312   5.992   4.840  0.3836  0.1197 -0.6257
   47CHL1   C14 3420   5.490   5.957   4.945 -0.6929 -0.3078 -0.3454
   47CHL1   H14 3421   5.597   5.945   4.920 -0.3298  1.6232  0.1198
   47CHL1   C15 3422   5.457   5.844   5.047 -0.2434 -1.6529  0.9546
   47CHL1  H15A 3423   5.347   5.858   5.060  0.1822  1.2658  2.4156
   47CHL1  H15B 3424   5.495   5.748   5.008  3.0987 -0.0982  0.0466
   47CHL1   C16 3425   5.520   5.901   5.182  0.4214 -1.0438 -0.1855
   47CHL1  H16A 3426   5.431   5.894   5.249 -1.5925 -1.6477 -2.7356
   47CHL1  H16B 3427   5.610   5.844   5.214  2.8574  2.0730 -0.9541
   47CHL1   C17 3428   5.567   6.049   5.148  0.0389 -0.0927  0.1794
   47CHL1   H17 3429   5.673   6.036   5.117 -0.5716  0.7818 -2.6340
   47CHL1   C13 3430   5.498   6.094   5.018  0.5920 -0.0912 -0.4918
   47CHL1   C18 3431   5.357   6.142   5.055  0.1943 -0.2262  0.3359
   47CHL1  H18A 3432   5.359   6.246   5.094 -0.6506 -0.0831  0.0161
   47CHL1  H18B 3433   5.287   6.141   4.969 -0.7123  0.1471  1.0562
   47CHL1  H18C 3434   5.294   6.076   5.120 -1.8822  2.3017  1.0545
   47CHL1   C12 3435   5.566   6.194   4.918 -0.0694 -0.0913 -0.3678
   47CHL1  H12A 3436   5.566   6.297   4.962 -1.0776 -0.0376 -0.4656
   47CHL1  H12B 3437   5.674   6.167   4.915 -0.1283 -0.5715  0.8977
   47CHL1   C11 3438   5.495   6.199   4.789 -0.1346  0.2909 -0.3353
   47CHL1  H11A 3439   5.399   6.250   4.809  1.0287  1.5127  2.7457
   47CHL1  H11B 3440   5.560   6.259   4.721  2.8719 -1.6528  0.5939
   47CHL1    C9 3441   5.471   6.062   4.726  0.4858 -0.0007 -0.6455
   47CHL1    H9 3442   5.571   6.016   4.713  1.1325  0.6540  1.6161
   47CHL1   C10 3443   5.405   6.063   4.587  0.2383  0.4292 -0.1956
   47CHL1   C19 3444   5.284   6.161   4.597  0.6502 -0.9752 -0.0637
   47CHL1  H19A 3445   5.208   6.136   4.674 -0.1377  2.6182  0.4774
   47CHL1  H19B 3446   5.306   6.268   4.615 -0.0548 -0.6246 -1.2034
   47CHL1  H19C 3447   5.236   6.165   4.497 -1.1118 -0.0596  0.7854
   47CHL1    C1 3448   5.504   6.123   4.485  0.9971 -0.3603 -0.2220
   47CHL1   H1A 3449   5.513   6.228   4.519 -0.9751 -0.6945  1.5214
   47CHL1   H1B 3450   5.609   6.088   4.489  0.7505 -1.0546  0.3274
   47CHL1    C2 3451   5.444   6.124   4.341  0.5394 -0.4854 -0.2274
   47CHL1   H2A 3452   5.521   6.173   4.277  0.5198  0.9727  0.8214
   47CHL1   H2B 3453   5.354   6.189   4.332  1.6935  1.2480  0.2521
   47CHL1   C20 3454   5.556   6.155   5.268 -0.3498  0.3165  0.6150
   47CHL1   H20 3455   5.459   6.206   5.289  0.2211  1.6909  0.0358
   47CHL1   C21 3456   5.663   6.262   5.244  0.3948  0.1341 -0.3332
   47CHL1  H21A 3457   5.761   6.214   5.225  0.2174  0.3385 -1.9746
   47CHL1  H21B 3458   5.659   6.332   5.330  0.8270 -1.1559  0.7656
   47CHL1  H21C 3459   5.641   6.312   5.147  2.8536  0.3573 -0.8249
   47CHL1   C22 3460   5.576   6.087   5.403 -0.0512  0.3504 -0.0165
   47CHL1  H22A 3461   5.496   6.012   5.414 -1.3033  1.4078 -1.4177
   47CHL1  H22B 3462   5.672   6.032   5.406  1.2160  2.4512  1.3597
   47CHL1   C23 3463   5.583   6.176   5.527 -0.4441  0.0992 -0.8433
   47CHL1  H23A 3464   5.668   6.248   5.522 -0.2077 -0.0461  0.7721
   47CHL1  H23B 3465   5.492   6.239   5.531 -1.4374 -1.2997 -0.7692
   47CHL1   C24 3466   5.606   6.095   5.656 -0.1369 -0.7825 -0.3412
   47CHL1  H24A 3467   5.516   6.036   5.683  0.6466 -1.7024  0.3412
   47CHL1  H24B 3468   5.695   6.028   5.653  0.4129 -0.0240 -1.6868
   47CHL1   C25 3469   5.618   6.184   5.787  0.3863 -0.8570  0.2645
   47CHL1   H25 3470   5.526   6.245   5.796  1.6377  1.1154  0.2292
   47CHL1   C26 3471   5.640   6.083   5.898 -0.0594 -0.0826 -0.0688
   47CHL1  H26A 3472   5.547   6.027   5.919  0.0989 -0.6236 -0.7459
   47CHL1  H26B 3473   5.721   6.010   5.875 -0.4081 -0.4820 -0.0397
   47CHL1  H26C 3474   5.675   6.143   5.985 -0.5449 -0.5969  0.4918
   47CHL1   C27 3475   5.738   6.279   5.783 -0.1093 -0.0478  0.1150
   47CHL1  H27A 3476   5.718   6.367   5.717 -0.2147  0.9212  1.4039
   47CHL1  H27B 3477   5.749   6.330   5.881 -0.3271  0.5688 -0.1725
   47CHL1  H27C 3478   5.834   6.232   5.754 -0.2724  0.1231 -0.7292
   48CHL1    C3 3479   1.689   5.698   3.773 -0.2249  0.3324  0.0666
   48CHL1    H3 3480   1.785   5.745   3.805 -0.6796 -0.3355  2.6521
   48CHL1    O3 3481   1.697   5.690   3.627  0.2548  0.5417 -0.5765
   48CHL1   H3' 3482   1.606   5.678   3.600 -0.3901  2.5985  0.5112
   48CHL1    C4 3483   1.661   5.561   3.831 -0.2281  0.1143  0.0189
   48CHL1   H4A 3484   1.564   5.516   3.799  0.1611 -0.4607 -0.3743
   48CHL1   H4B 3485   1.738   5.491   3.791  0.4932 -1.3327  3.5963
   48CHL1    C5 3486   1.649   5.573   3.982 -0.2529  0.6957 -0.0713
   48CHL1    C6 3487   1.738   5.504   4.059  0.2688  0.4574  0.4019
   48CHL1    H6 3488   1.815   5.439   4.015 -2.5041 -1.0243 -2.6707
   48CHL1    C7 3489   1.738   5.498   4.206 -1.2187  0.5004 -0.0710
   48CHL1   H7A 3490   1.735   5.392   4.238  0.4191  0.6333  0.6229
   48CHL1   H7B 3491   1.832   5.546   4.242  0.9836 -0.9996 -3.3910
   48CHL1    C8 3492   1.613   5.575   4.259  0.3336  0.3198  0.2729
   48CHL1    H8 3493   1.529   5.503   4.257 -1.3224  2.1094  1.8386
   48CHL1   C14 3494   1.645   5.623   4.400 -0.1673  0.0227  0.9790
   48CHL1   H14 3495   1.722   5.701   4.383  1.1419 -1.6088 -1.0957
   48CHL1   C15 3496   1.715   5.521   4.488  0.0447 -0.0328 -0.4633
   48CHL1  H15A 3497   1.670   5.420   4.476 -2.1348  0.8383  0.0276
   48CHL1  H15B 3498   1.824   5.529   4.466  0.3790  1.3456  1.4107
   48CHL1   C16 3499   1.677   5.561   4.635 -0.5579 -0.2933  0.5113
   48CHL1  H16A 3500   1.616   5.477   4.674  0.0862 -0.8765  0.2906
   48CHL1  H16B 3501   1.770   5.557   4.696  0.4020 -1.5285 -0.9499
   48CHL1   C17 3502   1.596   5.697   4.622 -0.1472 -0.2196  0.2910
   48CHL1   H17 3503   1.678   5.772   4.619 -0.4244  0.1337  1.1487
   48CHL1   C13 3504   1.532   5.681   4.478 -0.3172 -0.7273  0.2258
   48CHL1   C18 3505   1.414   5.584   4.486 -0.0168 -0.0431  0.4247
   48CHL1  H18A 3506   1.434   5.493   4.547 -0.5478 -0.4880 -0.0548
   48CHL1  H18B 3507   1.327   5.635   4.532 -0.0482  2.0923 -1.8157
   48CHL1  H18C 3508   1.377   5.553   4.386 -2.2036 -0.8965  1.4303
   48CHL1   C12 3509   1.494   5.810   4.395 -0.1925  0.6974  0.2901
   48CHL1  H12A 3510   1.409   5.866   4.439  1.0891  2.5886  0.4793
   48CHL1  H12B 3511   1.570   5.890   4.383 -2.0278  2.4070 -0.4252
   48CHL1   C11 3512   1.455   5.780   4.243  0.4280 -0.0335 -0.5262
   48CHL1  H11A 3513   1.361   5.721   4.253  0.2235  0.3646 -0.0973
   48CHL1  H11B 3514   1.447   5.875   4.187  0.2015 -0.4003 -1.1288
   48CHL1    C9 3515   1.570   5.702   4.180 -0.5755 -0.1058  0.0433
   48CHL1    H9 3516   1.658   5.770   4.176  0.3744 -1.3336 -3.2585
   48CHL1   C10 3517   1.538   5.665   4.034  0.1614 -0.2821  0.1204
   48CHL1   C19 3518   1.401   5.592   4.014 -0.2778  1.8862  0.4756
   48CHL1  H19A 3519   1.316   5.657   4.045  0.0159  1.6277  1.8578
   48CHL1  H19B 3520   1.385   5.564   3.907 -1.1189  1.7895  0.6190
   48CHL1  H19C 3521   1.402   5.500   4.076 -1.0720  1.0316 -0.7274
   48CHL1    C1 3522   1.550   5.799   3.957  0.2736 -0.5575  0.3369
   48CHL1   H1A 3523   1.459   5.856   3.985 -0.7975 -0.6551 -2.5783
   48CHL1   H1B 3524   1.641   5.858   3.983  0.6213  0.8557 -3.4709
   48CHL1    C2 3525   1.570   5.788   3.807  0.4702 -0.4803 -0.4755
   48CHL1   H2A 3526   1.569   5.889   3.762 -3.9086 -0.0378  0.2168
   48CHL1   H2B 3527   1.482   5.737   3.763 -0.0074  0.2613 -0.3946
   48CHL1   C20 3528   1.507   5.737   4.742  0.4733  0.8908  0.1653
   48CHL1   H20 3529   1.419   5.669   4.735 -0.7864  2.6676 -3.9525
   48CHL1   C21 3530   1.460   5.878   4.719  0.1064 -0.3536 -0.6528
   48CHL1  H21A 3531   1.396   5.912   4.803 -1.0850 -0.1690 -1.6053
   48CHL1  H21B 3532   1.399   5.884   4.627 -0.3146  1.0549 -0.3094
   48CHL1  H21C 3533   1.550   5.941   4.702  0.7708 -1.1019 -0.0070
   48CHL1   C22 3534   1.572   5.726   4.880  0.2682 -0.2931 -0.3186
   48CHL1  H22A 3535   1.634   5.635   4.890  1.7503  0.7452  0.3370
   48CHL1  H22B 3536   1.643   5.808   4.904  1.5098 -1.4322 -0.0045
   48CHL1   C23 3537   1.479   5.716   5.004 -0.3399 -0.1188 -0.2850
   48CHL1  H23A 3538   1.424   5.808   5.030 -0.6088 -1.6733  6.4829
   48CHL1  H23B 3539   1.400   5.647   4.967  0.8226 -1.0459 -1.1572
   48CHL1   C24 3540   1.549   5.675   5.138  0.3160  0.3289 -0.3054
   48CHL1  H24A 3541   1.603   5.578   5.145 -0.6232 -0.1304  1.2467
   48CHL1  H24B 3542   1.620   5.756   5.164  0.4050 -0.1857  1.1645
   48CHL1   C25 3543   1.451   5.657   5.260  0.0283 -0.1541 -0.0074
   48CHL1   H25 3544   1.373   5.580   5.241  1.2528 -1.2956 -0.5264
   48CHL1   C26 3545   1.544   5.601   5.371  0.0259  0.2925 -0.2491
   48CHL1  H26A 3546   1.611   5.522   5.333 -0.4792  0.1757 -0.8968
   48CHL1  H26B 3547   1.605   5.686   5.411  0.5485 -0.0526 -0.3101
   48CHL1  H26C 3548   1.492   5.546   5.453  0.6085 -1.2218 -0.8662
   48CHL1   C27 3549   1.376   5.779   5.302  0.5252  0.2122 -0.2580
   48CHL1  H27A 3550   1.449   5.863   5.314  0.8276  0.2962 -2.2917
   48CHL1  H27B 3551   1.306   5.799   5.218  0.9204 -1.3350 -0.9969
   48CHL1  H27C 3552   1.325   5.767   5.399 -0.8916  0.8551 -0.8869
   49CHL1    C3 3553   2.022   0.848   3.958 -0.5866  0.0788  0.1222
   49CHL1    H3 3554   1.934   0.905   3.922 -1.1174 -1.0466 -0.4013
   49CHL1    O3 3555   2.098   0.789   3.859 -0.6407  0.0765  0.1422
   49CHL1   H3' 3556   2.050   0.715   3.820 -0.5585 -0.2560  0.6638
   49CHL1    C4 3557   2.116   0.941   4.051  0.3420 -0.0805  0.7342
   49CHL1   H4A 3558   2.196   0.865   4.061  1.5762  1.0565 -0.1581
   49CHL1   H4B 3559   2.149   1.023   3.983  0.8984  0.8381  2.0817
   49CHL1    C5 3560   2.054   0.999   4.177 -0.2488  0.3038 -0.1546
   49CHL1    C6 3561   2.065   1.133   4.202  0.4745 -0.1066  0.1775
   49CHL1    H6 3562   2.122   1.195   4.132  1.3297  2.4942  2.9710
   49CHL1    C7 3563   2.005   1.197   4.324  0.1818  0.0877  0.5335
   49CHL1   H7A 3564   2.073   1.264   4.382 -0.9359  2.0936 -0.3713
   49CHL1   H7B 3565   1.915   1.251   4.288 -0.8587 -2.0636 -0.2208
   49CHL1    C8 3566   1.952   1.091   4.428  0.5462  0.3214  0.1302
   49CHL1    H8 3567   2.044   1.058   4.482  1.5614  1.8181 -0.5982
   49CHL1   C14 3568   1.872   1.158   4.536 -0.0213  0.1070  0.0712
   49CHL1   H14 3569   1.779   1.182   4.480 -0.0535 -0.3567 -0.0780
   49CHL1   C15 3570   1.932   1.283   4.603  0.1646 -0.4289 -0.4233
   49CHL1  H15A 3571   2.039   1.269   4.632  0.8283  0.2649 -2.3714
   49CHL1  H15B 3572   1.928   1.369   4.533 -0.6758 -0.0408  0.0905
   49CHL1   C16 3573   1.837   1.312   4.721  0.3864 -0.0077 -0.1522
   49CHL1  H16A 3574   1.889   1.340   4.815 -1.5703 -0.6830  1.1921
   49CHL1  H16B 3575   1.760   1.391   4.706 -1.7849 -2.0635 -0.4139
   49CHL1   C17 3576   1.760   1.176   4.740  0.5602  0.3570  0.2269
   49CHL1   H17 3577   1.663   1.195   4.688  1.4745 -0.8846 -2.1173
   49CHL1   C13 3578   1.831   1.068   4.651  0.6992  0.3115 -0.6936
   49CHL1   C18 3579   1.952   1.009   4.729 -0.5537  0.5127  0.0291
   49CHL1  H18A 3580   2.016   0.939   4.671  1.1041  1.4577  0.6537
   49CHL1  H18B 3581   2.018   1.094   4.757  2.3230 -1.7294  0.5350
   49CHL1  H18C 3582   1.919   0.957   4.821  1.3406  0.2011  0.5744
   49CHL1   C12 3583   1.748   0.956   4.593  0.5499  0.0365 -0.1426
   49CHL1  H12A 3584   1.727   0.883   4.674 -0.7314 -1.9450 -2.1691
   49CHL1  H12B 3585   1.650   0.997   4.560 -0.2605 -0.2003  1.8433
   49CHL1   C11 3586   1.818   0.874   4.483 -0.3271 -0.1342  0.5221
   49CHL1  H11A 3587   1.890   0.800   4.524 -0.4319  0.9985  2.9160
   49CHL1  H11B 3588   1.729   0.820   4.445 -2.1458  2.8834  0.2247
   49CHL1    C9 3589   1.890   0.960   4.372 -0.0857 -0.2892 -0.2146
   49CHL1    H9 3590   1.804   1.003   4.315 -1.3414 -0.9193  1.1256
   49CHL1   C10 3591   1.974   0.889   4.259 -0.0376  0.3447 -0.8856
   49CHL1   C19 3592   2.077   0.785   4.324 -0.2336  0.0903  0.5201
   49CHL1  H19A 3593   2.029   0.702   4.379 -2.6304  1.3939  0.5482
   49CHL1  H19B 3594   2.149   0.747   4.248  1.1460  1.4054  1.1114
   49CHL1  H19C 3595   2.130   0.849   4.398  2.4706 -1.2707 -0.1159
   49CHL1    C1 3596   1.883   0.799   4.163  0.4498  0.7797  0.4434
   49CHL1   H1A 3597   1.852   0.719   4.233  0.2796  1.0765  0.7111
   49CHL1   H1B 3598   1.797   0.858   4.126  0.2644  0.6040  0.5944
   49CHL1    C2 3599   1.955   0.741   4.045 -0.1851  0.0436  0.0914
   49CHL1   H2A 3600   1.878   0.679   3.994  0.7220 -4.4708  3.5229
   49CHL1   H2B 3601   2.037   0.674   4.076 -0.9201 -1.3063 -0.7926
   49CHL1   C20 3602   1.731   1.141   4.893  0.0226 -0.4823  0.4191
   49CHL1   H20 3603   1.817   1.094   4.944 -0.5910 -3.2189 -0.8712
   49CHL1   C21 3604   1.613   1.033   4.902 -0.3510 -0.1016 -0.6084
   49CHL1  H21A 3605   1.522   1.079   4.859  1.3651  2.4404 -1.8316
   49CHL1  H21B 3606   1.600   1.010   5.010  2.2874 -0.0783 -0.1991
   49CHL1  H21C 3607   1.635   0.940   4.846  0.9569  0.3195 -0.8385
   49CHL1   C22 3608   1.685   1.268   4.961 -0.7670 -0.1260 -0.3646
   49CHL1  H22A 3609   1.769   1.339   4.977 -0.6635 -0.3311  0.0332
   49CHL1  H22B 3610   1.604   1.316   4.903  0.7270  1.3907 -1.2779
   49CHL1   C23 3611   1.644   1.254   5.116  0.5240 -1.1716  0.4867
   49CHL1  H23A 3612   1.556   1.187   5.127 -0.8655  0.6742  1.2293
   49CHL1  H23B 3613   1.737   1.213   5.160 -1.1777 -2.8673  2.7920
   49CHL1   C24 3614   1.600   1.387   5.196  0.1725  0.2610  0.1664
   49CHL1  H24A 3615   1.513   1.429   5.141 -1.2523 -0.6712  1.6094
   49CHL1  H24B 3616   1.559   1.352   5.293 -2.0072 -1.7807 -1.3512
   49CHL1   C25 3617   1.699   1.500   5.237  0.1026 -0.3549  0.4521
   49CHL1   H25 3618   1.791   1.452   5.275  1.1683  2.2374  1.3583
   49CHL1   C26 3619   1.753   1.592   5.118  0.2895  0.0029  0.0184
   49CHL1  H26A 3620   1.804   1.544   5.031  1.5310  2.0609 -0.4738
   49CHL1  H26B 3621   1.667   1.645   5.072  0.2025  0.5714  0.8101
   49CHL1  H26C 3622   1.827   1.658   5.167  0.0159  0.2995  0.0364
   49CHL1   C27 3623   1.642   1.590   5.344  0.0173  0.7315 -0.5583
   49CHL1  H27A 3624   1.632   1.531   5.438 -1.0956  2.5658  0.5443
   49CHL1  H27B 3625   1.707   1.677   5.363  0.0191  0.4859  0.6708
   49CHL1  H27C 3626   1.544   1.628   5.308  0.2110  2.7618  0.9103
   50CHL1    C3 3627   0.902   1.088   3.866 -0.2301 -0.2918  0.0353
   50CHL1    H3 3628   0.857   0.988   3.884  0.9564 -0.8611 -0.0208
   50CHL1    O3 3629   0.947   1.101   3.727 -0.1912 -0.1233  0.1760
   50CHL1   H3' 3630   0.879   1.051   3.682 -1.3100  0.0894  1.5837
   50CHL1    C4 3631   0.815   1.205   3.897  0.6292 -0.3782 -0.0268
   50CHL1   H4A 3632   0.867   1.301   3.877  0.2298  0.2137  1.5651
   50CHL1   H4B 3633   0.734   1.194   3.822  1.0631 -1.4729 -0.3580
   50CHL1    C5 3634   0.768   1.215   4.044  0.3273  0.7213 -0.2024
   50CHL1    C6 3635   0.636   1.224   4.059  0.0528  0.5292  0.2806
   50CHL1    H6 3636   0.568   1.217   3.973 -0.2932  1.1363  0.4966
   50CHL1    C7 3637   0.578   1.229   4.200  0.2717 -0.2156 -0.1507
   50CHL1   H7A 3638   0.499   1.307   4.203  2.1088  1.8297 -1.8371
   50CHL1   H7B 3639   0.524   1.132   4.213 -1.2324  0.7323  0.9349
   50CHL1    C8 3640   0.689   1.247   4.307 -0.1086 -0.2816  0.4078
   50CHL1    H8 3641   0.712   1.355   4.312 -0.6016 -0.0347 -1.6524
   50CHL1   C14 3642   0.634   1.201   4.444 -0.2719 -0.5566  0.1798
   50CHL1   H14 3643   0.632   1.090   4.438  0.0480 -0.4999 -1.6556
   50CHL1   C15 3644   0.499   1.255   4.492  0.0854 -0.0930 -0.2439
   50CHL1  H15A 3645   0.490   1.361   4.461 -1.6542  0.3325  1.5454
   50CHL1  H15B 3646   0.416   1.195   4.449 -1.5021  1.2965  0.7818
   50CHL1   C16 3647   0.509   1.275   4.644  0.0699 -0.3847 -0.0454
   50CHL1  H16A 3648   0.515   1.384   4.661 -0.3904 -0.3593 -0.0324
   50CHL1  H16B 3649   0.429   1.235   4.711  0.7950  3.0437  3.1612
   50CHL1   C17 3650   0.649   1.210   4.682  0.1740 -0.4526 -0.0211
   50CHL1   H17 3651   0.637   1.099   4.685  1.7740 -0.6601 -0.4635
   50CHL1   C13 3652   0.738   1.229   4.555  0.9206 -0.1080 -0.6433
   50CHL1   C18 3653   0.783   1.378   4.548 -0.8380 -0.1589 -0.2399
   50CHL1  H18A 3654   0.835   1.397   4.452 -1.7444 -0.9355 -0.9035
   50CHL1  H18B 3655   0.694   1.446   4.545  0.8090  2.0708 -1.8146
   50CHL1  H18C 3656   0.849   1.403   4.634 -0.4762 -0.5960 -0.3902
   50CHL1   C12 3657   0.858   1.132   4.539  0.5246  0.2318 -0.5635
   50CHL1  H12A 3658   0.934   1.161   4.615  0.0948 -0.6456  0.2264
   50CHL1  H12B 3659   0.824   1.026   4.539  0.9548  0.0893 -0.3398
   50CHL1   C11 3660   0.926   1.153   4.395  0.9222 -0.0969 -0.1399
   50CHL1  H11A 3661   0.981   1.248   4.410 -0.5273  0.5674  1.3544
   50CHL1  H11B 3662   0.996   1.068   4.379  0.4399 -0.7790  1.1797
   50CHL1    C9 3663   0.821   1.163   4.282  0.1563  0.2654 -0.1969
   50CHL1    H9 3664   0.780   1.061   4.269 -2.5350  1.3860 -1.5351
   50CHL1   C10 3665   0.883   1.197   4.146  0.2123 -0.5512 -0.1866
   50CHL1   C19 3666   0.952   1.333   4.157 -0.0899  0.4177  0.6773
   50CHL1  H19A 3667   1.042   1.324   4.221  0.8362 -0.1320 -0.6637
   50CHL1  H19B 3668   0.965   1.386   4.060 -1.3673  3.0613  1.8598
   50CHL1  H19C 3669   0.884   1.396   4.219 -0.6302  0.2680  0.2465
   50CHL1    C1 3670   0.989   1.090   4.101 -0.1655  0.0922  0.0614
   50CHL1   H1A 3671   1.083   1.108   4.156 -0.1857 -0.3679  0.2537
   50CHL1   H1B 3672   0.949   0.989   4.127 -0.6521 -0.0238 -1.0649
   50CHL1    C2 3673   1.026   1.084   3.955  0.2513 -0.0678  0.2955
   50CHL1   H2A 3674   1.090   0.995   3.933 -1.2191 -0.2688 -4.4844
   50CHL1   H2B 3675   1.091   1.167   3.921 -0.7012  0.0759 -1.2954
   50CHL1   C20 3676   0.707   1.244   4.816 -0.7750  0.0333  0.0909
   50CHL1   H20 3677   0.818   1.233   4.808 -0.6449  0.2703  1.3334
   50CHL1   C21 3678   0.660   1.135   4.916 -0.1493  0.2033  0.3199
   50CHL1  H21A 3679   0.706   1.037   4.891  0.2986  0.5208 -0.1330
   50CHL1  H21B 3680   0.550   1.124   4.918 -0.3389  1.8918  1.0520
   50CHL1  H21C 3681   0.690   1.152   5.022 -1.5630  1.0143  0.6156
   50CHL1   C22 3682   0.659   1.382   4.881 -0.0284 -0.4609 -0.3213
   50CHL1  H22A 3683   0.674   1.452   4.796 -2.2708 -0.1284 -0.5168
   50CHL1  H22B 3684   0.548   1.385   4.888 -0.3099  1.0905 -3.6020
   50CHL1   C23 3685   0.737   1.429   5.005  0.0749 -0.1231 -0.7099
   50CHL1  H23A 3686   0.716   1.348   5.078 -1.4538 -0.6228 -1.6470
   50CHL1  H23B 3687   0.844   1.413   4.981  0.4653  1.2721  0.0114
   50CHL1   C24 3688   0.709   1.574   5.042 -0.7701  0.2048 -0.0155
   50CHL1  H24A 3689   0.768   1.607   5.131 -0.5865  1.3272 -0.5327
   50CHL1  H24B 3690   0.740   1.644   4.962 -0.0739 -0.8466 -0.6819
   50CHL1   C25 3691   0.565   1.612   5.075 -0.4372  0.2591  0.1839
   50CHL1   H25 3692   0.500   1.566   4.998 -1.0596 -0.1067  0.9198
   50CHL1   C26 3693   0.519   1.562   5.208 -0.7461 -0.8527 -0.0969
   50CHL1  H26A 3694   0.585   1.607   5.286  0.3448 -0.6402 -1.1058
   50CHL1  H26B 3695   0.415   1.596   5.228 -0.4412 -1.6755  3.6129
   50CHL1  H26C 3696   0.517   1.451   5.206 -1.0861 -0.8591 -2.3289
   50CHL1   C27 3697   0.545   1.768   5.083 -0.2551 -0.2364  0.0256
   50CHL1  H27A 3698   0.439   1.786   5.111 -0.1616  0.3284  0.0299
   50CHL1  H27B 3699   0.612   1.809   5.161 -0.7604  1.5361 -0.4254
   50CHL1  H27C 3700   0.562   1.817   4.985  0.6118 -2.6156 -1.1003
   51CHL1    C3 3701   1.991   7.048   3.945  0.7189 -0.2064  0.3137
   51CHL1    H3 3702   2.097   7.059   3.977  0.3662  2.4489  0.7937
   51CHL1    O3 3703   1.981   6.961   3.837 -0.3959  0.9301 -0.2850
   51CHL1   H3' 3704   1.888   6.950   3.817 -0.4875  0.2840  0.4453
   51CHL1    C4 3705   1.917   6.963   4.056  0.0691  0.1407 -0.4643
   51CHL1   H4A 3706   1.823   6.917   4.019 -0.0896  0.4817 -0.4902
   51CHL1   H4B 3707   1.989   6.883   4.083  0.3385  0.8555  1.0481
   51CHL1    C5 3708   1.878   7.036   4.188  0.3147 -0.3655  1.1043
   51CHL1    C6 3709   1.916   6.988   4.301 -0.2134  0.5208 -0.1006
   51CHL1    H6 3710   1.965   6.889   4.298  0.6517  0.6956  3.5144
   51CHL1    C7 3711   1.910   7.058   4.432  0.8023  0.2887  0.1586
   51CHL1   H7A 3712   1.864   6.994   4.510 -0.1412  1.3931  0.5408
   51CHL1   H7B 3713   2.016   7.082   4.455  0.2898  3.2777 -0.2646
   51CHL1    C8 3714   1.821   7.184   4.435 -0.0819 -0.0138  0.0746
   51CHL1    H8 3715   1.715   7.152   4.431  0.3338 -1.3511 -2.2821
   51CHL1   C14 3716   1.843   7.261   4.560 -0.3360  0.1724 -0.5359
   51CHL1   H14 3717   1.949   7.293   4.559 -0.5571  0.9676  0.2253
   51CHL1   C15 3718   1.827   7.178   4.688  0.1513 -0.5387 -0.3650
   51CHL1  H15A 3719   1.744   7.105   4.698 -0.7966  0.7649  1.9331
   51CHL1  H15B 3720   1.912   7.112   4.716 -0.1945 -1.6794 -1.8604
   51CHL1   C16 3721   1.808   7.299   4.791 -0.2066  0.5599  0.1023
   51CHL1  H16A 3722   1.718   7.290   4.855  0.5688 -0.2068  1.1210
   51CHL1  H16B 3723   1.884   7.295   4.872 -0.3892 -1.7194  0.2073
   51CHL1   C17 3724   1.803   7.430   4.707 -0.2651 -0.1782 -0.0190
   51CHL1   H17 3725   1.910   7.456   4.688  0.2241 -2.1435 -0.1448
   51CHL1   C13 3726   1.754   7.389   4.564 -0.0709  0.2822 -0.4381
   51CHL1   C18 3727   1.598   7.356   4.568  0.8413  0.1013 -0.2578
   51CHL1  H18A 3728   1.584   7.300   4.663 -1.5479  0.3671 -0.4156
   51CHL1  H18B 3729   1.537   7.448   4.568 -0.9253 -1.0230 -1.2063
   51CHL1  H18C 3730   1.570   7.297   4.478 -1.3274  0.0714  0.3965
   51CHL1   C12 3731   1.801   7.476   4.442 -0.3910 -0.1328  0.1896
   51CHL1  H12A 3732   1.761   7.579   4.453 -0.8178 -0.2528 -0.2332
   51CHL1  H12B 3733   1.910   7.491   4.458 -0.3051  0.2729 -0.7254
   51CHL1   C11 3734   1.779   7.403   4.314 -0.0155 -0.0387  0.5760
   51CHL1  H11A 3735   1.669   7.389   4.307  0.0467  0.0230 -0.9064
   51CHL1  H11B 3736   1.805   7.462   4.224  0.1870  3.1518  2.5567
   51CHL1    C9 3737   1.847   7.263   4.302  0.5456  0.1767 -0.1492
   51CHL1    H9 3738   1.954   7.292   4.310  0.5686  0.1697 -0.4250
   51CHL1   C10 3739   1.833   7.180   4.171 -0.5401 -0.2309  0.1472
   51CHL1   C19 3740   1.680   7.184   4.144  1.0736 -0.5714 -0.0814
   51CHL1  H19A 3741   1.617   7.163   4.233  1.1785 -0.3864  0.0375
   51CHL1  H19B 3742   1.647   7.284   4.110  0.1288  0.9513  4.5516
   51CHL1  H19C 3743   1.641   7.117   4.065 -1.1305  1.6446 -1.0023
   51CHL1    C1 3744   1.908   7.249   4.058 -0.5404 -1.2115  0.1721
   51CHL1   H1A 3745   1.880   7.354   4.034  0.5920 -1.6310 -3.6206
   51CHL1   H1B 3746   2.011   7.251   4.100 -0.0350  1.2826 -0.9794
   51CHL1    C2 3747   1.927   7.180   3.920  0.4371  0.2610 -0.8365
   51CHL1   H2A 3748   1.988   7.249   3.858 -0.1597  1.4767 -0.1378
   51CHL1   H2B 3749   1.827   7.169   3.871  0.2615 -1.2276 -0.1904
   51CHL1   C20 3750   1.723   7.536   4.781  0.0426 -0.3161 -0.1553
   51CHL1   H20 3751   1.622   7.499   4.806  1.2264 -2.1457  2.4152
   51CHL1   C21 3752   1.707   7.669   4.700  0.2317  0.0167 -0.4537
   51CHL1  H21A 3753   1.800   7.705   4.652  2.7776 -1.5412  2.8416
   51CHL1  H21B 3754   1.681   7.757   4.763 -0.5103  0.2649 -1.0985
   51CHL1  H21C 3755   1.633   7.656   4.619  0.1843  2.9078 -0.9614
   51CHL1   C22 3756   1.778   7.570   4.921 -0.1480  0.2779  1.1059
   51CHL1  H22A 3757   1.851   7.501   4.968 -1.0433  0.9841  3.6836
   51CHL1  H22B 3758   1.829   7.668   4.917  0.9732 -0.3108  0.4692
   51CHL1   C23 3759   1.668   7.580   5.027  0.5666  0.3672  0.8102
   51CHL1  H23A 3760   1.593   7.657   5.000  0.7147  0.7033  1.3456
   51CHL1  H23B 3761   1.614   7.485   5.047  1.0248 -0.1298 -0.2721
   51CHL1   C24 3762   1.726   7.601   5.171 -0.4216 -0.6521  0.2488
   51CHL1  H24A 3763   1.817   7.539   5.184 -1.6548 -2.5660  0.2238
   51CHL1  H24B 3764   1.752   7.709   5.180 -0.8908 -0.6852  3.0269
   51CHL1   C25 3765   1.625   7.572   5.282  0.4918  0.7646 -0.2877
   51CHL1   H25 3766   1.627   7.461   5.289  2.9497  0.5816 -2.2617
   51CHL1   C26 3767   1.678   7.634   5.411  0.0174 -0.0122 -0.1075
   51CHL1  H26A 3768   1.783   7.603   5.432 -0.5562 -1.8093  0.2232
   51CHL1  H26B 3769   1.676   7.745   5.406 -0.7527 -0.0475 -0.6473
   51CHL1  H26C 3770   1.617   7.613   5.501 -0.3528  0.7345 -0.1780
   51CHL1   C27 3771   1.488   7.624   5.245  0.1516 -0.2566  0.1045
   51CHL1  H27A 3772   1.442   7.562   5.165 -0.9791  0.2470  0.3442
   51CHL1  H27B 3773   1.426   7.615   5.337 -0.8615  0.6303 -0.4661
   51CHL1  H27C 3774   1.477   7.732   5.221 -0.3198 -0.7156 -1.9189
   52CHL1    C3 3775   1.140   2.127   4.053 -0.1034 -0.4502 -0.9260
   52CHL1    H3 3776   1.045   2.180   4.077 -1.3507 -2.4090 -1.3150
   52CHL1    O3 3777   1.121   2.074   3.927 -0.4358  0.9434 -0.0516
   52CHL1   H3' 3778   1.122   2.143   3.860  1.9302 -0.6272 -1.8342
   52CHL1    C4 3779   1.257   2.235   4.055  0.1573  0.4255 -0.1764
   52CHL1   H4A 3780   1.350   2.192   4.013 -0.4291 -0.8498 -0.1900
   52CHL1   H4B 3781   1.232   2.319   3.987 -1.3379  0.1817  0.0399
   52CHL1    C5 3782   1.281   2.287   4.196 -0.2118 -0.2334 -0.1128
   52CHL1    C6 3783   1.292   2.420   4.223  0.3728  0.0831 -0.4581
   52CHL1    H6 3784   1.279   2.490   4.139 -0.5637  1.2738  0.6512
   52CHL1    C7 3785   1.326   2.471   4.362 -0.4241  0.1866 -0.7391
   52CHL1   H7A 3786   1.403   2.551   4.368 -0.4150  0.0981  0.9783
   52CHL1   H7B 3787   1.235   2.512   4.411 -0.8289  1.2414 -2.3456
   52CHL1    C8 3788   1.381   2.363   4.454 -0.4362  0.5336  0.4883
   52CHL1    H8 3789   1.486   2.338   4.430 -0.6468  0.7467 -0.7040
   52CHL1   C14 3790   1.368   2.411   4.599  1.0047 -0.0986 -0.2959
   52CHL1   H14 3791   1.260   2.418   4.623  0.8269 -0.0957 -1.0767
   52CHL1   C15 3792   1.422   2.554   4.624 -0.0006  0.3365 -0.2907
   52CHL1  H15A 3793   1.520   2.562   4.573 -0.3748 -1.3234 -1.3337
   52CHL1  H15B 3794   1.350   2.635   4.598 -2.7654 -1.9800 -0.2489
   52CHL1   C16 3795   1.448   2.551   4.783  0.4068 -0.4854  0.3099
   52CHL1  H16A 3796   1.549   2.583   4.816  0.1703 -0.7425  1.3141
   52CHL1  H16B 3797   1.380   2.618   4.840  0.7880 -0.3293  0.5890
   52CHL1   C17 3798   1.414   2.404   4.828 -0.3276 -0.6702  0.3955
   52CHL1   H17 3799   1.304   2.393   4.839 -0.3295  0.3308  1.6095
   52CHL1   C13 3800   1.434   2.319   4.701 -0.1373  0.0592 -0.1992
   52CHL1   C18 3801   1.586   2.294   4.682 -0.4505 -0.2988 -0.5762
   52CHL1  H18A 3802   1.625   2.240   4.770 -0.4230  1.8547  0.7945
   52CHL1  H18B 3803   1.604   2.225   4.597  0.1243 -0.1146 -0.6102
   52CHL1  H18C 3804   1.649   2.385   4.670  1.8963 -1.3223  2.7368
   52CHL1   C12 3805   1.355   2.186   4.693 -0.6204 -0.4844 -0.1823
   52CHL1  H12A 3806   1.399   2.117   4.769  0.1898  2.2313  1.9658
   52CHL1  H12B 3807   1.252   2.204   4.731  0.1902 -0.4826  2.1779
   52CHL1   C11 3808   1.350   2.124   4.548  0.5408 -0.3308 -0.5202
   52CHL1  H11A 3809   1.457   2.095   4.536  0.7502  0.0178  0.4090
   52CHL1  H11B 3810   1.279   2.039   4.542 -2.4412  1.9384  0.4497
   52CHL1    C9 3811   1.302   2.234   4.443 -0.4335  0.2916  0.0077
   52CHL1    H9 3812   1.197   2.267   4.459 -0.1272  1.6304 -0.5593
   52CHL1   C10 3813   1.294   2.172   4.300 -0.2232  0.0574  0.8174
   52CHL1   C19 3814   1.426   2.094   4.278  0.9036 -0.1354 -0.4124
   52CHL1  H19A 3815   1.521   2.149   4.294  0.3247  0.9842 -0.6903
   52CHL1  H19B 3816   1.431   2.001   4.338  2.1823  0.6792  0.8045
   52CHL1  H19C 3817   1.421   2.061   4.172 -2.1190  0.4480 -0.5514
   52CHL1    C1 3818   1.180   2.072   4.293  0.0318 -0.7369  0.3525
   52CHL1   H1A 3819   1.209   1.985   4.355 -0.8089 -0.3377  1.3399
   52CHL1   H1B 3820   1.083   2.113   4.328  0.6528  3.1342 -1.8796
   52CHL1    C2 3821   1.158   2.019   4.154  0.2077 -0.1274  0.2643
   52CHL1   H2A 3822   1.073   1.948   4.156  0.7469 -0.7515  2.0030
   52CHL1   H2B 3823   1.247   1.963   4.119  0.2898  0.7040 -0.9451
   52CHL1   C20 3824   1.477   2.358   4.962  0.5124  0.5405  0.0524
   52CHL1   H20 3825   1.554   2.279   4.950  0.4179  0.2049  1.4390
   52CHL1   C21 3826   1.363   2.284   5.033 -0.2476 -0.2108  0.3080
   52CHL1  H21A 3827   1.295   2.354   5.086  2.2502  1.5763  1.3961
   52CHL1  H21B 3828   1.408   2.222   5.113  1.9305 -0.0370 -0.7015
   52CHL1  H21C 3829   1.320   2.209   4.964 -0.3161  1.0180 -1.0388
   52CHL1   C22 3830   1.545   2.464   5.044  0.5555 -0.3815 -0.0631
   52CHL1  H22A 3831   1.627   2.515   4.989  0.7754 -1.7062 -1.0415
   52CHL1  H22B 3832   1.475   2.545   5.071  0.5085  0.0771 -1.4987
   52CHL1   C23 3833   1.612   2.410   5.183 -0.1634 -0.1952 -0.0940
   52CHL1  H23A 3834   1.523   2.365   5.232 -0.8826 -0.7034 -1.7975
   52CHL1  H23B 3835   1.685   2.329   5.158  0.8725 -0.1130  2.3764
   52CHL1   C24 3836   1.666   2.521   5.271 -0.3545  1.1109  0.1124
   52CHL1  H24A 3837   1.747   2.573   5.216  1.0483 -0.3290  0.7579
   52CHL1  H24B 3838   1.574   2.580   5.292 -0.9441 -0.1820  1.3545
   52CHL1   C25 3839   1.714   2.466   5.402  0.2973  0.7963 -0.1210
   52CHL1   H25 3840   1.648   2.379   5.419 -0.7121  1.1963 -1.8056
   52CHL1   C26 3841   1.865   2.418   5.393  0.3221  0.5787 -1.1945
   52CHL1  H26A 3842   1.940   2.498   5.378 -0.3352  1.3097 -0.6702
   52CHL1  H26B 3843   1.898   2.373   5.489 -0.9040  1.1763 -0.4636
   52CHL1  H26C 3844   1.850   2.345   5.311 -0.3656  0.0978 -0.6581
   52CHL1   C27 3845   1.692   2.572   5.515  0.2215 -0.0872  0.0675
   52CHL1  H27A 3846   1.744   2.668   5.495 -0.4762 -0.1016 -2.0733
   52CHL1  H27B 3847   1.583   2.595   5.526  0.5401  1.6032 -0.0727
   52CHL1  H27C 3848   1.731   2.548   5.616  0.8352  0.4564 -0.0350
   53CHL1    C3 3849   6.320   5.928   3.884  0.2079  0.3275  0.2927
   53CHL1    H3 3850   6.258   6.016   3.911 -1.9067 -0.8045 -0.6313
   53CHL1    O3 3851   6.320   5.904   3.747  0.1146 -0.3000  0.0828
   53CHL1   H3' 3852   6.228   5.896   3.721 -0.1635  2.6447 -0.1816
   53CHL1    C4 3853   6.463   5.935   3.937 -0.7449  0.6117  0.1046
   53CHL1   H4A 3854   6.511   5.842   3.900  0.7075  1.2211  0.3880
   53CHL1   H4B 3855   6.525   6.010   3.883 -0.0175  0.8830  1.2783
   53CHL1    C5 3856   6.480   5.940   4.082  0.1988 -0.0765 -0.9505
   53CHL1    C6 3857   6.558   6.029   4.144  0.2140 -0.3303 -0.6785
   53CHL1    H6 3858   6.613   6.101   4.082  3.2451 -1.0214  0.9991
   53CHL1    C7 3859   6.583   6.021   4.290 -0.5870  0.5282 -0.6312
   53CHL1   H7A 3860   6.692   6.036   4.306 -0.3880  0.3305 -1.7247
   53CHL1   H7B 3861   6.529   6.102   4.343 -0.8936 -1.2183  1.8834
   53CHL1    C8 3862   6.538   5.892   4.366  0.6148 -0.5374  0.0454
   53CHL1    H8 3863   6.615   5.818   4.336  2.8891  0.2545  3.3662
   53CHL1   C14 3864   6.522   5.920   4.518  0.7257 -0.1283 -0.0866
   53CHL1   H14 3865   6.438   5.992   4.527  2.9405  2.4556  1.2879
   53CHL1   C15 3866   6.639   5.978   4.594  0.4719 -0.6789 -0.4422
   53CHL1  H15A 3867   6.728   5.913   4.577  1.2869  0.2454  0.1592
   53CHL1  H15B 3868   6.659   6.082   4.561 -2.7653  0.3056  0.3678
   53CHL1   C16 3869   6.617   5.962   4.745  0.4111  0.1961 -0.3328
   53CHL1  H16A 3870   6.711   5.928   4.795 -0.2281  0.0483  0.7902
   53CHL1  H16B 3871   6.601   6.060   4.795 -0.4139  0.1319 -0.4695
   53CHL1   C17 3872   6.501   5.866   4.752  0.3845  0.1190  0.3276
   53CHL1   H17 3873   6.417   5.939   4.754  0.3178  0.0220  1.2582
   53CHL1   C13 3874   6.482   5.796   4.607 -0.8434  0.3840 -0.3031
   53CHL1   C18 3875   6.588   5.690   4.605 -0.6088  0.6529  0.5948
   53CHL1  H18A 3876   6.545   5.598   4.650 -0.9529  0.5235  0.0003
   53CHL1  H18B 3877   6.624   5.661   4.504 -1.3932 -2.5520  1.1319
   53CHL1  H18C 3878   6.681   5.727   4.654  0.2803 -0.3422 -0.2881
   53CHL1   C12 3879   6.341   5.763   4.561  1.3300 -1.0186 -0.4103
   53CHL1  H12A 3880   6.312   5.665   4.604 -0.1700 -1.4756 -2.3160
   53CHL1  H12B 3881   6.267   5.841   4.590  0.9096 -1.7727  0.5907
   53CHL1   C11 3882   6.329   5.747   4.398  0.6267  0.7711 -0.9666
   53CHL1  H11A 3883   6.382   5.650   4.383 -2.5362 -1.2370 -0.2044
   53CHL1  H11B 3884   6.227   5.722   4.363  0.0365  1.3292  0.2669
   53CHL1    C9 3885   6.400   5.856   4.320  0.1765 -0.0346 -0.0220
   53CHL1    H9 3886   6.331   5.943   4.335  0.1656 -0.1017  0.3264
   53CHL1   C10 3887   6.401   5.827   4.166 -0.6999  0.2834 -0.0544
   53CHL1   C19 3888   6.467   5.694   4.132 -0.5249 -0.4248 -0.3688
   53CHL1  H19A 3889   6.577   5.688   4.150 -0.6716 -0.9088  0.4119
   53CHL1  H19B 3890   6.432   5.608   4.194 -0.4888 -0.1549  0.0257
   53CHL1  H19C 3891   6.446   5.662   4.027  0.4958  0.8736 -0.9938
   53CHL1    C1 3892   6.256   5.821   4.108 -0.5178 -0.6008 -0.4823
   53CHL1   H1A 3893   6.201   5.734   4.150 -0.9786  0.8175  2.0562
   53CHL1   H1B 3894   6.205   5.913   4.142  1.3933  0.4756 -0.4096
   53CHL1    C2 3895   6.247   5.815   3.950  0.2918  0.9194 -0.9575
   53CHL1   H2A 3896   6.144   5.822   3.908 -0.2867 -0.4421  0.1711
   53CHL1   H2B 3897   6.293   5.720   3.915 -0.5285  0.4463 -0.7790
   53CHL1   C20 3898   6.495   5.773   4.876 -0.2536 -0.3146 -0.1798
   53CHL1   H20 3899   6.585   5.708   4.881  1.2587  1.7870  1.6813
   53CHL1   C21 3900   6.365   5.691   4.877  0.9093 -0.1794  0.6959
   53CHL1  H21A 3901   6.372   5.617   4.795 -0.4806  1.1497 -0.6769
   53CHL1  H21B 3902   6.274   5.743   4.841  0.5960 -1.5421 -0.5758
   53CHL1  H21C 3903   6.339   5.643   4.974  2.5276  0.1873  1.3434
   53CHL1   C22 3904   6.499   5.856   5.000  0.1806 -0.0261  0.3439
   53CHL1  H22A 3905   6.563   5.946   4.987 -1.4372  1.0541 -0.5293
   53CHL1  H22B 3906   6.392   5.886   5.011 -0.2074 -1.0391 -0.5501
   53CHL1   C23 3907   6.553   5.795   5.134  0.0517  0.4252  0.5222
   53CHL1  H23A 3908   6.481   5.714   5.158 -1.5455  1.8393  0.7410
   53CHL1  H23B 3909   6.658   5.761   5.117  0.0757  0.8201 -0.1780
   53CHL1   C24 3910   6.562   5.897   5.247  0.5358 -0.3577  0.3196
   53CHL1  H24A 3911   6.653   5.960   5.236 -0.1433  0.4466 -0.9310
   53CHL1  H24B 3912   6.476   5.967   5.236 -0.5475 -1.9229 -1.8979
   53CHL1   C25 3913   6.553   5.829   5.383 -0.1075  0.2999  0.4892
   53CHL1   H25 3914   6.456   5.774   5.378  0.6699 -1.3459  2.2855
   53CHL1   C26 3915   6.672   5.729   5.408  0.3104  0.3026 -0.4994
   53CHL1  H26A 3916   6.647   5.658   5.489  1.2040 -0.6895 -1.0684
   53CHL1  H26B 3917   6.716   5.672   5.324 -0.8724 -1.6130  0.1268
   53CHL1  H26C 3918   6.763   5.786   5.439 -0.8738  0.9586  2.0824
   53CHL1   C27 3919   6.555   5.938   5.489 -0.1823  0.1755 -0.1950
   53CHL1  H27A 3920   6.480   6.013   5.458 -0.2038  0.3880  0.3689
   53CHL1  H27B 3921   6.536   5.896   5.590  0.1678 -0.1134 -0.2439
   53CHL1  H27C 3922   6.652   5.992   5.496 -0.0416 -0.1861  0.8697
   54CHL1    C3 3923   4.464   1.710   3.839 -0.9114 -0.4074  0.5346
   54CHL1    H3 3924   4.367   1.763   3.843 -1.2197 -0.7289 -1.6249
   54CHL1    O3 3925   4.475   1.683   3.702  0.1408 -0.0874 -0.1549
   54CHL1   H3' 3926   4.563   1.647   3.684  0.9080  0.5133  2.1528
   54CHL1    C4 3927   4.574   1.816   3.868 -0.3720 -0.5151  0.1970
   54CHL1   H4A 3928   4.660   1.764   3.820 -0.4514  0.4162 -1.0169
   54CHL1   H4B 3929   4.552   1.906   3.806 -1.2779 -0.6916  0.2593
   54CHL1    C5 3930   4.583   1.849   4.009  0.4259  0.2102 -0.3116
   54CHL1    C6 3931   4.575   1.974   4.052 -0.1286 -0.0603 -0.0498
   54CHL1    H6 3932   4.572   2.060   3.982 -1.7568 -1.2351 -1.5090
   54CHL1    C7 3933   4.576   2.019   4.193 -0.2102  0.4170 -0.6040
   54CHL1   H7A 3934   4.635   2.112   4.207 -0.8484  0.7918 -0.3360
   54CHL1   H7B 3935   4.474   2.052   4.225 -0.1892 -0.9071  0.9782
   54CHL1    C8 3936   4.621   1.904   4.289 -0.5815 -0.7508  0.3263
   54CHL1    H8 3937   4.732   1.904   4.282 -0.6028  1.5820 -1.1830
   54CHL1   C14 3938   4.582   1.945   4.431  0.2989 -0.2854 -0.2721
   54CHL1   H14 3939   4.471   1.954   4.440  0.5089  0.9357  1.8271
   54CHL1   C15 3940   4.617   2.084   4.486  0.3811 -0.2222  0.1512
   54CHL1  H15A 3941   4.725   2.101   4.464  0.2037 -1.5682 -2.1534
   54CHL1  H15B 3942   4.553   2.163   4.442  1.2863  0.4215 -0.0526
   54CHL1   C16 3943   4.600   2.077   4.637 -0.0381 -0.3635 -0.4473
   54CHL1  H16A 3944   4.690   2.107   4.694 -1.2070 -1.8397  2.3769
   54CHL1  H16B 3945   4.509   2.130   4.673  0.9039  0.6792  0.4600
   54CHL1   C17 3946   4.568   1.923   4.664  0.2112 -0.2311  0.2332
   54CHL1   H17 3947   4.457   1.925   4.657  0.0605  2.1556  2.1189
   54CHL1   C13 3948   4.623   1.844   4.542 -0.6381 -0.0241  0.2943
   54CHL1   C18 3949   4.771   1.822   4.544 -0.2948  0.5975 -0.1549
   54CHL1  H18A 3950   4.826   1.914   4.575  1.4263 -0.9068  1.5328
   54CHL1  H18B 3951   4.800   1.762   4.633 -1.1735  1.4970  0.7614
   54CHL1  H18C 3952   4.807   1.770   4.452 -3.1758 -1.4836 -0.2293
   54CHL1   C12 3953   4.541   1.715   4.506  0.3024  0.5213 -0.3999
   54CHL1  H12A 3954   4.564   1.638   4.582  0.2092 -0.3453 -1.2283
   54CHL1  H12B 3955   4.434   1.746   4.499  0.7240  1.9487 -0.8122
   54CHL1   C11 3956   4.579   1.664   4.364 -0.0577 -0.8536 -0.0790
   54CHL1  H11A 3957   4.688   1.643   4.364  0.3846  1.2500 -0.1821
   54CHL1  H11B 3958   4.512   1.577   4.343 -0.8595  0.1637 -2.0077
   54CHL1    C9 3959   4.553   1.778   4.256 -0.0894  0.5661  0.3369
   54CHL1    H9 3960   4.444   1.796   4.265 -0.1454  0.1479  0.5460
   54CHL1   C10 3961   4.577   1.730   4.109  0.1258  0.8423  0.1611
   54CHL1   C19 3962   4.716   1.673   4.093  0.3330 -0.8872  0.2420
   54CHL1  H19A 3963   4.745   1.629   3.995 -2.9004 -0.3028 -1.1070
   54CHL1  H19B 3964   4.793   1.748   4.121  0.7159 -0.7266 -1.1387
   54CHL1  H19C 3965   4.730   1.581   4.153  3.1182 -2.0420 -1.9318
   54CHL1    C1 3966   4.484   1.623   4.073  0.2963 -0.0870  0.1280
   54CHL1   H1A 3967   4.517   1.527   4.116 -0.6355 -1.6692 -2.4524
   54CHL1   H1B 3968   4.383   1.644   4.114  0.3837 -0.3293  0.4689
   54CHL1    C2 3969   4.484   1.590   3.927  0.1471 -0.1324  1.1383
   54CHL1   H2A 3970   4.409   1.509   3.914  1.5152 -1.5145  1.5743
   54CHL1   H2B 3971   4.581   1.547   3.897  0.3258  0.3287  1.0390
   54CHL1   C20 3972   4.607   1.888   4.804 -0.1439 -0.0473 -0.1768
   54CHL1   H20 3973   4.717   1.896   4.811 -0.2522  3.6060 -1.0508
   54CHL1   C21 3974   4.571   1.738   4.834  1.0585  0.6767  0.1391
   54CHL1  H21A 3975   4.465   1.707   4.821  0.5273  0.9117  3.1805
   54CHL1  H21B 3976   4.604   1.716   4.937  0.4816  0.6857  0.3260
   54CHL1  H21C 3977   4.632   1.674   4.766  1.8717 -0.6030  1.9793
   54CHL1   C22 3978   4.565   1.985   4.924 -0.0761  0.4177 -0.3651
   54CHL1  H22A 3979   4.602   1.942   5.020 -0.7624 -1.1197 -0.7574
   54CHL1  H22B 3980   4.617   2.081   4.909  0.1104  0.4588  0.4714
   54CHL1   C23 3981   4.411   1.998   4.945 -0.4042 -0.2848  0.2664
   54CHL1  H23A 3982   4.373   2.040   4.850 -1.2579 -3.1522 -0.7563
   54CHL1  H23B 3983   4.366   1.897   4.957 -1.1769  0.0025 -0.2081
   54CHL1   C24 3984   4.376   2.089   5.059  0.1027  0.0684  0.4154
   54CHL1  H24A 3985   4.413   2.054   5.158  0.8482 -0.2920  0.0069
   54CHL1  H24B 3986   4.427   2.184   5.032  0.4883  0.2103  1.5914
   54CHL1   C25 3987   4.229   2.129   5.065  0.1934  0.5178 -0.4923
   54CHL1   H25 3988   4.203   2.135   4.958 -3.6385 -4.4568 -0.1971
   54CHL1   C26 3989   4.131   2.020   5.128 -0.0443 -0.4128 -0.0386
   54CHL1  H26A 3990   4.137   2.028   5.239 -0.4848  1.0242 -0.0944
   54CHL1  H26B 3991   4.029   2.057   5.106 -0.1966 -0.7257  0.1463
   54CHL1  H26C 3992   4.154   1.916   5.099  1.9658 -0.7864  2.4589
   54CHL1   C27 3993   4.205   2.267   5.127 -0.0233 -0.2413 -0.1326
   54CHL1  H27A 3994   4.242   2.270   5.232 -0.0233 -0.8158 -0.1159
   54CHL1  H27B 3995   4.241   2.350   5.062 -0.1728 -1.5126 -1.9126
   54CHL1  H27C 3996   4.096   2.287   5.124 -0.2678 -1.1959  1.3629
   55CHL1    C3 3997   6.169   1.769   3.912  0.1876 -0.2579  0.7370
   55CHL1    H3 3998   6.166   1.658   3.920 -1.4598 -0.2955  0.0959
   55CHL1    O3 3999   6.225   1.814   3.783 -0.3015  0.9865 -0.9666
   55CHL1   H3' 4000   6.271   1.894   3.810 -0.7552  1.6824 -2.1728
   55CHL1    C4 4001   6.031   1.846   3.918 -0.6471  0.4383 -0.1265
   55CHL1   H4A 4002   6.044   1.950   3.880 -2.2012  0.6139 -0.2364
   55CHL1   H4B 4003   5.970   1.783   3.850  0.6621 -1.6166  0.5076
   55CHL1    C5 4004   5.969   1.855   4.055 -0.1276 -0.3167  0.4651
   55CHL1    C6 4005   5.843   1.816   4.082 -0.5269  0.1250  0.7001
   55CHL1    H6 4006   5.775   1.788   4.001 -0.8685  1.9716  0.3073
   55CHL1    C7 4007   5.766   1.832   4.210  0.0574  0.3739  0.2148
   55CHL1   H7A 4008   5.667   1.882   4.196 -1.2913 -2.2258 -0.1106
   55CHL1   H7B 4009   5.737   1.733   4.250  3.1904 -0.2969  1.1131
   55CHL1    C8 4010   5.853   1.894   4.319 -0.0902 -0.0644  0.5587
   55CHL1    H8 4011   5.843   2.004   4.307 -1.3550 -0.3399 -1.2831
   55CHL1   C14 4012   5.792   1.864   4.455 -0.6363  0.1212  0.3520
   55CHL1   H14 4013   5.808   1.755   4.474 -0.1249  0.2048  0.4079
   55CHL1   C15 4014   5.639   1.880   4.472  0.3216  0.0799  0.1958
   55CHL1  H15A 4015   5.600   1.976   4.434 -0.7668 -0.1828  0.6110
   55CHL1  H15B 4016   5.591   1.802   4.410 -0.8780  0.7844  0.2093
   55CHL1   C16 4017   5.617   1.852   4.625  0.0700 -0.5200 -0.0735
   55CHL1  H16A 4018   5.545   1.912   4.683  1.7141  0.3460  1.1466
   55CHL1  H16B 4019   5.594   1.744   4.636  1.6688 -0.6474  2.9999
   55CHL1   C17 4020   5.766   1.858   4.692  1.1080  0.4254  0.3134
   55CHL1   H17 4021   5.799   1.753   4.700 -0.2677  0.0822  2.1942
   55CHL1   C13 4022   5.859   1.920   4.583 -0.8527 -0.6612  0.0750
   55CHL1   C18 4023   5.841   2.076   4.593  0.5222  0.3718 -0.1085
   55CHL1  H18A 4024   5.736   2.099   4.621  0.3350 -1.6823  1.1283
   55CHL1  H18B 4025   5.914   2.108   4.671  1.1496  0.8941 -0.8938
   55CHL1  H18C 4026   5.873   2.128   4.501 -1.7010  3.1208  0.5453
   55CHL1   C12 4027   6.005   1.877   4.573  0.0357 -0.3526 -1.1822
   55CHL1  H12A 4028   6.061   1.926   4.655 -2.8373  0.6453  0.3070
   55CHL1  H12B 4029   6.007   1.766   4.575 -1.4761 -0.4024 -1.2625
   55CHL1   C11 4030   6.069   1.914   4.438  0.1035 -0.3138 -0.2770
   55CHL1  H11A 4031   6.077   2.025   4.439  0.2921 -0.3092  1.6688
   55CHL1  H11B 4032   6.166   1.861   4.442 -0.6417 -1.6431  2.6084
   55CHL1    C9 4033   6.002   1.851   4.315  0.2628  0.1545  0.7494
   55CHL1    H9 4034   5.991   1.741   4.326  1.2142  0.1896  2.2639
   55CHL1   C10 4035   6.064   1.881   4.171 -0.5496  0.0510 -0.1554
   55CHL1   C19 4036   6.101   2.035   4.162 -0.0662  0.4121  0.8877
   55CHL1  H19A 4037   6.015   2.104   4.178  0.0054  0.7944 -0.3115
   55CHL1  H19B 4038   6.182   2.061   4.234  0.5114 -1.2108  0.8528
   55CHL1  H19C 4039   6.151   2.050   4.065  0.7463  1.2135  1.4106
   55CHL1    C1 4040   6.195   1.795   4.163  0.3090 -0.5323 -0.0974
   55CHL1   H1A 4041   6.262   1.817   4.249  1.7791 -0.5045 -1.1996
   55CHL1   H1B 4042   6.170   1.687   4.175 -0.4040 -0.4580 -0.8955
   55CHL1    C2 4043   6.265   1.804   4.028 -0.3439  0.0127  0.2491
   55CHL1   H2A 4044   6.347   1.729   4.030  0.0810  0.3175 -2.0338
   55CHL1   H2B 4045   6.321   1.899   4.014 -0.7277  0.6144  2.4793
   55CHL1   C20 4046   5.770   1.920   4.835  0.6925 -0.4988 -0.5633
   55CHL1   H20 4047   5.747   2.028   4.839  0.3323 -0.6076  1.6056
   55CHL1   C21 4048   5.911   1.884   4.900 -0.1238 -0.4275 -0.0758
   55CHL1  H21A 4049   5.929   1.936   4.997 -1.8169 -0.5507  0.3307
   55CHL1  H21B 4050   5.988   1.927   4.832 -1.1921  1.8848  0.0957
   55CHL1  H21C 4051   5.924   1.773   4.902  0.4005 -0.4119 -1.5261
   55CHL1   C22 4052   5.664   1.850   4.927  0.0810 -0.0924 -0.1215
   55CHL1  H22A 4053   5.570   1.885   4.880 -0.0789  1.4531  1.2599
   55CHL1  H22B 4054   5.676   1.740   4.918 -1.6375 -0.1641 -2.5902
   55CHL1   C23 4055   5.661   1.895   5.078  0.1369  0.3007  1.0151
   55CHL1  H23A 4056   5.735   1.837   5.136  0.0213 -1.8380 -0.8036
   55CHL1  H23B 4057   5.686   2.003   5.084 -2.1645  0.8601  1.5441
   55CHL1   C24 4058   5.524   1.885   5.154  0.0198 -0.4396 -0.0394
   55CHL1  H24A 4059   5.454   1.966   5.123 -1.2299 -0.6431  2.0308
   55CHL1  H24B 4060   5.471   1.789   5.134 -2.0817  0.8026 -0.7813
   55CHL1   C25 4061   5.535   1.920   5.308  0.0717  0.0558  0.7277
   55CHL1   H25 4062   5.607   1.843   5.343 -0.5231 -1.6269 -1.4884
   55CHL1   C26 4063   5.590   2.062   5.336 -0.1469 -0.0550 -0.1230
   55CHL1  H26A 4064   5.531   2.142   5.287  0.7543  0.3677 -0.5432
   55CHL1  H26B 4065   5.589   2.092   5.443  1.2832  0.1027 -0.1355
   55CHL1  H26C 4066   5.696   2.069   5.303 -0.2721  0.1257 -0.4883
   55CHL1   C27 4067   5.405   1.888   5.382  0.9061 -0.2809 -0.2949
   55CHL1  H27A 4068   5.352   1.795   5.353 -2.9051  1.2115  1.1003
   55CHL1  H27B 4069   5.436   1.882   5.488 -0.7345 -0.9816  0.1828
   55CHL1  H27C 4070   5.331   1.969   5.363  1.4964  0.5790  0.9577
   56CHL1    C3 4071   0.585   2.063   4.023 -0.6958 -0.7596  0.6062
   56CHL1    H3 4072   0.539   1.968   4.058 -1.0988 -1.3498 -1.3940
   56CHL1    O3 4073   0.555   2.057   3.883 -0.2589 -0.1271  0.7592
   56CHL1   H3' 4074   0.514   2.143   3.873  1.4113  0.6266  0.0202
   56CHL1    C4 4075   0.501   2.178   4.076  0.5171 -0.2231 -0.4767
   56CHL1   H4A 4076   0.538   2.274   4.034  0.6740  1.2234  2.6296
   56CHL1   H4B 4077   0.397   2.154   4.046  0.8890 -0.8091 -1.3331
   56CHL1    C5 4078   0.523   2.196   4.231  0.3828 -0.2042  0.3578
   56CHL1    C6 4079   0.420   2.188   4.316  0.2889  0.6082  0.0957
   56CHL1    H6 4080   0.320   2.174   4.274  0.4416 -0.4099  0.0515
   56CHL1    C7 4081   0.428   2.215   4.461 -0.6004 -0.2532  0.1026
   56CHL1   H7A 4082   0.352   2.290   4.494 -0.4473  0.0005 -0.1142
   56CHL1   H7B 4083   0.401   2.119   4.510 -1.6863  0.0192  0.0781
   56CHL1    C8 4084   0.566   2.262   4.518  0.2428 -0.0484  1.4402
   56CHL1    H8 4085   0.569   2.371   4.498 -1.9019 -0.1987  0.0098
   56CHL1   C14 4086   0.585   2.234   4.669 -1.0576 -0.2456 -0.0009
   56CHL1   H14 4087   0.584   2.123   4.668  0.8574 -0.2943 -0.0891
   56CHL1   C15 4088   0.475   2.294   4.765  0.0450  0.1879 -0.1995
   56CHL1  H15A 4089   0.443   2.389   4.717 -1.7626 -0.6848 -0.8417
   56CHL1  H15B 4090   0.391   2.220   4.769  1.2190 -1.1478  1.1317
   56CHL1   C16 4091   0.551   2.291   4.897 -0.8097  0.2209  0.2615
   56CHL1  H16A 4092   0.566   2.394   4.934 -0.4184 -0.1102  1.0457
   56CHL1  H16B 4093   0.503   2.235   4.981 -1.7927  0.5761 -0.0501
   56CHL1   C17 4094   0.698   2.245   4.867 -0.3828  0.9704  0.1180
   56CHL1   H17 4095   0.707   2.136   4.887 -0.5058  0.8525 -0.4474
   56CHL1   C13 4096   0.730   2.266   4.718  0.5729 -1.0776 -0.6449
   56CHL1   C18 4097   0.748   2.418   4.699 -0.0988  0.3443 -0.0204
   56CHL1  H18A 4098   0.734   2.438   4.590 -0.6509 -2.7360 -0.6040
   56CHL1  H18B 4099   0.680   2.485   4.756 -1.2257 -0.0704 -0.8433
   56CHL1  H18C 4100   0.856   2.424   4.722  0.1003 -2.9614  0.3231
   56CHL1   C12 4101   0.820   2.168   4.647 -0.3777 -0.6756  0.0918
   56CHL1  H12A 4102   0.926   2.181   4.677 -0.6513  1.3312  0.3291
   56CHL1  H12B 4103   0.799   2.063   4.678 -0.3958  0.0166  2.6146
   56CHL1   C11 4104   0.815   2.190   4.497  0.0373  1.1307  0.1185
   56CHL1  H11A 4105   0.855   2.291   4.474 -1.6592  1.5916 -0.9683
   56CHL1  H11B 4106   0.883   2.110   4.460 -0.7599  0.6131 -0.2461
   56CHL1    C9 4107   0.675   2.184   4.432 -0.7013  0.1404  1.2161
   56CHL1    H9 4108   0.651   2.076   4.440  1.7895 -0.6297 -0.5932
   56CHL1   C10 4109   0.669   2.203   4.276 -0.8291 -0.6649 -0.0284
   56CHL1   C19 4110   0.711   2.353   4.246  0.2562 -0.5062 -0.6799
   56CHL1  H19A 4111   0.806   2.378   4.298 -0.5963  1.6951 -0.0931
   56CHL1  H19B 4112   0.731   2.378   4.139 -0.9148  0.1352 -0.7682
   56CHL1  H19C 4113   0.642   2.421   4.299 -0.5654 -1.6324 -0.2563
   56CHL1    C1 4114   0.754   2.102   4.193 -0.3468  0.4949  0.2254
   56CHL1   H1A 4115   0.861   2.128   4.208 -0.3570  0.5181  0.2569
   56CHL1   H1B 4116   0.724   2.002   4.230 -1.9518  0.9170  0.1283
   56CHL1    C2 4117   0.736   2.090   4.042  0.4440  0.0392  0.0117
   56CHL1   H2A 4118   0.800   2.003   4.015 -0.4989 -1.2046  1.6021
   56CHL1   H2B 4119   0.779   2.181   3.995  2.9476 -1.9609 -1.8400
   56CHL1   C20 4120   0.801   2.314   4.959  0.1901  0.2031  0.1111
   56CHL1   H20 4121   0.807   2.422   4.936 -1.4777  0.9258  2.6547
   56CHL1   C21 4122   0.940   2.252   4.929 -0.6490  0.1182  0.4404
   56CHL1  H21A 4123   0.932   2.141   4.921 -0.2539 -0.0885  2.4656
   56CHL1  H21B 4124   1.019   2.280   5.002 -1.1156  1.5819  0.4089
   56CHL1  H21C 4125   0.972   2.291   4.830  0.2926 -1.5070  0.0586
   56CHL1   C22 4126   0.769   2.308   5.108  0.3820 -0.8184 -0.1999
   56CHL1  H22A 4127   0.837   2.371   5.170 -0.6900  1.1653 -0.9532
   56CHL1  H22B 4128   0.667   2.351   5.116  0.2608 -1.1596  0.1226
   56CHL1   C23 4129   0.771   2.171   5.181  0.1068  0.8081  0.1169
   56CHL1  H23A 4130   0.701   2.110   5.120  0.5960 -0.9733  1.2622
   56CHL1  H23B 4131   0.873   2.127   5.173 -0.0472  0.6151 -0.9190
   56CHL1   C24 4132   0.733   2.174   5.329  0.5393  0.2297 -0.1765
   56CHL1  H24A 4133   0.821   2.205   5.389 -0.5265  0.0441  1.5386
   56CHL1  H24B 4134   0.645   2.239   5.350 -0.9784 -1.7185 -0.3004
   56CHL1   C25 4135   0.701   2.037   5.396  0.2566 -0.5084 -0.1323
   56CHL1   H25 4136   0.623   1.993   5.331  2.1319 -1.8999 -1.5614
   56CHL1   C26 4137   0.813   1.930   5.388 -0.0390 -0.9525 -0.0189
   56CHL1  H26A 4138   0.821   1.904   5.280  1.4043  1.5162 -0.5815
   56CHL1  H26B 4139   0.901   1.980   5.434 -0.1383 -1.7036  1.0250
   56CHL1  H26C 4140   0.782   1.848   5.456 -2.1200 -0.4781 -0.3309
   56CHL1   C27 4141   0.640   2.057   5.533  0.1790  0.3843  0.9014
   56CHL1  H27A 4142   0.718   2.041   5.610  1.4405 -3.4692 -0.8936
   56CHL1  H27B 4143   0.590   2.153   5.557 -2.0846 -1.1947  2.9045
   56CHL1  H27C 4144   0.561   1.983   5.557 -1.8390  1.7024 -1.2174
   57SAPC     N 4145   1.091   3.522   7.275  0.7702  0.0920 -0.8650
   57SAPC   C12 4146   1.180   3.580   7.384  0.2385  0.6838 -0.1806
   57SAPC  H12A 4147   1.249   3.506   7.422  0.8385  2.3816  2.2844
   57SAPC  H12B 4148   1.119   3.583   7.474 -0.3801  0.3647 -0.5841
   57SAPC   C13 4149   1.166   3.528   7.147  0.2771 -0.3207 -0.5289
   57SAPC  H13A 4150   1.263   3.487   7.171 -0.2790 -1.1342  0.4519
   57SAPC  H13B 4151   1.112   3.472   7.072 -1.0381  0.8761 -0.5079
   57SAPC  H13C 4152   1.175   3.624   7.100 -0.6038 -0.3923 -0.8669
   57SAPC   C14 4153   1.061   3.379   7.296  0.5517 -0.4463 -0.1044
   57SAPC  H14A 4154   1.147   3.314   7.292  0.9175  0.0981 -1.4826
   57SAPC  H14B 4155   0.996   3.360   7.380 -0.1887  0.3355 -0.4838
   57SAPC  H14C 4156   0.999   3.339   7.216  0.5803 -1.3223  0.2963
   57SAPC   C15 4157   0.963   3.596   7.252  0.4834 -0.1772  0.0016
   57SAPC  H15A 4158   0.898   3.566   7.171 -0.7617  2.8947 -0.2513
   57SAPC  H15B 4159   0.911   3.600   7.347  3.3697  1.4640  1.6856
   57SAPC  H15C 4160   1.008   3.692   7.230  0.8392 -0.4467 -0.4569
   57SAPC   C11 4161   1.246   3.714   7.360 -0.3965 -0.3110  0.0889
   57SAPC  H11A 4162   1.308   3.702   7.269 -0.2006 -1.7615  0.3791
   57SAPC  H11B 4163   1.319   3.741   7.440 -0.1272  1.0185 -0.5830
   57SAPC     P 4164   1.137   3.935   7.243 -0.3516  0.2878 -0.0006
   57SAPC   O13 4165   1.079   4.051   7.311 -0.1164  0.3139  0.2781
   57SAPC   O14 4166   1.268   3.955   7.185 -0.1647  0.0573 -0.7965
   57SAPC   O12 4167   1.147   3.818   7.353  0.5912 -0.7203  0.4089
   57SAPC   O11 4168   1.041   3.888   7.131  0.7829  0.0068 -0.1015
   57SAPC    C1 4169   1.093   3.861   7.001  0.0647  0.5028 -0.0638
   57SAPC    HA 4170   1.187   3.803   7.005 -0.4797 -0.3272  1.1804
   57SAPC    HB 4171   1.026   3.795   6.941 -0.4319  1.6985 -0.8857
   57SAPC    C2 4172   1.118   3.996   6.924 -0.3488  0.8702  0.6366
   57SAPC    HS 4173   1.195   4.053   6.981  0.0874  0.3221  0.6038
   57SAPC   O21 4174   0.996   4.064   6.918  0.0987 -0.1964  0.1142
   57SAPC   C21 4175   0.995   4.191   6.892  0.7613 -0.4054 -1.5139
   57SAPC   O22 4176   1.096   4.260   6.881 -0.3506 -0.1769 -0.2281
   57SAPC   C22 4177   0.851   4.244   6.864  0.1367  0.0326 -0.8584
   57SAPC   H2R 4178   0.810   4.203   6.769 -0.3649 -2.2077  0.2627
   57SAPC   H2S 4179   0.785   4.206   6.944  0.7747  2.5784  0.9970
   57SAPC    C3 4180   1.171   3.974   6.782  0.2982 -0.4599 -0.7469
   57SAPC    HX 4181   1.082   3.948   6.720  0.6361  2.1068 -2.4409
   57SAPC    HY 4182   1.241   3.888   6.789  0.6268 -0.0897  1.0388
   57SAPC   O31 4183   1.246   4.084   6.722  0.3730  0.2210  0.0230
   57SAPC   C31 4184   1.362   4.115   6.769 -0.6945 -0.3505  0.3516
   57SAPC   O32 4185   1.418   4.050   6.851 -0.2311  0.1650 -0.2629
   57SAPC   C32 4186   1.408   4.247   6.711 -0.1320  0.2986 -0.9717
   57SAPC   H2X 4187   1.510   4.256   6.755  0.3756 -2.8879 -1.3050
   57SAPC   H2Y 4188   1.342   4.327   6.750 -0.3902 -0.2826 -0.1940
   57SAPC   C23 4189   0.833   4.397   6.873 -0.2947  0.1833 -0.5973
   57SAPC   H3R 4190   0.922   4.455   6.840 -0.2474  1.8254  2.0763
   57SAPC   H3S 4191   0.822   4.420   6.981  0.2767  1.3976 -0.7841
   57SAPC   C24 4192   0.699   4.453   6.809 -0.1739  0.2826 -0.5401
   57SAPC   H4R 4193   0.673   4.549   6.860  1.4478  0.2094  0.4734
   57SAPC   H4S 4194   0.628   4.377   6.849  2.8502 -2.7873 -0.5953
   57SAPC   C25 4195   0.706   4.472   6.659  0.1044 -0.1345 -0.2544
   57SAPC   H5R 4196   0.767   4.556   6.625  1.0462 -0.2060  1.2065
   57SAPC   C26 4197   0.632   4.410   6.565 -0.6573 -0.0074 -0.0654
   57SAPC   H6R 4198   0.640   4.449   6.462 -3.6192  1.1637  0.0336
   57SAPC   C27 4199   0.524   4.313   6.587  0.6952 -0.2995  0.0637
   57SAPC   H7R 4200   0.477   4.340   6.683 -1.1920 -0.4547 -0.7821
   57SAPC   H7S 4201   0.571   4.213   6.603  0.8092 -0.2876 -0.1870
   57SAPC   C28 4202   0.425   4.307   6.472 -0.6679 -0.0518 -0.1847
   57SAPC   H8R 4203   0.341   4.375   6.494  0.3174  1.3862 -0.6785
   57SAPC   C29 4204   0.427   4.238   6.362 -0.7217 -0.0694 -0.1225
   57SAPC   H9R 4205   0.343   4.245   6.291 -0.2531 -0.9451 -0.7949
   57SAPC  C210 4206   0.541   4.145   6.319 -0.2909 -0.3622 -0.3012
   57SAPC  H10R 4207   0.557   4.066   6.395  1.5084 -0.4250 -0.6858
   57SAPC  H10S 4208   0.637   4.201   6.326 -0.8337  0.4158  1.2242
   57SAPC  C211 4209   0.515   4.080   6.186 -0.3695 -0.2206  0.0708
   57SAPC  H11R 4210   0.433   4.007   6.190 -0.4506 -0.1694 -0.6560
   57SAPC  C212 4211   0.579   4.081   6.067 -0.4474  1.1131 -0.3851
   57SAPC  H12R 4212   0.532   4.023   5.986 -0.3598  0.1772  0.2289
   57SAPC  C213 4213   0.700   4.163   6.031 -0.0751 -0.2143  0.1623
   57SAPC  H13R 4214   0.748   4.128   5.937  0.7701 -1.1792  0.9267
   57SAPC  H13S 4215   0.777   4.150   6.110 -1.0656 -2.0007  0.9150
   57SAPC  C214 4216   0.666   4.312   5.994 -0.0409  0.2338 -1.1333
   57SAPC  H14R 4217   0.563   4.348   5.981 -0.8871 -2.1392 -1.4676
   57SAPC  C215 4218   0.760   4.410   5.988  0.5309  0.1993 -0.2132
   57SAPC  H15R 4219   0.721   4.510   5.965  0.3070  0.1157 -0.2077
   57SAPC  C216 4220   0.907   4.395   6.004 -0.0143  0.4542  0.0229
   57SAPC  H16R 4221   0.961   4.452   5.924 -0.1350 -1.8621 -1.8237
   57SAPC  H16S 4222   0.935   4.292   5.974  2.7883  1.4258 -1.0581
   57SAPC  C217 4223   0.965   4.439   6.135  0.7311  0.4086 -0.6320
   57SAPC  H17R 4224   0.927   4.537   6.171  0.5733  0.0908  0.0862
   57SAPC  H17S 4225   1.071   4.461   6.110  0.5511  2.6207  0.2935
   57SAPC  C218 4226   0.962   4.325   6.239  0.8653  0.5579 -0.2253
   57SAPC  H18R 4227   0.996   4.231   6.192 -2.6833 -0.2933 -1.3955
   57SAPC  H18S 4228   0.856   4.315   6.270  1.1079 -0.0204  0.4768
   57SAPC  C219 4229   1.036   4.350   6.374  0.9232 -0.2309 -0.0386
   57SAPC  H19R 4230   1.009   4.450   6.416 -1.6245 -0.6948 -0.3855
   57SAPC  H19S 4231   1.146   4.350   6.359  1.1044  0.7416  1.1133
   57SAPC  C220 4232   1.003   4.250   6.482 -0.4468 -0.0381 -0.0575
   57SAPC  H20R 4233   0.896   4.251   6.512 -0.5227 -0.8040 -0.2875
   57SAPC  H20S 4234   1.058   4.273   6.576  1.0034 -0.6553 -0.7105
   57SAPC  H20T 4235   1.026   4.146   6.449 -0.2929  0.2765 -0.9690
   57SAPC   C33 4236   1.426   4.258   6.559 -0.1025 -0.0073 -0.0754
   57SAPC   H3X 4237   1.441   4.366   6.537 -1.3337  0.3441  0.6810
   57SAPC   H3Y 4238   1.334   4.224   6.507 -0.8272 -0.7071  1.6004
   57SAPC   C34 4239   1.553   4.200   6.502 -0.0757 -0.0029 -0.2901
   57SAPC   H4X 4240   1.548   4.089   6.511 -1.4876  0.0941  0.5265
   57SAPC   H4Y 4241   1.643   4.243   6.549  0.9029 -1.8712 -0.3678
   57SAPC   C35 4242   1.564   4.218   6.350  0.1907 -0.2192  0.3442
   57SAPC   H5X 4243   1.560   4.326   6.322  1.1480 -1.0320 -3.5243
   57SAPC   H5Y 4244   1.481   4.161   6.303  1.2605 -0.5642 -1.2197
   57SAPC   C36 4245   1.693   4.171   6.276 -0.2638  0.3919 -0.8222
   57SAPC   H6X 4246   1.718   4.069   6.310  0.7359  0.6076 -0.8886
   57SAPC   H6Y 4247   1.778   4.236   6.305  0.9019 -1.5393  0.2408
   57SAPC   C37 4248   1.673   4.185   6.128 -0.0487 -0.2735  0.1559
   57SAPC   H7X 4249   1.649   4.287   6.094 -3.2826 -0.3806  1.7791
   57SAPC   H7Y 4250   1.588   4.120   6.098 -3.3437  3.6692  0.1861
   57SAPC   C38 4251   1.791   4.139   6.043  0.2309 -0.4555 -0.1064
   57SAPC   H8X 4252   1.805   4.032   6.066  0.2284 -0.3051  0.6326
   57SAPC   H8Y 4253   1.884   4.192   6.074 -0.7409  0.7626  0.8373
   57SAPC   C39 4254   1.776   4.139   5.888  0.5191  0.2514  0.1466
   57SAPC   H9X 4255   1.871   4.104   5.842  2.1876  1.1292  2.7197
   57SAPC   H9Y 4256   1.739   4.238   5.855 -0.2550 -0.4608 -1.2512
   57SAPC  C310 4257   1.666   4.032   5.849  0.1144 -0.4492  0.2599
   57SAPC  H10X 4258   1.574   4.058   5.904 -2.2560 -5.6599 -0.6295
   57SAPC  H10Y 4259   1.678   3.934   5.900  1.2183 -0.2180  0.4779
   57SAPC  C311 4260   1.651   4.019   5.700  0.1475 -0.3614 -0.1604
   57SAPC  H11X 4261   1.730   3.953   5.660  0.7900  1.2308 -1.6373
   57SAPC  H11Y 4262   1.672   4.116   5.651 -1.2847 -0.2081 -0.5396
   57SAPC  C312 4263   1.510   3.987   5.633 -0.4268 -0.1153  0.6926
   57SAPC  H12X 4264   1.530   3.995   5.525 -3.6879  0.5096  0.0311
   57SAPC  H12Y 4265   1.434   4.063   5.664 -0.1218  0.7217 -0.5223
   57SAPC  C313 4266   1.464   3.845   5.656 -0.1691 -0.4984  0.4377
   57SAPC  H13X 4267   1.448   3.835   5.766  2.5418  2.3856  1.2813
   57SAPC  H13Y 4268   1.544   3.773   5.628 -0.1813 -0.5393  0.5072
   57SAPC  C314 4269   1.339   3.807   5.582 -0.4247  0.6577 -0.0714
   57SAPC  H14X 4270   1.310   3.702   5.605 -0.6342  0.6939 -0.1644
   57SAPC  H14Y 4271   1.364   3.809   5.474 -0.8944 -0.1029 -0.2071
   57SAPC  C315 4272   1.211   3.880   5.625 -0.1023  0.5008  1.1234
   57SAPC  H15X 4273   1.220   3.926   5.725  2.1131  2.8050 -0.0168
   57SAPC  H15Y 4274   1.127   3.807   5.621  0.4068 -0.0600 -0.0275
   57SAPC  C316 4275   1.176   3.985   5.516 -0.6927  0.4977  0.3223
   57SAPC  H16X 4276   1.271   4.032   5.483 -1.4473  2.8426  1.2914
   57SAPC  H16Y 4277   1.114   4.068   5.557  0.6394  1.1064  1.1815
   57SAPC  C317 4278   1.115   3.922   5.388  0.4263  0.1855 -0.1897
   57SAPC  H17X 4279   1.016   3.883   5.421  0.5224  1.2629  1.4988
   57SAPC  H17Y 4280   1.178   3.840   5.347  0.6165  1.5843 -2.8542
   57SAPC  C318 4281   1.096   4.031   5.289  0.2977 -0.4537  0.0197
   57SAPC  H18X 4282   1.027   4.110   5.325 -1.8469 -2.4989  0.6920
   57SAPC  H18Y 4283   1.037   3.998   5.201 -1.9742  1.6706  0.6375
   57SAPC  H18Z 4284   1.191   4.079   5.258 -0.2313  0.1272 -0.7426
   58SAPC     N 4285   3.869   4.187   7.758 -0.3478 -0.0460  0.7090
   58SAPC   C12 4286   3.962   4.065   7.743  0.0624 -0.0284 -0.9637
   58SAPC  H12A 4287   3.947   4.027   7.643  0.0200  1.7276 -1.6635
   58SAPC  H12B 4288   3.922   3.995   7.814 -0.1848  2.1608  1.1851
   58SAPC   C13 4289   3.894   4.298   7.661  0.3252 -0.6874  0.0615
   58SAPC  H13A 4290   3.845   4.388   7.696 -0.7411 -0.9323 -0.7548
   58SAPC  H13B 4291   3.998   4.324   7.671 -0.0016  1.2592 -1.0888
   58SAPC  H13C 4292   3.863   4.276   7.560  0.2855  0.5131 -0.2008
   58SAPC   C14 4293   3.719   4.147   7.748  0.0958 -0.0326  0.2853
   58SAPC  H14A 4294   3.708   4.047   7.788 -1.1121  0.2300  0.6467
   58SAPC  H14B 4295   3.653   4.213   7.803  0.3054  1.3490 -1.0523
   58SAPC  H14C 4296   3.690   4.152   7.644  2.4570  1.1475 -0.3990
   58SAPC   C15 4297   3.888   4.243   7.894 -0.1997 -0.3340 -0.2650
   58SAPC  H15A 4298   3.864   4.168   7.968  0.9590 -0.2535  0.2133
   58SAPC  H15B 4299   3.987   4.284   7.911 -0.9095  0.9679  1.0409
   58SAPC  H15C 4300   3.833   4.335   7.905  0.3776  0.2990 -2.3208
   58SAPC   C11 4301   4.115   4.085   7.766 -0.7570  0.1249  0.1565
   58SAPC  H11A 4302   4.168   3.988   7.774 -1.1732 -0.1185 -0.0477
   58SAPC  H11B 4303   4.125   4.135   7.865 -1.9688 -0.4202  0.5689
   58SAPC     P 4304   4.202   4.115   7.527 -0.1321  0.0564  0.0278
   58SAPC   O13 4305   4.307   4.012   7.539 -0.6968 -0.1494  0.1889
   58SAPC   O14 4306   4.081   4.072   7.459 -0.3708  0.0828 -0.2493
   58SAPC   O12 4307   4.169   4.168   7.669 -0.4497  0.4488  0.4392
   58SAPC   O11 4308   4.261   4.245   7.455  0.2116  1.0521  0.5822
   58SAPC    C1 4309   4.200   4.367   7.456 -0.1068 -0.0869  0.1288
   58SAPC    HA 4310   4.096   4.353   7.420 -0.1964 -1.1334  0.7488
   58SAPC    HB 4311   4.177   4.400   7.560 -0.4467 -2.5852  0.9223
   58SAPC    C2 4312   4.276   4.465   7.363 -0.2096  0.3414  0.1456
   58SAPC    HS 4313   4.211   4.554   7.347 -1.1983 -0.6332 -1.5589
   58SAPC   O21 4314   4.320   4.407   7.234 -0.2942 -0.4687 -0.4979
   58SAPC   C21 4315   4.214   4.379   7.159 -0.1882 -0.4352  0.0064
   58SAPC   O22 4316   4.102   4.420   7.178 -0.1421 -0.2377 -0.3430
   58SAPC   C22 4317   4.252   4.289   7.034  0.1104 -0.5775 -0.4790
   58SAPC   H2R 4318   4.276   4.364   6.956 -0.6851  1.4707  1.1394
   58SAPC   H2S 4319   4.332   4.218   7.063 -1.3325 -2.3569 -0.6464
   58SAPC    C3 4320   4.407   4.508   7.437  0.4552 -0.4042  0.9646
   58SAPC    HX 4321   4.462   4.420   7.476 -1.7974 -1.7187  1.3757
   58SAPC    HY 4322   4.353   4.557   7.521 -1.2847  0.0664 -0.3549
   58SAPC   O31 4323   4.470   4.625   7.381 -0.7623 -0.2186  0.2826
   58SAPC   C31 4324   4.583   4.594   7.320  0.0628  0.5593  0.0747
   58SAPC   O32 4325   4.632   4.482   7.309 -0.2255 -0.2954 -0.6081
   58SAPC   C32 4326   4.650   4.720   7.259 -0.7205  1.1255 -0.5185
   58SAPC   H2X 4327   4.694   4.783   7.340  1.5147 -0.6025 -0.2936
   58SAPC   H2Y 4328   4.567   4.776   7.211 -1.5991  1.4575  1.2869
   58SAPC   C23 4329   4.132   4.199   6.988 -0.2814 -0.3927  0.1631
   58SAPC   H3R 4330   4.046   4.254   6.945  1.7766  1.2018 -2.2317
   58SAPC   H3S 4331   4.100   4.152   7.083 -0.4922  0.8985  0.7597
   58SAPC   C24 4332   4.184   4.096   6.879  0.0605 -0.5196 -0.3541
   58SAPC   H4R 4333   4.278   4.049   6.916  0.5032  0.8932  0.3965
   58SAPC   H4S 4334   4.219   4.152   6.790  0.5442 -1.8197 -0.9947
   58SAPC   C25 4335   4.100   3.974   6.859  0.7482  0.0704  0.1728
   58SAPC   H5R 4336   4.089   3.906   6.945 -0.2587  2.1701  1.8123
   58SAPC   C26 4337   4.031   3.931   6.750 -0.8064 -0.6415  0.0276
   58SAPC   H6R 4338   3.993   3.828   6.754  0.0167 -0.9352  0.5080
   58SAPC   C27 4339   4.037   4.000   6.616 -0.0439  0.2603 -0.1544
   58SAPC   H7R 4340   4.115   3.957   6.550  0.7563  0.7236  0.4772
   58SAPC   H7S 4341   4.052   4.107   6.643  0.8783 -0.6409  3.4331
   58SAPC   C28 4342   3.899   3.984   6.555 -0.3010  0.3758  0.2801
   58SAPC   H8R 4343   3.816   3.968   6.625  0.1145 -0.3257  0.6258
   58SAPC   C29 4344   3.875   3.988   6.421  0.1537 -0.1405  0.3222
   58SAPC   H9R 4345   3.779   3.955   6.377  1.5985  0.6063 -3.8914
   58SAPC  C210 4346   3.977   4.017   6.313 -0.1455  0.2175 -0.5840
   58SAPC  H10R 4347   4.053   4.085   6.358  0.5718 -2.0878  1.9443
   58SAPC  H10S 4348   3.923   4.071   6.233 -3.1828 -0.1541  1.0818
   58SAPC  C211 4349   4.045   3.894   6.252  0.0270  1.0465  0.0975
   58SAPC  H11R 4350   4.058   3.802   6.311 -0.8200  0.3388 -0.7873
   58SAPC  C212 4351   4.090   3.881   6.124  0.9556  0.0284 -0.0608
   58SAPC  H12R 4352   4.141   3.786   6.100  0.8689  0.4463 -2.1340
   58SAPC  C213 4353   4.096   3.983   6.011  0.7394 -0.4815  0.3054
   58SAPC  H13R 4354   4.022   4.066   6.010  2.3552  1.0609 -1.7712
   58SAPC  H13S 4355   4.059   3.931   5.919  2.0651  0.1998 -0.6434
   58SAPC  C214 4356   4.231   4.047   5.985 -0.2751  0.5718  0.2934
   58SAPC  H14R 4357   4.306   4.046   6.066 -2.0635  0.8909  2.0441
   58SAPC  C215 4358   4.289   4.071   5.866  0.2840 -1.2899 -0.2304
   58SAPC  H15R 4359   4.390   4.112   5.852 -0.6854  2.0251  1.3897
   58SAPC  C216 4360   4.215   4.059   5.736 -0.4153 -0.5068 -0.1862
   58SAPC  H16R 4361   4.195   4.158   5.689 -0.2423  0.4429  1.6666
   58SAPC  H16S 4362   4.111   4.023   5.750 -0.7289  0.5339  0.2443
   58SAPC  C217 4363   4.279   3.952   5.643  0.0831  0.1582  0.0609
   58SAPC  H17R 4364   4.281   3.858   5.702  1.9443  0.5760  0.7261
   58SAPC  H17S 4365   4.383   3.974   5.613  0.0730  2.9202  1.7378
   58SAPC  C218 4366   4.191   3.927   5.522 -0.5413 -0.2738 -0.4031
   58SAPC  H18R 4367   4.162   4.009   5.452 -0.1177  0.8885  0.7443
   58SAPC  H18S 4368   4.102   3.896   5.580 -0.1533  0.7371  0.7595
   58SAPC  C219 4369   4.238   3.804   5.441  0.4366  0.4837 -0.2202
   58SAPC  H19R 4370   4.155   3.768   5.376  1.1602 -2.1751  0.2043
   58SAPC  H19S 4371   4.269   3.730   5.518  0.3728  1.3315  0.6316
   58SAPC  C220 4372   4.355   3.827   5.352 -1.0278  0.0739 -0.1852
   58SAPC  H20R 4373   4.442   3.859   5.414 -1.7893  1.5811  0.1403
   58SAPC  H20S 4374   4.321   3.911   5.288 -1.4613  0.4279  0.4973
   58SAPC  H20T 4375   4.387   3.735   5.298 -2.7462  0.2267 -1.5621
   58SAPC   C33 4376   4.767   4.688   7.168 -0.2577  0.5343  0.7375
   58SAPC   H3X 4377   4.820   4.595   7.197 -0.3083  0.4119  0.4401
   58SAPC   H3Y 4378   4.838   4.773   7.157  0.1437  0.2513  1.1466
   58SAPC   C34 4379   4.715   4.659   7.027 -0.5015  0.3603 -0.7015
   58SAPC   H4X 4380   4.643   4.741   7.002 -1.7279 -1.1546 -2.4322
   58SAPC   H4Y 4381   4.654   4.566   7.035  0.8024 -0.6245 -1.6858
   58SAPC   C35 4382   4.834   4.637   6.932  0.1614 -0.5242  0.3949
   58SAPC   H5X 4383   4.898   4.549   6.954  1.5219  0.2175 -0.5050
   58SAPC   H5Y 4384   4.903   4.723   6.937  0.2374 -0.5448 -0.2030
   58SAPC   C36 4385   4.782   4.624   6.790 -0.3985  0.2656  0.5580
   58SAPC   H6X 4386   4.758   4.724   6.747 -1.1980 -0.2099 -0.1190
   58SAPC   H6Y 4387   4.687   4.566   6.788 -0.4301  0.0497  3.3155
   58SAPC   C37 4388   4.875   4.544   6.691  0.1149  0.2698  0.1986
   58SAPC   H7X 4389   4.896   4.445   6.737  0.1008  1.0002  1.8650
   58SAPC   H7Y 4390   4.975   4.591   6.681 -0.0513  0.5219 -0.3018
   58SAPC   C38 4391   4.810   4.520   6.556  0.6677 -0.8031  0.3618
   58SAPC   H8X 4392   4.797   4.616   6.502 -3.5404  0.1199  2.5928
   58SAPC   H8Y 4393   4.706   4.485   6.569 -0.1349  1.0660 -0.6515
   58SAPC   C39 4394   4.878   4.416   6.465  0.4557 -0.1121 -0.1435
   58SAPC   H9X 4395   4.880   4.313   6.506 -1.1118  0.6117  1.9416
   58SAPC   H9Y 4396   4.984   4.449   6.457  0.4229 -0.0959 -0.5030
   58SAPC  C310 4397   4.798   4.398   6.331  0.3768 -0.6905 -0.4754
   58SAPC  H10X 4398   4.773   4.498   6.291  1.9832 -0.3641 -0.7300
   58SAPC  H10Y 4399   4.705   4.342   6.356  0.2860  0.1380  1.1828
   58SAPC  C311 4400   4.875   4.328   6.221 -0.3059 -0.3535  0.0815
   58SAPC  H11X 4401   4.911   4.229   6.256 -1.9382 -1.0509 -0.1130
   58SAPC  H11Y 4402   4.962   4.384   6.181  0.4589 -1.3621  0.2854
   58SAPC  C312 4403   4.791   4.293   6.089 -0.0976  0.2589 -0.3924
   58SAPC  H12X 4404   4.787   4.370   6.010 -0.1555  1.5541  0.8199
   58SAPC  H12Y 4405   4.683   4.276   6.109 -0.3984 -0.6420 -2.5981
   58SAPC  C313 4406   4.843   4.163   6.039 -0.3331 -0.5808  0.1056
   58SAPC  H13X 4407   4.868   4.080   6.109  0.6024 -0.1734  0.2648
   58SAPC  H13Y 4408   4.930   4.177   5.973 -0.6927  0.4853 -0.1646
   58SAPC  C314 4409   4.740   4.120   5.924 -0.9032 -0.0246 -0.3307
   58SAPC  H14X 4410   4.703   4.209   5.869  0.2655 -1.0518 -2.9814
   58SAPC  H14Y 4411   4.652   4.064   5.960  1.0578 -2.2457  1.2530
   58SAPC  C315 4412   4.807   4.039   5.809  0.8823  0.6938 -0.1409
   58SAPC  H15X 4413   4.870   4.094   5.736  3.4556 -1.6948  0.1252
   58SAPC  H15Y 4414   4.722   4.003   5.747  0.5576  1.5881 -0.2348
   58SAPC  C316 4415   4.888   3.915   5.857  0.8970  0.1475  0.0671
   58SAPC  H16X 4416   4.818   3.848   5.912  2.1267 -1.7870 -0.6416
   58SAPC  H16Y 4417   4.963   3.937   5.936 -1.3314  0.1901  2.3065
   58SAPC  C317 4418   4.962   3.836   5.741  0.5470  0.4267 -0.3116
   58SAPC  H17X 4419   5.007   3.903   5.665 -0.0983 -0.3664 -1.4233
   58SAPC  H17Y 4420   4.873   3.790   5.694 -1.1770  1.5398  1.6777
   58SAPC  C318 4421   5.060   3.734   5.797  0.1514  0.0326 -0.1556
   58SAPC  H18X 4422   5.025   3.682   5.888 -1.7875 -1.4144 -1.6543
   58SAPC  H18Y 4423   5.157   3.782   5.824  0.8728 -0.7022 -1.3310
   58SAPC  H18Z 4424   5.090   3.663   5.717 -1.9081 -0.4373 -0.5616
   59SAPC     N 4425   5.327   0.048   8.253 -0.3271  0.6768  0.6873
   59SAPC   C12 4426   5.454   0.091   8.196 -0.4274  0.4808  0.2821
   59SAPC  H12A 4427   5.534   0.038   8.246 -0.6382  1.1324  1.3358
   59SAPC  H12B 4428   5.462   0.196   8.220 -1.2260  0.2183  1.8089
   59SAPC   C13 4429   5.308  -0.108   8.250 -0.3503 -0.5550  0.4136
   59SAPC  H13A 4430   5.374  -0.169   8.311  0.0364  0.0928  0.6556
   59SAPC  H13B 4431   5.203  -0.125   8.267 -0.5901 -0.7844 -1.1746
   59SAPC  H13C 4432   5.325  -0.141   8.149  0.4204  1.0533 -0.0201
   59SAPC   C14 4433   5.314   0.092   8.395  0.2086 -0.3878 -0.0363
   59SAPC  H14A 4434   5.327   0.199   8.403  1.4177 -0.5709  0.6500
   59SAPC  H14B 4435   5.224   0.056   8.442 -0.8472  1.0716 -0.8280
   59SAPC  H14C 4436   5.396   0.051   8.452  0.4094  0.4969  0.3314
   59SAPC   C15 4437   5.214   0.098   8.164  0.2831 -0.1730 -0.8327
   59SAPC  H15A 4438   5.120   0.100   8.217  1.4351 -0.5380  1.3383
   59SAPC  H15B 4439   5.230   0.197   8.125  0.0458  0.2049 -0.0008
   59SAPC  H15C 4440   5.204   0.043   8.072 -2.3878 -2.8137  0.8540
   59SAPC   C11 4441   5.473   0.074   8.042  0.1377 -0.0669  0.4503
   59SAPC  H11A 4442   5.444  -0.030   8.015  0.6524 -0.0687 -0.1060
   59SAPC  H11B 4443   5.579   0.098   8.019  0.2819 -0.0904  1.0798
   59SAPC     P 4444   5.421   0.317   7.932  0.2363 -0.3204  0.2333
   59SAPC   O13 4445   5.374   0.405   8.044  0.1887  0.0340 -0.4050
   59SAPC   O14 4446   5.563   0.329   7.895  0.4863  1.0473  0.0740
   59SAPC   O12 4447   5.386   0.166   7.969 -0.3674  0.3079  0.5529
   59SAPC   O11 4448   5.343   0.336   7.796  0.0649  0.1517  0.0747
   59SAPC    C1 4449   5.204   0.358   7.819 -0.1624  0.7310 -0.1840
   59SAPC    HA 4450   5.148   0.262   7.824  0.2970  0.4456 -0.3737
   59SAPC    HB 4451   5.177   0.418   7.908  0.3222  0.1092  0.3939
   59SAPC    C2 4452   5.136   0.435   7.701  1.1358 -0.1144 -0.4804
   59SAPC    HS 4453   5.026   0.445   7.715  0.7031 -2.1189 -2.0476
   59SAPC   O21 4454   5.154   0.384   7.573  0.1562  0.5034 -0.0248
   59SAPC   C21 4455   5.080   0.275   7.534  0.5182 -0.6644  0.1281
   59SAPC   O22 4456   4.995   0.220   7.601 -0.0004  0.3324 -0.0276
   59SAPC   C22 4457   5.122   0.234   7.398  0.1850  0.3499  0.1721
   59SAPC   H2R 4458   5.125   0.319   7.328  0.4466  0.0755 -0.1546
   59SAPC   H2S 4459   5.228   0.201   7.395  0.5850  1.6515 -1.1616
   59SAPC    C3 4460   5.193   0.577   7.693 -0.5143 -0.1135  0.3943
   59SAPC    HX 4461   5.300   0.580   7.721 -0.3863 -1.4330  0.1411
   59SAPC    HY 4462   5.136   0.633   7.770  0.3624  1.9938 -0.4390
   59SAPC   O31 4463   5.165   0.644   7.565  0.5383  0.6268  0.4913
   59SAPC   C31 4464   5.256   0.626   7.461 -0.2342 -0.3392 -0.8827
   59SAPC   O32 4465   5.365   0.581   7.474 -0.2359 -0.0285 -0.0174
   59SAPC   C32 4466   5.191   0.697   7.340 -0.7943 -0.1943 -0.1487
   59SAPC   H2X 4467   5.240   0.795   7.324 -1.0111  0.1719  1.2930
   59SAPC   H2Y 4468   5.094   0.732   7.380  0.6973 -1.1834  5.2708
   59SAPC   C23 4469   5.040   0.119   7.340  0.4308  0.1628  0.0085
   59SAPC   H3R 4470   4.935   0.155   7.348 -0.4495 -2.1168 -0.5339
   59SAPC   H3S 4471   5.043   0.027   7.401  2.2351  1.3266  1.7907
   59SAPC   C24 4472   5.068   0.076   7.195  0.6220  0.1323  0.4648
   59SAPC   H4R 4473   5.028   0.150   7.122 -2.5366 -1.2957  0.5727
   59SAPC   H4S 4474   5.009  -0.015   7.172  0.9822  0.2566 -1.0593
   59SAPC   C25 4475   5.213   0.021   7.184  0.5970 -0.0252  0.5250
   59SAPC   H5R 4476   5.230  -0.079   7.225 -0.5720 -1.1043 -1.4577
   59SAPC   C26 4477   5.312   0.081   7.116 -0.1063 -0.1439 -0.2484
   59SAPC   H6R 4478   5.414   0.045   7.133  1.3544  3.1386 -1.3554
   59SAPC   C27 4479   5.303   0.214   7.047  0.0834 -0.4378  0.1058
   59SAPC   H7R 4480   5.396   0.272   7.064  0.5073 -1.1063  0.1023
   59SAPC   H7S 4481   5.223   0.275   7.094 -0.3933 -0.8440 -0.1688
   59SAPC   C28 4482   5.286   0.202   6.898  0.1373  0.6372 -0.6786
   59SAPC   H8R 4483   5.183   0.188   6.862  0.3542  1.3026 -1.6100
   59SAPC   C29 4484   5.378   0.209   6.797 -0.2655  0.9410 -0.2595
   59SAPC   H9R 4485   5.329   0.192   6.700 -1.9194 -1.0445  0.8397
   59SAPC  C210 4486   5.531   0.230   6.816  0.1244 -0.2796 -0.0564
   59SAPC  H10R 4487   5.559   0.294   6.903  2.8154 -1.5584  0.1337
   59SAPC  H10S 4488   5.572   0.291   6.733  1.6036 -1.8427 -0.5381
   59SAPC  C211 4489   5.622   0.113   6.821 -0.9583 -1.0791 -0.6303
   59SAPC  H11R 4490   5.669   0.109   6.920  1.6020 -2.4161 -1.8066
   59SAPC  C212 4491   5.680   0.039   6.725 -0.0906 -0.2696 -0.3514
   59SAPC  H12R 4492   5.756  -0.035   6.755 -0.1338  0.0666  0.5900
   59SAPC  C213 4493   5.638   0.049   6.583  0.3602 -0.2822 -0.5088
   59SAPC  H13R 4494   5.696   0.133   6.538  0.1376 -0.0903 -0.4396
   59SAPC  H13S 4495   5.531   0.077   6.572  0.6564  0.4461 -1.6758
   59SAPC  C214 4496   5.638  -0.077   6.508 -0.2187  0.5274  0.0596
   59SAPC  H14R 4497   5.627  -0.164   6.576  0.7178  1.7087  1.8013
   59SAPC  C215 4498   5.675  -0.094   6.378  0.2058  0.0886 -0.2906
   59SAPC  H15R 4499   5.674  -0.194   6.332  0.6926  0.5691 -1.3762
   59SAPC  C216 4500   5.710   0.012   6.280 -0.0777 -0.3328 -0.2306
   59SAPC  H16R 4501   5.811   0.009   6.234  1.1214 -0.0279  2.2164
   59SAPC  H16S 4502   5.718   0.113   6.327  1.9701 -0.5113 -0.1085
   59SAPC  C217 4503   5.602   0.028   6.178 -0.0473  0.2580  0.2045
   59SAPC  H17R 4504   5.499   0.026   6.219  0.2699 -0.6917  0.9859
   59SAPC  H17S 4505   5.608  -0.061   6.111  1.1692 -0.2441  0.9403
   59SAPC  C218 4506   5.629   0.152   6.091  0.9510 -0.4470 -0.2332
   59SAPC  H18R 4507   5.738   0.158   6.069  1.4078 -1.7898  1.3827
   59SAPC  H18S 4508   5.620   0.235   6.164 -0.6727 -1.0458  0.2882
   59SAPC  C219 4509   5.534   0.164   5.975  0.9172  0.6050  0.1696
   59SAPC  H19R 4510   5.431   0.164   6.017  0.2093  1.9519 -1.4394
   59SAPC  H19S 4511   5.539   0.087   5.895 -1.9251 -1.4056  1.7585
   59SAPC  C220 4512   5.527   0.300   5.912 -0.0615 -0.3070  0.3363
   59SAPC  H20R 4513   5.442   0.299   5.841  0.4303  3.6298 -0.4893
   59SAPC  H20S 4514   5.620   0.326   5.858  0.0340  0.0757  0.6794
   59SAPC  H20T 4515   5.509   0.369   5.997 -0.6458 -0.8379  0.6549
   59SAPC   C33 4516   5.195   0.625   7.208 -0.0114  0.7739 -0.9423
   59SAPC   H3X 4517   5.106   0.663   7.153 -0.3821 -0.5964 -1.3300
   59SAPC   H3Y 4518   5.167   0.518   7.225  1.1821  0.5225 -0.4112
   59SAPC   C34 4519   5.326   0.640   7.142 -0.3204  0.1399  0.9475
   59SAPC   H4X 4520   5.409   0.610   7.209 -1.0880 -2.4711  0.8194
   59SAPC   H4Y 4521   5.345   0.748   7.123 -3.5540  0.3701 -2.2056
   59SAPC   C35 4522   5.342   0.569   7.009  0.1308  0.4740 -0.1142
   59SAPC   H5X 4523   5.289   0.473   7.027  0.8363  0.1147  0.0906
   59SAPC   H5Y 4524   5.443   0.535   6.979 -0.7869 -1.8807 -0.8409
   59SAPC   C36 4525   5.285   0.653   6.894 -0.2823  0.4274  0.3098
   59SAPC   H6X 4526   5.360   0.720   6.846 -0.6449  1.0094  0.5490
   59SAPC   H6Y 4527   5.208   0.725   6.928 -2.3998 -1.8698  0.7070
   59SAPC   C37 4528   5.217   0.561   6.788 -0.5119  0.1428 -0.0304
   59SAPC   H7X 4529   5.134   0.626   6.753 -0.7076 -1.0556 -1.9728
   59SAPC   H7Y 4530   5.161   0.477   6.834 -2.0401  1.0290 -0.2092
   59SAPC   C38 4531   5.305   0.520   6.673  0.4646  0.4917  1.1851
   59SAPC   H8X 4532   5.390   0.456   6.705 -0.8899 -2.9534 -1.3876
   59SAPC   H8Y 4533   5.349   0.611   6.626 -0.4533  0.2304 -0.2663
   59SAPC   C39 4534   5.226   0.426   6.572 -0.1235 -0.1042  0.0421
   59SAPC   H9X 4535   5.131   0.475   6.542  0.0945 -0.2488 -0.9164
   59SAPC   H9Y 4536   5.197   0.330   6.620  2.0866 -1.2377 -0.7272
   59SAPC  C310 4537   5.305   0.392   6.439 -0.3521 -0.1588 -0.1924
   59SAPC  H10X 4538   5.412   0.394   6.468 -0.8734 -1.6405  2.1436
   59SAPC  H10Y 4539   5.293   0.466   6.357  0.4057 -0.0175 -0.1817
   59SAPC  C311 4540   5.278   0.258   6.366  0.0591 -0.5527 -0.0711
   59SAPC  H11X 4541   5.280   0.186   6.450  3.9039  0.3127  0.7568
   59SAPC  H11Y 4542   5.369   0.228   6.310  0.7812  0.8952  0.2744
   59SAPC  C312 4543   5.148   0.260   6.288 -0.4128  0.0440  0.3699
   59SAPC  H12X 4544   5.073   0.317   6.346 -1.4047  1.7582 -2.3834
   59SAPC  H12Y 4545   5.127   0.152   6.273 -0.9508  0.1936 -0.0027
   59SAPC  C313 4546   5.156   0.328   6.148  0.5275 -0.2531 -0.5709
   59SAPC  H13X 4547   5.253   0.295   6.105  1.3400  0.5454  0.5645
   59SAPC  H13Y 4548   5.164   0.435   6.178 -0.1631 -0.3006 -0.1974
   59SAPC  C314 4549   5.038   0.310   6.055 -0.6591 -1.1983  0.0391
   59SAPC  H14X 4550   4.945   0.350   6.102  1.2388  0.6581  2.4997
   59SAPC  H14Y 4551   5.022   0.202   6.038  0.4492 -1.0444 -2.4256
   59SAPC  C315 4552   5.058   0.388   5.933 -0.7050  0.1474 -0.1564
   59SAPC  H15X 4553   5.152   0.358   5.882 -1.6445 -2.0046 -0.7239
   59SAPC  H15Y 4554   5.055   0.494   5.968  1.4406  0.0067  0.6338
   59SAPC  C316 4555   4.956   0.348   5.830 -0.3960 -0.0293 -0.1068
   59SAPC  H16X 4556   4.936   0.444   5.779 -1.0957  0.0995  0.3875
   59SAPC  H16Y 4557   4.863   0.323   5.886 -0.7416 -1.4594 -1.2542
   59SAPC  C317 4558   5.001   0.225   5.745  0.0157  0.2985  0.1081
   59SAPC  H17X 4559   5.034   0.145   5.814  1.6126 -0.2869 -1.2630
   59SAPC  H17Y 4560   5.092   0.261   5.692 -0.7520  1.9077 -0.1943
   59SAPC  C318 4561   4.913   0.172   5.631 -0.1178 -0.0809 -0.2391
   59SAPC  H18X 4562   4.972   0.089   5.587  1.9030  0.5219  1.1633
   59SAPC  H18Y 4563   4.898   0.250   5.553  0.0573  0.7872  0.5712
   59SAPC  H18Z 4564   4.812   0.145   5.669 -0.0176  1.2355  1.0654
   60SAPC     N 4565   2.183   2.236   7.620 -0.0248  0.1429 -0.5240
   60SAPC   C12 4566   2.178   2.281   7.483 -0.2931 -0.3156 -0.0696
   60SAPC  H12A 4567   2.096   2.346   7.458  1.0073  1.8027  0.9054
   60SAPC  H12B 4568   2.155   2.194   7.423 -1.1363 -0.9843  1.1818
   60SAPC   C13 4569   2.056   2.155   7.644 -0.5191  0.0781 -0.0760
   60SAPC  H13A 4570   1.983   2.189   7.571  0.0160 -1.0153 -1.1490
   60SAPC  H13B 4571   2.086   2.053   7.627  1.2291  0.8226 -1.8695
   60SAPC  H13C 4572   2.028   2.174   7.746  1.7416  0.8345  0.4536
   60SAPC   C14 4573   2.301   2.154   7.655 -0.1770 -0.5944 -0.8859
   60SAPC  H14A 4574   2.393   2.207   7.635  0.8022 -1.0054  2.0414
   60SAPC  H14B 4575   2.298   2.124   7.758 -1.7222 -0.0988 -0.7503
   60SAPC  H14C 4576   2.310   2.058   7.606  1.1071 -0.6651 -0.5357
   60SAPC   C15 4577   2.191   2.357   7.712  0.1543 -0.1738  0.6852
   60SAPC  H15A 4578   2.187   2.326   7.815 -2.5511 -0.0970  0.6679
   60SAPC  H15B 4579   2.285   2.407   7.695  0.9764 -1.1352  2.1135
   60SAPC  H15C 4580   2.108   2.421   7.685 -1.4719 -1.8734  1.4216
   60SAPC   C11 4581   2.311   2.338   7.415  0.4281  1.1120  0.2363
   60SAPC  H11A 4582   2.285   2.344   7.307 -1.3702  0.2113  0.5795
   60SAPC  H11B 4583   2.381   2.251   7.418 -1.0001 -0.1172  4.4050
   60SAPC     P 4584   2.330   2.592   7.398 -0.0325 -0.5217 -0.6802
   60SAPC   O13 4585   2.189   2.620   7.364 -0.0058  0.3132  0.5423
   60SAPC   O14 4586   2.409   2.692   7.476 -0.1234 -0.5081 -0.3707
   60SAPC   O12 4587   2.353   2.453   7.464  0.2091 -0.4160 -0.3697
   60SAPC   O11 4588   2.421   2.577   7.268  0.2849  0.2377 -0.2016
   60SAPC    C1 4589   2.568   2.580   7.282  0.4669  0.1822 -0.6334
   60SAPC    HA 4590   2.598   2.686   7.267  0.1609  0.5911  1.2813
   60SAPC    HB 4591   2.606   2.561   7.385 -1.1205  1.8978  0.3439
   60SAPC    C2 4592   2.635   2.479   7.184  0.4204 -0.9924 -0.1437
   60SAPC    HS 4593   2.743   2.502   7.173  0.4016 -0.7704  0.1350
   60SAPC   O21 4594   2.565   2.487   7.053  0.4499 -0.5309 -0.4375
   60SAPC   C21 4595   2.609   2.598   6.988  0.0579 -0.5254  0.2765
   60SAPC   O22 4596   2.696   2.671   7.030 -0.1175  0.5754 -0.1144
   60SAPC   C22 4597   2.538   2.620   6.859 -0.1888 -0.2037  0.5958
   60SAPC   H2R 4598   2.495   2.522   6.828  0.2746 -0.5781  1.1123
   60SAPC   H2S 4599   2.443   2.676   6.872 -1.4576 -1.6373 -1.7273
   60SAPC    C3 4600   2.613   2.336   7.230 -0.2399  0.2261  0.1110
   60SAPC    HX 4601   2.505   2.308   7.236  0.2519 -1.7226  0.3955
   60SAPC    HY 4602   2.647   2.323   7.335 -0.2745  1.3902  0.2806
   60SAPC   O31 4603   2.695   2.239   7.157  0.1381 -0.8424 -0.5048
   60SAPC   C31 4604   2.636   2.166   7.056 -0.2965 -0.8312 -0.1968
   60SAPC   O32 4605   2.525   2.178   7.020 -0.4869  0.0470  0.1758
   60SAPC   C32 4606   2.746   2.084   6.994  0.1476  0.6035  0.5020
   60SAPC   H2X 4607   2.786   2.018   7.074 -1.0814 -2.1673 -1.0057
   60SAPC   H2Y 4608   2.821   2.155   6.953  0.7627  1.4307  2.9019
   60SAPC   C23 4609   2.613   2.677   6.743 -0.1615  0.2458  0.0471
   60SAPC   H3R 4610   2.631   2.784   6.765 -2.0562  0.8587 -1.1862
   60SAPC   H3S 4611   2.559   2.667   6.646  0.7305 -1.6095 -0.3144
   60SAPC   C24 4612   2.752   2.604   6.728  0.5145 -1.0097 -0.4603
   60SAPC   H4R 4613   2.796   2.606   6.830 -1.5243  1.0425  0.4791
   60SAPC   H4S 4614   2.808   2.680   6.668 -1.0645 -0.4110 -1.2375
   60SAPC   C25 4615   2.753   2.470   6.672 -0.5141  0.0081 -0.4913
   60SAPC   H5R 4616   2.757   2.388   6.746 -0.3738  1.3626  1.0475
   60SAPC   C26 4617   2.763   2.441   6.537 -0.4238 -0.0947 -0.3215
   60SAPC   H6R 4618   2.761   2.334   6.511  0.8115  0.3338 -2.4064
   60SAPC   C27 4619   2.765   2.543   6.429  0.5243 -0.3827  0.4107
   60SAPC   H7R 4620   2.763   2.646   6.470 -1.6476 -0.4887  0.6924
   60SAPC   H7S 4621   2.671   2.526   6.372  0.5889 -0.7443  0.4090
   60SAPC   C28 4622   2.895   2.539   6.347  0.0121  0.4536  0.3095
   60SAPC   H8R 4623   2.985   2.555   6.408  0.3997  3.6181 -0.8897
   60SAPC   C29 4624   2.906   2.532   6.219  0.6083 -0.0942  0.2034
   60SAPC   H9R 4625   3.003   2.530   6.168  0.1976 -0.4307 -0.5932
   60SAPC  C210 4626   2.800   2.521   6.118  0.6813 -0.1635 -1.0211
   60SAPC  H10R 4627   2.702   2.491   6.161  0.4827  0.4843 -1.0113
   60SAPC  H10S 4628   2.823   2.431   6.057 -1.1712 -1.1615 -0.3077
   60SAPC  C211 4629   2.785   2.639   6.035  0.1603 -0.7246 -0.3088
   60SAPC  H11R 4630   2.815   2.737   6.075  1.3194 -1.7988  1.5910
   60SAPC  C212 4631   2.715   2.634   5.922 -0.0979  0.2248  0.6141
   60SAPC  H12R 4632   2.695   2.729   5.869 -0.5673 -0.9034 -1.3383
   60SAPC  C213 4633   2.658   2.512   5.851  0.4457 -0.3476  0.4077
   60SAPC  H13R 4634   2.591   2.451   5.915 -0.4785  0.1339 -0.0722
   60SAPC  H13S 4635   2.745   2.450   5.821  0.1007 -0.5110 -0.2653
   60SAPC  C214 4636   2.563   2.548   5.738  0.5419 -0.2547  0.3242
   60SAPC  H14R 4637   2.457   2.558   5.767  0.5913 -0.1773  0.4776
   60SAPC  C215 4638   2.599   2.562   5.612  0.1517 -0.3330  0.5025
   60SAPC  H15R 4639   2.525   2.608   5.545 -2.4795 -1.0791  2.7033
   60SAPC  C216 4640   2.743   2.550   5.563 -0.0159  0.5608  0.1208
   60SAPC  H16R 4641   2.739   2.467   5.489  1.3506  1.6965 -1.2953
   60SAPC  H16S 4642   2.814   2.524   5.645 -0.0064 -0.2941 -0.1471
   60SAPC  C217 4643   2.785   2.683   5.512 -0.3208 -0.0392  0.7146
   60SAPC  H17R 4644   2.893   2.675   5.490 -0.8987 -2.0997 -2.0387
   60SAPC  H17S 4645   2.767   2.764   5.585 -1.5484  0.2290  0.1543
   60SAPC  C218 4646   2.723   2.717   5.375  0.2659  0.2329  0.0779
   60SAPC  H18R 4647   2.763   2.815   5.343 -0.8049  0.6206 -0.0815
   60SAPC  H18S 4648   2.612   2.715   5.369  0.2483  0.8252  0.1784
   60SAPC  C219 4649   2.759   2.613   5.264 -0.2199 -0.9891 -0.1043
   60SAPC  H19R 4650   2.728   2.510   5.289  3.9358 -2.0394  1.3841
   60SAPC  H19S 4651   2.869   2.606   5.253  0.0722 -1.7733  2.6529
   60SAPC  C220 4652   2.711   2.656   5.126  0.6716  0.2447  0.1756
   60SAPC  H20R 4653   2.759   2.754   5.105  1.2605  0.1110  0.8777
   60SAPC  H20S 4654   2.601   2.666   5.119  0.8063  2.7767  0.9039
   60SAPC  H20T 4655   2.749   2.585   5.048 -0.1356 -1.8829  1.6353
   60SAPC   C33 4656   2.684   1.995   6.878 -0.2341 -0.6222 -0.7513
   60SAPC   H3X 4657   2.654   2.065   6.796 -0.2792  1.6604  1.1069
   60SAPC   H3Y 4658   2.605   1.935   6.927  0.3522 -1.1729 -0.4713
   60SAPC   C34 4659   2.790   1.910   6.824  0.3238  0.5996  0.0223
   60SAPC   H4X 4660   2.746   1.823   6.772 -0.0175  0.8087 -0.0431
   60SAPC   H4Y 4661   2.848   1.870   6.911  1.9000  0.2713 -1.1349
   60SAPC   C35 4662   2.900   1.970   6.732 -0.3021 -0.3945  0.0248
   60SAPC   H5X 4663   2.988   1.902   6.735  0.0483  0.0605  0.1667
   60SAPC   H5Y 4664   2.936   2.069   6.766 -1.4979  0.5660 -1.3644
   60SAPC   C36 4665   2.870   1.989   6.584 -0.3328 -0.0284 -0.1851
   60SAPC   H6X 4666   2.777   2.048   6.575 -0.6708 -0.2699  1.4376
   60SAPC   H6Y 4667   2.856   1.884   6.549 -0.8863 -1.1005  2.9171
   60SAPC   C37 4668   2.981   2.072   6.512 -0.5141 -0.6341 -0.1404
   60SAPC   H7X 4669   3.084   2.034   6.531  0.4692  1.6688 -0.4508
   60SAPC   H7Y 4670   2.983   2.169   6.566 -0.2657 -1.1698  0.8293
   60SAPC   C38 4671   2.962   2.101   6.364  0.6336 -0.7011 -0.0388
   60SAPC   H8X 4672   2.878   2.174   6.354  1.7892  0.3609 -2.5942
   60SAPC   H8Y 4673   2.940   2.008   6.307  0.4747 -0.6057 -0.1326
   60SAPC   C39 4674   3.079   2.168   6.293 -0.8015  0.3815 -0.8829
   60SAPC   H9X 4675   3.166   2.103   6.319  0.5263  2.5907  0.4324
   60SAPC   H9Y 4676   3.096   2.271   6.328 -0.6851  0.6847 -1.7909
   60SAPC  C310 4677   3.067   2.176   6.143  0.6478  0.4763  0.1819
   60SAPC  H10X 4678   2.984   2.243   6.111  0.7417 -0.4259 -2.2227
   60SAPC  H10Y 4679   3.039   2.078   6.097  1.5543  0.1985  0.2022
   60SAPC  C311 4680   3.197   2.223   6.075  0.3575  0.2759 -0.6113
   60SAPC  H11X 4681   3.283   2.167   6.115  1.7397  1.5203 -1.7170
   60SAPC  H11Y 4682   3.208   2.330   6.104  1.2022  0.3930 -1.3189
   60SAPC  C312 4683   3.181   2.217   5.925 -0.0024  0.4452 -0.2981
   60SAPC  H12X 4684   3.200   2.116   5.881 -0.5118  0.5537 -0.7854
   60SAPC  H12Y 4685   3.268   2.278   5.892  0.0786  0.6428  0.2756
   60SAPC  C313 4686   3.057   2.287   5.862 -0.7264 -0.2612 -1.0396
   60SAPC  H13X 4687   3.038   2.379   5.921 -0.4504  0.7960 -2.5421
   60SAPC  H13Y 4688   2.960   2.236   5.881 -0.9573  0.8189  0.9438
   60SAPC  C314 4689   3.078   2.317   5.720 -0.0816  0.7260  0.2457
   60SAPC  H14X 4690   3.175   2.369   5.703  0.5323  0.6647  3.1658
   60SAPC  H14Y 4691   2.993   2.379   5.684 -0.7590 -0.2552  0.0998
   60SAPC  C315 4692   3.068   2.187   5.631 -0.1202 -0.5956  0.4102
   60SAPC  H15X 4693   2.968   2.152   5.664 -0.0491  0.3930  1.7886
   60SAPC  H15Y 4694   3.144   2.108   5.650  0.4221 -0.5970 -1.6244
   60SAPC  C316 4695   3.081   2.221   5.479 -0.2260 -0.4078  0.1351
   60SAPC  H16X 4696   3.175   2.278   5.464 -1.1743  0.9740 -0.8108
   60SAPC  H16Y 4697   2.996   2.287   5.449 -1.2564 -2.6219 -2.1456
   60SAPC  C317 4698   3.082   2.103   5.392 -0.1979  1.2275  0.4258
   60SAPC  H17X 4699   2.978   2.078   5.422 -0.3073  0.4536 -0.5576
   60SAPC  H17Y 4700   3.152   2.025   5.429 -0.3618  0.5722 -0.5790
   60SAPC  C318 4701   3.101   2.116   5.240  0.6083 -0.2368  0.3598
   60SAPC  H18X 4702   3.027   2.185   5.194  1.1061 -0.6728 -1.1600
   60SAPC  H18Y 4703   3.081   2.016   5.196 -2.8237  0.9354 -1.0514
   60SAPC  H18Z 4704   3.200   2.164   5.224  0.4714  0.6553  1.9828
   61SAPC     N 4705   1.234   6.294   7.618 -0.2416 -0.0907  0.1964
   61SAPC   C12 4706   1.142   6.336   7.506 -0.6548 -0.1640 -0.2372
   61SAPC  H12A 4707   1.154   6.268   7.423 -0.0213 -1.2152  0.6819
   61SAPC  H12B 4708   1.167   6.435   7.471 -0.3414  0.4380  1.5713
   61SAPC   C13 4709   1.208   6.151   7.661  0.7411 -0.7478  0.5952
   61SAPC  H13A 4710   1.205   6.077   7.582 -2.1443  1.1803 -1.2644
   61SAPC  H13B 4711   1.292   6.116   7.719  2.0323  2.1711  0.6191
   61SAPC  H13C 4712   1.111   6.141   7.709  0.4792 -2.4543 -0.2042
   61SAPC   C14 4713   1.375   6.303   7.556  0.3947  0.4123 -0.1456
   61SAPC  H14A 4714   1.404   6.406   7.543  0.9795  0.7438  2.9567
   61SAPC  H14B 4715   1.446   6.275   7.632 -1.4123  0.4079  1.6204
   61SAPC  H14C 4716   1.383   6.244   7.466  0.2538 -2.1870  1.4292
   61SAPC   C15 4717   1.243   6.384   7.743 -0.1967 -0.6063  0.4755
   61SAPC  H15A 4718   1.289   6.333   7.826  0.8351 -1.9329 -0.8700
   61SAPC  H15B 4719   1.305   6.471   7.728 -0.6162  0.1759  2.7808
   61SAPC  H15C 4720   1.141   6.410   7.770 -1.1935 -1.6392 -1.9867
   61SAPC   C11 4721   0.993   6.346   7.532 -0.3628  0.1434 -0.3111
   61SAPC  H11A 4722   0.936   6.406   7.457 -0.1482 -0.7065 -1.1764
   61SAPC  H11B 4723   0.978   6.403   7.626 -3.0213  1.0830 -1.1948
   61SAPC     P 4724   0.932   6.119   7.412 -0.0989 -0.2265  0.0304
   61SAPC   O13 4725   1.047   6.027   7.415  0.3319  0.2708  0.1296
   61SAPC   O14 4726   0.796   6.064   7.392 -0.3199  0.0133  0.3113
   61SAPC   O12 4727   0.927   6.219   7.548 -0.3375 -0.4905 -0.0014
   61SAPC   O11 4728   0.961   6.214   7.296  0.4407  0.5629 -0.2496
   61SAPC    C1 4729   0.870   6.246   7.195  0.3014 -0.0694  0.6764
   61SAPC    HA 4730   0.853   6.165   7.121 -0.9537  0.0606  0.8133
   61SAPC    HB 4731   0.772   6.280   7.233 -0.8543 -0.8907 -1.4388
   61SAPC    C2 4732   0.930   6.357   7.107  0.5171  0.5380 -0.0380
   61SAPC    HS 4733   0.960   6.439   7.175 -0.3969 -0.5206  1.7179
   61SAPC   O21 4734   0.824   6.391   7.017 -0.5935 -0.1719  0.0110
   61SAPC   C21 4735   0.829   6.510   6.965 -0.1817 -0.2665 -0.6604
   61SAPC   O22 4736   0.890   6.606   7.007  0.0390  0.1366 -0.1667
   61SAPC   C22 4737   0.747   6.518   6.843  0.3333  0.0378 -0.2519
   61SAPC   H2R 4738   0.751   6.417   6.796 -0.3206 -0.9140  1.6412
   61SAPC   H2S 4739   0.642   6.524   6.879  0.2308  0.1332 -0.5668
   61SAPC    C3 4740   1.057   6.307   7.030  0.0317 -0.4084 -0.4209
   61SAPC    HX 4741   1.019   6.245   6.946 -0.9877 -0.7240  0.2496
   61SAPC    HY 4742   1.114   6.237   7.094  1.0123  1.5284  0.9323
   61SAPC   O31 4743   1.138   6.420   6.978  0.0155 -0.2312  0.0225
   61SAPC   C31 4744   1.222   6.472   7.066  0.7421 -0.6501 -1.1271
   61SAPC   O32 4745   1.227   6.444   7.183  0.0198  0.5045 -0.0666
   61SAPC   C32 4746   1.321   6.568   6.999  0.0788  0.6820  0.6037
   61SAPC   H2X 4747   1.343   6.654   7.066 -0.3997 -0.3346  2.1209
   61SAPC   H2Y 4748   1.279   6.613   6.906 -0.4917 -2.1100 -0.5799
   61SAPC   C23 4749   0.783   6.633   6.740 -0.0875  0.2456  0.1608
   61SAPC   H3R 4750   0.780   6.738   6.778  0.4195  2.1093 -4.3386
   61SAPC   H3S 4751   0.693   6.631   6.675 -1.2423 -1.0177  1.7042
   61SAPC   C24 4752   0.917   6.607   6.665  0.1994 -0.7136  0.5981
   61SAPC   H4R 4753   1.007   6.610   6.730 -0.5282 -0.2353  1.6164
   61SAPC   H4S 4754   0.939   6.696   6.604  1.0703 -0.8555  0.6917
   61SAPC   C25 4755   0.908   6.484   6.576 -0.4001 -0.0756  0.8722
   61SAPC   H5R 4756   0.809   6.477   6.528 -0.2704 -0.4158  0.6520
   61SAPC   C26 4757   1.007   6.403   6.543 -0.1994  0.5248 -0.9379
   61SAPC   H6R 4758   0.987   6.312   6.484  0.1544  0.7073 -1.3429
   61SAPC   C27 4759   1.151   6.418   6.591  0.5394  0.0202 -0.7605
   61SAPC   H7R 4760   1.162   6.502   6.663 -1.8243 -0.4776  0.2690
   61SAPC   H7S 4761   1.210   6.451   6.503  1.7167  0.6821  0.2282
   61SAPC   C28 4762   1.217   6.290   6.641  0.7316 -0.3497 -0.4029
   61SAPC   H8R 4763   1.175   6.269   6.741 -1.1778  0.8406 -0.8919
   61SAPC   C29 4764   1.287   6.201   6.565 -0.0619 -0.5430 -0.1659
   61SAPC   H9R 4765   1.340   6.115   6.607  0.1027 -0.7098 -0.6999
   61SAPC  C210 4766   1.331   6.222   6.418  0.2143  0.0542 -0.1605
   61SAPC  H10R 4767   1.243   6.244   6.355 -0.2455 -2.1476 -0.3728
   61SAPC  H10S 4768   1.382   6.130   6.383 -0.2329  0.0968 -0.9369
   61SAPC  C211 4769   1.432   6.326   6.392  0.5232 -1.0366  0.1945
   61SAPC  H11R 4770   1.437   6.405   6.468 -1.1355  0.9316 -1.5942
   61SAPC  C212 4771   1.508   6.333   6.278  0.9446 -0.1514  0.0848
   61SAPC  H12R 4772   1.570   6.422   6.263 -0.6828  1.1172  0.5893
   61SAPC  C213 4773   1.517   6.236   6.157 -0.0455 -0.9979 -0.1403
   61SAPC  H13R 4774   1.429   6.169   6.153 -1.5866  0.8376  1.2299
   61SAPC  H13S 4775   1.612   6.178   6.163  0.6475  0.2014  1.0398
   61SAPC  C214 4776   1.524   6.316   6.029  0.3117 -0.1347  0.4640
   61SAPC  H14R 4777   1.508   6.424   6.040 -0.1460 -0.2663  1.1304
   61SAPC  C215 4778   1.550   6.280   5.903 -0.0269  0.0775 -0.5686
   61SAPC  H15R 4779   1.549   6.359   5.826 -0.8698  0.7452  0.0940
   61SAPC  C216 4780   1.559   6.140   5.851 -0.3681  0.6941  0.3832
   61SAPC  H16R 4781   1.467   6.110   5.798 -0.3877  1.2197  0.1030
   61SAPC  H16S 4782   1.569   6.057   5.924 -2.6354 -0.0690 -0.1135
   61SAPC  C217 4783   1.677   6.129   5.750  0.0495 -0.3134  0.1674
   61SAPC  H17R 4784   1.774   6.156   5.797 -1.3636  1.6844  2.1632
   61SAPC  H17S 4785   1.650   6.202   5.671 -0.9406  0.8527  1.5345
   61SAPC  C218 4786   1.696   5.992   5.695  0.2544  0.0080 -0.1396
   61SAPC  H18R 4787   1.601   5.949   5.655 -0.1253  0.3323  0.3903
   61SAPC  H18S 4788   1.710   5.922   5.780  0.9678 -1.5759 -1.5086
   61SAPC  C219 4789   1.797   5.981   5.582  0.7159 -0.1321  0.4213
   61SAPC  H19R 4790   1.795   6.076   5.524  0.7157 -1.1177 -1.2688
   61SAPC  H19S 4791   1.760   5.906   5.508  3.4962 -0.7798 -0.4589
   61SAPC  C220 4792   1.942   5.933   5.623 -0.4226 -0.7217  0.3511
   61SAPC  H20R 4793   1.998   5.907   5.531  0.8276 -0.0711  0.9071
   61SAPC  H20S 4794   1.947   5.842   5.687  2.2118 -0.2424  0.9345
   61SAPC  H20T 4795   1.993   6.019   5.671  1.4307 -1.3700 -0.3625
   61SAPC   C33 4796   1.457   6.501   6.970 -0.1037 -0.3105  0.0769
   61SAPC   H3X 4797   1.488   6.440   7.058  2.0852 -1.9465 -1.7169
   61SAPC   H3Y 4798   1.533   6.582   6.961 -1.5460  1.0896  0.1270
   61SAPC   C34 4799   1.468   6.421   6.842 -0.6632 -0.4412 -0.5648
   61SAPC   H4X 4800   1.415   6.484   6.766  1.1280  0.6014 -1.0207
   61SAPC   H4Y 4801   1.425   6.319   6.850  0.0567 -0.6242  1.5206
   61SAPC   C35 4802   1.614   6.392   6.813 -0.2334  0.2538  0.6939
   61SAPC   H5X 4803   1.669   6.482   6.777 -2.1591  0.6907 -1.3787
   61SAPC   H5Y 4804   1.628   6.317   6.733 -0.3781  0.5960  0.3458
   61SAPC   C36 4805   1.701   6.340   6.928 -0.2094  0.1425 -0.6874
   61SAPC   H6X 4806   1.642   6.259   6.976  0.5854 -0.2627 -0.3607
   61SAPC   H6Y 4807   1.718   6.418   7.006 -0.2127 -1.1911  0.6798
   61SAPC   C37 4808   1.831   6.275   6.890 -0.1305  0.0518 -0.2533
   61SAPC   H7X 4809   1.812   6.188   6.824 -0.3723 -0.0163 -0.0929
   61SAPC   H7Y 4810   1.870   6.231   6.984 -0.6791 -1.1974 -0.5946
   61SAPC   C38 4811   1.928   6.374   6.837 -0.8332  0.5010  0.3280
   61SAPC   H8X 4812   1.921   6.462   6.905 -2.3673  0.7535 -0.1223
   61SAPC   H8Y 4813   1.894   6.411   6.738  0.9671  0.5933 -0.2961
   61SAPC   C39 4814   2.080   6.328   6.844  0.0419 -0.1963 -0.5488
   61SAPC   H9X 4815   2.089   6.280   6.944 -2.8479  2.1831  1.0232
   61SAPC   H9Y 4816   2.137   6.423   6.857  0.2718 -0.3700 -0.2974
   61SAPC  C310 4817   2.115   6.234   6.728  0.1869 -0.5049 -0.4068
   61SAPC  H10X 4818   2.049   6.146   6.712  0.8401 -1.1365  0.2516
   61SAPC  H10Y 4819   2.214   6.197   6.763 -0.2285  0.8702  2.5785
   61SAPC  C311 4820   2.128   6.302   6.588 -0.3903 -0.8097  0.1971
   61SAPC  H11X 4821   2.034   6.319   6.530  0.5286 -2.2787 -1.8735
   61SAPC  H11Y 4822   2.178   6.221   6.530 -1.2476 -0.9642 -0.3529
   61SAPC  C312 4823   2.210   6.433   6.579 -0.6858  0.0064 -0.0656
   61SAPC  H12X 4824   2.308   6.420   6.629  0.1250  0.9627 -1.3605
   61SAPC  H12Y 4825   2.147   6.510   6.629 -0.2111  1.2054 -1.2645
   61SAPC  C313 4826   2.227   6.471   6.434  0.3465  0.0517 -0.0252
   61SAPC  H13X 4827   2.134   6.463   6.375  1.3282 -2.2266 -1.4244
   61SAPC  H13Y 4828   2.285   6.401   6.370 -0.4364 -2.0274  1.4221
   61SAPC  C314 4829   2.301   6.603   6.418 -0.0642 -0.0021 -0.1672
   61SAPC  H14X 4830   2.407   6.571   6.420 -0.9574 -3.2613  0.2994
   61SAPC  H14Y 4831   2.273   6.667   6.505 -0.4229  1.2206 -1.1527
   61SAPC  C315 4832   2.262   6.679   6.286  0.1896 -1.1655  0.5816
   61SAPC  H15X 4833   2.305   6.781   6.296  0.6573 -1.4714  1.9864
   61SAPC  H15Y 4834   2.152   6.682   6.273  0.3820 -2.0247 -1.5636
   61SAPC  C316 4835   2.357   6.625   6.170 -0.2073  0.3610  0.3955
   61SAPC  H16X 4836   2.325   6.520   6.153  2.1173 -0.5231  1.0711
   61SAPC  H16Y 4837   2.460   6.647   6.206 -0.1413  1.5679 -0.4938
   61SAPC  C317 4838   2.325   6.703   6.041 -0.4896 -0.6292  0.5938
   61SAPC  H17X 4839   2.332   6.811   6.066  1.9258 -0.1988 -1.5693
   61SAPC  H17Y 4840   2.226   6.672   6.002  0.1416 -0.0540 -1.6255
   61SAPC  C318 4841   2.414   6.654   5.927  0.7044  0.8314  0.4706
   61SAPC  H18X 4842   2.409   6.543   5.918  1.0069  0.8436  0.1130
   61SAPC  H18Y 4843   2.521   6.677   5.947  0.8598  0.1623  0.4267
   61SAPC  H18Z 4844   2.395   6.704   5.830  0.8629  1.9143  0.9839
   62SAPC     N 4845   5.367   5.435   0.059  0.0353 -0.2316 -1.1670
   62SAPC   C12 4846   5.374   5.548  -0.040 -0.4956  0.3791  0.3652
   62SAPC  H12A 4847   5.421   5.507  -0.129  0.7312 -1.8039  1.9127
   62SAPC  H12B 4848   5.436   5.627  -0.001 -0.1018  1.2321 -1.8417
   62SAPC   C13 4849   5.313   5.317  -0.009  0.0538  0.0232  0.5321
   62SAPC  H13A 4850   5.270   5.244   0.057 -0.3760  1.0087  1.3748
   62SAPC  H13B 4851   5.221   5.344  -0.059  0.1795  1.6187  1.1021
   62SAPC  H13C 4852   5.393   5.286  -0.075  0.8912 -1.3981  2.1591
   62SAPC   C14 4853   5.501   5.398   0.115  0.0964  0.0023 -0.2989
   62SAPC  H14A 4854   5.574   5.370   0.040 -0.4524  1.4661 -1.4204
   62SAPC  H14B 4855   5.544   5.477   0.175  1.8770 -0.2123 -1.2215
   62SAPC  H14C 4856   5.480   5.312   0.177 -0.8497  1.3176  1.2887
   62SAPC   C15 4857   5.275   5.479   0.169  0.5876 -0.0940 -0.5065
   62SAPC  H15A 4858   5.302   5.571   0.218 -0.0517  0.4745 -1.1961
   62SAPC  H15B 4859   5.180   5.501   0.123  0.1127 -0.9852  0.0208
   62SAPC  H15C 4860   5.264   5.402   0.244 -3.3018 -1.9517 -2.7051
   62SAPC   C11 4861   5.241   5.607  -0.105 -0.3454 -0.3485 -0.7744
   62SAPC  H11A 4862   5.276   5.691  -0.168  1.0785  0.3845  0.9203
   62SAPC  H11B 4863   5.184   5.657  -0.024 -2.5903  0.9952 -3.0586
   62SAPC     P 4864   5.204   5.455  -0.307  0.1844  0.3386 -0.6697
   62SAPC   O13 4865   5.243   5.317  -0.281  0.4707 -0.1688  0.2761
   62SAPC   O14 4866   5.093   5.478  -0.407  0.0619 -0.1572 -0.2183
   62SAPC   O12 4867   5.156   5.515  -0.178 -0.2038  0.1278 -0.9455
   62SAPC   O11 4868   5.340   5.530  -0.341 -0.0390  0.4265 -0.1064
   62SAPC    C1 4869   5.337   5.635  -0.436 -0.9537 -0.0806 -0.4656
   62SAPC    HA 4870   5.241   5.690  -0.448 -1.5241 -1.1195 -0.8350
   62SAPC    HB 4871   5.405   5.707  -0.387  0.4176 -0.5419 -1.6079
   62SAPC    C2 4872   5.398   5.611  -0.579 -0.4209 -0.3268 -0.0502
   62SAPC    HS 4873   5.418   5.713  -0.619  0.6833 -0.6529 -0.3528
   62SAPC   O21 4874   5.295   5.542  -0.658 -0.0006 -0.3738  0.0567
   62SAPC   C21 4875   5.191   5.622  -0.686  0.3376 -0.4661  0.0720
   62SAPC   O22 4876   5.181   5.741  -0.666 -0.0165 -0.1359  0.2197
   62SAPC   C22 4877   5.094   5.537  -0.772  0.6670  0.7928 -0.5679
   62SAPC   H2R 4878   5.069   5.441  -0.721 -1.1569  0.8678 -1.2665
   62SAPC   H2S 4879   5.001   5.597  -0.780 -0.3723 -0.6279  0.2847
   62SAPC    C3 4880   5.538   5.543  -0.589 -0.2729  0.3103 -0.0451
   62SAPC    HX 4881   5.540   5.444  -0.538  1.4975  1.3497  2.1037
   62SAPC    HY 4882   5.613   5.610  -0.542 -0.5028  1.2528 -0.9987
   62SAPC   O31 4883   5.581   5.538  -0.723  0.2994 -0.2805  0.2639
   62SAPC   C31 4884   5.560   5.427  -0.778  0.2840  0.1601  0.7252
   62SAPC   O32 4885   5.526   5.319  -0.722  0.1733 -0.1913  0.3253
   62SAPC   C32 4886   5.571   5.444  -0.932  0.7514 -0.1114 -0.4303
   62SAPC   H2X 4887   5.677   5.460  -0.963  0.6466 -1.2464 -1.4838
   62SAPC   H2Y 4888   5.515   5.537  -0.954  0.4154 -0.6323 -1.9140
   62SAPC   C23 4889   5.160   5.512  -0.908 -0.0435 -0.1142  0.5317
   62SAPC   H3R 4890   5.088   5.464  -0.977  0.8767  2.8634 -2.8060
   62SAPC   H3S 4891   5.243   5.439  -0.894  0.3297  0.4495  1.3530
   62SAPC   C24 4892   5.201   5.641  -0.982 -0.6383  1.2445  0.0149
   62SAPC   H4R 4893   5.235   5.616  -1.084  0.6983  1.2786  0.4365
   62SAPC   H4S 4894   5.286   5.695  -0.936 -1.1163  0.6554  1.6796
   62SAPC   C25 4895   5.079   5.729  -0.998 -0.2518  0.3414  0.5892
   62SAPC   H5R 4896   5.060   5.807  -0.923  0.4394  0.2788  0.8381
   62SAPC   C26 4897   5.008   5.734  -1.118  0.0395 -0.4818 -0.1196
   62SAPC   H6R 4898   4.913   5.791  -1.117 -1.5977 -3.0071 -1.4645
   62SAPC   C27 4899   5.028   5.650  -1.241 -0.3749 -0.5102 -0.3202
   62SAPC   H7R 4900   4.930   5.601  -1.254 -0.1548 -0.7972 -0.9137
   62SAPC   H7S 4901   5.091   5.559  -1.236 -0.0723 -0.2850  0.1085
   62SAPC   C28 4902   5.059   5.736  -1.363 -0.5442  0.8415  0.4244
   62SAPC   H8R 4903   5.076   5.844  -1.348 -0.7567  0.9193  0.1074
   62SAPC   C29 4904   5.048   5.675  -1.483 -0.4883  0.2463 -0.5974
   62SAPC   H9R 4905   5.051   5.737  -1.574  2.0745  2.1553  0.6645
   62SAPC  C210 4906   5.026   5.530  -1.514 -0.0656  0.2801 -0.1201
   62SAPC  H10R 4907   4.981   5.528  -1.615 -3.2836 -0.5297  1.2000
   62SAPC  H10S 4908   4.944   5.492  -1.449 -0.6729 -0.4428 -1.2930
   62SAPC  C211 4909   5.156   5.451  -1.508 -1.3881 -0.1524  0.6719
   62SAPC  H11R 4910   5.217   5.458  -1.417 -2.0281 -1.7806  1.2519
   62SAPC  C212 4911   5.200   5.375  -1.613  0.3273  0.0185  0.1229
   62SAPC  H12R 4912   5.294   5.319  -1.603  0.1782 -0.0529  1.3249
   62SAPC  C213 4913   5.133   5.355  -1.746 -0.5217 -0.4026 -1.1205
   62SAPC  H13R 4914   5.022   5.361  -1.735 -0.3136  0.7038  0.7840
   62SAPC  H13S 4915   5.137   5.251  -1.787 -1.9754 -0.5844 -0.8647
   62SAPC  C214 4916   5.186   5.465  -1.840  0.0635  0.0871 -0.0693
   62SAPC  H14R 4917   5.169   5.570  -1.813  3.2287  0.5337  0.6612
   62SAPC  C215 4918   5.256   5.434  -1.954 -0.7414  0.0266 -0.2751
   62SAPC  H15R 4919   5.295   5.513  -2.020 -0.9988  0.7509  0.4264
   62SAPC  C216 4920   5.260   5.290  -2.003 -0.2474 -0.3815 -0.4299
   62SAPC  H16R 4921   5.170   5.231  -1.978  0.9432 -1.0898  2.7596
   62SAPC  H16S 4922   5.343   5.240  -1.948 -0.0616  0.3614 -0.0146
   62SAPC  C217 4923   5.303   5.278  -2.160 -0.0563  0.3562 -0.2838
   62SAPC  H17R 4924   5.395   5.336  -2.180 -0.2243  0.3513 -1.0879
   62SAPC  H17S 4925   5.220   5.321  -2.219 -1.2376  1.3547  1.9567
   62SAPC  C218 4926   5.319   5.132  -2.220 -0.0456  0.0930 -0.5565
   62SAPC  H18R 4927   5.225   5.077  -2.197 -0.6573  0.8407 -1.1857
   62SAPC  H18S 4928   5.403   5.083  -2.166 -0.6759 -0.5906 -0.1760
   62SAPC  C219 4929   5.378   5.127  -2.359  1.0757  0.1238  0.7047
   62SAPC  H19R 4930   5.462   5.200  -2.367 -0.0882  1.4646  0.2964
   62SAPC  H19S 4931   5.301   5.171  -2.427  1.1160 -0.8050  0.0407
   62SAPC  C220 4932   5.418   4.993  -2.409  0.0756  0.1092 -0.0171
   62SAPC  H20R 4933   5.461   4.998  -2.511  1.2255  0.6795  0.4789
   62SAPC  H20S 4934   5.338   4.916  -2.418  2.1076 -2.2509  0.9600
   62SAPC  H20T 4935   5.493   4.959  -2.334  0.1108  1.4001  0.5524
   62SAPC   C33 4936   5.506   5.318  -1.002 -0.4431 -0.4458  0.1112
   62SAPC   H3X 4937   5.405   5.306  -0.957 -0.5252 -2.2300 -0.4502
   62SAPC   H3Y 4938   5.563   5.224  -0.988  0.2121 -0.1084 -0.2260
   62SAPC   C34 4939   5.503   5.335  -1.160  0.0294  0.4755 -0.1111
   62SAPC   H4X 4940   5.608   5.343  -1.195 -0.2891 -0.7839 -1.4515
   62SAPC   H4Y 4941   5.445   5.427  -1.185 -1.3541 -0.7684 -1.6828
   62SAPC   C35 4942   5.452   5.216  -1.235  0.7493  0.3342  0.6980
   62SAPC   H5X 4943   5.341   5.217  -1.227  0.7219 -0.7444  0.5866
   62SAPC   H5Y 4944   5.482   5.122  -1.184 -3.3417  0.4253  3.8557
   62SAPC   C36 4945   5.491   5.223  -1.387  0.4109  0.1014  0.2519
   62SAPC   H6X 4946   5.599   5.247  -1.393  0.1317  1.0902 -1.4417
   62SAPC   H6Y 4947   5.427   5.304  -1.427  0.9257  0.3118 -0.1472
   62SAPC   C37 4948   5.472   5.084  -1.449  0.0455  0.4238 -0.2694
   62SAPC   H7X 4949   5.365   5.054  -1.450 -0.0011  0.2902 -4.0442
   62SAPC   H7Y 4950   5.533   5.017  -1.385 -1.3097  1.3145  2.0866
   62SAPC   C38 4951   5.514   5.085  -1.595  0.0543 -0.2533 -1.2866
   62SAPC   H8X 4952   5.625   5.077  -1.589  0.0600  0.8070  1.3403
   62SAPC   H8Y 4953   5.495   5.185  -1.640 -2.4958 -0.2007 -0.2577
   62SAPC   C39 4954   5.446   4.970  -1.680  0.3332  0.8813 -0.5435
   62SAPC   H9X 4955   5.336   4.986  -1.676  0.4460  1.7778 -0.6707
   62SAPC   H9Y 4956   5.469   4.869  -1.641  0.0261  0.4730 -1.3865
   62SAPC  C310 4957   5.494   4.981  -1.818  0.5572 -0.1372  0.1773
   62SAPC  H10X 4958   5.604   4.998  -1.826  0.8671 -2.0990 -0.1919
   62SAPC  H10Y 4959   5.449   5.072  -1.863 -0.5210 -0.6994  0.0896
   62SAPC  C311 4960   5.462   4.868  -1.909  0.7282  0.7185 -0.7337
   62SAPC  H11X 4961   5.364   4.887  -1.958 -0.1928  0.4604  0.9567
   62SAPC  H11Y 4962   5.448   4.777  -1.847 -0.2163  0.4044 -1.3800
   62SAPC  C312 4963   5.559   4.844  -2.037  0.2051 -0.6513 -0.4810
   62SAPC  H12X 4964   5.655   4.813  -1.990 -0.3093  0.0438  1.1140
   62SAPC  H12Y 4965   5.573   4.939  -2.093 -0.8479 -0.1746  0.0236
   62SAPC  C313 4966   5.521   4.735  -2.138  0.2320 -0.3894  0.2310
   62SAPC  H13X 4967   5.604   4.739  -2.212  1.6773 -0.2752  1.7993
   62SAPC  H13Y 4968   5.432   4.762  -2.199 -0.5967 -1.8080  0.7630
   62SAPC  C314 4969   5.512   4.607  -2.070 -0.7113  0.7603 -0.1205
   62SAPC  H14X 4970   5.416   4.599  -2.015  0.2095 -0.2282  1.4145
   62SAPC  H14Y 4971   5.604   4.586  -2.011 -0.3534 -0.5329 -1.0970
   62SAPC  C315 4972   5.513   4.494  -2.177 -0.2997 -0.3293 -0.2233
   62SAPC  H15X 4973   5.496   4.401  -2.118 -2.5426  0.2050  0.0743
   62SAPC  H15Y 4974   5.607   4.495  -2.236 -0.9551 -0.9208 -1.3096
   62SAPC  C316 4975   5.391   4.509  -2.275 -0.1595 -1.0276 -0.3681
   62SAPC  H16X 4976   5.398   4.605  -2.329  2.1340 -1.9901 -1.9315
   62SAPC  H16Y 4977   5.296   4.515  -2.217 -0.3591 -0.4210 -0.7458
   62SAPC  C317 4978   5.391   4.403  -2.383 -0.4621 -0.1418  0.9393
   62SAPC  H17X 4979   5.394   4.302  -2.339  1.9228 -0.4069  0.3136
   62SAPC  H17Y 4980   5.485   4.410  -2.441 -1.3605 -0.8036 -0.6788
   62SAPC  C318 4981   5.269   4.426  -2.477  0.1395 -0.7669  0.0245
   62SAPC  H18X 4982   5.182   4.388  -2.419 -0.1567 -0.2608 -0.0879
   62SAPC  H18Y 4983   5.277   4.363  -2.569 -1.2799  1.8022 -1.9983
   62SAPC  H18Z 4984   5.258   4.531  -2.512  0.8607 -0.8722 -0.5677
   63SAPC     N 4985   3.582   0.961   7.274 -0.2367 -0.2735 -0.4985
   63SAPC   C12 4986   3.618   1.008   7.131  0.1895 -0.0696 -0.6568
   63SAPC  H12A 4987   3.566   0.949   7.058  1.4627  1.5100 -2.9645
   63SAPC  H12B 4988   3.724   1.010   7.116  0.5080  2.2821  1.2881
   63SAPC   C13 4989   3.557   0.817   7.286  0.2182 -0.2382  0.3882
   63SAPC  H13A 4990   3.490   0.772   7.214 -1.3280  0.0363  1.6212
   63SAPC  H13B 4991   3.652   0.766   7.281 -0.2435 -1.0838  0.0237
   63SAPC  H13C 4992   3.509   0.801   7.381  0.5900  0.9850  0.8056
   63SAPC   C14 4993   3.687   0.996   7.363  0.7120 -0.4404 -0.0033
   63SAPC  H14A 4994   3.664   0.961   7.462 -2.0010  0.2537 -0.3164
   63SAPC  H14B 4995   3.785   0.975   7.321  0.9074  1.2974 -0.4844
   63SAPC  H14C 4996   3.692   1.103   7.377 -0.4215 -0.3426 -0.2510
   63SAPC   C15 4997   3.455   1.024   7.322 -0.3040  0.4440 -0.2138
   63SAPC  H15A 4998   3.440   0.999   7.426 -1.7765  0.2216 -0.4520
   63SAPC  H15B 4999   3.461   1.131   7.327 -4.1067  0.7846  0.2943
   63SAPC  H15C 5000   3.365   0.993   7.271  0.5943 -0.9849 -0.9878
   63SAPC   C11 5001   3.568   1.151   7.087  0.2992 -0.1375  0.4647
   63SAPC  H11A 5002   3.457   1.152   7.087  0.2999  0.0792  0.2298
   63SAPC  H11B 5003   3.599   1.177   6.984 -2.8342  0.3637 -0.4426
   63SAPC     P 5004   3.549   1.383   7.226  0.7996  0.3387  0.2181
   63SAPC   O13 5005   3.461   1.344   7.335  0.5243 -0.1262  0.0358
   63SAPC   O14 5006   3.649   1.474   7.270 -0.2817 -0.1220  0.2401
   63SAPC   O12 5007   3.621   1.251   7.173  0.6711  0.0922  0.4302
   63SAPC   O11 5008   3.464   1.435   7.091  0.0855 -0.5571 -0.5383
   63SAPC    C1 5009   3.544   1.520   7.001  0.4469 -0.3560 -0.1230
   63SAPC    HA 5010   3.648   1.482   6.995  0.2817 -1.3219  2.0423
   63SAPC    HB 5011   3.492   1.507   6.904 -0.0949 -0.6711  0.2025
   63SAPC    C2 5012   3.549   1.670   7.031  0.3510  0.2344  0.4389
   63SAPC    HS 5013   3.566   1.675   7.140 -0.3351  3.1338  0.4824
   63SAPC   O21 5014   3.420   1.736   6.996  0.1749 -0.0856 -0.2068
   63SAPC   C21 5015   3.404   1.842   7.073  0.0714  0.0024  0.6072
   63SAPC   O22 5016   3.481   1.889   7.153 -0.0544 -0.7949  0.0457
   63SAPC   C22 5017   3.268   1.897   7.041  0.4151 -0.0133 -0.6857
   63SAPC   H2R 5018   3.261   1.929   6.935 -0.3307 -0.1123 -0.6729
   63SAPC   H2S 5019   3.198   1.817   7.073 -0.1756 -0.0954 -2.1149
   63SAPC    C3 5020   3.661   1.747   6.946 -0.1645  0.5231  0.2351
   63SAPC    HX 5021   3.758   1.727   6.997  0.9322  3.4368 -0.4903
   63SAPC    HY 5022   3.649   1.853   6.978  2.7560  0.7403  0.9694
   63SAPC   O31 5023   3.674   1.732   6.802 -0.2083 -0.2212 -0.3082
   63SAPC   C31 5024   3.589   1.796   6.724 -0.7340  0.0178 -0.1212
   63SAPC   O32 5025   3.511   1.885   6.756  0.2019  0.4719  0.4755
   63SAPC   C32 5026   3.592   1.751   6.579 -0.1820  0.1088  0.2821
   63SAPC   H2X 5027   3.577   1.641   6.566 -1.0362  0.3751 -1.1054
   63SAPC   H2Y 5028   3.697   1.761   6.544  0.6650 -4.0340  1.0888
   63SAPC   C23 5029   3.245   2.021   7.120 -0.3503 -0.5348  0.6101
   63SAPC   H3R 5030   3.304   2.106   7.081 -1.1104  0.1634  0.9394
   63SAPC   H3S 5031   3.270   2.001   7.227  0.2658 -1.3262  0.3268
   63SAPC   C24 5032   3.096   2.069   7.116  0.3326  0.2478  0.1091
   63SAPC   H4R 5033   3.037   1.991   7.168  0.7024 -1.6486 -2.1471
   63SAPC   H4S 5034   3.056   2.085   7.013  2.3911  1.7021 -0.5407
   63SAPC   C25 5035   3.095   2.194   7.201  0.4298 -0.0672 -0.3580
   63SAPC   H5R 5036   3.127   2.187   7.306  2.3754  0.5460 -0.8701
   63SAPC   C26 5037   3.068   2.319   7.152 -0.5644 -0.3429 -0.4429
   63SAPC   H6R 5038   3.055   2.405   7.219  0.4247  0.9336 -1.8376
   63SAPC   C27 5039   3.008   2.353   7.018 -0.0191  0.2378 -0.1333
   63SAPC   H7R 5040   2.899   2.336   7.030  0.2025 -1.3317 -0.0936
   63SAPC   H7S 5041   3.043   2.288   6.935  1.3374  0.6952  0.0569
   63SAPC   C28 5042   3.024   2.500   6.987 -1.0503  0.5022 -0.5392
   63SAPC   H8R 5043   2.951   2.559   7.045  1.2108  1.1606  1.8863
   63SAPC   C29 5044   3.098   2.554   6.890  0.4744  0.1895  0.0977
   63SAPC   H9R 5045   3.112   2.662   6.872 -0.0832 -0.0950 -2.3617
   63SAPC  C210 5046   3.199   2.483   6.795  1.0461  0.2733  0.5185
   63SAPC  H10R 5047   3.223   2.383   6.837  0.0433  0.0248  0.5355
   63SAPC  H10S 5048   3.295   2.539   6.797  0.8647  0.6816 -0.9135
   63SAPC  C211 5049   3.144   2.460   6.655 -0.0993 -0.3737  0.2609
   63SAPC  H11R 5050   3.040   2.487   6.631  0.0752  1.6857  1.5341
   63SAPC  C212 5051   3.222   2.434   6.553  0.0168  0.4308 -0.6139
   63SAPC  H12R 5052   3.171   2.406   6.459 -1.8594 -0.4070  0.5915
   63SAPC  C213 5053   3.374   2.413   6.555 -0.0092  0.9140 -0.3524
   63SAPC  H13R 5054   3.398   2.307   6.531  4.1488  1.7209 -0.4457
   63SAPC  H13S 5055   3.401   2.422   6.663 -2.4175 -3.4814  0.9058
   63SAPC  C214 5056   3.455   2.498   6.464  0.4009 -0.0444 -1.0345
   63SAPC  H14R 5057   3.447   2.605   6.488  0.0169 -0.0471 -1.1361
   63SAPC  C215 5058   3.513   2.471   6.346  0.4409 -0.0436 -0.3616
   63SAPC  H15R 5059   3.557   2.554   6.290 -0.3420  1.0446  0.5924
   63SAPC  C216 5060   3.527   2.339   6.271 -0.4522 -0.1324  0.1193
   63SAPC  H16R 5061   3.433   2.309   6.222 -0.7576 -1.2369  1.3257
   63SAPC  H16S 5062   3.558   2.260   6.343 -3.1029 -1.9775 -0.6415
   63SAPC  C217 5063   3.632   2.348   6.156 -0.0417 -1.0756 -0.4175
   63SAPC  H17R 5064   3.659   2.241   6.144 -0.4733 -1.1372 -0.8972
   63SAPC  H17S 5065   3.711   2.421   6.185 -0.5772 -0.4677 -0.4691
   63SAPC  C218 5066   3.564   2.389   6.025 -0.5065  1.1925  0.5240
   63SAPC  H18R 5067   3.526   2.493   6.027  1.0579  1.8466 -1.0112
   63SAPC  H18S 5068   3.479   2.319   6.011  0.1450 -0.2257  3.0618
   63SAPC  C219 5069   3.658   2.366   5.905 -0.5397  0.3575  0.1502
   63SAPC  H19R 5070   3.721   2.274   5.917 -0.6203  0.2461 -0.2823
   63SAPC  H19S 5071   3.728   2.452   5.901  0.8851 -0.6043  2.1015
   63SAPC  C220 5072   3.592   2.354   5.774 -0.4642 -0.6329  0.3107
   63SAPC  H20R 5073   3.665   2.337   5.692 -1.4558 -3.2167 -0.1278
   63SAPC  H20S 5074   3.548   2.453   5.749  3.1763  0.8203 -1.0870
   63SAPC  H20T 5075   3.514   2.275   5.775  0.7696 -1.8927  0.2295
   63SAPC   C33 5076   3.508   1.842   6.484  0.3796  0.3346 -0.1928
   63SAPC   H3X 5077   3.527   1.949   6.508  2.7481 -0.3202  1.1485
   63SAPC   H3Y 5078   3.399   1.828   6.499 -0.3164  4.8836  0.2257
   63SAPC   C34 5079   3.544   1.816   6.333 -0.6808  0.0092  0.3710
   63SAPC   H4X 5080   3.546   1.707   6.313  1.0904  0.2828 -1.3049
   63SAPC   H4Y 5081   3.648   1.855   6.339 -0.9181  0.8126 -0.5963
   63SAPC   C35 5082   3.461   1.884   6.223  0.5460  0.2336 -0.5031
   63SAPC   H5X 5083   3.422   1.982   6.260 -2.2792  0.0546 -2.6607
   63SAPC   H5Y 5084   3.365   1.828   6.210  0.2210  0.1824  1.6699
   63SAPC   C36 5085   3.542   1.904   6.094 -0.3959 -0.1701 -0.0167
   63SAPC   H6X 5086   3.613   1.821   6.075  0.0875  0.3294 -0.4592
   63SAPC   H6Y 5087   3.610   1.989   6.116  0.1943 -1.0445  1.7031
   63SAPC   C37 5088   3.459   1.919   5.964 -0.4675 -0.8515 -0.2225
   63SAPC   H7X 5089   3.371   1.985   5.975 -0.8174 -1.3393 -0.0092
   63SAPC   H7Y 5090   3.415   1.817   5.960  2.1870 -2.1525  0.8052
   63SAPC   C38 5091   3.540   1.959   5.845 -0.2127  0.2377 -0.1197
   63SAPC   H8X 5092   3.610   1.876   5.823  0.3052 -0.8406  4.6154
   63SAPC   H8Y 5093   3.598   2.050   5.871  0.6414  0.4203 -2.4252
   63SAPC   C39 5094   3.456   1.997   5.729 -0.0911 -0.7701  0.8036
   63SAPC   H9X 5095   3.506   2.074   5.667  1.9469 -2.0653  0.7543
   63SAPC   H9Y 5096   3.359   2.039   5.764 -1.2834 -1.7405 -1.1423
   63SAPC  C310 5097   3.399   1.894   5.634  0.4903  1.2077  0.1590
   63SAPC  H10X 5098   3.309   1.925   5.577  0.2616  0.0008 -0.1774
   63SAPC  H10Y 5099   3.365   1.813   5.702  1.4791  1.3321  0.8266
   63SAPC  C311 5100   3.500   1.844   5.539 -0.1417  0.6158  1.1271
   63SAPC  H11X 5101   3.569   1.764   5.574  2.0340  2.0037  0.3019
   63SAPC  H11Y 5102   3.561   1.932   5.508 -2.1514  2.0864  1.1530
   63SAPC  C312 5103   3.433   1.796   5.410 -0.0566 -0.6930  0.0953
   63SAPC  H12X 5104   3.509   1.770   5.334  0.9864 -1.5000  1.3663
   63SAPC  H12Y 5105   3.361   1.872   5.372 -1.2959 -1.6224  0.5364
   63SAPC  C313 5106   3.357   1.661   5.436 -0.5104  0.4372 -0.2684
   63SAPC  H13X 5107   3.287   1.669   5.521 -0.4430  2.1586 -0.3441
   63SAPC  H13Y 5108   3.436   1.587   5.461 -1.0097 -0.7145 -1.8989
   63SAPC  C314 5109   3.255   1.614   5.329  0.1537  0.5519  0.2633
   63SAPC  H14X 5110   3.206   1.517   5.350  0.5441 -0.1480 -1.8088
   63SAPC  H14Y 5111   3.306   1.628   5.231 -1.3197 -0.0700 -0.6248
   63SAPC  C315 5112   3.132   1.701   5.320  0.3726 -0.5162 -0.2074
   63SAPC  H15X 5113   3.162   1.808   5.317  0.1122 -0.4425 -0.1956
   63SAPC  H15Y 5114   3.081   1.685   5.417  0.5233  1.1238  0.1710
   63SAPC  C316 5115   3.048   1.680   5.197 -0.8785  0.0970 -0.9546
   63SAPC  H16X 5116   3.020   1.573   5.192 -0.8563 -0.0793  1.5107
   63SAPC  H16Y 5117   3.098   1.698   5.099  1.5606 -1.9676 -0.1943
   63SAPC  C317 5118   2.918   1.757   5.199 -0.6519  0.3855 -0.4588
   63SAPC  H17X 5119   2.931   1.845   5.264  2.7058 -0.4583  0.1967
   63SAPC  H17Y 5120   2.844   1.685   5.241  1.1309 -0.8616  0.6695
   63SAPC  C318 5121   2.893   1.802   5.057  0.2714 -0.5766 -0.3040
   63SAPC  H18X 5122   2.977   1.864   5.018 -0.7763  0.7965 -0.4670
   63SAPC  H18Y 5123   2.797   1.857   5.045 -0.3839 -1.0137  2.2876
   63SAPC  H18Z 5124   2.881   1.715   4.989  3.1342 -0.6478 -0.8217
   64SAPC     N 5125   3.028   5.192   7.816 -0.6783  0.3468 -0.0283
   64SAPC   C12 5126   2.998   5.064   7.745 -0.5244 -0.2949  0.3656
   64SAPC  H12A 5127   2.928   5.086   7.665  0.7273 -0.1967 -0.7292
   64SAPC  H12B 5128   2.942   5.002   7.812 -0.6779  2.9407  3.5269
   64SAPC   C13 5129   3.122   5.166   7.932  0.1244  0.1620 -0.2994
   64SAPC  H13A 5130   3.083   5.100   8.009  1.1443  0.2520  0.2984
   64SAPC  H13B 5131   3.209   5.117   7.892  2.2019  2.5385  1.0663
   64SAPC  H13C 5132   3.156   5.262   7.967 -0.1672  0.6916 -1.4383
   64SAPC   C14 5133   3.099   5.286   7.725  0.0960  0.4870  0.2480
   64SAPC  H14A 5134   3.119   5.373   7.787 -0.9622  1.7276 -1.0840
   64SAPC  H14B 5135   3.193   5.243   7.694 -1.5703 -2.0585 -1.7142
   64SAPC  H14C 5136   3.054   5.310   7.630  2.0381 -1.3301 -1.2363
   64SAPC   C15 5137   2.914   5.263   7.856  0.7034 -0.0732  0.2863
   64SAPC  H15A 5138   2.845   5.280   7.775 -0.0907 -2.1179  0.4781
   64SAPC  H15B 5139   2.860   5.220   7.939  2.3163 -2.1922  0.3027
   64SAPC  H15C 5140   2.940   5.360   7.897  0.1026 -0.0156  0.5368
   64SAPC   C11 5141   3.121   4.990   7.668 -0.6230  0.2309  0.3405
   64SAPC  H11A 5142   3.180   5.057   7.603 -0.8255  0.4261  0.3567
   64SAPC  H11B 5143   3.075   4.914   7.601 -0.2368  0.7932 -0.5673
   64SAPC     P 5144   3.367   4.961   7.760 -0.0545  0.0534 -0.2008
   64SAPC   O13 5145   3.404   5.106   7.761 -0.5981  0.5610 -0.1278
   64SAPC   O14 5146   3.428   4.868   7.854 -0.5016 -0.2745  0.0493
   64SAPC   O12 5147   3.211   4.928   7.767 -0.1605 -0.3132  0.5247
   64SAPC   O11 5148   3.395   4.913   7.611  0.1316  0.2592  0.1448
   64SAPC    C1 5149   3.494   4.815   7.578  0.1178  0.0090  0.4673
   64SAPC    HA 5150   3.596   4.861   7.575 -0.3875  1.1556 -0.3776
   64SAPC    HB 5151   3.506   4.745   7.663  1.3863  2.0406  2.0753
   64SAPC    C2 5152   3.466   4.739   7.448 -0.8691  0.4763  0.1183
   64SAPC    HS 5153   3.531   4.650   7.456 -0.3556  0.9664  1.8938
   64SAPC   O21 5154   3.502   4.806   7.325  0.4164 -0.0347  0.4340
   64SAPC   C21 5155   3.626   4.856   7.311  0.7303 -0.2253  0.8724
   64SAPC   O22 5156   3.727   4.830   7.373  0.1379  0.1327 -0.0574
   64SAPC   C22 5157   3.621   4.955   7.195  0.5916  0.4828 -0.2700
   64SAPC   H2R 5158   3.572   4.900   7.112  3.0407  0.0935 -1.5493
   64SAPC   H2S 5159   3.557   5.043   7.216  2.9244  3.1426 -3.2396
   64SAPC    C3 5160   3.313   4.699   7.461  0.0395  0.1390  0.6532
   64SAPC    HX 5161   3.260   4.788   7.501 -0.5718  0.0427  0.0833
   64SAPC    HY 5162   3.297   4.617   7.534  0.2558  0.7836  1.4362
   64SAPC   O31 5163   3.247   4.659   7.334  0.3839 -0.1025  0.1329
   64SAPC   C31 5164   3.294   4.547   7.277 -0.4407  0.5775 -0.2404
   64SAPC   O32 5165   3.376   4.476   7.329  0.1913  0.4562  0.0591
   64SAPC   C32 5166   3.245   4.534   7.134 -0.8599 -0.1593 -0.0477
   64SAPC   H2X 5167   3.138   4.564   7.127 -0.8068 -0.0695 -0.5362
   64SAPC   H2Y 5168   3.262   4.432   7.094 -0.4858  0.6595 -2.1152
   64SAPC   C23 5169   3.754   4.991   7.130 -0.1257 -0.0495 -0.1974
   64SAPC   H3R 5170   3.743   5.027   7.026  1.5569 -0.8562 -0.7010
   64SAPC   H3S 5171   3.833   4.912   7.132  0.5900  0.6624  0.3943
   64SAPC   C24 5172   3.812   5.122   7.203 -0.9657  0.6490  0.2419
   64SAPC   H4R 5173   3.794   5.128   7.312  0.5473 -0.6318  0.6070
   64SAPC   H4S 5174   3.755   5.212   7.172 -0.1692  0.5997 -1.4470
   64SAPC   C25 5175   3.961   5.148   7.177  0.0258  0.8755  0.1039
   64SAPC   H5R 5176   4.033   5.132   7.259 -0.4237 -2.1881  0.0044
   64SAPC   C26 5177   4.012   5.199   7.063 -0.0390 -0.1577 -0.0084
   64SAPC   H6R 5178   4.121   5.217   7.066 -0.2339  1.8877  4.6284
   64SAPC   C27 5179   3.932   5.227   6.937 -0.1847  0.1784  0.7661
   64SAPC   H7R 5180   3.963   5.331   6.915 -2.2845  0.6845  0.0028
   64SAPC   H7S 5181   3.824   5.215   6.958  0.3005 -1.5486  2.5662
   64SAPC   C28 5182   3.984   5.126   6.837  0.5099 -0.3913 -0.1588
   64SAPC   H8R 5183   3.935   5.028   6.835  1.6568 -0.9855 -0.5884
   64SAPC   C29 5184   4.080   5.153   6.750 -0.4963 -0.4399  0.1759
   64SAPC   H9R 5185   4.129   5.066   6.703  0.5275  0.1937  0.0235
   64SAPC  C210 5186   4.153   5.284   6.721 -0.5642  0.3287 -0.2284
   64SAPC  H10R 5187   4.252   5.270   6.671 -0.0849  1.2171  0.4409
   64SAPC  H10S 5188   4.183   5.325   6.820 -0.1836 -0.1099 -0.1556
   64SAPC  C211 5189   4.072   5.393   6.653  0.3278  0.6466  0.3879
   64SAPC  H11R 5190   3.989   5.436   6.711  0.2376  0.4551  0.4008
   64SAPC  C212 5191   4.095   5.448   6.530 -0.3318  0.1645 -0.8633
   64SAPC  H12R 5192   4.017   5.512   6.485 -0.3290  0.3374 -0.6260
   64SAPC  C213 5193   4.211   5.416   6.443  0.1606  0.1317 -0.0010
   64SAPC  H13R 5194   4.281   5.358   6.507  0.3294 -2.0669 -2.0206
   64SAPC  H13S 5195   4.271   5.504   6.413  0.7652 -0.2025  0.2059
   64SAPC  C214 5196   4.167   5.336   6.324  0.3107  0.6437  0.2993
   64SAPC  H14R 5197   4.099   5.252   6.348  1.0711  0.3916  1.7106
   64SAPC  C215 5198   4.197   5.344   6.194 -0.0436 -0.1611  0.3676
   64SAPC  H15R 5199   4.161   5.265   6.126 -0.6589  0.5757 -0.1669
   64SAPC  C216 5200   4.284   5.445   6.125  0.3820 -0.2460 -0.2825
   64SAPC  H16R 5201   4.284   5.547   6.170 -1.4010 -0.0458 -0.6251
   64SAPC  H16S 5202   4.232   5.477   6.032 -0.8117 -1.2494  0.0108
   64SAPC  C217 5203   4.423   5.402   6.067  0.4872 -0.2412  0.1149
   64SAPC  H17R 5204   4.419   5.298   6.028 -0.6024  0.1173 -0.7799
   64SAPC  H17S 5205   4.495   5.412   6.151 -0.8407 -0.3026  1.2947
   64SAPC  C218 5206   4.471   5.494   5.959 -0.4798  0.1507  0.2390
   64SAPC  H18R 5207   4.394   5.488   5.879  0.6672  0.5429 -0.9308
   64SAPC  H18S 5208   4.563   5.460   5.907 -1.4691  0.9453 -2.2095
   64SAPC  C219 5209   4.502   5.643   5.985 -0.3442 -0.2432 -0.4308
   64SAPC  H19R 5210   4.424   5.699   6.040 -0.4226  1.5149 -2.2284
   64SAPC  H19S 5211   4.506   5.704   5.892  2.1685  0.9024  0.3401
   64SAPC  C220 5212   4.632   5.654   6.057  0.4735 -0.7970 -0.0774
   64SAPC  H20R 5213   4.626   5.595   6.151 -2.3848 -1.8966 -0.8274
   64SAPC  H20S 5214   4.650   5.759   6.088 -2.5961  0.0070 -0.6349
   64SAPC  H20T 5215   4.712   5.599   6.005  1.0888 -0.6850  0.7255
   64SAPC   C33 5216   3.323   4.647   7.042 -0.1091  0.0011 -0.4012
   64SAPC   H3X 5217   3.432   4.632   7.032 -0.1319 -0.3158 -0.1858
   64SAPC   H3Y 5218   3.314   4.744   7.097  1.3350  1.2994 -2.3496
   64SAPC   C34 5219   3.251   4.663   6.908  0.0362 -0.2838  0.3012
   64SAPC   H4X 5220   3.161   4.726   6.927 -0.8293 -0.1015 -3.5159
   64SAPC   H4Y 5221   3.218   4.561   6.880  3.6006 -1.7002  0.7551
   64SAPC   C35 5222   3.341   4.713   6.801 -0.8198  0.5541  0.1425
   64SAPC   H5X 5223   3.306   4.699   6.697  1.9147 -0.5937 -0.7027
   64SAPC   H5Y 5224   3.424   4.639   6.797 -1.2757  0.1002 -1.6685
   64SAPC   C36 5225   3.400   4.857   6.825 -1.1467 -0.2075 -0.6461
   64SAPC   H6X 5226   3.425   4.863   6.933 -1.4465  0.1506 -0.5952
   64SAPC   H6Y 5227   3.318   4.931   6.815  1.5804  3.2569  0.2837
   64SAPC   C37 5228   3.514   4.916   6.736 -0.1308  0.1160 -0.2301
   64SAPC   H7X 5229   3.560   5.004   6.785  0.9446 -0.4879 -0.1176
   64SAPC   H7Y 5230   3.474   4.939   6.635 -0.0519 -0.5687 -0.4197
   64SAPC   C38 5231   3.634   4.821   6.712  0.0909 -0.0082 -0.1983
   64SAPC   H8X 5232   3.595   4.725   6.673 -0.6113  0.1171  0.1633
   64SAPC   H8Y 5233   3.689   4.799   6.806 -0.8911  1.7953  0.8807
   64SAPC   C39 5234   3.727   4.889   6.610  0.8066  0.2350  0.5234
   64SAPC   H9X 5235   3.752   4.983   6.664 -1.2581  0.7527  0.6896
   64SAPC   H9Y 5236   3.671   4.909   6.516 -0.9419 -1.6811  1.0735
   64SAPC  C310 5237   3.837   4.802   6.567 -0.5245 -0.6191 -0.2414
   64SAPC  H10X 5238   3.787   4.712   6.527 -1.6613 -0.8178  1.5251
   64SAPC  H10Y 5239   3.903   4.772   6.651  0.5124 -1.6388 -1.3738
   64SAPC  C311 5240   3.928   4.849   6.443 -0.3317  0.3358  0.1312
   64SAPC  H11X 5241   4.021   4.902   6.474  1.7167 -2.1741 -1.3270
   64SAPC  H11Y 5242   3.865   4.909   6.373  0.8992  1.3274 -0.1585
   64SAPC  C312 5243   3.961   4.724   6.355 -0.0282 -0.3904 -0.1536
   64SAPC  H12X 5244   3.870   4.687   6.302  0.7121 -1.9767 -0.3861
   64SAPC  H12Y 5245   4.000   4.634   6.407 -1.0482 -0.4711  0.4981
   64SAPC  C313 5246   4.060   4.755   6.241  0.0779  0.0496 -1.1104
   64SAPC  H13X 5247   4.162   4.749   6.285 -0.4808  0.5770  0.3131
   64SAPC  H13Y 5248   4.044   4.861   6.213 -1.0887  0.4520  0.8601
   64SAPC  C314 5249   4.032   4.631   6.142  0.3255 -0.0998 -0.0331
   64SAPC  H14X 5250   3.938   4.643   6.085 -0.0197  1.1698  0.7732
   64SAPC  H14Y 5251   4.031   4.534   6.197 -0.4671 -1.2256 -1.9511
   64SAPC  C315 5252   4.145   4.612   6.045  0.3610  0.2160  0.1709
   64SAPC  H15X 5253   4.246   4.635   6.087  0.4829 -1.7878  1.1163
   64SAPC  H15Y 5254   4.135   4.688   5.965  1.5103 -0.5445 -0.7239
   64SAPC  C316 5255   4.154   4.468   5.981 -0.4000  0.2634 -0.2315
   64SAPC  H16X 5256   4.202   4.396   6.050  1.0244  0.9641 -0.4528
   64SAPC  H16Y 5257   4.224   4.480   5.895  1.5950 -0.8043  1.1571
   64SAPC  C317 5258   4.022   4.413   5.920  0.0822  0.0320  1.0478
   64SAPC  H17X 5259   3.945   4.410   6.000  0.5906  0.1927  1.5574
   64SAPC  H17Y 5260   4.040   4.307   5.893 -0.3112  0.3368 -0.4993
   64SAPC  C318 5261   3.969   4.498   5.799  0.0664  0.3777  0.1510
   64SAPC  H18X 5262   3.927   4.596   5.828  0.5899  0.9261 -0.8642
   64SAPC  H18Y 5263   3.886   4.442   5.750 -0.5149  0.4269  1.0589
   64SAPC  H18Z 5264   4.040   4.518   5.716  1.6906  0.3512  1.4824
   65SAPC     N 5265   3.593   0.695   2.997 -0.2119 -0.4224  0.3048
   65SAPC   C12 5266   3.597   0.734   3.149 -0.2053  0.3922  0.0376
   65SAPC  H12A 5267   3.614   0.643   3.204 -0.8261  0.1799 -0.1152
   65SAPC  H12B 5268   3.494   0.759   3.169  0.2306  1.1219  1.5677
   65SAPC   C13 5269   3.577   0.814   2.906  0.1045 -0.2012 -0.3062
   65SAPC  H13A 5270   3.659   0.878   2.935 -1.1182  0.4206  2.0062
   65SAPC  H13B 5271   3.585   0.792   2.800  1.0959 -1.3727 -0.0043
   65SAPC  H13C 5272   3.482   0.862   2.927 -0.4863 -1.0863 -0.8965
   65SAPC   C14 5273   3.716   0.632   2.960 -0.4446 -0.3281  0.5097
   65SAPC  H14A 5274   3.801   0.696   2.977 -1.5864  1.2379  0.5532
   65SAPC  H14B 5275   3.732   0.533   3.001 -1.0997 -1.1681 -1.1235
   65SAPC  H14C 5276   3.724   0.614   2.853 -0.7886 -1.2962  0.6297
   65SAPC   C15 5277   3.495   0.590   2.965 -0.4438 -0.3515  0.5121
   65SAPC  H15A 5278   3.508   0.504   3.029 -0.9753 -0.8408 -0.0232
   65SAPC  H15B 5279   3.394   0.629   2.963 -0.0979  0.5237 -0.3817
   65SAPC  H15C 5280   3.510   0.548   2.866  2.8094  0.4297  0.5908
   65SAPC   C11 5281   3.680   0.852   3.186 -0.3252 -0.0424  0.4278
   65SAPC  H11A 5282   3.780   0.848   3.138 -0.5918  1.8442 -0.3619
   65SAPC  H11B 5283   3.702   0.861   3.295  0.8614 -2.1481  0.4107
   65SAPC     P 5284   3.492   1.048   3.209 -0.1542  0.1449  0.2600
   65SAPC   O13 5285   3.470   1.175   3.134 -0.0086 -0.4662 -0.4702
   65SAPC   O14 5286   3.381   0.950   3.226 -0.4048 -0.0849 -0.2900
   65SAPC   O12 5287   3.610   0.968   3.137  0.3315  0.1035 -0.1758
   65SAPC   O11 5288   3.542   1.072   3.353 -0.3530 -0.0244 -0.3611
   65SAPC    C1 5289   3.670   1.134   3.381  0.4165 -0.5190 -0.0935
   65SAPC    HA 5290   3.753   1.073   3.338  1.8016  1.2812 -0.0878
   65SAPC    HB 5291   3.675   1.231   3.328 -3.2559  0.0116  0.2762
   65SAPC    C2 5292   3.695   1.157   3.530  0.0945 -0.0954 -0.0420
   65SAPC    HS 5293   3.802   1.180   3.544  0.1270 -0.0136 -0.4089
   65SAPC   O21 5294   3.659   1.035   3.607  0.3034  0.7523 -0.3597
   65SAPC   C21 5295   3.737   0.932   3.570 -0.4568  0.0359 -0.0777
   65SAPC   O22 5296   3.838   0.933   3.505  0.1942  0.5719 -0.1207
   65SAPC   C22 5297   3.689   0.799   3.628  0.7975  0.4138 -0.3417
   65SAPC   H2R 5298   3.587   0.813   3.669  1.4197 -0.6009  1.6737
   65SAPC   H2S 5299   3.697   0.734   3.538  0.5674  0.2104 -0.2146
   65SAPC    C3 5300   3.624   1.278   3.582 -0.0171 -0.5711 -0.2170
   65SAPC    HX 5301   3.518   1.272   3.549 -0.5534  2.2362  0.7231
   65SAPC    HY 5302   3.676   1.366   3.538 -0.1220 -0.0491  0.6665
   65SAPC   O31 5303   3.618   1.286   3.726 -0.4204 -0.3896 -0.0625
   65SAPC   C31 5304   3.727   1.335   3.782 -0.2498  0.8591 -0.5540
   65SAPC   O32 5305   3.823   1.377   3.722 -0.5167 -0.2021 -0.0998
   65SAPC   C32 5306   3.715   1.338   3.939 -0.1599  0.0491  0.2671
   65SAPC   H2X 5307   3.638   1.415   3.962  0.7083  0.1223  3.2860
   65SAPC   H2Y 5308   3.818   1.373   3.963  0.5555 -0.3883 -1.9059
   65SAPC   C23 5309   3.779   0.740   3.745  0.6090  0.3266 -0.1961
   65SAPC   H3R 5310   3.886   0.737   3.713 -0.3833  1.6704 -4.2364
   65SAPC   H3S 5311   3.736   0.638   3.745 -0.2414  0.5572 -3.4811
   65SAPC   C24 5312   3.755   0.810   3.873 -0.6372 -0.6798  0.4895
   65SAPC   H4R 5313   3.806   0.908   3.865  1.1349 -1.5522  0.6432
   65SAPC   H4S 5314   3.817   0.761   3.951  1.2820  1.1852  0.2105
   65SAPC   C25 5315   3.617   0.838   3.913 -0.0322 -0.0174  0.9778
   65SAPC   H5R 5316   3.568   0.910   3.846  0.3863  0.3686  1.0797
   65SAPC   C26 5317   3.551   0.794   4.019  0.5127  0.2169 -0.7483
   65SAPC   H6R 5318   3.448   0.832   4.028  0.8733  1.2043 -0.7292
   65SAPC   C27 5319   3.604   0.692   4.119  0.5025 -0.2966  0.3172
   65SAPC   H7R 5320   3.622   0.759   4.207  1.1706 -0.0922  0.0351
   65SAPC   H7S 5321   3.699   0.645   4.085 -0.7453 -2.8254  0.1409
   65SAPC   C28 5322   3.520   0.575   4.157 -0.0886 -0.0633 -0.3767
   65SAPC   H8R 5323   3.520   0.497   4.080  1.0363 -1.0145  0.5632
   65SAPC   C29 5324   3.441   0.555   4.269  0.2284  0.8492  0.6713
   65SAPC   H9R 5325   3.373   0.470   4.276  0.4571  0.2578 -2.6032
   65SAPC  C210 5326   3.435   0.655   4.378 -0.0295 -0.1961 -0.1211
   65SAPC  H10R 5327   3.332   0.657   4.420  0.2099  0.9361  0.4678
   65SAPC  H10S 5328   3.447   0.763   4.354 -0.6558  0.3532  1.8269
   65SAPC  C211 5329   3.532   0.627   4.489 -0.5287  0.9954 -0.7510
   65SAPC  H11R 5330   3.563   0.522   4.504 -0.0172  1.0267 -1.5390
   65SAPC  C212 5331   3.577   0.710   4.586 -0.0154 -0.8605  0.0404
   65SAPC  H12R 5332   3.622   0.668   4.678 -1.0916 -0.9710  0.5329
   65SAPC  C213 5333   3.530   0.856   4.591 -0.3048  0.9630  0.3954
   65SAPC  H13R 5334   3.497   0.894   4.492  0.4332 -0.1194 -0.2851
   65SAPC  H13S 5335   3.618   0.918   4.622 -0.2711  1.0248  0.1774
   65SAPC  C214 5336   3.418   0.872   4.685 -0.5751 -0.7634  0.0981
   65SAPC  H14R 5337   3.381   0.780   4.734  0.7350 -1.4112 -0.0907
   65SAPC  C215 5338   3.373   0.991   4.733  0.3281 -1.3333 -0.8154
   65SAPC  H15R 5339   3.281   0.990   4.793 -0.4595  2.1344 -1.7586
   65SAPC  C216 5340   3.434   1.129   4.709  0.6573  0.1691 -0.1350
   65SAPC  H16R 5341   3.535   1.118   4.665  0.5978 -1.5322  0.0754
   65SAPC  H16S 5342   3.442   1.173   4.810  0.5862  0.6329 -0.3307
   65SAPC  C217 5343   3.341   1.221   4.627  0.4677 -0.3102  0.3045
   65SAPC  H17R 5344   3.366   1.329   4.633  0.3741 -0.1599 -1.4540
   65SAPC  H17S 5345   3.234   1.207   4.656  0.3681  0.5900  0.4171
   65SAPC  C218 5346   3.340   1.171   4.481 -0.0447 -0.6511 -0.3939
   65SAPC  H18R 5347   3.300   1.068   4.493 -0.7322 -0.5661 -1.7921
   65SAPC  H18S 5348   3.445   1.150   4.452  0.0631  0.6351 -1.0207
   65SAPC  C219 5349   3.272   1.260   4.385 -0.2981  0.3037  0.5673
   65SAPC  H19R 5350   3.317   1.360   4.401  2.4071 -0.7968  0.3370
   65SAPC  H19S 5351   3.164   1.254   4.412 -0.4307  2.6053  0.7424
   65SAPC  C220 5352   3.282   1.218   4.242 -0.3497  0.1111 -0.8677
   65SAPC  H20R 5353   3.382   1.245   4.203 -1.1550  2.9600 -1.1358
   65SAPC  H20S 5354   3.215   1.282   4.181  0.7074 -1.3691 -3.7781
   65SAPC  H20T 5355   3.242   1.116   4.225 -3.3766  1.0731 -0.0532
   65SAPC   C33 5356   3.677   1.209   4.014  0.2407 -0.1442 -0.8315
   65SAPC   H3X 5357   3.728   1.119   3.972  0.1559 -1.2330  1.2819
   65SAPC   H3Y 5358   3.569   1.184   4.015  0.7234 -2.6068  1.1382
   65SAPC   C34 5359   3.719   1.238   4.159  0.0905  0.4953  0.2177
   65SAPC   H4X 5360   3.666   1.326   4.201 -1.0350  0.9004 -1.8872
   65SAPC   H4Y 5361   3.824   1.271   4.144 -0.3398  1.8813  0.1488
   65SAPC   C35 5362   3.711   1.126   4.265  0.2681  0.0027  0.7249
   65SAPC   H5X 5363   3.617   1.067   4.263 -0.0840  0.4916 -2.6666
   65SAPC   H5Y 5364   3.718   1.172   4.367  1.0140  1.7331 -0.0625
   65SAPC   C36 5365   3.823   1.025   4.237 -0.2545 -0.5821  0.6600
   65SAPC   H6X 5366   3.910   1.083   4.201 -1.3630  1.2779  0.8563
   65SAPC   H6Y 5367   3.794   0.958   4.153 -0.9155 -1.6888  1.7378
   65SAPC   C37 5368   3.865   0.933   4.350 -0.2832 -0.3145 -0.0041
   65SAPC   H7X 5369   3.911   0.842   4.306 -1.2768  0.4941 -2.9474
   65SAPC   H7Y 5370   3.767   0.910   4.398 -0.2673 -0.0760  0.1479
   65SAPC   C38 5371   3.966   1.007   4.432  0.6063 -0.5266  0.2349
   65SAPC   H8X 5372   3.920   1.099   4.475  0.0958 -1.4802  1.7918
   65SAPC   H8Y 5373   4.051   1.048   4.373 -2.6816  0.3396 -4.3991
   65SAPC   C39 5374   4.008   0.929   4.554  0.5464 -0.5977  0.0536
   65SAPC   H9X 5375   4.033   0.827   4.517 -2.2525 -1.7639  1.1237
   65SAPC   H9Y 5376   3.926   0.905   4.626  0.6060 -1.4651 -0.1540
   65SAPC  C310 5377   4.129   0.991   4.629 -0.0405  0.1522 -0.6213
   65SAPC  H10X 5378   4.114   1.100   4.642 -0.4572 -0.0385  0.6025
   65SAPC  H10Y 5379   4.222   0.983   4.569  0.9572  2.4822  0.5142
   65SAPC  C311 5380   4.146   0.934   4.775  0.1875  0.1716 -1.1161
   65SAPC  H11X 5381   4.244   0.971   4.812 -0.4891 -0.0422  1.0662
   65SAPC  H11Y 5382   4.140   0.823   4.772  0.3411  0.1560 -0.8421
   65SAPC  C312 5383   4.041   0.985   4.879  0.0224 -0.6018  0.6398
   65SAPC  H12X 5384   3.941   0.971   4.834  0.6259  1.1428 -1.3670
   65SAPC  H12Y 5385   4.050   1.094   4.894  2.5459 -0.8771  1.6292
   65SAPC  C313 5386   4.053   0.909   5.008  0.2641  0.1770  0.4479
   65SAPC  H13X 5387   4.158   0.921   5.042 -0.2376  1.9106  1.5392
   65SAPC  H13Y 5388   4.030   0.802   4.993  0.9559  0.0202  0.4742
   65SAPC  C314 5389   3.968   0.966   5.120 -0.4914  0.9652  0.1298
   65SAPC  H14X 5390   3.863   0.979   5.086  0.0640 -1.8021 -3.1714
   65SAPC  H14Y 5391   4.021   1.059   5.150 -0.1348  1.0730 -0.8178
   65SAPC  C315 5392   3.980   0.874   5.247  0.2898  0.5371  0.1921
   65SAPC  H15X 5393   4.083   0.831   5.251  0.2045  0.3829  0.9457
   65SAPC  H15Y 5394   3.923   0.781   5.228 -0.0653  0.8560 -0.3142
   65SAPC  C316 5395   3.934   0.938   5.378  0.6301  0.5765 -1.1423
   65SAPC  H16X 5396   3.825   0.959   5.376  0.2047 -1.3769 -0.1774
   65SAPC  H16Y 5397   3.995   1.031   5.388 -0.5701  1.1915  1.0538
   65SAPC  C317 5398   3.963   0.850   5.497 -0.6256 -0.3968  0.1065
   65SAPC  H17X 5399   4.071   0.825   5.501 -0.9866 -2.2225 -0.6715
   65SAPC  H17Y 5400   3.909   0.754   5.483 -2.5581  0.7886 -0.9511
   65SAPC  C318 5401   3.919   0.912   5.629 -0.4857  0.1906  0.3890
   65SAPC  H18X 5402   3.964   0.866   5.719  1.3444  0.7541 -0.1928
   65SAPC  H18Y 5403   3.810   0.907   5.645 -0.3842 -0.9690  0.7707
   65SAPC  H18Z 5404   3.955   1.018   5.628 -2.0961  0.7615  0.8212
   66SAPC     N 5405   2.380   4.397   2.913 -1.2445 -0.0527 -0.1708
   66SAPC   C12 5406   2.413   4.537   2.852  0.0105 -0.4390 -0.1974
   66SAPC  H12A 5407   2.458   4.513   2.758 -0.5686  0.7933 -0.8119
   66SAPC  H12B 5408   2.488   4.586   2.912 -0.3021  0.4094 -0.4944
   66SAPC   C13 5409   2.505   4.312   2.924 -0.4512  0.1855  0.2242
   66SAPC  H13A 5410   2.550   4.292   2.828  0.8218 -0.2608  0.8925
   66SAPC  H13B 5411   2.584   4.356   2.983  1.3691 -2.1793 -0.2831
   66SAPC  H13C 5412   2.488   4.216   2.971  0.6044  0.8384  2.0522
   66SAPC   C14 5413   2.329   4.415   3.049  0.1366 -0.4992 -0.1036
   66SAPC  H14A 5414   2.388   4.364   3.124 -2.9351 -0.5126  2.5048
   66SAPC  H14B 5415   2.335   4.516   3.085 -1.4311  0.1982 -1.6266
   66SAPC  H14C 5416   2.222   4.401   3.056  0.0405  0.8321  1.9629
   66SAPC   C15 5417   2.284   4.324   2.839  0.5058 -0.0243  0.4978
   66SAPC  H15A 5418   2.255   4.231   2.886 -0.0629 -0.2529 -0.2901
   66SAPC  H15B 5419   2.195   4.385   2.835  0.1130 -0.6443 -0.5738
   66SAPC  H15C 5420   2.324   4.298   2.742 -0.1981 -2.5529  0.8186
   66SAPC   C11 5421   2.299   4.644   2.834  0.2846  0.2017 -0.2740
   66SAPC  H11A 5422   2.218   4.599   2.773  0.5608 -0.7597  0.0529
   66SAPC  H11B 5423   2.339   4.725   2.769  0.0507  1.2774  0.8876
   66SAPC     P 5424   2.187   4.849   2.969 -0.1853 -0.7539 -0.1184
   66SAPC   O13 5425   2.272   4.950   2.892 -0.0061  0.4421 -0.6179
   66SAPC   O14 5426   2.044   4.843   2.934 -0.4358 -0.1007 -0.0919
   66SAPC   O12 5427   2.252   4.705   2.955  0.0200  0.3101  0.3891
   66SAPC   O11 5428   2.188   4.881   3.124 -0.0059 -0.2273  0.3387
   66SAPC    C1 5429   2.195   4.777   3.227 -0.1213 -0.5218  0.3503
   66SAPC    HA 5430   2.255   4.692   3.189 -0.4049  0.1700 -1.7868
   66SAPC    HB 5431   2.262   4.811   3.308  0.5028  0.2757 -0.4748
   66SAPC    C2 5432   2.058   4.722   3.284 -0.1534 -0.1791 -0.7515
   66SAPC    HS 5433   1.993   4.695   3.198  0.2260  0.6867 -1.3290
   66SAPC   O21 5434   2.000   4.834   3.361 -0.2873  0.8846  0.0254
   66SAPC   C21 5435   1.869   4.840   3.371  0.3946  0.0787  1.0595
   66SAPC   O22 5436   1.792   4.765   3.310 -0.4587 -0.4926 -0.7698
   66SAPC   C22 5437   1.821   4.960   3.442 -0.8458 -0.7193  0.0822
   66SAPC   H2R 5438   1.875   4.964   3.539  1.4009  0.2309 -1.1412
   66SAPC   H2S 5439   1.830   5.054   3.384  0.5898  0.0924  1.5391
   66SAPC    C3 5440   2.083   4.598   3.370  0.2377 -0.5577 -0.5123
   66SAPC    HX 5441   2.168   4.618   3.438  0.9536 -0.4288 -1.4293
   66SAPC    HY 5442   2.110   4.507   3.313 -0.3465 -2.0406  1.4709
   66SAPC   O31 5443   1.961   4.577   3.450 -0.3348  0.4549  0.0362
   66SAPC   C31 5444   1.878   4.488   3.397 -0.7698 -0.5706  0.0257
   66SAPC   O32 5445   1.885   4.444   3.285  0.0795 -0.1294  0.1868
   66SAPC   C32 5446   1.768   4.439   3.492  0.2469 -0.1484  0.7383
   66SAPC   H2X 5447   1.810   4.352   3.546  0.8034  0.2449  0.9486
   66SAPC   H2Y 5448   1.695   4.393   3.421  0.7746  0.3822 -0.1582
   66SAPC   C23 5449   1.665   4.944   3.477 -0.2363 -0.1298  0.3775
   66SAPC   H3R 5450   1.648   4.844   3.522  1.2607  0.2219  1.8209
   66SAPC   H3S 5451   1.617   4.954   3.377 -1.5540 -0.2982  0.9682
   66SAPC   C24 5452   1.600   5.049   3.568  0.0062 -0.1476  0.5310
   66SAPC   H4R 5453   1.492   5.025   3.572  0.1827 -1.2163 -0.6977
   66SAPC   H4S 5454   1.611   5.143   3.510  0.5934 -1.0156 -0.8031
   66SAPC   C25 5455   1.673   5.046   3.699  0.0153 -0.0780  0.3756
   66SAPC   H5R 5456   1.778   5.078   3.695 -0.9479  3.3996 -1.6770
   66SAPC   C26 5457   1.632   5.039   3.824 -0.1032  0.4962 -0.6918
   66SAPC   H6R 5458   1.706   5.057   3.903 -2.5532  1.7529  1.4977
   66SAPC   C27 5459   1.493   5.023   3.868  0.0708  0.4111 -0.3727
   66SAPC   H7R 5460   1.474   4.944   3.944 -0.0487  0.5324 -0.2745
   66SAPC   H7S 5461   1.429   5.005   3.779 -0.6244  0.9866 -0.0090
   66SAPC   C28 5462   1.457   5.159   3.929  0.6819 -0.2423  0.4159
   66SAPC   H8R 5463   1.424   5.230   3.852 -0.3486 -1.9942 -0.8483
   66SAPC   C29 5464   1.444   5.193   4.057  0.1115  0.3883  0.0569
   66SAPC   H9R 5465   1.416   5.294   4.090 -0.4127 -0.4687  2.4404
   66SAPC  C210 5466   1.477   5.108   4.179 -0.3819 -0.4263 -0.2388
   66SAPC  H10R 5467   1.572   5.053   4.159 -0.3266 -0.5378  0.3004
   66SAPC  H10S 5468   1.400   5.029   4.192 -0.8325  0.1651  0.8511
   66SAPC  C211 5469   1.497   5.189   4.300  0.1341 -0.2947  0.6876
   66SAPC  H11R 5470   1.594   5.239   4.289 -0.2369 -0.0756 -2.3052
   66SAPC  C212 5471   1.412   5.232   4.393  0.2156 -0.5141  0.4156
   66SAPC  H12R 5472   1.456   5.296   4.471  0.6880 -0.9933  0.5468
   66SAPC  C213 5473   1.265   5.182   4.388  0.4829  0.4389 -0.3206
   66SAPC  H13R 5474   1.256   5.093   4.454 -0.1053  0.6551 -0.1017
   66SAPC  H13S 5475   1.233   5.159   4.285  1.1243  2.1787 -0.9459
   66SAPC  C214 5476   1.169   5.289   4.448  0.3517  0.1521  0.2892
   66SAPC  H14R 5477   1.113   5.344   4.370  0.5362 -2.4914 -1.8479
   66SAPC  C215 5478   1.139   5.309   4.576  0.3605  0.3289  0.2500
   66SAPC  H15R 5479   1.072   5.389   4.611  0.5208  0.8259 -0.5331
   66SAPC  C216 5480   1.195   5.226   4.692  0.3177  0.1084  0.1598
   66SAPC  H16R 5481   1.270   5.154   4.652 -0.4483  0.4378 -1.9745
   66SAPC  H16S 5482   1.116   5.165   4.740 -0.2473  0.5217 -0.2391
   66SAPC  C217 5483   1.258   5.311   4.798 -0.3298 -0.4497  0.4552
   66SAPC  H17R 5484   1.190   5.387   4.843 -0.1467 -1.0852  1.8483
   66SAPC  H17S 5485   1.341   5.370   4.751  0.2657 -0.7630  1.1032
   66SAPC  C218 5486   1.324   5.223   4.911  0.0540 -0.3263 -0.1971
   66SAPC  H18R 5487   1.361   5.127   4.869  1.1613  0.4646 -1.1133
   66SAPC  H18S 5488   1.240   5.207   4.982  1.6970  1.9511  2.4587
   66SAPC  C219 5489   1.443   5.291   4.983 -0.2184 -0.2108  0.2435
   66SAPC  H19R 5490   1.410   5.394   5.010  2.1962 -0.0067  2.7691
   66SAPC  H19S 5491   1.531   5.301   4.916 -0.7121  0.3255 -0.3521
   66SAPC  C220 5492   1.484   5.242   5.116  0.9115  0.0025  1.0507
   66SAPC  H20R 5493   1.503   5.133   5.117  1.6522  0.1207  0.5079
   66SAPC  H20S 5494   1.397   5.246   5.185 -0.3047 -0.9995 -0.3535
   66SAPC  H20T 5495   1.573   5.298   5.153  1.1895  0.1816  0.1360
   66SAPC   C33 5496   1.704   4.538   3.601 -0.4122 -0.2896  0.0283
   66SAPC   H3X 5497   1.652   4.623   3.551 -0.2383 -0.6841 -0.8441
   66SAPC   H3Y 5498   1.790   4.563   3.667  0.0187 -3.2744  0.7261
   66SAPC   C34 5499   1.599   4.466   3.682 -0.3020 -0.0450  0.1493
   66SAPC   H4X 5500   1.641   4.377   3.735  0.8464  0.4353  0.0732
   66SAPC   H4Y 5501   1.514   4.436   3.617  1.3639 -1.8147 -1.3481
   66SAPC   C35 5502   1.535   4.548   3.802 -0.0016 -0.0586 -0.1917
   66SAPC   H5X 5503   1.463   4.486   3.860 -0.6995  1.7202  0.9246
   66SAPC   H5Y 5504   1.474   4.629   3.758  0.2064  1.2774  1.8390
   66SAPC   C36 5505   1.640   4.610   3.902 -0.4111  0.0413 -0.6104
   66SAPC   H6X 5506   1.652   4.715   3.868 -1.1918  0.7405  1.1522
   66SAPC   H6Y 5507   1.736   4.554   3.911 -0.6873 -0.3272  0.0651
   66SAPC   C37 5508   1.583   4.619   4.044  0.3854  0.6528  0.2246
   66SAPC   H7X 5509   1.574   4.513   4.075 -2.0066  0.8065  0.2451
   66SAPC   H7Y 5510   1.482   4.661   4.060  0.6276  0.1442  3.9594
   66SAPC   C38 5511   1.673   4.694   4.142  0.2601  0.1921  0.0949
   66SAPC   H8X 5512   1.685   4.791   4.087 -0.4467 -1.0227 -2.3664
   66SAPC   H8Y 5513   1.773   4.647   4.140  0.9440  1.5701 -1.8989
   66SAPC   C39 5514   1.603   4.716   4.273  0.7699 -0.7128  0.2701
   66SAPC   H9X 5515   1.577   4.621   4.323  1.6767 -1.0350  0.1531
   66SAPC   H9Y 5516   1.507   4.768   4.254  2.1895  1.6520 -0.9493
   66SAPC  C310 5517   1.692   4.803   4.363 -0.7421 -0.0544 -0.3828
   66SAPC  H10X 5518   1.706   4.901   4.311  1.1203  0.7096  1.4207
   66SAPC  H10Y 5519   1.793   4.759   4.380 -1.7742 -2.0817  0.7656
   66SAPC  C311 5520   1.615   4.837   4.496 -0.0979 -0.2956  0.6831
   66SAPC  H11X 5521   1.580   4.738   4.533 -2.2276 -0.1516 -0.7671
   66SAPC  H11Y 5522   1.535   4.909   4.471  0.1890  0.1132  0.9335
   66SAPC  C312 5523   1.702   4.912   4.602  0.6469  0.1742 -0.0880
   66SAPC  H12X 5524   1.757   4.998   4.560  1.3551  0.5486  1.5430
   66SAPC  H12Y 5525   1.791   4.850   4.625  1.0296  1.3380  1.7011
   66SAPC  C313 5526   1.624   4.948   4.727  0.7331 -0.4235  0.8589
   66SAPC  H13X 5527   1.598   4.850   4.772 -2.7841 -0.2400 -0.4701
   66SAPC  H13Y 5528   1.532   4.995   4.687  0.5127 -0.4826  1.2956
   66SAPC  C314 5529   1.705   5.047   4.811 -0.0694  0.1206 -0.0671
   66SAPC  H14X 5530   1.646   5.082   4.898  0.3920  3.0044 -0.8169
   66SAPC  H14Y 5531   1.737   5.141   4.761 -0.9501  0.1690 -0.5548
   66SAPC  C315 5532   1.827   4.985   4.880 -1.1023  0.0003  0.0663
   66SAPC  H15X 5533   1.907   4.953   4.810 -0.5851 -1.2699  1.1912
   66SAPC  H15Y 5534   1.799   4.904   4.950  1.1756  0.2390  1.3629
   66SAPC  C316 5535   1.900   5.090   4.964 -0.0908 -0.1165 -0.2505
   66SAPC  H16X 5536   1.826   5.147   5.025  0.5427  0.6163 -0.1543
   66SAPC  H16Y 5537   1.939   5.173   4.901 -2.5810  0.3905 -1.2295
   66SAPC  C317 5538   2.011   5.041   5.065 -0.3916  0.3726  0.1531
   66SAPC  H17X 5539   1.967   4.991   5.154  1.9940  1.5043  2.0701
   66SAPC  H17Y 5540   2.056   5.137   5.097  1.3711  0.2618 -1.7850
   66SAPC  C318 5541   2.114   4.942   5.010  0.8530  0.1801  0.2600
   66SAPC  H18X 5542   2.058   4.858   4.962 -0.4981  1.0077  0.3130
   66SAPC  H18Y 5543   2.179   4.909   5.094 -2.2513 -0.9686  2.4000
   66SAPC  H18Z 5544   2.176   4.983   4.928  0.3672  0.7109  0.1517
   67SAPC     N 5545   4.550   3.796   2.910 -0.2826 -0.0988  0.7083
   67SAPC   C12 5546   4.507   3.740   3.037 -0.0222 -0.5041 -1.1878
   67SAPC  H12A 5547   4.424   3.674   3.020 -0.1720 -0.9805  1.0213
   67SAPC  H12B 5548   4.473   3.825   3.095  0.2562 -0.5422 -0.9639
   67SAPC   C13 5549   4.656   3.897   2.924 -0.2680  0.0332 -0.1718
   67SAPC  H13A 5550   4.628   3.973   2.995  1.9807  1.0774 -0.3076
   67SAPC  H13B 5551   4.745   3.857   2.969  0.5514  1.0987 -0.7896
   67SAPC  H13C 5552   4.687   3.950   2.835  2.3004  0.3222  0.8224
   67SAPC   C14 5553   4.590   3.693   2.803 -1.2308  0.6698  0.0042
   67SAPC  H14A 5554   4.649   3.744   2.728 -1.4084  0.5233 -0.2366
   67SAPC  H14B 5555   4.659   3.619   2.841 -0.1657  1.3757 -0.5207
   67SAPC  H14C 5556   4.509   3.644   2.750  0.2986  0.8618 -2.6677
   67SAPC   C15 5557   4.429   3.872   2.854  0.3529 -0.0796  0.0932
   67SAPC  H15A 5558   4.458   3.921   2.762 -0.7710  2.1079  0.8340
   67SAPC  H15B 5559   4.352   3.799   2.833 -0.0159 -0.4551  2.5128
   67SAPC  H15C 5560   4.399   3.945   2.928  1.1829 -0.0513  0.4102
   67SAPC   C11 5561   4.613   3.660   3.111  0.5705  0.2271  0.2520
   67SAPC  H11A 5562   4.579   3.636   3.215  2.8964  1.0640  1.2772
   67SAPC  H11B 5563   4.698   3.728   3.131 -0.5350  1.5206  0.7643
   67SAPC     P 5564   4.544   3.419   3.064  0.0980 -0.1667  0.0292
   67SAPC   O13 5565   4.408   3.474   3.048 -0.0811  0.0931  0.1745
   67SAPC   O14 5566   4.581   3.306   2.972  0.1221  0.0503  0.0703
   67SAPC   O12 5567   4.647   3.537   3.043  0.6481 -0.1734 -0.3228
   67SAPC   O11 5568   4.561   3.391   3.219 -0.3681 -0.1601 -0.4789
   67SAPC    C1 5569   4.689   3.376   3.271 -0.6769  0.2597  0.8894
   67SAPC    HA 5570   4.769   3.414   3.204 -2.6711 -0.3306 -1.9868
   67SAPC    HB 5571   4.699   3.422   3.372  2.6319  0.5344  0.5322
   67SAPC    C2 5572   4.730   3.223   3.298  0.1601  0.2314  0.3743
   67SAPC    HS 5573   4.753   3.174   3.201  4.0621  1.7995  0.3137
   67SAPC   O21 5574   4.627   3.157   3.369 -0.5071  0.8238 -0.3653
   67SAPC   C21 5575   4.630   3.023   3.376  0.1383 -0.0516  0.0504
   67SAPC   O22 5576   4.709   2.951   3.319  0.4937  0.7160 -0.2188
   67SAPC   C22 5577   4.517   2.965   3.456 -0.1981 -0.3755 -0.5200
   67SAPC   H2R 5578   4.427   3.028   3.468  0.2027 -0.0017  0.6894
   67SAPC   H2S 5579   4.480   2.875   3.403 -0.9061 -0.3186 -0.1255
   67SAPC    C3 5580   4.864   3.209   3.372  0.3072  0.4747 -0.1467
   67SAPC    HX 5581   4.943   3.249   3.304  0.0563 -0.1107 -0.8003
   67SAPC    HY 5582   4.885   3.100   3.372  0.8314  0.5697 -0.3440
   67SAPC   O31 5583   4.868   3.273   3.503 -0.3957  0.8489  0.3943
   67SAPC   C31 5584   4.987   3.290   3.557 -0.1899  0.4766 -0.4255
   67SAPC   O32 5585   5.091   3.229   3.532 -0.3164  0.0758  0.0804
   67SAPC   C32 5586   5.001   3.409   3.645  0.8853  0.9940 -0.4929
   67SAPC   H2X 5587   4.904   3.461   3.661  0.3776 -0.0766  0.0369
   67SAPC   H2Y 5588   5.078   3.478   3.604  1.0009  1.1775  0.0226
   67SAPC   C23 5589   4.567   2.927   3.598 -0.2528  0.4461 -0.0965
   67SAPC   H3R 5590   4.637   2.842   3.588  1.6130  2.0780 -1.5574
   67SAPC   H3S 5591   4.483   2.894   3.664  2.0378  0.3524  2.9670
   67SAPC   C24 5592   4.642   3.041   3.668 -0.0204 -0.8560  0.4330
   67SAPC   H4R 5593   4.730   3.088   3.618 -0.5107  1.3635  1.5487
   67SAPC   H4S 5594   4.683   2.995   3.760  0.4613 -0.2703  0.5137
   67SAPC   C25 5595   4.551   3.156   3.703  0.1550 -0.6851  0.0687
   67SAPC   H5R 5596   4.537   3.231   3.624 -0.9513 -3.1469 -2.2010
   67SAPC   C26 5597   4.486   3.181   3.819 -0.7433 -0.0188  0.2180
   67SAPC   H6R 5598   4.427   3.273   3.827  1.7456  1.7333 -0.6021
   67SAPC   C27 5599   4.488   3.088   3.942  0.2183  0.2103  0.1001
   67SAPC   H7R 5600   4.526   2.985   3.922 -0.0233  0.2828 -0.7871
   67SAPC   H7S 5601   4.383   3.070   3.972 -0.4058  2.1257 -0.8074
   67SAPC   C28 5602   4.571   3.137   4.057 -0.0905 -0.0848  0.1470
   67SAPC   H8R 5603   4.641   3.219   4.035  0.4687 -1.2724 -2.9668
   67SAPC   C29 5604   4.552   3.105   4.188 -0.3590  0.5154 -0.7155
   67SAPC   H9R 5605   4.616   3.150   4.265 -2.0470  0.5421  0.7503
   67SAPC  C210 5606   4.462   3.005   4.247 -0.4948  0.3131 -0.8125
   67SAPC  H10R 5607   4.525   2.967   4.330 -1.1859 -0.5814 -0.6783
   67SAPC  H10S 5608   4.451   2.913   4.185 -0.6388  0.0467 -0.3951
   67SAPC  C211 5609   4.331   3.064   4.296 -0.5433 -0.4924  0.2758
   67SAPC  H11R 5610   4.253   3.092   4.223  0.0031  0.2092 -0.0489
   67SAPC  C212 5611   4.310   3.093   4.424 -0.9196 -0.1268 -0.3414
   67SAPC  H12R 5612   4.210   3.127   4.453  0.4370  3.3489  0.7452
   67SAPC  C213 5613   4.404   3.070   4.544 -0.0780  0.1857  0.1748
   67SAPC  H13R 5614   4.512   3.073   4.518  0.0461  1.4919  0.7312
   67SAPC  H13S 5615   4.394   2.973   4.598 -0.9120  0.0271 -0.2440
   67SAPC  C214 5616   4.388   3.193   4.632  0.1611  0.0570 -0.8135
   67SAPC  H14R 5617   4.439   3.280   4.587  0.1594 -0.7062 -2.3664
   67SAPC  C215 5618   4.317   3.215   4.738  0.0209  0.4373 -0.3074
   67SAPC  H15R 5619   4.313   3.319   4.775  0.4009  0.2624  0.2316
   67SAPC  C216 5620   4.223   3.136   4.816  0.1151 -0.7385 -0.6651
   67SAPC  H16R 5621   4.134   3.124   4.750  1.1152  1.0474 -2.4772
   67SAPC  H16S 5622   4.197   3.198   4.904  0.6611 -0.4862 -0.6776
   67SAPC  C217 5623   4.261   2.999   4.870 -0.2563 -0.5208 -0.7176
   67SAPC  H17R 5624   4.352   3.001   4.934  0.0849 -1.5251 -1.1515
   67SAPC  H17S 5625   4.278   2.938   4.779  0.8229  0.9824 -1.5764
   67SAPC  C218 5626   4.147   2.949   4.953  0.6780  0.2030 -0.1941
   67SAPC  H18R 5627   4.057   2.958   4.889 -0.7780 -1.6453  1.4730
   67SAPC  H18S 5628   4.164   3.015   5.041  3.1693  2.5167 -2.2222
   67SAPC  C219 5629   4.170   2.808   5.005  0.5899  0.5513  0.8263
   67SAPC  H19R 5630   4.273   2.769   4.986  0.5581  1.2402 -0.9685
   67SAPC  H19S 5631   4.098   2.747   4.946  1.4127 -0.6964  1.0792
   67SAPC  C220 5632   4.134   2.784   5.148 -0.7191  0.3462  0.1115
   67SAPC  H20R 5633   4.125   2.677   5.174  2.0195  0.1184  0.3998
   67SAPC  H20S 5634   4.034   2.828   5.172 -0.0018  2.5155 -0.6469
   67SAPC  H20T 5635   4.212   2.824   5.217  0.3050 -0.0055 -0.8221
   67SAPC   C33 5636   5.057   3.366   3.787  0.2769 -0.2574  0.2880
   67SAPC   H3X 5637   5.121   3.452   3.816  0.9653 -0.8079  0.4375
   67SAPC   H3Y 5638   5.134   3.287   3.770 -0.6037 -0.8068 -1.3322
   67SAPC   C34 5639   4.943   3.346   3.889  0.1832  0.0415 -0.2091
   67SAPC   H4X 5640   4.886   3.264   3.838  0.8458  1.0457 -2.7140
   67SAPC   H4Y 5641   4.870   3.429   3.901 -0.6528 -0.4520 -1.6302
   67SAPC   C35 5642   4.989   3.305   4.031  0.5709  0.6172  0.1376
   67SAPC   H5X 5643   5.089   3.255   4.030  0.1327 -0.3240 -1.8005
   67SAPC   H5Y 5644   4.926   3.222   4.068  0.7353  0.5331  0.2323
   67SAPC   C36 5645   4.977   3.430   4.122 -1.0061 -0.0244  0.6176
   67SAPC   H6X 5646   4.874   3.470   4.117 -1.6508 -1.6976 -0.2775
   67SAPC   H6Y 5647   5.042   3.510   4.082 -0.0751 -1.3306 -0.6207
   67SAPC   C37 5648   5.018   3.418   4.271 -0.5361  0.2870  0.2349
   67SAPC   H7X 5649   4.995   3.515   4.320 -0.2269  0.3768  0.2022
   67SAPC   H7Y 5650   5.126   3.395   4.283 -0.6630  0.1969  1.2658
   67SAPC   C38 5651   4.931   3.313   4.347 -0.2045 -0.1354  0.1337
   67SAPC   H8X 5652   4.966   3.212   4.315 -0.5608 -1.1287  2.6190
   67SAPC   H8Y 5653   4.827   3.334   4.315  0.5433  0.7743 -1.8704
   67SAPC   C39 5654   4.945   3.338   4.497 -1.5177 -0.6173 -0.1639
   67SAPC   H9X 5655   4.941   3.447   4.521 -2.2725 -0.9818  1.4792
   67SAPC   H9Y 5656   5.043   3.292   4.519 -0.6087  0.3454 -1.9744
   67SAPC  C310 5657   4.842   3.272   4.591  0.5973  0.2322  0.3990
   67SAPC  H10X 5658   4.870   3.165   4.598 -3.3406 -0.8532  2.8641
   67SAPC  H10Y 5659   4.741   3.276   4.544  0.2211 -0.4086  1.1221
   67SAPC  C311 5660   4.846   3.316   4.740 -0.4532  0.0682 -0.2423
   67SAPC  H11X 5661   4.951   3.348   4.758 -0.0876 -0.4795 -1.3074
   67SAPC  H11Y 5662   4.826   3.228   4.804  1.2139  0.8863  1.5062
   67SAPC  C312 5663   4.753   3.434   4.759  0.8710  0.5045 -0.4271
   67SAPC  H12X 5664   4.653   3.387   4.759  0.2113  1.8459  0.4872
   67SAPC  H12Y 5665   4.750   3.508   4.677 -2.7631  2.6178  1.3893
   67SAPC  C313 5666   4.781   3.509   4.888 -0.5583  0.2391 -0.0374
   67SAPC  H13X 5667   4.719   3.601   4.885  0.4392  0.8877 -1.0799
   67SAPC  H13Y 5668   4.887   3.542   4.895 -0.0382 -1.5754  2.0590
   67SAPC  C314 5669   4.745   3.440   5.022  0.0311  0.1345  0.3514
   67SAPC  H14X 5670   4.799   3.343   5.036 -1.5462 -0.5584  2.1490
   67SAPC  H14Y 5671   4.636   3.416   5.027 -0.2258  0.5450 -2.2357
   67SAPC  C315 5672   4.788   3.535   5.138 -0.6190  0.1297 -0.4587
   67SAPC  H15X 5673   4.731   3.628   5.117  1.9756  1.8992 -0.1706
   67SAPC  H15Y 5674   4.897   3.555   5.146 -0.5505 -0.2089 -0.5050
   67SAPC  C316 5675   4.752   3.482   5.277  0.3835 -0.0937  0.2932
   67SAPC  H16X 5676   4.820   3.402   5.313 -1.2379 -0.8766  1.7390
   67SAPC  H16Y 5677   4.653   3.431   5.278  0.3632 -0.0727 -0.2191
   67SAPC  C317 5678   4.734   3.603   5.376 -0.3365  0.3598  0.1225
   67SAPC  H17X 5679   4.689   3.574   5.473 -0.9015  0.9281  0.0396
   67SAPC  H17Y 5680   4.671   3.679   5.324 -0.2827  0.1684 -0.2241
   67SAPC  C318 5681   4.876   3.657   5.416  0.2638  0.2278 -0.0431
   67SAPC  H18X 5682   4.931   3.569   5.457  0.5116  0.8374  0.9521
   67SAPC  H18Y 5683   4.860   3.739   5.489  0.6069  0.7282 -0.5265
   67SAPC  H18Z 5684   4.934   3.700   5.332 -1.1313  1.2224 -0.5387
   68SAPC     N 5685   6.640   2.033   3.156  0.0447  0.0917 -0.0654
   68SAPC   C12 5686   6.594   2.003   3.303  0.0050 -0.2538 -0.3190
   68SAPC  H12A 5687   6.639   1.913   3.343 -0.6568 -1.0719 -1.3738
   68SAPC  H12B 5688   6.495   1.966   3.284  0.4031  0.1791 -4.0829
   68SAPC   C13 5689   6.637   1.905   3.080 -0.5804 -0.2460  0.5786
   68SAPC  H13A 5690   6.670   1.922   2.979 -0.7239  2.6595  0.9444
   68SAPC  H13B 5691   6.717   1.847   3.124  1.5032  2.8462  1.1892
   68SAPC  H13C 5692   6.538   1.862   3.087 -0.2057 -1.3678 -0.7217
   68SAPC   C14 5693   6.538   2.118   3.088  0.6939 -0.0779 -0.4536
   68SAPC  H14A 5694   6.506   2.206   3.142 -2.1433  0.5839 -2.9181
   68SAPC  H14B 5695   6.563   2.143   2.986 -1.2579 -0.9270 -1.2015
   68SAPC  H14C 5696   6.445   2.062   3.086  1.0202 -0.8042  1.7660
   68SAPC   C15 5697   6.770   2.100   3.142 -0.0992 -0.0946  0.4163
   68SAPC  H15A 5698   6.840   2.020   3.162 -1.3464 -0.8118  2.1786
   68SAPC  H15B 5699   6.783   2.140   3.043  1.2627 -0.0286  0.5926
   68SAPC  H15C 5700   6.779   2.179   3.216  0.2234 -0.3677  0.6752
   68SAPC   C11 5701   6.587   2.115   3.411 -0.1734 -1.4815 -0.1750
   68SAPC  H11A 5702   6.688   2.162   3.422 -0.9021 -0.1618  1.3362
   68SAPC  H11B 5703   6.558   2.076   3.511 -0.3805  1.6806  1.1080
   68SAPC     P 5704   6.522   2.369   3.384  0.0616  0.4689 -0.1354
   68SAPC   O13 5705   6.660   2.381   3.438 -0.3233 -0.3902  0.1155
   68SAPC   O14 5706   6.487   2.437   3.256 -0.0854 -0.4104 -0.3887
   68SAPC   O12 5707   6.490   2.210   3.370 -0.2478 -0.2128  0.1850
   68SAPC   O11 5708   6.420   2.413   3.493  0.2686 -0.6698  0.1534
   68SAPC    C1 5709   6.382   2.337   3.602  0.7558  0.3690  0.0934
   68SAPC    HA 5710   6.419   2.232   3.598 -1.0421 -0.3519  1.1012
   68SAPC    HB 5711   6.417   2.377   3.700  1.0884  1.5669 -0.4951
   68SAPC    C2 5712   6.228   2.330   3.623 -0.1992 -1.1747  0.2546
   68SAPC    HS 5713   6.195   2.272   3.535  0.2361  0.2476 -0.8839
   68SAPC   O21 5714   6.172   2.466   3.626  0.1414  0.9327 -0.2973
   68SAPC   C21 5715   6.043   2.459   3.591  0.6243 -0.1510  0.0044
   68SAPC   O22 5716   5.983   2.356   3.560 -0.0319 -0.4893  0.1541
   68SAPC   C22 5717   5.980   2.603   3.593 -0.7909 -0.3617  0.1382
   68SAPC   H2R 5718   6.048   2.670   3.650 -0.0503 -0.9105 -0.0843
   68SAPC   H2S 5719   5.975   2.653   3.494 -1.4255 -0.7146 -0.0125
   68SAPC    C3 5720   6.188   2.246   3.746  0.0169 -0.7654 -0.1463
   68SAPC    HX 5721   6.228   2.142   3.738  1.3222 -0.3030  0.2378
   68SAPC    HY 5722   6.078   2.229   3.744 -0.0354 -0.7982  1.4087
   68SAPC   O31 5723   6.193   2.308   3.879 -1.1485  0.0733  0.5080
   68SAPC   C31 5724   6.290   2.275   3.951 -0.3555 -0.1701  0.0599
   68SAPC   O32 5725   6.390   2.214   3.913 -0.4883  0.2759  0.1670
   68SAPC   C32 5726   6.265   2.355   4.087 -0.1821  0.1046 -0.0756
   68SAPC   H2X 5727   6.160   2.330   4.112 -0.3637  0.5561 -0.3647
   68SAPC   H2Y 5728   6.258   2.463   4.063 -0.7058  0.3593  1.1478
   68SAPC   C23 5729   5.837   2.619   3.645 -0.4457  0.1763 -0.4981
   68SAPC   H3R 5730   5.773   2.536   3.608 -0.4281 -0.3501  0.5947
   68SAPC   H3S 5731   5.795   2.717   3.616  0.2537  0.3852 -0.8146
   68SAPC   C24 5732   5.831   2.618   3.799  0.0586 -0.1581 -0.1549
   68SAPC   H4R 5733   5.883   2.527   3.835 -1.3941 -1.1362 -0.4549
   68SAPC   H4S 5734   5.727   2.597   3.832  0.1167  0.1270  0.2121
   68SAPC   C25 5735   5.885   2.749   3.860 -0.1321 -0.2546  0.1077
   68SAPC   H5R 5736   5.940   2.820   3.796  1.0669 -2.2274 -1.1503
   68SAPC   C26 5737   5.884   2.768   3.996  1.4398  0.1285 -0.5820
   68SAPC   H6R 5738   5.935   2.854   4.040  0.6758 -0.4782  1.6512
   68SAPC   C27 5739   5.818   2.673   4.094 -0.3975 -0.2216 -0.0843
   68SAPC   H7R 5740   5.787   2.578   4.045  0.3624 -0.2842 -0.4636
   68SAPC   H7S 5741   5.723   2.724   4.121  0.0504  1.0995 -0.9111
   68SAPC   C28 5742   5.915   2.646   4.203  0.5117 -0.6537 -0.1045
   68SAPC   H8R 5743   5.983   2.564   4.176  1.2923 -0.0174 -0.1054
   68SAPC   C29 5744   5.914   2.694   4.326  0.1816  0.0670 -0.2374
   68SAPC   H9R 5745   6.004   2.672   4.385 -0.5967 -0.5942  0.7163
   68SAPC  C210 5746   5.821   2.791   4.387 -0.2240 -0.3370 -0.7355
   68SAPC  H10R 5747   5.787   2.873   4.321 -2.7479  0.0325  0.8878
   68SAPC  H10S 5748   5.880   2.839   4.468 -2.1769 -2.4589  2.1594
   68SAPC  C211 5749   5.695   2.742   4.450 -0.0570  1.1612  0.4393
   68SAPC  H11R 5750   5.623   2.722   4.368  1.4202  0.7951 -0.8089
   68SAPC  C212 5751   5.667   2.715   4.578 -0.0918 -0.5271  0.3822
   68SAPC  H12R 5752   5.570   2.668   4.600 -0.6267 -0.8530 -2.3121
   68SAPC  C213 5753   5.751   2.761   4.702  0.6016 -0.2162  0.0210
   68SAPC  H13R 5754   5.731   2.867   4.728  1.1593 -0.5892  2.1188
   68SAPC  H13S 5755   5.861   2.751   4.685  0.6561  0.0562  0.2225
   68SAPC  C214 5756   5.705   2.659   4.807  0.4253 -0.0896  0.0679
   68SAPC  H14R 5757   5.723   2.554   4.778  0.3017  0.0763 -0.6272
   68SAPC  C215 5758   5.666   2.689   4.935  0.0607 -0.1390  0.3742
   68SAPC  H15R 5759   5.635   2.605   4.999  2.0903 -3.2491 -2.3952
   68SAPC  C216 5760   5.662   2.823   4.996 -0.1127 -0.5786 -0.2810
   68SAPC  H16R 5761   5.569   2.878   4.968  0.4987 -0.8336 -3.0663
   68SAPC  H16S 5762   5.745   2.890   4.964  1.7668 -1.2154  2.8915
   68SAPC  C217 5763   5.664   2.809   5.152 -0.1423 -0.7785  0.1402
   68SAPC  H17R 5764   5.759   2.764   5.189  0.5088  1.2091  1.0331
   68SAPC  H17S 5765   5.581   2.739   5.173 -2.3377  1.1594 -1.5620
   68SAPC  C218 5766   5.627   2.941   5.234  0.1334 -0.1614  0.5019
   68SAPC  H18R 5767   5.537   2.990   5.192  2.7378  3.5233 -1.4406
   68SAPC  H18S 5768   5.710   3.014   5.223  0.6768 -0.7365  0.7018
   68SAPC  C219 5769   5.622   2.921   5.387 -0.0528  0.2138 -0.1831
   68SAPC  H19R 5770   5.530   2.869   5.419  1.0950 -2.0653 -0.4077
   68SAPC  H19S 5771   5.609   3.024   5.429 -2.0949  0.1477 -0.5463
   68SAPC  C220 5772   5.751   2.859   5.448  0.0578 -0.5249  0.3104
   68SAPC  H20R 5773   5.762   2.752   5.421 -0.2736 -0.0724 -1.7964
   68SAPC  H20S 5774   5.744   2.870   5.558 -1.0645  0.4711  0.1624
   68SAPC  H20T 5775   5.841   2.911   5.409 -2.0528  1.9757 -1.6619
   68SAPC   C33 5776   6.373   2.307   4.186  0.2683  0.6619 -0.0840
   68SAPC   H3X 5777   6.472   2.334   4.144  0.0393  0.5365 -0.7188
   68SAPC   H3Y 5778   6.385   2.197   4.194  3.3012  0.9318  0.1833
   68SAPC   C34 5779   6.357   2.374   4.327  0.6237  0.1416  0.2259
   68SAPC   H4X 5780   6.346   2.484   4.335 -1.9071 -0.1664  2.0050
   68SAPC   H4Y 5781   6.458   2.348   4.367  1.0664 -1.1361 -1.5497
   68SAPC   C35 5782   6.253   2.296   4.415 -0.4627  0.4306  0.4862
   68SAPC   H5X 5783   6.275   2.187   4.413  0.3115  0.5738  0.9225
   68SAPC   H5Y 5784   6.149   2.311   4.379  0.3314  1.1694 -1.6186
   68SAPC   C36 5785   6.252   2.351   4.558  0.5448  0.8169 -0.8426
   68SAPC   H6X 5786   6.252   2.462   4.555  1.4318  0.9357  1.3956
   68SAPC   H6Y 5787   6.347   2.315   4.605 -0.4196 -2.7747 -1.3795
   68SAPC   C37 5788   6.158   2.277   4.652 -0.1262  0.5243 -0.3080
   68SAPC   H7X 5789   6.179   2.168   4.656 -1.2938  0.2806 -0.4435
   68SAPC   H7Y 5790   6.056   2.275   4.607 -0.1538 -1.3983 -0.2511
   68SAPC   C38 5791   6.156   2.334   4.789  0.4936 -0.8662  0.0100
   68SAPC   H8X 5792   6.111   2.435   4.776  0.7340 -0.5452  1.5192
   68SAPC   H8Y 5793   6.256   2.365   4.825  0.5295 -1.8816  0.8331
   68SAPC   C39 5794   6.075   2.261   4.894  0.3400 -0.3342  0.0068
   68SAPC   H9X 5795   6.138   2.185   4.946  0.1464  0.3026  1.2125
   68SAPC   H9Y 5796   5.983   2.214   4.853  0.0575  0.7292 -0.6145
   68SAPC  C310 5797   6.019   2.351   5.007 -0.1934  0.1275 -0.6804
   68SAPC  H10X 5798   5.937   2.416   4.969  0.2859  0.8327 -0.5222
   68SAPC  H10Y 5799   6.102   2.414   5.045  0.2457 -1.3431  0.9818
   68SAPC  C311 5800   5.977   2.260   5.123 -0.5971 -0.9165 -0.3862
   68SAPC  H11X 5801   6.067   2.204   5.157 -1.4694 -2.2691 -0.2535
   68SAPC  H11Y 5802   5.898   2.190   5.091  0.8496 -2.1285 -1.4335
   68SAPC  C312 5803   5.933   2.350   5.245  0.6166  0.1087  0.6513
   68SAPC  H12X 5804   5.836   2.399   5.224  0.2246 -0.7458  0.4271
   68SAPC  H12Y 5805   6.014   2.420   5.278  1.1336 -0.5132  0.7231
   68SAPC  C313 5806   5.916   2.274   5.379  0.3418 -0.0392  0.1211
   68SAPC  H13X 5807   6.008   2.213   5.393 -0.7811 -1.6257  0.9897
   68SAPC  H13Y 5808   5.826   2.208   5.381 -1.3368  2.1120  0.1845
   68SAPC  C314 5809   5.888   2.373   5.498 -0.5454 -0.3479 -0.5758
   68SAPC  H14X 5810   5.976   2.436   5.520 -1.2707 -0.4667  3.3509
   68SAPC  H14Y 5811   5.868   2.315   5.590 -0.4356  1.1623  0.4400
   68SAPC  C315 5812   5.769   2.468   5.476  0.2646 -0.0656  0.2956
   68SAPC  H15X 5813   5.792   2.532   5.388 -0.6478 -1.9586 -1.4333
   68SAPC  H15Y 5814   5.748   2.520   5.572  0.9178 -2.3364  1.7406
   68SAPC  C316 5815   5.636   2.395   5.448 -0.4084 -0.3679 -0.4796
   68SAPC  H16X 5816   5.632   2.313   5.523  0.4389 -0.4187 -0.4814
   68SAPC  H16Y 5817   5.635   2.359   5.343 -2.5411  1.2440 -1.0787
   68SAPC  C317 5818   5.515   2.480   5.465 -0.1284 -0.0528 -0.6119
   68SAPC  H17X 5819   5.524   2.576   5.411 -0.3830  0.8698  0.9322
   68SAPC  H17Y 5820   5.492   2.506   5.571  2.0943 -1.1528  0.1943
   68SAPC  C318 5821   5.382   2.422   5.408 -0.7980  0.3383  0.0208
   68SAPC  H18X 5822   5.347   2.332   5.463 -0.6771  1.2096  1.5724
   68SAPC  H18Y 5823   5.403   2.410   5.300  0.9264 -0.1373  0.3737
   68SAPC  H18Z 5824   5.297   2.493   5.417  0.2023  1.3834  1.7158
   69SAPC     N 5825   6.801   0.761   3.262  0.7128 -0.6506  0.5129
   69SAPC   C12 5826   6.702   0.836   3.177  0.7271  0.1831 -0.0494
   69SAPC  H12A 5827   6.617   0.770   3.172 -0.3418  1.6127 -2.7971
   69SAPC  H12B 5828   6.738   0.851   3.076  1.6777 -0.0029  0.2521
   69SAPC   C13 5829   6.817   0.625   3.199  0.1873 -0.8159 -0.1001
   69SAPC  H13A 5830   6.876   0.563   3.265  1.3266  0.2975 -0.0197
   69SAPC  H13B 5831   6.722   0.582   3.172 -0.6414  0.4340  0.7628
   69SAPC  H13C 5832   6.867   0.639   3.104 -0.1364  2.1342  0.0895
   69SAPC   C14 5833   6.933   0.824   3.249 -0.1567 -0.0179  1.0930
   69SAPC  H14A 5834   6.935   0.917   3.305 -2.1902 -0.3248  1.7612
   69SAPC  H14B 5835   7.013   0.756   3.275 -3.0123 -3.9873  0.4601
   69SAPC  H14C 5836   6.953   0.842   3.145 -2.0638  0.0021  0.6916
   69SAPC   C15 5837   6.767   0.742   3.407  0.1713  0.9370  0.1614
   69SAPC  H15A 5838   6.767   0.831   3.468  1.6644  0.6428  0.6304
   69SAPC  H15B 5839   6.666   0.703   3.415  0.6889 -0.1169  2.5764
   69SAPC  H15C 5840   6.835   0.677   3.460  0.7435  0.3809 -1.1922
   69SAPC   C11 5841   6.653   0.976   3.240  0.3294  0.0219 -0.2375
   69SAPC  H11A 5842   6.724   1.049   3.196 -0.6096  1.4175  0.5140
   69SAPC  H11B 5843   6.656   0.976   3.351  0.6226  0.0942 -0.2456
   69SAPC     P 5844   6.403   0.911   3.246 -0.2637 -0.5089  0.2991
   69SAPC   O13 5845   6.282   0.987   3.233  0.2662 -0.1958 -0.4854
   69SAPC   O14 5846   6.416   0.779   3.183  0.3641  0.3182  0.2595
   69SAPC   O12 5847   6.520   1.003   3.190  0.5070  0.2563  0.3723
   69SAPC   O11 5848   6.440   0.897   3.395 -0.1963  0.2927 -0.0920
   69SAPC    C1 5849   6.385   0.786   3.471  0.2629 -0.1149  0.0722
   69SAPC    HA 5850   6.352   0.703   3.405  0.7935  1.8815 -2.8799
   69SAPC    HB 5851   6.462   0.741   3.538 -2.1168 -3.5339  0.8280
   69SAPC    C2 5852   6.256   0.830   3.550 -0.3629 -0.4229 -0.5191
   69SAPC    HS 5853   6.193   0.887   3.479 -2.3850  0.5322  1.8639
   69SAPC   O21 5854   6.295   0.920   3.653  0.3331  0.2961 -0.1596
   69SAPC   C21 5855   6.197   1.005   3.688  0.0236 -0.4713  0.6567
   69SAPC   O22 5856   6.104   1.033   3.617 -0.4588 -0.3418  0.4135
   69SAPC   C22 5857   6.205   1.049   3.839 -0.4206 -1.1951  0.3656
   69SAPC   H2R 5858   6.311   1.066   3.868 -1.1022 -0.8631  2.8658
   69SAPC   H2S 5859   6.145   1.142   3.836 -2.2077 -2.2901  0.3785
   69SAPC    C3 5860   6.191   0.699   3.617 -0.5077 -0.6283  0.1201
   69SAPC    HX 5861   6.166   0.632   3.532  0.0692  0.4450 -0.9154
   69SAPC    HY 5862   6.092   0.735   3.650 -0.8963 -1.4717 -0.1044
   69SAPC   O31 5863   6.278   0.637   3.714 -0.1264  0.0451  0.2615
   69SAPC   C31 5864   6.226   0.520   3.768  0.2409  0.6540  0.5858
   69SAPC   O32 5865   6.115   0.478   3.731 -0.3927  0.1968  0.1654
   69SAPC   C32 5866   6.317   0.459   3.874  0.1641  0.0325  0.5657
   69SAPC   H2X 5867   6.424   0.484   3.855  0.2957  0.7929  2.1727
   69SAPC   H2Y 5868   6.308   0.348   3.871  0.7221 -0.0327  1.1216
   69SAPC   C23 5869   6.154   0.938   3.929 -0.4676  0.0812  0.2657
   69SAPC   H3R 5870   6.171   0.984   4.029  0.5218  2.5225 -0.9283
   69SAPC   H3S 5871   6.206   0.841   3.924 -0.5145  0.1010 -0.7476
   69SAPC   C24 5872   6.000   0.916   3.906  0.1083 -0.7551  0.3294
   69SAPC   H4R 5873   5.985   0.903   3.797 -0.3971  0.8982  0.1664
   69SAPC   H4S 5874   5.956   1.010   3.947  2.6498  0.1440  1.1759
   69SAPC   C25 5875   5.938   0.792   3.966  0.0182  0.2734  0.1049
   69SAPC   H5R 5876   5.941   0.700   3.906 -2.0592  0.1908  0.0452
   69SAPC   C26 5877   5.883   0.778   4.086  0.1087 -0.5122  0.0795
   69SAPC   H6R 5878   5.849   0.678   4.116  2.0857 -0.5101  2.7447
   69SAPC   C27 5879   5.865   0.888   4.187 -0.1301  0.2953  0.1544
   69SAPC   H7R 5880   5.908   0.981   4.145 -0.9512  1.1609  1.1901
   69SAPC   H7S 5881   5.932   0.854   4.269 -0.2529 -1.2388 -0.3495
   69SAPC   C28 5882   5.714   0.893   4.226  0.1897  0.3308 -0.1376
   69SAPC   H8R 5883   5.650   0.942   4.151 -1.2126 -3.0390 -1.3226
   69SAPC   C29 5884   5.647   0.844   4.336 -0.3993  0.0286  0.2357
   69SAPC   H9R 5885   5.538   0.858   4.345 -0.9982 -0.1518 -4.4990
   69SAPC  C210 5886   5.711   0.774   4.455  0.0459 -0.5664  0.6562
   69SAPC  H10R 5887   5.803   0.722   4.420 -0.5636 -1.2018 -0.0412
   69SAPC  H10S 5888   5.639   0.694   4.482 -1.0819  0.2310  0.1170
   69SAPC  C211 5889   5.736   0.880   4.557  0.2450 -0.0927 -0.0786
   69SAPC  H11R 5890   5.759   0.984   4.529  1.5282 -0.5635 -0.8384
   69SAPC  C212 5891   5.733   0.843   4.688 -0.2246 -1.2611 -0.5021
   69SAPC  H12R 5892   5.751   0.924   4.759  2.3744 -0.2603 -2.1487
   69SAPC  C213 5893   5.705   0.711   4.754 -0.4517  0.6255 -0.5136
   69SAPC  H13R 5894   5.796   0.647   4.750 -1.0369 -0.6057  2.6998
   69SAPC  H13S 5895   5.626   0.665   4.691 -0.0496  1.0234 -1.3220
   69SAPC  C214 5896   5.645   0.704   4.890 -0.5195  0.4403  0.5125
   69SAPC  H14R 5897   5.544   0.662   4.901 -0.2773 -0.6280 -1.0229
   69SAPC  C215 5898   5.695   0.764   4.995 -0.7032  0.5534  0.1686
   69SAPC  H15R 5899   5.645   0.757   5.093 -2.2661  2.5533 -0.4095
   69SAPC  C216 5900   5.830   0.830   5.011 -0.4486 -0.1921 -0.5656
   69SAPC  H16R 5901   5.831   0.941   5.020  0.3825 -0.0988 -1.5866
   69SAPC  H16S 5902   5.894   0.813   4.922  0.1607 -0.2377 -0.1185
   69SAPC  C217 5903   5.908   0.785   5.140  0.9250 -0.2225 -0.7420
   69SAPC  H17R 5904   6.016   0.809   5.123  0.8578  3.3362  2.4500
   69SAPC  H17S 5905   5.903   0.675   5.152 -0.0614 -0.0973  0.1454
   69SAPC  C218 5906   5.864   0.855   5.270 -0.3595  0.2449 -0.1071
   69SAPC  H18R 5907   5.754   0.845   5.282 -0.3480 -2.6295 -1.3763
   69SAPC  H18S 5908   5.906   0.957   5.259 -0.8625  0.2460 -2.5282
   69SAPC  C219 5909   5.926   0.800   5.406  0.3156  0.2475 -0.3732
   69SAPC  H19R 5910   5.920   0.882   5.481  1.2610  2.6522 -2.7597
   69SAPC  H19S 5911   6.032   0.777   5.384  0.6168  2.0769 -0.9549
   69SAPC  C220 5912   5.858   0.677   5.458  0.2962 -0.1040 -0.3848
   69SAPC  H20R 5913   5.898   0.641   5.556  1.2729 -0.0915 -0.7682
   69SAPC  H20S 5914   5.873   0.595   5.385 -0.2807 -1.0928  0.5765
   69SAPC  H20T 5915   5.750   0.691   5.479  0.5847  0.0793  1.1298
   69SAPC   C33 5916   6.302   0.515   4.017  0.0576 -0.0047 -0.4200
   69SAPC   H3X 5917   6.322   0.624   4.019 -0.7300  0.1605 -0.9573
   69SAPC   H3Y 5918   6.384   0.467   4.075  1.5391  0.9731 -1.6144
   69SAPC   C34 5919   6.178   0.472   4.087  0.0477 -0.1507  0.4046
   69SAPC   H4X 5920   6.145   0.368   4.067 -0.4829 -0.1727  1.3253
   69SAPC   H4Y 5921   6.097   0.532   4.040 -0.9986  0.4667  2.8166
   69SAPC   C35 5922   6.170   0.505   4.238  0.9313 -0.1285 -0.6307
   69SAPC   H5X 5923   6.065   0.497   4.275 -0.4394  2.1085 -3.6148
   69SAPC   H5Y 5924   6.191   0.613   4.255  0.5861 -0.3149  1.2141
   69SAPC   C36 5925   6.270   0.429   4.327  0.2427 -0.0968  0.2919
   69SAPC   H6X 5926   6.374   0.437   4.289  0.6505 -0.1748  1.3783
   69SAPC   H6Y 5927   6.245   0.321   4.316  0.7908 -0.1543 -0.5021
   69SAPC   C37 5928   6.252   0.477   4.474  0.1970 -0.4024  0.4154
   69SAPC   H7X 5929   6.260   0.587   4.468 -1.4488 -0.3129 -1.9477
   69SAPC   H7Y 5930   6.335   0.432   4.532 -0.1893 -0.6431  0.7902
   69SAPC   C38 5931   6.119   0.436   4.540 -0.1995 -0.3727  0.0182
   69SAPC   H8X 5932   6.101   0.329   4.513  2.5226 -0.7916 -0.4253
   69SAPC   H8Y 5933   6.041   0.501   4.494  0.5552  0.8133  0.3863
   69SAPC   C39 5934   6.118   0.453   4.694  0.3148  0.2169 -0.4059
   69SAPC   H9X 5935   6.123   0.563   4.707 -1.1847  0.2595  0.0179
   69SAPC   H9Y 5936   6.211   0.410   4.735  0.4583  0.9105 -0.0024
   69SAPC  C310 5937   5.990   0.395   4.761 -1.2952  0.1622 -0.0121
   69SAPC  H10X 5938   5.992   0.284   4.754 -2.2635  0.2452 -2.7283
   69SAPC  H10Y 5939   5.902   0.432   4.705  0.1382 -0.2660 -2.6839
   69SAPC  C311 5940   5.989   0.421   4.913 -0.0059 -0.8865 -0.8151
   69SAPC  H11X 5941   6.008   0.529   4.931 -0.8282 -0.8135 -0.3501
   69SAPC  H11Y 5942   6.078   0.369   4.954  0.6389 -0.4645 -1.6305
   69SAPC  C312 5943   5.866   0.364   4.984  0.6891  0.1494  0.4905
   69SAPC  H12X 5944   5.776   0.421   4.953  1.2908  1.0968  0.4657
   69SAPC  H12Y 5945   5.881   0.384   5.092  1.4133  2.6132 -0.0019
   69SAPC  C313 5946   5.821   0.221   4.968  0.6953 -0.0008 -0.4261
   69SAPC  H13X 5947   5.809   0.202   4.859  2.4580  0.5601 -0.7447
   69SAPC  H13Y 5948   5.723   0.205   5.019  1.7419  0.1279  1.7387
   69SAPC  C314 5949   5.931   0.133   5.029 -0.4311  0.5703 -0.8531
   69SAPC  H14X 5950   5.960   0.161   5.132  1.1644  0.5747 -1.2840
   69SAPC  H14Y 5951   6.019   0.137   4.961 -0.1877 -1.8045 -0.7340
   69SAPC  C315 5952   5.885  -0.014   5.033  0.1223 -0.4615 -0.0840
   69SAPC  H15X 5953   5.840  -0.032   4.933  1.7932  1.5692 -1.2795
   69SAPC  H15Y 5954   5.811  -0.035   5.113  0.5922  0.1865  0.5233
   69SAPC  C316 5955   5.994  -0.116   5.065  0.2411 -0.3444  0.5586
   69SAPC  H16X 5956   6.071  -0.089   4.989  0.0847 -0.3636  0.3918
   69SAPC  H16Y 5957   5.945  -0.216   5.062 -0.8809  0.2115 -0.1433
   69SAPC  C317 5958   6.057  -0.103   5.207 -0.5111 -0.4667 -0.1608
   69SAPC  H17X 5959   5.974  -0.090   5.280 -1.7937  1.1059 -1.7924
   69SAPC  H17Y 5960   6.131  -0.025   5.232 -0.8935  0.5363 -1.9451
   69SAPC  C318 5961   6.134  -0.228   5.244 -0.3157 -0.4503  0.5483
   69SAPC  H18X 5962   6.225  -0.244   5.183 -0.7431 -1.7917  0.2053
   69SAPC  H18Y 5963   6.072  -0.320   5.233  0.8737 -1.1784 -0.2315
   69SAPC  H18Z 5964   6.149  -0.220   5.354  1.4905 -1.3161  0.3936
   70SAPC     N 5965   2.743   5.007   3.316 -0.8354 -0.1380 -0.0795
   70SAPC   C12 5966   2.606   5.024   3.263 -0.1784 -0.1733 -0.1233
   70SAPC  H12A 5967   2.587   4.954   3.183  1.1414 -0.0090 -0.6139
   70SAPC  H12B 5968   2.607   5.118   3.210  3.3616 -1.5056 -2.8434
   70SAPC   C13 5969   2.764   4.874   3.388  0.8521  0.1730 -0.0422
   70SAPC  H13A 5970   2.767   4.796   3.313 -0.5745  0.0920 -0.0385
   70SAPC  H13B 5971   2.864   4.866   3.429  0.4269  1.4338  1.3387
   70SAPC  H13C 5972   2.687   4.845   3.457  0.6004 -1.6202 -1.0206
   70SAPC   C14 5973   2.847   5.005   3.205 -0.2965  0.0243 -0.2905
   70SAPC  H14A 5974   2.946   5.019   3.247 -0.0854  2.1500 -1.3392
   70SAPC  H14B 5975   2.849   4.913   3.149 -0.7597  0.9529 -1.9152
   70SAPC  H14C 5976   2.838   5.089   3.138 -0.5253  1.8067  1.8487
   70SAPC   C15 5977   2.777   5.113   3.415  0.3687  0.2088 -0.1290
   70SAPC  H15A 5978   2.869   5.097   3.469  0.1600  1.3244  0.5945
   70SAPC  H15B 5979   2.777   5.210   3.369 -1.7823  0.0141 -0.6672
   70SAPC  H15C 5980   2.708   5.113   3.499  0.4199 -1.2981 -0.0528
   70SAPC   C11 5981   2.493   5.017   3.369 -0.6513  0.4171 -0.1342
   70SAPC  H11A 5982   2.501   4.921   3.424  0.1020  0.6667  0.2094
   70SAPC  H11B 5983   2.394   5.015   3.318  0.4098  2.6837 -2.4638
   70SAPC     P 5984   2.451   5.260   3.436 -0.1776  0.0019 -0.1907
   70SAPC   O13 5985   2.474   5.353   3.549 -0.1001 -0.7158 -0.1224
   70SAPC   O14 5986   2.523   5.306   3.315  0.0737  0.2344  0.0358
   70SAPC   O12 5987   2.500   5.117   3.472 -0.6878  0.7443  0.5590
   70SAPC   O11 5988   2.299   5.246   3.408  0.3698  0.2990 -0.0039
   70SAPC    C1 5989   2.198   5.290   3.499  0.0632  0.2110 -0.8590
   70SAPC    HA 5990   2.217   5.395   3.529  0.0185  0.3736 -1.4009
   70SAPC    HB 5991   2.105   5.297   3.439 -0.9652 -0.0511  0.6560
   70SAPC    C2 5992   2.181   5.194   3.620 -0.4751  0.1165 -0.3987
   70SAPC    HS 5993   2.256   5.211   3.700 -1.3076  0.9084  0.2215
   70SAPC   O21 5994   2.194   5.053   3.578  0.7604 -0.2287  0.0144
   70SAPC   C21 5995   2.272   4.977   3.652  0.4588  0.0481 -0.3179
   70SAPC   O22 5996   2.330   5.009   3.753  0.7954  0.3180  0.2160
   70SAPC   C22 5997   2.290   4.837   3.603  0.0759 -0.2193  0.2117
   70SAPC   H2R 5998   2.220   4.822   3.518  1.2311 -3.6382 -0.2844
   70SAPC   H2S 5999   2.396   4.819   3.576  0.6469 -2.4480  3.4556
   70SAPC    C3 6000   2.047   5.215   3.689 -0.9169 -0.0823 -0.6001
   70SAPC    HX 6001   1.971   5.201   3.610 -1.0707 -0.0245 -0.4623
   70SAPC    HY 6002   2.041   5.321   3.721  1.6010  0.8924 -3.0044
   70SAPC   O31 6003   2.018   5.132   3.801  0.0216  0.3080  0.3529
   70SAPC   C31 6004   2.009   5.182   3.922 -0.3758  0.1434 -0.9224
   70SAPC   O32 6005   2.015   5.297   3.958 -0.2658 -0.1807 -0.2212
   70SAPC   C32 6006   1.991   5.057   4.019  0.0750 -0.7250  0.6469
   70SAPC   H2X 6007   2.092   5.016   4.044  0.8598 -0.4770 -1.8853
   70SAPC   H2Y 6008   1.938   4.976   3.965  1.8809 -2.3429  1.1792
   70SAPC   C23 6009   2.248   4.726   3.700 -0.7928  0.2635  0.2355
   70SAPC   H3R 6010   2.310   4.717   3.792  0.0373 -0.1189 -0.3519
   70SAPC   H3S 6011   2.260   4.628   3.648  0.6534 -1.1823  3.0421
   70SAPC   C24 6012   2.096   4.745   3.739 -0.4202 -0.2784 -0.5991
   70SAPC   H4R 6013   2.030   4.756   3.651 -0.1188 -0.0691 -0.7978
   70SAPC   H4S 6014   2.086   4.839   3.798 -1.3407  0.8013 -2.4074
   70SAPC   C25 6015   2.054   4.617   3.803  0.1410  0.8125 -0.3226
   70SAPC   H5R 6016   2.016   4.537   3.737  2.9943 -0.7188 -0.2884
   70SAPC   C26 6017   2.030   4.586   3.930 -0.9553  1.1980  0.0252
   70SAPC   H6R 6018   1.998   4.485   3.959 -0.8527  1.3275  0.6112
   70SAPC   C27 6019   2.061   4.669   4.055  0.9000  0.6267  0.2398
   70SAPC   H7R 6020   1.982   4.663   4.132  0.9137 -0.3067  0.1930
   70SAPC   H7S 6021   2.047   4.775   4.024 -0.7024  0.6463  0.9694
   70SAPC   C28 6022   2.193   4.647   4.112 -0.1816  0.0973  0.0262
   70SAPC   H8R 6023   2.283   4.658   4.051 -0.4575  0.3864 -0.3324
   70SAPC   C29 6024   2.209   4.613   4.244  0.9021 -0.1756 -0.3661
   70SAPC   H9R 6025   2.312   4.604   4.282  0.6002  2.0140  1.1460
   70SAPC  C210 6026   2.100   4.588   4.342 -0.4160 -0.0038 -0.1050
   70SAPC  H10R 6027   2.139   4.526   4.425  2.7343  2.5329  0.5189
   70SAPC  H10S 6028   2.015   4.540   4.289  0.0322 -1.3564  0.3690
   70SAPC  C211 6029   2.055   4.715   4.413 -0.8643 -0.8946  0.7996
   70SAPC  H11R 6030   2.007   4.781   4.339 -1.2628 -2.1856 -0.1340
   70SAPC  C212 6031   2.068   4.755   4.540  0.5600  0.6995 -0.2897
   70SAPC  H12R 6032   2.043   4.859   4.564 -1.5261  0.5302 -1.5209
   70SAPC  C213 6033   2.133   4.670   4.644  0.3284 -0.2410 -0.6362
   70SAPC  H13R 6034   2.173   4.740   4.721 -1.2828  0.1552 -0.1127
   70SAPC  H13S 6035   2.223   4.628   4.595  1.7540  1.0256  0.7669
   70SAPC  C214 6036   2.048   4.557   4.708  0.4757 -0.5324 -0.4980
   70SAPC  H14R 6037   1.939   4.565   4.697  0.4621 -1.5278 -1.2494
   70SAPC  C215 6038   2.098   4.468   4.802 -0.5962  0.6187  0.2956
   70SAPC  H15R 6039   2.031   4.400   4.857 -1.0758  0.3600 -0.5811
   70SAPC  C216 6040   2.244   4.468   4.849 -0.1445 -0.2139 -0.6720
   70SAPC  H16R 6041   2.270   4.548   4.921  0.8918 -0.5307 -0.6844
   70SAPC  H16S 6042   2.308   4.471   4.759  2.8569 -2.9987  1.1295
   70SAPC  C217 6043   2.273   4.338   4.929  0.4765 -0.2624 -0.0322
   70SAPC  H17R 6044   2.200   4.325   5.011 -1.1680  1.6560 -1.1143
   70SAPC  H17S 6045   2.372   4.367   4.971  0.5065 -1.7022  0.9635
   70SAPC  C218 6046   2.267   4.212   4.847  0.3555  0.0603  0.5248
   70SAPC  H18R 6047   2.333   4.237   4.762 -1.3810  2.3013 -0.2696
   70SAPC  H18S 6048   2.162   4.195   4.814  0.8260  0.0686 -1.0810
   70SAPC  C219 6049   2.303   4.087   4.927  0.0668 -0.2479  0.3434
   70SAPC  H19R 6050   2.219   4.077   4.999 -0.3008 -1.7627 -0.2570
   70SAPC  H19S 6051   2.401   4.099   4.978  0.2612 -2.2796  0.5268
   70SAPC  C220 6052   2.308   3.954   4.853 -0.1475 -0.2133  0.9385
   70SAPC  H20R 6053   2.379   3.959   4.768 -1.2457  0.9931  0.0514
   70SAPC  H20S 6054   2.203   3.936   4.820  0.2250  0.1217 -0.5165
   70SAPC  H20T 6055   2.336   3.865   4.913  1.1373  0.1171  0.8599
   70SAPC   C33 6056   1.912   5.081   4.153  0.1003 -1.7295  0.2773
   70SAPC   H3X 6057   1.928   4.994   4.220 -0.1510 -2.1373 -0.1927
   70SAPC   H3Y 6058   1.805   5.092   4.126  0.0788 -1.8302  0.3208
   70SAPC   C34 6059   1.969   5.198   4.234  0.8241  0.7290 -0.0845
   70SAPC   H4X 6060   1.926   5.296   4.206  1.7974  1.0660 -0.4687
   70SAPC   H4Y 6061   2.079   5.205   4.218  1.0653  0.1930  1.2741
   70SAPC   C35 6062   1.941   5.184   4.387 -0.0404 -0.4348 -0.2584
   70SAPC   H5X 6063   1.975   5.083   4.416  1.0203 -0.2062 -0.6631
   70SAPC   H5Y 6064   1.831   5.195   4.401 -0.3001 -0.4788 -2.0509
   70SAPC   C36 6065   2.021   5.289   4.471  0.2511 -0.2192  0.9078
   70SAPC   H6X 6066   1.980   5.390   4.450 -0.2540 -0.5826  0.1116
   70SAPC   H6Y 6067   2.124   5.280   4.429 -0.8596 -1.9664 -1.7230
   70SAPC   C37 6068   2.007   5.273   4.622 -0.0323 -0.9092  0.7390
   70SAPC   H7X 6069   1.905   5.271   4.667 -0.4447  1.4369  0.0147
   70SAPC   H7Y 6070   2.063   5.181   4.651 -0.1401 -0.8093  1.2783
   70SAPC   C38 6071   2.086   5.392   4.675  0.5714 -0.3955  0.2236
   70SAPC   H8X 6072   2.059   5.489   4.626 -2.6128 -1.6906 -0.8146
   70SAPC   H8Y 6073   2.193   5.380   4.645  0.4766 -0.6204 -0.0294
   70SAPC   C39 6074   2.073   5.416   4.819 -0.1999 -0.8619 -0.0657
   70SAPC   H9X 6075   2.112   5.332   4.881  0.3364 -0.2089  0.4925
   70SAPC   H9Y 6076   1.964   5.413   4.837 -0.4815 -0.6282 -1.5719
   70SAPC  C310 6077   2.155   5.548   4.856  0.2362 -0.0798 -0.3250
   70SAPC  H10X 6078   2.117   5.634   4.796 -2.2101 -0.4031  0.6268
   70SAPC  H10Y 6079   2.261   5.531   4.828 -0.8177 -0.8194 -4.4869
   70SAPC  C311 6080   2.132   5.594   4.997  0.0458 -0.3669 -0.2212
   70SAPC  H11X 6081   2.192   5.684   5.019  2.5463 -1.5357 -1.7878
   70SAPC  H11Y 6082   2.162   5.511   5.065  0.9502 -0.3740 -0.6269
   70SAPC  C312 6083   1.976   5.621   5.023  0.0336 -0.2453  0.3594
   70SAPC  H12X 6084   1.904   5.538   5.004 -1.5805  1.8048 -3.7083
   70SAPC  H12Y 6085   1.957   5.706   4.954  0.2519 -1.0031 -0.6692
   70SAPC  C313 6086   1.937   5.669   5.170  0.1197  0.8150  0.1406
   70SAPC  H13X 6087   1.933   5.588   5.246  0.6100  0.2597 -0.4098
   70SAPC  H13Y 6088   1.829   5.696   5.158 -0.9349 -2.0572  2.1321
   70SAPC  C314 6089   1.999   5.799   5.217  0.1283 -0.2246  0.3587
   70SAPC  H14X 6090   2.108   5.784   5.202 -0.2632 -2.0255 -1.0549
   70SAPC  H14Y 6091   1.976   5.825   5.323 -0.3598 -1.9527  0.7020
   70SAPC  C315 6092   1.936   5.915   5.141  0.4086  0.2721  0.2466
   70SAPC  H15X 6093   1.830   5.936   5.166  0.4297  2.4336 -1.1919
   70SAPC  H15Y 6094   1.942   5.891   5.033 -2.0866 -2.0295  0.5092
   70SAPC  C316 6095   2.000   6.052   5.163  0.0120 -0.7449  0.1407
   70SAPC  H16X 6096   1.976   6.094   5.263  1.4664  0.1772  0.1417
   70SAPC  H16Y 6097   1.968   6.120   5.080 -0.5266 -0.0514  0.9062
   70SAPC  C317 6098   2.156   6.050   5.165  0.1479 -0.5708  0.3751
   70SAPC  H17X 6099   2.194   5.985   5.247 -0.9282  0.4017  1.6898
   70SAPC  H17Y 6100   2.193   6.155   5.168  0.0762 -0.5637  1.9077
   70SAPC  C318 6101   2.218   5.993   5.036  0.2683 -0.2502 -0.0468
   70SAPC  H18X 6102   2.236   6.072   4.959  0.6842 -0.3548 -0.0588
   70SAPC  H18Y 6103   2.162   5.909   4.991 -1.3713 -0.0794  1.5834
   70SAPC  H18Z 6104   2.315   5.944   5.059 -0.7471 -1.1072  2.7362
   71SAPC     N 6105   2.784   3.786   2.488 -0.1928 -0.3390 -0.0193
   71SAPC   C12 6106   2.664   3.697   2.509 -1.4345 -0.3313  0.1819
   71SAPC  H12A 6107   2.699   3.602   2.546 -0.5856 -0.0847  0.0571
   71SAPC  H12B 6108   2.618   3.673   2.414 -0.1590 -1.4722 -0.1807
   71SAPC   C13 6109   2.735   3.916   2.443 -0.3156 -0.6606  0.2061
   71SAPC  H13A 6110   2.677   3.961   2.522  0.1105 -1.6050  1.0800
   71SAPC  H13B 6111   2.825   3.973   2.422  1.2405 -3.1198 -0.2474
   71SAPC  H13C 6112   2.671   3.900   2.358  0.6402 -2.4809 -0.2273
   71SAPC   C14 6113   2.870   3.806   2.601 -0.4978 -0.3307  0.5092
   71SAPC  H14A 6114   2.899   3.715   2.650 -0.5883 -0.7148 -0.1398
   71SAPC  H14B 6115   2.966   3.846   2.572 -1.5410  1.6786 -0.4112
   71SAPC  H14C 6116   2.818   3.870   2.671 -0.5330  0.2146 -0.0022
   71SAPC   C15 6117   2.868   3.724   2.376  0.0937  0.3214 -0.5235
   71SAPC  H15A 6118   2.907   3.628   2.406  0.9837  0.8842  0.1597
   71SAPC  H15B 6119   2.827   3.713   2.277 -2.1172 -0.1117  0.3648
   71SAPC  H15C 6120   2.955   3.784   2.355 -0.2796  1.1494  0.2176
   71SAPC   C11 6121   2.563   3.750   2.605  0.2587  0.2515 -0.0907
   71SAPC  H11A 6122   2.532   3.848   2.564  0.3585  0.4117  0.2152
   71SAPC  H11B 6123   2.619   3.761   2.700  1.5206  1.8940 -0.9697
   71SAPC     P 6124   2.395   3.597   2.755 -0.2186 -0.1016 -0.1903
   71SAPC   O13 6125   2.263   3.538   2.755  0.4483  0.2122 -0.4424
   71SAPC   O14 6126   2.510   3.517   2.806  0.0303 -0.3150  0.6286
   71SAPC   O12 6127   2.452   3.656   2.617 -0.3089 -0.2775 -0.0595
   71SAPC   O11 6128   2.388   3.739   2.834 -0.1159  0.6977 -0.4766
   71SAPC    C1 6129   2.307   3.746   2.949  0.9428  0.1327 -0.2377
   71SAPC    HA 6130   2.266   3.848   2.961 -0.1983 -0.4665  1.2515
   71SAPC    HB 6131   2.216   3.682   2.943  0.6563  0.5551 -0.4136
   71SAPC    C2 6132   2.386   3.721   3.076 -1.0102 -0.2493 -0.1820
   71SAPC    HS 6133   2.479   3.781   3.089 -0.6025 -0.8319 -0.3787
   71SAPC   O21 6134   2.424   3.584   3.083  0.8943  0.0860 -0.4040
   71SAPC   C21 6135   2.544   3.554   3.135  0.0173  0.0204  0.0430
   71SAPC   O22 6136   2.631   3.631   3.167  0.4298  0.0364 -0.0099
   71SAPC   C22 6137   2.565   3.404   3.135 -0.1501  0.2222  0.1949
   71SAPC   H2R 6138   2.468   3.353   3.119 -1.0635  1.3832  1.7912
   71SAPC   H2S 6139   2.628   3.386   3.045 -0.8523 -1.7403  0.0335
   71SAPC    C3 6140   2.298   3.751   3.204  0.3185 -0.1278 -0.1029
   71SAPC    HX 6141   2.205   3.691   3.193 -0.6530  1.5526 -1.7552
   71SAPC    HY 6142   2.248   3.851   3.202 -1.6283 -1.0135 -2.6392
   71SAPC   O31 6143   2.362   3.717   3.329  0.2334 -0.1296 -0.4685
   71SAPC   C31 6144   2.400   3.825   3.406  0.0235 -0.1715  0.5122
   71SAPC   O32 6145   2.384   3.941   3.374  0.4418  0.3203 -0.4420
   71SAPC   C32 6146   2.458   3.774   3.541  0.0478  0.7127  0.4456
   71SAPC   H2X 6147   2.525   3.693   3.504 -0.7066  1.0512 -1.8053
   71SAPC   H2Y 6148   2.365   3.740   3.591 -1.1284  2.5730 -0.3589
   71SAPC   C23 6149   2.637   3.342   3.260 -0.3089 -0.2087  0.6835
   71SAPC   H3R 6150   2.747   3.360   3.267 -0.3680  0.0539  0.9606
   71SAPC   H3S 6151   2.621   3.233   3.247  1.0114 -0.2688 -0.7589
   71SAPC   C24 6152   2.575   3.391   3.386  0.3645  0.4259 -0.4038
   71SAPC   H4R 6153   2.467   3.414   3.369  0.7156  1.1040 -1.8212
   71SAPC   H4S 6154   2.626   3.487   3.411  1.0134 -0.0780  0.2461
   71SAPC   C25 6155   2.580   3.299   3.503 -0.4023  0.1225  0.5735
   71SAPC   H5R 6156   2.566   3.195   3.470  3.0593 -0.6011  0.9676
   71SAPC   C26 6157   2.631   3.333   3.625 -0.0641  0.1240  0.4031
   71SAPC   H6R 6158   2.643   3.253   3.701  3.2017  0.2768  0.1768
   71SAPC   C27 6159   2.671   3.468   3.676  0.3251 -0.0581  0.2910
   71SAPC   H7R 6160   2.659   3.548   3.599 -0.9505  1.1278  1.6563
   71SAPC   H7S 6161   2.776   3.457   3.711  0.6033  1.6662  0.1228
   71SAPC   C28 6162   2.587   3.520   3.792 -0.2515  0.4045  0.2838
   71SAPC   H8R 6163   2.478   3.514   3.777 -0.2237 -2.6683  0.7176
   71SAPC   C29 6164   2.623   3.597   3.896  0.2973  0.0560 -0.3014
   71SAPC   H9R 6165   2.545   3.635   3.964 -0.2631 -0.5129 -0.6161
   71SAPC  C210 6166   2.763   3.627   3.938 -0.1722  0.8622 -0.5035
   71SAPC  H10R 6167   2.830   3.562   3.878 -0.3243  0.9540 -0.7784
   71SAPC  H10S 6168   2.778   3.584   4.039 -0.5055  0.7567 -0.4944
   71SAPC  C211 6169   2.803   3.773   3.928  0.2479  0.3817 -0.2428
   71SAPC  H11R 6170   2.826   3.816   3.830  0.2181 -1.0056 -0.8767
   71SAPC  C212 6171   2.787   3.859   4.029  0.5118 -0.6418 -1.0444
   71SAPC  H12R 6172   2.828   3.960   4.012  1.8025 -0.9569 -0.0218
   71SAPC  C213 6173   2.728   3.831   4.165  0.1586 -0.0977 -0.4992
   71SAPC  H13R 6174   2.768   3.914   4.227  1.2695  0.6892 -2.2076
   71SAPC  H13S 6175   2.763   3.734   4.206  0.6080  0.6890  1.0406
   71SAPC  C214 6176   2.576   3.839   4.174  0.5928  0.0071 -0.2649
   71SAPC  H14R 6177   2.525   3.824   4.078 -3.4268 -2.0005  1.9585
   71SAPC  C215 6178   2.505   3.846   4.291  0.1828 -0.5253  0.4204
   71SAPC  H15R 6179   2.396   3.839   4.279  0.1142 -0.2509  0.8833
   71SAPC  C216 6180   2.542   3.880   4.439 -0.5462 -0.4914  0.1424
   71SAPC  H16R 6181   2.489   3.974   4.465 -0.7178 -1.2476  2.8588
   71SAPC  H16S 6182   2.651   3.905   4.443 -0.3030 -0.8307 -2.5901
   71SAPC  C217 6183   2.500   3.777   4.538  0.4546 -0.6366  0.5839
   71SAPC  H17R 6184   2.533   3.826   4.632 -0.3165 -0.2249  0.6463
   71SAPC  H17S 6185   2.547   3.679   4.515  1.3351  0.4666 -2.7572
   71SAPC  C218 6186   2.348   3.752   4.538 -0.0418  0.1746 -0.6499
   71SAPC  H18R 6187   2.321   3.717   4.436 -0.8992  1.1703 -0.7744
   71SAPC  H18S 6188   2.303   3.852   4.555 -0.3572  0.2558 -1.8806
   71SAPC  C219 6189   2.312   3.642   4.642 -0.0323 -0.5394 -0.5117
   71SAPC  H19R 6190   2.358   3.674   4.738 -1.0147 -0.1667 -0.1529
   71SAPC  H19S 6191   2.358   3.543   4.624 -0.5590 -1.0906  1.0582
   71SAPC  C220 6192   2.161   3.630   4.653  0.1422 -0.0289  0.8764
   71SAPC  H20R 6193   2.126   3.589   4.556 -1.4665  3.1000  0.0113
   71SAPC  H20S 6194   2.110   3.727   4.671 -0.5598 -0.6273  2.2001
   71SAPC  H20T 6195   2.135   3.560   4.734  3.0348 -3.9319 -1.2072
   71SAPC   C33 6196   2.540   3.867   3.623  0.4220 -0.0147  0.1990
   71SAPC   H3X 6197   2.616   3.916   3.558  2.4315 -0.8667  1.7907
   71SAPC   H3Y 6198   2.616   3.817   3.687 -0.8464 -0.5438  1.3447
   71SAPC   C34 6199   2.452   3.976   3.685  0.1563  0.0723 -0.2963
   71SAPC   H4X 6200   2.375   4.007   3.610  2.1780  0.3425 -2.3513
   71SAPC   H4Y 6201   2.523   4.060   3.694  1.3095 -0.6901 -1.8454
   71SAPC   C35 6202   2.386   3.956   3.823  0.7276 -0.5527 -0.3608
   71SAPC   H5X 6203   2.466   3.910   3.884  1.0717 -0.0290 -0.4080
   71SAPC   H5Y 6204   2.310   3.876   3.816 -0.2942 -0.1413  3.6519
   71SAPC   C36 6205   2.327   4.080   3.885 -0.2610  0.5897 -0.4212
   71SAPC   H6X 6206   2.252   4.116   3.812 -0.6458  0.5780 -0.0347
   71SAPC   H6Y 6207   2.411   4.152   3.894  1.6174 -1.3689 -1.3496
   71SAPC   C37 6208   2.263   4.052   4.019  0.0800 -0.0751  0.2849
   71SAPC   H7X 6209   2.341   4.010   4.085  0.2585  0.9935  0.7800
   71SAPC   H7Y 6210   2.170   3.992   4.003  0.1654 -0.4514  1.1494
   71SAPC   C38 6211   2.210   4.178   4.074 -0.2059 -0.0910  0.4818
   71SAPC   H8X 6212   2.139   4.226   4.003  1.4768 -0.8646 -1.8586
   71SAPC   H8Y 6213   2.292   4.250   4.093  0.4283 -1.4010  3.1847
   71SAPC   C39 6214   2.132   4.152   4.212 -0.4785 -0.1430  1.1321
   71SAPC   H9X 6215   2.057   4.073   4.188 -0.9398  0.6437 -0.1510
   71SAPC   H9Y 6216   2.081   4.251   4.222  0.7712  1.0331 -2.4986
   71SAPC  C310 6217   2.223   4.120   4.332  0.0828 -0.0526 -0.3752
   71SAPC  H10X 6218   2.309   4.190   4.342 -0.1130  0.0562  0.6627
   71SAPC  H10Y 6219   2.273   4.021   4.321  1.0437  0.2404  0.9753
   71SAPC  C311 6220   2.143   4.128   4.468 -0.1446  0.2174  0.7397
   71SAPC  H11X 6221   2.120   4.235   4.482  0.1586  0.8193 -2.4849
   71SAPC  H11Y 6222   2.217   4.099   4.545  0.8937 -0.1745 -0.3828
   71SAPC  C312 6223   2.012   4.038   4.475 -0.5306  0.1615  0.1013
   71SAPC  H12X 6224   2.027   3.946   4.415  1.8297  1.6937 -1.9053
   71SAPC  H12Y 6225   1.933   4.096   4.423 -0.0570  0.3106 -0.4661
   71SAPC  C313 6226   1.958   4.013   4.621  0.2952 -0.0726 -0.2943
   71SAPC  H13X 6227   1.943   4.106   4.680 -3.6687 -0.0949 -1.0036
   71SAPC  H13Y 6228   2.033   3.957   4.681 -1.0881  0.7967  2.4321
   71SAPC  C314 6229   1.817   3.944   4.622 -0.3760 -0.8971  0.5127
   71SAPC  H14X 6230   1.751   3.984   4.542 -0.4879 -1.0890  0.5079
   71SAPC  H14Y 6231   1.772   3.977   4.719 -0.5503  3.2349 -0.7497
   71SAPC  C315 6232   1.830   3.793   4.609  0.0824  0.2124  0.1221
   71SAPC  H15X 6233   1.899   3.770   4.694  0.9592 -1.1040 -0.9135
   71SAPC  H15Y 6234   1.876   3.773   4.510 -2.1461  1.0136 -1.1488
   71SAPC  C316 6235   1.705   3.700   4.633  0.0734  0.4593 -0.6294
   71SAPC  H16X 6236   1.737   3.594   4.617 -3.2488 -1.3292  2.9564
   71SAPC  H16Y 6237   1.630   3.726   4.556  0.7271 -1.0592 -1.8316
   71SAPC  C317 6238   1.646   3.709   4.775 -0.0055 -0.0032 -0.0077
   71SAPC  H17X 6239   1.560   3.780   4.777 -0.7429 -0.8530  3.0319
   71SAPC  H17Y 6240   1.711   3.757   4.852 -1.6963 -1.0803  2.2111
   71SAPC  C318 6241   1.612   3.577   4.848 -0.7417  0.2442 -0.5738
   71SAPC  H18X 6242   1.567   3.592   4.949  0.8148 -1.9647  0.5384
   71SAPC  H18Y 6243   1.701   3.517   4.877 -0.4549  0.7530 -0.3972
   71SAPC  H18Z 6244   1.551   3.518   4.777 -2.2207  1.0683 -0.0397
   72SAPC     N 6245   0.710   2.236   3.559  0.2386  0.5942 -0.7128
   72SAPC   C12 6246   0.656   2.370   3.607 -0.3221 -0.0820  0.4233
   72SAPC  H12A 6247   0.581   2.404   3.536 -1.3475 -0.6906  1.1988
   72SAPC  H12B 6248   0.733   2.445   3.604 -2.3222  2.2537  2.7842
   72SAPC   C13 6249   0.599   2.135   3.535 -0.2939 -0.4926  0.3424
   72SAPC  H13A 6250   0.535   2.131   3.622 -1.5696  0.9656 -0.4580
   72SAPC  H13B 6251   0.547   2.162   3.444  0.2710 -0.0972  0.1332
   72SAPC  H13C 6252   0.632   2.037   3.505 -0.8328 -0.9263  1.1158
   72SAPC   C14 6253   0.784   2.259   3.440  0.0179  0.1730  0.1336
   72SAPC  H14A 6254   0.868   2.324   3.461 -0.0638  0.4744 -0.4534
   72SAPC  H14B 6255   0.812   2.167   3.391 -0.3183  0.3613 -0.4266
   72SAPC  H14C 6256   0.715   2.311   3.376 -0.9977 -1.9026 -0.5336
   72SAPC   C15 6257   0.786   2.172   3.678 -0.0815 -0.0269  0.5547
   72SAPC  H15A 6258   0.869   2.237   3.701 -0.9015  0.6881  1.5754
   72SAPC  H15B 6259   0.723   2.173   3.765  0.9465  1.2125  1.3263
   72SAPC  H15C 6260   0.823   2.073   3.657  0.3521  0.4713 -1.2930
   72SAPC   C11 6261   0.595   2.373   3.748  0.1679 -0.0449 -0.1017
   72SAPC  H11A 6262   0.566   2.478   3.770  2.0900  0.1414  1.8277
   72SAPC  H11B 6263   0.672   2.345   3.822  1.5523  1.4436 -0.9115
   72SAPC     P 6264   0.347   2.329   3.683 -0.1022  0.8540  0.2268
   72SAPC   O13 6265   0.382   2.376   3.547 -0.3381  0.1236 -0.5479
   72SAPC   O14 6266   0.254   2.211   3.685 -0.3037  0.2592 -0.2031
   72SAPC   O12 6267   0.480   2.292   3.762 -0.1503 -0.1138  0.1234
   72SAPC   O11 6268   0.283   2.443   3.765  0.4526  0.3869 -0.2227
   72SAPC    C1 6269   0.269   2.439   3.910 -0.0094  0.5721  0.5235
   72SAPC    HA 6270   0.163   2.410   3.927 -0.1358  1.2608  0.9636
   72SAPC    HB 6271   0.334   2.366   3.963  2.6723  1.8027 -0.8467
   72SAPC    C2 6272   0.286   2.569   3.992  0.2039  0.5470  1.0557
   72SAPC    HS 6273   0.383   2.613   3.962 -0.4479  0.9999 -0.5220
   72SAPC   O21 6274   0.262   2.544   4.132  0.0673 -0.4332  0.1250
   72SAPC   C21 6275   0.321   2.619   4.216 -0.1065  0.1283 -0.6380
   72SAPC   O22 6276   0.405   2.703   4.200  0.1486 -0.2625 -0.1230
   72SAPC   C22 6277   0.283   2.565   4.367 -0.5685  0.0339 -0.3129
   72SAPC   H2R 6278   0.186   2.609   4.396  0.4622  2.4286 -0.3258
   72SAPC   H2S 6279   0.274   2.454   4.366 -3.7765  0.1742  0.6991
   72SAPC    C3 6280   0.168   2.674   3.946 -0.5165 -0.8516 -0.0187
   72SAPC    HX 6281   0.071   2.628   3.975 -1.0239  0.6831  0.7672
   72SAPC    HY 6282   0.166   2.692   3.836  2.5396  2.7367  0.3283
   72SAPC   O31 6283   0.173   2.798   4.022  0.6760 -0.8174 -0.4545
   72SAPC   C31 6284   0.265   2.883   3.975  0.2030 -0.2765 -0.7337
   72SAPC   O32 6285   0.334   2.876   3.876  0.0669 -0.0105 -0.5657
   72SAPC   C32 6286   0.277   3.004   4.074 -0.2987 -0.0900 -0.3908
   72SAPC   H2X 6287   0.210   2.988   4.161 -1.6151  2.3655 -0.8548
   72SAPC   H2Y 6288   0.234   3.092   4.022 -2.4152 -0.7882  0.0915
   72SAPC   C23 6289   0.394   2.609   4.456  1.2465  0.1320  0.4065
   72SAPC   H3R 6290   0.490   2.580   4.409  0.6333 -0.1057 -0.7216
   72SAPC   H3S 6291   0.378   2.550   4.549  1.0250 -1.2204 -0.4598
   72SAPC   C24 6292   0.392   2.763   4.498  0.4771  1.0025  0.1875
   72SAPC   H4R 6293   0.307   2.783   4.568 -1.0409  1.6613 -1.7381
   72SAPC   H4S 6294   0.357   2.831   4.418 -1.8112  0.2474  0.4832
   72SAPC   C25 6295   0.520   2.815   4.565 -0.1562 -0.0379 -0.1847
   72SAPC   H5R 6296   0.585   2.867   4.493 -1.0753  0.9446 -0.3258
   72SAPC   C26 6297   0.558   2.791   4.694  0.6936 -0.2114 -0.0156
   72SAPC   H6R 6298   0.652   2.838   4.727  0.4651  0.8907 -0.8759
   72SAPC   C27 6299   0.476   2.721   4.800  0.5601 -0.5348 -0.4005
   72SAPC   H7R 6300   0.545   2.681   4.877  1.5523  1.9760  0.1270
   72SAPC   H7S 6301   0.420   2.635   4.758 -2.0013  0.8201  0.0064
   72SAPC   C28 6302   0.374   2.807   4.866 -0.1672 -0.0000  0.5534
   72SAPC   H8R 6303   0.303   2.853   4.796 -0.1259 -1.0139 -0.1679
   72SAPC   C29 6304   0.344   2.805   4.999  0.2188  0.2163 -0.1271
   72SAPC   H9R 6305   0.253   2.856   5.033 -0.0134 -1.1511  1.4431
   72SAPC  C210 6306   0.419   2.734   5.107 -0.0690  0.2334  0.1180
   72SAPC  H10R 6307   0.528   2.720   5.090 -0.4019 -2.4979 -0.1506
   72SAPC  H10S 6308   0.377   2.631   5.105 -2.4107  1.1398 -0.9336
   72SAPC  C211 6309   0.408   2.792   5.245 -0.2027  0.3578  0.9500
   72SAPC  H11R 6310   0.407   2.901   5.256 -1.3068  0.5794 -0.9377
   72SAPC  C212 6311   0.394   2.716   5.356 -0.5998  1.1368 -0.1524
   72SAPC  H12R 6312   0.397   2.768   5.452  0.2075 -1.9081  1.6056
   72SAPC  C213 6313   0.404   2.565   5.372  0.2354  0.1062 -0.0923
   72SAPC  H13R 6314   0.507   2.530   5.392 -0.0049 -0.8345 -0.4270
   72SAPC  H13S 6315   0.370   2.508   5.282 -2.4877  0.1208  0.8399
   72SAPC  C214 6316   0.300   2.533   5.477  0.7180  0.4325  0.7319
   72SAPC  H14R 6317   0.198   2.573   5.466  0.3689 -0.3351  1.1082
   72SAPC  C215 6318   0.314   2.442   5.577  0.2199 -0.1594 -0.6293
   72SAPC  H15R 6319   0.240   2.441   5.659  2.9787  1.2448  2.0848
   72SAPC  C216 6320   0.438   2.372   5.621 -1.2335  1.1118 -0.1149
   72SAPC  H16R 6321   0.521   2.368   5.547 -2.1914  0.2317 -1.1737
   72SAPC  H16S 6322   0.420   2.269   5.657  0.4219  0.2102 -1.7007
   72SAPC  C217 6323   0.494   2.452   5.744 -0.0881  0.4051  0.2493
   72SAPC  H17R 6324   0.487   2.562   5.729  0.2446  0.4655  0.5052
   72SAPC  H17S 6325   0.602   2.425   5.747 -0.3172 -0.5348  0.2273
   72SAPC  C218 6326   0.422   2.423   5.873 -0.0240  0.1140 -0.1082
   72SAPC  H18R 6327   0.409   2.312   5.872  1.8930 -0.1465 -0.0833
   72SAPC  H18S 6328   0.317   2.458   5.885  0.3558  0.9194  1.0084
   72SAPC  C219 6329   0.514   2.468   5.986 -0.1723 -0.6287  0.1626
   72SAPC  H19R 6330   0.546   2.571   5.959  0.0338 -0.7528 -0.0745
   72SAPC  H19S 6331   0.596   2.394   5.987  0.7603  0.3698 -0.1407
   72SAPC  C220 6332   0.455   2.488   6.124 -0.2329  0.6721  0.2928
   72SAPC  H20R 6333   0.544   2.500   6.188  0.8035 -0.9978 -0.7643
   72SAPC  H20S 6334   0.391   2.401   6.151 -0.7537  0.8746 -0.2602
   72SAPC  H20T 6335   0.388   2.577   6.129  0.0849  0.9896 -0.8291
   72SAPC   C33 6336   0.419   3.028   4.117  0.1818  0.0845  0.2037
   72SAPC   H3X 6337   0.480   3.068   4.033 -1.5572  1.5065 -0.4687
   72SAPC   H3Y 6338   0.481   2.944   4.153  0.0408  0.0087  0.2700
   72SAPC   C34 6339   0.421   3.145   4.223  0.4475 -0.1794 -0.3488
   72SAPC   H4X 6340   0.339   3.134   4.297 -0.4366  0.0194 -1.2740
   72SAPC   H4Y 6341   0.386   3.234   4.165  0.5312 -0.6734 -1.1744
   72SAPC   C35 6342   0.552   3.181   4.282 -0.6741  0.0174 -0.4036
   72SAPC   H5X 6343   0.625   3.178   4.199 -0.1117 -0.0148  0.0800
   72SAPC   H5Y 6344   0.583   3.110   4.362 -1.4473  2.1411  1.9027
   72SAPC   C36 6345   0.554   3.324   4.346  0.1791 -0.3705  0.0667
   72SAPC   H6X 6346   0.583   3.400   4.270 -0.2036 -0.4657 -0.1818
   72SAPC   H6Y 6347   0.638   3.328   4.418 -0.3938  1.2751  0.7017
   72SAPC   C37 6348   0.423   3.357   4.425  0.0175  0.2179 -0.0118
   72SAPC   H7X 6349   0.334   3.349   4.360  0.1259  0.5579 -0.2065
   72SAPC   H7Y 6350   0.429   3.467   4.444 -0.6568  0.2195  0.2036
   72SAPC   C38 6351   0.413   3.276   4.558  1.3082  0.9937  0.1119
   72SAPC   H8X 6352   0.412   3.167   4.536 -0.3459  0.4879  2.2970
   72SAPC   H8Y 6353   0.309   3.294   4.593  1.5663 -0.4024  1.7315
   72SAPC   C39 6354   0.511   3.304   4.668 -0.8022  0.6773  0.0516
   72SAPC   H9X 6355   0.509   3.413   4.690 -0.9598  0.8770 -0.9168
   72SAPC   H9Y 6356   0.614   3.270   4.644 -0.4522  1.6280  0.1530
   72SAPC  C310 6357   0.454   3.229   4.792  0.7603 -0.3954 -0.7492
   72SAPC  H10X 6358   0.423   3.129   4.753  2.1724 -1.1217 -0.0719
   72SAPC  H10Y 6359   0.361   3.281   4.823  2.5446  2.4713  0.1215
   72SAPC  C311 6360   0.546   3.208   4.910  0.2749  0.1671  0.2407
   72SAPC  H11X 6361   0.482   3.172   4.993  0.8951  1.8236  1.4795
   72SAPC  H11Y 6362   0.606   3.297   4.937  0.2404  0.1392  0.4119
   72SAPC  C312 6363   0.641   3.092   4.874  0.2635 -0.6875 -0.1579
   72SAPC  H12X 6364   0.708   3.103   4.786  0.3718  2.0490  0.1837
   72SAPC  H12Y 6365   0.586   2.997   4.857  0.8448 -1.5169  2.3159
   72SAPC  C313 6366   0.735   3.064   4.990 -0.2047 -0.6093  0.1552
   72SAPC  H13X 6367   0.669   3.026   5.071  0.3796 -2.1423 -0.0507
   72SAPC  H13Y 6368   0.784   3.158   5.026  0.9785 -1.0834 -0.1681
   72SAPC  C314 6369   0.830   2.943   4.964  0.0423 -0.1271  0.2380
   72SAPC  H14X 6370   0.870   2.950   4.861 -0.1352  0.8624  0.2188
   72SAPC  H14Y 6371   0.768   2.852   4.973 -1.0296  0.6116  0.5557
   72SAPC  C315 6372   0.941   2.918   5.071 -0.7457  0.4985 -0.1322
   72SAPC  H15X 6373   0.879   2.914   5.163  0.6327 -0.1600  0.8095
   72SAPC  H15Y 6374   1.018   2.998   5.076  2.0619 -2.0532  1.2499
   72SAPC  C316 6375   1.017   2.790   5.061  0.4769 -0.0523 -0.0321
   72SAPC  H16X 6376   1.084   2.805   4.974  1.7231  0.8064  1.0281
   72SAPC  H16Y 6377   0.946   2.708   5.040  0.1131 -0.4801  2.5426
   72SAPC  C317 6378   1.110   2.758   5.182  0.1339  0.0581 -0.3472
   72SAPC  H17X 6379   1.063   2.671   5.233 -1.7825  0.8025 -0.7853
   72SAPC  H17Y 6380   1.113   2.836   5.261  3.6836  1.4137 -1.6124
   72SAPC  C318 6381   1.256   2.725   5.127  0.9958 -0.1513 -0.8617
   72SAPC  H18X 6382   1.297   2.817   5.081  0.9640  0.7190  0.7690
   72SAPC  H18Y 6383   1.251   2.644   5.051 -1.4317 -0.4228 -0.4982
   72SAPC  H18Z 6384   1.318   2.699   5.216 -1.4566  2.4372  1.8281
   73SLPC     N 6385   0.364   1.783   7.462  0.1745  0.2150  0.6833
   73SLPC   C13 6386   0.491   1.713   7.483 -0.1486 -0.2337 -0.1672
   73SLPC  H13A 6387   0.530   1.658   7.398  0.8625 -0.4977  0.4493
   73SLPC  H13B 6388   0.563   1.792   7.498  1.3552 -1.2053 -1.8376
   73SLPC  H13C 6389   0.471   1.647   7.566  1.5426  1.3236  1.5544
   73SLPC   C14 6390   0.273   1.699   7.378 -0.2787 -0.5595  0.5863
   73SLPC  H14A 6391   0.311   1.702   7.277  0.0444  1.3805  0.7218
   73SLPC  H14B 6392   0.272   1.600   7.422  0.6647 -0.5160  0.7245
   73SLPC  H14C 6393   0.172   1.736   7.375  0.0465  0.3772 -2.5150
   73SLPC   C15 6394   0.400   1.907   7.387  0.0974 -0.1405  0.1797
   73SLPC  H15A 6395   0.461   1.965   7.456  0.5382 -1.1046  0.6106
   73SLPC  H15B 6396   0.457   1.878   7.301  2.0291  0.6210  1.1394
   73SLPC  H15C 6397   0.313   1.964   7.357 -0.8691 -1.3298  0.6353
   73SLPC   C12 6398   0.300   1.811   7.591  0.9299 -0.5919 -0.2960
   73SLPC  H12A 6399   0.210   1.869   7.577 -0.0111 -1.3757  2.0208
   73SLPC  H12B 6400   0.368   1.865   7.656 -0.5946  0.0079  0.8620
   73SLPC   C11 6401   0.251   1.688   7.671  0.3286  0.1541 -0.5730
   73SLPC  H11A 6402   0.172   1.645   7.606  1.1656 -0.8872 -0.9257
   73SLPC  H11B 6403   0.210   1.719   7.770  1.7328 -2.4858  0.9432
   73SLPC     P 6404   0.328   1.439   7.706  0.0386  0.4583 -0.4263
   73SLPC   O13 6405   0.451   1.359   7.715  0.1873  0.0086  0.0035
   73SLPC   O14 6406   0.221   1.396   7.802 -0.5064 -0.2531 -0.1044
   73SLPC   O12 6407   0.366   1.596   7.703  0.1555 -0.0950 -0.5164
   73SLPC   O11 6408   0.277   1.411   7.564 -0.4088  0.3720  0.5798
   73SLPC    C1 6409   0.140   1.392   7.529  0.1534  0.7811 -0.2029
   73SLPC    HA 6410   0.074   1.392   7.619  1.4781  0.1035  0.8039
   73SLPC    HB 6411   0.107   1.482   7.472  0.4003 -0.2584 -2.0706
   73SLPC    C2 6412   0.102   1.270   7.441 -0.4502 -0.1228  0.5593
   73SLPC    HS 6413   0.158   1.182   7.479  0.7693  0.7659  0.8633
   73SLPC   O21 6414   0.133   1.307   7.309 -0.3178  0.1370  0.1959
   73SLPC   C21 6415   0.148   1.213   7.217 -0.0426  0.0095 -0.6690
   73SLPC   O22 6416   0.146   1.093   7.234 -0.1433 -0.2113  0.7178
   73SLPC   C22 6417   0.171   1.290   7.089 -0.3823  0.1878  0.1762
   73SLPC   H2R 6418   0.136   1.395   7.101  1.6987  0.6071  4.1347
   73SLPC   H2S 6419   0.280   1.310   7.079 -0.6133  1.5346  0.2181
   73SLPC    C3 6420  -0.054   1.248   7.456 -0.1459  0.0186 -0.4085
   73SLPC    HX 6421  -0.086   1.354   7.446  1.9306  0.5540 -2.0118
   73SLPC    HY 6422  -0.069   1.213   7.560  0.1983 -0.7020 -0.5935
   73SLPC   O31 6423  -0.118   1.171   7.350  0.0038 -0.3601  0.5994
   73SLPC   C31 6424  -0.097   1.041   7.374 -0.1492  0.5786 -0.8435
   73SLPC   O32 6425  -0.055   0.997   7.481  0.0847 -0.0206 -0.7481
   73SLPC   C32 6426  -0.133   0.959   7.247 -0.1958  0.5468  0.3811
   73SLPC   H2X 6427  -0.090   1.010   7.158 -0.8196 -2.0912 -1.5372
   73SLPC   H2Y 6428  -0.241   0.942   7.227 -0.3446  0.2739  1.3608
   73SLPC   C23 6429   0.114   1.220   6.960 -0.9152 -0.4010 -0.5604
   73SLPC   H3R 6430   0.130   1.297   6.882  1.8198  0.5149  0.7686
   73SLPC   H3S 6431   0.006   1.197   6.977 -1.2467  1.7134  0.4440
   73SLPC   C24 6432   0.196   1.097   6.924 -0.3842  1.0096 -0.3638
   73SLPC   H4R 6433   0.200   1.027   7.009 -0.9941  0.0765 -1.0880
   73SLPC   H4S 6434   0.299   1.135   6.904  0.3902 -0.8608 -0.1474
   73SLPC   C25 6435   0.149   1.017   6.800  0.7727  0.0121 -0.0650
   73SLPC   H5R 6436   0.066   0.957   6.845  2.1023 -1.3731  0.6310
   73SLPC   H5S 6437   0.226   0.945   6.767 -0.5781 -0.2744 -2.9096
   73SLPC   C26 6438   0.087   1.083   6.682 -0.4782  0.3129 -1.0117
   73SLPC   H6R 6439   0.168   1.139   6.631  1.3712 -1.7586 -0.5387
   73SLPC   H6S 6440   0.009   1.158   6.703  0.8733  1.1784  1.3271
   73SLPC   C27 6441   0.034   0.976   6.583 -0.4380 -0.7737 -0.3189
   73SLPC   H7R 6442  -0.052   0.920   6.628 -1.7148 -1.1501 -3.0414
   73SLPC   H7S 6443   0.109   0.900   6.553 -1.9252 -1.6829 -1.9561
   73SLPC   C28 6444  -0.039   1.036   6.463 -0.8637  0.4112 -0.4537
   73SLPC   H8R 6445  -0.127   1.097   6.493 -0.9434  0.2057 -0.2628
   73SLPC   H8S 6446  -0.071   0.947   6.405 -1.9456  0.9746 -0.7603
   73SLPC   C29 6447   0.053   1.119   6.371  0.2030  0.5198  0.0577
   73SLPC   H9R 6448   0.095   1.213   6.410  0.6468  0.3115  0.0942
   73SLPC  C210 6449   0.084   1.092   6.248  0.2014 -0.0970  0.5340
   73SLPC  H10R 6450   0.153   1.152   6.187 -0.5490 -1.9164 -2.3274
   73SLPC  C211 6451   0.052   0.967   6.164 -0.0362  0.1053 -0.8835
   73SLPC  H11R 6452  -0.011   0.892   6.217  0.1139  0.1292 -0.6701
   73SLPC  H11S 6453   0.150   0.916   6.157  1.0269  1.5970  1.6390
   73SLPC  C212 6454  -0.024   1.000   6.039 -0.6321  0.2470  0.9420
   73SLPC  H12R 6455  -0.109   1.069   6.052  0.2400  1.3262  1.0637
   73SLPC  C213 6456   0.016   0.962   5.912 -0.2992  0.0018  0.0704
   73SLPC  H13R 6457  -0.045   0.996   5.827  0.2809  0.3121 -0.2246
   73SLPC  C214 6458   0.133   0.872   5.881  0.1758 -0.1954 -0.4237
   73SLPC  H14R 6459   0.096   0.794   5.810 -2.0228  2.1869 -2.1075
   73SLPC  H14S 6460   0.168   0.826   5.975  0.5287  0.4829 -0.2224
   73SLPC  C215 6461   0.257   0.944   5.824  0.4965  0.0336  0.4780
   73SLPC  H15R 6462   0.237   0.991   5.725 -3.1786 -0.5571  0.8073
   73SLPC  H15S 6463   0.342   0.879   5.794 -0.9985 -1.0627 -1.6902
   73SLPC  C216 6464   0.314   1.051   5.922 -0.2788  0.8519 -0.2947
   73SLPC  H16R 6465   0.312   0.987   6.013  2.5770  0.8542 -0.1584
   73SLPC  H16S 6466   0.246   1.139   5.923  0.4334  1.4085 -0.7677
   73SLPC  C217 6467   0.454   1.102   5.890 -0.2742  0.9394 -0.3944
   73SLPC  H17R 6468   0.469   1.158   5.795 -1.5894  1.2515 -0.4312
   73SLPC  H17S 6469   0.522   1.014   5.886 -1.0910  0.2718  0.0962
   73SLPC  C218 6470   0.503   1.182   6.008  0.5420  0.1516  0.6703
   73SLPC  H18R 6471   0.421   1.243   6.051 -0.1443 -0.4651  0.2616
   73SLPC  H18S 6472   0.588   1.243   5.971  0.4963 -0.3360 -0.2855
   73SLPC  H18T 6473   0.524   1.116   6.095 -0.5008  1.1221  1.6919
   73SLPC   C33 6474  -0.076   0.815   7.237  0.1563 -0.6870  0.2977
   73SLPC   H3X 6475  -0.135   0.742   7.295  0.1937  0.6204  2.0740
   73SLPC   H3Y 6476   0.024   0.812   7.285  0.8206  1.8848 -0.7296
   73SLPC   C34 6477  -0.064   0.763   7.095  0.0197  0.1538  0.8387
   73SLPC   H4X 6478   0.039   0.797   7.074  0.4163  0.0474  2.4264
   73SLPC   H4Y 6479  -0.142   0.804   7.027 -0.1629  0.8397  1.4539
   73SLPC   C35 6480  -0.071   0.608   7.092  0.0331 -0.0251  0.0851
   73SLPC   H5X 6481  -0.179   0.583   7.098  0.1521 -0.7907 -0.7425
   73SLPC   H5Y 6482  -0.020   0.561   7.179  2.2890  0.9868 -0.6228
   73SLPC   C36 6483  -0.018   0.536   6.966 -0.3056 -0.4239 -0.2356
   73SLPC   H6X 6484  -0.050   0.430   6.966 -1.4322 -0.0916 -0.3294
   73SLPC   H6Y 6485   0.093   0.538   6.957 -0.2728 -1.0621 -0.0126
   73SLPC   C37 6486  -0.069   0.600   6.845  0.0278  0.3762  0.8041
   73SLPC   H7X 6487  -0.053   0.710   6.847 -0.2575  0.4235  0.6956
   73SLPC   H7Y 6488  -0.179   0.591   6.857  0.2650 -0.6883  2.5215
   73SLPC   C38 6489  -0.039   0.528   6.715 -0.0630 -0.9261 -0.3522
   73SLPC   H8X 6490  -0.079   0.424   6.716  0.7986 -1.3595 -2.8582
   73SLPC   H8Y 6491   0.069   0.515   6.690 -0.8504 -1.8420 -3.8511
   73SLPC   C39 6492  -0.113   0.602   6.598 -0.0074 -0.0437 -0.2277
   73SLPC   H9X 6493  -0.092   0.711   6.604  0.1230 -0.0968  0.3035
   73SLPC   H9Y 6494  -0.220   0.573   6.600  0.1866 -0.7673  2.0454
   73SLPC  C310 6495  -0.052   0.555   6.460 -0.3054  0.0118 -0.0810
   73SLPC  H10X 6496  -0.064   0.445   6.451  2.1568 -0.2047 -1.7220
   73SLPC  H10Y 6497   0.057   0.572   6.468 -0.3578  0.2036  0.2856
   73SLPC  C311 6498  -0.120   0.608   6.337 -0.2254 -0.5925  0.3067
   73SLPC  H11X 6499  -0.102   0.717   6.323 -0.1612 -0.5534  0.6726
   73SLPC  H11Y 6500  -0.229   0.597   6.353 -0.0450  0.4455  2.5584
   73SLPC  C312 6501  -0.067   0.543   6.207  0.4357  0.7588 -0.7595
   73SLPC  H12X 6502  -0.044   0.436   6.227 -1.5780  0.2216 -1.1352
   73SLPC  H12Y 6503   0.022   0.599   6.172  0.4396  2.6732  1.9872
   73SLPC  C313 6504  -0.174   0.542   6.095 -0.2828  0.2788  0.2151
   73SLPC  H13X 6505  -0.206   0.649   6.094  3.9085  1.7295  0.7498
   73SLPC  H13Y 6506  -0.261   0.473   6.102 -1.2089  1.2889 -0.8106
   73SLPC  C314 6507  -0.110   0.503   5.959  0.2019  0.4208 -0.3266
   73SLPC  H14X 6508  -0.063   0.404   5.975  1.4936  1.2462  1.3898
   73SLPC  H14Y 6509  -0.047   0.593   5.943 -0.8246  1.5825  1.7236
   73SLPC  C315 6510  -0.208   0.494   5.843  0.1860  0.5968 -0.0225
   73SLPC  H15X 6511  -0.154   0.483   5.746  0.7014  0.0994  0.3173
   73SLPC  H15Y 6512  -0.279   0.579   5.841 -1.0579 -0.3859 -2.6797
   73SLPC  C316 6513  -0.296   0.365   5.856 -0.2271 -0.1941 -0.3950
   73SLPC  H16X 6514  -0.364   0.357   5.944  0.8082 -0.8460  0.3634
   73SLPC  H16Y 6515  -0.229   0.277   5.862 -3.6907 -3.0502 -0.1963
   73SLPC  C317 6516  -0.390   0.348   5.735 -0.2409 -0.0119 -0.1945
   73SLPC  H17X 6517  -0.428   0.244   5.737 -1.2509  0.3575  0.6476
   73SLPC  H17Y 6518  -0.341   0.374   5.639 -0.4864  2.0929  0.2077
   73SLPC  C318 6519  -0.507   0.445   5.736  0.3195  0.3214  0.5613
   73SLPC  H18X 6520  -0.573   0.447   5.647 -0.0428  2.0170  0.8281
   73SLPC  H18Y 6521  -0.480   0.552   5.753  0.7737  0.6363 -1.8453
   73SLPC  H18Z 6522  -0.572   0.413   5.821  1.2989  0.4778  1.3824
   74SLPC     N 6523   6.312   6.957   8.220  0.3883  0.3689 -0.5038
   74SLPC   C13 6524   6.409   6.858   8.187 -0.5785  0.0332 -0.0084
   74SLPC  H13A 6525   6.484   6.887   8.114  0.1675 -0.8243  0.4020
   74SLPC  H13B 6526   6.463   6.835   8.277  2.4447  2.4046 -1.0319
   74SLPC  H13C 6527   6.365   6.765   8.154  0.6238 -0.1805 -1.1154
   74SLPC   C14 6528   6.385   7.083   8.262  0.0600 -0.4692  0.2644
   74SLPC  H14A 6529   6.445   7.072   8.351  2.2516  2.6500 -0.6664
   74SLPC  H14B 6530   6.454   7.107   8.182  0.3606 -3.3589 -0.4456
   74SLPC  H14C 6531   6.320   7.170   8.271 -1.9208 -1.9482  1.1678
   74SLPC   C15 6532   6.234   6.923   8.338  0.9505  0.3091  0.1910
   74SLPC  H15A 6533   6.167   7.002   8.371 -0.0077 -0.6798  0.6539
   74SLPC  H15B 6534   6.186   6.829   8.316  3.0821 -0.0871 -3.6932
   74SLPC  H15C 6535   6.282   6.901   8.432 -0.4873  0.7891  1.0628
   74SLPC   C12 6536   6.228   6.993   8.105  0.8576  0.5285  0.3438
   74SLPC  H12A 6537   6.285   7.027   8.020 -2.7706 -0.8154 -2.9013
   74SLPC  H12B 6538   6.169   7.079   8.133 -1.1642 -0.3052 -1.1010
   74SLPC   C11 6539   6.133   6.889   8.041 -0.3835  0.1534 -0.1595
   74SLPC  H11A 6540   6.092   6.934   7.949 -0.7436 -0.9182 -0.5387
   74SLPC  H11B 6541   6.044   6.874   8.106 -0.2218 -1.4074 -0.2483
   74SLPC     P 6542   6.103   6.645   7.985 -0.0759  0.2990  0.7679
   74SLPC   O13 6543   6.081   6.564   8.107 -0.2113  0.1254  0.1022
   74SLPC   O14 6544   5.978   6.687   7.911 -0.2821 -0.0512 -0.1316
   74SLPC   O12 6545   6.202   6.764   8.018  0.0574 -0.1945 -0.5121
   74SLPC   O11 6546   6.187   6.558   7.888 -0.3350  0.3301  0.8338
   74SLPC    C1 6547   6.197   6.592   7.745 -0.6056 -0.1328 -0.0877
   74SLPC    HA 6548   6.203   6.702   7.731  1.7341 -0.4202 -2.1954
   74SLPC    HB 6549   6.290   6.542   7.710 -0.2916  0.4737 -0.1414
   74SLPC    C2 6550   6.078   6.539   7.650 -0.2315 -0.9837  0.1198
   74SLPC    HS 6551   5.988   6.590   7.690  0.8619  1.3975 -0.2830
   74SLPC   O21 6552   6.077   6.393   7.647 -0.6024 -0.0682  0.3168
   74SLPC   C21 6553   5.963   6.338   7.611  0.2901  0.0053  0.1325
   74SLPC   O22 6554   5.853   6.395   7.622 -0.3771  0.2843  0.3237
   74SLPC   C22 6555   5.993   6.199   7.572 -0.0247 -0.1958 -0.1997
   74SLPC   H2R 6556   6.081   6.197   7.504 -0.5155 -0.2448 -0.8535
   74SLPC   H2S 6557   6.008   6.140   7.665  0.3488  0.1175 -0.0602
   74SLPC    C3 6558   6.100   6.590   7.505 -0.3047 -0.2641  0.1664
   74SLPC    HX 6559   6.182   6.537   7.453  0.8677  2.0334 -0.4823
   74SLPC    HY 6560   6.134   6.696   7.511  0.5250 -0.5012 -0.1957
   74SLPC   O31 6561   5.987   6.567   7.426  0.1080  0.9372 -0.2926
   74SLPC   C31 6562   5.949   6.665   7.344  0.8423  0.1790 -0.4770
   74SLPC   O32 6563   5.991   6.778   7.340  0.2781  0.4727  0.2927
   74SLPC   C32 6564   5.843   6.606   7.256  0.6190 -0.5503  0.3466
   74SLPC   H2X 6565   5.753   6.594   7.320  0.4003  0.8685  0.3405
   74SLPC   H2Y 6566   5.879   6.507   7.221 -2.7751 -1.5634 -0.6585
   74SLPC   C23 6567   5.883   6.126   7.490  0.3366 -0.4836 -0.1810
   74SLPC   H3R 6568   5.795   6.192   7.475  0.7692  0.2983  0.6412
   74SLPC   H3S 6569   5.839   6.052   7.561  1.1345  1.8519  2.9558
   74SLPC   C24 6570   5.936   6.063   7.357 -0.1814 -0.3154  0.0066
   74SLPC   H4R 6571   5.855   5.993   7.327 -1.5620  0.7794  1.0309
   74SLPC   H4S 6572   6.025   5.997   7.365  1.2325  1.5047 -0.1073
   74SLPC   C25 6573   5.968   6.175   7.254  0.1850 -0.4701 -0.5361
   74SLPC   H5R 6574   6.019   6.261   7.301 -1.0802  0.3542 -0.6151
   74SLPC   H5S 6575   5.870   6.211   7.215  0.2307  1.0826  0.7157
   74SLPC   C26 6576   6.067   6.125   7.148  0.4072 -0.0977 -0.5262
   74SLPC   H6R 6577   6.030   6.029   7.104  0.4385 -0.7560  0.8338
   74SLPC   H6S 6578   6.158   6.091   7.202 -0.9643 -1.5411  1.0261
   74SLPC   C27 6579   6.113   6.224   7.043  0.3086  0.6453  0.2557
   74SLPC   H7R 6580   6.200   6.177   6.992 -1.1475  0.5784 -2.3889
   74SLPC   H7S 6581   6.140   6.321   7.089 -1.3196  0.1171  2.4922
   74SLPC   C28 6582   5.995   6.261   6.942  0.7734 -0.2576  0.1930
   74SLPC   H8R 6583   6.033   6.303   6.847  1.9964  1.7733  1.4931
   74SLPC   H8S 6584   5.924   6.337   6.981  0.5539 -1.6548  2.8269
   74SLPC   C29 6585   5.908   6.139   6.917  0.1859  0.6218 -0.2863
   74SLPC   H9R 6586   5.856   6.104   7.008 -0.3338  2.1964  0.0449
   74SLPC  C210 6587   5.878   6.073   6.804  0.3081  0.7349  0.4792
   74SLPC  H10R 6588   5.812   5.986   6.814  0.7121  0.5035  1.1695
   74SLPC  C211 6589   5.933   6.093   6.661  0.2691  0.1928  0.2319
   74SLPC  H11R 6590   6.020   6.032   6.628 -1.4339 -2.4625  0.3430
   74SLPC  H11S 6591   5.968   6.198   6.658 -0.5557  0.4562 -0.4566
   74SLPC  C212 6592   5.830   6.073   6.553  0.2472  0.5632  0.4599
   74SLPC  H12R 6593   5.785   6.163   6.509 -0.8991  0.2011  0.8639
   74SLPC  C213 6594   5.793   5.957   6.495  0.9928 -0.0105 -0.1253
   74SLPC  H13R 6595   5.719   5.954   6.414 -0.9760 -0.6476  1.6294
   74SLPC  C214 6596   5.840   5.823   6.544  0.0739 -1.0704 -0.2909
   74SLPC  H14R 6597   5.758   5.748   6.541 -1.0954 -0.3261  4.5121
   74SLPC  H14S 6598   5.881   5.832   6.646  0.8071  2.6094 -0.7694
   74SLPC  C215 6599   5.956   5.790   6.448  0.0170 -0.3483 -0.0459
   74SLPC  H15R 6600   6.007   5.700   6.488 -0.0512 -0.3392  0.0585
   74SLPC  H15S 6601   6.029   5.873   6.463 -0.7580  0.2692  0.3268
   74SLPC  C216 6602   5.910   5.752   6.307  0.0095 -0.5383  0.4642
   74SLPC  H16R 6603   5.831   5.820   6.269  0.2651  0.4070  1.5489
   74SLPC  H16S 6604   5.872   5.648   6.306 -2.6511  0.3575  0.6701
   74SLPC  C217 6605   6.030   5.771   6.214 -0.5337 -0.3798  0.2026
   74SLPC  H17R 6606   6.104   5.698   6.251 -0.0226  0.1370  0.2070
   74SLPC  H17S 6607   6.074   5.871   6.233  0.4100 -0.5865 -0.8348
   74SLPC  C218 6608   6.003   5.738   6.064 -0.0708 -0.1688 -0.0816
   74SLPC  H18R 6609   5.971   5.835   6.021  1.0714 -0.5284 -1.8628
   74SLPC  H18S 6610   5.925   5.660   6.061  1.6074 -1.9871  1.0029
   74SLPC  H18T 6611   6.097   5.699   6.018 -1.0914 -1.5848 -1.0735
   74SLPC   C33 6612   5.828   6.684   7.117 -0.0290 -0.2850  0.9072
   74SLPC   H3X 6613   5.809   6.792   7.129  1.7467  0.1292  0.2155
   74SLPC   H3Y 6614   5.748   6.648   7.049  1.2446 -1.1581 -0.1749
   74SLPC   C34 6615   5.964   6.661   7.033  0.3186 -0.8635 -0.4376
   74SLPC   H4X 6616   5.990   6.554   7.023  0.7709 -0.7610 -0.3574
   74SLPC   H4Y 6617   6.044   6.714   7.088  0.1048  2.2379 -2.8685
   74SLPC   C35 6618   5.953   6.718   6.885  0.0888  0.4221  0.4959
   74SLPC   H5X 6619   6.050   6.742   6.836 -1.5442  2.1103 -2.1725
   74SLPC   H5Y 6620   5.902   6.816   6.884 -1.7497 -0.4928  0.7265
   74SLPC   C36 6621   5.875   6.623   6.798 -0.7143 -0.3559 -0.0179
   74SLPC   H6X 6622   5.785   6.592   6.856 -0.4673  1.3624  1.3355
   74SLPC   H6Y 6623   5.944   6.540   6.772 -0.5807 -0.0037 -0.8125
   74SLPC   C37 6624   5.834   6.694   6.668  0.5180 -0.2789  0.0028
   74SLPC   H7X 6625   5.918   6.754   6.626  1.1336  0.2152  1.8398
   74SLPC   H7Y 6626   5.770   6.780   6.698  1.2512 -0.4454  2.1922
   74SLPC   C38 6627   5.764   6.613   6.560 -0.0314 -0.1626 -0.3188
   74SLPC   H8X 6628   5.727   6.674   6.475  2.5466  0.9635 -0.7224
   74SLPC   H8Y 6629   5.684   6.556   6.611 -0.8278  0.7877 -0.4876
   74SLPC   C39 6630   5.864   6.520   6.484 -0.4440 -0.5745 -0.2851
   74SLPC   H9X 6631   5.899   6.440   6.552  3.5070  1.3504  0.2442
   74SLPC   H9Y 6632   5.950   6.588   6.466 -1.7663  1.3682  0.4367
   74SLPC  C310 6633   5.823   6.462   6.350  0.2451  0.0350 -0.3295
   74SLPC  H10X 6634   5.814   6.553   6.285 -1.6110  1.9252  2.3660
   74SLPC  H10Y 6635   5.733   6.397   6.347  1.0967 -1.1677 -0.5554
   74SLPC  C311 6636   5.934   6.376   6.292 -0.2819  0.2594 -0.5313
   74SLPC  H11X 6637   5.938   6.283   6.353 -1.6990 -0.8392 -2.0260
   74SLPC  H11Y 6638   6.029   6.432   6.298  0.3221 -0.8159  0.2798
   74SLPC  C312 6639   5.909   6.315   6.154 -0.7633  0.0698  0.0907
   74SLPC  H12X 6640   5.933   6.393   6.079 -0.0379 -0.8585 -0.6712
   74SLPC  H12Y 6641   5.801   6.292   6.141 -0.3214 -2.3887  0.3251
   74SLPC  C313 6642   6.003   6.190   6.136 -0.2284 -0.0417  0.1001
   74SLPC  H13X 6643   5.959   6.098   6.179 -2.1259  1.0895  0.6861
   74SLPC  H13Y 6644   6.099   6.221   6.184 -0.0054  2.8959 -1.9928
   74SLPC  C314 6645   6.042   6.170   5.992 -0.7199 -0.8595 -0.1178
   74SLPC  H14X 6646   6.052   6.267   5.939 -1.4905 -0.1190  1.0586
   74SLPC  H14Y 6647   5.965   6.114   5.934 -1.8488  1.0399 -0.5426
   74SLPC  C315 6648   6.171   6.090   5.983 -0.3724  0.0046  0.1846
   74SLPC  H15X 6649   6.159   5.984   6.013  2.1089  0.5070  3.6299
   74SLPC  H15Y 6650   6.258   6.135   6.035  1.0825  0.4646 -2.5077
   74SLPC  C316 6651   6.214   6.073   5.833  0.1705 -0.1021 -0.5596
   74SLPC  H16X 6652   6.231   6.173   5.787  1.7167  0.6222  1.4438
   74SLPC  H16Y 6653   6.121   6.027   5.792 -0.2593  0.5886 -0.3740
   74SLPC  C317 6654   6.333   5.980   5.811  0.6601 -0.1295  0.0534
   74SLPC  H17X 6655   6.331   5.941   5.707  2.1813 -0.4047  0.1060
   74SLPC  H17Y 6656   6.329   5.887   5.871  2.3817 -1.9055 -2.3877
   74SLPC  C318 6657   6.467   6.050   5.837 -0.3068 -0.8609  0.4718
   74SLPC  H18X 6658   6.552   6.006   5.781 -0.3782 -0.3467 -0.0541
   74SLPC  H18Y 6659   6.489   6.055   5.946  2.8816 -3.6391  0.1315
   74SLPC  H18Z 6660   6.468   6.156   5.804 -0.1583 -0.2309  2.4036
   75SLPC     N 6661   0.855   5.696   7.589 -1.3301  0.6263 -0.2894
   75SLPC   C13 6662   0.733   5.736   7.525 -0.3328 -0.0150  0.5084
   75SLPC  H13A 6663   0.738   5.776   7.425 -1.7970 -0.2208  0.3288
   75SLPC  H13B 6664   0.667   5.650   7.518 -0.9925  0.0185  4.0869
   75SLPC  H13C 6665   0.680   5.815   7.576 -3.7595 -0.2870 -2.2414
   75SLPC   C14 6666   0.826   5.634   7.718  0.2319  0.1485  0.0999
   75SLPC  H14A 6667   0.917   5.592   7.760  0.1103 -1.0920 -0.8367
   75SLPC  H14B 6668   0.778   5.695   7.793 -1.4125 -0.6709 -0.2483
   75SLPC  H14C 6669   0.755   5.552   7.717 -0.6276  0.8628  0.8442
   75SLPC   C15 6670   0.934   5.823   7.608  0.0156 -0.6207  0.3323
   75SLPC  H15A 6671   0.891   5.907   7.660  0.2798  0.6769 -1.4507
   75SLPC  H15B 6672   1.017   5.808   7.675  0.7397  0.3399 -0.3192
   75SLPC  H15C 6673   0.959   5.849   7.506 -1.6002  0.1195  0.1008
   75SLPC   C12 6674   0.924   5.602   7.495 -0.4162 -0.0768  0.9027
   75SLPC  H12A 6675   0.923   5.652   7.399  2.9708  1.3283  1.4288
   75SLPC  H12B 6676   0.859   5.517   7.488 -2.6093  1.4611  1.6753
   75SLPC   C11 6677   1.074   5.568   7.544  0.9879 -0.4655  0.2407
   75SLPC  H11A 6678   1.132   5.663   7.547 -0.5072  0.4689  1.3830
   75SLPC  H11B 6679   1.130   5.514   7.466 -0.0531 -1.1836 -0.0294
   75SLPC     P 6680   1.216   5.463   7.728 -0.4472 -0.2245  0.0581
   75SLPC   O13 6681   1.286   5.593   7.738  0.0413 -0.6950 -0.3658
   75SLPC   O14 6682   1.206   5.394   7.857  0.1664 -0.0492 -0.0292
   75SLPC   O12 6683   1.075   5.493   7.669  0.4021  0.2392  0.6819
   75SLPC   O11 6684   1.275   5.367   7.623 -0.4459 -0.0921  0.1090
   75SLPC    C1 6685   1.269   5.223   7.643 -0.5455 -0.6076 -0.6511
   75SLPC    HA 6686   1.297   5.199   7.748 -1.3954  3.7147  0.7810
   75SLPC    HB 6687   1.165   5.188   7.625 -0.7650  0.0694 -0.7221
   75SLPC    C2 6688   1.351   5.147   7.539  0.5277 -0.6625 -0.3196
   75SLPC    HS 6689   1.456   5.177   7.563  0.2524  0.1605 -0.1216
   75SLPC   O21 6690   1.304   5.196   7.410 -0.0170 -0.0722  0.2455
   75SLPC   C21 6691   1.404   5.196   7.312  1.1693  0.2583 -0.6891
   75SLPC   O22 6692   1.520   5.162   7.326  0.6883 -0.0465  0.2829
   75SLPC   C22 6693   1.334   5.240   7.180 -0.7442  0.0804  0.0142
   75SLPC   H2R 6694   1.261   5.158   7.162  1.1751 -1.9030  0.8732
   75SLPC   H2S 6695   1.279   5.336   7.189  0.2803  0.8840 -1.8119
   75SLPC    C3 6696   1.334   4.998   7.560 -0.2159 -0.2330  0.4355
   75SLPC    HX 6697   1.231   4.958   7.558  0.2675 -1.5115  0.2180
   75SLPC    HY 6698   1.359   4.979   7.667  0.4316  1.4265  0.6146
   75SLPC   O31 6699   1.412   4.918   7.468  0.2373 -0.2568 -0.4770
   75SLPC   C31 6700   1.358   4.885   7.352  0.1092  0.0805 -0.5458
   75SLPC   O32 6701   1.243   4.895   7.321  0.3053  0.0325 -0.0297
   75SLPC   C32 6702   1.457   4.811   7.267  0.1340  0.0661 -0.0942
   75SLPC   H2X 6703   1.485   4.716   7.318 -1.4999 -0.5641 -0.3006
   75SLPC   H2Y 6704   1.551   4.862   7.239  0.0071  1.1132  1.3109
   75SLPC   C23 6705   1.433   5.243   7.062 -0.1652  0.4182 -0.2506
   75SLPC   H3R 6706   1.466   5.140   7.037 -1.3920  0.1623 -0.8969
   75SLPC   H3S 6707   1.518   5.308   7.093  0.4661  1.0774 -3.0729
   75SLPC   C24 6708   1.370   5.295   6.925 -0.5865 -0.2346  0.0725
   75SLPC   H4R 6709   1.340   5.402   6.933 -3.1008 -0.8232 -0.6522
   75SLPC   H4S 6710   1.289   5.226   6.893 -0.2027 -0.5054 -0.3276
   75SLPC   C25 6711   1.469   5.277   6.805  0.0713 -1.1347 -0.3745
   75SLPC   H5R 6712   1.510   5.173   6.800  0.5895 -0.8846 -2.2853
   75SLPC   H5S 6713   1.559   5.336   6.833 -1.2320  0.8606 -0.2260
   75SLPC   C26 6714   1.398   5.330   6.677 -0.7337  0.3837  0.5448
   75SLPC   H6R 6715   1.472   5.369   6.604 -0.6099  3.1357  1.9932
   75SLPC   H6S 6716   1.336   5.421   6.692  0.3763  0.9448  1.8803
   75SLPC   C27 6717   1.312   5.222   6.604  0.7890  0.7922 -0.1342
   75SLPC   H7R 6718   1.225   5.189   6.665  0.3077 -1.3993 -1.8674
   75SLPC   H7S 6719   1.380   5.133   6.604 -0.0511  0.1384 -0.0783
   75SLPC   C28 6720   1.280   5.254   6.456 -0.4990  1.0652  0.0565
   75SLPC   H8R 6721   1.380   5.280   6.414 -0.4482  0.2986 -0.3028
   75SLPC   H8S 6722   1.224   5.350   6.454 -1.0568  0.7506  0.5408
   75SLPC   C29 6723   1.209   5.139   6.387 -1.1542  0.2476  0.2840
   75SLPC   H9R 6724   1.176   5.055   6.450  0.6040  0.9911  2.3113
   75SLPC  C210 6725   1.214   5.113   6.256  0.1462 -0.1570  0.3059
   75SLPC  H10R 6726   1.165   5.021   6.221  1.8914 -1.0189  0.0134
   75SLPC  C211 6727   1.273   5.192   6.144  0.0027  0.3726  0.4141
   75SLPC  H11R 6728   1.304   5.128   6.058  1.5362 -0.6581  1.6674
   75SLPC  H11S 6729   1.367   5.240   6.180 -0.5264  1.5864  0.2210
   75SLPC  C212 6730   1.195   5.310   6.095 -0.5279  0.4353 -0.3813
   75SLPC  H12R 6731   1.119   5.342   6.169  1.5625  0.5133  1.8403
   75SLPC  C213 6732   1.228   5.384   5.980  0.2884  0.2225  0.2933
   75SLPC  H13R 6733   1.176   5.478   5.958  1.5996  0.9822  0.3784
   75SLPC  C214 6734   1.334   5.354   5.874  0.2312 -0.4924  0.0490
   75SLPC  H14R 6735   1.417   5.288   5.909  0.6965  0.8249  1.5246
   75SLPC  H14S 6736   1.390   5.447   5.850 -0.9012  0.3160  0.5094
   75SLPC  C215 6737   1.268   5.290   5.748 -0.6801 -0.1648 -0.1261
   75SLPC  H15R 6738   1.176   5.342   5.716 -2.4064 -3.5330 -1.1774
   75SLPC  H15S 6739   1.238   5.186   5.774 -0.9334 -0.4445 -1.4361
   75SLPC  C216 6740   1.359   5.294   5.620 -0.2914 -0.4699  0.5883
   75SLPC  H16R 6741   1.448   5.229   5.634 -0.0626 -0.4844 -0.7668
   75SLPC  H16S 6742   1.392   5.399   5.601  0.3254 -1.0187 -1.6395
   75SLPC  C217 6743   1.288   5.244   5.494 -0.0383  0.1314 -0.3172
   75SLPC  H17R 6744   1.265   5.137   5.512 -0.4557  0.5363  1.7687
   75SLPC  H17S 6745   1.358   5.250   5.407 -0.7887  1.0934 -0.8748
   75SLPC  C218 6746   1.160   5.320   5.451 -0.1457 -0.2734  0.0842
   75SLPC  H18R 6747   1.121   5.268   5.361  2.4379 -0.1251 -1.2251
   75SLPC  H18S 6748   1.180   5.423   5.415 -2.2054  0.2653  0.3873
   75SLPC  H18T 6749   1.093   5.317   5.539  1.8598  0.2509  1.7126
   75SLPC   C33 6750   1.397   4.758   7.133  0.3001 -0.1269  0.2730
   75SLPC   H3X 6751   1.289   4.733   7.131 -0.2717  1.5813  3.5495
   75SLPC   H3Y 6752   1.445   4.660   7.109 -0.2950 -0.5836  0.9138
   75SLPC   C34 6753   1.413   4.864   7.017  0.2288  0.5286 -0.3686
   75SLPC   H4X 6754   1.510   4.917   7.028  0.5751  0.1257 -1.4135
   75SLPC   H4Y 6755   1.337   4.945   7.025  0.7339  1.1687 -1.7225
   75SLPC   C35 6756   1.405   4.806   6.879  0.1098 -0.2312  0.2271
   75SLPC   H5X 6757   1.421   4.892   6.810  4.2792 -1.6376 -0.8486
   75SLPC   H5Y 6758   1.311   4.753   6.854  1.6702 -2.5535 -1.1563
   75SLPC   C36 6759   1.501   4.696   6.855 -0.2910 -0.0779 -0.0594
   75SLPC   H6X 6760   1.468   4.609   6.915 -0.7363  1.0527  1.4024
   75SLPC   H6Y 6761   1.599   4.721   6.901 -1.2770 -0.6742  2.5102
   75SLPC   C37 6762   1.507   4.665   6.703  0.1560 -0.2334 -0.1720
   75SLPC   H7X 6763   1.540   4.760   6.656  2.4580 -1.7435 -1.8253
   75SLPC   H7Y 6764   1.411   4.637   6.656 -0.3706 -0.2604  0.8927
   75SLPC   C38 6765   1.615   4.564   6.669 -0.1694 -0.3341 -0.1417
   75SLPC   H8X 6766   1.588   4.466   6.712  0.0398  1.0037  3.3680
   75SLPC   H8Y 6767   1.714   4.594   6.709 -0.3225  0.3381 -0.2543
   75SLPC   C39 6768   1.637   4.549   6.515 -0.2573 -1.0559  0.0185
   75SLPC   H9X 6769   1.534   4.544   6.474 -0.2271 -1.1719 -0.0444
   75SLPC   H9Y 6770   1.679   4.446   6.507  0.5180 -0.7965  0.7041
   75SLPC  C310 6771   1.729   4.660   6.461  0.7170 -0.2700 -0.0871
   75SLPC  H10X 6772   1.828   4.641   6.509  1.7699  0.2578 -1.9398
   75SLPC  H10Y 6773   1.689   4.761   6.481  0.4030 -0.8073  2.2715
   75SLPC  C311 6774   1.759   4.646   6.312 -0.1741 -0.3464  0.3186
   75SLPC  H11X 6775   1.798   4.543   6.294  0.9221  0.3449 -1.6147
   75SLPC  H11Y 6776   1.827   4.723   6.270  0.2225 -0.9151 -0.0945
   75SLPC  C312 6777   1.626   4.655   6.223  0.0551 -0.3888 -0.2773
   75SLPC  H12X 6778   1.565   4.739   6.261  2.8159  1.9712 -0.6607
   75SLPC  H12Y 6779   1.566   4.563   6.240 -0.9381  0.1498 -0.8451
   75SLPC  C313 6780   1.652   4.674   6.072 -0.3840 -0.1178  0.1432
   75SLPC  H13X 6781   1.717   4.761   6.049 -0.0554 -0.4311 -0.1386
   75SLPC  H13Y 6782   1.558   4.697   6.017 -2.1024 -0.9758  2.5644
   75SLPC  C314 6783   1.709   4.543   6.007 -0.8437  1.0591  0.5191
   75SLPC  H14X 6784   1.627   4.469   6.011 -0.0339 -0.0016 -1.0694
   75SLPC  H14Y 6785   1.797   4.503   6.062 -1.5461  0.1198  0.9816
   75SLPC  C315 6786   1.752   4.544   5.853  0.1803  0.3493  0.2885
   75SLPC  H15X 6787   1.787   4.440   5.837 -1.7020 -0.7800  2.7815
   75SLPC  H15Y 6788   1.825   4.622   5.826  0.7502  0.0536  0.9452
   75SLPC  C316 6789   1.628   4.572   5.768 -0.2225 -1.6042  0.3550
   75SLPC  H16X 6790   1.614   4.682   5.775  1.6030 -1.3035 -0.2049
   75SLPC  H16Y 6791   1.537   4.517   5.801 -1.9822  0.3941 -0.9115
   75SLPC  C317 6792   1.650   4.539   5.615  0.1585  0.5490 -0.0642
   75SLPC  H17X 6793   1.556   4.564   5.562  0.6017 -0.7520 -1.5553
   75SLPC  H17Y 6794   1.667   4.429   5.623 -1.9847  0.0730 -1.4179
   75SLPC  C318 6795   1.772   4.603   5.547  0.2627 -0.0267 -0.1587
   75SLPC  H18X 6796   1.778   4.575   5.440 -0.8414 -2.2272  0.2891
   75SLPC  H18Y 6797   1.865   4.573   5.600  0.6654  0.5676 -0.5336
   75SLPC  H18Z 6798   1.773   4.714   5.553  0.4797 -0.0110 -0.4673
   76SLPC     N 6799   3.830   6.493   7.808  0.2568  0.1430 -1.1078
   76SLPC   C13 6800   3.727   6.572   7.874  0.4478 -0.2536 -0.3928
   76SLPC  H13A 6801   3.753   6.567   7.979  0.3132  1.2981 -0.2636
   76SLPC  H13B 6802   3.730   6.678   7.854 -1.4720  0.1928  1.3556
   76SLPC  H13C 6803   3.624   6.540   7.881  0.0196  1.0893 -0.3791
   76SLPC   C14 6804   3.804   6.352   7.845  0.0556  0.2067 -0.0708
   76SLPC  H14A 6805   3.874   6.289   7.792  0.7357  0.8695  0.0236
   76SLPC  H14B 6806   3.806   6.328   7.950 -1.6030 -1.9401 -0.4630
   76SLPC  H14C 6807   3.709   6.328   7.801 -0.0007  2.9054 -1.6622
   76SLPC   C15 6808   3.971   6.540   7.847  0.4668 -0.5633 -0.4249
   76SLPC  H15A 6809   3.991   6.535   7.953  0.3149  1.4016 -0.2722
   76SLPC  H15B 6810   4.041   6.471   7.802  0.6839 -0.4593 -0.2505
   76SLPC  H15C 6811   3.983   6.641   7.812  0.9296 -0.2391  0.6390
   76SLPC   C12 6812   3.803   6.518   7.655  0.7501 -1.2996 -0.0827
   76SLPC  H12A 6813   3.820   6.622   7.635  1.4723 -1.2427  0.7553
   76SLPC  H12B 6814   3.695   6.509   7.654  0.6179  0.1341 -0.0439
   76SLPC   C11 6815   3.865   6.432   7.548  0.1781  0.5028  1.2348
   76SLPC  H11A 6816   3.828   6.465   7.449 -3.2086 -2.7112  1.2289
   76SLPC  H11B 6817   3.827   6.330   7.567  2.2837 -0.4742  0.4902
   76SLPC     P 6818   4.083   6.288   7.549 -0.2335  0.2382  0.2404
   76SLPC   O13 6819   4.223   6.298   7.510  0.3062 -0.3765  0.0931
   76SLPC   O14 6820   4.060   6.224   7.683  0.5357 -0.5341  0.1882
   76SLPC   O12 6821   4.005   6.430   7.557 -0.5701  0.1714 -0.0042
   76SLPC   O11 6822   3.996   6.214   7.443 -0.6510  0.6839  0.1146
   76SLPC    C1 6823   4.025   6.080   7.402  0.8213  0.1287  0.7939
   76SLPC    HA 6824   4.071   6.023   7.485  0.0755 -0.5288  0.7632
   76SLPC    HB 6825   3.931   6.025   7.378  1.5286 -0.2587 -1.2283
   76SLPC    C2 6826   4.103   6.070   7.262 -0.0867 -0.3758 -0.1951
   76SLPC    HS 6827   4.113   5.962   7.241 -1.3228 -0.4357 -0.5465
   76SLPC   O21 6828   4.235   6.122   7.265  0.8566  0.4021 -0.0876
   76SLPC   C21 6829   4.323   6.066   7.345 -0.1885  0.1935 -0.3993
   76SLPC   O22 6830   4.301   5.969   7.416 -0.1190 -0.0446  0.5770
   76SLPC   C22 6831   4.455   6.121   7.318 -0.5924 -0.5572 -0.2401
   76SLPC   H2R 6832   4.447   6.198   7.239 -0.3122  1.0179  1.2120
   76SLPC   H2S 6833   4.501   6.167   7.408 -1.0119 -0.4587 -0.0734
   76SLPC    C3 6834   4.023   6.118   7.141  1.4170 -0.1874  0.1836
   76SLPC    HX 6835   3.976   6.217   7.159 -1.2007 -1.8104  3.3251
   76SLPC    HY 6836   3.925   6.065   7.132  1.4776 -0.2091 -0.4392
   76SLPC   O31 6837   4.072   6.100   7.008 -0.4163 -0.0258  0.2065
   76SLPC   C31 6838   4.160   6.199   6.968  0.1830 -1.1209 -0.3836
   76SLPC   O32 6839   4.185   6.294   7.041 -0.4325 -0.1474  0.0010
   76SLPC   C32 6840   4.192   6.183   6.822 -0.1606 -0.3622  0.2346
   76SLPC   H2X 6841   4.201   6.075   6.801  0.5047 -0.6944  2.0728
   76SLPC   H2Y 6842   4.290   6.235   6.810 -0.0715 -0.3705  0.8829
   76SLPC   C23 6843   4.555   6.015   7.256  0.4614  0.2120 -0.6749
   76SLPC   H3R 6844   4.561   5.926   7.323 -1.7124  1.6799  1.6322
   76SLPC   H3S 6845   4.652   6.069   7.267  0.2436  0.6371 -0.8261
   76SLPC   C24 6846   4.517   5.986   7.112 -0.3300 -0.0134 -0.2924
   76SLPC   H4R 6847   4.475   6.072   7.056  3.5478  0.9816 -1.9928
   76SLPC   H4S 6848   4.440   5.907   7.121  1.0697 -1.3958 -0.0427
   76SLPC   C25 6849   4.635   5.936   7.023  0.4087  0.5138  0.0392
   76SLPC   H5R 6850   4.670   5.850   7.084 -0.5631  1.1705  1.5867
   76SLPC   H5S 6851   4.716   6.012   7.019 -0.3141  1.2312 -2.1261
   76SLPC   C26 6852   4.586   5.884   6.886 -0.5469 -0.9616  0.1163
   76SLPC   H6R 6853   4.546   5.971   6.829 -1.4066 -1.3894  0.0426
   76SLPC   H6S 6854   4.507   5.808   6.907 -3.1036  1.2392 -0.9452
   76SLPC   C27 6855   4.704   5.830   6.799 -0.4532 -0.2463 -0.1089
   76SLPC   H7R 6856   4.751   5.744   6.850 -0.9712 -0.4857 -0.0341
   76SLPC   H7S 6857   4.775   5.915   6.789 -0.2885 -0.5847 -2.4086
   76SLPC   C28 6858   4.660   5.795   6.656 -0.3575 -0.5452 -0.1326
   76SLPC   H8R 6859   4.621   5.881   6.597  0.1303  1.5759  2.4389
   76SLPC   H8S 6860   4.571   5.731   6.671 -1.0203  0.2069 -0.7630
   76SLPC   C29 6861   4.748   5.720   6.563 -0.2326  0.3394 -0.7170
   76SLPC   H9R 6862   4.810   5.797   6.513  0.2630  1.1582  1.0584
   76SLPC  C210 6863   4.764   5.587   6.545  0.3092 -0.4538  0.8707
   76SLPC  H10R 6864   4.848   5.558   6.481  0.3260  2.6228 -0.6438
   76SLPC  C211 6865   4.686   5.472   6.610 -0.6258 -0.3774 -0.5489
   76SLPC  H11R 6866   4.672   5.490   6.719  0.5571  0.5918 -0.5329
   76SLPC  H11S 6867   4.773   5.404   6.612  0.3472  0.8454  0.3725
   76SLPC  C212 6868   4.563   5.424   6.544  0.5489 -0.1172 -0.3816
   76SLPC  H12R 6869   4.462   5.462   6.563  0.6761  0.0081  0.0455
   76SLPC  C213 6870   4.565   5.335   6.446 -0.4599 -0.0380  0.5925
   76SLPC  H13R 6871   4.469   5.312   6.398  0.7509  1.0478 -2.6896
   76SLPC  C214 6872   4.688   5.261   6.392  0.7328 -0.5970 -0.1124
   76SLPC  H14R 6873   4.687   5.150   6.406  2.5391 -0.6710 -0.2909
   76SLPC  H14S 6874   4.781   5.305   6.436 -0.8512  3.2431 -0.2184
   76SLPC  C215 6875   4.699   5.277   6.243 -0.1699 -0.7198  0.1595
   76SLPC  H15R 6876   4.729   5.377   6.203  2.9475 -1.3233  0.7214
   76SLPC  H15S 6877   4.601   5.257   6.195  0.5722 -0.3956 -1.5628
   76SLPC  C216 6878   4.800   5.188   6.175  0.5758 -0.5729  0.1985
   76SLPC  H16R 6879   4.802   5.091   6.230  0.4072 -1.1489 -0.7749
   76SLPC  H16S 6880   4.901   5.228   6.198  0.4979  0.1529 -0.6829
   76SLPC  C217 6881   4.786   5.161   6.022 -0.9954 -0.4032  0.6025
   76SLPC  H17R 6882   4.737   5.245   5.969 -4.3440 -2.5509 -0.0612
   76SLPC  H17S 6883   4.710   5.082   6.006 -0.1751 -0.9717 -0.6986
   76SLPC  C218 6884   4.905   5.097   5.954 -0.2318 -0.0334 -0.3894
   76SLPC  H18R 6885   4.943   5.014   6.016 -0.2010 -0.0023 -0.3664
   76SLPC  H18S 6886   4.991   5.167   5.940  1.4719 -2.2614 -1.7960
   76SLPC  H18T 6887   4.872   5.048   5.860  0.5857  1.7454 -1.6638
   76SLPC   C33 6888   4.083   6.237   6.728  0.4852  0.7834  0.1516
   76SLPC   H3X 6889   4.053   6.341   6.754  0.0303  1.0258 -1.2428
   76SLPC   H3Y 6890   3.988   6.179   6.731  1.0285 -0.0918  0.9567
   76SLPC   C34 6891   4.132   6.248   6.584  0.1496  0.9061  0.1343
   76SLPC   H4X 6892   4.172   6.148   6.557  0.5337  0.9810  0.4304
   76SLPC   H4Y 6893   4.214   6.322   6.573  1.8204 -0.6270  1.6246
   76SLPC   C35 6894   4.021   6.287   6.492  0.3144  0.0732 -0.3914
   76SLPC   H5X 6895   4.002   6.394   6.518  0.5011 -0.3709  1.8138
   76SLPC   H5Y 6896   3.929   6.230   6.517  0.8870  0.0532  2.0120
   76SLPC   C36 6897   4.052   6.271   6.342  0.2343 -0.3459  0.3436
   76SLPC   H6X 6898   4.066   6.164   6.315 -0.6474  0.5744 -4.8961
   76SLPC   H6Y 6899   4.151   6.301   6.304 -0.2095 -0.7744 -1.2666
   76SLPC   C37 6900   3.938   6.324   6.248  0.0180  0.5035 -0.4221
   76SLPC   H7X 6901   3.937   6.435   6.235  2.7686  0.7000  0.4439
   76SLPC   H7Y 6902   3.839   6.309   6.296  0.5720 -1.6255  0.1291
   76SLPC   C38 6903   3.951   6.266   6.108 -0.2774 -0.1160  0.1121
   76SLPC   H8X 6904   3.957   6.155   6.106 -2.2891 -0.2494  0.0413
   76SLPC   H8Y 6905   4.054   6.285   6.069 -0.5240  1.7805  0.2736
   76SLPC   C39 6906   3.834   6.305   6.011 -0.2048  0.7616  0.1077
   76SLPC   H9X 6907   3.872   6.322   5.908 -0.4421 -0.2755 -0.1545
   76SLPC   H9Y 6908   3.806   6.409   6.039  1.9740  1.8176 -1.3835
   76SLPC  C310 6909   3.727   6.202   6.022  0.0773  0.2028 -0.4935
   76SLPC  H10X 6910   3.689   6.185   6.126  0.7825 -0.9840 -0.4148
   76SLPC  H10Y 6911   3.762   6.102   5.990 -3.2672 -1.6375  1.1104
   76SLPC  C311 6912   3.602   6.252   5.934  0.2485 -0.0718 -0.0591
   76SLPC  H11X 6913   3.614   6.255   5.824 -0.6622 -1.4422 -0.2173
   76SLPC  H11Y 6914   3.584   6.354   5.972  0.7232 -0.7535  2.1838
   76SLPC  C312 6915   3.484   6.164   5.968  0.8631 -0.3381  0.2058
   76SLPC  H12X 6916   3.469   6.165   6.078 -1.1263 -1.0215 -0.0157
   76SLPC  H12Y 6917   3.494   6.054   5.956 -1.4077 -0.5934  0.1459
   76SLPC  C313 6918   3.367   6.209   5.887 -0.2485 -0.4961  0.2842
   76SLPC  H13X 6919   3.283   6.136   5.888 -0.8996  0.2242  0.0960
   76SLPC  H13Y 6920   3.405   6.213   5.783  0.2365 -0.6777  0.4535
   76SLPC  C314 6921   3.317   6.347   5.944  0.0802 -0.3456  0.6939
   76SLPC  H14X 6922   3.362   6.364   6.044  0.9856  0.4501  0.1751
   76SLPC  H14Y 6923   3.207   6.343   5.956  0.0584 -1.6057  0.1818
   76SLPC  C315 6924   3.366   6.461   5.840  0.0337  0.1052  0.5714
   76SLPC  H15X 6925   3.319   6.439   5.741  0.1008 -2.0574  0.9720
   76SLPC  H15Y 6926   3.475   6.446   5.829  0.3818  1.1898  2.2252
   76SLPC  C316 6927   3.356   6.603   5.875 -0.0217 -0.1119 -0.0614
   76SLPC  H16X 6928   3.253   6.632   5.905 -0.0302 -1.3628  1.2547
   76SLPC  H16Y 6929   3.385   6.673   5.794 -2.1415 -0.4712 -1.2137
   76SLPC  C317 6930   3.438   6.629   5.998  0.1519 -0.1752 -0.7193
   76SLPC  H17X 6931   3.514   6.708   5.980 -0.1526  0.1684 -0.5315
   76SLPC  H17Y 6932   3.485   6.535   6.032 -0.2818  0.2612  1.2340
   76SLPC  C318 6933   3.344   6.667   6.113  0.0037 -0.0716 -0.5024
   76SLPC  H18X 6934   3.274   6.583   6.131  0.0762  0.0811  0.5169
   76SLPC  H18Y 6935   3.283   6.753   6.078  0.8863  0.9532  0.3940
   76SLPC  H18Z 6936   3.391   6.691   6.210 -2.4759  0.0886  0.7337
   77SLPC     N 6937   1.680   6.004   8.070  0.4476 -0.8712 -0.0628
   77SLPC   C13 6938   1.768   6.130   8.056  0.8143  0.5374 -0.1133
   77SLPC  H13A 6939   1.859   6.116   8.001  0.9926  2.3754 -0.3367
   77SLPC  H13B 6940   1.713   6.207   8.005  0.8041  1.0440  0.6397
   77SLPC  H13C 6941   1.789   6.186   8.146  0.1707  0.4497  0.0971
   77SLPC   C14 6942   1.573   6.018   8.168  0.9273  0.1675 -0.1100
   77SLPC  H14A 6943   1.611   6.018   8.269  1.2830 -1.5367 -0.2191
   77SLPC  H14B 6944   1.518   6.111   8.162  1.8033  0.7292  0.1773
   77SLPC  H14C 6945   1.500   5.940   8.153  2.3309 -1.3963  0.8009
   77SLPC   C15 6946   1.772   5.894   8.109 -1.1333  1.3735 -0.0763
   77SLPC  H15A 6947   1.825   5.838   8.034 -2.1693  1.6014 -1.0112
   77SLPC  H15B 6948   1.839   5.941   8.179 -1.3895  0.9952  0.4207
   77SLPC  H15C 6949   1.717   5.820   8.164 -0.1691  0.1994 -0.6351
   77SLPC   C12 6950   1.634   5.969   7.927 -0.1083  0.1426 -0.3509
   77SLPC  H12A 6951   1.582   5.875   7.936 -2.6234  1.4724  0.0623
   77SLPC  H12B 6952   1.723   5.952   7.868  1.3936 -1.9436  2.2400
   77SLPC   C11 6953   1.530   6.060   7.849 -0.5868  0.1409 -0.7742
   77SLPC  H11A 6954   1.571   6.162   7.833 -2.9402  1.2541 -0.2107
   77SLPC  H11B 6955   1.452   6.068   7.928  1.2342  1.8124  0.9738
   77SLPC     P 6956   1.563   5.980   7.598 -0.1954  0.1646  0.5002
   77SLPC   O13 6957   1.622   6.113   7.564  0.4982 -0.0635  0.2420
   77SLPC   O14 6958   1.661   5.871   7.620 -0.3413  0.9052 -0.1835
   77SLPC   O12 6959   1.481   5.988   7.734 -0.4941  0.0112  0.1138
   77SLPC   O11 6960   1.448   5.944   7.496 -0.5159  0.1648 -0.0182
   77SLPC    C1 6961   1.394   5.814   7.507  0.5180 -0.4922  0.0338
   77SLPC    HA 6962   1.398   5.789   7.615  1.0109  1.9778  0.6360
   77SLPC    HB 6963   1.286   5.812   7.481  0.2355  2.2731  0.7266
   77SLPC    C2 6964   1.473   5.714   7.406  0.6490  0.4359 -0.2889
   77SLPC    HS 6965   1.577   5.716   7.445  0.7226  0.0840 -0.4639
   77SLPC   O21 6966   1.483   5.771   7.273 -0.2433  0.1328  0.3336
   77SLPC   C21 6967   1.363   5.803   7.215  0.2457  0.4302  0.5569
   77SLPC   O22 6968   1.252   5.760   7.251 -0.2375  0.2054 -0.4202
   77SLPC   C22 6969   1.375   5.892   7.087 -0.0942 -0.2649 -0.2000
   77SLPC   H2R 6970   1.353   5.999   7.106  2.6914  0.4470 -0.5370
   77SLPC   H2S 6971   1.479   5.888   7.046  0.3330  4.7824 -0.3015
   77SLPC    C3 6972   1.444   5.569   7.399  0.2679 -0.3458  0.0867
   77SLPC    HX 6973   1.349   5.560   7.343  0.6569  2.3148 -1.1624
   77SLPC    HY 6974   1.443   5.538   7.506  0.8790  0.8299  0.4485
   77SLPC   O31 6975   1.544   5.503   7.323 -0.4055 -0.8301 -0.1492
   77SLPC   C31 6976   1.658   5.454   7.386  0.3860  0.0582  0.6046
   77SLPC   O32 6977   1.678   5.465   7.503 -0.1491 -0.6944  0.7205
   77SLPC   C32 6978   1.759   5.395   7.292 -0.0509  0.6970  0.1011
   77SLPC   H2X 6979   1.727   5.288   7.287  0.7805  0.4673 -0.4302
   77SLPC   H2Y 6980   1.856   5.383   7.344 -0.3434 -4.3488  0.0382
   77SLPC   C23 6981   1.272   5.851   6.979  0.1970  0.6682  0.1283
   77SLPC   H3R 6982   1.174   5.857   7.032  0.2419  3.9756  0.0736
   77SLPC   H3S 6983   1.298   5.754   6.932  1.0868  0.8267  0.2900
   77SLPC   C24 6984   1.263   5.948   6.865  0.3668  0.3478 -0.3122
   77SLPC   H4R 6985   1.360   5.958   6.812  1.4033  1.7619  1.7237
   77SLPC   H4S 6986   1.245   6.043   6.921 -2.3773  0.6703 -1.5547
   77SLPC   C25 6987   1.144   5.933   6.774 -0.1963  0.1150  0.2029
   77SLPC   H5R 6988   1.137   6.027   6.716  1.6517  0.6453  0.7528
   77SLPC   H5S 6989   1.051   5.910   6.830 -0.2926  2.1905  1.0048
   77SLPC   C26 6990   1.184   5.812   6.689  0.3106 -0.1096  0.0226
   77SLPC   H6R 6991   1.165   5.720   6.748  1.2465 -1.0558 -1.0996
   77SLPC   H6S 6992   1.294   5.816   6.671  0.2130  0.3798 -0.4760
   77SLPC   C27 6993   1.118   5.795   6.551  0.1399  0.7540  0.8661
   77SLPC   H7R 6994   1.133   5.887   6.489  0.1596 -0.0902 -0.4209
   77SLPC   H7S 6995   1.007   5.794   6.558 -0.1863  0.2517 -2.4107
   77SLPC   C28 6996   1.163   5.671   6.470 -0.3932  0.9254  0.1693
   77SLPC   H8R 6997   1.135   5.578   6.524  0.8977 -0.5147 -1.5377
   77SLPC   H8S 6998   1.274   5.670   6.462 -0.4105  0.5200 -0.0769
   77SLPC   C29 6999   1.097   5.673   6.334  0.5043  0.0809 -0.0918
   77SLPC   H9R 7000   0.987   5.665   6.331  0.5494 -2.1135  1.2322
   77SLPC  C210 7001   1.163   5.714   6.227 -0.0307 -0.5569  0.3045
   77SLPC  H10R 7002   1.107   5.713   6.132  0.0683  1.3349  0.1815
   77SLPC  C211 7003   1.309   5.755   6.202 -0.3083 -0.6722  0.2500
   77SLPC  H11R 7004   1.331   5.834   6.277  1.2309 -0.0604 -0.7772
   77SLPC  H11S 7005   1.323   5.807   6.105  0.7509  1.1567  1.3181
   77SLPC  C212 7006   1.411   5.646   6.226 -0.0271  0.3769  0.2125
   77SLPC  H12R 7007   1.375   5.561   6.285 -0.4050  0.1590 -0.3159
   77SLPC  C213 7008   1.540   5.635   6.176 -0.0888 -0.5822  0.6187
   77SLPC  H13R 7009   1.608   5.551   6.196  2.8436  0.7192 -2.7884
   77SLPC  C214 7010   1.605   5.748   6.103  0.4831 -0.4311 -0.4285
   77SLPC  H14R 7011   1.629   5.832   6.172 -1.3340 -0.9873  0.9548
   77SLPC  H14S 7012   1.532   5.810   6.045  1.0399  0.0407 -0.6380
   77SLPC  C215 7013   1.726   5.694   6.020 -0.7465 -0.5198  0.3832
   77SLPC  H15R 7014   1.790   5.636   6.090  1.1434 -1.5207 -2.0459
   77SLPC  H15S 7015   1.788   5.778   5.982 -1.9575  0.6557  0.8992
   77SLPC  C216 7016   1.670   5.628   5.898 -0.3933  0.5603  0.1486
   77SLPC  H16R 7017   1.612   5.710   5.849 -2.0144 -0.1035  0.8635
   77SLPC  H16S 7018   1.602   5.546   5.930 -2.1971  2.8326  2.6916
   77SLPC  C217 7019   1.781   5.572   5.808 -0.1386 -0.0888  0.0171
   77SLPC  H17R 7020   1.837   5.497   5.868 -0.0992 -0.7187 -0.7826
   77SLPC  H17S 7021   1.839   5.661   5.778 -1.4088  1.0110  0.7344
   77SLPC  C218 7022   1.728   5.504   5.673  0.4807  0.0047  0.2158
   77SLPC  H18R 7023   1.817   5.487   5.610  1.1251  0.2387  1.0521
   77SLPC  H18S 7024   1.657   5.571   5.619 -0.0047  1.0459  2.0489
   77SLPC  H18T 7025   1.676   5.409   5.697 -0.8278  0.3560 -1.0739
   77SLPC   C33 7026   1.771   5.467   7.162 -0.0302  0.1538  0.9348
   77SLPC   H3X 7027   1.672   5.477   7.113  0.4625  0.7238  0.0135
   77SLPC   H3Y 7028   1.827   5.415   7.081  1.6914  2.3064  0.6381
   77SLPC   C34 7029   1.836   5.604   7.172  0.1868 -0.3300 -0.2141
   77SLPC   H4X 7030   1.935   5.611   7.222 -0.4093  0.0761  0.9373
   77SLPC   H4Y 7031   1.778   5.681   7.226 -0.4743 -0.0225 -1.3381
   77SLPC   C35 7032   1.861   5.668   7.039 -0.6372 -0.2188  0.8784
   77SLPC   H5X 7033   1.925   5.602   6.976 -0.4005  0.1009  0.7785
   77SLPC   H5Y 7034   1.919   5.760   7.061 -1.5590  0.9554 -1.2381
   77SLPC   C36 7035   1.748   5.704   6.938  0.1410  0.9818 -0.6006
   77SLPC   H6X 7036   1.690   5.787   6.983  0.2443  0.7226  0.0254
   77SLPC   H6Y 7037   1.686   5.612   6.934  2.1392 -0.4200 -1.5104
   77SLPC   C37 7038   1.793   5.744   6.795 -0.7797  0.5973  0.1336
   77SLPC   H7X 7039   1.844   5.652   6.758 -0.0856  0.7206  0.7642
   77SLPC   H7Y 7040   1.863   5.829   6.804  1.6727 -1.3883  1.0707
   77SLPC   C38 7041   1.683   5.765   6.688  0.4806 -0.5402 -0.3471
   77SLPC   H8X 7042   1.608   5.840   6.721  0.2591 -0.5299 -0.8634
   77SLPC   H8Y 7043   1.631   5.669   6.669  1.4011 -1.2854  0.7883
   77SLPC   C39 7044   1.726   5.832   6.558 -0.6853  0.4201 -0.2531
   77SLPC   H9X 7045   1.652   5.801   6.481 -0.6478 -1.0700  0.2791
   77SLPC   H9Y 7046   1.822   5.786   6.525 -0.6210  0.4229 -0.0715
   77SLPC  C310 7047   1.751   5.978   6.554 -0.1748 -0.1157 -0.0250
   77SLPC  H10X 7048   1.824   5.996   6.636 -0.1264 -0.8269  0.0906
   77SLPC  H10Y 7049   1.661   6.040   6.579 -0.5130  0.0116 -1.4924
   77SLPC  C311 7050   1.801   6.015   6.414  0.4812 -0.6668  0.2329
   77SLPC  H11X 7051   1.813   6.125   6.406  2.0999 -0.7227  1.3120
   77SLPC  H11Y 7052   1.731   5.978   6.337  1.7816 -0.3409 -1.1392
   77SLPC  C312 7053   1.942   5.969   6.376  0.2842 -0.4359  0.5116
   77SLPC  H12X 7054   1.942   5.864   6.340 -1.7030 -0.0341 -0.8786
   77SLPC  H12Y 7055   2.005   5.978   6.467 -0.2961  2.7613  0.7116
   77SLPC  C313 7056   2.003   6.065   6.277 -0.0387 -0.3621 -0.6048
   77SLPC  H13X 7057   1.991   6.174   6.298  1.3647 -0.1562 -0.7193
   77SLPC  H13Y 7058   1.944   6.053   6.184 -2.4740 -2.4774  1.0860
   77SLPC  C314 7059   2.157   6.030   6.260  0.2932 -0.0923  0.0137
   77SLPC  H14X 7060   2.167   5.921   6.241 -1.0123 -0.1296 -0.5176
   77SLPC  H14Y 7061   2.212   6.057   6.353 -0.4876 -0.9712  0.7444
   77SLPC  C315 7062   2.223   6.105   6.144  0.2854 -0.0965 -0.1588
   77SLPC  H15X 7063   2.218   6.213   6.170 -0.1947  0.3450 -1.9707
   77SLPC  H15Y 7064   2.162   6.087   6.054 -2.0100  1.3161  1.0104
   77SLPC  C316 7065   2.370   6.063   6.118  0.3233  0.5924  0.6049
   77SLPC  H16X 7066   2.356   5.960   6.078 -2.9344  0.7922  1.0054
   77SLPC  H16Y 7067   2.436   6.055   6.207  1.0008 -2.2122 -0.0462
   77SLPC  C317 7068   2.444   6.148   6.019  0.3561 -0.6014 -0.2643
   77SLPC  H17X 7069   2.380   6.147   5.928  0.0037 -0.9787 -0.0191
   77SLPC  H17Y 7070   2.539   6.093   6.003  1.0164  0.0678  1.1285
   77SLPC  C318 7071   2.462   6.291   6.062 -0.2664  0.8307  0.0608
   77SLPC  H18X 7072   2.373   6.350   6.032 -0.4140  1.4291  1.6130
   77SLPC  H18Y 7073   2.543   6.342   6.005  1.1462  0.1761  1.4007
   77SLPC  H18Z 7074   2.481   6.309   6.170 -1.8144  0.8015  0.3628
   78SLPC     N 7075   5.507   3.520   7.716  0.4662 -0.5242 -0.4072
   78SLPC   C13 7076   5.472   3.410   7.807 -0.3906 -0.1054  0.0553
   78SLPC  H13A 7077   5.460   3.324   7.743 -1.5219 -0.3682  0.5894
   78SLPC  H13B 7078   5.547   3.398   7.883  0.5969  2.6595 -0.3561
   78SLPC  H13C 7079   5.379   3.428   7.858 -1.2496 -1.2680 -1.0405
   78SLPC   C14 7080   5.629   3.487   7.640  0.9992  0.7095 -0.4149
   78SLPC  H14A 7081   5.702   3.434   7.700 -0.4163 -0.0021  0.7420
   78SLPC  H14B 7082   5.618   3.415   7.560 -0.1256  0.0083  0.3440
   78SLPC  H14C 7083   5.683   3.576   7.612  0.4250  0.4341 -2.5560
   78SLPC   C15 7084   5.536   3.639   7.805  0.0219 -0.6159 -0.2125
   78SLPC  H15A 7085   5.446   3.653   7.863 -1.2064 -1.0075 -1.9278
   78SLPC  H15B 7086   5.610   3.621   7.881  1.9014 -0.7319 -1.9663
   78SLPC  H15C 7087   5.560   3.723   7.741  0.5620 -0.4241  0.2399
   78SLPC   C12 7088   5.383   3.538   7.631  0.3046 -0.3634  0.2404
   78SLPC  H12A 7089   5.360   3.446   7.578  1.1029 -0.3010 -0.2303
   78SLPC  H12B 7090   5.416   3.604   7.551  0.0355 -0.7179 -0.1703
   78SLPC   C11 7091   5.262   3.605   7.696 -0.0334 -0.4229  0.5920
   78SLPC  H11A 7092   5.235   3.548   7.787  0.2094 -0.1839  0.8165
   78SLPC  H11B 7093   5.180   3.591   7.623 -2.3955  0.9173  2.8193
   78SLPC     P 7094   5.286   3.851   7.609 -0.1688  0.4348 -0.0972
   78SLPC   O13 7095   5.152   3.897   7.580 -0.0898  0.0623  0.0622
   78SLPC   O14 7096   5.377   3.965   7.651 -0.6020 -0.1484 -0.3611
   78SLPC   O12 7097   5.281   3.742   7.723  0.0580 -0.0685 -0.0511
   78SLPC   O11 7098   5.350   3.780   7.488  0.5648  0.4103  0.1240
   78SLPC    C1 7099   5.486   3.805   7.460  0.9531 -0.0782 -0.1346
   78SLPC    HA 7100   5.551   3.808   7.550  1.6142 -2.3220 -0.4656
   78SLPC    HB 7101   5.530   3.723   7.399  0.3868 -0.8685  0.5002
   78SLPC    C2 7102   5.509   3.934   7.368  0.2292 -0.0061 -0.2275
   78SLPC    HS 7103   5.465   4.020   7.423  0.2838 -0.5388  0.6751
   78SLPC   O21 7104   5.438   3.908   7.250 -0.5428 -0.3914 -0.3133
   78SLPC   C21 7105   5.458   3.989   7.152  0.1445 -0.0387  0.3409
   78SLPC   O22 7106   5.519   4.095   7.159 -0.6429 -0.3843  0.3691
   78SLPC   C22 7107   5.383   3.940   7.028  0.0718 -0.5961  0.0146
   78SLPC   H2R 7108   5.429   3.844   6.995 -1.2153 -2.9750  4.3304
   78SLPC   H2S 7109   5.278   3.912   7.054  0.6023 -2.5685  0.2285
   78SLPC    C3 7110   5.663   3.960   7.357  0.1970 -0.2489  0.3082
   78SLPC    HX 7111   5.698   3.946   7.461 -2.8349 -3.4094  1.0931
   78SLPC    HY 7112   5.684   4.060   7.312  2.3499 -0.9503 -0.3533
   78SLPC   O31 7113   5.705   3.850   7.267 -0.9325  0.3499 -0.0907
   78SLPC   C31 7114   5.834   3.874   7.242  0.0727  0.9584 -0.0376
   78SLPC   O32 7115   5.904   3.969   7.279  0.0394  0.8026  0.1683
   78SLPC   C32 7116   5.884   3.770   7.138 -0.0205 -0.5618  0.7586
   78SLPC   H2X 7117   5.817   3.769   7.050 -0.9810 -0.5898  1.4832
   78SLPC   H2Y 7118   5.869   3.673   7.190 -2.8964 -1.2310 -1.1429
   78SLPC   C23 7119   5.369   4.048   6.915  0.1492  0.4748  0.8034
   78SLPC   H3R 7120   5.459   4.064   6.853  0.6158 -0.6932  1.1371
   78SLPC   H3S 7121   5.335   4.146   6.954 -1.1691 -0.1833  1.3721
   78SLPC   C24 7122   5.261   3.999   6.814 -0.0484  0.0348 -0.3827
   78SLPC   H4R 7123   5.270   4.071   6.730 -1.9871  1.0336  0.2211
   78SLPC   H4S 7124   5.161   3.992   6.861 -0.2899 -0.7458 -0.9977
   78SLPC   C25 7125   5.281   3.857   6.760 -0.2328 -0.3195 -0.0583
   78SLPC   H5R 7126   5.267   3.783   6.841  0.3010 -1.0669 -0.6361
   78SLPC   H5S 7127   5.389   3.855   6.734  0.4839  1.2360  2.5222
   78SLPC   C26 7128   5.191   3.814   6.646 -0.9613  0.2279 -0.2415
   78SLPC   H6R 7129   5.201   3.864   6.548  2.8996  1.8953  0.8055
   78SLPC   H6S 7130   5.091   3.823   6.693 -0.8863  1.0357 -0.2271
   78SLPC   C27 7131   5.215   3.664   6.609 -0.0657 -0.6283 -1.1757
   78SLPC   H7R 7132   5.213   3.608   6.704 -0.2915  0.4205 -0.5446
   78SLPC   H7S 7133   5.319   3.638   6.578  0.9125 -0.4709  1.6997
   78SLPC   C28 7134   5.103   3.605   6.534 -0.1251  0.3287  0.2773
   78SLPC   H8R 7135   5.008   3.637   6.581 -1.5672 -1.3885 -1.3289
   78SLPC   H8S 7136   5.100   3.495   6.539  0.7980  0.3144  0.7380
   78SLPC   C29 7137   5.099   3.653   6.390  0.2146  0.3599  0.5285
   78SLPC   H9R 7138   5.111   3.762   6.383  2.7083  0.0826 -0.5339
   78SLPC  C210 7139   5.079   3.579   6.276 -0.3676 -0.5102  0.3797
   78SLPC  H10R 7140   5.082   3.630   6.178 -2.2303 -0.5751  0.2508
   78SLPC  C211 7141   5.060   3.433   6.266 -0.1447  0.2217  0.7576
   78SLPC  H11R 7142   5.055   3.386   6.366 -1.2789 -1.8678 -0.2019
   78SLPC  H11S 7143   5.148   3.395   6.209 -1.8948 -0.8137 -1.4386
   78SLPC  C212 7144   4.934   3.404   6.183 -0.2368  0.0516  0.0483
   78SLPC  H12R 7145   4.839   3.437   6.228 -1.0787 -1.7610 -0.3344
   78SLPC  C213 7146   4.923   3.323   6.074  0.1152 -0.4945 -0.2215
   78SLPC  H13R 7147   4.824   3.332   6.026 -0.6683 -0.1908  1.3883
   78SLPC  C214 7148   5.033   3.250   6.002  0.2603 -0.4816  0.4470
   78SLPC  H14R 7149   5.027   3.140   6.010  2.2988 -0.6288  0.2947
   78SLPC  H14S 7150   5.136   3.276   6.034  0.8199 -1.4232 -0.5220
   78SLPC  C215 7151   5.038   3.290   5.852  0.8759  0.9024 -0.4725
   78SLPC  H15R 7152   5.139   3.264   5.815  0.7019  1.4367 -1.3868
   78SLPC  H15S 7153   5.022   3.400   5.851 -0.4910  0.7280 -0.2518
   78SLPC  C216 7154   4.933   3.213   5.766 -0.2854  0.5544  0.2209
   78SLPC  H16R 7155   4.834   3.252   5.798  0.3260  1.1892  1.4205
   78SLPC  H16S 7156   4.934   3.107   5.797 -1.1454  0.9430  1.6372
   78SLPC  C217 7157   4.962   3.213   5.613 -0.3545 -0.0692  0.4756
   78SLPC  H17R 7158   5.064   3.182   5.582 -0.2223  1.0840 -0.3440
   78SLPC  H17S 7159   4.960   3.315   5.568 -3.1606 -0.9766 -1.7798
   78SLPC  C218 7160   4.845   3.134   5.548  0.3911 -0.4814 -0.6295
   78SLPC  H18R 7161   4.751   3.171   5.595  2.3467  2.2421  1.4315
   78SLPC  H18S 7162   4.851   3.026   5.572 -2.0152 -0.3544  0.8340
   78SLPC  H18T 7163   4.840   3.159   5.439  3.9798  1.5880 -0.4886
   78SLPC   C33 7164   6.025   3.808   7.082  0.2172  0.6774 -0.0265
   78SLPC   H3X 7165   6.094   3.829   7.166 -2.0536  3.5142  1.3090
   78SLPC   H3Y 7166   6.034   3.899   7.018  0.2333  0.8673  0.2451
   78SLPC   C34 7167   6.079   3.697   6.994 -0.5389 -0.8208  1.1366
   78SLPC   H4X 7168   6.067   3.599   7.046 -0.0532 -2.5401 -1.7334
   78SLPC   H4Y 7169   6.190   3.697   6.992 -0.4911 -3.1728  1.0946
   78SLPC   C35 7170   6.023   3.690   6.855  0.5043  0.1267 -0.0278
   78SLPC   H5X 7171   5.917   3.723   6.854  0.5843  0.4665 -2.3283
   78SLPC   H5Y 7172   6.016   3.583   6.827  0.8164 -0.0381  0.5144
   78SLPC   C36 7173   6.102   3.769   6.753  0.3660  0.1773  0.2103
   78SLPC   H6X 7174   6.211   3.751   6.760  0.0077 -1.8626  1.4700
   78SLPC   H6Y 7175   6.072   3.876   6.762 -0.2320  0.4356 -3.3692
   78SLPC   C37 7176   6.055   3.732   6.612  0.3044 -0.2553  0.1141
   78SLPC   H7X 7177   6.074   3.817   6.544 -0.4315 -1.6488 -1.9250
   78SLPC   H7Y 7178   5.945   3.721   6.607  0.5667 -3.8362 -4.5728
   78SLPC   C38 7179   6.125   3.615   6.543  0.0711 -0.3965 -0.2667
   78SLPC   H8X 7180   6.135   3.529   6.614 -0.8411 -0.5920 -0.3542
   78SLPC   H8Y 7181   6.229   3.641   6.514  0.4816 -0.1317  1.3400
   78SLPC   C39 7182   6.065   3.559   6.412  0.2532  0.0269 -0.5699
   78SLPC   H9X 7183   5.954   3.558   6.423  0.2766 -1.6927 -0.2782
   78SLPC   H9Y 7184   6.112   3.464   6.378  1.0350  0.6861 -1.3902
   78SLPC  C310 7185   6.100   3.655   6.296 -0.0789 -0.4902  0.1003
   78SLPC  H10X 7186   6.201   3.638   6.252  0.0289 -0.4205  0.3240
   78SLPC  H10Y 7187   6.091   3.758   6.336 -1.5269 -1.1479  1.5627
   78SLPC  C311 7188   6.016   3.621   6.171 -0.1334 -0.8113  0.2776
   78SLPC  H11X 7189   5.912   3.649   6.199 -1.4571 -2.7507 -2.2699
   78SLPC  H11Y 7190   6.021   3.510   6.169 -1.1309 -0.8501 -0.9539
   78SLPC  C312 7191   6.051   3.694   6.047 -0.0697  0.0489 -0.4706
   78SLPC  H12X 7192   6.148   3.648   6.020  0.2951 -0.5218  1.6365
   78SLPC  H12Y 7193   6.065   3.804   6.058  0.6899 -0.1114  0.2160
   78SLPC  C313 7194   5.954   3.674   5.930 -1.2929 -0.4253  0.4016
   78SLPC  H13X 7195   5.848   3.693   5.959 -1.6964  0.6640 -1.6064
   78SLPC  H13Y 7196   5.963   3.567   5.902 -1.9221 -0.2944 -0.3191
   78SLPC  C314 7197   5.996   3.753   5.804 -0.4724  0.0308 -0.2025
   78SLPC  H14X 7198   6.012   3.853   5.849 -1.6081 -1.1465  3.0651
   78SLPC  H14Y 7199   5.910   3.752   5.734  0.3027 -2.8406 -1.2563
   78SLPC  C315 7200   6.123   3.695   5.740 -0.4738 -0.0102  1.0461
   78SLPC  H15X 7201   6.196   3.664   5.819 -0.6091 -1.2238  0.7142
   78SLPC  H15Y 7202   6.175   3.769   5.675 -0.6198 -1.6809 -1.0820
   78SLPC  C316 7203   6.099   3.577   5.646 -0.5846  0.3576  0.4569
   78SLPC  H16X 7204   6.024   3.510   5.693  0.8457 -1.0065  0.8853
   78SLPC  H16Y 7205   6.191   3.514   5.639  0.6544  1.9505  1.7382
   78SLPC  C317 7206   6.057   3.618   5.500 -0.4310  0.4032  0.3473
   78SLPC  H17X 7207   6.138   3.683   5.461  1.9025 -1.4338  1.7816
   78SLPC  H17Y 7208   5.960   3.665   5.526 -1.2029 -0.2144 -1.2760
   78SLPC  C318 7209   6.025   3.492   5.410 -0.1763  0.4437 -0.6032
   78SLPC  H18X 7210   6.122   3.448   5.377  0.5032  0.0082  1.7432
   78SLPC  H18Y 7211   5.967   3.529   5.323 -0.6839 -1.1252 -0.9681
   78SLPC  H18Z 7212   5.960   3.425   5.470 -1.3208  0.8766 -1.3229
   79SLPC     N 7213   2.531   3.737   7.457  0.1333  0.1777 -0.0668
   79SLPC   C13 7214   2.534   3.832   7.578 -0.0499 -0.2089 -0.0111
   79SLPC  H13A 7215   2.454   3.820   7.649 -2.4705  0.0787 -2.5046
   79SLPC  H13B 7216   2.621   3.818   7.641  0.6058  1.6354 -0.4283
   79SLPC  H13C 7217   2.535   3.931   7.534 -0.2229 -0.1866  0.0349
   79SLPC   C14 7218   2.484   3.603   7.509  0.2233 -0.5223  1.2239
   79SLPC  H14A 7219   2.383   3.612   7.547  0.1912  0.3667  0.9429
   79SLPC  H14B 7220   2.479   3.540   7.422 -0.4687 -1.2013  1.7427
   79SLPC  H14C 7221   2.562   3.553   7.565  2.4019 -3.4480 -3.7288
   79SLPC   C15 7222   2.676   3.724   7.411  0.0361 -0.1427  0.4003
   79SLPC  H15A 7223   2.705   3.821   7.372  1.8606 -1.0103 -0.5456
   79SLPC  H15B 7224   2.742   3.687   7.488  0.8012 -0.6705 -0.4787
   79SLPC  H15C 7225   2.680   3.655   7.328  0.7873 -0.7932  0.9541
   79SLPC   C12 7226   2.444   3.783   7.348  0.1744  0.0408  0.0285
   79SLPC  H12A 7227   2.341   3.786   7.381 -0.1607  0.6183 -1.0110
   79SLPC  H12B 7228   2.444   3.711   7.268  0.5555 -0.2095  0.2483
   79SLPC   C11 7229   2.476   3.928   7.305 -0.1101  0.1384 -0.6051
   79SLPC  H11A 7230   2.459   3.950   7.197 -0.4190 -0.3098 -0.6492
   79SLPC  H11B 7231   2.585   3.945   7.304 -0.3099  1.6700 -2.0840
   79SLPC     P 7232   2.264   4.067   7.376  0.0793 -0.2935 -0.2745
   79SLPC   O13 7233   2.192   3.957   7.310  0.3831 -0.1065 -0.6496
   79SLPC   O14 7234   2.212   4.121   7.506 -0.4349 -0.6088  0.1264
   79SLPC   O12 7235   2.413   4.022   7.391 -0.3276  0.6624  0.0744
   79SLPC   O11 7236   2.271   4.185   7.274 -0.0569  0.1562  0.4261
   79SLPC    C1 7237   2.157   4.220   7.192  0.0687 -0.2615  0.4252
   79SLPC    HA 7238   2.135   4.136   7.122 -0.0793 -0.5642  0.8267
   79SLPC    HB 7239   2.072   4.249   7.258  1.2194  2.7247  0.7487
   79SLPC    C2 7240   2.180   4.348   7.097  0.7235 -0.1480 -0.1139
   79SLPC    HS 7241   2.089   4.346   7.032  0.8260 -4.0219 -0.3971
   79SLPC   O21 7242   2.295   4.342   7.019 -0.2529 -0.0006  0.6344
   79SLPC   C21 7243   2.294   4.263   6.915  1.1477 -0.1288 -0.0607
   79SLPC   O22 7244   2.202   4.197   6.876  0.4803 -0.2266  0.7170
   79SLPC   C22 7245   2.426   4.273   6.840 -0.0920  0.5008  0.3752
   79SLPC   H2R 7246   2.452   4.381   6.828  1.2326  0.1731  0.1511
   79SLPC   H2S 7247   2.502   4.211   6.892  0.6821  1.4413  0.3865
   79SLPC    C3 7248   2.194   4.471   7.189 -0.1160  0.3523  0.1137
   79SLPC    HX 7249   2.280   4.452   7.257  0.0611 -2.1109 -0.6918
   79SLPC    HY 7250   2.111   4.484   7.261  1.7502 -0.4593  2.5508
   79SLPC   O31 7251   2.204   4.596   7.114 -0.4424  0.1570  0.6195
   79SLPC   C31 7252   2.320   4.634   7.085  0.2127 -0.6717 -0.4928
   79SLPC   O32 7253   2.425   4.575   7.114 -0.5201  0.7144  0.5120
   79SLPC   C32 7254   2.313   4.760   7.001  0.0979  0.5888 -0.2861
   79SLPC   H2X 7255   2.246   4.837   7.046 -0.2602 -0.8051  1.6901
   79SLPC   H2Y 7256   2.256   4.737   6.908 -0.8777 -1.0876  0.6746
   79SLPC   C23 7257   2.416   4.217   6.691  0.5092  0.0251 -0.4948
   79SLPC   H3R 7258   2.341   4.275   6.635  2.5076  2.6062 -0.6959
   79SLPC   H3S 7259   2.396   4.108   6.696 -0.4093  0.2160  0.1235
   79SLPC   C24 7260   2.540   4.220   6.607 -0.5078 -0.0039 -0.0289
   79SLPC   H4R 7261   2.617   4.154   6.651  0.7667  1.6681  0.3416
   79SLPC   H4S 7262   2.581   4.322   6.622 -1.1134  0.2541 -0.1003
   79SLPC   C25 7263   2.532   4.196   6.454  0.0323 -0.0113 -0.6347
   79SLPC   H5R 7264   2.635   4.180   6.416  0.5789  0.3498  0.6651
   79SLPC   H5S 7265   2.473   4.276   6.405  0.6067  1.2585  0.6826
   79SLPC   C26 7266   2.464   4.058   6.425 -0.1163 -0.2105  0.0540
   79SLPC   H6R 7267   2.369   4.047   6.480 -2.0997  1.7170 -2.6882
   79SLPC   H6S 7268   2.538   3.977   6.442 -0.7212 -1.1681 -1.5881
   79SLPC   C27 7269   2.414   4.035   6.276  0.9350 -0.1319 -0.0510
   79SLPC   H7R 7270   2.318   4.091   6.275  2.1044  1.9772  0.9838
   79SLPC   H7S 7271   2.387   3.927   6.268  0.0145 -0.0705  1.7929
   79SLPC   C28 7272   2.507   4.080   6.157 -0.7621  0.2316  0.3729
   79SLPC   H8R 7273   2.616   4.063   6.175 -0.7132 -1.6722 -1.4354
   79SLPC   H8S 7274   2.479   4.186   6.140 -1.7914 -0.1340 -0.3382
   79SLPC   C29 7275   2.461   4.006   6.034  0.3263  0.7264  0.2099
   79SLPC   H9R 7276   2.456   3.896   6.037 -2.6879  0.7469 -0.8858
   79SLPC  C210 7277   2.409   4.057   5.922 -1.1894 -0.4507  0.7162
   79SLPC  H10R 7278   2.374   3.984   5.847 -3.1426  0.2433  0.9023
   79SLPC  C211 7279   2.374   4.203   5.892  0.2448 -0.2819  0.2667
   79SLPC  H11R 7280   2.393   4.225   5.785  1.5790 -0.6612  0.4113
   79SLPC  H11S 7281   2.440   4.272   5.949  2.7735 -1.8157 -0.6866
   79SLPC  C212 7282   2.232   4.242   5.929  0.6852  0.8227 -1.0051
   79SLPC  H12R 7283   2.217   4.246   6.038  0.8481 -0.7382 -0.9053
   79SLPC  C213 7284   2.133   4.287   5.852  0.4752 -0.5375 -0.1046
   79SLPC  H13R 7285   2.039   4.317   5.900  0.2054  1.8219 -1.9277
   79SLPC  C214 7286   2.138   4.309   5.704  0.3943 -0.9979  0.2102
   79SLPC  H14R 7287   2.230   4.272   5.655  0.7613  0.4605 -0.2557
   79SLPC  H14S 7288   2.146   4.417   5.678 -1.3370 -0.6013  1.1959
   79SLPC  C215 7289   2.019   4.264   5.620  0.5515 -0.4881  0.0775
   79SLPC  H15R 7290   1.924   4.276   5.675 -0.2131  0.5700 -1.3962
   79SLPC  H15S 7291   2.027   4.154   5.608  1.6322 -0.3033 -1.1607
   79SLPC  C216 7292   2.007   4.334   5.485 -0.3463  0.2519 -0.4538
   79SLPC  H16R 7293   2.100   4.305   5.431  0.4704 -1.0687  1.5401
   79SLPC  H16S 7294   2.016   4.444   5.499  2.8865 -0.0864  1.1215
   79SLPC  C217 7295   1.882   4.294   5.409 -0.1530 -0.2040  0.4781
   79SLPC  H17R 7296   1.794   4.353   5.441  0.3863 -0.1366  1.9283
   79SLPC  H17S 7297   1.862   4.187   5.431 -0.3535 -0.0754  0.9441
   79SLPC  C218 7298   1.895   4.313   5.259  0.1409  0.1734  0.0306
   79SLPC  H18R 7299   1.906   4.422   5.241 -0.3136 -0.1240 -2.4114
   79SLPC  H18S 7300   1.801   4.277   5.211  1.3949  1.4850 -3.7747
   79SLPC  H18T 7301   1.978   4.250   5.221  1.4796  1.6799  0.3450
   79SLPC   C33 7302   2.455   4.816   6.978  0.0364  0.0187  0.3402
   79SLPC   H3X 7303   2.504   4.771   6.890 -0.0295  0.9517 -0.1957
   79SLPC   H3Y 7304   2.519   4.790   7.065  0.0797  0.1681  0.3529
   79SLPC   C34 7305   2.460   4.971   6.976  0.0704 -0.4588 -0.0167
   79SLPC   H4X 7306   2.562   5.008   6.951 -0.5172  1.8475  0.7461
   79SLPC   H4Y 7307   2.434   5.012   7.076 -1.6096 -1.4137 -0.0368
   79SLPC   C35 7308   2.385   5.030   6.856  0.5513  0.0630 -0.9012
   79SLPC   H5X 7309   2.397   5.140   6.851 -0.1426  0.1172 -1.4327
   79SLPC   H5Y 7310   2.278   5.019   6.883  0.7618  3.0142  1.7300
   79SLPC   C36 7311   2.410   4.982   6.718 -0.2734 -0.0940  1.1730
   79SLPC   H6X 7312   2.391   4.873   6.707  1.0151 -0.3299  1.1722
   79SLPC   H6Y 7313   2.516   5.005   6.695 -0.4252  1.4252  1.8704
   79SLPC   C37 7314   2.320   5.028   6.603 -0.1536  0.0079  0.7614
   79SLPC   H7X 7315   2.328   5.138   6.613 -0.1486 -0.1155  2.2019
   79SLPC   H7Y 7316   2.214   4.999   6.619 -1.8766  0.4923 -6.3673
   79SLPC   C38 7317   2.370   4.982   6.463  0.3220 -0.0628 -0.4262
   79SLPC   H8X 7318   2.408   4.879   6.448  2.1745  0.8944 -3.4452
   79SLPC   H8Y 7319   2.461   5.041   6.439 -0.8274  1.7868 -0.4765
   79SLPC   C39 7320   2.268   5.018   6.353 -0.4339 -0.6423  0.2481
   79SLPC   H9X 7321   2.214   5.110   6.385  0.0222 -0.0666 -0.5757
   79SLPC   H9Y 7322   2.189   4.940   6.352 -1.5316  0.3783  2.0375
   79SLPC  C310 7323   2.325   5.043   6.210 -0.1532 -0.5618  0.0604
   79SLPC  H10X 7324   2.373   4.947   6.182  2.9561  0.1632  2.3839
   79SLPC  H10Y 7325   2.407   5.117   6.205 -1.5040  0.9308 -1.7470
   79SLPC  C311 7326   2.205   5.073   6.115  0.4244 -0.2584  0.3315
   79SLPC  H11X 7327   2.148   5.159   6.156  2.1340  0.6425  0.9083
   79SLPC  H11Y 7328   2.139   4.984   6.113  0.3327 -0.1790 -0.3378
   79SLPC  C312 7329   2.234   5.079   5.962 -0.6835 -0.1574 -0.1830
   79SLPC  H12X 7330   2.144   5.076   5.897 -1.4019  0.1386  0.7929
   79SLPC  H12Y 7331   2.301   4.992   5.947 -0.7048 -0.4950  1.5750
   79SLPC  C313 7332   2.317   5.209   5.916 -0.2815 -0.1226  0.2354
   79SLPC  H13X 7333   2.329   5.284   5.997  2.0572  1.0750 -1.1231
   79SLPC  H13Y 7334   2.266   5.251   5.827  1.0488  1.4691  0.1925
   79SLPC  C314 7335   2.463   5.176   5.874  0.5961  0.1871  0.4719
   79SLPC  H14X 7336   2.458   5.102   5.791 -0.9708 -0.8079  1.3777
   79SLPC  H14Y 7337   2.500   5.125   5.966 -0.3284  1.7973  1.7902
   79SLPC  C315 7338   2.544   5.306   5.838 -0.5729  0.1989  0.0703
   79SLPC  H15X 7339   2.475   5.394   5.845 -1.5232 -0.5717  0.7591
   79SLPC  H15Y 7340   2.556   5.298   5.728  1.5418 -0.8524  0.3305
   79SLPC  C316 7341   2.682   5.325   5.903  0.9054 -0.1008 -0.3700
   79SLPC  H16X 7342   2.762   5.341   5.828  1.7184 -1.7471  0.1020
   79SLPC  H16Y 7343   2.703   5.234   5.962 -1.7233 -1.6778 -1.6671
   79SLPC  C317 7344   2.680   5.451   5.991  0.6553 -0.1941  0.0638
   79SLPC  H17X 7345   2.587   5.442   6.050 -0.9840 -0.2630 -2.3777
   79SLPC  H17Y 7346   2.682   5.541   5.926  2.4505  2.0466  2.9494
   79SLPC  C318 7347   2.798   5.459   6.082 -0.2577  0.3010  0.2293
   79SLPC  H18X 7348   2.805   5.366   6.142 -4.6019  0.1760  0.8445
   79SLPC  H18Y 7349   2.810   5.552   6.142 -0.4400 -0.0111  0.7604
   79SLPC  H18Z 7350   2.885   5.462   6.013 -0.8177 -0.1583 -0.5054
   80SLPC     N 7351   2.928   0.139   7.482  0.6266  0.8058 -0.1536
   80SLPC   C13 7352   2.823   0.045   7.545  0.7900  0.4377 -0.4143
   80SLPC  H13A 7353   2.734   0.051   7.483  0.6247 -2.4238 -0.5862
   80SLPC  H13B 7354   2.848  -0.060   7.537  1.4493  0.6349 -1.1520
   80SLPC  H13C 7355   2.786   0.084   7.638  1.9398  2.8260 -0.8695
   80SLPC   C14 7356   2.979   0.074   7.354  0.5195  0.2416  0.4587
   80SLPC  H14A 7357   3.044   0.139   7.298 -0.1698 -1.2845 -2.3357
   80SLPC  H14B 7358   3.016  -0.026   7.369 -1.7318 -0.7246  0.0619
   80SLPC  H14C 7359   2.902   0.055   7.280  1.7358  0.3879 -0.8833
   80SLPC   C15 7360   3.043   0.134   7.578 -0.1423  0.2328  0.3895
   80SLPC  H15A 7361   3.041   0.210   7.655  1.8511  0.3805  0.3516
   80SLPC  H15B 7362   3.053   0.034   7.619 -1.5817  0.3033  0.9712
   80SLPC  H15C 7363   3.133   0.150   7.521  0.5581 -2.5895  0.5410
   80SLPC   C12 7364   2.889   0.281   7.466  0.0717 -0.4251  0.2331
   80SLPC  H12A 7365   2.973   0.343   7.442 -0.9730  1.3699  1.0087
   80SLPC  H12B 7366   2.861   0.335   7.555  1.3260  0.6801 -0.0213
   80SLPC   C11 7367   2.771   0.296   7.368  0.4922 -0.3878  0.2479
   80SLPC  H11A 7368   2.690   0.233   7.410  2.8695 -3.0285  1.2782
   80SLPC  H11B 7369   2.792   0.250   7.269 -0.0803  0.9021 -0.5018
   80SLPC     P 7370   2.808   0.523   7.245  0.2027  0.0410  0.1375
   80SLPC   O13 7371   2.731   0.650   7.225  0.0297  0.1030 -0.7699
   80SLPC   O14 7372   2.950   0.524   7.289  0.4102  0.0244 -0.2814
   80SLPC   O12 7373   2.737   0.435   7.352 -0.0928 -0.2342  0.3298
   80SLPC   O11 7374   2.796   0.442   7.113 -0.0623  0.1645  0.0694
   80SLPC    C1 7375   2.681   0.420   7.034  0.5378  0.0749 -0.4287
   80SLPC    HA 7376   2.592   0.414   7.101  1.8465  0.5733  1.4606
   80SLPC    HB 7377   2.659   0.500   6.960  1.0265  1.2039  0.6008
   80SLPC    C2 7378   2.700   0.290   6.948  0.2255  0.1055  1.3616
   80SLPC    HS 7379   2.724   0.217   7.028  0.0669 -3.4470 -1.5312
   80SLPC   O21 7380   2.804   0.304   6.848 -0.5430 -0.1571 -0.0314
   80SLPC   C21 7381   2.841   0.183   6.790  0.1467  0.3371 -1.0358
   80SLPC   O22 7382   2.795   0.078   6.834  0.6180  0.2202  0.6537
   80SLPC   C22 7383   2.950   0.195   6.687  0.4402 -0.3561 -0.0452
   80SLPC   H2R 7384   2.975   0.304   6.687 -2.4951  0.4347 -1.8261
   80SLPC   H2S 7385   3.037   0.132   6.716  0.6570 -0.1952 -0.3427
   80SLPC    C3 7386   2.559   0.236   6.886 -0.8883 -0.7596 -0.0474
   80SLPC    HX 7387   2.480   0.225   6.963 -0.8804  0.0367  0.0879
   80SLPC    HY 7388   2.560   0.134   6.842  0.0373 -1.2045  0.9606
   80SLPC   O31 7389   2.520   0.330   6.788  0.1942  0.2925  0.3423
   80SLPC   C31 7390   2.444   0.429   6.823  0.2539  0.8571  0.4685
   80SLPC   O32 7391   2.398   0.449   6.933 -0.3776 -0.7732 -0.0368
   80SLPC   C32 7392   2.423   0.522   6.708 -0.3944 -0.2628 -0.1684
   80SLPC   H2X 7393   2.411   0.466   6.613  0.1323 -1.4540  0.4333
   80SLPC   H2Y 7394   2.512   0.584   6.684 -2.2198  1.2833 -3.7164
   80SLPC   C23 7395   2.901   0.144   6.545  0.5976  0.1038 -0.2615
   80SLPC   H3R 7396   2.865   0.040   6.557  2.4928 -0.8341 -2.0644
   80SLPC   H3S 7397   2.984   0.138   6.472  0.0380 -1.5241 -0.8043
   80SLPC   C24 7398   2.791   0.233   6.487  0.0198 -0.4466  0.5581
   80SLPC   H4R 7399   2.719   0.248   6.571 -0.3680 -0.7089  0.2759
   80SLPC   H4S 7400   2.733   0.196   6.400  0.2295  1.8445 -0.6479
   80SLPC   C25 7401   2.836   0.368   6.430  0.2800 -0.5480 -1.2377
   80SLPC   H5R 7402   2.883   0.352   6.331  1.5353 -2.0663 -0.4406
   80SLPC   H5S 7403   2.923   0.398   6.493  0.5936  0.8794 -2.3174
   80SLPC   C26 7404   2.715   0.469   6.420  0.0504  0.0138 -0.2362
   80SLPC   H6R 7405   2.681   0.490   6.524  3.7079  0.5163  1.0099
   80SLPC   H6S 7406   2.635   0.419   6.362  1.0816 -0.9041 -0.9207
   80SLPC   C27 7407   2.755   0.597   6.352 -0.0828 -0.4622 -0.2011
   80SLPC   H7R 7408   2.754   0.581   6.242 -0.5310 -0.3474 -0.2188
   80SLPC   H7S 7409   2.861   0.613   6.381 -0.3820  1.2347  0.0480
   80SLPC   C28 7410   2.671   0.724   6.388 -0.1338  0.2172 -0.3267
   80SLPC   H8R 7411   2.673   0.719   6.499 -3.0880 -0.3621 -0.2178
   80SLPC   H8S 7412   2.565   0.705   6.358 -0.6323  1.4078  0.5818
   80SLPC   C29 7413   2.726   0.857   6.338 -0.3124 -0.8293  0.5360
   80SLPC   H9R 7414   2.818   0.876   6.395 -0.5800 -0.6466  0.9081
   80SLPC  C210 7415   2.676   0.944   6.241  0.4884 -0.7115  0.5295
   80SLPC  H10R 7416   2.736   1.033   6.220  2.6017 -2.5031 -1.6384
   80SLPC  C211 7417   2.555   0.929   6.150  0.0881 -0.1834 -0.4096
   80SLPC  H11R 7418   2.492   0.845   6.187 -1.2247  1.4627  1.3608
   80SLPC  H11S 7419   2.571   0.917   6.041 -2.0061  0.2349 -0.8183
   80SLPC  C212 7420   2.455   1.041   6.167  0.4259  0.0568  0.0691
   80SLPC  H12R 7421   2.459   1.091   6.265  4.5630  0.9222 -0.3536
   80SLPC  C213 7422   2.359   1.066   6.077  0.9003 -0.1011 -0.2757
   80SLPC  H13R 7423   2.294   1.155   6.086 -1.7163 -1.7580 -1.5239
   80SLPC  C214 7424   2.339   1.009   5.938 -0.1166 -0.1599  0.1010
   80SLPC  H14R 7425   2.421   0.944   5.901  0.2659  1.5396 -2.2629
   80SLPC  H14S 7426   2.325   1.075   5.850 -0.2189 -2.9548 -2.1625
   80SLPC  C215 7427   2.209   0.931   5.936  0.2009 -0.3473  0.4134
   80SLPC  H15R 7428   2.132   1.005   5.966  2.6082  2.3287  0.4681
   80SLPC  H15S 7429   2.208   0.842   6.002 -0.0280 -1.0560 -0.5235
   80SLPC  C216 7430   2.178   0.881   5.791 -0.1799  0.0094  0.1018
   80SLPC  H16R 7431   2.262   0.827   5.743 -0.3078  1.6810 -2.1832
   80SLPC  H16S 7432   2.162   0.966   5.720  0.0229 -0.5361 -0.6132
   80SLPC  C217 7433   2.040   0.804   5.774  0.2572  0.1755 -0.4470
   80SLPC  H17R 7434   1.951   0.857   5.815  0.1558 -0.0692 -0.3524
   80SLPC  H17S 7435   2.057   0.712   5.833  1.5924  0.6582 -0.0479
   80SLPC  C218 7436   2.009   0.762   5.634  0.2698  0.3119  0.0657
   80SLPC  H18R 7437   2.098   0.721   5.581 -0.8408  1.5809 -3.0054
   80SLPC  H18S 7438   1.991   0.855   5.576  2.1003 -0.1487 -1.3366
   80SLPC  H18T 7439   1.929   0.685   5.632  1.5369 -1.0394 -0.3558
   80SLPC   C33 7440   2.301   0.606   6.737 -0.1074  0.1295 -0.0835
   80SLPC   H3X 7441   2.331   0.671   6.822 -0.2813  0.8771 -0.5754
   80SLPC   H3Y 7442   2.206   0.549   6.750  0.0977 -0.0823  0.5195
   80SLPC   C34 7443   2.265   0.704   6.621  0.4412  0.2394 -0.4659
   80SLPC   H4X 7444   2.347   0.773   6.591 -0.0139  1.0538  0.1144
   80SLPC   H4Y 7445   2.185   0.771   6.660  0.8082  1.2566 -1.3908
   80SLPC   C35 7446   2.228   0.624   6.495 -0.7133  0.2449  0.1646
   80SLPC   H5X 7447   2.144   0.552   6.508  0.2810 -1.1708 -0.9586
   80SLPC   H5Y 7448   2.311   0.555   6.469 -2.6670 -1.8648 -0.8423
   80SLPC   C36 7449   2.196   0.711   6.374 -0.1305 -0.0110 -0.9436
   80SLPC   H6X 7450   2.183   0.655   6.279 -3.4539  1.3842 -1.4351
   80SLPC   H6Y 7451   2.286   0.775   6.354  1.0164 -0.8012  1.3402
   80SLPC   C37 7452   2.076   0.802   6.405  0.0213  0.9160 -0.3140
   80SLPC   H7X 7453   2.111   0.892   6.461  1.4143  0.9312 -1.1483
   80SLPC   H7Y 7454   1.997   0.755   6.466  0.0747  1.2176 -0.0073
   80SLPC   C38 7455   2.001   0.853   6.283  0.2019 -0.1811  0.7504
   80SLPC   H8X 7456   1.982   0.773   6.209  0.3687  0.3926  0.0726
   80SLPC   H8Y 7457   2.063   0.925   6.225 -0.6264 -0.2076 -0.1973
   80SLPC   C39 7458   1.866   0.916   6.334 -0.3719  0.5392  0.6591
   80SLPC   H9X 7459   1.898   0.990   6.410 -0.4449 -0.2739  1.4990
   80SLPC   H9Y 7460   1.813   0.837   6.390  1.3810 -1.5594 -0.4486
   80SLPC  C310 7461   1.783   0.993   6.228 -0.7450  0.2699  0.2736
   80SLPC  H10X 7462   1.758   0.922   6.147 -0.0304  0.6349 -0.2768
   80SLPC  H10Y 7463   1.846   1.069   6.176  0.0873  0.0054  0.8640
   80SLPC  C311 7464   1.660   1.055   6.292 -0.4447  0.1007  0.5187
   80SLPC  H11X 7465   1.695   1.134   6.362  2.0526 -1.8973  1.7150
   80SLPC  H11Y 7466   1.601   0.976   6.344  0.8849 -0.1837  1.6495
   80SLPC  C312 7467   1.557   1.108   6.189  0.3101 -0.4766  0.2232
   80SLPC  H12X 7468   1.560   1.039   6.102  0.7571 -1.3483  0.9205
   80SLPC  H12Y 7469   1.595   1.210   6.164  0.7964 -0.8893 -0.7440
   80SLPC  C313 7470   1.426   1.127   6.258  0.5094 -0.1044  0.3267
   80SLPC  H13X 7471   1.436   1.193   6.347 -0.3926  2.8155 -1.5582
   80SLPC  H13Y 7472   1.390   1.026   6.287 -1.7485  0.8076  0.9173
   80SLPC  C314 7473   1.312   1.181   6.159  0.5231 -0.6170 -0.1618
   80SLPC  H14X 7474   1.224   1.216   6.218  0.5780  1.5736 -1.2927
   80SLPC  H14Y 7475   1.274   1.098   6.096 -0.6339  0.5435 -1.0547
   80SLPC  C315 7476   1.362   1.295   6.066  0.4661  0.6686  0.2798
   80SLPC  H15X 7477   1.444   1.254   6.004  1.8871  0.6548  2.0854
   80SLPC  H15Y 7478   1.404   1.382   6.121  0.6298  0.8911 -0.1956
   80SLPC  C316 7479   1.264   1.341   5.959 -0.3447  0.2208 -0.0415
   80SLPC  H16X 7480   1.172   1.374   6.013 -0.8929 -0.2493 -0.6737
   80SLPC  H16Y 7481   1.257   1.254   5.890  2.7515 -1.9605  2.1089
   80SLPC  C317 7482   1.305   1.467   5.877  0.4756  0.2488 -0.1229
   80SLPC  H17X 7483   1.408   1.449   5.841  1.3043  1.2008  1.6301
   80SLPC  H17Y 7484   1.312   1.555   5.945 -1.6102 -0.4391  1.0951
   80SLPC  C318 7485   1.209   1.482   5.765  0.3574 -1.0390 -0.2229
   80SLPC  H18X 7486   1.242   1.569   5.703  1.6991 -0.8030  0.7756
   80SLPC  H18Y 7487   1.106   1.505   5.801  1.0316  0.3230  0.9663
   80SLPC  H18Z 7488   1.209   1.396   5.695  0.9702 -0.1712 -1.3335
   81SLPC     N 7489   0.518   4.567   3.292 -0.5309  0.4135 -0.4341
   81SLPC   C13 7490   0.434   4.695   3.290 -0.4977 -0.4919  0.4690
   81SLPC  H13A 7491   0.469   4.748   3.202 -2.0502 -1.8493 -1.0402
   81SLPC  H13B 7492   0.328   4.695   3.272 -0.6405  1.5362  1.0391
   81SLPC  H13C 7493   0.457   4.750   3.380  1.9110 -0.7743  0.0914
   81SLPC   C14 7494   0.447   4.459   3.214 -0.4473 -0.2914 -0.7662
   81SLPC  H14A 7495   0.412   4.488   3.116 -1.1499 -0.6562 -0.6332
   81SLPC  H14B 7496   0.502   4.367   3.202 -1.9532 -1.0928 -1.8667
   81SLPC  H14C 7497   0.355   4.435   3.266  0.3154  1.2379  1.4292
   81SLPC   C15 7498   0.528   4.505   3.436  0.7777  0.2630 -0.5683
   81SLPC  H15A 7499   0.578   4.576   3.501  1.4396 -0.6870 -0.0108
   81SLPC  H15B 7500   0.430   4.489   3.477 -0.0889 -0.2049 -2.7278
   81SLPC  H15C 7501   0.579   4.410   3.438  1.1890  0.4823 -0.4251
   81SLPC   C12 7502   0.653   4.601   3.249  0.0520 -0.1309 -0.2869
   81SLPC  H12A 7503   0.652   4.634   3.147 -3.2587  1.2372  0.0717
   81SLPC  H12B 7504   0.730   4.525   3.257  1.9938  1.6896 -0.6259
   81SLPC   C11 7505   0.729   4.723   3.309 -0.3722 -0.4494  0.0608
   81SLPC  H11A 7506   0.687   4.816   3.264 -0.6902 -1.1198 -1.0525
   81SLPC  H11B 7507   0.836   4.727   3.280 -1.2574  0.0901 -3.6428
   81SLPC     P 7508   0.842   4.789   3.540  0.3056  0.6110 -0.4729
   81SLPC   O13 7509   0.952   4.690   3.531 -0.1572 -0.1337 -0.1032
   81SLPC   O14 7510   0.876   4.919   3.487 -0.2578 -0.1728  0.2283
   81SLPC   O12 7511   0.715   4.737   3.456 -0.2945  0.3148  0.4621
   81SLPC   O11 7512   0.788   4.802   3.686 -0.3483 -0.0439 -0.7312
   81SLPC    C1 7513   0.684   4.886   3.732  0.5144  0.1243  0.4875
   81SLPC    HA 7514   0.718   4.944   3.821 -0.4208  1.0795  0.2477
   81SLPC    HB 7515   0.652   4.956   3.652  0.4021 -2.2962 -1.6984
   81SLPC    C2 7516   0.563   4.794   3.768 -0.4132 -0.2542 -0.4687
   81SLPC    HS 7517   0.532   4.745   3.673  2.1375 -0.4606 -1.2752
   81SLPC   O21 7518   0.469   4.880   3.838  0.3241 -0.9446  0.5351
   81SLPC   C21 7519   0.348   4.840   3.823 -0.1859 -0.0732  0.5578
   81SLPC   O22 7520   0.311   4.739   3.762  0.1212  0.1937 -0.2779
   81SLPC   C22 7521   0.252   4.936   3.884 -0.2676 -0.0530 -0.3630
   81SLPC   H2R 7522   0.254   5.041   3.848 -0.9440  0.2346  0.4066
   81SLPC   H2S 7523   0.152   4.894   3.860  0.1762 -0.1768 -2.1647
   81SLPC    C3 7524   0.613   4.688   3.869  0.1539  0.1056  0.3911
   81SLPC    HX 7525   0.669   4.745   3.946  2.2990 -0.1148 -0.8998
   81SLPC    HY 7526   0.688   4.627   3.814 -0.3331 -1.4798  1.4101
   81SLPC   O31 7527   0.513   4.603   3.934  0.2389 -0.8044 -0.2659
   81SLPC   C31 7528   0.457   4.512   3.859 -0.1108 -1.0184  0.2281
   81SLPC   O32 7529   0.485   4.494   3.744 -0.0570 -0.4305 -0.2319
   81SLPC   C32 7530   0.352   4.436   3.940  0.2720  0.0092 -0.0961
   81SLPC   H2X 7531   0.286   4.382   3.868  1.8899 -3.4249  0.7940
   81SLPC   H2Y 7532   0.297   4.517   3.993  1.7140 -0.3882  2.1366
   81SLPC   C23 7533   0.261   4.951   4.038 -0.4115 -0.5731  0.7409
   81SLPC   H3R 7534   0.173   5.005   4.081  0.7489  1.1540  1.0457
   81SLPC   H3S 7535   0.352   5.010   4.059  0.6494 -1.9588  0.1863
   81SLPC   C24 7536   0.276   4.821   4.106 -0.2601  0.3120 -0.7524
   81SLPC   H4R 7537   0.377   4.776   4.092  1.5768  4.3245 -2.0160
   81SLPC   H4S 7538   0.214   4.749   4.050  1.7861 -1.1925 -1.2319
   81SLPC   C25 7539   0.241   4.833   4.253  0.0299 -0.0758  0.2716
   81SLPC   H5R 7540   0.140   4.876   4.274 -0.8863 -1.1379 -1.6295
   81SLPC   H5S 7541   0.305   4.916   4.290  0.2767  0.6652 -1.6864
   81SLPC   C26 7542   0.277   4.709   4.332 -0.5141 -0.9184  0.0551
   81SLPC   H6R 7543   0.384   4.682   4.342 -0.7890 -1.1893  3.4166
   81SLPC   H6S 7544   0.218   4.622   4.293 -0.6646  0.2423 -2.4818
   81SLPC   C27 7545   0.245   4.743   4.482  0.0046  0.1707  0.2918
   81SLPC   H7R 7546   0.139   4.771   4.498  0.0066  1.1450 -1.1688
   81SLPC   H7S 7547   0.307   4.834   4.502 -0.3813  0.8845 -1.5414
   81SLPC   C28 7548   0.296   4.641   4.584 -0.0025  0.5796  0.1875
   81SLPC   H8R 7549   0.407   4.640   4.583  0.0476  1.4190  1.6322
   81SLPC   H8S 7550   0.271   4.540   4.543 -3.4777  1.5716 -0.5123
   81SLPC   C29 7551   0.248   4.660   4.721  0.3175 -0.0908 -0.2142
   81SLPC   H9R 7552   0.153   4.606   4.734  1.0652 -1.4263 -0.0564
   81SLPC  C210 7553   0.293   4.725   4.829 -0.6435 -0.4111  0.0270
   81SLPC  H10R 7554   0.247   4.729   4.929  0.5105  0.1745  0.5612
   81SLPC  C211 7555   0.416   4.806   4.829 -0.6964 -0.8932 -0.0708
   81SLPC  H11R 7556   0.492   4.770   4.757  0.4518  1.8047 -0.3207
   81SLPC  H11S 7557   0.451   4.801   4.934  0.3800  0.4163 -0.3299
   81SLPC  C212 7558   0.385   4.952   4.805 -0.3278 -0.1362 -0.0572
   81SLPC  H12R 7559   0.422   4.984   4.707  3.0632  1.8808  1.6938
   81SLPC  C213 7560   0.335   5.049   4.882 -0.0077  0.4513 -0.0784
   81SLPC  H13R 7561   0.325   5.146   4.831  2.3923  1.0580  0.4798
   81SLPC  C214 7562   0.276   5.032   5.015  0.4173 -0.6522 -0.4431
   81SLPC  H14R 7563   0.300   4.929   5.051 -0.2533 -1.2011 -1.5366
   81SLPC  H14S 7564   0.167   5.038   4.997  0.3135 -1.8289 -0.2952
   81SLPC  C215 7565   0.321   5.146   5.113 -0.4192  0.4543  0.0290
   81SLPC  H15R 7566   0.426   5.181   5.106 -0.8617  1.5039 -1.8199
   81SLPC  H15S 7567   0.316   5.085   5.206 -1.5399  0.0599 -0.2731
   81SLPC  C216 7568   0.225   5.263   5.126  0.2379  0.0648  0.5668
   81SLPC  H16R 7569   0.257   5.321   5.216  0.8801  0.7979 -0.1218
   81SLPC  H16S 7570   0.121   5.225   5.137  0.1954  0.5186  2.0018
   81SLPC  C217 7571   0.231   5.361   5.007 -0.1595 -0.1515 -0.0941
   81SLPC  H17R 7572   0.188   5.320   4.914 -0.7979 -1.7276  0.8520
   81SLPC  H17S 7573   0.338   5.387   4.990 -0.0905 -1.5413 -2.1666
   81SLPC  C218 7574   0.167   5.496   5.036 -0.0037  0.2127  0.3756
   81SLPC  H18R 7575   0.062   5.477   5.067 -0.1343  1.5550  0.7825
   81SLPC  H18S 7576   0.178   5.564   4.948  1.9073 -0.4381  0.0550
   81SLPC  H18T 7577   0.208   5.537   5.130  1.4465 -1.6552  0.6293
   81SLPC   C33 7578   0.414   4.341   4.044  0.5436  0.3807  0.2494
   81SLPC   H3X 7579   0.508   4.385   4.083 -1.1822  4.0940  0.6385
   81SLPC   H3Y 7580   0.456   4.255   3.989 -0.4737 -0.5451  0.8653
   81SLPC   C34 7581   0.316   4.293   4.153 -0.4101 -0.3222  0.7038
   81SLPC   H4X 7582   0.247   4.224   4.100 -0.7116  1.1914 -0.9748
   81SLPC   H4Y 7583   0.256   4.382   4.183 -1.2191 -0.8589  0.6925
   81SLPC   C35 7584   0.372   4.220   4.272 -0.0088  0.3183 -0.1401
   81SLPC   H5X 7585   0.409   4.288   4.352  2.0129  2.3788 -2.6471
   81SLPC   H5Y 7586   0.457   4.159   4.235 -0.2907 -0.8672  1.0910
   81SLPC   C36 7587   0.267   4.123   4.337  0.4939 -0.6392 -0.1004
   81SLPC   H6X 7588   0.227   4.047   4.267 -1.1589 -2.0142  2.2060
   81SLPC   H6Y 7589   0.184   4.188   4.372 -0.7752 -2.3231  0.1400
   81SLPC   C37 7590   0.326   4.050   4.459  0.0892 -0.1414  0.3414
   81SLPC   H7X 7591   0.413   3.990   4.426  0.0336  0.0502 -0.1703
   81SLPC   H7Y 7592   0.256   3.977   4.506  2.3796 -1.2298  2.2386
   81SLPC   C38 7593   0.373   4.145   4.579 -0.1906  0.3247  0.3238
   81SLPC   H8X 7594   0.293   4.218   4.605 -0.7346  0.0124 -0.4210
   81SLPC   H8Y 7595   0.461   4.197   4.534 -0.3514  0.6903  0.4238
   81SLPC   C39 7596   0.420   4.061   4.693 -0.2428  0.3678 -0.5138
   81SLPC   H9X 7597   0.513   4.103   4.736 -0.5852  0.5596  0.0535
   81SLPC   H9Y 7598   0.440   3.957   4.659 -0.0865  0.4976 -0.8233
   81SLPC  C310 7599   0.324   4.051   4.813  0.2100 -0.4344 -0.0592
   81SLPC  H10X 7600   0.341   3.963   4.879 -2.9534 -0.4586  0.9164
   81SLPC  H10Y 7601   0.230   4.027   4.759 -0.7157  0.2592  1.2008
   81SLPC  C311 7602   0.295   4.178   4.892 -0.0070 -0.5277  0.7335
   81SLPC  H11X 7603   0.288   4.258   4.816  1.7488 -0.8404  0.1844
   81SLPC  H11Y 7604   0.386   4.198   4.953 -0.1040 -1.7257  1.2990
   81SLPC  C312 7605   0.176   4.183   4.986  0.9686  0.5391  0.7295
   81SLPC  H12X 7606   0.175   4.087   5.042  1.5688  0.7836  1.1810
   81SLPC  H12Y 7607   0.085   4.204   4.927  2.6325 -0.3850 -2.4027
   81SLPC  C313 7608   0.183   4.305   5.081  0.3561 -0.7818  0.3953
   81SLPC  H13X 7609   0.263   4.298   5.157 -1.0548 -3.1026  1.8029
   81SLPC  H13Y 7610   0.087   4.318   5.136  0.5751  0.6857  0.4826
   81SLPC  C314 7611   0.207   4.448   5.016  0.2270  0.5353 -0.0230
   81SLPC  H14X 7612   0.141   4.468   4.930  0.3009  1.5407  0.1410
   81SLPC  H14Y 7613   0.310   4.444   4.974  1.1083 -1.4144  2.1236
   81SLPC  C315 7614   0.197   4.553   5.122 -0.1237 -0.2880 -0.3432
   81SLPC  H15X 7615   0.115   4.520   5.189  0.1227 -0.6528 -0.2177
   81SLPC  H15Y 7616   0.162   4.648   5.077  0.3279 -0.7047 -1.6069
   81SLPC  C316 7617   0.323   4.578   5.207 -0.4883  0.3714 -0.3722
   81SLPC  H16X 7618   0.397   4.632   5.143 -2.4427  1.5445 -1.7512
   81SLPC  H16Y 7619   0.374   4.483   5.235  1.1561  1.0359 -0.9834
   81SLPC  C317 7620   0.301   4.658   5.336 -0.6219 -0.9352  0.0381
   81SLPC  H17X 7621   0.391   4.710   5.375 -2.5310  2.0583  0.7811
   81SLPC  H17Y 7622   0.273   4.586   5.416  1.8318  0.4917  2.3681
   81SLPC  C318 7623   0.196   4.769   5.327  0.0486 -0.1089 -0.5043
   81SLPC  H18X 7624   0.214   4.851   5.399  0.9057  0.0663 -0.9045
   81SLPC  H18Y 7625   0.097   4.728   5.356 -0.3781  0.4442 -1.1537
   81SLPC  H18Z 7626   0.186   4.810   5.225  1.8848  1.0360 -0.2732
   82SLPC     N 7627   3.691   3.520   2.434  0.2327 -0.1259 -0.6863
   82SLPC   C13 7628   3.580   3.572   2.344 -0.7983  0.0880  0.1330
   82SLPC  H13A 7629   3.489   3.515   2.354 -0.7786  0.1598  0.8207
   82SLPC  H13B 7630   3.558   3.675   2.371 -1.0771  0.3127 -0.8961
   82SLPC  H13C 7631   3.619   3.573   2.243  2.1091 -3.3223  0.9964
   82SLPC   C14 7632   3.725   3.383   2.389  0.0891  0.6677  0.6871
   82SLPC  H14A 7633   3.817   3.349   2.435  1.1767  2.3669 -0.1048
   82SLPC  H14B 7634   3.648   3.313   2.417  0.6315 -0.2295  0.0209
   82SLPC  H14C 7635   3.737   3.388   2.282  1.6495  5.4906  0.8771
   82SLPC   C15 7636   3.648   3.533   2.582  0.5529  0.4585  0.1770
   82SLPC  H15A 7637   3.624   3.630   2.625  2.2756 -0.6596  4.1016
   82SLPC  H15B 7638   3.565   3.466   2.599 -0.5337  1.9234  0.9298
   82SLPC  H15C 7639   3.736   3.500   2.634  0.1994 -1.9017 -0.6393
   82SLPC   C12 7640   3.817   3.603   2.418  0.3204  0.2438  0.5126
   82SLPC  H12A 7641   3.809   3.700   2.465  1.4762  1.2250 -1.1999
   82SLPC  H12B 7642   3.832   3.623   2.314  3.1309 -0.4242  0.6938
   82SLPC   C11 7643   3.950   3.539   2.468  0.4518 -0.0035 -0.6548
   82SLPC  H11A 7644   4.035   3.610   2.462  0.8447 -0.6019 -3.3643
   82SLPC  H11B 7645   3.980   3.455   2.403  0.1246 -0.0942 -0.6920
   82SLPC     P 7646   4.035   3.392   2.667  0.4883  0.0173 -0.5160
   82SLPC   O13 7647   4.058   3.272   2.580 -0.4904 -0.3684 -0.2810
   82SLPC   O14 7648   4.157   3.466   2.691 -0.6206  0.6265  0.1347
   82SLPC   O12 7649   3.935   3.496   2.603  0.1404 -0.4710  0.9446
   82SLPC   O11 7650   3.972   3.347   2.801  1.2084 -0.7826  0.4818
   82SLPC    C1 7651   3.829   3.335   2.808  0.0861 -0.0567 -0.5686
   82SLPC    HA 7652   3.774   3.429   2.790 -2.1139 -1.0387  0.6540
   82SLPC    HB 7653   3.790   3.255   2.741 -1.6676  0.2186  0.0722
   82SLPC    C2 7654   3.800   3.308   2.958 -0.9350 -0.2440 -0.4930
   82SLPC    HS 7655   3.692   3.331   2.971 -0.7328  1.3826 -1.4692
   82SLPC   O21 7656   3.879   3.393   3.042 -0.6285 -0.4725  0.0539
   82SLPC   C21 7657   3.853   3.523   3.050 -0.0984  0.1085  0.1197
   82SLPC   O22 7658   3.768   3.582   2.987  0.3513 -0.6413  0.0499
   82SLPC   C22 7659   3.952   3.588   3.150 -0.0262  0.1271 -0.0770
   82SLPC   H2R 7660   4.057   3.557   3.131  0.1818  0.8990 -0.2412
   82SLPC   H2S 7661   3.956   3.698   3.132  3.4772  0.2162  0.5452
   82SLPC    C3 7662   3.840   3.156   3.000  0.4892 -0.1834 -0.6910
   82SLPC    HX 7663   3.950   3.162   2.990  0.5311  2.2892  0.5136
   82SLPC    HY 7664   3.783   3.091   2.931 -2.3971  2.9024 -1.4649
   82SLPC   O31 7665   3.805   3.136   3.143 -0.5219  0.6167 -0.4998
   82SLPC   C31 7666   3.882   3.042   3.205 -0.1087  0.6419 -0.3602
   82SLPC   O32 7667   3.973   2.976   3.160  0.1418 -0.3919  0.1806
   82SLPC   C32 7668   3.818   3.022   3.340  0.2248  0.6661 -0.1759
   82SLPC   H2X 7669   3.731   2.955   3.324  1.0570 -1.1778  2.4195
   82SLPC   H2Y 7670   3.771   3.115   3.379  1.8177 -0.8260  6.5041
   82SLPC   C23 7671   3.898   3.586   3.301 -0.3942  0.5096 -0.0380
   82SLPC   H3R 7672   3.908   3.483   3.340  0.6038 -0.5231 -2.7626
   82SLPC   H3S 7673   3.791   3.613   3.311 -0.1372  1.8444 -0.5996
   82SLPC   C24 7674   3.985   3.674   3.389 -0.0964 -0.0100 -0.6375
   82SLPC   H4R 7675   3.925   3.722   3.469  1.0255  0.2427  0.0813
   82SLPC   H4S 7676   4.014   3.764   3.330 -2.5763  2.0253  1.0187
   82SLPC   C25 7677   4.113   3.612   3.454  0.9695  0.0733 -0.4117
   82SLPC   H5R 7678   4.192   3.690   3.466  2.0058 -1.0184 -0.0104
   82SLPC   H5S 7679   4.152   3.555   3.367 -3.0315 -1.6174 -1.2989
   82SLPC   C26 7680   4.083   3.520   3.574 -0.4551  0.3628  0.0768
   82SLPC   H6R 7681   4.158   3.442   3.600 -1.7684 -0.4370  1.6253
   82SLPC   H6S 7682   3.996   3.463   3.534 -0.2720  1.5692 -2.1984
   82SLPC   C27 7683   4.046   3.593   3.698 -0.3942  0.3796 -0.1469
   82SLPC   H7R 7684   3.952   3.652   3.689 -0.7320  0.0372  0.9044
   82SLPC   H7S 7685   4.128   3.667   3.713  2.0376 -2.1235 -0.4798
   82SLPC   C28 7686   4.019   3.509   3.822 -0.3782  0.0919  0.1372
   82SLPC   H8R 7687   3.938   3.435   3.805 -0.5380  0.3347 -0.1759
   82SLPC   H8S 7688   3.969   3.581   3.891 -0.8899 -0.4666  0.3651
   82SLPC   C29 7689   4.139   3.443   3.895  0.8329 -0.1458 -0.4273
   82SLPC   H9R 7690   4.216   3.401   3.829  0.3264 -3.8556  1.1192
   82SLPC  C210 7691   4.154   3.421   4.030 -0.0431  0.0157 -0.2059
   82SLPC  H10R 7692   4.243   3.371   4.069  0.1175  2.3007  2.6627
   82SLPC  C211 7693   4.060   3.471   4.135 -0.2929  0.7186  0.6131
   82SLPC  H11R 7694   3.977   3.532   4.094 -1.1756 -1.2569 -0.7030
   82SLPC  H11S 7695   4.123   3.546   4.187  1.9899 -0.8584  0.3022
   82SLPC  C212 7696   4.026   3.366   4.234 -0.2668  0.3542  0.2199
   82SLPC  H12R 7697   4.109   3.311   4.281 -0.6965  0.3140  0.9358
   82SLPC  C213 7698   3.900   3.337   4.278 -0.1275  0.2575 -0.3599
   82SLPC  H13R 7699   3.883   3.255   4.349 -1.0152  0.1585 -0.6834
   82SLPC  C214 7700   3.773   3.398   4.220 -0.1365 -0.4353 -0.3969
   82SLPC  H14R 7701   3.735   3.336   4.136  1.6005  1.0529 -2.4023
   82SLPC  H14S 7702   3.800   3.501   4.188  0.0953 -0.0975  0.8512
   82SLPC  C215 7703   3.659   3.425   4.327 -0.1122  0.3362  0.0023
   82SLPC  H15R 7704   3.578   3.490   4.286 -0.8653  0.4020  1.5400
   82SLPC  H15S 7705   3.708   3.479   4.410 -0.4620  2.3928 -1.0661
   82SLPC  C216 7706   3.600   3.294   4.383 -1.0675  0.0727  0.1535
   82SLPC  H16R 7707   3.673   3.218   4.419 -0.5172  1.2326  1.5908
   82SLPC  H16S 7708   3.537   3.255   4.300 -0.2585 -0.8045 -0.0699
   82SLPC  C217 7709   3.507   3.323   4.500 -1.0858  0.0463  0.0255
   82SLPC  H17R 7710   3.560   3.393   4.568 -1.1043 -0.1071  0.1978
   82SLPC  H17S 7711   3.489   3.230   4.559 -1.6094  0.7078  0.9349
   82SLPC  C218 7712   3.366   3.380   4.465  0.1927  0.0006 -0.5637
   82SLPC  H18R 7713   3.316   3.386   4.564 -1.2253  2.5762 -1.3243
   82SLPC  H18S 7714   3.312   3.313   4.395  0.1866 -0.0748 -0.4870
   82SLPC  H18T 7715   3.377   3.484   4.428 -0.7726  0.8430  1.3318
   82SLPC   C33 7716   3.919   2.977   3.456  1.4885  0.2436  0.4337
   82SLPC   H3X 7717   3.984   2.901   3.409 -0.4027 -0.2704 -1.4672
   82SLPC   H3Y 7718   3.863   2.931   3.541  0.9466  0.3669  0.1461
   82SLPC   C34 7719   3.996   3.095   3.500 -0.3096  0.4184  0.6049
   82SLPC   H4X 7720   3.935   3.186   3.516 -2.6830 -0.8970 -0.3519
   82SLPC   H4Y 7721   4.075   3.120   3.427  0.8812 -2.6494  0.6781
   82SLPC   C35 7722   4.089   3.068   3.627  0.4448 -0.2451  0.3489
   82SLPC   H5X 7723   4.133   3.169   3.636  1.3759 -0.5147 -0.9091
   82SLPC   H5Y 7724   4.167   2.996   3.593  0.8715  0.2190  0.3358
   82SLPC   C36 7725   4.014   3.016   3.747 -0.4412  0.0220  0.5319
   82SLPC   H6X 7726   4.096   3.008   3.822  0.9171 -1.5055 -1.0190
   82SLPC   H6Y 7727   3.966   2.916   3.734 -2.4823  1.0942 -0.5244
   82SLPC   C37 7728   3.900   3.101   3.800 -0.0425 -0.1931  0.1036
   82SLPC   H7X 7729   3.816   3.120   3.731 -0.3847  0.5579  0.7159
   82SLPC   H7Y 7730   3.941   3.202   3.824 -0.6455 -0.2901  1.6549
   82SLPC   C38 7731   3.826   3.048   3.933  0.3183  0.3202 -0.0934
   82SLPC   H8X 7732   3.766   2.962   3.896  0.2393  0.8712 -1.2803
   82SLPC   H8Y 7733   3.757   3.129   3.967  2.4269  1.1653  2.4841
   82SLPC   C39 7734   3.925   3.024   4.052 -0.0607 -0.3988  0.1100
   82SLPC   H9X 7735   3.988   3.113   4.074 -0.3817 -0.4283  1.2210
   82SLPC   H9Y 7736   3.995   2.942   4.026  1.8090  1.6147 -1.5795
   82SLPC  C310 7737   3.838   2.980   4.177 -0.8118  0.0410 -0.5982
   82SLPC  H10X 7738   3.785   2.891   4.138 -2.2055  0.7862 -0.4919
   82SLPC  H10Y 7739   3.754   3.044   4.214 -1.3673  0.1119 -1.9135
   82SLPC  C311 7740   3.926   2.944   4.293 -0.2282 -1.1313  0.2157
   82SLPC  H11X 7741   3.952   3.029   4.359 -1.6572 -1.0446  0.6999
   82SLPC  H11Y 7742   4.024   2.892   4.281 -0.1975 -1.5225  1.9250
   82SLPC  C312 7743   3.848   2.863   4.403 -0.2044 -0.4546  0.5736
   82SLPC  H12X 7744   3.828   2.764   4.357 -0.4323 -0.6775  1.1462
   82SLPC  H12Y 7745   3.749   2.914   4.408  1.1360  2.2594  1.5562
   82SLPC  C313 7746   3.935   2.863   4.527 -0.0905 -0.1342 -0.3327
   82SLPC  H13X 7747   3.967   2.967   4.549  0.0677 -0.0395 -1.0111
   82SLPC  H13Y 7748   4.033   2.813   4.513  0.7810 -0.3119  4.4371
   82SLPC  C314 7749   3.866   2.794   4.639 -0.0411  0.9902 -0.5719
   82SLPC  H14X 7750   3.936   2.772   4.722 -1.7653  2.0153  1.2523
   82SLPC  H14Y 7751   3.844   2.688   4.614 -0.4216  0.9821 -0.2217
   82SLPC  C315 7752   3.728   2.862   4.688 -0.4313  0.1511 -0.1026
   82SLPC  H15X 7753   3.646   2.875   4.614  0.9615  0.7121 -1.6236
   82SLPC  H15Y 7754   3.754   2.966   4.716 -2.3867  1.0110 -1.2640
   82SLPC  C316 7755   3.674   2.798   4.812 -0.3911  0.8490  0.5657
   82SLPC  H16X 7756   3.759   2.774   4.879  0.1646  1.0056 -0.0706
   82SLPC  H16Y 7757   3.636   2.698   4.783  0.2669  0.1197  2.1209
   82SLPC  C317 7758   3.566   2.885   4.870  0.2855  0.0500 -0.3645
   82SLPC  H17X 7759   3.501   2.930   4.791  1.1735  1.4345 -0.3307
   82SLPC  H17Y 7760   3.609   2.973   4.921 -0.5180  2.2436 -3.2029
   82SLPC  C318 7761   3.487   2.801   4.968  0.1993  0.0753  0.5151
   82SLPC  H18X 7762   3.419   2.867   5.026 -2.0488 -1.2718 -0.4673
   82SLPC  H18Y 7763   3.551   2.737   5.032  0.0230 -0.7553 -0.1334
   82SLPC  H18Z 7764   3.426   2.732   4.907  2.3840 -0.6070 -1.0167
   83SLPC     N 7765   1.739   4.016   2.650  0.7645  0.2047  0.4403
   83SLPC   C13 7766   1.625   4.055   2.565 -0.0594  0.6464 -0.1241
   83SLPC  H13A 7767   1.618   4.163   2.569  0.7143  0.7458 -1.1500
   83SLPC  H13B 7768   1.640   4.033   2.461  0.7198 -0.8031  0.2674
   83SLPC  H13C 7769   1.531   4.016   2.602 -0.8344 -1.2585 -3.6919
   83SLPC   C14 7770   1.868   4.062   2.584  0.1391  0.9371 -0.4456
   83SLPC  H14A 7771   1.945   4.061   2.660 -0.9921 -0.1456  0.7348
   83SLPC  H14B 7772   1.886   3.999   2.498 -3.2726 -0.8664 -0.0317
   83SLPC  H14C 7773   1.870   4.163   2.547  1.3640  1.1049  0.0181
   83SLPC   C15 7774   1.742   3.866   2.663 -0.0008 -0.0683 -0.2739
   83SLPC  H15A 7775   1.765   3.806   2.576 -0.6250 -0.5120 -0.1412
   83SLPC  H15B 7776   1.812   3.825   2.733 -2.4388  0.0498  2.4279
   83SLPC  H15C 7777   1.645   3.839   2.703  0.1142  2.0545  1.5990
   83SLPC   C12 7778   1.719   4.076   2.792 -0.9331 -0.2192 -0.4244
   83SLPC  H12A 7779   1.738   4.182   2.777  0.0370 -0.2476  0.4534
   83SLPC  H12B 7780   1.801   4.040   2.852 -0.8453 -1.8783 -1.4903
   83SLPC   C11 7781   1.584   4.059   2.860  0.5872 -0.7993 -0.0045
   83SLPC  H11A 7782   1.496   4.099   2.804  1.0211 -0.3244 -0.3518
   83SLPC  H11B 7783   1.580   4.128   2.948 -1.9348  0.4803 -1.0020
   83SLPC     P 7784   1.504   3.883   3.043 -0.2869  0.1150 -0.0107
   83SLPC   O13 7785   1.363   3.930   3.043 -0.5333  0.1476  0.1790
   83SLPC   O14 7786   1.525   3.737   3.045  0.5271  0.2424 -0.0617
   83SLPC   O12 7787   1.564   3.925   2.903 -0.1355 -0.1946  0.1660
   83SLPC   O11 7788   1.599   3.952   3.141  0.6070 -0.5072  0.0362
   83SLPC    C1 7789   1.724   3.901   3.183  0.1367  0.2842 -0.1677
   83SLPC    HA 7790   1.786   3.873   3.096  3.1407 -3.0237  2.6865
   83SLPC    HB 7791   1.779   3.981   3.236  1.7036 -0.8612  0.0141
   83SLPC    C2 7792   1.721   3.789   3.285 -0.1948 -0.6944  0.2348
   83SLPC    HS 7793   1.675   3.702   3.232 -1.0401 -2.0259  2.9918
   83SLPC   O21 7794   1.628   3.813   3.396  0.7750 -0.0190 -0.0105
   83SLPC   C21 7795   1.593   3.717   3.471  0.4923 -0.0449 -0.6936
   83SLPC   O22 7796   1.601   3.601   3.435  0.3306 -0.1232  0.3464
   83SLPC   C22 7797   1.540   3.780   3.605  0.2451 -0.9504 -0.4317
   83SLPC   H2R 7798   1.586   3.879   3.622  0.0545 -1.1404  1.3410
   83SLPC   H2S 7799   1.431   3.792   3.587  0.6648  2.1402 -1.4905
   83SLPC    C3 7800   1.858   3.733   3.315 -0.4268 -0.5352 -0.3746
   83SLPC    HX 7801   1.906   3.704   3.219  0.3137 -1.4299  0.2493
   83SLPC    HY 7802   1.853   3.641   3.378  2.2911  0.3114  1.2594
   83SLPC   O31 7803   1.952   3.823   3.377  0.0283 -0.1197 -0.3338
   83SLPC   C31 7804   1.953   3.835   3.506 -0.2775  0.4475 -0.8368
   83SLPC   O32 7805   1.869   3.788   3.582  0.0798  0.1334 -0.1322
   83SLPC   C32 7806   2.056   3.949   3.546  0.0345  0.2106 -0.0179
   83SLPC   H2X 7807   2.103   3.973   3.448  0.8860 -2.3085 -0.3076
   83SLPC   H2Y 7808   2.139   3.902   3.602  1.6774  0.7955 -1.8500
   83SLPC   C23 7809   1.567   3.689   3.726 -1.2476 -0.5378 -0.1484
   83SLPC   H3R 7810   1.676   3.683   3.744 -1.4300  0.7480  1.6785
   83SLPC   H3S 7811   1.547   3.581   3.708  1.1478 -0.8976 -1.0121
   83SLPC   C24 7812   1.496   3.736   3.852 -0.1420 -0.1839 -0.2660
   83SLPC   H4R 7813   1.501   3.846   3.848  0.3293 -0.0732  2.1920
   83SLPC   H4S 7814   1.559   3.695   3.934 -1.0275  0.3239  0.6770
   83SLPC   C25 7815   1.348   3.690   3.874  0.0927  0.4817  0.3165
   83SLPC   H5R 7816   1.283   3.695   3.784 -0.1445 -3.2586  0.1064
   83SLPC   H5S 7817   1.306   3.756   3.953 -2.9784 -0.7840 -0.1230
   83SLPC   C26 7818   1.340   3.539   3.922 -0.4561  0.9770 -0.2014
   83SLPC   H6R 7819   1.371   3.528   4.028 -0.3155 -3.0179 -0.5140
   83SLPC   H6S 7820   1.413   3.485   3.858  0.3810  2.3306 -0.4370
   83SLPC   C27 7821   1.192   3.488   3.903 -0.1734 -0.6526  0.0746
   83SLPC   H7R 7822   1.170   3.499   3.794  0.4115  1.7222  0.1379
   83SLPC   H7S 7823   1.114   3.544   3.960 -0.4975  0.1453 -1.1054
   83SLPC   C28 7824   1.175   3.337   3.928 -0.0935 -0.6061 -0.0752
   83SLPC   H8R 7825   1.217   3.314   4.028  0.9732  1.9316  0.1382
   83SLPC   H8S 7826   1.234   3.281   3.852 -0.9395  0.0576 -1.2573
   83SLPC   C29 7827   1.033   3.291   3.921 -0.0442 -0.4734  0.8823
   83SLPC   H9R 7828   0.974   3.332   3.838 -1.2699  0.6470  2.2495
   83SLPC  C210 7829   0.959   3.223   4.009  0.0330  0.8998 -0.2831
   83SLPC  H10R 7830   0.853   3.204   3.989 -0.4077  0.7229  1.9539
   83SLPC  C211 7831   1.003   3.151   4.136 -0.3751 -0.3898 -0.4936
   83SLPC  H11R 7832   1.113   3.137   4.142 -0.1867  0.8388 -0.7371
   83SLPC  H11S 7833   0.960   3.049   4.146 -0.6837 -0.0909  1.9883
   83SLPC  C212 7834   0.975   3.240   4.255 -0.0418  0.5008  0.1420
   83SLPC  H12R 7835   1.015   3.339   4.232 -0.8314  0.1699 -3.2527
   83SLPC  C213 7836   0.924   3.206   4.373 -0.4102  0.1212 -0.4676
   83SLPC  H13R 7837   0.902   3.288   4.443  1.0852  1.3357 -1.3551
   83SLPC  C214 7838   0.886   3.063   4.406 -0.3162  0.2914  0.1586
   83SLPC  H14R 7839   0.867   2.994   4.321  1.9296  0.5755 -0.6539
   83SLPC  H14S 7840   0.795   3.069   4.469 -1.4065 -1.2529 -1.1915
   83SLPC  C215 7841   0.998   3.000   4.502  0.8310 -0.6684  0.5006
   83SLPC  H15R 7842   0.998   3.072   4.587 -0.0939 -0.6091  0.4577
   83SLPC  H15S 7843   1.091   3.008   4.442  1.0377 -1.0207  0.7690
   83SLPC  C216 7844   0.976   2.857   4.553 -0.2907  0.1820 -0.4670
   83SLPC  H16R 7845   0.875   2.839   4.595 -0.9116  0.1008 -1.9340
   83SLPC  H16S 7846   1.045   2.830   4.635 -1.9348 -2.2561  0.2163
   83SLPC  C217 7847   1.013   2.752   4.439 -0.9179 -0.2128  0.3094
   83SLPC  H17R 7848   1.122   2.770   4.422 -0.8845  0.5724  1.2562
   83SLPC  H17S 7849   0.966   2.782   4.343  2.2257  2.7820 -0.5006
   83SLPC  C218 7850   0.971   2.611   4.467 -0.5835 -0.5605  0.0147
   83SLPC  H18R 7851   1.042   2.568   4.541 -2.1120 -0.8311  1.3848
   83SLPC  H18S 7852   0.972   2.555   4.371  1.6781 -2.1054  0.8557
   83SLPC  H18T 7853   0.865   2.611   4.500 -1.8079  1.4350 -3.3929
   83SLPC   C33 7854   1.990   4.070   3.612  0.2068 -0.0425  0.5919
   83SLPC   H3X 7855   1.908   4.114   3.551 -2.9791 -3.1042  2.3152
   83SLPC   H3Y 7856   2.074   4.143   3.624  1.7890 -1.9815  1.9612
   83SLPC   C34 7857   1.911   4.032   3.740 -0.2691 -0.3679  0.1131
   83SLPC   H4X 7858   1.980   3.978   3.808 -2.1397 -3.4301 -0.2463
   83SLPC   H4Y 7859   1.820   3.969   3.735 -1.1837  0.9528 -0.6301
   83SLPC   C35 7860   1.867   4.160   3.820 -0.1927 -0.3784  0.0635
   83SLPC   H5X 7861   1.806   4.216   3.745 -0.5729 -2.1564 -1.0150
   83SLPC   H5Y 7862   1.957   4.225   3.830 -0.4944  0.3849 -1.7893
   83SLPC   C36 7863   1.800   4.136   3.959 -0.2839  0.3993 -0.3792
   83SLPC   H6X 7864   1.869   4.065   4.009  0.3211  0.7556 -0.6900
   83SLPC   H6Y 7865   1.705   4.080   3.950  0.8159 -1.4991 -0.6499
   83SLPC   C37 7866   1.794   4.261   4.056  0.2491 -0.0748  0.5321
   83SLPC   H7X 7867   1.726   4.335   4.009 -0.1017  0.8918  2.4382
   83SLPC   H7Y 7868   1.898   4.299   4.060 -0.1327  1.2946 -1.3338
   83SLPC   C38 7869   1.739   4.231   4.196 -0.4487  0.7574  0.2444
   83SLPC   H8X 7870   1.800   4.146   4.234 -1.1157  1.8230  4.1430
   83SLPC   H8Y 7871   1.636   4.194   4.175 -0.1666  0.2870 -0.3658
   83SLPC   C39 7872   1.732   4.344   4.296 -1.0281 -0.0373 -0.0290
   83SLPC   H9X 7873   1.653   4.419   4.273 -2.8528 -2.2722 -1.4996
   83SLPC   H9Y 7874   1.836   4.382   4.306 -1.0795  0.0966 -0.0017
   83SLPC  C310 7875   1.691   4.301   4.437 -0.5143  0.2601 -0.6737
   83SLPC  H10X 7876   1.732   4.200   4.457 -2.2425 -0.3737 -0.1790
   83SLPC  H10Y 7877   1.582   4.283   4.428 -0.3032 -0.9162 -0.9856
   83SLPC  C311 7878   1.733   4.401   4.545  0.0207 -0.1469 -0.2977
   83SLPC  H11X 7879   1.654   4.479   4.541 -0.1431 -0.3454 -1.2459
   83SLPC  H11Y 7880   1.837   4.437   4.533  0.2753 -1.4165 -2.6708
   83SLPC  C312 7881   1.735   4.330   4.683 -0.0332 -0.1632  0.0615
   83SLPC  H12X 7882   1.783   4.400   4.754  0.0578  2.9708 -2.8670
   83SLPC  H12Y 7883   1.800   4.240   4.675  1.5266  0.9018  0.2310
   83SLPC  C313 7884   1.596   4.296   4.720  0.2502  0.2730  0.5059
   83SLPC  H13X 7885   1.560   4.215   4.653  1.7455  1.3129 -1.7028
   83SLPC  H13Y 7886   1.521   4.376   4.703 -0.9544 -0.9879 -0.3648
   83SLPC  C314 7887   1.587   4.248   4.871  0.0167 -0.3169 -0.0944
   83SLPC  H14X 7888   1.607   4.332   4.941  0.6644  1.3548 -2.1619
   83SLPC  H14Y 7889   1.654   4.164   4.897 -1.0889 -0.9169  0.8936
   83SLPC  C315 7890   1.450   4.190   4.897  0.1856 -0.0425 -0.0091
   83SLPC  H15X 7891   1.431   4.102   4.831 -0.2998 -0.8668  1.1850
   83SLPC  H15Y 7892   1.374   4.263   4.863 -0.6075 -0.0775  1.5943
   83SLPC  C316 7893   1.427   4.154   5.046 -0.8546  0.4108  0.1448
   83SLPC  H16X 7894   1.332   4.096   5.044 -0.3645 -0.4024 -0.0675
   83SLPC  H16Y 7895   1.417   4.241   5.114 -0.4963 -0.4471  1.3088
   83SLPC  C317 7896   1.536   4.061   5.106  0.7722 -0.3693  0.3520
   83SLPC  H17X 7897   1.633   4.114   5.119  0.8737 -0.5759  0.4329
   83SLPC  H17Y 7898   1.553   3.969   5.046  2.5664 -1.0938  1.8972
   83SLPC  C318 7899   1.500   4.017   5.249 -0.3570 -0.1691  0.3290
   83SLPC  H18X 7900   1.416   3.944   5.244  1.5113 -2.7412  2.8357
   83SLPC  H18Y 7901   1.469   4.101   5.314 -0.0550  1.1402 -1.1818
   83SLPC  H18Z 7902   1.585   3.964   5.299 -0.3901 -0.1884  0.3655
   84SLPC     N 7903   5.415   3.165   2.839  0.2756 -1.1265  0.1418
   84SLPC   C13 7904   5.291   3.115   2.918  0.2209  0.1249  0.0085
   84SLPC  H13A 7905   5.210   3.183   2.899 -0.7107 -1.0838 -0.4236
   84SLPC  H13B 7906   5.265   3.014   2.890  0.7555 -0.3033  0.9816
   84SLPC  H13C 7907   5.316   3.111   3.023 -2.1554  0.0088  0.6202
   84SLPC   C14 7908   5.388   3.179   2.697 -0.1840  0.5100  0.1448
   84SLPC  H14A 7909   5.311   3.250   2.668 -0.2674  0.4070  0.1093
   84SLPC  H14B 7910   5.475   3.207   2.640 -0.5396  0.5856 -0.3758
   84SLPC  H14C 7911   5.367   3.087   2.644 -0.1714  0.4388  0.2642
   84SLPC   C15 7912   5.526   3.067   2.848 -0.2492 -0.2259  0.7129
   84SLPC  H15A 7913   5.549   3.049   2.953 -0.1024  0.8404  0.8800
   84SLPC  H15B 7914   5.486   2.976   2.808  1.1301 -0.9771  0.9687
   84SLPC  H15C 7915   5.616   3.089   2.791 -0.9816 -0.2254 -0.4596
   84SLPC   C12 7916   5.455   3.295   2.902  0.5746 -1.1022  0.4292
   84SLPC  H12A 7917   5.551   3.329   2.866  1.1450 -2.0042  1.0746
   84SLPC  H12B 7918   5.494   3.285   3.002 -0.3479  3.5667  1.5126
   84SLPC   C11 7919   5.347   3.408   2.904  0.5176  0.0983 -0.3011
   84SLPC  H11A 7920   5.265   3.399   2.978  2.2903 -0.0496  1.7089
   84SLPC  H11B 7921   5.293   3.418   2.807  0.1499  1.8574  0.0537
   84SLPC     P 7922   5.497   3.608   2.824 -0.1212 -0.7182  0.0954
   84SLPC   O13 7923   5.559   3.520   2.722 -0.2193  0.1578  0.1609
   84SLPC   O14 7924   5.422   3.719   2.762 -0.0410 -0.1876 -0.1552
   84SLPC   O12 7925   5.417   3.533   2.937  0.4379  0.4605  0.1872
   84SLPC   O11 7926   5.609   3.671   2.909 -0.2223 -0.5231  0.2609
   84SLPC    C1 7927   5.671   3.612   3.016  0.1807 -0.1424  1.1367
   84SLPC    HA 7928   5.684   3.502   3.008 -2.2567 -0.5253  1.7853
   84SLPC    HB 7929   5.773   3.656   3.024 -0.3504  1.3152  0.3584
   84SLPC    C2 7930   5.605   3.639   3.156  0.2397 -0.8328  0.1874
   84SLPC    HS 7931   5.509   3.583   3.154  0.7274 -1.6758  0.0649
   84SLPC   O21 7932   5.589   3.789   3.166  0.5326  0.2578  0.2672
   84SLPC   C21 7933   5.494   3.822   3.249 -0.8567 -0.1034 -0.9470
   84SLPC   O22 7934   5.404   3.757   3.302 -0.9125  0.6430  0.3096
   84SLPC   C22 7935   5.512   3.970   3.291 -0.5272  0.2215 -0.0280
   84SLPC   H2R 7936   5.535   4.029   3.199 -0.4113  3.0802  1.6963
   84SLPC   H2S 7937   5.409   3.984   3.328 -0.9237 -1.6633 -0.3574
   84SLPC    C3 7938   5.696   3.588   3.277 -0.1664  0.2173 -0.7212
   84SLPC    HX 7939   5.786   3.654   3.283 -0.2918  0.2719  1.0301
   84SLPC    HY 7940   5.738   3.489   3.249 -2.0137  0.0217 -3.1020
   84SLPC   O31 7941   5.628   3.605   3.399 -0.1488  0.1632  0.5356
   84SLPC   C31 7942   5.565   3.500   3.451 -0.1759 -0.0641 -0.3140
   84SLPC   O32 7943   5.542   3.400   3.382  0.1795  0.7031 -0.0498
   84SLPC   C32 7944   5.529   3.531   3.595 -0.4724 -0.0103 -0.4739
   84SLPC   H2X 7945   5.587   3.621   3.626  0.8327 -0.5928 -1.1359
   84SLPC   H2Y 7946   5.561   3.452   3.666 -1.6382 -1.5006 -1.5526
   84SLPC   C23 7947   5.638   3.975   3.370 -0.0217  0.2529 -0.1044
   84SLPC   H3R 7948   5.676   4.079   3.375 -0.5918  0.4604  0.0564
   84SLPC   H3S 7949   5.721   3.912   3.332  0.4336  0.9464 -0.2806
   84SLPC   C24 7950   5.607   3.936   3.516 -0.1819  0.2927  0.6318
   84SLPC   H4R 7951   5.586   3.828   3.523 -0.3995  0.1783 -1.3564
   84SLPC   H4S 7952   5.517   3.993   3.546  0.1348  0.7783  0.6862
   84SLPC   C25 7953   5.722   3.967   3.621 -0.3620 -0.5058 -0.4744
   84SLPC   H5R 7954   5.765   4.070   3.613 -3.2053  0.6769 -2.1471
   84SLPC   H5S 7955   5.803   3.897   3.590 -1.5688 -2.1019 -0.1329
   84SLPC   C26 7956   5.697   3.935   3.770  0.4238 -0.7912  0.2336
   84SLPC   H6R 7957   5.648   3.835   3.770  1.8153 -1.5266  1.5593
   84SLPC   H6S 7958   5.629   4.013   3.809 -0.2686 -1.4942  0.4598
   84SLPC   C27 7959   5.812   3.904   3.858 -0.1122 -0.1187  0.5332
   84SLPC   H7R 7960   5.900   3.968   3.839  0.1933 -0.4577  0.7926
   84SLPC   H7S 7961   5.850   3.804   3.828 -0.9309 -0.4147  0.4421
   84SLPC   C28 7962   5.794   3.908   4.013 -0.3887 -0.2761 -0.3427
   84SLPC   H8R 7963   5.777   4.016   4.031  0.1765 -0.3413  0.6388
   84SLPC   H8S 7964   5.891   3.879   4.058 -0.5175 -3.0592 -1.6400
   84SLPC   C29 7965   5.680   3.828   4.062 -0.3741  0.7655  0.0637
   84SLPC   H9R 7966   5.596   3.811   3.992 -0.2582 -0.2755  0.1687
   84SLPC  C210 7967   5.672   3.779   4.188 -0.1286  0.3407 -0.4190
   84SLPC  H10R 7968   5.589   3.713   4.218 -0.0713 -0.4390 -1.8753
   84SLPC  C211 7969   5.772   3.808   4.296 -0.0618  0.5216  0.3161
   84SLPC  H11R 7970   5.727   3.825   4.396  2.4417 -2.3472  2.1474
   84SLPC  H11S 7971   5.812   3.909   4.272 -0.2515  0.7561  0.9632
   84SLPC  C212 7972   5.890   3.707   4.315 -0.0359  0.1767  0.2635
   84SLPC  H12R 7973   5.986   3.721   4.263 -0.9225 -0.3468 -1.5837
   84SLPC  C213 7974   5.875   3.599   4.394  0.1522  0.2134 -0.0152
   84SLPC  H13R 7975   5.969   3.550   4.423  1.9331  2.6966 -1.1840
   84SLPC  C214 7976   5.739   3.559   4.447 -0.2817  0.7368 -0.1905
   84SLPC  H14R 7977   5.734   3.448   4.455 -2.0913  0.8551  1.0464
   84SLPC  H14S 7978   5.662   3.591   4.374  0.5296  3.0763 -0.0938
   84SLPC  C215 7979   5.715   3.624   4.583  0.0715  0.4242  0.0867
   84SLPC  H15R 7980   5.613   3.590   4.610  0.8168 -0.3536  2.1070
   84SLPC  H15S 7981   5.719   3.734   4.566 -2.4677  0.3520 -1.6613
   84SLPC  C216 7982   5.806   3.569   4.696 -0.5086  0.7293  0.2399
   84SLPC  H16R 7983   5.897   3.632   4.707 -0.9174  1.6956 -1.6247
   84SLPC  H16S 7984   5.845   3.472   4.658 -0.6185  0.6265  0.3902
   84SLPC  C217 7985   5.737   3.538   4.826  0.2490  0.1723 -0.0458
   84SLPC  H17R 7986   5.822   3.503   4.889  0.1572  0.3320  0.1666
   84SLPC  H17S 7987   5.664   3.455   4.816 -1.1520  1.4144 -0.4436
   84SLPC  C218 7988   5.682   3.656   4.893 -0.0348  0.1285  0.1393
   84SLPC  H18R 7989   5.761   3.727   4.927 -0.1138  1.1270 -1.6496
   84SLPC  H18S 7990   5.618   3.619   4.976 -0.9872 -0.6942 -0.9346
   84SLPC  H18T 7991   5.620   3.727   4.835  0.9987  0.3595 -0.7108
   84SLPC   C33 7992   5.379   3.564   3.612  0.2257 -0.3725 -1.2256
   84SLPC   H3X 7993   5.310   3.477   3.608 -1.7153  1.0755 -0.4389
   84SLPC   H3Y 7994   5.342   3.629   3.530 -2.8114  0.1582  0.4363
   84SLPC   C34 7995   5.348   3.641   3.750  0.2204 -0.4198 -0.1901
   84SLPC   H4X 7996   5.237   3.639   3.749  0.2182 -2.4367 -0.0435
   84SLPC   H4Y 7997   5.377   3.749   3.752 -1.9541  0.2121  1.4809
   84SLPC   C35 7998   5.403   3.584   3.882 -0.3828  0.3774  0.0743
   84SLPC   H5X 7999   5.509   3.612   3.898 -0.5354  0.7376  0.4905
   84SLPC   H5Y 8000   5.398   3.473   3.881 -0.4995  0.3192  1.9390
   84SLPC   C36 8001   5.330   3.627   4.015  0.0228  0.7414  0.2367
   84SLPC   H6X 8002   5.220   3.615   4.002 -0.0830  2.1642 -0.3164
   84SLPC   H6Y 8003   5.347   3.736   4.030  0.9477  0.5459  0.7005
   84SLPC   C37 8004   5.369   3.543   4.141 -0.1490 -0.1899  0.0634
   84SLPC   H7X 8005   5.480   3.551   4.152 -0.0303 -2.2157  0.8025
   84SLPC   H7Y 8006   5.337   3.438   4.123  2.1643 -0.7196 -1.4079
   84SLPC   C38 8007   5.298   3.613   4.254  0.5659 -0.5837  0.3406
   84SLPC   H8X 8008   5.189   3.599   4.237  0.4691 -0.2361  0.6715
   84SLPC   H8Y 8009   5.317   3.721   4.266 -0.2015 -0.6131  2.0902
   84SLPC   C39 8010   5.343   3.545   4.380  0.1457 -0.1203 -0.0608
   84SLPC   H9X 8011   5.454   3.552   4.388  0.0357 -0.1700  2.0931
   84SLPC   H9Y 8012   5.311   3.439   4.378  0.9485 -0.4145  1.2528
   84SLPC  C310 8013   5.299   3.607   4.507  0.2009 -0.1907  0.2042
   84SLPC  H10X 8014   5.190   3.629   4.502  0.2183 -0.2442 -0.4807
   84SLPC  H10Y 8015   5.351   3.700   4.539 -0.6510  0.8753 -1.3934
   84SLPC  C311 8016   5.308   3.508   4.628  0.9867  0.7396  0.3308
   84SLPC  H11X 8017   5.402   3.448   4.629  1.0297  0.8086  0.7289
   84SLPC  H11Y 8018   5.229   3.433   4.606  2.6511 -0.9899  0.0316
   84SLPC  C312 8019   5.279   3.572   4.765 -0.0606  0.1643  0.6714
   84SLPC  H12X 8020   5.207   3.653   4.743  1.0739  0.7805 -1.0856
   84SLPC  H12Y 8021   5.368   3.622   4.810 -0.0202 -0.9244  1.8717
   84SLPC  C313 8022   5.223   3.473   4.864  0.8985 -1.1524  0.6486
   84SLPC  H13X 8023   5.284   3.380   4.863  0.6620 -1.4124  3.0779
   84SLPC  H13Y 8024   5.121   3.449   4.827 -0.1856  1.0733  1.9855
   84SLPC  C314 8025   5.220   3.525   5.011  0.8033 -0.1864 -0.1814
   84SLPC  H14X 8026   5.151   3.460   5.069  0.9627 -0.1778  0.0190
   84SLPC  H14Y 8027   5.177   3.627   5.017 -2.1757 -1.4379  2.6898
   84SLPC  C315 8028   5.352   3.531   5.083 -0.3721  0.1675  0.2436
   84SLPC  H15X 8029   5.322   3.552   5.188 -2.9585  0.8931 -0.5667
   84SLPC  H15Y 8030   5.416   3.614   5.048  0.4165  1.3000  3.9336
   84SLPC  C316 8031   5.431   3.404   5.095  0.2374 -0.3753 -0.2020
   84SLPC  H16X 8032   5.482   3.385   4.998 -1.2432  1.6234 -1.4531
   84SLPC  H16Y 8033   5.365   3.317   5.115  1.0557 -0.8937  0.3149
   84SLPC  C317 8034   5.535   3.405   5.209 -0.6195 -0.1136  0.3472
   84SLPC  H17X 8035   5.490   3.379   5.308  0.6779  1.0574  1.2885
   84SLPC  H17Y 8036   5.572   3.508   5.223 -0.2891  0.0958 -1.8358
   84SLPC  C318 8037   5.658   3.312   5.170 -0.0576 -0.2106  0.6850
   84SLPC  H18X 8038   5.723   3.366   5.098 -1.7969 -1.8066 -2.3129
   84SLPC  H18Y 8039   5.614   3.225   5.117  0.0426  0.5044 -0.6032
   84SLPC  H18Z 8040   5.720   3.281   5.257  0.1270  1.4995  1.1874
   85SLPC     N 8041   0.695   6.338   3.361  0.1974  0.8413  0.1142
   85SLPC   C13 8042   0.613   6.395   3.249  0.2535 -0.1937  0.2503
   85SLPC  H13A 8043   0.549   6.324   3.199  0.7495 -1.4481  1.3192
   85SLPC  H13B 8044   0.552   6.475   3.287  1.0486  0.5074  0.1064
   85SLPC  H13C 8045   0.676   6.437   3.172  0.8049 -0.8981  0.3010
   85SLPC   C14 8046   0.770   6.220   3.307  0.2418 -0.3823 -0.2698
   85SLPC  H14A 8047   0.825   6.251   3.219  0.2592 -3.0088 -1.2923
   85SLPC  H14B 8048   0.839   6.197   3.387 -0.5563  2.3084  1.3346
   85SLPC  H14C 8049   0.708   6.135   3.284  0.4834 -1.5731  2.9647
   85SLPC   C15 8050   0.595   6.281   3.464 -0.2573 -0.0523 -0.0018
   85SLPC  H15A 8051   0.661   6.236   3.537 -0.4736 -2.4891 -1.2202
   85SLPC  H15B 8052   0.533   6.362   3.500 -3.0796 -1.3457 -1.5715
   85SLPC  H15C 8053   0.534   6.205   3.418 -0.2910 -0.8051  1.2329
   85SLPC   C12 8054   0.790   6.439   3.420  0.2897 -0.4729  0.8796
   85SLPC  H12A 8055   0.746   6.535   3.442  1.6311  0.0715  1.2906
   85SLPC  H12B 8056   0.870   6.465   3.353 -0.3616  2.7704  1.1836
   85SLPC   C11 8057   0.852   6.406   3.554 -0.3420  0.2131 -0.1254
   85SLPC  H11A 8058   0.769   6.409   3.628  0.7222  2.4705  1.0817
   85SLPC  H11B 8059   0.917   6.488   3.592  3.1594 -0.7231 -3.4766
   85SLPC     P 8060   1.067   6.274   3.510  0.2202  0.3661  0.1007
   85SLPC   O13 8061   1.115   6.134   3.502  0.0418 -0.6823  0.6560
   85SLPC   O14 8062   1.076   6.358   3.392  0.3453  0.1277  0.3458
   85SLPC   O12 8063   0.919   6.276   3.565  0.0534 -0.5280  0.2283
   85SLPC   O11 8064   1.139   6.355   3.628 -0.2545  0.1123  0.3345
   85SLPC    C1 8065   1.231   6.459   3.597 -0.0422 -0.0520  0.3314
   85SLPC    HA 8066   1.292   6.433   3.508 -0.6969  1.3928 -0.5800
   85SLPC    HB 8067   1.178   6.549   3.559  1.8161  1.5546  1.4028
   85SLPC    C2 8068   1.314   6.489   3.728  0.1427  0.2984  0.1057
   85SLPC    HS 8069   1.360   6.392   3.757 -0.5107  0.6086  2.3384
   85SLPC   O21 8070   1.222   6.535   3.829 -0.2001 -0.4965 -0.2440
   85SLPC   C21 8071   1.246   6.486   3.959  0.7504 -0.2509  0.2438
   85SLPC   O22 8072   1.346   6.421   3.981 -0.0451 -0.4242 -0.6641
   85SLPC   C22 8073   1.130   6.520   4.049  0.1024  0.6015  0.6240
   85SLPC   H2R 8074   1.064   6.594   4.001 -0.6247  0.1806  0.9483
   85SLPC   H2S 8075   1.073   6.424   4.046 -1.1724  1.3639 -1.3617
   85SLPC    C3 8076   1.433   6.589   3.707  0.0631  0.0076 -0.4607
   85SLPC    HX 8077   1.385   6.682   3.668 -0.3765  0.2780  0.6725
   85SLPC    HY 8078   1.496   6.551   3.624  0.2566 -0.3854 -0.1315
   85SLPC   O31 8079   1.518   6.612   3.821 -0.0235  0.1209  0.0929
   85SLPC   C31 8080   1.518   6.731   3.875  0.2178  0.7915 -0.4765
   85SLPC   O32 8081   1.449   6.826   3.842 -0.3709  0.6893 -0.1347
   85SLPC   C32 8082   1.636   6.742   3.969 -0.3410 -0.2348 -0.2981
   85SLPC   H2X 8083   1.604   6.816   4.047  1.3698 -0.4951  0.6991
   85SLPC   H2Y 8084   1.716   6.776   3.901 -1.5241 -2.3454 -2.9002
   85SLPC   C23 8085   1.171   6.562   4.190 -0.0106  1.1866 -0.2130
   85SLPC   H3R 8086   1.226   6.477   4.237 -0.4154  0.3957 -1.1512
   85SLPC   H3S 8087   1.088   6.582   4.261  1.0765 -0.9865  1.7992
   85SLPC   C24 8088   1.257   6.687   4.197  0.7207  0.3439  0.3600
   85SLPC   H4R 8089   1.198   6.767   4.147  0.4232  0.2867  0.6185
   85SLPC   H4S 8090   1.347   6.674   4.134  1.5157 -0.8517  1.6944
   85SLPC   C25 8091   1.303   6.738   4.336  0.6164 -0.0651  0.2850
   85SLPC   H5R 8092   1.360   6.659   4.390 -0.6980 -0.5864  0.9638
   85SLPC   H5S 8093   1.369   6.826   4.324 -0.1170  0.2704 -1.4809
   85SLPC   C26 8094   1.186   6.793   4.419 -0.0619 -0.8552 -0.1768
   85SLPC   H6R 8095   1.115   6.710   4.440 -2.2917  1.3990  1.9264
   85SLPC   H6S 8096   1.119   6.862   4.364 -1.5139 -1.7250  0.4301
   85SLPC   C27 8097   1.223   6.844   4.560  0.7785  0.5252 -0.0161
   85SLPC   H7R 8098   1.290   6.933   4.556  0.4155  0.8424  0.7582
   85SLPC   H7S 8099   1.264   6.757   4.615 -0.3219  0.1084  0.1719
   85SLPC   C28 8100   1.098   6.886   4.638  0.1269  0.7485  0.0450
   85SLPC   H8R 8101   1.022   6.806   4.651 -0.6112  1.7135  2.0608
   85SLPC   H8S 8102   1.059   6.970   4.577  1.3164 -0.4233 -2.4736
   85SLPC   C29 8103   1.133   6.928   4.780 -0.0854 -0.4783  0.5701
   85SLPC   H9R 8104   1.134   7.037   4.797 -1.9031 -0.4466  0.6170
   85SLPC  C210 8105   1.131   6.847   4.887 -0.0143  0.1855 -1.0405
   85SLPC  H10R 8106   1.162   6.887   4.985 -0.0890 -0.0557 -0.9187
   85SLPC  C211 8107   1.099   6.694   4.894  0.0711 -0.5928 -0.6967
   85SLPC  H11R 8108   1.201   6.653   4.905  1.8238  2.3939 -3.6504
   85SLPC  H11S 8109   1.067   6.655   4.795 -0.8012  1.4798 -1.2792
   85SLPC  C212 8110   1.001   6.666   5.008  0.4086  0.1486 -0.0565
   85SLPC  H12R 8111   0.895   6.684   4.984  0.1433 -0.9891  0.1960
   85SLPC  C213 8112   1.030   6.612   5.123 -0.1306 -0.1153  0.2886
   85SLPC  H13R 8113   0.946   6.580   5.186 -0.6131 -0.8461 -0.6963
   85SLPC  C214 8114   1.167   6.569   5.160  0.6119 -0.4501 -0.1228
   85SLPC  H14R 8115   1.240   6.559   5.077  0.4716  0.0388 -0.3093
   85SLPC  H14S 8116   1.152   6.471   5.210 -1.9725 -0.8584 -1.5226
   85SLPC  C215 8117   1.220   6.664   5.272  1.0311  1.1073  0.6544
   85SLPC  H15R 8118   1.149   6.671   5.358 -1.2325  1.0306 -1.1075
   85SLPC  H15S 8119   1.245   6.766   5.234  1.3470  1.5376  1.9504
   85SLPC  C216 8120   1.344   6.604   5.335 -0.3037 -1.0961  0.7349
   85SLPC  H16R 8121   1.418   6.574   5.258  1.9368  1.3864  1.7510
   85SLPC  H16S 8122   1.321   6.513   5.394  0.3624 -1.7731 -0.0276
   85SLPC  C217 8123   1.419   6.702   5.438 -0.0519  0.5557  0.5419
   85SLPC  H17R 8124   1.341   6.711   5.517 -1.0583 -0.0360 -0.3506
   85SLPC  H17S 8125   1.430   6.800   5.388 -1.9765  1.7683  2.2942
   85SLPC  C218 8126   1.553   6.652   5.480 -0.7717 -0.0280 -0.3690
   85SLPC  H18R 8127   1.560   6.542   5.492 -0.3119 -0.1016 -1.1824
   85SLPC  H18S 8128   1.583   6.712   5.569  2.3962 -0.2073 -1.1789
   85SLPC  H18T 8129   1.634   6.671   5.406 -2.0453  0.3413 -1.7258
   85SLPC   C33 8130   1.689   6.611   4.030  0.1650  0.3153 -0.8354
   85SLPC   H3X 8131   1.749   6.555   3.955 -1.4929 -2.0864 -0.4847
   85SLPC   H3Y 8132   1.596   6.554   4.050  1.2917 -1.5348 -0.6202
   85SLPC   C34 8133   1.772   6.626   4.158 -0.5659  0.3830 -0.0389
   85SLPC   H4X 8134   1.862   6.690   4.143 -0.0180 -0.0777  1.1264
   85SLPC   H4Y 8135   1.807   6.525   4.188 -0.6105  0.2222 -0.5191
   85SLPC   C35 8136   1.686   6.693   4.275  0.0476 -0.6427  0.2781
   85SLPC   H5X 8137   1.589   6.640   4.281 -0.1572 -0.3837 -0.5472
   85SLPC   H5Y 8138   1.672   6.800   4.246  1.8662 -1.0488 -2.4510
   85SLPC   C36 8139   1.729   6.669   4.427 -0.9027 -1.0687 -0.7005
   85SLPC   H6X 8140   1.831   6.712   4.422  0.4369 -4.1620 -2.8250
   85SLPC   H6Y 8141   1.743   6.559   4.437 -0.9858 -1.2020 -1.8444
   85SLPC   C37 8142   1.638   6.750   4.519  0.1274 -0.4112 -0.6344
   85SLPC   H7X 8143   1.542   6.693   4.524  0.5488 -1.0356  1.6180
   85SLPC   H7Y 8144   1.630   6.855   4.484  2.5480  0.3290  0.7423
   85SLPC   C38 8145   1.700   6.756   4.659 -0.1258  0.2818  0.2480
   85SLPC   H8X 8146   1.794   6.812   4.675  1.2075 -2.0763  1.2710
   85SLPC   H8Y 8147   1.731   6.654   4.690 -0.9503 -0.0507  0.0169
   85SLPC   C39 8148   1.596   6.802   4.758  0.2904 -0.0872 -0.4494
   85SLPC   H9X 8149   1.509   6.734   4.754  0.1407 -0.0428  1.2752
   85SLPC   H9Y 8150   1.565   6.906   4.736  1.5739  1.1302  2.8680
   85SLPC  C310 8151   1.641   6.802   4.907 -0.0015 -0.1647 -0.3302
   85SLPC  H10X 8152   1.735   6.858   4.923  0.4279 -0.7496 -0.7482
   85SLPC  H10Y 8153   1.679   6.701   4.933  1.0770  0.7881  2.0997
   85SLPC  C311 8154   1.535   6.831   5.015  0.1824 -0.9090  0.2040
   85SLPC  H11X 8155   1.586   6.817   5.112 -1.4188 -0.1970  1.1844
   85SLPC  H11Y 8156   1.454   6.756   5.012 -1.6780  1.0282 -0.0264
   85SLPC  C312 8157   1.501   6.989   5.014  0.5348 -0.4829  0.4520
   85SLPC  H12X 8158   1.439   7.008   4.924  0.1903 -0.7088  0.6381
   85SLPC  H12Y 8159   1.596   7.045   5.000 -0.9799  1.6170 -2.3090
   85SLPC  C313 8160   1.421   7.047   5.130  0.3071 -0.3083  0.1206
   85SLPC  H13X 8161   1.481   7.052   5.223 -1.7179 -1.8306  1.5957
   85SLPC  H13Y 8162   1.334   6.981   5.149  0.0214 -0.2646 -0.9629
   85SLPC  C314 8163   1.364   7.194   5.104  0.2038 -0.2772 -0.1465
   85SLPC  H14X 8164   1.327   7.201   5.000  1.4256 -2.4990 -0.7985
   85SLPC  H14Y 8165   1.452   7.262   5.112  0.5316 -0.4745 -1.8028
   85SLPC  C315 8166   1.235   7.231   5.184 -0.5906  0.2739  0.2476
   85SLPC  H15X 8167   1.256   7.204   5.290  0.4801 -0.8291 -0.2150
   85SLPC  H15Y 8168   1.146   7.170   5.157  0.0502  0.4704 -2.5320
   85SLPC  C316 8169   1.210   7.379   5.166 -0.8708 -0.0370 -0.0711
   85SLPC  H16X 8170   1.234   7.428   5.069  0.7468 -0.1703  0.2393
   85SLPC  H16Y 8171   1.270   7.434   5.242  0.9512  1.2172 -2.2884
   85SLPC  C317 8172   1.061   7.404   5.193 -0.1144  0.2477  0.3660
   85SLPC  H17X 8173   1.008   7.308   5.173 -1.4337  0.8790  0.6944
   85SLPC  H17Y 8174   1.022   7.467   5.111  0.8385  0.1249 -0.1842
   85SLPC  C318 8175   1.015   7.456   5.324  0.6656 -0.7314 -0.5437
   85SLPC  H18X 8176   1.056   7.408   5.415 -0.5868 -0.3625  0.2389
   85SLPC  H18Y 8177   0.906   7.444   5.342  0.7289 -0.6645 -0.0984
   85SLPC  H18Z 8178   1.034   7.566   5.331 -1.2819 -0.4801  2.2069
   86SLPC     N 8179   4.006   1.756   3.210 -0.6449 -0.0128 -0.6819
   86SLPC   C13 8180   4.129   1.843   3.206 -0.3499 -0.6273  0.2204
   86SLPC  H13A 8181   4.205   1.789   3.152  0.6029  0.5125  0.3766
   86SLPC  H13B 8182   4.108   1.941   3.166 -0.4034  0.0233  1.7675
   86SLPC  H13C 8183   4.164   1.874   3.303  1.3505 -0.7485 -0.3224
   86SLPC   C14 8184   4.051   1.629   3.276  0.4367 -0.3321 -0.1574
   86SLPC  H14A 8185   4.081   1.656   3.376  2.8410  2.5565 -1.4944
   86SLPC  H14B 8186   3.975   1.552   3.278  0.6460 -0.5617 -0.7972
   86SLPC  H14C 8187   4.137   1.582   3.230 -1.9693 -2.3513 -2.9301
   86SLPC   C15 8188   3.968   1.728   3.071 -0.5034  0.0402  0.1866
   86SLPC  H15A 8189   3.893   1.651   3.077  0.9659 -1.3296  2.7784
   86SLPC  H15B 8190   3.927   1.811   3.014  0.2515  0.3674  0.1007
   86SLPC  H15C 8191   4.055   1.691   3.019  1.7913  0.7721  3.2238
   86SLPC   C12 8192   3.889   1.818   3.288  0.6890 -0.3585  0.4690
   86SLPC  H12A 8193   3.899   1.809   3.395 -1.7728  0.6309  0.8581
   86SLPC  H12B 8194   3.804   1.754   3.269  0.3802  0.5996 -1.7630
   86SLPC   C11 8195   3.853   1.965   3.258 -0.5245  0.1246 -0.0182
   86SLPC  H11A 8196   3.935   2.024   3.302  1.7174 -0.7146 -2.7754
   86SLPC  H11B 8197   3.757   1.993   3.308 -0.7046  0.3821 -0.5056
   86SLPC     P 8198   3.894   2.135   3.056  0.4341 -0.0689 -0.6299
   86SLPC   O13 8199   4.037   2.129   3.026  0.1170  0.1140 -0.1870
   86SLPC   O14 8200   3.795   2.176   2.954  0.3792  0.4380 -0.1157
   86SLPC   O12 8201   3.851   2.001   3.127  0.6069  0.7484  0.8440
   86SLPC   O11 8202   3.865   2.233   3.177  0.0478  0.2381  0.2695
   86SLPC    C1 8203   3.843   2.372   3.175  0.5706  0.1143  0.4767
   86SLPC    HA 8204   3.865   2.414   3.074 -1.8148 -1.0665 -0.6240
   86SLPC    HB 8205   3.737   2.393   3.198  0.0552 -2.7818  1.1124
   86SLPC    C2 8206   3.921   2.428   3.290 -0.1896  0.6086 -0.3617
   86SLPC    HS 8207   4.029   2.403   3.280  0.1027  0.3989  2.4395
   86SLPC   O21 8208   3.874   2.365   3.415 -0.1334 -0.0257  0.7268
   86SLPC   C21 8209   3.951   2.271   3.473 -0.7861  0.5346  0.8084
   86SLPC   O22 8210   4.061   2.236   3.438 -0.3349 -0.3440  0.5654
   86SLPC   C22 8211   3.884   2.231   3.604  0.7965 -0.6683 -0.0465
   86SLPC   H2R 8212   3.951   2.264   3.686  1.6128  0.8110 -1.2500
   86SLPC   H2S 8213   3.788   2.286   3.613  1.8958  1.5346 -1.1712
   86SLPC    C3 8214   3.899   2.578   3.292 -0.8134  1.1989  0.0809
   86SLPC    HX 8215   3.790   2.596   3.305 -0.7144  0.3277  2.4741
   86SLPC    HY 8216   3.920   2.615   3.189 -0.0285  0.3345 -0.0827
   86SLPC   O31 8217   3.981   2.637   3.393  0.0620 -0.3466  0.1326
   86SLPC   C31 8218   4.102   2.671   3.361 -0.3909 -0.3504  0.4713
   86SLPC   O32 8219   4.150   2.672   3.250  0.2373 -0.9891 -0.2124
   86SLPC   C32 8220   4.171   2.714   3.494  0.1436 -0.5415 -0.5893
   86SLPC   H2X 8221   4.115   2.803   3.531  0.9351 -0.6186  0.8707
   86SLPC   H2Y 8222   4.272   2.755   3.469 -0.3174 -0.1554 -1.9505
   86SLPC   C23 8223   3.852   2.076   3.612 -0.0675 -0.2878 -0.0492
   86SLPC   H3R 8224   3.947   2.019   3.607 -0.2629 -0.7746  1.2807
   86SLPC   H3S 8225   3.783   2.050   3.528  0.0840  0.1249 -0.3017
   86SLPC   C24 8226   3.779   2.036   3.741 -0.0757  0.1433  0.0195
   86SLPC   H4R 8227   3.673   2.058   3.719 -0.7976 -1.3387  1.7665
   86SLPC   H4S 8228   3.815   2.091   3.830  1.8577 -1.2057  0.1457
   86SLPC   C25 8229   3.791   1.883   3.767  0.5138  0.3798  0.1920
   86SLPC   H5R 8230   3.769   1.828   3.673 -1.0186 -0.3278  0.9382
   86SLPC   H5S 8231   3.709   1.858   3.838  2.1315 -0.2106  1.9347
   86SLPC   C26 8232   3.925   1.843   3.828 -0.5552  0.6496 -0.4390
   86SLPC   H6R 8233   3.942   1.893   3.926 -2.2087 -0.8295  0.6687
   86SLPC   H6S 8234   4.007   1.873   3.760  0.5586  0.3302  0.7107
   86SLPC   C27 8235   3.933   1.694   3.845 -0.3757 -0.3258  0.5119
   86SLPC   H7R 8236   3.899   1.629   3.761  3.6674 -0.7644 -1.0229
   86SLPC   H7S 8237   3.869   1.664   3.930 -2.6142 -1.4433 -1.4292
   86SLPC   C28 8238   4.078   1.641   3.883 -0.0286 -0.0587 -0.5713
   86SLPC   H8R 8239   4.134   1.660   3.789 -0.8432  0.8568 -0.8938
   86SLPC   H8S 8240   4.067   1.531   3.889 -1.1150  0.0018 -1.1919
   86SLPC   C29 8241   4.143   1.688   4.009  0.6991 -0.7834  0.4497
   86SLPC   H9R 8242   4.231   1.755   4.005  0.5497 -0.5206  1.5161
   86SLPC  C210 8243   4.110   1.642   4.130 -0.3991  0.0282  0.0188
   86SLPC  H10R 8244   4.160   1.675   4.222 -1.3696  1.9574 -0.0870
   86SLPC  C211 8245   4.029   1.519   4.159  0.5395 -0.0996 -0.3063
   86SLPC  H11R 8246   4.078   1.461   4.240 -0.4710 -0.8449 -0.2079
   86SLPC  H11S 8247   4.017   1.439   4.082  1.2482 -2.4089  1.8466
   86SLPC  C212 8248   3.894   1.542   4.218  0.2983  0.4647  0.6013
   86SLPC  H12R 8249   3.820   1.568   4.142  1.0176 -0.0198 -0.2822
   86SLPC  C213 8250   3.860   1.536   4.348 -0.6143 -0.4268 -0.8022
   86SLPC  H13R 8251   3.755   1.539   4.379  0.0616  0.8894  1.6336
   86SLPC  C214 8252   3.963   1.520   4.461 -0.0733 -0.6799  1.0280
   86SLPC  H14R 8253   4.028   1.610   4.453 -2.4839  1.2376  1.6438
   86SLPC  H14S 8254   4.015   1.422   4.452  2.7505  0.8474 -1.3459
   86SLPC  C215 8255   3.904   1.524   4.598  0.0433  0.6438  0.0110
   86SLPC  H15R 8256   3.837   1.612   4.616 -1.3004 -0.0962 -1.1820
   86SLPC  H15S 8257   3.981   1.556   4.672 -1.0794 -0.5950  1.8054
   86SLPC  C216 8258   3.834   1.394   4.644  0.0776  0.0056  0.6143
   86SLPC  H16R 8259   3.921   1.326   4.632  0.1011  0.0633  0.4563
   86SLPC  H16S 8260   3.752   1.364   4.575 -0.2541 -0.5129  1.2248
   86SLPC  C217 8261   3.792   1.402   4.788 -0.0203  1.1390  0.6207
   86SLPC  H17R 8262   3.731   1.493   4.800  1.3066  2.2948 -1.0057
   86SLPC  H17S 8263   3.889   1.420   4.840 -0.8461  1.3379  2.1558
   86SLPC  C218 8264   3.707   1.287   4.845  0.0510 -0.0209  0.3685
   86SLPC  H18R 8265   3.733   1.182   4.821 -2.4872 -0.5648 -0.2765
   86SLPC  H18S 8266   3.604   1.292   4.804  0.4142  0.1521 -0.5401
   86SLPC  H18T 8267   3.670   1.304   4.948 -1.3641 -1.6933  0.1827
   86SLPC   C33 8268   4.185   2.606   3.609 -0.3886  0.3277  0.3839
   86SLPC   H3X 8269   4.246   2.518   3.580 -1.7586 -0.3591 -0.5239
   86SLPC   H3Y 8270   4.090   2.549   3.622  0.3987 -1.1774 -0.2421
   86SLPC   C34 8271   4.262   2.666   3.727  0.1953 -0.0830  0.7425
   86SLPC   H4X 8272   4.211   2.761   3.754  0.0019 -0.1764  0.7136
   86SLPC   H4Y 8273   4.364   2.688   3.688 -1.1130  1.4846 -2.1370
   86SLPC   C35 8274   4.270   2.580   3.850 -0.1855  1.0554  0.2977
   86SLPC   H5X 8275   4.359   2.516   3.838 -0.7059  0.1460  1.1746
   86SLPC   H5Y 8276   4.182   2.512   3.857 -0.8744  2.1157  3.2491
   86SLPC   C36 8277   4.276   2.659   3.979 -0.5529 -0.8641 -0.8434
   86SLPC   H6X 8278   4.178   2.707   4.003 -0.2355  0.4119 -1.9954
   86SLPC   H6Y 8279   4.346   2.743   3.958 -0.9137 -1.2846 -4.3897
   86SLPC   C37 8280   4.319   2.572   4.096  0.5101 -0.4239 -0.1855
   86SLPC   H7X 8281   4.417   2.523   4.073  0.0584 -1.3807 -0.1235
   86SLPC   H7Y 8282   4.247   2.490   4.114  0.2014 -0.3258 -0.9733
   86SLPC   C38 8283   4.351   2.645   4.223 -0.1759  0.2122 -0.6506
   86SLPC   H8X 8284   4.273   2.722   4.241 -0.9687 -1.0544  2.0083
   86SLPC   H8Y 8285   4.448   2.696   4.212 -1.1666  2.2071 -0.5335
   86SLPC   C39 8286   4.351   2.558   4.351 -1.0803 -0.0265  0.4460
   86SLPC   H9X 8287   4.415   2.471   4.327 -2.4072 -0.8177 -0.3419
   86SLPC   H9Y 8288   4.251   2.522   4.383 -1.3618  1.9497  2.0276
   86SLPC  C310 8289   4.410   2.638   4.469 -0.3196  0.2699  0.3006
   86SLPC  H10X 8290   4.362   2.734   4.497 -1.3469  0.3435 -1.5675
   86SLPC  H10Y 8291   4.509   2.661   4.426 -0.7112  0.6991 -0.3886
   86SLPC  C311 8292   4.411   2.550   4.594 -0.5164  0.1679  0.8404
   86SLPC  H11X 8293   4.475   2.461   4.572  0.8156  0.9573  1.4191
   86SLPC  H11Y 8294   4.309   2.515   4.621 -0.7522  0.5569  0.4573
   86SLPC  C312 8295   4.491   2.620   4.707  0.2577  0.2465  0.5231
   86SLPC  H12X 8296   4.433   2.708   4.738  0.5915  0.2156  1.2629
   86SLPC  H12Y 8297   4.591   2.648   4.665 -0.6216  1.2162 -1.0113
   86SLPC  C313 8298   4.507   2.525   4.833  0.3568  0.4157 -0.4129
   86SLPC  H13X 8299   4.573   2.445   4.796  0.7497  0.1068  0.9075
   86SLPC  H13Y 8300   4.416   2.480   4.878 -0.1340  2.1554  0.4175
   86SLPC  C314 8301   4.568   2.599   4.957  0.1729 -0.8306 -0.3084
   86SLPC  H14X 8302   4.504   2.687   4.978  3.0967  1.7559 -1.3665
   86SLPC  H14Y 8303   4.661   2.635   4.907 -0.4184  0.4795 -0.4943
   86SLPC  C315 8304   4.601   2.506   5.074 -0.0436 -0.0295 -0.1734
   86SLPC  H15X 8305   4.664   2.422   5.037  0.0481 -0.2395  0.4423
   86SLPC  H15Y 8306   4.501   2.465   5.100 -0.6043  0.3663 -1.6404
   86SLPC  C316 8307   4.658   2.563   5.210 -0.2515 -0.7080  1.0357
   86SLPC  H16X 8308   4.638   2.482   5.283 -1.0801 -1.7243 -0.2744
   86SLPC  H16Y 8309   4.606   2.656   5.242 -1.8604 -1.9798  2.3032
   86SLPC  C317 8310   4.805   2.614   5.193  0.1373  0.1429  0.5725
   86SLPC  H17X 8311   4.806   2.668   5.096  0.9329  1.0467  1.0659
   86SLPC  H17Y 8312   4.869   2.524   5.199  0.7679  0.6015  0.7661
   86SLPC  C318 8313   4.845   2.702   5.310  0.1258  0.4049  0.9062
   86SLPC  H18X 8314   4.773   2.698   5.394 -0.8702 -1.8197  0.0415
   86SLPC  H18Y 8315   4.863   2.804   5.269 -0.0715 -0.0516 -0.3861
   86SLPC  H18Z 8316   4.949   2.682   5.345  0.3915  2.4029  1.3362
   87SLPC     N 8317   6.997   4.181   3.194  0.2542 -0.2595  0.2474
   87SLPC   C13 8318   6.899   4.261   3.274  0.6085  0.1382 -0.5006
   87SLPC  H13A 8319   6.861   4.195   3.351  0.5843  0.3869 -0.3000
   87SLPC  H13B 8320   6.946   4.345   3.323 -4.1761  1.2682  2.9366
   87SLPC  H13C 8321   6.812   4.290   3.217  0.1807 -1.7544 -0.8849
   87SLPC   C14 8322   7.072   4.282   3.113 -0.1566 -0.5823  0.4893
   87SLPC  H14A 8323   7.137   4.343   3.174  3.4431 -2.0226 -1.5934
   87SLPC  H14B 8324   7.136   4.239   3.038 -0.9968 -0.5524 -0.2733
   87SLPC  H14C 8325   7.011   4.349   3.054  0.6393  0.0631  0.3966
   87SLPC   C15 8326   6.924   4.082   3.106 -0.5175  0.1385  0.6101
   87SLPC  H15A 8327   6.896   4.124   3.010  1.4443  1.8158  0.7085
   87SLPC  H15B 8328   6.989   4.001   3.078 -0.4983  0.5657 -0.6436
   87SLPC  H15C 8329   6.850   4.036   3.170 -1.9021  0.5538 -0.6244
   87SLPC   C12 8330   7.092   4.110   3.281 -0.4268  0.4678 -0.5325
   87SLPC  H12A 8331   7.144   4.184   3.339  0.2320  1.1511 -1.9538
   87SLPC  H12B 8332   7.156   4.045   3.223  0.2169  1.9095 -1.4743
   87SLPC   C11 8333   7.022   4.016   3.390 -0.3853  0.0607  0.4972
   87SLPC  H11A 8334   6.957   4.075   3.457 -1.5275 -1.3551  0.6933
   87SLPC  H11B 8335   7.100   3.977   3.460  0.4887  1.4535  0.3336
   87SLPC     P 8336   7.041   3.785   3.276 -0.3490 -0.2781 -0.2353
   87SLPC   O13 8337   7.017   3.674   3.371 -0.4958  0.5044 -0.4198
   87SLPC   O14 8338   7.005   3.763   3.132  0.2820 -0.4055  0.5067
   87SLPC   O12 8339   6.960   3.899   3.334 -0.0624  0.4147  0.7144
   87SLPC   O11 8340   7.193   3.823   3.269  0.0217  0.2256  1.1317
   87SLPC    C1 8341   7.299   3.736   3.310  0.6988 -0.2828 -0.7708
   87SLPC    HA 8342   7.272   3.629   3.298 -0.1729  0.0022 -1.4322
   87SLPC    HB 8343   7.391   3.740   3.247  0.3673 -1.1021 -1.3292
   87SLPC    C2 8344   7.350   3.761   3.458 -0.8554  0.2954  0.3761
   87SLPC    HS 8345   7.434   3.692   3.479  1.0596  2.1503 -0.8632
   87SLPC   O21 8346   7.247   3.759   3.553 -0.1565 -0.1276 -0.8052
   87SLPC   C21 8347   7.197   3.636   3.581 -0.0800  0.1352 -0.2613
   87SLPC   O22 8348   7.244   3.530   3.542  0.5020 -0.1729 -0.1342
   87SLPC   C22 8349   7.069   3.648   3.666  0.0663  0.0602 -0.5730
   87SLPC   H2R 8350   7.105   3.683   3.766 -0.5263  0.8702 -0.6292
   87SLPC   H2S 8351   7.004   3.729   3.625 -0.4063 -0.1170 -0.1810
   87SLPC    C3 8352   7.413   3.904   3.465 -0.6120 -0.7300  0.3094
   87SLPC    HX 8353   7.345   3.981   3.422 -1.3930 -1.2984  0.4950
   87SLPC    HY 8354   7.490   3.904   3.385 -1.7609  2.9900 -1.0044
   87SLPC   O31 8355   7.467   3.929   3.588 -0.2070  0.4576 -0.1907
   87SLPC   C31 8356   7.387   4.006   3.667 -0.1848  0.3198  0.0959
   87SLPC   O32 8357   7.280   4.054   3.632  0.2328 -0.4261  0.0892
   87SLPC   C32 8358   7.451   4.016   3.805  0.0766 -0.8391 -0.6243
   87SLPC   H2X 8359   7.369   4.011   3.879  0.6632  1.8108  0.3089
   87SLPC   H2Y 8360   7.485   4.121   3.816  1.0413 -1.2034  0.0262
   87SLPC   C23 8361   6.995   3.514   3.686 -0.3064 -0.5129 -0.0363
   87SLPC   H3R 8362   7.063   3.430   3.711  0.0019 -0.9793 -2.2261
   87SLPC   H3S 8363   6.947   3.484   3.590 -1.6603  1.1272  0.0824
   87SLPC   C24 8364   6.874   3.529   3.782  0.8249  0.3520 -1.1915
   87SLPC   H4R 8365   6.818   3.433   3.783  1.1367  0.1699 -0.8635
   87SLPC   H4S 8366   6.808   3.606   3.736 -0.5719  0.3014  0.6236
   87SLPC   C25 8367   6.909   3.585   3.925 -0.7873 -0.2321 -0.0962
   87SLPC   H5R 8368   6.825   3.606   3.995  0.5819 -0.8525  1.8261
   87SLPC   H5S 8369   6.958   3.683   3.904  0.3891 -0.6434  0.6280
   87SLPC   C26 8370   7.016   3.512   4.011 -0.1693  0.4770  0.4263
   87SLPC   H6R 8371   7.041   3.574   4.100  1.5842 -0.8213  0.8974
   87SLPC   H6S 8372   7.114   3.498   3.962 -1.5941 -0.9188 -2.2341
   87SLPC   C27 8373   6.960   3.375   4.053 -0.4221 -0.3385 -0.3324
   87SLPC   H7R 8374   6.898   3.331   3.972  0.0568 -0.2776 -0.7433
   87SLPC   H7S 8375   6.893   3.393   4.139  0.5472  0.6401  0.2442
   87SLPC   C28 8376   7.075   3.284   4.108  0.6199  0.3991 -0.1339
   87SLPC   H8R 8377   7.129   3.329   4.194 -0.1423 -0.8820  1.0547
   87SLPC   H8S 8378   7.135   3.272   4.015 -0.2408  1.2808 -0.8185
   87SLPC   C29 8379   7.017   3.150   4.153 -0.1816 -0.3954 -0.2772
   87SLPC   H9R 8380   6.983   3.084   4.073 -0.6169  0.8926 -1.1787
   87SLPC  C210 8381   7.036   3.088   4.271 -0.0417  0.2795 -0.2988
   87SLPC  H10R 8382   6.982   2.993   4.285 -0.2435  0.5115  0.5153
   87SLPC  C211 8383   7.114   3.145   4.389 -0.0933 -0.2978  0.2702
   87SLPC  H11R 8384   7.159   3.243   4.365  0.8618 -1.2474 -2.0958
   87SLPC  H11S 8385   7.190   3.072   4.424 -0.8873 -0.6526  1.3450
   87SLPC  C212 8386   7.029   3.188   4.502  0.1124  0.1281 -0.3132
   87SLPC  H12R 8387   6.930   3.229   4.476 -0.3929  1.3455  3.0799
   87SLPC  C213 8388   7.047   3.160   4.633 -0.2783  0.4970 -0.2106
   87SLPC  H13R 8389   6.969   3.196   4.703 -1.8745 -0.4022 -1.4679
   87SLPC  C214 8390   7.170   3.101   4.702  0.5176  0.0593 -0.0551
   87SLPC  H14R 8391   7.225   3.183   4.755  0.7697  0.1921 -0.5120
   87SLPC  H14S 8392   7.242   3.051   4.634 -0.2470  0.4039 -1.1495
   87SLPC  C215 8393   7.112   3.012   4.814 -0.4491 -0.4401  0.6067
   87SLPC  H15R 8394   7.038   3.073   4.870 -0.2525  1.4751 -1.1135
   87SLPC  H15S 8395   7.189   3.000   4.894 -1.9570 -0.7482  2.0801
   87SLPC  C216 8396   7.037   2.879   4.769 -0.8269 -0.3500 -0.5557
   87SLPC  H16R 8397   7.114   2.798   4.771  0.3897  0.7789  0.6637
   87SLPC  H16S 8398   6.992   2.893   4.668  1.5104  2.1841 -1.3984
   87SLPC  C217 8399   6.930   2.837   4.870  0.4168  0.3757  0.9362
   87SLPC  H17R 8400   6.887   2.745   4.824  0.4092 -0.1090  1.8797
   87SLPC  H17S 8401   6.855   2.917   4.849  1.8521  0.9546 -2.9141
   87SLPC  C218 8402   6.972   2.814   5.010  0.1815  0.2570  0.0138
   87SLPC  H18R 8403   6.881   2.786   5.068  0.2241  1.5385  0.7327
   87SLPC  H18S 8404   7.006   2.903   5.067  1.9756  0.7309 -1.7109
   87SLPC  H18T 8405   7.044   2.730   5.024 -0.2872 -0.1443  0.0399
   87SLPC   C33 8406   7.568   3.919   3.841 -0.1111 -0.3466  0.8418
   87SLPC   H3X 8407   7.656   3.948   3.779 -2.0055  3.0660 -0.5097
   87SLPC   H3Y 8408   7.531   3.815   3.831 -1.2058 -0.3778  4.0881
   87SLPC   C34 8409   7.612   3.935   3.995  0.1475 -0.0948 -0.3258
   87SLPC   H4X 8410   7.515   3.958   4.045  1.1807 -0.9907  2.2466
   87SLPC   H4Y 8411   7.680   4.020   4.012 -0.4478  0.2367  0.4535
   87SLPC   C35 8412   7.660   3.806   4.058 -1.0403  0.6531  0.4600
   87SLPC   H5X 8413   7.752   3.764   4.010 -2.0375  1.4059 -2.3251
   87SLPC   H5Y 8414   7.578   3.735   4.034  0.1253 -0.7791  0.5401
   87SLPC   C36 8415   7.688   3.821   4.208  0.7118 -0.5106 -0.3869
   87SLPC   H6X 8416   7.609   3.873   4.267  1.6329 -1.0122  1.3408
   87SLPC   H6Y 8417   7.777   3.887   4.205  0.3674  0.0152  0.3978
   87SLPC   C37 8418   7.721   3.695   4.284  0.2046  0.2329 -0.2713
   87SLPC   H7X 8419   7.792   3.628   4.232  1.2697 -0.1055  1.5467
   87SLPC   H7Y 8420   7.628   3.635   4.291  1.0714 -1.1112  0.0347
   87SLPC   C38 8421   7.773   3.724   4.426 -0.1399 -0.0791 -0.5572
   87SLPC   H8X 8422   7.693   3.775   4.484  1.1628  0.0814  1.2203
   87SLPC   H8Y 8423   7.872   3.776   4.425 -0.1317 -0.0452  0.6299
   87SLPC   C39 8424   7.805   3.594   4.500 -0.3606  1.0500  0.4667
   87SLPC   H9X 8425   7.865   3.518   4.446 -1.6088  0.1516  0.2916
   87SLPC   H9Y 8426   7.712   3.539   4.527  0.3813 -0.1501  0.6187
   87SLPC  C310 8427   7.876   3.603   4.633 -0.1299  0.0736  0.1171
   87SLPC  H10X 8428   7.811   3.668   4.696 -0.3827  1.6440 -1.6889
   87SLPC  H10Y 8429   7.965   3.667   4.622 -2.1933  2.9845 -0.8255
   87SLPC  C311 8430   7.920   3.472   4.692 -0.6229  1.2138  0.4795
   87SLPC  H11X 8431   7.974   3.397   4.629 -1.3974 -0.8102  2.0954
   87SLPC  H11Y 8432   7.838   3.401   4.718  2.3051 -2.3856  0.8405
   87SLPC  C312 8433   8.017   3.491   4.809  0.1840 -0.7121 -0.2703
   87SLPC  H12X 8434   7.958   3.549   4.883 -1.6437 -2.0632 -0.5921
   87SLPC  H12Y 8435   8.110   3.539   4.771  0.1273  0.7694  1.3641
   87SLPC  C313 8436   8.061   3.366   4.881  0.6188  0.4825  0.1863
   87SLPC  H13X 8437   8.115   3.306   4.804 -1.2134 -0.9968  0.0003
   87SLPC  H13Y 8438   7.972   3.312   4.920 -0.8687  2.6091 -0.0923
   87SLPC  C314 8439   8.170   3.392   4.985  0.6141 -0.1645  0.5160
   87SLPC  H14X 8440   8.255   3.430   4.924 -1.4261  1.1982 -1.6779
   87SLPC  H14Y 8441   8.184   3.297   5.041 -0.9901  0.5318  2.2489
   87SLPC  C315 8442   8.135   3.494   5.093 -0.6192 -0.3454  0.3721
   87SLPC  H15X 8443   8.057   3.455   5.162  0.5964  0.1096  2.0449
   87SLPC  H15Y 8444   8.108   3.591   5.046  4.1849  0.6696 -0.8336
   87SLPC  C316 8445   8.247   3.533   5.190  0.6292  0.2671  0.1417
   87SLPC  H16X 8446   8.266   3.440   5.248  3.8766 -0.0108 -1.1543
   87SLPC  H16Y 8447   8.206   3.613   5.255 -2.2469 -0.7188 -0.3378
   87SLPC  C317 8448   8.371   3.581   5.106  0.1371  0.2257  0.1912
   87SLPC  H17X 8449   8.335   3.652   5.029 -1.0710  0.6825  1.1393
   87SLPC  H17Y 8450   8.419   3.493   5.060  0.1553  0.0231  0.5957
   87SLPC  C318 8451   8.481   3.645   5.193 -0.0680 -1.1385 -0.3724
   87SLPC  H18X 8452   8.507   3.561   5.261 -1.6341  1.0257  3.1710
   87SLPC  H18Y 8453   8.446   3.733   5.251  2.6487 -0.1705 -0.0594
   87SLPC  H18Z 8454   8.573   3.679   5.140  0.6309 -0.7489  1.0380
   88SLPC     N 8455   4.813   0.072   3.110  0.2608 -0.0769  1.0316
   88SLPC   C13 8456   4.678   0.112   3.056 -0.1682 -0.0779  0.2811
   88SLPC  H13A 8457   4.675   0.109   2.948 -0.0653 -0.3073  0.2831
   88SLPC  H13B 8458   4.606   0.038   3.088 -0.1011  0.0711  0.7761
   88SLPC  H13C 8459   4.644   0.212   3.075  0.0359 -0.0716  0.6244
   88SLPC   C14 8460   4.920   0.156   3.038  0.1711  0.3418  0.0426
   88SLPC  H14A 8461   4.906   0.255   3.081 -0.0368  0.3325 -0.0032
   88SLPC  H14B 8462   5.019   0.116   3.057  0.6256  0.8353 -1.2052
   88SLPC  H14C 8463   4.907   0.174   2.932 -2.1234 -1.2937 -0.0242
   88SLPC   C15 8464   4.838  -0.071   3.081  0.0504  0.0417 -0.6859
   88SLPC  H15A 8465   4.910  -0.113   3.149 -2.0903 -1.5634  0.7371
   88SLPC  H15B 8466   4.749  -0.128   3.107 -0.5858  1.0462 -0.5916
   88SLPC  H15C 8467   4.862  -0.091   2.978 -2.4650  0.7381 -1.4844
   88SLPC   C12 8468   4.828   0.102   3.256 -0.9050  0.8439  0.0518
   88SLPC  H12A 8469   4.926   0.080   3.295 -1.4122 -0.6947  0.5243
   88SLPC  H12B 8470   4.772   0.027   3.309  0.2219 -0.0499 -0.0108
   88SLPC   C11 8471   4.806   0.251   3.300 -0.6737  0.3607 -0.1064
   88SLPC  H11A 8472   4.796   0.244   3.410 -1.1737 -3.0056 -0.2631
   88SLPC  H11B 8473   4.707   0.283   3.263 -0.2452 -0.8037 -2.4549
   88SLPC     P 8474   5.037   0.360   3.321  0.3637 -0.0824 -0.2356
   88SLPC   O13 8475   5.075   0.225   3.370  0.3940  0.7677 -0.1853
   88SLPC   O14 8476   5.121   0.432   3.227 -0.3037 -0.0173 -0.4109
   88SLPC   O12 8477   4.901   0.347   3.249  0.7165  0.5264  0.5703
   88SLPC   O11 8478   5.009   0.455   3.452  0.1429 -0.2759  0.3025
   88SLPC    C1 8479   4.969   0.587   3.430  0.2581 -0.4773 -0.5750
   88SLPC    HA 8480   5.055   0.656   3.415 -0.6906  0.3181 -2.7288
   88SLPC    HB 8481   4.912   0.596   3.335 -2.3315 -0.3493  0.8891
   88SLPC    C2 8482   4.861   0.629   3.528  0.1404  0.6119  0.2270
   88SLPC    HS 8483   4.805   0.716   3.488  0.6182  0.4980 -0.7252
   88SLPC   O21 8484   4.917   0.648   3.658  0.5321 -0.1340 -0.6313
   88SLPC   C21 8485   5.001   0.750   3.667 -0.5126 -0.0458 -0.0922
   88SLPC   O22 8486   5.024   0.831   3.584  0.4307  0.2035 -0.3510
   88SLPC   C22 8487   5.059   0.755   3.810 -0.0190 -0.0068 -0.4602
   88SLPC   H2R 8488   5.072   0.651   3.846  1.3267  0.2211 -0.2314
   88SLPC   H2S 8489   5.164   0.792   3.802  0.2880 -0.8411 -0.3723
   88SLPC    C3 8490   4.755   0.517   3.546  0.2103  0.2496 -0.4425
   88SLPC    HX 8491   4.802   0.422   3.579 -1.3086 -1.1564 -2.1712
   88SLPC    HY 8492   4.719   0.503   3.442  1.2582  1.2079 -0.9535
   88SLPC   O31 8493   4.638   0.564   3.623 -0.0643 -0.4034  0.6223
   88SLPC   C31 8494   4.626   0.513   3.747  0.2297 -0.2667  0.4397
   88SLPC   O32 8495   4.704   0.438   3.801  0.4609 -0.0522 -0.4535
   88SLPC   C32 8496   4.498   0.570   3.809 -0.2415  0.5099  0.0250
   88SLPC   H2X 8497   4.424   0.487   3.815  0.7148 -0.5822 -1.9904
   88SLPC   H2Y 8498   4.456   0.650   3.745  1.0216 -0.0869 -1.6417
   88SLPC   C23 8499   4.991   0.840   3.914  0.8345  0.1830  0.1450
   88SLPC   H3R 8500   4.950   0.936   3.875  0.1451  0.2865  1.0951
   88SLPC   H3S 8501   5.065   0.866   3.992 -0.2992  1.3252  0.8993
   88SLPC   C24 8502   4.876   0.762   3.978  0.5649  0.6290 -0.8758
   88SLPC   H4R 8503   4.915   0.675   4.035 -1.9174 -0.9958 -1.5002
   88SLPC   H4S 8504   4.801   0.723   3.905 -1.8104  1.4832  0.9979
   88SLPC   C25 8505   4.802   0.846   4.080 -0.0257  0.0746  0.4216
   88SLPC   H5R 8506   4.738   0.768   4.125  0.9349 -0.3094  1.1550
   88SLPC   H5S 8507   4.742   0.928   4.035  3.9007  1.0748 -3.7696
   88SLPC   C26 8508   4.888   0.889   4.196  0.0074  0.2085 -0.2976
   88SLPC   H6R 8509   4.964   0.965   4.168  1.4122 -1.2632 -0.6125
   88SLPC   H6S 8510   4.942   0.798   4.230 -0.6657  0.3790  1.3041
   88SLPC   C27 8511   4.804   0.934   4.314 -0.0156 -0.0637  0.7416
   88SLPC   H7R 8512   4.721   0.860   4.321  0.5350 -1.1422 -2.4649
   88SLPC   H7S 8513   4.766   1.035   4.286  3.1107  0.6819 -1.3780
   88SLPC   C28 8514   4.888   0.940   4.443  0.6370 -0.1386 -0.5792
   88SLPC   H8R 8515   4.969   1.015   4.433  0.4638 -0.0006 -0.9496
   88SLPC   H8S 8516   4.941   0.843   4.449  2.4556  0.8897  2.0266
   88SLPC   C29 8517   4.798   0.967   4.561 -0.0840  0.0204 -0.3010
   88SLPC   H9R 8518   4.705   0.908   4.558 -1.4666  2.0773 -0.2191
   88SLPC  C210 8519   4.797   1.070   4.648 -0.3194 -0.1534 -0.5567
   88SLPC  H10R 8520   4.711   1.073   4.716  1.1263 -1.8598  1.5185
   88SLPC  C211 8521   4.904   1.170   4.659  0.0269 -0.4500  0.1942
   88SLPC  H11R 8522   4.988   1.150   4.589 -0.2047 -0.1646 -0.1700
   88SLPC  H11S 8523   4.956   1.178   4.757 -0.1550  2.0795  0.1501
   88SLPC  C212 8524   4.847   1.307   4.622  0.3414  0.2228 -0.1866
   88SLPC  H12R 8525   4.798   1.308   4.524  0.8607  1.5193 -0.4452
   88SLPC  C213 8526   4.845   1.419   4.698  0.1525 -0.5756 -0.1454
   88SLPC  H13R 8527   4.824   1.513   4.644 -1.9201 -0.1159  1.3222
   88SLPC  C214 8528   4.892   1.436   4.836  0.0926 -0.3204 -0.7543
   88SLPC  H14R 8529   4.925   1.542   4.844 -0.5715 -0.0798 -1.0899
   88SLPC  H14S 8530   4.976   1.367   4.857 -0.3703 -0.8957 -0.7668
   88SLPC  C215 8531   4.786   1.428   4.945 -0.2677 -0.1916  0.3731
   88SLPC  H15R 8532   4.726   1.334   4.950 -1.4669  0.6178  3.9401
   88SLPC  H15S 8533   4.707   1.497   4.908  1.1216  1.7535  0.8926
   88SLPC  C216 8534   4.833   1.483   5.079 -0.5995  0.3778 -0.0423
   88SLPC  H16R 8535   4.915   1.425   5.127 -0.9265  0.2013  0.3083
   88SLPC  H16S 8536   4.751   1.481   5.153 -1.1384  0.1881 -0.6333
   88SLPC  C217 8537   4.875   1.624   5.095 -0.4344 -0.4036 -0.4765
   88SLPC  H17R 8538   4.796   1.691   5.054  1.5968  2.4569 -0.0268
   88SLPC  H17S 8539   4.967   1.651   5.039 -0.8485 -0.8431 -1.4094
   88SLPC  C218 8540   4.892   1.671   5.237 -0.3277  0.2647 -0.1257
   88SLPC  H18R 8541   4.938   1.772   5.243 -2.5346  1.4746 -2.1133
   88SLPC  H18S 8542   4.943   1.599   5.305  1.6067  0.3986 -1.3745
   88SLPC  H18T 8543   4.792   1.682   5.284  0.8183  0.1106  2.5895
   88SLPC   C33 8544   4.528   0.621   3.951 -0.3169  0.0063 -0.3249
   88SLPC   H3X 8545   4.581   0.718   3.942 -1.1768  0.5576  0.3349
   88SLPC   H3Y 8546   4.581   0.544   4.011 -3.4044 -0.7561  1.7230
   88SLPC   C34 8547   4.396   0.656   4.029 -0.8872  0.4491  0.3076
   88SLPC   H4X 8548   4.328   0.568   4.036 -2.8844  1.9630  1.2620
   88SLPC   H4Y 8549   4.342   0.738   3.977 -0.0835  1.2916  0.7775
   88SLPC   C35 8550   4.421   0.694   4.176 -1.2680 -0.0092 -0.2243
   88SLPC   H5X 8551   4.478   0.789   4.181 -2.0252  0.4091  0.9304
   88SLPC   H5Y 8552   4.488   0.611   4.208 -0.3511  1.0386  0.6554
   88SLPC   C36 8553   4.296   0.702   4.268 -0.0124 -0.0701  0.5119
   88SLPC   H6X 8554   4.258   0.599   4.282 -0.8551  0.0578 -0.7444
   88SLPC   H6Y 8555   4.209   0.757   4.226 -0.9839 -0.6183  1.7542
   88SLPC   C37 8556   4.331   0.760   4.404 -0.1696  0.0811 -0.3228
   88SLPC   H7X 8557   4.241   0.740   4.467  0.7312 -0.4725  0.8101
   88SLPC   H7Y 8558   4.342   0.869   4.387 -0.4758 -0.2267 -2.9131
   88SLPC   C38 8559   4.450   0.698   4.472 -0.1902 -0.3509 -0.0338
   88SLPC   H8X 8560   4.548   0.716   4.422  0.1786  3.0402  1.6298
   88SLPC   H8Y 8561   4.432   0.589   4.483  0.2449 -0.7026 -2.2982
   88SLPC   C39 8562   4.468   0.746   4.620  0.2185  0.3685  0.4419
   88SLPC   H9X 8563   4.374   0.717   4.672  0.6620  1.0280  1.6697
   88SLPC   H9Y 8564   4.468   0.856   4.607 -0.6805  0.1703 -1.6368
   88SLPC  C310 8565   4.591   0.685   4.685  0.0425  0.2453 -0.2669
   88SLPC  H10X 8566   4.684   0.724   4.637  0.7715 -2.0248 -0.8208
   88SLPC  H10Y 8567   4.580   0.578   4.657 -0.8084  0.8590 -2.5628
   88SLPC  C311 8568   4.588   0.688   4.838  0.0247 -0.0091 -0.7552
   88SLPC  H11X 8569   4.656   0.619   4.890  0.4060 -0.4264 -1.7780
   88SLPC  H11Y 8570   4.486   0.651   4.862  0.6163  0.1056  2.3401
   88SLPC  C312 8571   4.596   0.831   4.897  0.4495 -0.3381  0.0440
   88SLPC  H12X 8572   4.522   0.894   4.843  0.3997  0.1063  0.6296
   88SLPC  H12Y 8573   4.697   0.874   4.880 -0.0342  0.7899 -0.0768
   88SLPC  C313 8574   4.566   0.840   5.048  0.6444 -0.0197  0.2580
   88SLPC  H13X 8575   4.652   0.804   5.108  1.4053  0.0724 -0.7523
   88SLPC  H13Y 8576   4.476   0.775   5.055  0.4946  0.0647 -0.7706
   88SLPC  C314 8577   4.526   0.981   5.100 -0.4018 -0.6613 -0.0256
   88SLPC  H14X 8578   4.468   0.966   5.194 -0.6051 -0.0744 -0.0518
   88SLPC  H14Y 8579   4.453   1.020   5.026  0.5416  0.2726 -0.5050
   88SLPC  C315 8580   4.648   1.071   5.108  0.6923 -0.0763  0.6008
   88SLPC  H15X 8581   4.624   1.174   5.073  1.3062 -0.0709  0.1808
   88SLPC  H15Y 8582   4.723   1.035   5.034  0.5694  0.0241  0.4270
   88SLPC  C316 8583   4.696   1.066   5.254 -0.2930  0.6696 -1.3233
   88SLPC  H16X 8584   4.740   0.966   5.275  0.3237  1.5496  2.2202
   88SLPC  H16Y 8585   4.612   1.069   5.326 -0.3934 -0.3450 -1.3810
   88SLPC  C317 8586   4.803   1.171   5.292  0.1685 -0.2683 -0.0903
   88SLPC  H17X 8587   4.829   1.165   5.400  0.9486 -0.0529 -0.2651
   88SLPC  H17Y 8588   4.772   1.275   5.267 -1.6511 -1.1684 -1.8968
   88SLPC  C318 8589   4.929   1.149   5.205  0.3873  0.2388  0.4936
   88SLPC  H18X 8590   4.916   1.188   5.102  3.7579 -0.9063 -0.4872
   88SLPC  H18Y 8591   4.955   1.043   5.183  1.4117  0.2187  1.7031
   88SLPC  H18Z 8592   5.022   1.195   5.245  0.5830 -0.6765  1.1163
   89SAPE     N 8593   5.872   5.682   7.661 -0.0475 -0.7112 -0.0301
   89SAPE   HN1 8594   5.815   5.724   7.737  1.4967 -1.2825  1.4997
   89SAPE   HN2 8595   5.829   5.701   7.568  0.2074 -0.8756 -0.1829
   89SAPE   HN3 8596   5.871   5.581   7.686 -0.3877 -0.7076 -0.0275
   89SAPE   C12 8597   6.019   5.714   7.668  0.2807  0.4189  0.6763
   89SAPE  H12A 8598   6.050   5.677   7.768 -1.7323 -0.0390  1.1747
   89SAPE  H12B 8599   6.035   5.822   7.647 -1.2592  0.2893 -1.5708
   89SAPE   C11 8600   6.095   5.647   7.550 -0.9281 -0.0102  0.0085
   89SAPE  H11A 8601   6.198   5.691   7.553  0.4480 -3.0441  0.3549
   89SAPE  H11B 8602   6.055   5.680   7.452  0.1633 -2.3523 -1.3048
   89SAPE     P 8603   6.211   5.426   7.645  0.2462 -0.6517 -0.2079
   89SAPE   O13 8604   6.233   5.508   7.765  0.4786  0.1773 -0.4343
   89SAPE   O14 8605   6.147   5.292   7.676 -0.8596 -0.1093 -0.7725
   89SAPE   O12 8606   6.113   5.505   7.553  0.4439  0.3764  0.0131
   89SAPE   O11 8607   6.342   5.406   7.556 -0.3788  0.8706 -0.2566
   89SAPE    C1 8608   6.436   5.509   7.524  0.1148 -0.1083 -0.0642
   89SAPE    HA 8609   6.427   5.600   7.588  1.3603 -0.5710  0.8090
   89SAPE    HB 8610   6.540   5.470   7.534 -0.2430 -1.4533 -1.3122
   89SAPE    C2 8611   6.424   5.564   7.382  0.6260  0.0529  0.7926
   89SAPE    HS 8612   6.318   5.597   7.383  0.9216  1.0918  2.7479
   89SAPE   O21 8613   6.445   5.466   7.277 -0.2421  0.3361 -0.2469
   89SAPE   C21 8614   6.341   5.389   7.252 -0.0069  0.2527 -0.0399
   89SAPE   O22 8615   6.225   5.401   7.288  0.5754  0.1151  0.1367
   89SAPE   C22 8616   6.387   5.292   7.138  0.2722 -0.3192  0.0062
   89SAPE   H2R 8617   6.494   5.307   7.112 -0.0841  1.4279 -0.5501
   89SAPE   H2S 8618   6.381   5.191   7.185 -1.6755 -1.0174 -1.6127
   89SAPE    C3 8619   6.510   5.691   7.345  0.9255 -0.1144 -0.6171
   89SAPE    HX 8620   6.617   5.669   7.365  0.4511 -1.6835  0.4381
   89SAPE    HY 8621   6.476   5.770   7.414 -1.9637 -2.2816  0.6952
   89SAPE   O31 8622   6.483   5.730   7.210 -0.2555 -0.3086  0.4283
   89SAPE   C31 8623   6.397   5.831   7.191  0.2504 -0.1564 -0.0203
   89SAPE   O32 8624   6.315   5.874   7.272 -0.4516 -0.2125  0.3765
   89SAPE   C32 8625   6.414   5.887   7.048  0.6798  0.4603 -0.7207
   89SAPE   H2X 8626   6.520   5.910   7.028  0.9372 -0.7445 -0.8040
   89SAPE   H2Y 8627   6.354   5.980   7.052 -1.6052 -0.9769  1.1944
   89SAPE   C23 8628   6.288   5.313   7.024  0.7676  0.2440 -0.2097
   89SAPE   H3R 8629   6.280   5.418   6.989 -0.7382  0.4406  0.6534
   89SAPE   H3S 8630   6.186   5.282   7.055  0.4413  1.0898 -0.3944
   89SAPE   C24 8631   6.334   5.249   6.886  0.7099 -0.0786  0.1674
   89SAPE   H4R 8632   6.437   5.283   6.864  0.9114  0.7527  2.1895
   89SAPE   H4S 8633   6.257   5.292   6.818 -0.2325  0.8757  1.7610
   89SAPE   C25 8634   6.338   5.100   6.896  0.0091  0.0835  0.3495
   89SAPE   H5R 8635   6.321   5.054   6.994 -0.9245 -0.0456  0.1438
   89SAPE   C26 8636   6.345   5.016   6.789 -0.3182 -0.4480  0.2012
   89SAPE   H6R 8637   6.357   4.907   6.800  1.0788 -0.5745 -2.0296
   89SAPE   C27 8638   6.360   5.067   6.641  0.6013  0.7652 -0.4299
   89SAPE   H7R 8639   6.447   5.026   6.585 -0.5905  0.0464 -1.8129
   89SAPE   H7S 8640   6.377   5.177   6.638 -2.3625  1.3003 -0.3719
   89SAPE   C28 8641   6.233   5.047   6.561 -0.7527  0.6565  0.3290
   89SAPE   H8R 8642   6.138   5.030   6.614 -1.8303 -1.4079 -2.0812
   89SAPE   C29 8643   6.225   5.016   6.432  0.0493  0.5134  0.3889
   89SAPE   H9R 8644   6.129   5.001   6.381  0.9409  1.5603 -1.7191
   89SAPE  C210 8645   6.346   5.022   6.340 -0.4229  0.2459 -0.4689
   89SAPE  H10R 8646   6.412   4.938   6.370 -0.7731  0.5357  1.2458
   89SAPE  H10S 8647   6.406   5.112   6.364  0.5191 -0.8724  1.6271
   89SAPE  C211 8648   6.301   5.026   6.196 -0.3051  0.1063 -0.5097
   89SAPE  H11R 8649   6.212   5.084   6.165 -0.0241 -0.6951 -3.0998
   89SAPE  C212 8650   6.353   4.970   6.086  0.3208 -0.4214 -0.5116
   89SAPE  H12R 8651   6.316   4.992   5.985 -0.0896 -0.0048 -0.2733
   89SAPE  C213 8652   6.467   4.868   6.083  0.5011 -0.9088  0.0107
   89SAPE  H13R 8653   6.419   4.768   6.088  0.3513 -0.7853  1.8612
   89SAPE  H13S 8654   6.532   4.871   6.173  0.0969  1.8503  0.3044
   89SAPE  C214 8655   6.555   4.876   5.956 -0.1431  0.9135  0.4728
   89SAPE  H14R 8656   6.648   4.935   5.963  0.1436  0.3040  4.5317
   89SAPE  C215 8657   6.524   4.818   5.834  0.6935  1.0450 -0.3555
   89SAPE  H15R 8658   6.579   4.844   5.743  1.0166  0.6164 -0.2863
   89SAPE  C216 8659   6.396   4.739   5.817 -0.1488 -0.2307  0.7615
   89SAPE  H16R 8660   6.309   4.804   5.843 -1.1724 -1.2128 -0.1123
   89SAPE  H16S 8661   6.390   4.654   5.889 -0.5934  0.4763  1.5815
   89SAPE  C217 8662   6.372   4.685   5.678  0.1989  0.6215  0.1142
   89SAPE  H17R 8663   6.466   4.639   5.639 -1.0454 -2.0090  0.0224
   89SAPE  H17S 8664   6.345   4.768   5.610  1.1279  0.6632 -0.2169
   89SAPE  C218 8665   6.253   4.587   5.684  0.5793 -0.0983 -0.1708
   89SAPE  H18R 8666   6.160   4.636   5.721  1.3693  1.2167  0.1208
   89SAPE  H18S 8667   6.281   4.502   5.749 -0.8468 -0.9183 -0.5670
   89SAPE  C219 8668   6.209   4.534   5.547 -0.5400  0.6130 -0.0389
   89SAPE  H19R 8669   6.281   4.454   5.516 -0.4926  0.0947  1.3685
   89SAPE  H19S 8670   6.221   4.611   5.468  2.4967  1.0515  0.7116
   89SAPE  C220 8671   6.068   4.474   5.551 -0.8537 -0.3789 -0.2718
   89SAPE  H20R 8672   6.036   4.455   5.447 -2.5198 -1.2911  0.3750
   89SAPE  H20S 8673   6.000   4.553   5.591 -0.1342 -0.2863  0.8092
   89SAPE  H20T 8674   6.050   4.393   5.625  1.9789  0.3345  1.3918
   89SAPE   C33 8675   6.353   5.790   6.945 -0.0877 -0.2644 -0.1010
   89SAPE   H3X 8676   6.243   5.781   6.961  0.0604  1.6507  2.7815
   89SAPE   H3Y 8677   6.399   5.689   6.959 -0.3189 -0.2369  0.9607
   89SAPE   C34 8678   6.381   5.841   6.808  0.2522 -0.3664 -0.3779
   89SAPE   H4X 8679   6.488   5.841   6.780  0.8419  1.6894  1.6390
   89SAPE   H4Y 8680   6.353   5.948   6.801  1.7938  0.2068  1.5779
   89SAPE   C35 8681   6.298   5.773   6.694 -0.0004 -0.5964 -0.0102
   89SAPE   H5X 8682   6.294   5.850   6.614  3.4731 -0.6843 -0.4307
   89SAPE   H5Y 8683   6.193   5.752   6.722  0.0306 -0.4792  0.1991
   89SAPE   C36 8684   6.359   5.636   6.637 -0.3592 -0.4609 -0.0167
   89SAPE   H6X 8685   6.340   5.561   6.717 -1.2249  1.0056  1.1907
   89SAPE   H6Y 8686   6.466   5.662   6.622 -0.8521  2.4558  0.8516
   89SAPE   C37 8687   6.286   5.592   6.508 -0.2732  0.2165 -0.3514
   89SAPE   H7X 8688   6.294   5.669   6.428  0.9620 -1.0990 -1.5360
   89SAPE   H7Y 8689   6.177   5.580   6.528 -0.0801 -0.3608  0.3950
   89SAPE   C38 8690   6.325   5.452   6.452 -0.2634 -0.8575 -0.3837
   89SAPE   H8X 8691   6.291   5.417   6.352  1.1805 -4.2207  0.1876
   89SAPE   H8Y 8692   6.281   5.386   6.530  1.2902 -1.9922 -0.4233
   89SAPE   C39 8693   6.472   5.423   6.444 -0.9448 -0.0527  0.5526
   89SAPE   H9X 8694   6.479   5.317   6.410  1.6613 -0.9377  3.3976
   89SAPE   H9Y 8695   6.528   5.440   6.538  1.0114  0.1230 -0.5937
   89SAPE  C310 8696   6.547   5.506   6.335  0.1176 -0.2222 -0.4928
   89SAPE  H10X 8697   6.653   5.472   6.334 -0.1599 -1.8090  3.7819
   89SAPE  H10Y 8698   6.543   5.613   6.362  1.6296  0.0653 -1.2475
   89SAPE  C311 8699   6.484   5.498   6.196 -0.0450  0.4697 -0.0492
   89SAPE  H11X 8700   6.520   5.573   6.122  2.3633 -1.4003 -0.8836
   89SAPE  H11Y 8701   6.375   5.523   6.201  0.0730  1.0870 -0.4044
   89SAPE  C312 8702   6.513   5.362   6.120  0.6286 -0.1105 -0.4693
   89SAPE  H12X 8703   6.496   5.284   6.197 -0.6867 -0.6747 -1.3036
   89SAPE  H12Y 8704   6.618   5.372   6.086  1.3603  0.4285  1.7379
   89SAPE  C313 8705   6.408   5.339   6.008  0.4981  0.5052 -0.3953
   89SAPE  H13X 8706   6.304   5.344   6.045 -0.1209 -1.4645 -1.7175
   89SAPE  H13Y 8707   6.416   5.233   5.978 -0.8567  0.6894 -1.4764
   89SAPE  C314 8708   6.438   5.428   5.891 -0.7956 -0.2096  0.4305
   89SAPE  H14X 8709   6.542   5.427   5.850 -0.1951  1.0849  1.8318
   89SAPE  H14Y 8710   6.425   5.535   5.915 -1.3023 -0.5606  1.8598
   89SAPE  C315 8711   6.342   5.393   5.771 -0.3832 -0.0008  0.2812
   89SAPE  H15X 8712   6.243   5.442   5.785 -1.5979 -1.8764 -1.2785
   89SAPE  H15Y 8713   6.347   5.283   5.763 -2.7185 -0.6076  4.3091
   89SAPE  C316 8714   6.391   5.452   5.641  0.2232 -0.1771 -0.9277
   89SAPE  H16X 8715   6.500   5.434   5.626  0.2055  0.0946 -1.4099
   89SAPE  H16Y 8716   6.378   5.562   5.639  0.8725 -0.0482  0.3964
   89SAPE  C317 8717   6.321   5.387   5.527 -0.0363 -0.8340 -0.2645
   89SAPE  H17X 8718   6.212   5.394   5.550 -0.1213  0.7274 -0.9994
   89SAPE  H17Y 8719   6.350   5.281   5.516  1.2857 -0.4336 -0.8884
   89SAPE  C318 8720   6.347   5.462   5.401 -0.6106 -0.3620  0.9910
   89SAPE  H18X 8721   6.452   5.494   5.381 -1.0769  1.3965  1.1729
   89SAPE  H18Y 8722   6.286   5.554   5.389 -0.9157 -0.8722 -2.0937
   89SAPE  H18Z 8723   6.323   5.396   5.316 -1.3694  1.1374  0.0041
   90SAPE     N 8724   0.790   4.025   7.364  0.1300 -0.0606 -0.3246
   90SAPE   HN1 8725   0.744   3.957   7.427 -0.7944 -1.3837 -2.3365
   90SAPE   HN2 8726   0.890   4.000   7.349 -0.0842 -0.3822 -1.3192
   90SAPE   HN3 8727   0.792   4.119   7.409  3.8131 -0.3893  0.5211
   90SAPE   C12 8728   0.719   4.036   7.226 -0.2909 -0.6348 -0.1305
   90SAPE  H12A 8729   0.697   3.933   7.193  0.1576 -1.2420  1.3610
   90SAPE  H12B 8730   0.794   4.088   7.164 -2.4335  1.4223 -1.1582
   90SAPE   C11 8731   0.589   4.117   7.225  0.1664  0.3524  0.1127
   90SAPE  H11A 8732   0.539   4.091   7.321  1.3646  0.4864  0.7861
   90SAPE  H11B 8733   0.534   4.073   7.139 -1.1611 -1.3727  1.7546
   90SAPE     P 8734   0.493   4.356   7.228 -0.3881  0.0135 -0.1093
   90SAPE   O13 8735   0.445   4.335   7.369 -0.2419 -0.8831  0.5015
   90SAPE   O14 8736   0.542   4.489   7.186  0.0051 -0.2796  0.4389
   90SAPE   O12 8737   0.612   4.258   7.212  0.5734 -0.5181  0.7684
   90SAPE   O11 8738   0.385   4.299   7.132 -0.2699  0.4372  0.8025
   90SAPE    C1 8739   0.352   4.375   7.019  0.0089 -0.1766 -0.5870
   90SAPE    HA 8740   0.433   4.444   6.984  1.5394 -1.3565  0.4745
   90SAPE    HB 8741   0.343   4.296   6.942 -0.2786 -0.3761 -0.3462
   90SAPE    C2 8742   0.212   4.451   7.025 -0.6693  0.5686  0.1069
   90SAPE    HS 8743   0.216   4.507   7.121 -0.0126 -0.5462  0.7540
   90SAPE   O21 8744   0.114   4.345   7.021  0.6171  0.2357 -0.1857
   90SAPE   C21 8745   0.055   4.315   7.140  0.0223 -0.2523 -0.3377
   90SAPE   O22 8746   0.077   4.370   7.244 -0.3503 -0.0613 -0.5220
   90SAPE   C22 8747  -0.039   4.194   7.118 -1.2234  0.2816 -0.3327
   90SAPE   H2R 8748   0.025   4.117   7.069 -1.2727  0.3387 -0.4906
   90SAPE   H2S 8749  -0.072   4.156   7.217 -1.8151 -1.0040 -1.0022
   90SAPE    C3 8750   0.190   4.547   6.909 -0.1850 -0.3416  1.1699
   90SAPE    HX 8751   0.100   4.602   6.944  0.0433 -0.6446  2.3022
   90SAPE    HY 8752   0.154   4.488   6.823 -1.0065  0.7211  0.7705
   90SAPE   O31 8753   0.312   4.632   6.878 -0.2756  0.2859  0.0903
   90SAPE   C31 8754   0.333   4.743   6.945 -0.0264  0.0361 -0.6211
   90SAPE   O32 8755   0.265   4.799   7.023 -0.2933  0.1443  0.4512
   90SAPE   C32 8756   0.460   4.799   6.886  0.1167  0.0911  0.7581
   90SAPE   H2X 8757   0.541   4.732   6.924  1.0390 -0.9333 -2.6661
   90SAPE   H2Y 8758   0.476   4.902   6.924 -1.0869  0.7201 -0.3578
   90SAPE   C23 8759  -0.166   4.236   7.031  0.0252  0.3392 -0.6573
   90SAPE   H3R 8760  -0.207   4.141   6.992 -1.3691  0.9105 -0.6301
   90SAPE   H3S 8761  -0.136   4.280   6.934 -1.2656 -2.3406 -2.3539
   90SAPE   C24 8762  -0.277   4.310   7.117  0.6329  0.5095  0.5018
   90SAPE   H4R 8763  -0.301   4.244   7.203  1.1496 -2.9171 -1.7834
   90SAPE   H4S 8764  -0.374   4.296   7.065  0.8660 -1.6651  0.5564
   90SAPE   C25 8765  -0.259   4.455   7.165  0.8678  0.3475  0.1647
   90SAPE   H5R 8766  -0.275   4.470   7.273  0.2183  1.8710 -0.1218
   90SAPE   C26 8767  -0.227   4.561   7.089 -0.5186 -0.1108  0.6513
   90SAPE   H6R 8768  -0.203   4.653   7.143 -3.7829 -0.4529  2.9792
   90SAPE   C27 8769  -0.202   4.565   6.938 -0.1326 -0.1170 -0.2915
   90SAPE   H7R 8770  -0.284   4.505   6.891 -1.5611  0.9102  0.7875
   90SAPE   H7S 8771  -0.105   4.517   6.913 -0.0765  0.3567 -0.9873
   90SAPE   C28 8772  -0.216   4.704   6.896  0.8337  0.1505 -0.7351
   90SAPE   H8R 8773  -0.287   4.757   6.961 -0.7045 -1.8179 -0.6993
   90SAPE   C29 8774  -0.169   4.760   6.781 -0.0259 -0.0854  0.3649
   90SAPE   H9R 8775  -0.202   4.864   6.762 -0.0569  0.1896  1.8597
   90SAPE  C210 8776  -0.070   4.703   6.684  0.1322 -0.4737  0.7252
   90SAPE  H10R 8777  -0.113   4.628   6.615 -1.6237  0.3630  0.8542
   90SAPE  H10S 8778   0.008   4.642   6.736 -2.1494 -2.2733  2.2591
   90SAPE  C211 8779  -0.006   4.809   6.594  0.0633  0.6073  1.0989
   90SAPE  H11R 8780  -0.005   4.918   6.608 -0.2006  1.2055 -2.4922
   90SAPE  C212 8781   0.052   4.783   6.477  0.2294  0.1412  0.3244
   90SAPE  H12R 8782   0.094   4.868   6.421 -2.0084  0.4190 -1.0256
   90SAPE  C213 8783   0.076   4.649   6.411 -0.0715  0.2793 -0.1006
   90SAPE  H13R 8784   0.011   4.620   6.327 -0.2366  2.6016 -0.8411
   90SAPE  H13S 8785   0.055   4.570   6.486  0.1070 -0.4172 -0.7722
   90SAPE  C214 8786   0.222   4.645   6.371  1.0425 -0.5395 -0.0220
   90SAPE  H14R 8787   0.289   4.711   6.428 -1.2257  1.2839  0.6816
   90SAPE  C215 8788   0.274   4.590   6.264 -0.4264  0.5695 -0.3366
   90SAPE  H15R 8789   0.380   4.608   6.243 -0.1158  0.2326  0.8201
   90SAPE  C216 8790   0.206   4.504   6.160 -0.6957  0.5122  0.2272
   90SAPE  H16R 8791   0.107   4.466   6.194 -0.8278  1.4803  0.9733
   90SAPE  H16S 8792   0.262   4.411   6.134 -1.1474  1.0554 -3.1998
   90SAPE  C217 8793   0.165   4.577   6.029  0.8428  0.4293  1.1079
   90SAPE  H17R 8794   0.131   4.681   6.047  1.8825  1.0155 -0.2268
   90SAPE  H17S 8795   0.086   4.523   5.972  1.1878  1.1635 -0.1052
   90SAPE  C218 8796   0.283   4.596   5.929 -0.2358  0.0230 -0.4737
   90SAPE  H18R 8797   0.310   4.494   5.893 -1.7335 -0.5701 -0.0436
   90SAPE  H18S 8798   0.366   4.631   5.993 -1.4745 -1.6775  2.2850
   90SAPE  C219 8799   0.248   4.691   5.820 -0.7037 -0.4602  0.1421
   90SAPE  H19R 8800   0.221   4.785   5.872 -0.6479 -0.5606  0.3517
   90SAPE  H19S 8801   0.155   4.647   5.778 -0.1113 -2.1433  0.5376
   90SAPE  C220 8802   0.364   4.725   5.722  0.5434  0.1535  0.2331
   90SAPE  H20R 8803   0.343   4.805   5.649  0.3351  2.5333  2.7444
   90SAPE  H20S 8804   0.397   4.631   5.672  1.7225  0.8846 -0.3784
   90SAPE  H20T 8805   0.455   4.753   5.780 -0.2862 -0.5393  1.9573
   90SAPE   C33 8806   0.464   4.784   6.738 -0.3542 -0.0752 -0.0005
   90SAPE   H3X 8807   0.392   4.848   6.683  1.1748 -0.3153 -2.4693
   90SAPE   H3Y 8808   0.461   4.681   6.697  2.2399 -0.7713  1.3096
   90SAPE   C34 8809   0.601   4.838   6.687  0.1113  0.8536 -0.1422
   90SAPE   H4X 8810   0.685   4.778   6.729  1.8613  2.0647 -1.7327
   90SAPE   H4Y 8811   0.611   4.943   6.722  2.0486 -0.0054  2.2152
   90SAPE   C35 8812   0.607   4.816   6.536  0.0253  0.3120 -0.1018
   90SAPE   H5X 8813   0.523   4.877   6.496 -1.4065 -0.9454  0.8769
   90SAPE   H5Y 8814   0.577   4.715   6.501 -0.3654  0.7595 -1.0919
   90SAPE   C36 8815   0.736   4.877   6.469  0.4857  0.1109  0.1039
   90SAPE   H6X 8816   0.821   4.827   6.520 -0.9524 -0.4973  1.9944
   90SAPE   H6Y 8817   0.741   4.985   6.492 -0.0565  0.3908 -0.9888
   90SAPE   C37 8818   0.741   4.842   6.319  0.5279 -0.2233  0.3391
   90SAPE   H7X 8819   0.641   4.868   6.278  0.5455  1.1974  1.1236
   90SAPE   H7Y 8820   0.755   4.733   6.302 -1.4162 -0.1353 -2.3718
   90SAPE   C38 8821   0.856   4.918   6.242 -0.5392 -0.3087 -0.8119
   90SAPE   H8X 8822   0.946   4.853   6.239  0.7753  1.4938 -1.9968
   90SAPE   H8Y 8823   0.879   5.008   6.303 -0.8999 -0.4154 -0.5146
   90SAPE   C39 8824   0.804   4.951   6.102 -0.2838 -0.2523  0.5743
   90SAPE   H9X 8825   0.886   5.016   6.064  1.4712 -3.4693 -1.6140
   90SAPE   H9Y 8826   0.709   5.007   6.109 -0.1651  0.0576 -0.1746
   90SAPE  C310 8827   0.787   4.828   6.008 -0.0774  0.4747 -0.1369
   90SAPE  H10X 8828   0.692   4.776   6.033 -0.8055  0.7752 -2.1142
   90SAPE  H10Y 8829   0.875   4.760   6.015 -0.2451 -0.1377 -2.7402
   90SAPE  C311 8830   0.796   4.873   5.863 -0.0660 -0.4682 -0.0080
   90SAPE  H11X 8831   0.899   4.912   5.844 -0.3738  0.6852  0.6216
   90SAPE  H11Y 8832   0.726   4.958   5.846  0.1428 -0.0989  0.8952
   90SAPE  C312 8833   0.776   4.779   5.753  0.6465  0.1963 -0.3198
   90SAPE  H12X 8834   0.686   4.716   5.768 -0.3363  1.4686 -0.6793
   90SAPE  H12Y 8835   0.865   4.713   5.746  0.1907 -0.2828 -2.3089
   90SAPE  C313 8836   0.754   4.843   5.613  0.1329 -1.0042 -0.5097
   90SAPE  H13X 8837   0.840   4.910   5.593 -0.7492  0.3145 -0.0297
   90SAPE  H13Y 8838   0.663   4.907   5.608  1.1996  0.9184  2.3349
   90SAPE  C314 8839   0.744   4.734   5.511  0.1903 -0.6383 -0.3719
   90SAPE  H14X 8840   0.663   4.669   5.550  1.4698 -1.3654  1.1876
   90SAPE  H14Y 8841   0.839   4.677   5.517  0.3717 -0.4782 -1.4811
   90SAPE  C315 8842   0.721   4.782   5.363  0.1698 -0.2388 -0.0121
   90SAPE  H15X 8843   0.808   4.848   5.343 -0.1279 -0.4872 -2.3341
   90SAPE  H15Y 8844   0.630   4.844   5.353 -0.6551 -1.5018 -0.5606
   90SAPE  C316 8845   0.709   4.669   5.259 -0.0586  0.2739 -0.0271
   90SAPE  H16X 8846   0.621   4.602   5.273 -1.7920  2.4306 -0.1514
   90SAPE  H16Y 8847   0.802   4.609   5.267  2.1493  3.6209  1.3370
   90SAPE  C317 8848   0.690   4.719   5.111  0.0233  0.0580 -0.0772
   90SAPE  H17X 8849   0.632   4.814   5.110 -1.2387 -0.6192  2.0720
   90SAPE  H17Y 8850   0.621   4.657   5.051 -1.8820  2.1862 -0.2412
   90SAPE  C318 8851   0.824   4.720   5.041  0.2195 -0.0186 -0.4833
   90SAPE  H18X 8852   0.808   4.720   4.932 -0.9896 -1.1353 -0.3297
   90SAPE  H18Y 8853   0.892   4.637   5.072 -0.2972 -0.2980 -0.0925
   90SAPE  H18Z 8854   0.877   4.811   5.076 -0.5005  0.5726 -0.9290
   91SAPE     N 8855   4.287   0.510   7.611 -0.6028  0.3122  0.1472
   91SAPE   HN1 8856   4.210   0.467   7.555 -1.0050 -0.1581  1.0396
   91SAPE   HN2 8857   4.318   0.434   7.675  0.9449 -0.0965 -1.0283
   91SAPE   HN3 8858   4.250   0.593   7.661  2.0116  0.9185  1.2261
   91SAPE   C12 8859   4.409   0.566   7.540 -0.4661 -0.2287  0.3283
   91SAPE  H12A 8860   4.421   0.506   7.447 -0.9935  0.6257 -0.3054
   91SAPE  H12B 8861   4.496   0.543   7.606 -0.3125 -0.7925 -0.0586
   91SAPE   C11 8862   4.396   0.716   7.521 -0.4098  0.0633 -0.1923
   91SAPE  H11A 8863   4.313   0.730   7.449 -0.0579  1.5329 -0.3369
   91SAPE  H11B 8864   4.490   0.752   7.475  0.5697  0.0895  1.7155
   91SAPE     P 8865   4.481   0.839   7.734 -0.4750 -0.3286  0.1512
   91SAPE   O13 8866   4.425   0.961   7.792  0.2418  0.3744  0.0457
   91SAPE   O14 8867   4.534   0.734   7.823 -0.2077 -0.5735 -0.8532
   91SAPE   O12 8868   4.368   0.784   7.642 -0.2097  0.4094 -0.0208
   91SAPE   O11 8869   4.589   0.883   7.625  0.1630 -0.0801 -0.0637
   91SAPE    C1 8870   4.630   1.021   7.618  0.0423  0.3833 -0.1766
   91SAPE    HA 8871   4.546   1.093   7.626 -1.8241 -1.4269 -2.0962
   91SAPE    HB 8872   4.694   1.049   7.705 -3.9330 -0.5438  3.3555
   91SAPE    C2 8873   4.704   1.057   7.480 -0.8756 -0.8828 -0.6535
   91SAPE    HS 8874   4.709   1.168   7.475 -1.1057 -0.8401 -0.0154
   91SAPE   O21 8875   4.643   1.000   7.361 -0.1274 -0.2363 -0.3386
   91SAPE   C21 8876   4.516   1.029   7.344 -0.1686  0.6107 -0.1081
   91SAPE   O22 8877   4.453   1.107   7.413  0.6455  0.2045  0.0367
   91SAPE   C22 8878   4.455   0.935   7.239  0.0739  0.2812  0.0560
   91SAPE   H2R 8879   4.500   0.973   7.145 -0.3611 -2.0890 -1.1837
   91SAPE   H2S 8880   4.481   0.828   7.246 -1.2915 -0.1978 -1.5760
   91SAPE    C3 8881   4.851   1.006   7.471 -0.5297 -0.1971 -0.0444
   91SAPE    HX 8882   4.828   0.898   7.466 -2.7871  0.2729 -1.1740
   91SAPE    HY 8883   4.913   1.027   7.561 -0.7922 -0.0025  0.0929
   91SAPE   O31 8884   4.929   1.039   7.355  0.0617 -0.1367 -0.1257
   91SAPE   C31 8885   4.988   1.160   7.361 -0.1765  0.0436 -0.5968
   91SAPE   O32 8886   4.956   1.243   7.442  0.3206  0.5254 -0.3057
   91SAPE   C32 8887   5.104   1.175   7.258  0.1579 -0.2721  0.0593
   91SAPE   H2X 8888   5.198   1.122   7.283 -0.6679 -1.3144  1.1268
   91SAPE   H2Y 8889   5.124   1.284   7.253 -0.2319 -0.2396 -0.9415
   91SAPE   C23 8890   4.304   0.965   7.222 -0.0210 -0.1973  0.1667
   91SAPE   H3R 8891   4.303   1.076   7.228 -1.2636  0.0015 -2.3898
   91SAPE   H3S 8892   4.231   0.921   7.294 -0.9768 -0.5715 -0.9962
   91SAPE   C24 8893   4.255   0.924   7.083  1.1463 -0.6228 -0.2125
   91SAPE   H4R 8894   4.323   0.972   7.010 -0.0417  1.6149  0.0728
   91SAPE   H4S 8895   4.156   0.972   7.072  1.9444  1.3146  0.5552
   91SAPE   C25 8896   4.245   0.776   7.057 -0.6335  0.4639 -0.3959
   91SAPE   H5R 8897   4.215   0.708   7.138  1.6851 -0.3571 -0.1393
   91SAPE   C26 8898   4.294   0.719   6.945 -0.0659 -0.3991  0.0362
   91SAPE   H6R 8899   4.280   0.612   6.927  1.0741 -0.3738 -1.1466
   91SAPE   C27 8900   4.355   0.786   6.826 -0.3480 -0.5997  0.2280
   91SAPE   H7R 8901   4.434   0.724   6.779  0.6250 -2.0824  3.4902
   91SAPE   H7S 8902   4.422   0.869   6.857  1.4238 -1.6208 -0.7162
   91SAPE   C28 8903   4.247   0.841   6.737  0.2315 -0.9088  0.0095
   91SAPE   H8R 8904   4.169   0.893   6.794  0.4546 -1.0053  0.4108
   91SAPE   C29 8905   4.250   0.829   6.603  0.5813  0.0351  0.0234
   91SAPE   H9R 8906   4.162   0.869   6.550 -0.4073  0.3341  1.8039
   91SAPE  C210 8907   4.350   0.769   6.507 -0.1354 -0.1707  0.3958
   91SAPE  H10R 8908   4.437   0.725   6.559 -0.2215 -1.3076 -0.3992
   91SAPE  H10S 8909   4.393   0.853   6.448  1.9711 -1.0081  0.6653
   91SAPE  C211 8910   4.281   0.663   6.427  0.4772 -0.0332 -0.0807
   91SAPE  H11R 8911   4.246   0.577   6.485 -0.4556  2.1464  2.8519
   91SAPE  C212 8912   4.242   0.663   6.299  0.1280  0.1935  1.0315
   91SAPE  H12R 8913   4.189   0.575   6.259 -3.4645  2.6080  0.0209
   91SAPE  C213 8914   4.252   0.779   6.200 -0.3396 -0.7448  0.4803
   91SAPE  H13R 8915   4.231   0.737   6.100  1.5035 -0.8871  0.1281
   91SAPE  H13S 8916   4.355   0.820   6.205 -0.9907  1.3766 -1.7765
   91SAPE  C214 8917   4.154   0.887   6.232 -0.6788 -0.3483  0.2301
   91SAPE  H14R 8918   4.195   0.983   6.264 -3.8184  2.0797 -2.2958
   91SAPE  C215 8919   4.024   0.900   6.199 -0.0166 -0.4616 -0.0286
   91SAPE  H15R 8920   3.971   0.995   6.218 -0.5597 -0.4881 -1.3054
   91SAPE  C216 8921   3.936   0.788   6.158  0.3710 -0.3484  0.1784
   91SAPE  H16R 8922   3.866   0.769   6.242  0.9456 -0.8756  0.5502
   91SAPE  H16S 8923   3.993   0.693   6.143 -0.1032 -0.5323 -0.5259
   91SAPE  C217 8924   3.854   0.808   6.028  0.5192 -0.3792  0.4457
   91SAPE  H17R 8925   3.814   0.709   5.995  1.0353 -0.8605  1.2383
   91SAPE  H17S 8926   3.916   0.847   5.945 -2.4440 -0.4802 -2.0063
   91SAPE  C218 8927   3.735   0.906   6.053 -0.1543  0.1525 -0.0395
   91SAPE  H18R 8928   3.757   1.009   6.088 -2.4324  1.0559 -1.0605
   91SAPE  H18S 8929   3.673   0.864   6.136 -1.2000  1.4064 -0.1486
   91SAPE  C219 8930   3.641   0.917   5.930  0.1759 -0.3197  0.2769
   91SAPE  H19R 8931   3.618   0.820   5.882  0.3589 -0.5351  0.6278
   91SAPE  H19S 8932   3.704   0.981   5.864 -0.0195  0.0336  0.4299
   91SAPE  C220 8933   3.513   0.992   5.979 -0.0631  0.2162  0.6372
   91SAPE  H20R 8934   3.451   1.025   5.894 -0.6361 -0.1424  0.9084
   91SAPE  H20S 8935   3.530   1.083   6.041 -0.1092 -0.2715  1.3799
   91SAPE  H20T 8936   3.446   0.916   6.025  0.4130 -1.6812 -1.6258
   91SAPE   C33 8937   5.053   1.123   7.120 -0.2193  0.3792  0.3212
   91SAPE   H3X 8938   4.960   1.174   7.085 -1.4308 -0.5236  2.0655
   91SAPE   H3Y 8939   5.036   1.014   7.130  0.7303  0.2522  0.6319
   91SAPE   C34 8940   5.171   1.142   7.025 -0.6971  0.6668  0.5282
   91SAPE   H4X 8941   5.239   1.062   7.063 -0.7105  0.7482  0.7272
   91SAPE   H4Y 8942   5.214   1.243   7.040 -0.2877  0.7111 -0.8101
   91SAPE   C35 8943   5.146   1.137   6.872 -0.4422 -0.0248  0.7022
   91SAPE   H5X 8944   5.242   1.157   6.820  0.0246 -0.3326  1.4228
   91SAPE   H5Y 8945   5.070   1.215   6.852  1.2475  1.6809  0.5664
   91SAPE   C36 8946   5.093   0.998   6.837  0.8376 -0.3049 -0.0224
   91SAPE   H6X 8947   4.984   1.005   6.855  0.8839 -1.2535  0.6688
   91SAPE   H6Y 8948   5.134   0.928   6.912  2.5040 -0.0570 -0.6573
   91SAPE   C37 8949   5.116   0.947   6.694 -0.5092  0.5204 -0.6054
   91SAPE   H7X 8950   5.059   1.015   6.627 -0.8481  2.1610  1.2663
   91SAPE   H7Y 8951   5.071   0.846   6.682 -0.7589  0.6908 -1.1593
   91SAPE   C38 8952   5.265   0.945   6.649 -0.7422 -0.0893 -0.6676
   91SAPE   H8X 8953   5.328   0.918   6.737  1.1204  0.5741 -1.7274
   91SAPE   H8Y 8954   5.284   1.053   6.630 -2.1729  0.7535  2.1133
   91SAPE   C39 8955   5.286   0.875   6.512 -0.4337 -0.0937 -0.0793
   91SAPE   H9X 8956   5.248   0.770   6.513 -3.3394  0.7972  3.0800
   91SAPE   H9Y 8957   5.397   0.864   6.513 -0.4511 -0.2905 -0.2013
   91SAPE  C310 8958   5.254   0.961   6.393 -0.0224  0.4708 -0.2609
   91SAPE  H10X 8959   5.306   1.057   6.411  0.0476  0.3193  0.3774
   91SAPE  H10Y 8960   5.143   0.969   6.391 -0.4482 -2.8710  1.3632
   91SAPE  C311 8961   5.287   0.898   6.255 -0.7689 -0.3173 -0.6005
   91SAPE  H11X 8962   5.395   0.874   6.242 -0.8400 -0.0337 -1.8567
   91SAPE  H11Y 8963   5.251   0.970   6.178 -1.1744  1.6286  1.3050
   91SAPE  C312 8964   5.217   0.760   6.240 -0.2550 -0.6206  0.0779
   91SAPE  H12X 8965   5.124   0.765   6.300 -0.4167 -1.2304 -0.1141
   91SAPE  H12Y 8966   5.288   0.685   6.282  1.0751 -0.1582 -1.2724
   91SAPE  C313 8967   5.166   0.725   6.099 -0.2008 -0.5163 -0.2381
   91SAPE  H13X 8968   5.100   0.809   6.069 -0.9677 -1.4301 -1.2075
   91SAPE  H13Y 8969   5.098   0.637   6.103  1.1561 -1.5724  0.1255
   91SAPE  C314 8970   5.285   0.692   5.998 -0.4015  0.2566 -0.3476
   91SAPE  H14X 8971   5.328   0.594   6.025  1.4342  0.5382 -2.0042
   91SAPE  H14Y 8972   5.370   0.761   6.014  1.4695 -1.7806 -1.0347
   91SAPE  C315 8973   5.243   0.690   5.852  0.1363  0.8797  0.2603
   91SAPE  H15X 8974   5.160   0.620   5.826  0.7213  0.2897 -0.0694
   91SAPE  H15Y 8975   5.333   0.666   5.792 -0.4125  1.8863 -1.0246
   91SAPE  C316 8976   5.187   0.826   5.803  0.3175 -0.1932 -0.7288
   91SAPE  H16X 8977   5.256   0.908   5.833 -0.4084  0.2499 -0.2491
   91SAPE  H16Y 8978   5.088   0.832   5.852  1.2382 -2.1824  1.6303
   91SAPE  C317 8979   5.174   0.823   5.651 -0.0013  0.2966 -0.4993
   91SAPE  H17X 8980   5.115   0.737   5.612  0.9004 -1.2129  1.3213
   91SAPE  H17Y 8981   5.275   0.808   5.608  0.5799 -0.7463  1.1452
   91SAPE  C318 8982   5.112   0.957   5.601  0.2584  0.5813  0.3011
   91SAPE  H18X 8983   5.131   0.974   5.493  1.4882  1.3039  0.6144
   91SAPE  H18Y 8984   5.170   1.037   5.652  0.8648 -0.5456  1.4072
   91SAPE  H18Z 8985   5.005   0.969   5.631  0.5969  0.6047  1.5849
   92SAPE     N 8986   5.542   0.390   7.560 -0.4047  0.1042  0.3865
   92SAPE   HN1 8987   5.520   0.293   7.590 -1.3445  0.4189  0.7726
   92SAPE   HN2 8988   5.613   0.437   7.620 -2.8510  2.3069  1.7593
   92SAPE   HN3 8989   5.460   0.455   7.554  1.1369  2.0831 -0.3458
   92SAPE   C12 8990   5.593   0.375   7.423 -0.0061  0.2329  0.5904
   92SAPE  H12A 8991   5.657   0.465   7.414 -0.5803  0.6322  0.4266
   92SAPE  H12B 8992   5.506   0.385   7.354  0.8033 -0.9859 -0.6649
   92SAPE   C11 8993   5.669   0.249   7.396 -0.2345  0.4362  0.3816
   92SAPE  H11A 8994   5.691   0.261   7.287  0.9220  0.8758  0.6455
   92SAPE  H11B 8995   5.613   0.155   7.413  0.7952 -0.2307  0.2224
   92SAPE     P 8996   5.906   0.156   7.433  0.0365 -0.0659 -0.1438
   92SAPE   O13 8997   6.025   0.193   7.512 -0.3711 -0.1283 -0.2183
   92SAPE   O14 8998   5.855   0.020   7.453 -0.0741 -0.1324 -0.5027
   92SAPE   O12 8999   5.788   0.246   7.471 -0.4773 -0.3067  0.1052
   92SAPE   O11 9000   5.935   0.175   7.281 -0.2704 -0.0195 -0.5572
   92SAPE    C1 9001   5.993   0.291   7.228  0.1415  0.1675  0.2668
   92SAPE    HA 9002   5.955   0.387   7.268 -0.1568 -0.1785  0.8217
   92SAPE    HB 9003   6.103   0.275   7.237 -0.0901 -1.1212  0.9247
   92SAPE    C2 9004   5.958   0.297   7.078 -0.2086  0.0080  0.7619
   92SAPE    HS 9005   5.848   0.306   7.071 -0.1840  0.5395  1.0109
   92SAPE   O21 9006   5.993   0.176   7.012 -0.4875 -0.3459 -0.0472
   92SAPE   C21 9007   6.123   0.155   6.976  0.0490 -0.5810  0.2324
   92SAPE   O22 9008   6.224   0.217   7.004  0.3830  0.1566  0.0828
   92SAPE   C22 9009   6.110   0.035   6.882  0.8620 -0.0261 -0.6836
   92SAPE   H2R 9010   6.120  -0.054   6.947  3.2142 -0.5704 -1.7087
   92SAPE   H2S 9011   6.010   0.028   6.835  0.1913  3.2759  0.0007
   92SAPE    C3 9012   6.011   0.428   7.015 -0.0084  0.2903  0.1970
   92SAPE    HX 9013   6.120   0.417   7.035 -0.2597 -1.3065  0.8447
   92SAPE    HY 9014   5.974   0.515   7.074 -2.2463  0.4148 -1.2913
   92SAPE   O31 9015   5.985   0.435   6.871 -0.2756  0.2343 -0.0593
   92SAPE   C31 9016   5.866   0.486   6.840 -0.1680  0.4588  0.0781
   92SAPE   O32 9017   5.791   0.546   6.913  0.1577  0.2135  0.4501
   92SAPE   C32 9018   5.830   0.454   6.702  0.0379  0.5761 -0.6162
   92SAPE   H2X 9019   5.802   0.347   6.701  0.9675  0.2178  2.1402
   92SAPE   H2Y 9020   5.912   0.477   6.631  2.5863 -0.3197  1.8201
   92SAPE   C23 9021   6.217   0.008   6.772  0.1872  0.1434  0.8022
   92SAPE   H3R 9022   6.310  -0.026   6.823  1.5073  0.5793 -1.1919
   92SAPE   H3S 9023   6.226   0.105   6.719 -1.5060 -1.1771 -2.1252
   92SAPE   C24 9024   6.174  -0.107   6.668  0.4859  0.2747  0.0860
   92SAPE   H4R 9025   6.147  -0.192   6.734  1.5833 -1.9813 -2.1704
   92SAPE   H4S 9026   6.265  -0.143   6.615  1.0898 -1.5913  2.2445
   92SAPE   C25 9027   6.057  -0.068   6.578  0.2242 -0.1230  0.0795
   92SAPE   H5R 9028   5.983  -0.005   6.628 -0.7449 -0.9229 -0.3149
   92SAPE   C26 9029   6.036  -0.107   6.448 -0.8625 -0.2875  0.2591
   92SAPE   H6R 9030   5.960  -0.049   6.394  1.2849  1.6969 -0.7960
   92SAPE   C27 9031   6.104  -0.201   6.359 -0.7899  0.1379  0.0062
   92SAPE   H7R 9032   6.057  -0.301   6.362  1.3486 -0.9296 -0.2863
   92SAPE   H7S 9033   6.204  -0.223   6.400 -1.7056 -0.3789  2.0581
   92SAPE   C28 9034   6.110  -0.149   6.214 -0.1577  0.3840 -0.5286
   92SAPE   H8R 9035   6.199  -0.088   6.193  0.9668 -0.3429  1.7171
   92SAPE   C29 9036   6.023  -0.178   6.113  0.5505  0.5313 -0.4562
   92SAPE   H9R 9037   6.037  -0.133   6.013  1.8419  0.3920 -0.3591
   92SAPE  C210 9038   5.903  -0.263   6.124  0.2850 -0.7091 -0.8458
   92SAPE  H10R 9039   5.821  -0.209   6.073  0.7850  1.7577  0.7841
   92SAPE  H10S 9040   5.874  -0.276   6.230 -1.0081 -0.9164 -1.2095
   92SAPE  C211 9041   5.910  -0.397   6.057  0.4596 -0.4105  0.1905
   92SAPE  H11R 9042   6.006  -0.448   6.037  0.1468 -0.3635 -1.6376
   92SAPE  C212 9043   5.798  -0.454   6.008  0.5351 -0.3096 -0.2253
   92SAPE  H12R 9044   5.801  -0.554   5.962  1.1072 -0.6939  0.6170
   92SAPE  C213 9045   5.658  -0.409   6.030 -0.1788 -0.1302  0.1645
   92SAPE  H13R 9046   5.650  -0.301   6.001  0.6942 -0.4954 -1.6190
   92SAPE  H13S 9047   5.639  -0.397   6.138 -0.4351 -0.8497  0.2033
   92SAPE  C214 9048   5.541  -0.503   5.987 -0.1840  0.2075  0.9245
   92SAPE  H14R 9049   5.539  -0.602   6.037  1.9888  0.1248  0.9612
   92SAPE  C215 9050   5.449  -0.474   5.894 -0.0195 -1.0629  0.1398
   92SAPE  H15R 9051   5.385  -0.555   5.854  0.2119 -0.6902 -1.0234
   92SAPE  C216 9052   5.435  -0.351   5.814  0.1759  0.4109 -0.2569
   92SAPE  H16R 9053   5.468  -0.366   5.709 -1.6505 -1.7297 -0.6023
   92SAPE  H16S 9054   5.511  -0.274   5.840  0.4256  0.3943 -0.9310
   92SAPE  C217 9055   5.304  -0.279   5.820  0.4856  0.3085  0.1220
   92SAPE  H17R 9056   5.292  -0.240   5.923 -1.4646  1.3414 -0.4394
   92SAPE  H17S 9057   5.211  -0.340   5.817  0.8556 -0.2352 -1.9789
   92SAPE  C218 9058   5.291  -0.165   5.726 -0.3321  0.5256 -0.1658
   92SAPE  H18R 9059   5.377  -0.098   5.748  0.3754 -0.8804  1.6168
   92SAPE  H18S 9060   5.200  -0.106   5.749 -0.2043  0.8549 -0.5070
   92SAPE  C219 9061   5.276  -0.188   5.579  0.1054 -0.4480  0.1386
   92SAPE  H19R 9062   5.187  -0.251   5.557  1.0976 -1.2803 -1.6624
   92SAPE  H19S 9063   5.368  -0.223   5.528 -0.3486 -0.8905 -0.4013
   92SAPE  C220 9064   5.249  -0.046   5.516 -0.4194 -0.4060  0.0570
   92SAPE  H20R 9065   5.330   0.029   5.530  0.0090 -0.9541  0.5711
   92SAPE  H20S 9066   5.151  -0.002   5.544 -0.6376 -2.0394  2.0600
   92SAPE  H20T 9067   5.238  -0.071   5.408  1.5942 -1.1490 -0.0211
   92SAPE   C33 9068   5.701   0.539   6.662 -0.3291 -0.3649 -0.5455
   92SAPE   H3X 9069   5.721   0.648   6.673 -0.7317 -0.4339  1.1869
   92SAPE   H3Y 9070   5.618   0.517   6.733 -0.8401 -0.9422 -1.3037
   92SAPE   C34 9071   5.648   0.517   6.520  0.0502  0.9532  0.2771
   92SAPE   H4X 9072   5.551   0.569   6.502 -2.1115 -2.4421  1.0996
   92SAPE   H4Y 9073   5.625   0.409   6.508 -0.1553  0.8495  1.5508
   92SAPE   C35 9074   5.749   0.561   6.407 -0.1498  0.0092 -0.5899
   92SAPE   H5X 9075   5.846   0.510   6.423 -0.1618 -0.0553 -0.7287
   92SAPE   H5Y 9076   5.767   0.669   6.426  3.6877 -0.8551  1.7424
   92SAPE   C36 9077   5.694   0.526   6.276 -0.7963  0.6212 -0.0144
   92SAPE   H6X 9078   5.587   0.554   6.264 -0.8912  0.7891  1.0989
   92SAPE   H6Y 9079   5.698   0.415   6.268 -0.6292  0.6194  0.0918
   92SAPE   C37 9080   5.789   0.586   6.175  0.1631  0.3880 -0.6029
   92SAPE   H7X 9081   5.890   0.541   6.186  0.1748  0.6476  0.5828
   92SAPE   H7Y 9082   5.803   0.695   6.194  0.1291  0.3648 -0.4373
   92SAPE   C38 9083   5.745   0.562   6.024  0.2621 -0.2104  0.3021
   92SAPE   H8X 9084   5.649   0.615   6.012 -0.7601 -1.8909  0.7480
   92SAPE   H8Y 9085   5.715   0.459   5.997 -2.5295  0.6402 -0.0982
   92SAPE   C39 9086   5.852   0.617   5.932 -0.4783 -0.3162 -0.4085
   92SAPE   H9X 9087   5.831   0.577   5.830  0.7382  0.0096 -0.7961
   92SAPE   H9Y 9088   5.952   0.581   5.964  0.2433  0.1884 -1.9737
   92SAPE  C310 9089   5.863   0.764   5.928  0.3811 -0.4974  0.3995
   92SAPE  H10X 9090   5.873   0.805   6.030 -4.8707  1.4274  0.4481
   92SAPE  H10Y 9091   5.777   0.817   5.882  2.3743  1.1665 -1.6205
   92SAPE  C311 9092   5.978   0.819   5.841 -0.4701  0.3926  0.0862
   92SAPE  H11X 9093   5.990   0.761   5.747  2.5586 -0.6728  1.0064
   92SAPE  H11Y 9094   6.078   0.799   5.884  0.3956  3.1218 -0.4187
   92SAPE  C312 9095   5.971   0.970   5.826 -0.3871  0.7363  0.5086
   92SAPE  H12X 9096   5.983   1.013   5.928  3.0588  0.0025  0.5407
   92SAPE  H12Y 9097   5.871   0.999   5.786 -1.1153 -1.6982  0.4232
   92SAPE  C313 9098   6.082   1.034   5.734  0.1236 -0.4727  0.4527
   92SAPE  H13X 9099   6.075   0.990   5.632 -1.1197 -1.3719  0.8963
   92SAPE  H13Y 9100   6.183   1.015   5.776 -0.6709 -0.1157  2.6833
   92SAPE  C314 9101   6.062   1.186   5.731 -0.5423 -0.3495 -0.1416
   92SAPE  H14X 9102   6.142   1.226   5.664 -1.1005  0.3820 -0.3862
   92SAPE  H14Y 9103   6.066   1.233   5.831 -3.0108 -0.2085 -0.0561
   92SAPE  C315 9104   5.932   1.241   5.664 -0.0499  0.0619 -0.0792
   92SAPE  H15X 9105   5.846   1.233   5.734 -1.4680 -1.0573 -1.8322
   92SAPE  H15Y 9106   5.906   1.175   5.578 -0.2016 -0.7323  0.5615
   92SAPE  C316 9107   5.943   1.380   5.606 -0.0507  0.6858 -0.3071
   92SAPE  H16X 9108   6.008   1.392   5.516  0.5761 -0.2164  0.0143
   92SAPE  H16Y 9109   5.990   1.438   5.688  1.0623 -0.9847  0.2912
   92SAPE  C317 9110   5.811   1.442   5.584  0.8988  0.1824  0.1925
   92SAPE  H17X 9111   5.742   1.402   5.662  0.6898 -1.8395 -0.9643
   92SAPE  H17Y 9112   5.768   1.405   5.489  2.0127 -1.5059  0.3048
   92SAPE  C318 9113   5.808   1.593   5.596 -0.0376  0.8666  0.1952
   92SAPE  H18X 9114   5.853   1.628   5.500 -0.0844  0.6470  0.0945
   92SAPE  H18Y 9115   5.873   1.622   5.681  1.7303 -0.4151 -0.6569
   92SAPE  H18Z 9116   5.707   1.633   5.618 -0.6482  0.5347 -1.8331
   93SAPE     N 9117   2.014   6.259   7.771 -0.0770 -0.1997 -0.1355
   93SAPE   HN1 9118   1.910   6.254   7.762 -0.2358  0.3998  1.2379
   93SAPE   HN2 9119   2.035   6.235   7.870 -1.8538 -1.8954 -0.1081
   93SAPE   HN3 9120   2.050   6.353   7.747 -1.8980  0.3695 -0.8137
   93SAPE   C12 9121   2.079   6.157   7.674  0.3050 -0.1585  0.0098
   93SAPE  H12A 9122   2.183   6.138   7.707  1.4757  0.7810 -2.8093
   93SAPE  H12B 9123   2.096   6.209   7.577  2.3266  0.9056  0.8767
   93SAPE   C11 9124   1.992   6.025   7.654 -0.9257 -0.1107  0.2270
   93SAPE  H11A 9125   2.055   5.965   7.585 -0.0167  1.1763 -0.0975
   93SAPE  H11B 9126   1.891   6.033   7.608 -1.6495 -3.1264  1.0824
   93SAPE     P 9127   2.056   5.852   7.833  0.3397 -0.0873 -0.7426
   93SAPE   O13 9128   2.174   5.908   7.898 -0.2432 -0.3466 -0.2560
   93SAPE   O14 9129   1.970   5.760   7.918  0.2546 -1.0299 -0.0796
   93SAPE   O12 9130   1.966   5.967   7.780  0.2036  0.6138 -0.5137
   93SAPE   O11 9131   2.105   5.778   7.706 -0.0578  0.2170 -0.1478
   93SAPE    C1 9132   2.210   5.680   7.701 -0.2394 -0.1709 -0.2430
   93SAPE    HA 9133   2.304   5.737   7.713  0.4439 -1.5744  1.4589
   93SAPE    HB 9134   2.197   5.608   7.785 -1.4783  0.5846  0.2422
   93SAPE    C2 9135   2.208   5.591   7.571 -0.0540  0.2481 -0.0056
   93SAPE    HS 9136   2.315   5.561   7.565  0.5079  2.1925 -0.4970
   93SAPE   O21 9137   2.176   5.675   7.454  0.2651 -0.1234  0.5225
   93SAPE   C21 9138   2.276   5.754   7.420 -0.6642 -0.6989  0.6120
   93SAPE   O22 9139   2.382   5.772   7.475 -0.1464  0.2480 -0.1890
   93SAPE   C22 9140   2.239   5.821   7.290 -0.1445 -0.1327 -0.2342
   93SAPE   H2R 9141   2.134   5.852   7.306  1.0085  3.1770  1.9365
   93SAPE   H2S 9142   2.297   5.914   7.271 -0.1326 -0.0239  0.3179
   93SAPE    C3 9143   2.110   5.461   7.595 -0.1750 -0.3570  0.3961
   93SAPE    HX 9144   2.013   5.507   7.622  0.2001  1.8212 -1.7046
   93SAPE    HY 9145   2.152   5.396   7.676 -2.1750 -1.5179  0.5647
   93SAPE   O31 9146   2.098   5.383   7.470  0.2402 -0.5106  0.1138
   93SAPE   C31 9147   2.202   5.297   7.451  0.5047 -0.0396 -0.4309
   93SAPE   O32 9148   2.306   5.298   7.517 -0.5103  0.3914 -0.4205
   93SAPE   C32 9149   2.171   5.217   7.321  0.4757  0.3538  0.2869
   93SAPE   H2X 9150   2.062   5.197   7.317  0.9162 -2.2409 -1.1126
   93SAPE   H2Y 9151   2.237   5.129   7.340  1.3010  0.6150 -1.2521
   93SAPE   C23 9152   2.241   5.729   7.164 -0.1556 -0.0465  0.0934
   93SAPE   H3R 9153   2.238   5.803   7.081  2.7451  0.3151  0.2208
   93SAPE   H3S 9154   2.155   5.658   7.163 -1.5266  1.5206  1.1274
   93SAPE   C24 9155   2.371   5.648   7.149  0.6927  0.3048  0.0549
   93SAPE   H4R 9156   2.357   5.571   7.070 -2.1145  0.0004  0.7401
   93SAPE   H4S 9157   2.379   5.599   7.249 -1.0717  2.1923  1.1979
   93SAPE   C25 9158   2.492   5.739   7.125 -0.4200  1.0381 -0.0168
   93SAPE   H5R 9159   2.514   5.823   7.192 -0.4237  0.9645  0.0770
   93SAPE   C26 9160   2.575   5.724   7.018 -0.6160  0.2087 -0.7532
   93SAPE   H6R 9161   2.666   5.786   7.016 -1.6785  1.8344 -2.5460
   93SAPE   C27 9162   2.566   5.626   6.905 -0.4741  0.4184  0.4359
   93SAPE   H7R 9163   2.635   5.672   6.831  0.0923  0.0868  0.7525
   93SAPE   H7S 9164   2.460   5.635   6.871 -0.6195 -0.8322  0.4946
   93SAPE   C28 9165   2.600   5.483   6.930  0.5653  0.8476 -0.0290
   93SAPE   H8R 9166   2.628   5.456   7.033  1.1727 -0.8957 -0.6044
   93SAPE   C29 9167   2.567   5.386   6.847 -0.3984  0.0044  0.5602
   93SAPE   H9R 9168   2.594   5.285   6.882 -0.8564 -0.0462  0.7745
   93SAPE  C210 9169   2.507   5.415   6.716 -1.0392 -0.7306 -0.0307
   93SAPE  H10R 9170   2.494   5.523   6.691 -2.3169 -0.0870  3.0238
   93SAPE  H10S 9171   2.404   5.375   6.710 -2.2241  1.9295  0.9252
   93SAPE  C211 9172   2.580   5.337   6.604  0.2517  0.4770  0.1778
   93SAPE  H11R 9173   2.563   5.229   6.618 -1.7161  0.8185  0.6737
   93SAPE  C212 9174   2.643   5.392   6.498 -0.1530 -0.0051  0.0694
   93SAPE  H12R 9175   2.686   5.325   6.422 -0.9383 -1.7037  1.0610
   93SAPE  C213 9176   2.671   5.538   6.473  0.3067 -0.5077  0.5169
   93SAPE  H13R 9177   2.774   5.533   6.431  0.3526 -1.3582  0.7125
   93SAPE  H13S 9178   2.658   5.608   6.558 -0.4773  0.7003 -0.5641
   93SAPE  C214 9179   2.567   5.589   6.368  0.1468 -0.1524  0.3512
   93SAPE  H14R 9180   2.519   5.513   6.305 -1.4249  2.5780 -1.9650
   93SAPE  C215 9181   2.529   5.711   6.327  0.1109  0.5977  0.0949
   93SAPE  H15R 9182   2.450   5.724   6.253 -1.9643 -1.5378  1.7801
   93SAPE  C216 9183   2.582   5.829   6.399 -0.2132 -0.2176 -1.0263
   93SAPE  H16R 9184   2.628   5.894   6.321 -1.5730  0.5287 -1.2417
   93SAPE  H16S 9185   2.655   5.813   6.482  0.1234 -0.1878 -1.3114
   93SAPE  C217 9186   2.465   5.902   6.473 -0.3426 -0.3308 -0.0149
   93SAPE  H17R 9187   2.385   5.930   6.401 -1.4676 -0.1729  1.2669
   93SAPE  H17S 9188   2.502   5.989   6.532 -2.1540 -0.4479  1.3606
   93SAPE  C218 9189   2.391   5.819   6.580 -0.2496 -0.1729 -0.1630
   93SAPE  H18R 9190   2.470   5.771   6.643 -0.4633 -2.1081 -1.2598
   93SAPE  H18S 9191   2.336   5.733   6.536 -0.0934  0.7809 -2.3370
   93SAPE  C219 9192   2.309   5.911   6.672 -0.1044  0.2395  0.1329
   93SAPE  H19R 9193   2.247   5.981   6.612  1.3136  1.1937 -0.2607
   93SAPE  H19S 9194   2.377   5.982   6.723  1.1012  0.8394 -2.1583
   93SAPE  C220 9195   2.222   5.843   6.775  1.3036 -0.8751  0.3804
   93SAPE  H20R 9196   2.278   5.763   6.828 -0.3774 -1.0802  1.9495
   93SAPE  H20S 9197   2.123   5.795   6.756 -0.0038  1.4538  0.8335
   93SAPE  H20T 9198   2.196   5.924   6.847 -0.8415  0.2870 -1.5613
   93SAPE   C33 9199   2.226   5.295   7.201  0.0736 -0.5254 -0.3169
   93SAPE   H3X 9200   2.337   5.294   7.199  0.1050  1.1167 -2.0245
   93SAPE   H3Y 9201   2.212   5.402   7.224 -0.0055 -1.0506  2.3706
   93SAPE   C34 9202   2.156   5.269   7.058 -0.4082  0.0465 -0.6297
   93SAPE   H4X 9203   2.047   5.279   7.080 -0.0668 -0.9104  1.8183
   93SAPE   H4Y 9204   2.182   5.165   7.030 -2.3350 -0.1658 -1.8227
   93SAPE   C35 9205   2.185   5.368   6.953  0.0665 -0.3826  0.4385
   93SAPE   H5X 9206   2.294   5.384   6.947  0.2237 -0.8122  1.7893
   93SAPE   H5Y 9207   2.139   5.462   6.993 -2.4296 -0.0885 -2.7368
   93SAPE   C36 9208   2.126   5.345   6.810  0.1424  0.2911 -0.6101
   93SAPE   H6X 9209   2.018   5.326   6.828  0.4242  0.0160  0.9659
   93SAPE   H6Y 9210   2.171   5.253   6.769  0.7536  0.7157 -0.8991
   93SAPE   C37 9211   2.140   5.462   6.712  0.3125  0.3964 -0.5128
   93SAPE   H7X 9212   2.246   5.496   6.705  0.2390  2.3518  4.1372
   93SAPE   H7Y 9213   2.079   5.539   6.765 -2.7220 -3.2844  1.9358
   93SAPE   C38 9214   2.085   5.422   6.574 -0.4561 -0.2557 -0.2530
   93SAPE   H8X 9215   1.975   5.423   6.586 -0.2062  1.1622  2.6798
   93SAPE   H8Y 9216   2.122   5.323   6.539  0.7838  0.0575  0.1199
   93SAPE   C39 9217   2.111   5.518   6.461  0.0028 -0.7122 -0.0805
   93SAPE   H9X 9218   2.220   5.533   6.445  0.3053  0.1960  2.3057
   93SAPE   H9Y 9219   2.063   5.612   6.496 -0.9427 -0.4398 -2.0134
   93SAPE  C310 9220   2.041   5.460   6.331 -0.7438 -0.1506  0.3157
   93SAPE  H10X 9221   1.932   5.444   6.339 -0.8227 -0.6693 -1.3714
   93SAPE  H10Y 9222   2.082   5.357   6.321 -0.5012 -0.1706  1.3384
   93SAPE  C311 9223   2.075   5.522   6.196 -1.6592 -0.2990 -0.0081
   93SAPE  H11X 9224   2.027   5.623   6.190 -0.4758  0.2887  0.1225
   93SAPE  H11Y 9225   2.044   5.452   6.115  0.5938 -3.2053  1.4866
   93SAPE  C312 9226   2.225   5.553   6.182 -1.1969 -0.4767  0.6003
   93SAPE  H12X 9227   2.294   5.474   6.219 -0.4557 -0.4240 -0.6135
   93SAPE  H12Y 9228   2.239   5.641   6.248 -3.5484  0.0715  0.4438
   93SAPE  C313 9229   2.286   5.589   6.044  0.2047  0.0836 -0.5339
   93SAPE  H13X 9230   2.306   5.498   5.984  3.7829  0.2821  0.1602
   93SAPE  H13Y 9231   2.390   5.626   6.057  0.4011 -0.2257 -1.1778
   93SAPE  C314 9232   2.209   5.687   5.959  0.3197 -0.9938 -0.1736
   93SAPE  H14X 9233   2.176   5.770   6.026 -0.8548 -0.3928 -1.4354
   93SAPE  H14Y 9234   2.110   5.641   5.937  0.1509  0.4888 -3.0742
   93SAPE  C315 9235   2.280   5.738   5.833 -0.2731  0.3019 -0.4082
   93SAPE  H15X 9236   2.380   5.782   5.849 -0.6793  0.5909  1.4727
   93SAPE  H15Y 9237   2.230   5.830   5.795 -1.1602  0.7788  1.7732
   93SAPE  C316 9238   2.273   5.629   5.722  0.0450  0.2800 -0.4171
   93SAPE  H16X 9239   2.168   5.597   5.709 -0.0390  0.5584 -0.4119
   93SAPE  H16Y 9240   2.340   5.545   5.752  0.3213  1.5371  2.8912
   93SAPE  C317 9241   2.328   5.687   5.589  0.1433  0.0011 -0.4127
   93SAPE  H17X 9242   2.418   5.748   5.612 -0.2394  0.4718 -0.1532
   93SAPE  H17Y 9243   2.257   5.758   5.541 -1.8139 -0.3551  1.7562
   93SAPE  C318 9244   2.346   5.582   5.477  0.4202 -0.1644 -0.3599
   93SAPE  H18X 9245   2.442   5.528   5.488  0.9066  0.3032 -1.9885
   93SAPE  H18Y 9246   2.339   5.626   5.375 -1.6942  2.2550  0.7214
   93SAPE  H18Z 9247   2.266   5.506   5.485  1.8247 -1.5714  1.3253
   94SAPE     N 9248   0.757   1.876   7.723  0.6939 -0.2229  0.0338
   94SAPE   HN1 9249   0.716   1.916   7.637  0.7096 -0.1526  0.0592
   94SAPE   HN2 9250   0.709   1.789   7.753  0.7658 -0.3980 -0.3512
   94SAPE   HN3 9251   0.747   1.942   7.803  0.6978 -0.2609  0.0655
   94SAPE   C12 9252   0.897   1.843   7.693 -0.0432  0.1386 -0.2631
   94SAPE  H12A 9253   0.951   1.848   7.790 -1.2743  0.2920  0.4376
   94SAPE  H12B 9254   0.937   1.925   7.630 -2.6843  1.5372 -0.2587
   94SAPE   C11 9255   0.900   1.699   7.630 -0.1225  0.1104  0.0494
   94SAPE  H11A 9256   0.891   1.614   7.701 -2.8060  1.4476  1.4773
   94SAPE  H11B 9257   1.002   1.679   7.591  0.4939 -1.4354  2.3009
   94SAPE     P 9258   0.818   1.578   7.415 -0.2277  0.1112 -0.0984
   94SAPE   O13 9259   0.826   1.450   7.491  0.0301 -0.3684  0.3069
   94SAPE   O14 9260   0.696   1.591   7.326 -0.4925 -0.6746  0.0708
   94SAPE   O12 9261   0.805   1.684   7.524  0.0296 -0.6707 -0.5566
   94SAPE   O11 9262   0.956   1.613   7.341  0.2997  0.1291  0.2740
   94SAPE    C1 9263   1.028   1.507   7.271  0.6181  0.1451 -0.6751
   94SAPE    HA 9264   1.102   1.449   7.330 -0.1796 -1.3100 -1.0669
   94SAPE    HB 9265   0.963   1.423   7.241  1.3080 -0.0912 -1.5413
   94SAPE    C2 9266   1.099   1.568   7.145  0.1572 -0.4858 -0.0679
   94SAPE    HS 9267   1.167   1.646   7.186 -0.7709  0.0842  0.4549
   94SAPE   O21 9268   1.009   1.625   7.046 -0.1292  0.0519  0.9114
   94SAPE   C21 9269   1.006   1.761   7.029  0.2954  0.5610  0.2343
   94SAPE   O22 9270   1.083   1.835   7.088  0.0665  1.3394  0.0967
   94SAPE   C22 9271   0.900   1.811   6.938  0.4344 -0.0117  0.1019
   94SAPE   H2R 9272   0.820   1.736   6.917 -2.1618  2.8174 -0.8691
   94SAPE   H2S 9273   0.850   1.889   6.999 -0.4529  0.3440 -1.0485
   94SAPE    C3 9274   1.185   1.461   7.073  0.3753  0.4590 -0.5249
   94SAPE    HX 9275   1.122   1.375   7.043 -0.8469  0.3024  2.1759
   94SAPE    HY 9276   1.255   1.418   7.148  0.8284  0.2202 -1.0728
   94SAPE   O31 9277   1.240   1.515   6.955 -0.1114  0.1259 -0.5289
   94SAPE   C31 9278   1.358   1.583   6.973  0.3168  0.0134 -0.1360
   94SAPE   O32 9279   1.426   1.582   7.072  0.1353 -0.1854 -0.0953
   94SAPE   C32 9280   1.388   1.650   6.840  0.4600  0.2258  0.4233
   94SAPE   H2X 9281   1.319   1.612   6.762  0.3430  1.5266 -0.1210
   94SAPE   H2Y 9282   1.495   1.634   6.812  0.6776  0.0195  1.3428
   94SAPE   C23 9283   0.965   1.861   6.805  0.2859  0.4013 -1.2302
   94SAPE   H3R 9284   1.051   1.929   6.822 -0.6827  1.1188  1.3587
   94SAPE   H3S 9285   0.880   1.915   6.759 -0.1346  1.6509  0.8736
   94SAPE   C24 9286   1.007   1.747   6.710 -0.1946 -1.1810  0.2168
   94SAPE   H4R 9287   1.073   1.680   6.769  1.5910  1.3594  1.2789
   94SAPE   H4S 9288   1.073   1.790   6.631 -0.8837 -0.4994 -0.0082
   94SAPE   C25 9289   0.890   1.683   6.642 -0.1997 -0.5131 -0.2988
   94SAPE   H5R 9290   0.817   1.757   6.604 -0.3341 -0.5243 -0.0637
   94SAPE   C26 9291   0.840   1.557   6.653 -0.2978 -0.0831 -0.1182
   94SAPE   H6R 9292   0.745   1.528   6.606  0.5544 -2.6795 -0.3768
   94SAPE   C27 9293   0.908   1.443   6.726 -0.1609 -0.2304  0.1898
   94SAPE   H7R 9294   0.840   1.355   6.731 -1.4769  0.6065 -1.5624
   94SAPE   H7S 9295   0.921   1.487   6.827  1.1053  1.3058 -0.5770
   94SAPE   C28 9296   1.030   1.384   6.667  0.0087 -0.5942  0.6933
   94SAPE   H8R 9297   1.112   1.457   6.655 -2.4689  2.1017 -0.9894
   94SAPE   C29 9298   1.052   1.263   6.618  0.0929 -0.0062  0.2167
   94SAPE   H9R 9299   1.146   1.245   6.563 -0.9185 -2.2772 -0.8866
   94SAPE  C210 9300   0.964   1.143   6.623  0.5280  0.5824 -0.3656
   94SAPE  H10R 9301   0.927   1.129   6.519  0.0164 -0.6624 -0.0362
   94SAPE  H10S 9302   0.885   1.163   6.698  0.9524  1.7584 -0.2221
   94SAPE  C211 9303   1.046   1.024   6.669 -0.1680 -0.2903 -0.3613
   94SAPE  H11R 9304   1.073   1.018   6.775  0.3898 -0.6936 -0.5251
   94SAPE  C212 9305   1.083   0.928   6.582  0.4842  0.0846 -0.2450
   94SAPE  H12R 9306   1.130   0.835   6.619 -0.1158 -0.5219 -0.9717
   94SAPE  C213 9307   1.058   0.925   6.435 -0.1444 -0.5034  0.5739
   94SAPE  H13R 9308   1.076   1.027   6.394  2.8991 -1.2021 -0.0819
   94SAPE  H13S 9309   0.949   0.905   6.431 -0.3211  0.3402  0.8992
   94SAPE  C214 9310   1.152   0.830   6.363  0.5599 -0.1962 -0.8270
   94SAPE  H14R 9311   1.250   0.816   6.410  0.2990  0.7217  0.0135
   94SAPE  C215 9312   1.133   0.771   6.241 -0.0483 -0.4577  0.4842
   94SAPE  H15R 9313   1.217   0.707   6.213  1.2986  1.3345  0.2752
   94SAPE  C216 9314   1.019   0.780   6.144 -0.5092 -0.6497  0.5447
   94SAPE  H16R 9315   0.920   0.748   6.183 -1.3633 -0.3231 -1.2242
   94SAPE  H16S 9316   1.029   0.700   6.068 -3.1086 -0.2594 -0.3247
   94SAPE  C217 9317   1.001   0.918   6.078 -0.6577 -0.1227 -0.4411
   94SAPE  H17R 9318   1.096   0.969   6.051 -0.2209 -0.3115  0.6763
   94SAPE  H17S 9319   0.945   0.977   6.153  1.7094  1.1169  0.4422
   94SAPE  C218 9320   0.917   0.921   5.948  0.5621  0.0313  0.3592
   94SAPE  H18R 9321   0.817   0.872   5.951 -0.5114  2.0455 -0.4905
   94SAPE  H18S 9322   0.971   0.882   5.859 -1.9710  2.9901 -2.7570
   94SAPE  C219 9323   0.887   1.062   5.912 -0.3378 -0.2343  0.1087
   94SAPE  H19R 9324   0.987   1.112   5.909 -0.4935  0.0314 -1.2503
   94SAPE  H19S 9325   0.829   1.122   5.986  1.0515 -0.2361  1.2633
   94SAPE  C220 9326   0.839   1.084   5.764  0.5655 -0.3171 -0.3793
   94SAPE  H20R 9327   0.833   1.194   5.745  0.9423 -0.0559  0.9488
   94SAPE  H20S 9328   0.738   1.044   5.745  0.6079 -0.8927  0.5805
   94SAPE  H20T 9329   0.907   1.039   5.688  0.5030  0.2847 -0.8013
   94SAPE   C33 9330   1.378   1.803   6.847  0.2131  0.6775 -0.3251
   94SAPE   H3X 9331   1.452   1.843   6.919 -0.7299  1.6941  0.1022
   94SAPE   H3Y 9332   1.282   1.837   6.890  0.8740  0.3817  1.4923
   94SAPE   C34 9333   1.403   1.868   6.716  0.5416 -0.3915  0.6709
   94SAPE   H4X 9334   1.323   1.862   6.639 -1.1145  1.5086  2.1303
   94SAPE   H4Y 9335   1.501   1.832   6.679  0.2737  0.7544 -1.2871
   94SAPE   C35 9336   1.440   2.015   6.744  0.0752  0.0258  0.3380
   94SAPE   H5X 9337   1.511   2.020   6.830  2.3498  1.3188 -1.5134
   94SAPE   H5Y 9338   1.344   2.069   6.760  0.3575  1.5923 -2.6342
   94SAPE   C36 9339   1.506   2.086   6.628 -0.3627 -0.4639  0.0920
   94SAPE   H6X 9340   1.607   2.046   6.607 -0.5511 -0.8409 -0.1150
   94SAPE   H6Y 9341   1.508   2.193   6.657  0.2848  0.4561 -2.9732
   94SAPE   C37 9342   1.428   2.080   6.501 -0.2033 -0.1222  0.5534
   94SAPE   H7X 9343   1.319   2.080   6.521 -0.5342  1.2317 -1.0086
   94SAPE   H7Y 9344   1.456   1.987   6.448 -1.2571  0.4006 -0.9664
   94SAPE   C38 9345   1.442   2.204   6.412  0.2443 -0.8350  0.9455
   94SAPE   H8X 9346   1.552   2.218   6.402 -0.1345  2.7483  0.6348
   94SAPE   H8Y 9347   1.407   2.293   6.468 -1.6138  0.0658 -1.4791
   94SAPE   C39 9348   1.362   2.197   6.280  0.1560 -0.0849 -0.2101
   94SAPE   H9X 9349   1.253   2.212   6.294  0.5396  1.0141  2.0624
   94SAPE   H9Y 9350   1.364   2.092   6.243  4.8286 -0.5459  0.6635
   94SAPE  C310 9351   1.414   2.292   6.168 -0.5370  0.1539  0.3697
   94SAPE  H10X 9352   1.525   2.283   6.172 -0.6948 -2.6486  0.7455
   94SAPE  H10Y 9353   1.391   2.397   6.196  0.2832 -0.2778  3.0162
   94SAPE  C311 9354   1.361   2.256   6.030  0.6747  0.1652 -0.1954
   94SAPE  H11X 9355   1.258   2.214   6.027  0.3003  1.0638 -2.7805
   94SAPE  H11Y 9356   1.435   2.184   5.988 -1.1732 -0.9624 -1.6566
   94SAPE  C312 9357   1.377   2.383   5.940 -0.3228  0.3705 -1.4029
   94SAPE  H12X 9358   1.479   2.425   5.948  0.4572 -1.3701 -1.6501
   94SAPE  H12Y 9359   1.313   2.469   5.969  0.5435  0.0060  1.9211
   94SAPE  C313 9360   1.335   2.350   5.793 -0.4150 -0.4346 -1.1260
   94SAPE  H13X 9361   1.235   2.302   5.796 -0.3479 -0.5317  0.9474
   94SAPE  H13Y 9362   1.408   2.270   5.770 -0.7626 -0.5635 -1.8044
   94SAPE  C314 9363   1.346   2.471   5.698  1.0810 -0.2388  0.4903
   94SAPE  H14X 9364   1.453   2.498   5.713  1.5612 -1.5793 -0.2827
   94SAPE  H14Y 9365   1.283   2.555   5.734  0.7850  0.4189 -1.4627
   94SAPE  C315 9366   1.309   2.449   5.550  0.3631  0.0024 -0.8037
   94SAPE  H15X 9367   1.367   2.359   5.520  0.7139  0.1259 -0.5028
   94SAPE  H15Y 9368   1.354   2.536   5.499 -0.5828  1.9719  1.5382
   94SAPE  C316 9369   1.157   2.440   5.529 -0.2527 -0.1255 -0.9152
   94SAPE  H16X 9370   1.118   2.540   5.558 -2.2484 -1.0607 -0.1709
   94SAPE  H16Y 9371   1.119   2.370   5.606  1.3935 -1.3701 -1.1632
   94SAPE  C317 9372   1.113   2.400   5.391  0.6498  0.1938 -0.8633
   94SAPE  H17X 9373   1.160   2.466   5.314  2.1347 -0.4554 -0.5371
   94SAPE  H17Y 9374   1.002   2.407   5.390  0.3483 -2.6985  1.0390
   94SAPE  C318 9375   1.149   2.257   5.361  0.3409 -0.1246  0.4515
   94SAPE  H18X 9376   1.082   2.185   5.414 -0.9693  0.1018 -0.8198
   94SAPE  H18Y 9377   1.253   2.232   5.388  1.5047  1.1076 -2.5034
   94SAPE  H18Z 9378   1.141   2.227   5.254 -0.8147 -1.1839  0.8033
   95SAPE     N 9379   5.733   6.770   7.985 -0.3045 -1.0986  0.3140
   95SAPE   HN1 9380   5.744   6.854   8.045  0.7452 -0.4505 -0.7443
   95SAPE   HN2 9381   5.675   6.703   8.039 -1.0449 -0.3440  0.4668
   95SAPE   HN3 9382   5.831   6.738   7.969  0.2126  0.0643  1.0112
   95SAPE   C12 9383   5.661   6.809   7.860  0.5226 -0.3069 -0.2835
   95SAPE  H12A 9384   5.728   6.874   7.801  2.3972  0.5175  2.5456
   95SAPE  H12B 9385   5.568   6.857   7.898  2.1933  1.7099  1.4952
   95SAPE   C11 9386   5.632   6.682   7.773  0.7579 -0.3436  0.0259
   95SAPE  H11A 9387   5.720   6.633   7.727 -0.4699 -1.1745 -1.5287
   95SAPE  H11B 9388   5.568   6.721   7.690  2.1598 -0.2245 -1.0410
   95SAPE     P 9389   5.421   6.542   7.847  0.2107 -0.0780 -0.0515
   95SAPE   O13 9390   5.397   6.416   7.916 -0.6865  0.0955  0.2768
   95SAPE   O14 9391   5.328   6.655   7.881  1.0584  0.5427  0.0481
   95SAPE   O12 9392   5.571   6.585   7.860  0.1493 -0.5461 -0.9711
   95SAPE   O11 9393   5.405   6.522   7.694 -0.4535  0.0466  0.8624
   95SAPE    C1 9394   5.497   6.438   7.623  0.6358 -0.3189 -0.2619
   95SAPE    HA 9395   5.603   6.439   7.657  1.5818 -4.3112 -2.3561
   95SAPE    HB 9396   5.463   6.332   7.619 -1.0546  0.1086  1.4322
   95SAPE    C2 9397   5.499   6.490   7.479  0.3978  0.6166  0.3757
   95SAPE    HS 9398   5.550   6.589   7.473  1.2315  0.1672 -0.2020
   95SAPE   O21 9399   5.366   6.495   7.414  0.1867 -0.3225 -0.2856
   95SAPE   C21 9400   5.346   6.598   7.338  0.5280 -0.3956  1.1275
   95SAPE   O22 9401   5.426   6.685   7.314  0.1910 -0.5437  0.4829
   95SAPE   C22 9402   5.201   6.589   7.279 -0.1326 -0.2141 -0.4244
   95SAPE   H2R 9403   5.182   6.482   7.257 -2.1455 -0.2412  1.1008
   95SAPE   H2S 9404   5.128   6.616   7.358 -0.9492 -0.2599 -1.1541
   95SAPE    C3 9405   5.592   6.392   7.401  0.0242 -0.2525  1.0289
   95SAPE    HX 9406   5.563   6.286   7.418 -2.1528 -0.1148 -1.1989
   95SAPE    HY 9407   5.696   6.401   7.438  0.3400  1.5542 -0.1507
   95SAPE   O31 9408   5.602   6.432   7.261  0.8547  0.8531  0.1534
   95SAPE   C31 9409   5.540   6.356   7.168  0.1766  0.4729 -0.6109
   95SAPE   O32 9410   5.482   6.250   7.192 -0.0343  0.3157  0.1129
   95SAPE   C32 9411   5.580   6.401   7.030 -0.6705  0.0214 -0.4415
   95SAPE   H2X 9412   5.688   6.425   7.017 -0.6900  0.4455  0.1625
   95SAPE   H2Y 9413   5.525   6.496   7.015 -0.0322  0.4082 -0.3634
   95SAPE   C23 9414   5.191   6.682   7.161 -0.0054 -0.1799  0.0078
   95SAPE   H3R 9415   5.270   6.682   7.082 -0.2435  1.3714 -0.2598
   95SAPE   H3S 9416   5.209   6.783   7.204  1.0288  0.8219 -2.5642
   95SAPE   C24 9417   5.051   6.680   7.101 -0.6549  0.3242  0.1661
   95SAPE   H4R 9418   5.038   6.773   7.043 -0.5950 -0.1193 -0.5717
   95SAPE   H4S 9419   4.978   6.692   7.183  0.1120  0.6251  0.8234
   95SAPE   C25 9420   5.024   6.561   7.014 -0.2293 -0.0681  0.6796
   95SAPE   H5R 9421   5.048   6.468   7.068  0.4801  0.6742  1.6692
   95SAPE   C26 9422   4.989   6.566   6.881  0.1866 -0.1334 -0.2045
   95SAPE   H6R 9423   4.981   6.466   6.836 -0.4722 -0.5852  0.8836
   95SAPE   C27 9424   4.965   6.690   6.795  0.2449 -0.3509 -0.1246
   95SAPE   H7R 9425   5.045   6.713   6.722  0.3810  0.2113  0.1948
   95SAPE   H7S 9426   4.962   6.780   6.860  0.4724  0.8431 -1.7358
   95SAPE   C28 9427   4.832   6.679   6.728 -0.4922 -0.3459  0.3025
   95SAPE   H8R 9428   4.751   6.663   6.800 -0.9646  1.0332  0.1201
   95SAPE   C29 9429   4.818   6.668   6.595  1.9669  0.0605  0.3115
   95SAPE   H9R 9430   4.713   6.675   6.563  1.8565  1.2785  0.8733
   95SAPE  C210 9431   4.917   6.649   6.484  0.0374  1.0771 -0.2998
   95SAPE  H10R 9432   4.871   6.568   6.423 -0.8230  0.1438  1.5084
   95SAPE  H10S 9433   5.009   6.601   6.524 -0.6730  0.3633  0.5262
   95SAPE  C211 9434   4.946   6.758   6.393 -0.5235  0.4457 -0.7485
   95SAPE  H11R 9435   4.875   6.842   6.396  0.7642  1.5644  1.0498
   95SAPE  C212 9436   5.062   6.763   6.315  0.4895 -0.2114 -0.4407
   95SAPE  H12R 9437   5.076   6.850   6.249  1.5207 -1.2622 -1.6722
   95SAPE  C213 9438   5.171   6.659   6.303  0.2682 -0.2228 -0.0271
   95SAPE  H13R 9439   5.168   6.611   6.202 -1.9490 -0.4436  0.0913
   95SAPE  H13S 9440   5.154   6.579   6.379 -1.0261  1.6185  1.7158
   95SAPE  C214 9441   5.309   6.717   6.318  0.2525  0.4850 -0.2352
   95SAPE  H14R 9442   5.365   6.723   6.224 -0.9085  0.1953 -0.9663
   95SAPE  C215 9443   5.379   6.749   6.434  0.9929 -0.0945  0.4127
   95SAPE  H15R 9444   5.484   6.781   6.433  0.9737 -0.0318  0.3158
   95SAPE  C216 9445   5.315   6.726   6.567  0.0376  0.6181  0.6185
   95SAPE  H16R 9446   5.333   6.619   6.594 -1.2880  0.1249 -0.3461
   95SAPE  H16S 9447   5.206   6.746   6.574  0.0364  0.3741  1.5205
   95SAPE  C217 9448   5.362   6.834   6.670  0.3805  0.6884 -0.5054
   95SAPE  H17R 9449   5.318   6.930   6.636  2.7576  1.7230 -0.8696
   95SAPE  H17S 9450   5.472   6.845   6.675  0.6446 -1.7007  0.2309
   95SAPE  C218 9451   5.310   6.800   6.810  0.5028 -0.1662 -0.2170
   95SAPE  H18R 9452   5.305   6.693   6.840  1.7348  0.0636  0.9051
   95SAPE  H18S 9453   5.206   6.839   6.802  0.7797  0.3982 -1.3763
   95SAPE  C219 9454   5.379   6.895   6.906 -0.0633  0.3788  0.1664
   95SAPE  H19R 9455   5.323   6.890   7.001  1.1007  0.1611  0.8684
   95SAPE  H19S 9456   5.382   6.997   6.863  1.0019 -0.1606 -1.1497
   95SAPE  C220 9457   5.520   6.826   6.941  0.0248  0.0518  0.5656
   95SAPE  H20R 9458   5.575   6.892   7.011  0.5741  2.5503 -2.0289
   95SAPE  H20S 9459   5.584   6.808   6.853  0.2358 -0.5091  0.8298
   95SAPE  H20T 9460   5.511   6.723   6.982 -0.1041 -0.8965 -1.6975
   95SAPE   C33 9461   5.546   6.297   6.919 -0.8229  0.2664 -0.6958
   95SAPE   H3X 9462   5.463   6.230   6.947  1.4155 -2.4444 -0.0457
   95SAPE   H3Y 9463   5.639   6.239   6.898  0.9175  3.0744 -1.3172
   95SAPE   C34 9464   5.533   6.363   6.778  0.4521 -0.0957  0.5563
   95SAPE   H4X 9465   5.632   6.401   6.744 -0.0194 -1.0107 -2.0576
   95SAPE   H4Y 9466   5.457   6.443   6.789 -0.2984 -1.0037  2.3706
   95SAPE   C35 9467   5.491   6.263   6.664 -0.4013 -0.0211  0.2118
   95SAPE   H5X 9468   5.386   6.229   6.682 -1.8439  3.4509 -0.6751
   95SAPE   H5Y 9469   5.574   6.191   6.653 -0.3423  0.0790 -0.0036
   95SAPE   C36 9470   5.487   6.320   6.521  0.0396  0.0829 -0.8904
   95SAPE   H6X 9471   5.585   6.367   6.498  0.6358 -0.3944  0.5299
   95SAPE   H6Y 9472   5.407   6.398   6.521 -1.9329 -1.8034  0.8266
   95SAPE   C37 9473   5.465   6.213   6.410 -0.5311  0.0412 -0.0529
   95SAPE   H7X 9474   5.384   6.138   6.425 -0.9489  0.0210 -2.0656
   95SAPE   H7Y 9475   5.563   6.162   6.414  1.4536  3.5868  2.7927
   95SAPE   C38 9476   5.441   6.276   6.272  0.0705 -0.0680  0.4628
   95SAPE   H8X 9477   5.533   6.326   6.235  0.1971 -1.5028 -1.2884
   95SAPE   H8Y 9478   5.369   6.361   6.281  1.8254  1.7567 -1.5482
   95SAPE   C39 9479   5.399   6.181   6.159  0.3279  0.2737  0.2879
   95SAPE   H9X 9480   5.471   6.097   6.159 -1.8685 -1.7394 -0.1082
   95SAPE   H9Y 9481   5.406   6.228   6.058 -0.5986  1.2153  0.6441
   95SAPE  C310 9482   5.250   6.131   6.158 -0.4457 -0.1155 -0.3599
   95SAPE  H10X 9483   5.175   6.212   6.166 -0.5211 -0.1353 -0.8767
   95SAPE  H10Y 9484   5.230   6.082   6.256 -3.8168  2.7264  0.6043
   95SAPE  C311 9485   5.228   6.036   6.038 -0.2270 -0.6073 -0.2234
   95SAPE  H11X 9486   5.143   5.971   6.070  0.6646 -1.1782  1.0871
   95SAPE  H11Y 9487   5.320   5.976   6.023  1.3589  1.5278  0.5909
   95SAPE  C312 9488   5.185   6.111   5.909  0.4580 -0.0808  0.5419
   95SAPE  H12X 9489   5.262   6.183   5.875 -1.0008  1.2326 -0.1050
   95SAPE  H12Y 9490   5.093   6.171   5.922 -0.0109 -0.7245  0.2704
   95SAPE  C313 9491   5.153   6.016   5.794 -0.0320  0.1318  0.7249
   95SAPE  H13X 9492   5.093   5.931   5.831  1.2073 -0.2322  2.0058
   95SAPE  H13Y 9493   5.243   5.978   5.741 -0.6432 -1.1114  0.5458
   95SAPE  C314 9494   5.072   6.093   5.689 -0.1582 -0.1757 -0.9048
   95SAPE  H14X 9495   5.148   6.161   5.643  0.8241 -1.0010 -0.5361
   95SAPE  H14Y 9496   4.993   6.158   5.732  0.6262  0.3361 -0.2045
   95SAPE  C315 9497   5.031   6.006   5.571  0.0646 -0.0331  0.0711
   95SAPE  H15X 9498   4.930   5.963   5.592  0.3681  0.4044  2.7724
   95SAPE  H15Y 9499   5.091   5.913   5.573 -1.4635 -1.0892 -0.8610
   95SAPE  C316 9500   5.030   6.074   5.441  0.7457  0.1293  0.6520
   95SAPE  H16X 9501   5.124   6.123   5.408  0.4874  0.7521  0.8291
   95SAPE  H16Y 9502   4.959   6.159   5.451  0.3482 -0.2712  1.2879
   95SAPE  C317 9503   5.000   5.969   5.319 -0.7207 -0.6599  0.0531
   95SAPE  H17X 9504   4.988   6.023   5.223 -0.3853 -0.7286 -0.0272
   95SAPE  H17Y 9505   4.896   5.934   5.337 -0.3100 -1.4346  1.1045
   95SAPE  C318 9506   5.109   5.866   5.317  0.3029 -0.3037 -0.3423
   95SAPE  H18X 9507   5.206   5.913   5.342 -0.6020  2.4514 -1.6383
   95SAPE  H18Y 9508   5.109   5.814   5.219  1.2061 -1.9022  0.4596
   95SAPE  H18Z 9509   5.098   5.789   5.396  3.1261 -0.5552 -0.1028
   96SAPE     N 9510   0.752   0.903   7.438 -0.0000 -0.3299 -0.8037
   96SAPE   HN1 9511   0.801   0.844   7.367  1.1264  0.1970 -0.4909
   96SAPE   HN2 9512   0.687   0.963   7.384  0.1012  2.1487  1.6133
   96SAPE   HN3 9513   0.827   0.958   7.484 -2.4361  1.5343  1.2088
   96SAPE   C12 9514   0.691   0.806   7.531  0.5248 -0.6197 -0.6988
   96SAPE  H12A 9515   0.622   0.735   7.481  1.2869 -1.8387 -0.0665
   96SAPE  H12B 9516   0.628   0.859   7.606 -0.8839 -0.2800 -2.0753
   96SAPE   C11 9517   0.816   0.727   7.596 -0.5144  0.3154 -0.0899
   96SAPE  H11A 9518   0.876   0.692   7.509 -1.3906 -0.9149 -0.2424
   96SAPE  H11B 9519   0.787   0.631   7.644 -2.0561 -0.2199 -1.9555
   96SAPE     P 9520   1.020   0.886   7.675 -0.1621 -0.4040  0.2215
   96SAPE   O13 9521   1.057   0.945   7.806 -0.5724  0.0824 -0.1490
   96SAPE   O14 9522   1.114   0.786   7.621  0.2006 -0.3963  0.2683
   96SAPE   O12 9523   0.887   0.802   7.696 -0.3874 -0.2794  0.4672
   96SAPE   O11 9524   0.978   0.992   7.562  0.8222  0.5108  0.0254
   96SAPE    C1 9525   1.074   1.084   7.520  0.5533 -0.4579 -0.5689
   96SAPE    HA 9526   1.016   1.177   7.540  0.7061 -0.7712  1.6087
   96SAPE    HB 9527   1.161   1.089   7.589 -0.6729  0.4818  0.9970
   96SAPE    C2 9528   1.110   1.087   7.369 -0.5063 -0.6988 -0.1721
   96SAPE    HS 9529   1.144   1.191   7.353  1.9810 -1.2728  0.9730
   96SAPE   O21 9530   0.992   1.053   7.298  0.0616 -0.1253  0.5962
   96SAPE   C21 9531   0.972   1.111   7.180 -0.1245  1.1451  0.4328
   96SAPE   O22 9532   1.056   1.178   7.126 -0.3015  0.1169 -0.4696
   96SAPE   C22 9533   0.832   1.073   7.120 -0.0472 -0.2158 -0.0358
   96SAPE   H2R 9534   0.839   0.978   7.063  0.8894  0.4409 -1.0725
   96SAPE   H2S 9535   0.772   1.053   7.211  1.9334 -2.7954  0.8256
   96SAPE    C3 9536   1.228   0.985   7.329  1.0014  0.6051  0.2046
   96SAPE    HX 9537   1.204   0.880   7.358  0.5069  0.6760  0.0667
   96SAPE    HY 9538   1.313   1.005   7.398  2.1259  1.3342 -1.3318
   96SAPE   O31 9539   1.277   0.998   7.191  0.8128 -0.0370 -0.1039
   96SAPE   C31 9540   1.343   1.101   7.154  0.4388  0.1580 -0.5086
   96SAPE   O32 9541   1.382   1.192   7.230  0.5759  0.1119  0.3231
   96SAPE   C32 9542   1.359   1.096   7.000 -0.3639 -0.2617  0.1648
   96SAPE   H2X 9543   1.259   1.070   6.957  0.0386  0.2891 -1.1389
   96SAPE   H2Y 9544   1.439   1.026   6.967  0.3923  0.6036  0.1476
   96SAPE   C23 9545   0.754   1.175   7.040 -0.5584 -0.1076  0.0184
   96SAPE   H3R 9546   0.818   1.221   6.962 -0.7319  0.2517  0.0850
   96SAPE   H3S 9547   0.720   1.254   7.111 -2.3984  0.1230 -1.0444
   96SAPE   C24 9548   0.621   1.120   6.992  0.1593  0.0707 -0.2536
   96SAPE   H4R 9549   0.553   1.098   7.077  0.4188  1.8447  0.4534
   96SAPE   H4S 9550   0.640   1.032   6.926  0.3534  0.0713 -0.1979
   96SAPE   C25 9551   0.554   1.230   6.908  0.0799  0.2010  0.2923
   96SAPE   H5R 9552   0.534   1.321   6.968 -1.4126 -0.0009  0.1458
   96SAPE   C26 9553   0.524   1.231   6.775 -0.4775 -0.3541 -0.5225
   96SAPE   H6R 9554   0.461   1.316   6.746 -1.3366 -0.9424 -0.4143
   96SAPE   C27 9555   0.535   1.131   6.667  0.4559  0.3841  0.4516
   96SAPE   H7R 9556   0.497   1.034   6.706 -0.7037  1.2773  1.6176
   96SAPE   H7S 9557   0.644   1.122   6.645  0.5361  0.2901  0.8867
   96SAPE   C28 9558   0.482   1.166   6.531 -0.2014 -0.1068 -0.3502
   96SAPE   H8R 9559   0.386   1.113   6.519  0.1301 -0.6117 -0.8580
   96SAPE   C29 9560   0.535   1.225   6.426 -1.0130 -0.3414 -0.2197
   96SAPE   H9R 9561   0.469   1.216   6.339 -1.0103 -1.2524 -0.1396
   96SAPE  C210 9562   0.674   1.286   6.405 -0.4801  0.1372 -0.3903
   96SAPE  H10R 9563   0.735   1.281   6.498  0.3349 -1.1647 -0.9650
   96SAPE  H10S 9564   0.672   1.397   6.397  3.3497  0.3211 -0.9282
   96SAPE  C211 9565   0.758   1.228   6.293 -1.2160  0.8828  0.0087
   96SAPE  H11R 9566   0.754   1.119   6.292 -1.2072  0.8830 -0.3467
   96SAPE  C212 9567   0.849   1.296   6.216  0.0481  0.0108  0.3119
   96SAPE  H12R 9568   0.911   1.235   6.149 -1.0389 -0.3216 -0.4205
   96SAPE  C213 9569   0.869   1.448   6.198 -0.3605  0.3363  0.7448
   96SAPE  H13R 9570   0.959   1.460   6.134 -0.3934 -2.4490  0.0117
   96SAPE  H13S 9571   0.878   1.488   6.301  0.8079 -2.9640  2.0722
   96SAPE  C214 9572   0.759   1.518   6.122 -0.4125 -0.0996 -0.6511
   96SAPE  H14R 9573   0.658   1.481   6.142 -0.0272 -0.6508  0.3387
   96SAPE  C215 9574   0.767   1.614   6.030  0.0456  0.4228 -0.7403
   96SAPE  H15R 9575   0.669   1.643   5.990 -0.4334  0.6379  0.5336
   96SAPE  C216 9576   0.885   1.676   5.970 -0.5359 -0.0501 -0.1330
   96SAPE  H16R 9577   0.973   1.610   5.981 -0.1717  0.3727 -0.4633
   96SAPE  H16S 9578   0.907   1.763   6.036 -1.1105  1.1086 -1.4266
   96SAPE  C217 9579   0.864   1.711   5.816 -0.1658  0.4320 -0.4861
   96SAPE  H17R 9580   0.966   1.750   5.797  0.9838 -1.0063  2.3220
   96SAPE  H17S 9581   0.789   1.791   5.796 -1.5644 -0.1667  1.9813
   96SAPE  C218 9582   0.837   1.585   5.726  0.6476 -0.4846  0.4063
   96SAPE  H18R 9583   0.882   1.496   5.776 -0.1802 -0.5630  1.0214
   96SAPE  H18S 9584   0.889   1.601   5.629  0.2374 -3.5151 -0.4460
   96SAPE  C219 9585   0.691   1.538   5.713 -0.0835 -0.3879  0.3556
   96SAPE  H19R 9586   0.670   1.498   5.815 -0.5496 -2.1242 -0.3792
   96SAPE  H19S 9587   0.689   1.459   5.635  4.0357 -0.1880 -0.1660
   96SAPE  C220 9588   0.578   1.643   5.685 -0.0973  0.2813 -0.0086
   96SAPE  H20R 9589   0.565   1.708   5.774 -3.1695  0.4782 -0.4910
   96SAPE  H20S 9590   0.482   1.598   5.652  0.0353  0.1875 -0.2764
   96SAPE  H20T 9591   0.599   1.698   5.591 -0.3893 -1.1785 -0.9720
   96SAPE   C33 9592   1.412   1.225   6.935  0.1461 -0.8337 -0.6739
   96SAPE   H3X 9593   1.438   1.290   7.021 -2.9264 -0.1907 -0.1170
   96SAPE   H3Y 9594   1.328   1.271   6.878 -0.0113 -1.5927 -1.0722
   96SAPE   C34 9595   1.532   1.215   6.836 -0.0047  0.2037 -0.0546
   96SAPE   H4X 9596   1.603   1.142   6.880 -0.3065 -0.9336 -1.3684
   96SAPE   H4Y 9597   1.575   1.317   6.837 -0.4261  0.3805  0.4004
   96SAPE   C35 9598   1.505   1.180   6.685  0.8119 -0.2061  0.5021
   96SAPE   H5X 9599   1.455   1.080   6.686  0.4664 -0.1599 -2.8673
   96SAPE   H5Y 9600   1.613   1.170   6.661  0.4701  0.6717 -1.5806
   96SAPE   C36 9601   1.413   1.279   6.618 -0.2179 -0.7559  0.4417
   96SAPE   H6X 9602   1.358   1.345   6.689  1.0320 -0.6279  1.3145
   96SAPE   H6Y 9603   1.330   1.232   6.561  2.3176 -1.7050 -2.7768
   96SAPE   C37 9604   1.483   1.390   6.525  0.0413 -0.4982  0.8166
   96SAPE   H7X 9605   1.544   1.347   6.443 -0.5549  0.5471 -0.1940
   96SAPE   H7Y 9606   1.552   1.457   6.582 -1.0728  0.5948  0.9210
   96SAPE   C38 9607   1.393   1.488   6.450 -0.3683 -0.2147  0.0446
   96SAPE   H8X 9608   1.346   1.545   6.533  0.5338 -0.6898  0.8952
   96SAPE   H8Y 9609   1.312   1.434   6.395 -1.3330  0.8645  0.3708
   96SAPE   C39 9610   1.467   1.583   6.358 -0.2552  0.4760 -0.2616
   96SAPE   H9X 9611   1.507   1.540   6.265  2.2470 -0.3533  1.1177
   96SAPE   H9Y 9612   1.549   1.609   6.428  0.1312  0.7983 -0.8281
   96SAPE  C310 9613   1.395   1.720   6.337  0.3678  0.0683  0.4805
   96SAPE  H10X 9614   1.458   1.802   6.298  0.5140 -1.0317 -1.7744
   96SAPE  H10Y 9615   1.350   1.745   6.436 -0.5681  2.3425 -0.4647
   96SAPE  C311 9616   1.278   1.705   6.233  0.6888  0.3117 -0.3592
   96SAPE  H11X 9617   1.218   1.618   6.268 -1.6901  2.3626  1.0579
   96SAPE  H11Y 9618   1.327   1.684   6.136  0.1659  0.6992 -0.7074
   96SAPE  C312 9619   1.188   1.826   6.228  0.5126  0.4018 -0.4732
   96SAPE  H12X 9620   1.123   1.806   6.141  1.5078  0.3363 -1.2243
   96SAPE  H12Y 9621   1.258   1.910   6.211 -1.7903  2.2936 -0.9782
   96SAPE  C313 9622   1.100   1.834   6.353 -0.0611  0.5131  0.1873
   96SAPE  H13X 9623   1.154   1.880   6.438  1.5108 -0.2121 -0.3697
   96SAPE  H13Y 9624   1.086   1.728   6.384 -0.8744  0.3680 -0.6307
   96SAPE  C314 9625   0.961   1.907   6.336  0.1180 -0.3534  0.1558
   96SAPE  H14X 9626   0.890   1.869   6.412 -0.5640  0.4922 -0.0436
   96SAPE  H14Y 9627   0.921   1.876   6.237  0.6677  1.0001 -0.5224
   96SAPE  C315 9628   0.970   2.059   6.346  0.0696 -0.4763  0.5032
   96SAPE  H15X 9629   0.885   2.103   6.289  1.4377 -1.9071 -2.8878
   96SAPE  H15Y 9630   1.055   2.078   6.277 -1.0218 -5.4099 -2.6730
   96SAPE  C316 9631   0.993   2.119   6.485 -0.4489  0.7427 -0.4204
   96SAPE  H16X 9632   1.097   2.101   6.520 -0.8898 -1.3280  0.0068
   96SAPE  H16Y 9633   0.947   2.057   6.565  0.5614  2.4189  1.5311
   96SAPE  C317 9634   0.957   2.263   6.528  0.2594  0.2097 -0.7493
   96SAPE  H17X 9635   0.851   2.290   6.510  0.0238  1.3065  1.8803
   96SAPE  H17Y 9636   1.022   2.340   6.482 -1.5659  2.4742  0.2911
   96SAPE  C318 9637   0.970   2.290   6.680 -0.2717  0.2960 -0.2284
   96SAPE  H18X 9638   1.062   2.240   6.717 -0.4826 -0.2273 -0.4156
   96SAPE  H18Y 9639   0.877   2.263   6.734  0.2638  1.6065  1.4580
   96SAPE  H18Z 9640   0.973   2.401   6.692  2.1023  0.0694  2.0933
   97SAPE     N 9641   2.017   2.598   7.141  0.2567 -0.3200  0.4026
   97SAPE   HN1 9642   1.980   2.629   7.233 -0.6720 -1.1961  0.3408
   97SAPE   HN2 9643   2.117   2.573   7.155  0.4345 -1.0668 -1.8369
   97SAPE   HN3 9644   2.014   2.688   7.089  0.7064 -1.0951 -1.0170
   97SAPE   C12 9645   1.947   2.483   7.076 -0.0622 -0.2834 -0.1119
   97SAPE  H12A 9646   1.986   2.395   7.132  1.0996  0.7199  0.6932
   97SAPE  H12B 9647   1.990   2.464   6.976 -0.5044 -0.1186 -0.3337
   97SAPE   C11 9648   1.795   2.500   7.079  0.4196 -0.7030 -0.9017
   97SAPE  H11A 9649   1.756   2.403   7.042  1.7330 -1.8049  0.4167
   97SAPE  H11B 9650   1.769   2.581   7.008  2.4573  1.1118  0.2718
   97SAPE     P 9651   1.611   2.600   7.246 -0.0829 -0.2944 -0.2190
   97SAPE   O13 9652   1.522   2.507   7.308 -0.0446  0.4914 -0.2592
   97SAPE   O14 9653   1.647   2.719   7.325  0.0608  0.1506 -0.0048
   97SAPE   O12 9654   1.740   2.518   7.204  0.4417  0.0263 -0.4935
   97SAPE   O11 9655   1.556   2.643   7.104  0.2461  0.1664 -0.5446
   97SAPE    C1 9656   1.460   2.747   7.085  0.2615  0.1111  0.4150
   97SAPE    HA 9657   1.358   2.704   7.076  0.7038 -0.8431 -0.2682
   97SAPE    HB 9658   1.474   2.821   7.166  1.7995  0.2807  0.0228
   97SAPE    C2 9659   1.493   2.818   6.951  0.8364 -0.0091 -0.0762
   97SAPE    HS 9660   1.418   2.898   6.932  2.6209  2.1840  1.5695
   97SAPE   O21 9661   1.523   2.732   6.845  0.6944  0.4480  0.1679
   97SAPE   C21 9662   1.412   2.684   6.780  0.1174  0.0746 -0.1408
   97SAPE   O22 9663   1.301   2.713   6.819  0.5351 -0.0274  0.7184
   97SAPE   C22 9664   1.441   2.587   6.662 -0.2389  0.3471  0.2302
   97SAPE   H2R 9665   1.483   2.497   6.712  0.3063  0.9044  0.8010
   97SAPE   H2S 9666   1.343   2.565   6.615  0.0381 -2.5322  0.7834
   97SAPE    C3 9667   1.623   2.901   6.974  0.6357 -0.0427 -0.3518
   97SAPE    HX 9668   1.711   2.833   6.980  1.1465  0.1423 -3.6704
   97SAPE    HY 9669   1.615   2.954   7.071  0.4915  1.3419 -1.0981
   97SAPE   O31 9670   1.648   2.993   6.858 -0.5258  0.0682 -0.4066
   97SAPE   C31 9671   1.583   3.109   6.872 -0.3811 -0.0704  0.4083
   97SAPE   O32 9672   1.498   3.132   6.947  0.7667 -0.0513 -0.3134
   97SAPE   C32 9673   1.623   3.210   6.766  0.3152  0.8172 -0.0195
   97SAPE   H2X 9674   1.686   3.286   6.817  1.4892 -1.0811  1.5064
   97SAPE   H2Y 9675   1.527   3.256   6.735 -0.9625 -0.9645  1.1266
   97SAPE   C23 9676   1.526   2.654   6.556 -0.1722  0.4544  1.2059
   97SAPE   H3R 9677   1.494   2.760   6.543  0.0129  0.2873 -1.0538
   97SAPE   H3S 9678   1.501   2.605   6.459 -1.4098 -0.8367  2.1407
   97SAPE   C24 9679   1.680   2.631   6.577 -0.1581  0.7823 -0.4048
   97SAPE   H4R 9680   1.704   2.523   6.586  1.0546  1.1845  2.0157
   97SAPE   H4S 9681   1.708   2.666   6.679 -0.9086 -2.2675  0.9732
   97SAPE   C25 9682   1.768   2.700   6.484 -0.6956  0.0981  0.6765
   97SAPE   H5R 9683   1.810   2.795   6.521 -0.5537 -0.6381  2.5217
   97SAPE   C26 9684   1.805   2.659   6.363 -0.4363  0.8620  0.2526
   97SAPE   H6R 9685   1.863   2.719   6.292 -0.1709  0.9905  0.5743
   97SAPE   C27 9686   1.768   2.532   6.296 -0.2556 -0.1622  0.7030
   97SAPE   H7R 9687   1.665   2.502   6.327 -0.7641  0.4666 -0.3066
   97SAPE   H7S 9688   1.836   2.459   6.343 -0.5990 -0.6066  0.5129
   97SAPE   C28 9689   1.776   2.535   6.148 -0.5946 -0.0503 -0.2875
   97SAPE   H8R 9690   1.723   2.625   6.111 -0.2344  0.7957  1.1829
   97SAPE   C29 9691   1.836   2.449   6.061  0.2463  0.2865  0.5285
   97SAPE   H9R 9692   1.818   2.464   5.954 -0.9279  1.4408  0.8690
   97SAPE  C210 9693   1.904   2.313   6.094  0.6705 -0.0109  0.2762
   97SAPE  H10R 9694   1.840   2.257   6.166 -0.4083 -2.0772 -2.1504
   97SAPE  H10S 9695   1.999   2.339   6.147  1.4222  0.9208 -1.4332
   97SAPE  C211 9696   1.933   2.210   5.984 -0.2594  0.3179 -0.2357
   97SAPE  H11R 9697   1.879   2.114   5.986 -0.1206  0.2271  1.7933
   97SAPE  C212 9698   2.041   2.218   5.901 -0.3839 -0.0941 -0.0421
   97SAPE  H12R 9699   2.061   2.126   5.844  1.5420 -0.3893  1.0625
   97SAPE  C213 9700   2.133   2.337   5.886  0.1382  0.1540  0.5167
   97SAPE  H13R 9701   2.219   2.312   5.952 -0.6677 -2.2531  0.7860
   97SAPE  H13S 9702   2.089   2.432   5.924 -0.5140 -1.6318  4.8381
   97SAPE  C214 9703   2.190   2.365   5.748  0.2424  0.3813 -0.3848
   97SAPE  H14R 9704   2.142   2.441   5.685 -0.8246  1.8038  2.0224
   97SAPE  C215 9705   2.290   2.291   5.692 -0.3439  0.0101  0.2937
   97SAPE  H15R 9706   2.325   2.335   5.598 -0.0661  1.9811  1.2924
   97SAPE  C216 9707   2.382   2.180   5.749  0.8628 -0.4608  0.1766
   97SAPE  H16R 9708   2.337   2.151   5.846  1.8306 -1.9512  0.2129
   97SAPE  H16S 9709   2.480   2.221   5.780  1.2536 -1.4632  0.2931
   97SAPE  C217 9710   2.399   2.062   5.650  0.6744 -0.1079  0.3801
   97SAPE  H17R 9711   2.298   2.022   5.626  1.4746 -2.1897  0.2082
   97SAPE  H17S 9712   2.436   1.981   5.717 -3.4517  0.0022  3.2108
   97SAPE  C218 9713   2.470   2.093   5.521 -1.0983 -0.2593 -0.3807
   97SAPE  H18R 9714   2.398   2.145   5.453  0.3013  0.2312 -1.5380
   97SAPE  H18S 9715   2.493   1.998   5.469  3.0643  0.8388 -0.8775
   97SAPE  C219 9716   2.602   2.171   5.549  0.0597  0.7757  0.4597
   97SAPE  H19R 9717   2.658   2.109   5.622  2.2639 -0.5669 -2.1932
   97SAPE  H19S 9718   2.588   2.272   5.592  2.7589  1.7007 -0.6897
   97SAPE  C220 9719   2.680   2.192   5.419  0.2328 -0.4148  0.4719
   97SAPE  H20R 9720   2.607   2.232   5.345  0.4954  2.7870  1.7863
   97SAPE  H20S 9721   2.720   2.097   5.377 -0.9474 -1.2269  1.1179
   97SAPE  H20T 9722   2.756   2.271   5.434 -2.1693  2.0760  0.3916
   97SAPE   C33 9723   1.724   3.160   6.659 -0.6969 -0.3456  0.3749
   97SAPE   H3X 9724   1.802   3.107   6.717 -1.0268 -3.5263 -1.8589
   97SAPE   H3Y 9725   1.767   3.254   6.617  1.3097 -1.0827  0.7098
   97SAPE   C34 9726   1.669   3.091   6.535  0.6107  0.5143  0.0231
   97SAPE   H4X 9727   1.593   3.164   6.499  1.0662  0.3700 -1.2734
   97SAPE   H4Y 9728   1.629   2.992   6.564  0.8865 -0.0196 -1.3652
   97SAPE   C35 9729   1.767   3.073   6.422  0.1729 -0.0046 -0.3468
   97SAPE   H5X 9730   1.849   3.004   6.451  0.3892  0.6322  0.5998
   97SAPE   H5Y 9731   1.809   3.175   6.410 -0.6332  0.1232 -2.7132
   97SAPE   C36 9732   1.706   3.021   6.300  0.0596  0.1020  0.4488
   97SAPE   H6X 9733   1.625   3.086   6.259 -1.1953 -1.5309  0.2199
   97SAPE   H6Y 9734   1.651   2.926   6.317  0.8836 -0.7165 -1.2487
   97SAPE   C37 9735   1.810   2.990   6.185 -0.1030 -0.5379 -1.0164
   97SAPE   H7X 9736   1.891   2.922   6.220  0.2301  0.8728  1.2205
   97SAPE   H7Y 9737   1.863   3.086   6.167  0.8543 -0.2690  2.4210
   97SAPE   C38 9738   1.742   2.936   6.063 -0.0148 -0.4876  0.2568
   97SAPE   H8X 9739   1.676   3.012   6.016  0.9292 -1.3554 -2.7007
   97SAPE   H8Y 9740   1.674   2.851   6.088  0.2457 -0.6803  0.3160
   97SAPE   C39 9741   1.843   2.895   5.956  0.2285  0.1148  0.7446
   97SAPE   H9X 9742   1.903   2.812   5.998  0.0580 -0.5793 -0.3385
   97SAPE   H9Y 9743   1.913   2.981   5.942 -0.8479  1.1687  1.5591
   97SAPE  C310 9744   1.783   2.827   5.830  0.0645  0.1576  0.0796
   97SAPE  H10X 9745   1.719   2.744   5.865 -0.2267 -0.3867 -1.6634
   97SAPE  H10Y 9746   1.862   2.788   5.763 -0.8999  0.9003 -1.5441
   97SAPE  C311 9747   1.690   2.923   5.752  0.1251  0.3230  0.3129
   97SAPE  H11X 9748   1.624   2.971   5.828 -0.0838  2.0137 -0.8680
   97SAPE  H11Y 9749   1.631   2.857   5.685 -0.2108 -0.9023  1.7693
   97SAPE  C312 9750   1.754   3.031   5.670  0.3200  0.4600 -0.4369
   97SAPE  H12X 9751   1.813   3.104   5.730  1.1958 -1.4792  1.2094
   97SAPE  H12Y 9752   1.664   3.085   5.633 -0.9701  0.3353  2.2740
   97SAPE  C313 9753   1.830   2.989   5.543  0.8503  0.4178  0.3911
   97SAPE  H13X 9754   1.794   2.891   5.504  0.2599  0.4970  0.7204
   97SAPE  H13Y 9755   1.934   2.971   5.577  0.2734 -2.5253  0.8853
   97SAPE  C314 9756   1.829   3.094   5.436  0.0342 -0.8075 -0.3636
   97SAPE  H14X 9757   1.855   3.192   5.483 -0.5845 -0.0060 -1.6263
   97SAPE  H14Y 9758   1.721   3.109   5.414  0.2643  1.7426 -0.0913
   97SAPE  C315 9759   1.928   3.063   5.322  0.0236  0.5356 -0.7004
   97SAPE  H15X 9760   1.911   2.955   5.300 -2.2740  0.8758 -0.8158
   97SAPE  H15Y 9761   2.028   3.077   5.367 -0.3169 -0.1210  0.3088
   97SAPE  C316 9762   1.906   3.154   5.207  0.4350  0.3076 -0.1211
   97SAPE  H16X 9763   1.908   3.259   5.245  1.8816 -0.0477  0.9085
   97SAPE  H16Y 9764   1.805   3.137   5.166  0.5364 -0.2513 -0.1400
   97SAPE  C317 9765   2.006   3.133   5.098 -0.2200 -0.0115  0.8980
   97SAPE  H17X 9766   2.020   3.025   5.075  1.8221  0.3900  0.0844
   97SAPE  H17Y 9767   2.105   3.171   5.130  1.0636 -1.4859 -1.0780
   97SAPE  C318 9768   1.974   3.210   4.973 -0.0087 -0.1127  0.3584
   97SAPE  H18X 9769   1.866   3.234   4.966  0.0996 -0.0410 -2.8638
   97SAPE  H18Y 9770   2.013   3.147   4.890 -0.8255  0.0075 -0.1248
   97SAPE  H18Z 9771   2.031   3.304   4.954  0.8525 -1.1587 -2.8454
   98SAPE     N 9772   0.227   4.848   7.359  0.0029  0.1097  0.2678
   98SAPE   HN1 9773   0.167   4.763   7.358  0.2211 -0.0816  1.8618
   98SAPE   HN2 9774   0.310   4.820   7.302 -0.4758 -1.6718  0.3675
   98SAPE   HN3 9775   0.267   4.860   7.454  2.0856  1.0789 -0.6736
   98SAPE   C12 9776   0.159   4.972   7.314  0.2137  0.1305  0.3515
   98SAPE  H12A 9777   0.166   4.990   7.204  2.5193 -2.7485 -0.1018
   98SAPE  H12B 9778   0.218   5.057   7.355  2.2651 -0.4370 -1.2832
   98SAPE   C11 9779   0.018   4.989   7.375 -0.1489  0.3570 -0.0279
   98SAPE  H11A 9780  -0.055   4.920   7.328 -0.2956 -0.3836  1.2439
   98SAPE  H11B 9781  -0.018   5.089   7.343  0.5804  0.0254 -2.0537
   98SAPE     P 9782  -0.056   5.063   7.624  0.0431 -0.6258  0.3435
   98SAPE   O13 9783  -0.086   4.988   7.746 -0.0713  1.1071  0.9166
   98SAPE   O14 9784   0.017   5.192   7.629  0.0863  0.3716 -0.0702
   98SAPE   O12 9785   0.018   4.960   7.517  0.0648 -0.3172 -0.3991
   98SAPE   O11 9786  -0.191   5.088   7.539 -0.1931  0.0929 -0.7072
   98SAPE    C1 9787  -0.278   5.202   7.556  0.6037  0.7079  0.0087
   98SAPE    HA 9788  -0.384   5.172   7.575  0.7004 -1.2099 -1.9980
   98SAPE    HB 9789  -0.244   5.264   7.642 -2.1512  2.6223 -0.1647
   98SAPE    C2 9790  -0.289   5.300   7.435  0.5036 -0.0642  0.0380
   98SAPE    HS 9791  -0.369   5.375   7.454  0.3091 -0.1587 -0.3912
   98SAPE   O21 9792  -0.302   5.228   7.304  0.3673  0.1920  0.5286
   98SAPE   C21 9793  -0.394   5.134   7.293 -0.9745  0.3244 -0.4746
   98SAPE   O22 9794  -0.488   5.114   7.366 -0.0631  0.1520 -0.6426
   98SAPE   C22 9795  -0.373   5.055   7.165  0.3592  0.4791  0.6865
   98SAPE   H2R 9796  -0.264   5.034   7.165 -0.2146 -3.9258 -2.2252
   98SAPE   H2S 9797  -0.431   4.960   7.170 -0.4610  0.8864 -0.6791
   98SAPE    C3 9798  -0.161   5.378   7.416 -0.1715  0.0323  0.2017
   98SAPE    HX 9799  -0.085   5.313   7.368  0.3163  2.0449 -1.9451
   98SAPE    HY 9800  -0.126   5.413   7.515  2.5833  1.5742 -1.1892
   98SAPE   O31 9801  -0.191   5.495   7.330  0.1826 -0.1025 -0.0921
   98SAPE   C31 9802  -0.110   5.519   7.225  0.2495 -0.1309  0.2092
   98SAPE   O32 9803  -0.014   5.453   7.200 -0.0701 -0.3418  0.8359
   98SAPE   C32 9804  -0.153   5.652   7.159  0.7509  0.2169 -0.5304
   98SAPE   H2X 9805  -0.070   5.719   7.191 -0.5535  1.0004  1.4271
   98SAPE   H2Y 9806  -0.247   5.684   7.209  1.2048 -0.7588  1.0493
   98SAPE   C23 9807  -0.405   5.121   7.033  0.8462 -0.9647 -0.1141
   98SAPE   H3R 9808  -0.514   5.143   7.029  0.9904 -0.3996 -1.2970
   98SAPE   H3S 9809  -0.396   5.056   6.943 -2.2440 -0.4364 -0.9370
   98SAPE   C24 9810  -0.326   5.251   7.004 -0.1120 -0.3747  1.0886
   98SAPE   H4R 9811  -0.329   5.321   7.091 -0.4333  0.1778  0.6379
   98SAPE   H4S 9812  -0.378   5.304   6.922 -1.4758  1.4529  3.0184
   98SAPE   C25 9813  -0.181   5.247   6.966 -1.0539 -0.1498 -0.0242
   98SAPE   H5R 9814  -0.116   5.213   7.047 -0.2081  0.6742 -0.3501
   98SAPE   C26 9815  -0.133   5.254   6.842  0.3202 -0.3482 -0.9193
   98SAPE   H6R 9816  -0.024   5.251   6.828  0.8037 -2.3682  2.2292
   98SAPE   C27 9817  -0.213   5.280   6.715 -0.7046 -0.5246  0.1230
   98SAPE   H7R 9818  -0.150   5.317   6.630 -1.1802  0.5703  0.2217
   98SAPE   H7S 9819  -0.273   5.371   6.738 -0.9176 -0.4197 -0.8067
   98SAPE   C28 9820  -0.300   5.169   6.671 -0.3342  0.6578  0.1000
   98SAPE   H8R 9821  -0.379   5.145   6.743  0.5201 -0.6181  0.6596
   98SAPE   C29 9822  -0.305   5.108   6.552  0.2644 -0.2317  0.4761
   98SAPE   H9R 9823  -0.372   5.022   6.538  0.9797 -0.5776 -0.9504
   98SAPE  C210 9824  -0.208   5.135   6.441  0.3658  0.7084 -0.4586
   98SAPE  H10R 9825  -0.140   5.049   6.430  0.0050  0.2609  0.7123
   98SAPE  H10S 9826  -0.139   5.219   6.464  1.1791 -0.3644  1.1068
   98SAPE  C211 9827  -0.276   5.166   6.314  0.0548 -0.5068 -0.0243
   98SAPE  H11R 9828  -0.368   5.224   6.335  1.0921  0.4942  2.0410
   98SAPE  C212 9829  -0.236   5.138   6.182  0.4763  0.2575 -0.8584
   98SAPE  H12R 9830  -0.309   5.162   6.103 -0.1847 -0.1174 -0.3811
   98SAPE  C213 9831  -0.116   5.062   6.144 -0.2154 -0.4271 -0.0127
   98SAPE  H13R 9832  -0.032   5.078   6.215 -0.5160 -2.5678  0.8961
   98SAPE  H13S 9833  -0.082   5.096   6.044 -0.4417  0.7350  0.2973
   98SAPE  C214 9834  -0.159   4.916   6.147 -0.0900  0.9622  0.0773
   98SAPE  H14R 9835  -0.212   4.884   6.237  1.4588 -0.3237  0.5757
   98SAPE  C215 9836  -0.140   4.821   6.050 -0.5983 -0.1194 -0.1564
   98SAPE  H15R 9837  -0.171   4.717   6.068  0.6557 -0.6124 -0.7387
   98SAPE  C216 9838  -0.093   4.852   5.907 -0.2942 -0.0994 -0.1824
   98SAPE  H16R 9839   0.018   4.860   5.914 -0.1959 -1.5125  0.3032
   98SAPE  H16S 9840  -0.139   4.947   5.875 -0.2762 -0.4394 -1.2408
   98SAPE  C217 9841  -0.142   4.747   5.805  0.3429 -0.1155  0.7541
   98SAPE  H17R 9842  -0.253   4.751   5.796  0.0299 -1.4124  3.2402
   98SAPE  H17S 9843  -0.132   4.640   5.833 -3.5748 -0.9227 -0.3368
   98SAPE  C218 9844  -0.097   4.783   5.662 -0.9531 -0.4054  1.4995
   98SAPE  H18R 9845   0.012   4.802   5.671 -1.1111  0.0346  2.6248
   98SAPE  H18S 9846  -0.130   4.881   5.621 -2.3823 -1.6663 -0.5582
   98SAPE  C219 9847  -0.127   4.679   5.552  0.6089  1.0451  0.2639
   98SAPE  H19R 9848  -0.074   4.584   5.577 -0.2596 -0.3305 -2.6148
   98SAPE  H19S 9849  -0.072   4.718   5.464  0.6778 -0.0311 -0.1929
   98SAPE  C220 9850  -0.274   4.645   5.514 -0.4482 -0.2568 -0.2890
   98SAPE  H20R 9851  -0.343   4.634   5.601  0.1299 -0.7433  0.1053
   98SAPE  H20S 9852  -0.283   4.555   5.450  0.1992 -0.3897 -0.1975
   98SAPE  H20T 9853  -0.322   4.726   5.453  1.2555  1.9313  1.1175
   98SAPE   C33 9854  -0.167   5.635   7.012  0.0632  0.0573 -0.0749
   98SAPE   H3X 9855  -0.254   5.573   6.980 -1.8126  3.6766 -2.7508
   98SAPE   H3Y 9856  -0.075   5.585   6.978 -0.7702 -1.1308 -0.6238
   98SAPE   C34 9857  -0.173   5.776   6.938  0.5259 -0.3484  0.0315
   98SAPE   H4X 9858  -0.065   5.794   6.918  0.1187  0.5973 -1.4791
   98SAPE   H4Y 9859  -0.218   5.852   7.005  1.7004 -0.3210  0.8067
   98SAPE   C35 9860  -0.271   5.783   6.819 -1.0080 -0.0887 -0.3674
   98SAPE   H5X 9861  -0.272   5.885   6.774 -1.0308 -0.1343 -0.4720
   98SAPE   H5Y 9862  -0.377   5.766   6.849 -0.5376 -2.4733  0.1197
   98SAPE   C36 9863  -0.223   5.687   6.703  0.0229  0.2597 -0.3882
   98SAPE   H6X 9864  -0.236   5.580   6.732  3.1346  0.1250  0.8038
   98SAPE   H6Y 9865  -0.113   5.701   6.705 -0.2478  3.1470 -1.2679
   98SAPE   C37 9866  -0.282   5.737   6.569 -0.0863  0.4124 -0.1406
   98SAPE   H7X 9867  -0.257   5.845   6.559 -0.1788  0.5771  1.1632
   98SAPE   H7Y 9868  -0.392   5.720   6.566 -0.3853  1.7021  1.4423
   98SAPE   C38 9869  -0.210   5.652   6.456 -0.4949  0.0299 -0.2247
   98SAPE   H8X 9870  -0.241   5.545   6.457  0.3123 -0.2516  1.9763
   98SAPE   H8Y 9871  -0.101   5.660   6.478 -0.0907 -2.8565 -0.7991
   98SAPE   C39 9872  -0.224   5.717   6.316 -0.0287 -0.2806  0.6692
   98SAPE   H9X 9873  -0.182   5.820   6.324  0.9998 -0.5454 -0.8222
   98SAPE   H9Y 9874  -0.331   5.730   6.288  0.4482 -0.3371 -1.3213
   98SAPE  C310 9875  -0.144   5.656   6.208  0.3245  0.4166  0.4040
   98SAPE  H10X 9876  -0.036   5.652   6.237  0.6010 -2.2086 -0.7563
   98SAPE  H10Y 9877  -0.144   5.723   6.119  2.0773 -2.7714 -2.2002
   98SAPE  C311 9878  -0.185   5.511   6.167 -0.5254  0.6359 -0.2174
   98SAPE  H11X 9879  -0.295   5.497   6.157 -0.7758  1.3854  1.2095
   98SAPE  H11Y 9880  -0.151   5.442   6.248 -0.7180  1.6595  0.7676
   98SAPE  C312 9881  -0.126   5.466   6.026 -0.1306 -0.7008 -0.4811
   98SAPE  H12X 9882  -0.111   5.356   6.020  5.1815 -0.3396  0.8031
   98SAPE  H12Y 9883  -0.029   5.520   6.020 -1.4982  2.3047  2.0561
   98SAPE  C313 9884  -0.215   5.514   5.914  0.1307  0.7084  0.4824
   98SAPE  H13X 9885  -0.230   5.621   5.940  0.1528  0.4515  1.6046
   98SAPE  H13Y 9886  -0.313   5.463   5.920 -0.4467  0.7404 -4.4765
   98SAPE  C314 9887  -0.139   5.528   5.773  0.4600  0.1197 -0.7282
   98SAPE  H14X 9888  -0.221   5.555   5.703 -0.5366 -2.8912 -0.8481
   98SAPE  H14Y 9889  -0.115   5.426   5.737  2.8072  0.2191  0.3930
   98SAPE  C315 9890  -0.024   5.634   5.770  0.6684 -0.1326 -0.3282
   98SAPE  H15X 9891   0.030   5.609   5.864 -0.5622 -1.9676 -0.0738
   98SAPE  H15Y 9892  -0.073   5.734   5.773 -2.0220 -1.3656 -0.9778
   98SAPE  C316 9893   0.076   5.609   5.658  0.0872  0.3078 -0.0472
   98SAPE  H16X 9894   0.136   5.517   5.673 -0.2470  0.3513  1.9544
   98SAPE  H16Y 9895   0.140   5.700   5.657  0.5618  0.0183  1.1599
   98SAPE  C317 9896   0.005   5.604   5.523 -0.1898 -0.2925 -0.7933
   98SAPE  H17X 9897  -0.082   5.673   5.526  0.9700  1.1916  0.4899
   98SAPE  H17Y 9898  -0.022   5.497   5.510  2.1611 -0.8518 -1.4215
   98SAPE  C318 9899   0.099   5.644   5.411  0.1932 -0.2369 -0.1130
   98SAPE  H18X 9900   0.055   5.605   5.317  0.7511 -1.4152  0.0808
   98SAPE  H18Y 9901   0.197   5.593   5.421  0.6876  0.9571  1.4398
   98SAPE  H18Z 9902   0.120   5.752   5.419  0.8909 -0.4767  1.7960
   99SAPE     N 9903   1.097   2.924   7.269 -0.2056 -0.3181 -0.2734
   99SAPE   HN1 9904   1.183   2.982   7.264 -0.5983  0.5284  1.7677
   99SAPE   HN2 9905   1.114   2.837   7.215 -2.2580 -0.9669  0.0575
   99SAPE   HN3 9906   1.020   2.981   7.228  0.4061  0.8482  0.1258
   99SAPE   C12 9907   1.067   2.900   7.408  0.0700  0.4303  0.0228
   99SAPE  H12A 9908   1.039   2.993   7.461  2.3599 -0.0631  2.3012
   99SAPE  H12B 9909   1.153   2.855   7.462 -0.3881 -0.1167  0.3113
   99SAPE   C11 9910   0.965   2.789   7.412 -0.1686 -0.3744 -0.5108
   99SAPE  H11A 9911   0.928   2.768   7.515 -0.7743 -1.0706 -0.8601
   99SAPE  H11B 9912   1.019   2.697   7.380 -0.7749 -1.3289  1.1025
   99SAPE     P 9913   0.765   2.685   7.289 -0.5125 -0.4311 -0.0277
   99SAPE   O13 9914   0.794   2.564   7.373  0.4588 -0.0307  0.2706
   99SAPE   O14 9915   0.625   2.731   7.291 -0.1783  0.0265  0.0180
   99SAPE   O12 9916   0.841   2.816   7.339 -0.4159 -0.1814 -0.1345
   99SAPE   O11 9917   0.818   2.662   7.140  0.2575  1.0281  0.0996
   99SAPE    C1 9918   0.798   2.760   7.037  0.2835  0.3841 -0.5719
   99SAPE    HA 9919   0.816   2.859   7.085 -0.6405 -0.4536  1.6275
   99SAPE    HB 9920   0.875   2.744   6.959  2.7123  2.6736  1.1888
   99SAPE    C2 9921   0.662   2.778   6.958  0.2588  1.0343 -0.6810
   99SAPE    HS 9922   0.581   2.786   7.033 -0.9535 -0.3839 -1.7685
   99SAPE   O21 9923   0.639   2.654   6.900 -0.5716 -0.1810  0.4941
   99SAPE   C21 9924   0.529   2.640   6.834  0.4671  0.2056 -0.2343
   99SAPE   O22 9925   0.428   2.706   6.846  0.2931  0.5068  0.5454
   99SAPE   C22 9926   0.533   2.506   6.770  0.5412 -0.0776  0.7406
   99SAPE   H2R 9927   0.562   2.438   6.852  0.2941  0.5560  1.3634
   99SAPE   H2S 9928   0.432   2.493   6.726  0.6363 -1.6402  0.9332
   99SAPE    C3 9929   0.664   2.904   6.874  0.6670  0.1960 -0.2101
   99SAPE    HX 9930   0.725   2.983   6.922  0.5032  0.1404  0.0922
   99SAPE    HY 9931   0.563   2.949   6.879 -0.7929 -2.9198  2.2512
   99SAPE   O31 9932   0.699   2.868   6.738  0.1496  0.3555  0.1694
   99SAPE   C31 9933   0.823   2.870   6.708 -0.9637  0.1021  0.5351
   99SAPE   O32 9934   0.912   2.898   6.786 -0.2976 -0.7656  0.3045
   99SAPE   C32 9935   0.843   2.822   6.568 -0.3928 -0.1008  0.2040
   99SAPE   H2X 9936   0.826   2.910   6.502 -2.3163 -0.0215  0.7393
   99SAPE   H2Y 9937   0.776   2.741   6.533  2.4047 -2.7064  0.4392
   99SAPE   C23 9938   0.633   2.496   6.646  0.9498  0.2058 -0.2622
   99SAPE   H3R 9939   0.656   2.388   6.628  0.4624  0.1740 -0.6870
   99SAPE   H3S 9940   0.729   2.550   6.664  0.1299  0.9842  2.1408
   99SAPE   C24 9941   0.563   2.533   6.522 -0.6766 -0.4592  0.1911
   99SAPE   H4R 9942   0.637   2.560   6.443 -2.1037  0.6739 -0.8269
   99SAPE   H4S 9943   0.512   2.629   6.545 -1.2683 -0.9269  0.8835
   99SAPE   C25 9944   0.461   2.443   6.462 -0.6178  1.1534  0.8270
   99SAPE   H5R 9945   0.490   2.337   6.467 -2.0176  0.5457 -1.7502
   99SAPE   C26 9946   0.335   2.472   6.426  0.5689  0.4960  0.0509
   99SAPE   H6R 9947   0.282   2.396   6.367  0.2230 -0.1224  1.1363
   99SAPE   C27 9948   0.273   2.605   6.423  0.0876 -0.6857  0.0372
   99SAPE   H7R 9949   0.207   2.613   6.334 -0.9865 -0.1537  0.8568
   99SAPE   H7S 9950   0.348   2.687   6.417  0.3673 -0.9670 -0.4181
   99SAPE   C28 9951   0.192   2.626   6.552  0.2416 -0.1032 -0.2891
   99SAPE   H8R 9952   0.232   2.581   6.645  0.9847  0.1729 -0.4697
   99SAPE   C29 9953   0.069   2.692   6.554 -0.6072  0.0423 -0.2517
   99SAPE   H9R 9954   0.016   2.695   6.650  0.4967  0.7289  0.3641
   99SAPE  C210 9955   0.004   2.771   6.446 -0.0839 -0.4639 -0.3172
   99SAPE  H10R 9956   0.072   2.807   6.367 -0.8988  0.9522 -0.4018
   99SAPE  H10S 9957  -0.038   2.865   6.487 -0.8079 -0.3407 -1.2941
   99SAPE  C211 9958  -0.116   2.702   6.392  0.3946 -0.0457  0.4983
   99SAPE  H11R 9959  -0.184   2.668   6.472  1.1219 -2.1686  0.2797
   99SAPE  C212 9960  -0.145   2.680   6.259  0.3175  0.0008  0.2584
   99SAPE  H12R 9961  -0.238   2.626   6.236 -0.0966  0.5746  0.5605
   99SAPE  C213 9962  -0.062   2.706   6.129 -0.7137  0.5089  0.3857
   99SAPE  H13R 9963   0.020   2.774   6.160  0.1493 -0.9613  1.4364
   99SAPE  H13S 9964  -0.123   2.760   6.053  4.7733  1.5147 -3.9798
   99SAPE  C214 9965   0.002   2.582   6.068 -0.5747 -0.2927 -0.2600
   99SAPE  H14R 9966  -0.006   2.493   6.132 -1.5144  0.2329  0.3636
   99SAPE  C215 9967   0.069   2.575   5.952  0.7347  0.6182 -0.0826
   99SAPE  H15R 9968   0.119   2.483   5.919  1.4625  0.5821  1.0831
   99SAPE  C216 9969   0.089   2.695   5.865  0.0878 -0.3021 -0.3199
   99SAPE  H16R 9970   0.192   2.729   5.844 -0.3852  2.0163  0.8516
   99SAPE  H16S 9971   0.056   2.788   5.915 -0.3926 -0.7500  0.2097
   99SAPE  C217 9972   0.019   2.691   5.731 -0.3360  0.3705 -0.6024
   99SAPE  H17R 9973  -0.081   2.642   5.745  0.6970 -1.5952  0.3495
   99SAPE  H17S 9974   0.066   2.622   5.657 -0.9835 -0.7034 -0.0432
   99SAPE  C218 9975   0.007   2.824   5.659  0.3627 -0.2909 -0.5245
   99SAPE  H18R 9976  -0.011   2.897   5.740 -0.5661  0.7713 -1.6387
   99SAPE  H18S 9977  -0.076   2.827   5.585  0.1935  2.0735 -0.3124
   99SAPE  C219 9978   0.132   2.858   5.574 -0.5729  0.6788  0.1054
   99SAPE  H19R 9979   0.150   2.792   5.487  0.4426  1.6895 -0.4884
   99SAPE  H19S 9980   0.221   2.843   5.638 -1.0102 -1.5005  0.2835
   99SAPE  C220 9981   0.131   3.007   5.535 -0.1372  0.1313 -0.0070
   99SAPE  H20R 9982   0.136   3.074   5.623  0.7667 -0.9319  0.7753
   99SAPE  H20S 9983   0.041   3.028   5.473  1.0528  0.1240 -1.8234
   99SAPE  H20T 9984   0.215   3.041   5.469 -0.5922 -0.2210 -0.7859
   99SAPE   C33 9985   0.988   2.767   6.560 -0.2028 -0.5222  0.2396
   99SAPE   H3X 9986   1.041   2.734   6.652  1.2252 -1.6631 -0.9345
   99SAPE   H3Y 9987   1.053   2.832   6.499 -0.4395 -0.7032 -0.2046
   99SAPE   C34 9988   0.985   2.631   6.483 -0.0180  0.0136 -0.0604
   99SAPE   H4X 9989   0.919   2.562   6.540  0.2971  0.2651  0.6264
   99SAPE   H4Y 9990   1.079   2.574   6.494 -0.0136  0.3359  2.0015
   99SAPE   C35 9991   0.969   2.656   6.325  0.2129 -0.7909 -0.3528
   99SAPE   H5X 9992   1.045   2.731   6.296 -0.1372  0.1705  1.0916
   99SAPE   H5Y 9993   0.868   2.697   6.303  0.2774 -0.1344  0.5472
   99SAPE   C36 9994   0.974   2.518   6.252  0.5630  0.9276  1.2508
   99SAPE   H6X 9995   0.876   2.466   6.252  0.8858  0.2252 -0.9984
   99SAPE   H6Y 9996   1.047   2.451   6.302 -0.0446 -0.0957  0.7982
   99SAPE   C37 9997   1.005   2.513   6.099 -0.3387 -0.5005  0.3636
   99SAPE   H7X 9998   1.024   2.407   6.073 -2.5575 -0.7027 -0.6557
   99SAPE   H7Y 9999   1.099   2.571   6.087  0.1957 -1.8471 -2.7605
   99SAPE   C3810000   0.896   2.580   6.013 -0.1148  0.4827  0.1908
   99SAPE   H8X10001   0.890   2.675   6.069 -0.7559 -0.9976  2.7817
   99SAPE   H8Y10002   0.793   2.539   6.027  0.9402 -2.2289  0.4967
   99SAPE   C3910003   0.929   2.590   5.864  0.5670 -1.1720 -0.3723
   99SAPE   H9X10004   0.917   2.490   5.816 -0.5130 -1.3962  0.3121
   99SAPE   H9Y10005   1.032   2.632   5.865  0.4224 -0.6354  2.9344
   99SAPE  C31010006   0.836   2.683   5.786  0.1574 -0.5729 -0.4731
   99SAPE  H10X10007   0.852   2.788   5.818  0.2789 -0.7394  0.0084
   99SAPE  H10Y10008   0.731   2.660   5.812 -0.1632  0.7271 -0.5343
   99SAPE  C31110009   0.858   2.674   5.636 -0.3868 -0.1280  1.1663
   99SAPE  H11X10010   0.851   2.569   5.601 -1.0004  0.9644 -2.3972
   99SAPE  H11Y10011   0.960   2.710   5.609 -1.5412  1.7752 -0.9918
   99SAPE  C31210012   0.772   2.766   5.556 -0.1835 -0.4613 -0.2617
   99SAPE  H12X10013   0.671   2.773   5.603  0.1910 -1.7287  0.7861
   99SAPE  H12Y10014   0.751   2.726   5.455 -0.3988 -0.0051 -0.4001
   99SAPE  C31310015   0.849   2.897   5.532  0.3734 -0.6060  0.1566
   99SAPE  H13X10016   0.938   2.873   5.471 -1.4227 -1.7282 -2.1974
   99SAPE  H13Y10017   0.886   2.950   5.623  1.1592 -1.6428  0.4619
   99SAPE  C31410018   0.765   2.994   5.447 -0.2209 -0.4802  0.3459
   99SAPE  H14X10019   0.672   3.019   5.503 -0.5581 -2.7734  0.9137
   99SAPE  H14Y10020   0.729   2.965   5.346 -0.6720  3.3692 -0.7691
   99SAPE  C31510021   0.835   3.129   5.438 -0.2699 -0.0848 -0.3702
   99SAPE  H15X10022   0.942   3.111   5.417 -0.1525 -0.0363  0.1764
   99SAPE  H15Y10023   0.845   3.164   5.543 -1.2196 -0.1554 -0.2413
   99SAPE  C31610024   0.761   3.230   5.349 -0.1887 -0.3936  0.5607
   99SAPE  H16X10025   0.760   3.196   5.243 -0.5041  2.6427 -0.5116
   99SAPE  H16Y10026   0.818   3.325   5.342 -0.5902 -0.2240 -0.6186
   99SAPE  C31710027   0.621   3.264   5.386 -0.2302  0.2531 -0.1260
   99SAPE  H17X10028   0.583   3.176   5.443 -1.5356 -0.1522 -1.5494
   99SAPE  H17Y10029   0.547   3.273   5.303  0.0805  0.7163 -0.3582
   99SAPE  C31810030   0.617   3.391   5.472 -0.1348 -0.3753  0.0780
   99SAPE  H18X10031   0.683   3.462   5.418  0.3661 -0.9171 -0.0317
   99SAPE  H18Y10032   0.661   3.367   5.572 -3.2335 -1.6762  1.2433
   99SAPE  H18Z10033   0.515   3.431   5.491 -0.4717 -1.8506  1.6191
  100SAPE     N10034   3.714   2.475   7.618 -0.3111 -0.0391  0.2599
  100SAPE   HN110035   3.621   2.485   7.571 -0.4185 -1.3200  0.1766
  100SAPE   HN210036   3.741   2.377   7.638  2.9931  0.1983 -2.0977
  100SAPE   HN310037   3.696   2.521   7.710 -1.5524 -0.2083  0.1204
  100SAPE   C1210038   3.834   2.532   7.542  0.3019  0.1507 -0.7171
  100SAPE  H12A10039   3.922   2.527   7.610 -1.1182 -2.6233  1.1049
  100SAPE  H12B10040   3.796   2.629   7.504 -0.1515 -0.5101 -2.0036
  100SAPE   C1110041   3.875   2.439   7.420  0.3663  0.3148 -0.0233
  100SAPE  H11A10042   3.954   2.490   7.361  3.2198 -2.7746  0.7900
  100SAPE  H11B10043   3.784   2.431   7.357  0.0806 -1.6618  0.5816
  100SAPE     P10044   4.058   2.260   7.474  0.2247  0.2444 -0.0332
  100SAPE   O1310045   4.126   2.365   7.557 -0.2606  0.3182 -0.4758
  100SAPE   O1410046   4.069   2.117   7.515  0.5659 -0.2646  0.0553
  100SAPE   O1210047   3.908   2.304   7.466 -0.3242  0.1194  0.7251
  100SAPE   O1110048   4.100   2.272   7.331 -0.3605 -0.0267 -0.5633
  100SAPE    C110049   4.022   2.233   7.217  0.0132 -0.9550 -1.1192
  100SAPE    HA10050   3.919   2.275   7.219  0.1355 -0.6304  1.1931
  100SAPE    HB10051   4.082   2.273   7.133  1.7297 -0.7634  0.1543
  100SAPE    C210052   4.008   2.085   7.196  0.2304  0.1136 -0.0487
  100SAPE    HS10053   3.940   2.036   7.270  0.3030 -0.3886 -0.3061
  100SAPE   O2110054   4.132   2.014   7.210  0.1165  0.6804 -0.5000
  100SAPE   C2110055   4.140   1.888   7.197  0.3441 -0.5083  0.1292
  100SAPE   O2210056   4.039   1.815   7.189 -0.1533 -0.1777  0.3512
  100SAPE   C2210057   4.280   1.839   7.174 -0.0405  0.5424 -0.3216
  100SAPE   H2R10058   4.348   1.867   7.257  0.5408 -2.2412  0.2646
  100SAPE   H2S10059   4.272   1.728   7.166  0.2867  0.6072 -1.8343
  100SAPE    C310060   3.932   2.061   7.062 -0.2833  0.0774 -0.8618
  100SAPE    HX10061   3.845   2.130   7.065  0.7133  1.4043 -1.2008
  100SAPE    HY10062   3.911   1.953   7.073 -1.5604  0.4293  0.3733
  100SAPE   O3110063   4.012   2.078   6.940  0.5521 -0.0560  0.0831
  100SAPE   C3110064   3.930   2.069   6.836  0.1214  0.0136 -0.4730
  100SAPE   O3210065   3.813   2.038   6.843 -0.2906 -0.4236 -1.2608
  100SAPE   C3210066   4.012   2.071   6.709  0.3965  0.3017 -0.0983
  100SAPE   H2X10067   4.074   1.980   6.717 -3.7586 -2.7256  1.3818
  100SAPE   H2Y10068   4.060   2.171   6.708 -0.1349  0.5647  0.0926
  100SAPE   C2310069   4.340   1.884   7.043  0.5099 -0.3525  0.6401
  100SAPE   H3R10070   4.446   1.852   7.049  1.6639  2.5207 -2.0734
  100SAPE   H3S10071   4.345   1.994   7.031 -1.9568 -0.1679  0.8098
  100SAPE   C2410072   4.275   1.826   6.914 -0.0385  0.3616  0.0970
  100SAPE   H4R10073   4.304   1.899   6.835 -0.6167  0.5568  0.0589
  100SAPE   H4S10074   4.165   1.838   6.917 -0.1194  0.4249 -1.8747
  100SAPE   C2510075   4.303   1.682   6.877 -0.0657 -0.5294  0.0842
  100SAPE   H5R10076   4.282   1.612   6.959 -1.9473  0.7712  0.7889
  100SAPE   C2610077   4.347   1.647   6.757 -0.5060  0.2906 -0.0679
  100SAPE   H6R10078   4.349   1.539   6.735  1.9477  0.2242  0.2261
  100SAPE   C2710079   4.362   1.735   6.632  0.0379 -0.0338 -0.0433
  100SAPE   H7R10080   4.430   1.689   6.557 -1.0533 -1.7743 -0.0151
  100SAPE   H7S10081   4.409   1.832   6.660 -2.5037  2.9805 -4.7652
  100SAPE   C2810082   4.234   1.768   6.565  0.3900 -0.3541  0.1936
  100SAPE   H8R10083   4.162   1.799   6.642  0.6362  3.1038 -0.7815
  100SAPE   C2910084   4.196   1.755   6.436  0.3154 -0.0434 -0.1359
  100SAPE   H9R10085   4.106   1.799   6.392  1.7705  1.4809 -1.7715
  100SAPE  C21010086   4.287   1.687   6.331 -0.9882  0.1367 -0.0224
  100SAPE  H10R10087   4.232   1.592   6.311 -0.2592 -0.0594 -1.2416
  100SAPE  H10S10088   4.387   1.658   6.370 -0.2720  0.6637 -1.3666
  100SAPE  C21110089   4.307   1.762   6.205  0.4110 -1.1348 -0.1443
  100SAPE  H11R10090   4.292   1.871   6.205  0.3039 -1.1476  0.0793
  100SAPE  C21210091   4.330   1.704   6.080  0.2850 -0.6008 -0.4758
  100SAPE  H12R10092   4.345   1.770   5.994  1.0510  0.9386  0.8001
  100SAPE  C21310093   4.347   1.559   6.049 -0.0183 -0.1404 -0.4208
  100SAPE  H13R10094   4.250   1.505   6.056  0.7538 -1.4745  0.8613
  100SAPE  H13S10095   4.423   1.510   6.115 -2.8586 -3.0470  0.9565
  100SAPE  C21410096   4.411   1.527   5.912  0.3747 -0.2237 -0.5305
  100SAPE  H14R10097   4.520   1.527   5.905  0.3682  0.5302 -0.7623
  100SAPE  C21510098   4.356   1.487   5.795 -0.9417 -0.5957  0.0347
  100SAPE  H15R10099   4.425   1.476   5.710 -0.1488  1.1654  0.4067
  100SAPE  C21610100   4.203   1.475   5.773  0.5179 -0.3514  0.2882
  100SAPE  H16R10101   4.173   1.537   5.685 -2.4647 -1.1965  0.6223
  100SAPE  H16S10102   4.136   1.503   5.857  1.4275 -1.9219  1.5923
  100SAPE  C21710103   4.177   1.331   5.732 -0.3378 -0.4597  0.6659
  100SAPE  H17R10104   4.244   1.294   5.652 -1.0817 -3.1878  1.1902
  100SAPE  H17S10105   4.076   1.324   5.688 -1.2219 -1.5876  2.7211
  100SAPE  C21810106   4.189   1.224   5.849 -0.7596 -0.2378 -0.4407
  100SAPE  H18R10107   4.098   1.219   5.913  0.2505 -0.3032  1.0151
  100SAPE  H18S10108   4.269   1.257   5.918 -0.4029  0.1078 -1.0126
  100SAPE  C21910109   4.226   1.084   5.805  0.2295 -0.5454  0.2315
  100SAPE  H19R10110   4.316   1.088   5.741 -0.8429 -0.8398 -1.3414
  100SAPE  H19S10111   4.154   1.054   5.726  0.8066  1.8871 -1.3249
  100SAPE  C22010112   4.238   0.982   5.906 -0.7913  0.2028  0.0023
  100SAPE  H20R10113   4.263   0.886   5.856  1.6764  0.4362  0.6689
  100SAPE  H20S10114   4.152   0.973   5.975 -0.5280  1.2430  0.4879
  100SAPE  H20T10115   4.327   1.014   5.965  1.5650  2.2708 -4.1864
  100SAPE   C3310116   3.928   2.061   6.582 -0.5633  1.0681  0.2534
  100SAPE   H3X10117   3.842   2.131   6.569 -1.3090 -0.2327 -2.8376
  100SAPE   H3Y10118   3.897   1.955   6.583  2.2219  0.1772  1.9074
  100SAPE   C3410119   4.001   2.074   6.445  0.7627 -0.2283 -0.3341
  100SAPE   H4X10120   4.079   1.998   6.420 -2.5217 -3.7695 -0.7815
  100SAPE   H4Y10121   4.037   2.177   6.426 -0.7101 -0.0716 -2.5582
  100SAPE   C3510122   3.886   2.066   6.339 -0.1619  0.0152  0.0658
  100SAPE   H5X10123   3.818   2.152   6.359  0.2489  0.5197 -0.6480
  100SAPE   H5Y10124   3.832   1.969   6.338 -0.5382  0.1939 -2.3979
  100SAPE   C3610125   3.936   2.084   6.196  0.0479 -0.2733  0.1063
  100SAPE   H6X10126   4.024   2.153   6.195 -0.0698 -0.1238 -0.7563
  100SAPE   H6Y10127   3.861   2.134   6.132 -1.2097 -0.1142  1.6448
  100SAPE   C3710128   3.970   1.951   6.127  0.0697  0.1908  0.2962
  100SAPE   H7X10129   3.888   1.877   6.112  0.6920 -0.3568 -0.4754
  100SAPE   H7Y10130   4.046   1.901   6.190  0.5545  1.0395  0.3949
  100SAPE   C3810131   4.033   1.969   5.991  0.0358  0.6440 -0.0378
  100SAPE   H8X10132   4.092   1.875   5.981  0.5946  1.0305 -0.4935
  100SAPE   H8Y10133   4.093   2.062   5.999 -0.4864  0.8933  1.2769
  100SAPE   C3910134   3.933   1.992   5.880  0.1738  0.9548 -0.0579
  100SAPE   H9X10135   3.885   2.089   5.905 -2.1695 -0.5005  1.5836
  100SAPE   H9Y10136   3.857   1.912   5.890  0.9252  0.1839 -0.3798
  100SAPE  C31010137   4.005   1.992   5.741 -0.1932  0.1168 -0.8371
  100SAPE  H10X10138   4.039   1.892   5.708  1.3507  0.9272 -1.7889
  100SAPE  H10Y10139   4.090   2.063   5.738  2.6653 -3.0833 -2.1465
  100SAPE  C31110140   3.890   2.040   5.650 -0.0855  0.7827  0.3461
  100SAPE  H11X10141   3.853   2.139   5.685  0.5585  0.8290  0.9323
  100SAPE  H11Y10142   3.815   1.959   5.640  3.2002 -2.2349 -2.7436
  100SAPE  C31210143   3.945   2.049   5.509 -0.9115 -0.6519  0.1316
  100SAPE  H12X10144   4.005   1.956   5.495 -1.0438 -0.8020  0.5451
  100SAPE  H12Y10145   4.022   2.129   5.506 -0.6682 -0.8933 -0.1027
  100SAPE  C31310146   3.838   2.073   5.407  0.3349  0.5166  0.2669
  100SAPE  H13X10147   3.760   1.995   5.406  0.9210 -0.0828  0.7408
  100SAPE  H13Y10148   3.901   2.066   5.315 -0.0337  1.6618 -0.0903
  100SAPE  C31410149   3.764   2.207   5.430 -0.2461 -0.1948  0.6675
  100SAPE  H14X10150   3.833   2.288   5.459  4.2925 -3.8844  1.3342
  100SAPE  H14Y10151   3.692   2.194   5.514 -0.8298  2.6662  0.7106
  100SAPE  C31510152   3.683   2.249   5.306  0.1771 -0.5905 -0.1189
  100SAPE  H15X10153   3.633   2.342   5.339  2.2219  0.4353  0.2374
  100SAPE  H15Y10154   3.604   2.175   5.282 -0.6533  0.0536  0.5580
  100SAPE  C31610155   3.768   2.290   5.185 -0.2029 -0.5269  0.3722
  100SAPE  H16X10156   3.706   2.294   5.093 -0.6788  2.4926  0.7080
  100SAPE  H16Y10157   3.838   2.206   5.165  0.6878 -0.0811  1.5297
  100SAPE  C31710158   3.838   2.425   5.195  0.5277 -0.0334 -0.2121
  100SAPE  H17X10159   3.884   2.440   5.095  0.2585 -1.9487 -0.6663
  100SAPE  H17Y10160   3.923   2.437   5.266  1.4642 -3.3010 -0.6304
  100SAPE  C31810161   3.739   2.548   5.215  0.1144  0.3442  0.0979
  100SAPE  H18X10162   3.701   2.538   5.319 -3.0645  0.7826 -0.8895
  100SAPE  H18Y10163   3.655   2.540   5.142  0.2819  1.3937 -0.2309
  100SAPE  H18Z10164   3.808   2.635   5.206  2.5753 -1.4454  0.7883
  101SAPE     N10165   2.045   3.451   7.385 -0.2089  0.2950 -0.8535
  101SAPE   HN110166   1.975   3.491   7.320 -0.5332  1.6150  0.2846
  101SAPE   HN210167   2.084   3.531   7.439 -0.8529 -1.2423  2.1125
  101SAPE   HN310168   2.124   3.416   7.326  1.1918  1.9776 -0.0656
  101SAPE   C1210169   1.977   3.335   7.460  0.2657 -0.0184 -0.8662
  101SAPE  H12A10170   1.891   3.382   7.512 -1.6051 -2.5273 -1.5101
  101SAPE  H12B10171   2.056   3.291   7.524  0.1028  2.4032  1.1553
  101SAPE   C1110172   1.906   3.236   7.363 -0.0758  0.2979  0.1711
  101SAPE  H11A10173   1.837   3.295   7.299  0.8988  1.1214 -0.1417
  101SAPE  H11B10174   1.853   3.159   7.423 -0.7479 -0.2002 -1.0240
  101SAPE     P10175   2.093   3.056   7.322 -0.5129 -0.4827  0.0006
  101SAPE   O1310176   2.203   3.100   7.407 -0.1068 -0.9736  0.0788
  101SAPE   O1410177   2.006   2.952   7.382  0.1150 -0.0178  0.0670
  101SAPE   O1210178   2.010   3.183   7.278 -0.1371  0.7685 -0.5850
  101SAPE   O1110179   2.148   3.005   7.184  0.4498  0.4565  0.0088
  101SAPE    C110180   2.154   3.087   7.067 -0.3786  0.4234 -0.3236
  101SAPE    HA10181   2.169   3.194   7.094 -2.1225  0.4658  0.6489
  101SAPE    HB10182   2.247   3.063   7.011  0.4791  2.8342 -0.0566
  101SAPE    C210183   2.032   3.091   6.981  0.2167 -0.3521 -0.9841
  101SAPE    HS10184   1.961   3.046   7.054  2.3605 -1.8326  0.3612
  101SAPE   O2110185   2.044   3.003   6.871 -0.1779 -0.5966 -0.2967
  101SAPE   C2110186   2.020   2.880   6.892  0.5597  0.4129 -0.7765
  101SAPE   O2210187   1.993   2.826   6.999  0.2914 -0.0639  0.2375
  101SAPE   C2210188   2.025   2.800   6.760 -0.6230  0.3621 -0.1113
  101SAPE   H2R10189   2.062   2.700   6.789  0.1219  1.3104  2.4952
  101SAPE   H2S10190   1.920   2.775   6.736 -0.9256 -1.5530  2.8199
  101SAPE    C310191   1.989   3.236   6.938 -0.7690  0.2919  0.1432
  101SAPE    HX10192   1.983   3.291   7.034  0.6140 -0.4573  0.6951
  101SAPE    HY10193   1.890   3.231   6.887 -0.1027 -0.9326 -1.1020
  101SAPE   O3110194   2.099   3.296   6.860 -0.7180 -0.4563 -0.5470
  101SAPE   C3110195   2.068   3.385   6.775 -0.6161 -0.2417  0.1247
  101SAPE   O3210196   1.958   3.430   6.750  0.5303  0.2357 -0.2608
  101SAPE   C3210197   2.196   3.426   6.693  0.8071  0.5141 -0.9223
  101SAPE   H2X10198   2.287   3.399   6.750  0.4155 -0.9956 -0.9754
  101SAPE   H2Y10199   2.184   3.537   6.685  1.6015  0.6109 -0.8832
  101SAPE   C2310200   2.113   2.867   6.647 -0.0387  0.0191 -0.3127
  101SAPE   H3R10201   2.209   2.906   6.688  0.5980  0.4036 -2.0814
  101SAPE   H3S10202   2.063   2.959   6.611 -0.2688  0.5305  1.2610
  101SAPE   C2410203   2.142   2.773   6.522 -0.5615  0.7763  0.6066
  101SAPE   H4R10204   2.171   2.835   6.434 -2.7432  2.0784  0.7324
  101SAPE   H4S10205   2.046   2.726   6.493  0.4202 -1.2842  0.5629
  101SAPE   C2510206   2.247   2.671   6.564  0.2159 -0.4945  0.0505
  101SAPE   H5R10207   2.245   2.631   6.666 -2.0699 -0.5748  0.0315
  101SAPE   C2610208   2.328   2.610   6.482  0.5436 -0.2204  0.5251
  101SAPE   H6R10209   2.397   2.535   6.523  0.1681 -0.1684  1.2535
  101SAPE   C2710210   2.345   2.621   6.335 -0.0136  0.8857  0.8974
  101SAPE   H7R10211   2.434   2.558   6.313 -1.5818 -0.9452 -0.5408
  101SAPE   H7S10212   2.373   2.726   6.312 -3.6532  1.3109 -2.7074
  101SAPE   C2810213   2.229   2.578   6.245  0.1819  0.7739 -0.6456
  101SAPE   H8R10214   2.186   2.477   6.256  2.2198 -0.0430  0.4802
  101SAPE   C2910215   2.180   2.642   6.144  0.5490  0.0219  0.5942
  101SAPE   H9R10216   2.090   2.601   6.097  1.5566 -3.2361  1.2923
  101SAPE  C21010217   2.225   2.783   6.101  0.8214 -0.3665  0.4690
  101SAPE  H10R10218   2.264   2.850   6.181 -0.1159 -0.5575  1.0940
  101SAPE  H10S10219   2.129   2.828   6.068  1.3770  0.0125 -0.7052
  101SAPE  C21110220   2.333   2.770   5.991  0.5710  0.4327 -0.4543
  101SAPE  H11R10221   2.429   2.733   6.029  1.1040  3.2055  1.2108
  101SAPE  C21210222   2.320   2.802   5.862 -0.2074  0.1529  0.0743
  101SAPE  H12R10223   2.418   2.802   5.812 -0.2657 -3.6716 -0.3403
  101SAPE  C21310224   2.193   2.854   5.800 -0.0143 -0.3066  0.6695
  101SAPE  H13R10225   2.204   2.929   5.718  0.9394 -1.7341 -0.5670
  101SAPE  H13S10226   2.124   2.906   5.870  0.4548  0.5393  0.5117
  101SAPE  C21410227   2.110   2.745   5.743  0.0017  0.4392  0.1910
  101SAPE  H14R10228   2.063   2.688   5.825 -0.8132 -0.0285 -0.5941
  101SAPE  C21510229   2.102   2.712   5.614 -0.1673  0.1511 -0.2412
  101SAPE  H15R10230   2.044   2.624   5.583  1.7007 -1.3104  0.2171
  101SAPE  C21610231   2.167   2.781   5.498  0.0514 -0.3186  0.2708
  101SAPE  H16R10232   2.272   2.804   5.523  0.6327 -2.7273  0.2810
  101SAPE  H16S10233   2.122   2.882   5.489  0.5680 -0.2270 -1.6032
  101SAPE  C21710234   2.156   2.707   5.359 -0.0178  0.2733  0.9399
  101SAPE  H17R10235   2.201   2.781   5.289  0.5657  0.2077  1.2352
  101SAPE  H17S10236   2.048   2.689   5.340 -0.5028  1.6306  2.2259
  101SAPE  C21810237   2.236   2.576   5.357 -0.3289  0.8220  0.2556
  101SAPE  H18R10238   2.155   2.500   5.367 -0.0504  0.4658 -0.1543
  101SAPE  H18S10239   2.313   2.572   5.437  1.5377 -2.9752 -1.4722
  101SAPE  C21910240   2.291   2.540   5.224  0.3508  0.3245 -0.1086
  101SAPE  H19R10241   2.380   2.603   5.206  0.5293 -0.0521 -0.5822
  101SAPE  H19S10242   2.220   2.571   5.144  0.0527  0.1283  0.0811
  101SAPE  C22010243   2.341   2.400   5.205  0.5303  0.3445  0.4305
  101SAPE  H20R10244   2.399   2.359   5.290 -0.4819  0.4450  1.2030
  101SAPE  H20S10245   2.392   2.387   5.107  1.6255  0.2406  1.0025
  101SAPE  H20T10246   2.262   2.322   5.213  1.7019 -0.9361 -0.0347
  101SAPE   C3310247   2.210   3.340   6.562  0.3344  0.4288 -0.3398
  101SAPE   H3X10248   2.189   3.236   6.595  0.8347 -0.4181 -2.5252
  101SAPE   H3Y10249   2.312   3.357   6.520  1.1093  0.2989  1.4138
  101SAPE   C3410250   2.103   3.381   6.452 -0.0259  0.5320 -0.4715
  101SAPE   H4X10251   2.135   3.483   6.424 -0.1649  0.1750 -2.0187
  101SAPE   H4Y10252   2.006   3.378   6.506 -0.2687  0.7715 -0.8895
  101SAPE   C3510253   2.095   3.292   6.328  0.0731 -0.2293  0.3942
  101SAPE   H5X10254   1.987   3.294   6.301 -0.2247  0.5197  1.5642
  101SAPE   H5Y10255   2.124   3.189   6.358 -2.6235 -0.8357  1.2364
  101SAPE   C3610256   2.182   3.345   6.212 -0.5287 -0.8120  0.5832
  101SAPE   H6X10257   2.288   3.310   6.216  0.0155  0.6219 -0.4643
  101SAPE   H6Y10258   2.186   3.456   6.214 -0.9773 -0.7156 -1.4365
  101SAPE   C3710259   2.120   3.306   6.074  0.5571 -0.7175 -0.6566
  101SAPE   H7X10260   2.013   3.335   6.082  1.4601  2.9271  0.1153
  101SAPE   H7Y10261   2.126   3.196   6.057 -0.2108 -0.9014  0.2027
  101SAPE   C3810262   2.184   3.374   5.953  0.3324 -0.3395  0.2951
  101SAPE   H8X10263   2.274   3.318   5.922 -1.3245 -3.5758  0.9249
  101SAPE   H8Y10264   2.211   3.474   5.993 -0.5426 -0.6695  1.8129
  101SAPE   C3910265   2.085   3.398   5.843 -0.0306  0.2394 -0.5470
  101SAPE   H9X10266   2.016   3.482   5.867 -1.0687 -0.5815 -0.5850
  101SAPE   H9Y10267   2.022   3.309   5.822  1.1872 -0.8005  0.0793
  101SAPE  C31010268   2.167   3.427   5.716  0.2045  0.4191 -0.3611
  101SAPE  H10X10269   2.233   3.515   5.731  1.6431 -0.6087 -0.4975
  101SAPE  H10Y10270   2.096   3.467   5.640 -0.8593 -0.9782 -0.1347
  101SAPE  C31110271   2.231   3.301   5.651  0.2415 -0.9433 -0.2114
  101SAPE  H11X10272   2.144   3.232   5.650 -1.7602  1.4429  0.2758
  101SAPE  H11Y10273   2.315   3.256   5.709 -0.6797  0.6860  2.5719
  101SAPE  C31210274   2.276   3.310   5.506 -1.0413 -0.4033 -0.5913
  101SAPE  H12X10275   2.187   3.320   5.440  0.1856 -1.1208 -2.4291
  101SAPE  H12Y10276   2.337   3.221   5.478 -0.2910 -0.0825  0.0002
  101SAPE  C31310277   2.360   3.445   5.476 -0.4024  0.0759 -0.3633
  101SAPE  H13X10278   2.449   3.454   5.542 -1.6568  3.4547  1.0811
  101SAPE  H13Y10279   2.300   3.536   5.501  2.7504  2.0822  0.5397
  101SAPE  C31410280   2.401   3.464   5.332  0.8829  1.0578  0.6225
  101SAPE  H14X10281   2.316   3.495   5.267  1.2632 -3.4725 -2.5106
  101SAPE  H14Y10282   2.449   3.373   5.290  0.3932 -0.1867  2.6296
  101SAPE  C31510283   2.516   3.559   5.319 -0.2041 -0.0206 -0.9388
  101SAPE  H15X10284   2.598   3.519   5.382  0.2656  1.2677 -0.6837
  101SAPE  H15Y10285   2.481   3.653   5.368  1.9054 -0.2397  1.1628
  101SAPE  C31610286   2.557   3.572   5.171 -0.0914 -0.6432 -0.0216
  101SAPE  H16X10287   2.461   3.583   5.117 -0.8316 -2.0183  0.9442
  101SAPE  H16Y10288   2.605   3.478   5.135  2.0718  0.9601 -1.5622
  101SAPE  C31710289   2.656   3.688   5.139 -0.0353 -0.9836 -1.0617
  101SAPE  H17X10290   2.689   3.667   5.035  1.7358  0.9536 -0.9557
  101SAPE  H17Y10291   2.739   3.674   5.211 -1.4480 -0.4654  0.7647
  101SAPE  C31810292   2.617   3.834   5.168 -0.2383 -0.8354 -0.1199
  101SAPE  H18X10293   2.583   3.845   5.273 -0.6318 -1.8823 -0.1321
  101SAPE  H18Y10294   2.534   3.865   5.101 -1.1623  0.2258  1.4347
  101SAPE  H18Z10295   2.704   3.901   5.150  0.4768 -1.4948  0.7814
  102SAPE     N10296   2.839   6.675   7.558  0.0808 -0.2520 -0.8284
  102SAPE   HN110297   2.835   6.721   7.465  3.2885 -0.3550 -1.1265
  102SAPE   HN210298   2.879   6.580   7.543  1.0686  0.1978 -1.1618
  102SAPE   HN310299   2.749   6.678   7.611 -0.6490 -1.3698 -1.9569
  102SAPE   C1210300   2.940   6.761   7.640 -0.0615  1.0211  0.4813
  102SAPE  H12A10301   2.991   6.708   7.723  0.4529 -0.9305 -1.0000
  102SAPE  H12B10302   2.892   6.853   7.679 -0.0796  1.0892  0.2990
  102SAPE   C1110303   3.060   6.804   7.556  0.4234 -0.7927  0.3301
  102SAPE  H11A10304   3.148   6.835   7.616  1.8007 -1.0957 -1.4652
  102SAPE  H11B10305   3.045   6.892   7.490  1.3632 -2.3770 -2.1195
  102SAPE     P10306   3.228   6.610   7.502 -0.4271 -0.2975  0.1563
  102SAPE   O1310307   3.262   6.621   7.648 -0.2852 -0.3165  0.0576
  102SAPE   O1410308   3.221   6.472   7.440  0.0836 -0.3987  0.4486
  102SAPE   O1210309   3.098   6.697   7.468 -0.3303  0.0687 -0.6480
  102SAPE   O1110310   3.328   6.702   7.421 -0.2825  0.1888  0.1929
  102SAPE    C110311   3.467   6.677   7.427 -0.4740  0.5755  0.2888
  102SAPE    HA10312   3.501   6.691   7.532  0.3277  1.3686 -0.0595
  102SAPE    HB10313   3.494   6.586   7.369  0.7515  1.5303 -0.7175
  102SAPE    C210314   3.536   6.794   7.351  0.2329  0.0886  0.1756
  102SAPE    HS10315   3.500   6.889   7.396  4.3655  1.1613  1.6016
  102SAPE   O2110316   3.495   6.788   7.208  0.2532 -0.5580 -0.2336
  102SAPE   C2110317   3.516   6.900   7.144  0.3744  0.4041  0.0265
  102SAPE   O2210318   3.549   7.007   7.181 -0.4489 -0.3812 -0.1203
  102SAPE   C2210319   3.457   6.881   7.001 -0.5916  0.0758 -0.1785
  102SAPE   H2R10320   3.493   6.785   6.957  1.0803  0.2839  0.6652
  102SAPE   H2S10321   3.347   6.873   7.012 -0.5049  0.2538  1.0317
  102SAPE    C310322   3.695   6.791   7.362  0.1961 -0.1042 -0.0647
  102SAPE    HX10323   3.702   6.795   7.472 -0.2124  0.6418 -0.0571
  102SAPE    HY10324   3.730   6.891   7.328  0.2217  0.5670  1.8434
  102SAPE   O3110325   3.757   6.671   7.317 -0.2061  0.5791 -0.4159
  102SAPE   C3110326   3.796   6.679   7.187 -0.1514  0.0727 -0.7738
  102SAPE   O3210327   3.786   6.779   7.121 -0.0089 -0.0046  0.2434
  102SAPE   C3210328   3.867   6.552   7.146 -0.8420  0.1955 -0.3270
  102SAPE   H2X10329   3.817   6.471   7.202  0.2723  0.7071  1.4932
  102SAPE   H2Y10330   3.976   6.566   7.167 -0.3402 -3.2344 -0.1867
  102SAPE   C2310331   3.487   6.997   6.907 -0.0606  0.4229  1.0704
  102SAPE   H3R10332   3.456   7.091   6.958 -0.7434 -0.0421  1.5235
  102SAPE   H3S10333   3.430   6.989   6.813 -0.7930 -1.6360  1.6438
  102SAPE   C2410334   3.637   6.998   6.867  0.4729  0.9686  0.5493
  102SAPE   H4R10335   3.659   6.899   6.822  0.0807  0.5243  1.3063
  102SAPE   H4S10336   3.702   6.994   6.957  1.5819  1.6116 -0.1952
  102SAPE   C2510337   3.657   7.127   6.784  0.0575  0.2241 -0.9467
  102SAPE   H5R10338   3.649   7.220   6.843 -0.5083 -0.5679  0.2850
  102SAPE   C2610339   3.716   7.141   6.665  0.7474  0.3981  0.4062
  102SAPE   H6R10340   3.728   7.243   6.627 -0.9544  0.7376  0.6820
  102SAPE   C2710341   3.754   7.025   6.574 -0.3493  0.0629 -0.2872
  102SAPE   H7R10342   3.664   7.022   6.509  0.0611  1.8525 -0.9911
  102SAPE   H7S10343   3.744   6.927   6.626  1.8547 -0.4312 -0.6903
  102SAPE   C2810344   3.889   7.013   6.504 -0.2702 -0.0539 -0.0990
  102SAPE   H8R10345   3.975   7.002   6.571 -0.2134  0.8001 -0.0145
  102SAPE   C2910346   3.910   7.020   6.372  0.3141  0.7819 -0.1481
  102SAPE   H9R10347   4.009   6.996   6.328  1.2498  0.7014  1.9069
  102SAPE  C21010348   3.802   7.037   6.269  0.2629 -0.6286 -0.0170
  102SAPE  H10R10349   3.846   7.077   6.175 -1.5485 -0.7760 -0.9602
  102SAPE  H10S10350   3.724   7.112   6.294 -0.1840 -0.7930 -0.8908
  102SAPE  C21110351   3.736   6.908   6.243 -0.1397  0.8546 -0.2314
  102SAPE  H11R10352   3.680   6.860   6.324  0.1493  0.2540 -0.3844
  102SAPE  C21210353   3.746   6.843   6.125 -0.1623 -0.2247 -0.2919
  102SAPE  H12R10354   3.690   6.751   6.102  4.1608 -2.7425 -2.1041
  102SAPE  C21310355   3.828   6.894   6.003 -0.3189  0.1737 -0.6716
  102SAPE  H13R10356   3.922   6.935   6.046 -0.0992 -1.8481  0.8730
  102SAPE  H13S10357   3.771   6.982   5.965 -0.2178  1.4148  1.8781
  102SAPE  C21410358   3.847   6.797   5.884  0.3464 -0.3498  0.3420
  102SAPE  H14R10359   3.829   6.693   5.914  0.1509 -0.1833  0.8163
  102SAPE  C21510360   3.878   6.826   5.759  1.0878 -0.1101  0.7814
  102SAPE  H15R10361   3.861   6.750   5.682 -1.2654 -1.5507  2.5992
  102SAPE  C21610362   3.910   6.960   5.708 -0.3551 -0.7266  0.0266
  102SAPE  H16R10363   3.906   7.045   5.779 -0.4002 -0.4376 -0.3144
  102SAPE  H16S10364   3.842   6.992   5.626 -1.2516  1.6402  1.5849
  102SAPE  C21710365   4.050   6.980   5.653  0.3979 -0.8382  0.0521
  102SAPE  H17R10366   4.069   6.912   5.567 -1.3491 -1.6082  0.2293
  102SAPE  H17S10367   4.127   6.958   5.730  0.0251  0.6506  0.8799
  102SAPE  C21810368   4.071   7.131   5.618  0.2246  0.5148  0.0027
  102SAPE  H18R10369   4.029   7.194   5.700  1.1529 -2.3235  2.8544
  102SAPE  H18S10370   4.005   7.145   5.530  0.5653  3.2586  0.0892
  102SAPE  C21910371   4.214   7.171   5.593  0.0532  0.1489 -0.3610
  102SAPE  H19R10372   4.202   7.266   5.536  1.2019  0.6288  0.1667
  102SAPE  H19S10373   4.270   7.100   5.528  1.4707 -0.5395  1.5345
  102SAPE  C22010374   4.295   7.207   5.724  0.6503 -0.0806  0.0777
  102SAPE  H20R10375   4.395   7.242   5.692  0.6262 -3.0485 -4.0386
  102SAPE  H20S10376   4.324   7.130   5.799  0.2273  0.4715  0.8304
  102SAPE  H20T10377   4.259   7.289   5.789  2.4714  1.2954 -0.5781
  102SAPE   C3310378   3.858   6.529   6.990 -0.0975  0.0534 -0.7394
  102SAPE   H3X10379   3.936   6.455   6.965  1.4193  1.3183  0.1043
  102SAPE   H3Y10380   3.883   6.623   6.936  1.8573  1.6664  2.5995
  102SAPE   C3410381   3.723   6.467   6.965  1.1740 -0.2969 -0.4693
  102SAPE   H4X10382   3.692   6.500   6.864  0.2196 -0.2569 -0.1762
  102SAPE   H4Y10383   3.649   6.513   7.035  0.3647 -0.0473 -1.4655
  102SAPE   C3510384   3.732   6.320   6.957  0.4716 -0.4558 -0.4381
  102SAPE   H5X10385   3.736   6.280   7.061 -2.6219  2.2993  0.9243
  102SAPE   H5Y10386   3.822   6.279   6.906 -0.6291 -1.4347 -1.6801
  102SAPE   C3610387   3.605   6.252   6.895 -0.5882  0.3756 -0.5275
  102SAPE   H6X10388   3.584   6.287   6.792 -1.4870  0.7587 -0.2254
  102SAPE   H6Y10389   3.516   6.288   6.951  0.6854  0.6953  1.3694
  102SAPE   C3710390   3.608   6.096   6.897  0.1079 -0.0476  0.1780
  102SAPE   H7X10391   3.514   6.039   6.879  0.1335 -0.0251 -0.0348
  102SAPE   H7Y10392   3.640   6.055   6.995  1.4953  0.7604  0.0945
  102SAPE   C3810393   3.702   6.025   6.791 -0.5596 -0.2106 -0.5593
  102SAPE   H8X10394   3.707   5.919   6.822 -2.9358 -0.5309 -1.1274
  102SAPE   H8Y10395   3.808   6.058   6.796 -0.1818 -1.2220 -1.4237
  102SAPE   C3910396   3.650   6.012   6.647  0.0405 -0.3935 -0.2041
  102SAPE   H9X10397   3.632   6.105   6.589 -2.5190 -0.0279  1.0642
  102SAPE   H9Y10398   3.562   5.945   6.649 -0.4156  0.2248  1.6800
  102SAPE  C31010399   3.757   5.932   6.570 -0.0118 -0.4545  0.0268
  102SAPE  H10X10400   3.782   5.840   6.627 -1.4923  0.1409  1.7003
  102SAPE  H10Y10401   3.840   6.006   6.574  0.6122 -1.1689  0.7642
  102SAPE  C31110402   3.733   5.901   6.426  0.0173 -0.3561 -0.3920
  102SAPE  H11X10403   3.695   5.996   6.382  0.9342  0.7871  1.2129
  102SAPE  H11Y10404   3.654   5.824   6.412  0.0228 -1.0466  2.7430
  102SAPE  C31210405   3.864   5.874   6.351 -0.4940  0.5459  0.5239
  102SAPE  H12X10406   3.927   5.802   6.407  1.9326  1.3668 -0.9906
  102SAPE  H12Y10407   3.915   5.972   6.341 -3.1367  2.0773  0.9533
  102SAPE  C31310408   3.845   5.817   6.205  0.0279  0.0324  0.3156
  102SAPE  H13X10409   3.796   5.899   6.148 -1.1239 -0.1716  0.9861
  102SAPE  H13Y10410   3.766   5.740   6.189 -1.5012  1.3554  1.2278
  102SAPE  C31410411   3.977   5.781   6.143 -0.5286 -0.7546  0.0358
  102SAPE  H14X10412   4.016   5.682   6.174 -3.1579 -1.7678  0.3978
  102SAPE  H14Y10413   4.049   5.854   6.184 -1.5167 -0.0799  0.6181
  102SAPE  C31510414   3.971   5.792   5.992  0.1621  0.1589  0.3150
  102SAPE  H15X10415   3.936   5.890   5.953 -1.5980  0.0041  1.3908
  102SAPE  H15Y10416   3.901   5.711   5.961 -0.5920  0.4615  1.1907
  102SAPE  C31610417   4.107   5.775   5.913 -0.1115  0.4592  0.9056
  102SAPE  H16X10418   4.165   5.690   5.955 -0.3188 -1.8241 -2.9204
  102SAPE  H16Y10419   4.164   5.865   5.944 -0.9308  1.1650  0.4394
  102SAPE  C31710420   4.093   5.767   5.761  0.8185  0.1573  0.1558
  102SAPE  H17X10421   4.049   5.667   5.739  1.5191 -0.3585  1.0451
  102SAPE  H17Y10422   4.197   5.769   5.721  0.9546 -0.4275  0.4687
  102SAPE  C31810423   3.998   5.868   5.694 -0.6361  0.4122  0.1349
  102SAPE  H18X10424   4.036   5.971   5.713  1.9699 -0.7688  1.7986
  102SAPE  H18Y10425   3.895   5.863   5.735 -1.0975 -0.0732 -1.0327
  102SAPE  H18Z10426   4.004   5.857   5.583 -0.2456  0.2925  0.1665
  103SAPE     N10427   3.357   5.526   3.916 -0.2372  0.0675  0.6412
  103SAPE   HN110428   3.418   5.556   3.837  1.4231  0.0890  1.8664
  103SAPE   HN210429   3.268   5.579   3.915 -1.1785 -1.4418 -1.3887
  103SAPE   HN310430   3.409   5.546   4.005 -0.5312 -1.1014  1.0884
  103SAPE   C1210431   3.345   5.374   3.891  0.5105  0.2610 -0.5462
  103SAPE  H12A10432   3.307   5.355   3.788  2.4569 -2.3095 -0.8913
  103SAPE  H12B10433   3.269   5.341   3.965  0.0661 -0.0193 -1.1159
  103SAPE   C1110434   3.486   5.311   3.907  0.3281 -0.0660 -0.2134
  103SAPE  H11A10435   3.464   5.204   3.925  0.6321 -0.3776 -1.5859
  103SAPE  H11B10436   3.538   5.348   3.998 -0.4045  0.7283 -0.1066
  103SAPE     P10437   3.646   5.448   3.741  0.4716  0.2187  0.1598
  103SAPE   O1310438   3.734   5.412   3.627  0.1057 -0.5870  0.2031
  103SAPE   O1410439   3.549   5.565   3.728 -0.4200 -0.5068  0.1674
  103SAPE   O1210440   3.559   5.330   3.784  0.0105 -0.3888  0.4143
  103SAPE   O1110441   3.738   5.463   3.870  0.2634  0.0826  0.3067
  103SAPE    C110442   3.877   5.448   3.856  0.6842  0.1985  0.1367
  103SAPE    HA10443   3.898   5.347   3.815  1.6022  0.7301 -0.7630
  103SAPE    HB10444   3.917   5.521   3.782 -0.1878  2.6855  1.9794
  103SAPE    C210445   3.939   5.457   3.995 -0.1070  0.5337 -0.0583
  103SAPE    HS10446   4.040   5.411   3.994 -0.4414 -0.2589  0.9615
  103SAPE   O2110447   3.855   5.396   4.097 -0.1589  0.4787  0.0489
  103SAPE   C2110448   3.843   5.263   4.095 -1.3044  0.7045  0.2226
  103SAPE   O2210449   3.911   5.190   4.018 -0.8373  0.3611 -0.0494
  103SAPE   C2210450   3.752   5.210   4.209 -0.2992 -0.1578 -0.2613
  103SAPE   H2R10451   3.652   5.185   4.166 -0.6850  1.2722 -0.2507
  103SAPE   H2S10452   3.788   5.109   4.239 -1.2007 -0.0216  1.4322
  103SAPE    C310453   3.956   5.607   4.042  0.2782 -0.0344  0.8877
  103SAPE    HX10454   3.859   5.661   4.045 -2.2123 -3.9707 -0.4842
  103SAPE    HY10455   4.010   5.650   3.955 -0.7537 -1.6679 -0.6343
  103SAPE   O3110456   4.022   5.628   4.166  0.1716 -0.0095 -0.9435
  103SAPE   C3110457   3.950   5.647   4.274  0.7115 -0.0390 -0.6019
  103SAPE   O3210458   3.826   5.635   4.280  0.0707  0.6824 -0.5718
  103SAPE   C3210459   4.037   5.675   4.391  0.0903 -0.0293  0.2866
  103SAPE   H2X10460   4.074   5.777   4.369  0.1117 -0.2079 -0.5162
  103SAPE   H2Y10461   4.122   5.604   4.386  0.6342  0.6223  0.2590
  103SAPE   C2310462   3.731   5.299   4.336 -0.6660  0.4656  0.1891
  103SAPE   H3R10463   3.682   5.395   4.305  1.0781  1.8255  1.4763
  103SAPE   H3S10464   3.837   5.317   4.360 -0.4296  0.3891 -0.7446
  103SAPE   C2410465   3.648   5.231   4.448  0.5508  0.3817  0.4402
  103SAPE   H4R10466   3.694   5.133   4.475  0.0889 -0.6260 -2.1651
  103SAPE   H4S10467   3.542   5.216   4.421  0.8411 -1.1186  0.0035
  103SAPE   C2510468   3.652   5.334   4.562  0.1046  0.0260 -0.2150
  103SAPE   H5R10469   3.631   5.432   4.516  1.8578 -0.9907 -3.5154
  103SAPE   C2610470   3.680   5.320   4.694 -0.2931  0.1224 -0.4375
  103SAPE   H6R10471   3.665   5.408   4.758 -1.1949 -0.8113  0.6833
  103SAPE   C2710472   3.705   5.193   4.769 -0.1494 -0.0286  0.0288
  103SAPE   H7R10473   3.749   5.109   4.711 -2.0434 -2.1979  1.5720
  103SAPE   H7S10474   3.606   5.162   4.808  0.0448 -0.1811  0.3971
  103SAPE   C2810475   3.790   5.214   4.886 -0.2716  0.0197 -0.8067
  103SAPE   H8R10476   3.897   5.228   4.863  0.0277  0.1422  0.5704
  103SAPE   C2910477   3.750   5.211   5.016  0.4685  0.0816 -1.0898
  103SAPE   H9R10478   3.821   5.245   5.092 -0.8115  2.1279 -0.7396
  103SAPE  C21010479   3.611   5.193   5.072 -0.0166 -0.9229 -0.2142
  103SAPE  H10R10480   3.616   5.120   5.156  1.9785  0.1748  0.7111
  103SAPE  H10S10481   3.537   5.155   4.999 -0.5494 -0.6515  0.1760
  103SAPE  C21110482   3.576   5.339   5.114 -0.3616  0.8112 -0.1929
  103SAPE  H11R10483   3.568   5.421   5.041 -3.0049  0.8847  0.0917
  103SAPE  C21210484   3.570   5.379   5.241 -0.1551 -0.0931 -0.3965
  103SAPE  H12R10485   3.542   5.482   5.266 -0.7090 -0.4030  0.3148
  103SAPE  C21310486   3.578   5.292   5.365  0.1201 -0.0791  0.0109
  103SAPE  H13R10487   3.615   5.350   5.451  1.0505  0.0835 -0.4842
  103SAPE  H13S10488   3.661   5.222   5.341 -1.5576 -2.7797  1.4960
  103SAPE  C21410489   3.456   5.205   5.381  0.1858  0.2051 -1.2998
  103SAPE  H14R10490   3.396   5.191   5.290 -2.5687 -0.4810  0.5210
  103SAPE  C21510491   3.412   5.140   5.494 -0.3573 -0.4810 -0.6176
  103SAPE  H15R10492   3.325   5.073   5.490  0.6440 -1.7625 -3.5321
  103SAPE  C21610493   3.476   5.141   5.631 -0.5965  0.4870 -0.4010
  103SAPE  H16R10494   3.580   5.179   5.633  1.3167 -3.9712 -1.7491
  103SAPE  H16S10495   3.489   5.035   5.664 -2.1607  0.7607  1.2794
  103SAPE  C21710496   3.381   5.198   5.741 -0.1738 -0.0129  0.0790
  103SAPE  H17R10497   3.360   5.297   5.694  1.5567 -0.4605 -1.8188
  103SAPE  H17S10498   3.443   5.205   5.833 -0.2946 -0.4814  0.1988
  103SAPE  C21810499   3.254   5.116   5.760  0.5177  0.3476  0.8006
  103SAPE  H18R10500   3.276   5.019   5.810  2.1852  0.0017 -0.5175
  103SAPE  H18S10501   3.214   5.085   5.661  1.9150  0.4427  0.1838
  103SAPE  C21910502   3.137   5.200   5.829 -0.7022  0.0581  0.5178
  103SAPE  H19R10503   3.118   5.304   5.797 -0.9810  0.5214  2.1081
  103SAPE  H19S10504   3.162   5.211   5.936 -0.1835  0.7265  0.3323
  103SAPE  C22010505   3.009   5.114   5.834  1.6452  0.1150  0.2869
  103SAPE  H20R10506   2.932   5.189   5.861  0.4711 -0.6045 -0.9468
  103SAPE  H20S10507   3.025   5.043   5.918 -0.6570 -0.7632  0.0530
  103SAPE  H20T10508   2.994   5.056   5.740  0.9909  0.9353 -0.1263
  103SAPE   C3310509   3.973   5.655   4.536  0.2941  0.2731  0.9524
  103SAPE   H3X10510   3.925   5.556   4.553 -0.0402  0.3281  0.3573
  103SAPE   H3Y10511   3.881   5.715   4.525 -0.1018 -0.5562 -0.5135
  103SAPE   C3410512   4.063   5.672   4.659  0.5098 -0.1871  0.6104
  103SAPE   H4X10513   4.093   5.778   4.646  0.9223 -0.4626 -0.9041
  103SAPE   H4Y10514   4.153   5.608   4.647 -0.9492 -1.7622 -4.2878
  103SAPE   C3510515   3.981   5.638   4.784 -0.1928 -0.1086  0.3850
  103SAPE   H5X10516   3.937   5.538   4.769 -0.6291  0.4239 -2.6040
  103SAPE   H5Y10517   3.907   5.719   4.800  1.4484  1.6240 -0.3481
  103SAPE   C3610518   4.069   5.628   4.911 -0.9530  0.8502  0.5515
  103SAPE   H6X10519   4.128   5.721   4.925 -0.4508  0.6930 -0.4378
  103SAPE   H6Y10520   4.145   5.550   4.890  0.4400  2.5283 -0.8907
  103SAPE   C3710521   3.985   5.577   5.028  0.7155  0.4089  0.6092
  103SAPE   H7X10522   3.927   5.488   4.994  2.2927  0.0415 -1.3409
  103SAPE   H7Y10523   3.908   5.648   5.064  0.1647  0.2333 -0.1684
  103SAPE   C3810524   4.066   5.540   5.147  0.0440 -0.3429  0.8068
  103SAPE   H8X10525   4.132   5.621   5.184 -1.7450  1.1649  0.8264
  103SAPE   H8Y10526   4.119   5.444   5.128 -3.2229 -2.3431  1.0026
  103SAPE   C3910527   3.976   5.495   5.261  1.2926 -0.3827  0.4758
  103SAPE   H9X10528   3.904   5.428   5.210  2.2235  0.0838 -1.5603
  103SAPE   H9Y10529   3.918   5.580   5.304 -0.8406 -1.0045 -1.0287
  103SAPE  C31010530   4.055   5.418   5.361 -0.0799  0.4700 -0.6069
  103SAPE  H10X10531   4.120   5.339   5.318  0.0182  2.1170 -3.8204
  103SAPE  H10Y10532   3.985   5.371   5.433 -1.8810  1.4487 -1.6259
  103SAPE  C31110533   4.144   5.509   5.445  0.4650 -0.1477 -0.0344
  103SAPE  H11X10534   4.085   5.599   5.473  0.9592 -0.3291  1.7293
  103SAPE  H11Y10535   4.228   5.547   5.383  0.9481 -0.0090  0.6931
  103SAPE  C31210536   4.192   5.439   5.573  0.5071  0.4505 -0.4200
  103SAPE  H12X10537   4.106   5.416   5.639  1.0437 -0.0993  0.1023
  103SAPE  H12Y10538   4.246   5.518   5.628 -1.0509  1.8597 -0.8050
  103SAPE  C31310539   4.277   5.316   5.537 -0.4261 -0.1273 -0.2245
  103SAPE  H13X10540   4.356   5.343   5.464  0.2604 -0.6764  0.2879
  103SAPE  H13Y10541   4.204   5.241   5.500 -0.9889 -0.0209  0.6288
  103SAPE  C31410542   4.360   5.254   5.651 -0.0235 -0.2589 -0.3976
  103SAPE  H14X10543   4.298   5.183   5.710  0.4510 -0.4659 -0.1490
  103SAPE  H14Y10544   4.397   5.338   5.713 -1.6078  1.3135 -1.4843
  103SAPE  C31510545   4.475   5.175   5.597 -0.5807  0.0217  0.5301
  103SAPE  H15X10546   4.536   5.239   5.530 -0.7022 -0.8503 -0.4418
  103SAPE  H15Y10547   4.436   5.094   5.532 -0.8822 -0.2861  1.0863
  103SAPE  C31610548   4.571   5.116   5.705 -0.4932  0.8316 -0.4676
  103SAPE  H16X10549   4.513   5.062   5.782 -0.1725  1.1519  0.0085
  103SAPE  H16Y10550   4.613   5.208   5.752 -0.7210  0.6409  0.1202
  103SAPE  C31710551   4.676   5.019   5.659 -0.0312  0.1083  0.4067
  103SAPE  H17X10552   4.631   4.941   5.594  2.0697 -2.7127  2.0518
  103SAPE  H17Y10553   4.708   4.964   5.751 -0.3386  3.7582  2.8792
  103SAPE  C31810554   4.800   5.066   5.583 -0.3440 -0.0265  0.1330
  103SAPE  H18X10555   4.856   5.128   5.656  0.4943 -2.8304  2.0243
  103SAPE  H18Y10556   4.776   5.125   5.492  2.8454 -0.0640 -0.8483
  103SAPE  H18Z10557   4.879   4.992   5.556  0.6605  1.0457  0.0538
  104SAPE     N10558   4.293   4.341   2.896 -0.8064  0.1619  0.5516
  104SAPE   HN110559   4.310   4.314   2.797  0.1482 -0.2484  0.8179
  104SAPE   HN210560   4.260   4.438   2.878  0.8611  0.3039 -2.3175
  104SAPE   HN310561   4.379   4.352   2.954  0.1506 -0.0399 -0.7959
  104SAPE   C1210562   4.202   4.257   2.972 -0.3359 -0.0407  0.4305
  104SAPE  H12A10563   4.234   4.152   2.951  0.7378 -0.0349  1.8590
  104SAPE  H12B10564   4.098   4.267   2.934  0.9024  0.5229 -3.2829
  104SAPE   C1110565   4.220   4.284   3.122 -0.3209 -0.1604 -0.2551
  104SAPE  H11A10566   4.156   4.226   3.191 -0.0724  0.1961  0.2832
  104SAPE  H11B10567   4.177   4.380   3.157 -1.3866 -1.0709  1.0123
  104SAPE     P10568   4.433   4.131   3.190  0.0943 -0.0469  0.0267
  104SAPE   O1310569   4.356   4.015   3.134  0.3076  0.1156  0.1898
  104SAPE   O1410570   4.571   4.147   3.139  0.1638 -0.1651  0.2112
  104SAPE   O1210571   4.354   4.268   3.161  0.4405  0.0098 -0.2463
  104SAPE   O1110572   4.439   4.113   3.347 -0.5493 -0.0251  0.7026
  104SAPE    C110573   4.335   4.166   3.436  0.0141  0.5222  0.4985
  104SAPE    HA10574   4.385   4.223   3.517 -0.0326  0.1649  0.7791
  104SAPE    HB10575   4.269   4.238   3.383  1.7975  1.1766 -0.9494
  104SAPE    C210576   4.268   4.049   3.513 -0.9148  0.5218 -0.6619
  104SAPE    HS10577   4.193   3.994   3.452  0.3416 -2.1391  0.0132
  104SAPE   O2110578   4.225   4.088   3.645  0.6043 -0.1149 -0.0630
  104SAPE   C2110579   4.110   4.035   3.681 -0.2876 -0.4713 -0.1526
  104SAPE   O2210580   4.049   3.946   3.626  0.8460  0.3576  0.8511
  104SAPE   C2210581   4.063   4.104   3.812  0.0894  0.4468 -0.7025
  104SAPE   H2R10582   4.148   4.161   3.854  0.4356 -0.5629  0.0087
  104SAPE   H2S10583   3.987   4.178   3.779 -1.7312 -0.4863  1.1503
  104SAPE    C310584   4.382   3.932   3.528 -0.1200 -0.4613 -0.8278
  104SAPE    HX10585   4.481   3.981   3.542 -0.1286 -1.1813  2.5515
  104SAPE    HY10586   4.398   3.877   3.433  1.5730  4.7175 -3.9871
  104SAPE   O3110587   4.348   3.843   3.636  0.0719  0.2523  0.1329
  104SAPE   C3110588   4.430   3.742   3.652 -0.2632 -0.1860  0.0520
  104SAPE   O3210589   4.503   3.697   3.564 -0.7110 -0.3001  0.7024
  104SAPE   C3210590   4.419   3.692   3.794 -0.5751  0.2314  0.1552
  104SAPE   H2X10591   4.324   3.637   3.813  0.6836 -1.2779  2.7365
  104SAPE   H2Y10592   4.419   3.784   3.858  1.3629 -0.1938  0.8180
  104SAPE   C2310593   3.988   4.010   3.900  0.6627 -0.1553  0.0482
  104SAPE   H3R10594   3.906   3.955   3.849  1.2771  0.7109 -1.9795
  104SAPE   H3S10595   3.938   4.072   3.978  0.6039  1.6472 -1.3454
  104SAPE   C2410596   4.097   3.924   3.966 -0.0783 -0.0795 -1.1383
  104SAPE   H4R10597   4.160   3.894   3.879  1.3256  0.0557 -0.1986
  104SAPE   H4S10598   4.041   3.837   4.006  1.5542  0.6515  3.2642
  104SAPE   C2510599   4.179   3.996   4.074 -0.5396 -0.5208  0.2887
  104SAPE   H5R10600   4.241   4.084   4.050  0.4335 -1.3027 -0.1572
  104SAPE   C2610601   4.189   3.952   4.198 -0.1235 -0.3390  0.6599
  104SAPE   H6R10602   4.258   4.008   4.263  1.8204 -1.5076 -0.3323
  104SAPE   C2710603   4.119   3.839   4.274  0.1255  0.0878  0.2285
  104SAPE   H7R10604   4.201   3.765   4.289  0.8446  0.4743 -1.5643
  104SAPE   H7S10605   4.032   3.795   4.221 -0.1099 -0.1801  0.8248
  104SAPE   C2810606   4.077   3.901   4.406 -0.0279  0.8293 -0.0113
  104SAPE   H8R10607   4.112   4.001   4.434  0.0048  1.0220 -0.7192
  104SAPE   C2910608   4.011   3.836   4.501 -0.1580 -0.2395 -0.1623
  104SAPE   H9R10609   3.989   3.888   4.596  0.7067 -0.2581  0.0558
  104SAPE  C21010610   3.951   3.699   4.496 -0.4396 -0.5654 -0.1042
  104SAPE  H10R10611   3.895   3.690   4.401 -1.8852 -0.0692  0.6680
  104SAPE  H10S10612   3.870   3.688   4.572 -2.2344  2.2583 -1.3998
  104SAPE  C21110613   4.060   3.589   4.504 -0.1907  0.2270  0.2203
  104SAPE  H11R10614   4.154   3.603   4.449 -0.2322 -1.7340 -0.4356
  104SAPE  C21210615   4.044   3.472   4.568 -0.1882 -0.4183 -0.3384
  104SAPE  H12R10616   4.122   3.394   4.571 -1.3047 -1.5548  0.0035
  104SAPE  C21310617   3.925   3.440   4.657 -0.3405 -0.4781  0.2226
  104SAPE  H13R10618   3.837   3.490   4.612 -1.7639 -2.3947  0.7856
  104SAPE  H13S10619   3.948   3.496   4.750 -1.6030 -0.9080  0.8158
  104SAPE  C21410620   3.910   3.291   4.685 -0.9010 -0.3617 -0.5539
  104SAPE  H14R10621   3.921   3.219   4.603 -0.2537 -0.7136 -0.1620
  104SAPE  C21510622   3.883   3.243   4.806  0.5457 -0.2938  0.6967
  104SAPE  H15R10623   3.850   3.139   4.819 -0.6778  0.2076  1.8432
  104SAPE  C21610624   3.881   3.328   4.928  0.1740  0.5291  0.0361
  104SAPE  H16R10625   3.782   3.377   4.943 -0.0335 -0.3908  2.0321
  104SAPE  H16S10626   3.961   3.405   4.931  0.7650 -0.0955  2.0222
  104SAPE  C21710627   3.900   3.244   5.057 -0.6019 -0.0260 -0.3315
  104SAPE  H17R10628   4.002   3.201   5.057  1.0330  3.4136  2.4643
  104SAPE  H17S10629   3.825   3.162   5.066  0.1116 -0.5111  1.8276
  104SAPE  C21810630   3.896   3.334   5.188  0.1118  0.4007  0.5283
  104SAPE  H18R10631   3.804   3.395   5.177 -1.3338 -1.4679  1.6694
  104SAPE  H18S10632   3.989   3.395   5.182  1.2603 -1.2522  0.8548
  104SAPE  C21910633   3.897   3.244   5.315  0.1743  0.4890 -0.1949
  104SAPE  H19R10634   3.992   3.187   5.314 -0.2479 -0.2346  0.2652
  104SAPE  H19S10635   3.820   3.165   5.303  1.2728 -0.5499 -0.6460
  104SAPE  C22010636   3.871   3.324   5.441  0.3666 -0.1893  0.0983
  104SAPE  H20R10637   3.778   3.382   5.423  1.8644  2.2304 -0.2912
  104SAPE  H20S10638   3.950   3.401   5.449 -0.6732  0.8297  0.8244
  104SAPE  H20T10639   3.857   3.264   5.534 -2.2493  2.4832  1.5910
  104SAPE   C3310640   4.545   3.603   3.824  0.4461 -0.1143  0.4876
  104SAPE   H3X10641   4.629   3.676   3.830  1.5378 -1.2687 -0.1853
  104SAPE   H3Y10642   4.563   3.532   3.740 -0.6959  1.4365 -1.1342
  104SAPE   C3410643   4.521   3.542   3.968  0.1299  0.0039  0.5019
  104SAPE   H4X10644   4.604   3.469   3.976  0.0337 -0.0991  0.5575
  104SAPE   H4Y10645   4.425   3.488   3.969 -0.1039  0.2561 -2.1196
  104SAPE   C3510646   4.527   3.635   4.083  0.2505 -0.8252 -0.2384
  104SAPE   H5X10647   4.439   3.702   4.080  0.0660 -0.9536  1.4028
  104SAPE   H5Y10648   4.612   3.706   4.078 -1.7857  1.6829 -2.1597
  104SAPE   C3610649   4.521   3.555   4.217  0.2341 -0.5927  0.4019
  104SAPE   H6X10650   4.602   3.479   4.222 -0.0329 -1.0189 -1.1118
  104SAPE   H6Y10651   4.428   3.497   4.200 -0.3913  0.2783  0.8249
  104SAPE   C3710652   4.502   3.648   4.337  0.3472  0.6234  0.1515
  104SAPE   H7X10653   4.411   3.711   4.328 -0.8317 -1.1648 -1.2260
  104SAPE   H7Y10654   4.581   3.726   4.342  0.2594  0.7352 -0.1838
  104SAPE   C3810655   4.483   3.563   4.463 -0.2967  0.2646 -0.1920
  104SAPE   H8X10656   4.551   3.475   4.458 -1.1926 -0.4050 -3.1578
  104SAPE   H8Y10657   4.383   3.515   4.470  1.2447 -3.2428 -0.3107
  104SAPE   C3910658   4.500   3.635   4.595 -0.5095 -0.3917 -1.4510
  104SAPE   H9X10659   4.601   3.682   4.601 -0.8419  0.1642  1.4855
  104SAPE   H9Y10660   4.494   3.561   4.677 -0.5661 -0.0504 -1.1424
  104SAPE  C31010661   4.400   3.747   4.622  0.6029  0.4251 -0.0239
  104SAPE  H10X10662   4.301   3.699   4.638 -0.2970  1.9780 -0.6750
  104SAPE  H10Y10663   4.387   3.823   4.542 -0.0964  0.2390 -0.0956
  104SAPE  C31110664   4.432   3.821   4.751 -0.2958 -0.2487  0.4401
  104SAPE  H11X10665   4.348   3.892   4.766 -1.1796 -0.3253 -3.3283
  104SAPE  H11Y10666   4.523   3.884   4.740  0.5623 -1.7407 -1.6075
  104SAPE  C31210667   4.452   3.740   4.877  0.0731 -0.9732 -0.5927
  104SAPE  H12X10668   4.480   3.808   4.960  3.2042 -1.3342 -1.2443
  104SAPE  H12Y10669   4.538   3.671   4.869  1.7462  1.0401 -0.6936
  104SAPE  C31310670   4.324   3.652   4.910  0.3522 -0.1395 -0.0112
  104SAPE  H13X10671   4.295   3.588   4.824  1.2684 -1.9252  0.9393
  104SAPE  H13Y10672   4.241   3.709   4.956  1.4176  1.5391 -0.0658
  104SAPE  C31410673   4.352   3.546   5.017  0.1561 -0.5154  0.2148
  104SAPE  H14X10674   4.373   3.592   5.116  1.7859 -2.1295  0.6576
  104SAPE  H14Y10675   4.429   3.478   4.976 -0.3888 -0.5034 -0.8752
  104SAPE  C31510676   4.237   3.447   5.041  0.2251 -0.0334 -0.4957
  104SAPE  H15X10677   4.208   3.395   4.948  1.5446  1.1980 -1.6464
  104SAPE  H15Y10678   4.141   3.493   5.072  1.2931  2.0948 -0.1798
  104SAPE  C31610679   4.278   3.351   5.160 -0.0436 -0.1402  0.9421
  104SAPE  H16X10680   4.387   3.329   5.154  0.0855  0.9507 -2.7104
  104SAPE  H16Y10681   4.221   3.257   5.142 -0.4078  0.4891 -1.4868
  104SAPE  C31710682   4.263   3.407   5.301  0.5726  0.4597  0.2946
  104SAPE  H17X10683   4.155   3.432   5.305 -0.0589 -1.4230 -2.1920
  104SAPE  H17Y10684   4.308   3.506   5.323 -0.4137  0.8180  0.7545
  104SAPE  C31810685   4.290   3.299   5.416 -0.3973  0.0589 -0.1569
  104SAPE  H18X10686   4.253   3.343   5.511  1.4609  2.2493 -0.3468
  104SAPE  H18Y10687   4.401   3.299   5.422 -0.3839 -1.7210 -0.0280
  104SAPE  H18Z10688   4.250   3.197   5.402 -0.4132  0.2749 -1.8920
  105SAPE     N10689   7.060   2.201   3.671 -0.9120 -0.1293  0.8529
  105SAPE   HN110690   7.027   2.108   3.638 -1.1875  0.4559 -0.5986
  105SAPE   HN210691   7.162   2.202   3.690 -0.6924  0.5537 -0.2948
  105SAPE   HN310692   7.012   2.220   3.762 -0.9388 -0.2642  0.8683
  105SAPE   C1210693   7.023   2.308   3.564 -0.5874  0.1851  0.8440
  105SAPE  H12A10694   7.119   2.358   3.539  1.0896 -2.0402  2.3850
  105SAPE  H12B10695   6.936   2.373   3.586  0.1330  1.6983 -0.5932
  105SAPE   C1110696   6.989   2.230   3.435  0.4423  0.9782  0.7915
  105SAPE  H11A10697   6.978   2.298   3.348 -1.4136 -0.9798 -0.6003
  105SAPE  H11B10698   6.888   2.184   3.440  0.5964  0.6278  0.7312
  105SAPE     P10699   7.073   1.986   3.405 -0.0117  0.0798 -0.4342
  105SAPE   O1310700   6.983   1.940   3.301 -0.4913  0.1523 -0.3677
  105SAPE   O1410701   7.199   1.914   3.412 -0.5263  0.1946 -0.8475
  105SAPE   O1210702   7.096   2.143   3.396 -0.1022 -0.6085  0.6175
  105SAPE   O1110703   7.007   1.976   3.546 -0.6277  0.3766  0.1819
  105SAPE    C110704   6.891   1.895   3.573 -0.1049  0.0181  0.3713
  105SAPE    HA10705   6.798   1.948   3.543 -1.1495 -2.2900 -0.7620
  105SAPE    HB10706   6.891   1.808   3.504  3.5157  1.6218 -1.9423
  105SAPE    C210707   6.880   1.852   3.717  0.2613 -0.6113  0.2733
  105SAPE    HS10708   6.867   1.942   3.781 -0.3822 -0.4799 -0.0337
  105SAPE   O2110709   7.002   1.783   3.750  0.6863  0.3223 -0.2941
  105SAPE   C2110710   7.103   1.853   3.789 -0.3773  0.4854 -0.1456
  105SAPE   O2210711   7.102   1.970   3.815 -0.4821  0.1947 -0.3536
  105SAPE   C2210712   7.224   1.761   3.793 -0.2598 -0.3071  0.7544
  105SAPE   H2R10713   7.204   1.656   3.820 -0.6514 -0.2603  0.6447
  105SAPE   H2S10714   7.268   1.757   3.691 -1.8364  0.3842  0.0265
  105SAPE    C310715   6.744   1.771   3.737 -0.3259  0.0576  0.8151
  105SAPE    HX10716   6.757   1.679   3.676 -0.7256 -1.2862  2.6525
  105SAPE    HY10717   6.657   1.819   3.687 -0.8044 -2.3511 -0.8694
  105SAPE   O3110718   6.722   1.735   3.876 -0.4039  0.2443  0.2277
  105SAPE   C3110719   6.667   1.821   3.958  0.2108 -0.6382 -0.3404
  105SAPE   O3210720   6.605   1.919   3.925  0.0742 -0.0862 -0.2392
  105SAPE   C3210721   6.703   1.786   4.097  0.0586  0.5493  0.1702
  105SAPE   H2X10722   6.807   1.824   4.112 -0.0464  0.0628  2.5270
  105SAPE   H2Y10723   6.703   1.675   4.098  1.2900  0.4508 -2.2132
  105SAPE   C2310724   7.339   1.816   3.889  0.3511 -0.5150  0.1235
  105SAPE   H3R10725   7.345   1.920   3.851 -3.9768  0.0159  0.4064
  105SAPE   H3S10726   7.435   1.764   3.870  0.0801 -0.2673 -2.2626
  105SAPE   C2410727   7.316   1.794   4.038 -0.2155 -0.8790 -0.7914
  105SAPE   H4R10728   7.222   1.837   4.077  0.3909 -0.8335  0.6686
  105SAPE   H4S10729   7.396   1.858   4.080 -0.4206 -0.3845 -1.1486
  105SAPE   C2510730   7.324   1.653   4.087 -0.0621  0.2887  0.2586
  105SAPE   H5R10731   7.411   1.598   4.048 -1.0893 -0.1794 -1.4497
  105SAPE   C2610732   7.235   1.584   4.168 -0.4720  0.1663 -0.0380
  105SAPE   H6R10733   7.279   1.496   4.217 -0.7390  0.0509 -0.0078
  105SAPE   C2710734   7.107   1.643   4.220 -0.8880  0.7911  0.3260
  105SAPE   H7R10735   7.060   1.709   4.144 -3.1361 -0.6468  0.3629
  105SAPE   H7S10736   7.134   1.709   4.305 -1.8608  0.1023  1.2002
  105SAPE   C2810737   7.012   1.535   4.241 -0.0856 -0.4806  0.7446
  105SAPE   H8R10738   6.997   1.477   4.149  2.3906  0.3883 -0.2976
  105SAPE   C2910739   6.917   1.521   4.333  0.0933  0.3537 -0.1360
  105SAPE   H9R10740   6.847   1.436   4.342 -1.4784  1.7584  1.9932
  105SAPE  C21010741   6.906   1.589   4.467  0.2119 -0.4288  0.0945
  105SAPE  H10R10742   6.798   1.605   4.488  0.6359  0.0537  2.1921
  105SAPE  H10S10743   6.956   1.688   4.475 -0.1078 -0.0804 -1.7766
  105SAPE  C21110744   6.958   1.502   4.577 -0.0619  0.3489  0.5861
  105SAPE  H11R10745   7.012   1.411   4.544 -3.1705 -1.5140  0.2567
  105SAPE  C21210746   6.942   1.507   4.706 -0.7481  0.3903 -0.2031
  105SAPE  H12R10747   6.971   1.432   4.781  1.4722  2.9298  1.6857
  105SAPE  C21310748   6.859   1.624   4.764 -1.1236 -0.7726 -0.4593
  105SAPE  H13R10749   6.775   1.662   4.702 -1.3412 -1.9839 -0.9379
  105SAPE  H13S10750   6.929   1.709   4.772 -2.5207  0.4870 -1.0956
  105SAPE  C21410751   6.798   1.583   4.899 -0.5859  0.3637  0.7408
  105SAPE  H14R10752   6.697   1.541   4.896  0.2037 -1.5804  0.2135
  105SAPE  C21510753   6.827   1.629   5.023  0.2365  0.0544 -0.2655
  105SAPE  H15R10754   6.755   1.601   5.103  1.0720  0.8713  0.7969
  105SAPE  C21610755   6.943   1.712   5.052 -0.5410 -0.1772 -0.6024
  105SAPE  H16R10756   7.020   1.710   4.972 -1.8805  2.5305 -2.0705
  105SAPE  H16S10757   7.003   1.664   5.132 -0.1081  1.6704  0.2384
  105SAPE  C21710758   6.921   1.853   5.105 -0.7168  0.6615  0.8357
  105SAPE  H17R10759   6.879   1.915   5.023  0.7375 -2.5170 -2.6212
  105SAPE  H17S10760   7.019   1.902   5.125  1.0021 -1.4722 -1.6772
  105SAPE  C21810761   6.844   1.865   5.238  1.2373 -0.4047 -0.0527
  105SAPE  H18R10762   6.894   1.812   5.322 -1.3989 -1.8655  0.7095
  105SAPE  H18S10763   6.741   1.823   5.237  0.5934  0.9424  2.3540
  105SAPE  C21910764   6.837   2.013   5.280  0.6191 -0.4969  0.3565
  105SAPE  H19R10765   6.769   2.071   5.213 -0.3192 -0.3854  1.3685
  105SAPE  H19S10766   6.941   2.052   5.273  0.5360 -0.2714  0.3464
  105SAPE  C22010767   6.795   2.046   5.421  1.0085  0.5177  0.2189
  105SAPE  H20R10768   6.700   1.995   5.449  0.5161  1.2027 -0.1596
  105SAPE  H20S10769   6.769   2.150   5.453 -2.0991 -1.1289  3.8430
  105SAPE  H20T10770   6.880   2.004   5.479  1.9317 -1.6097 -2.4685
  105SAPE   C3310771   6.601   1.844   4.197 -0.3370 -0.6433  0.1904
  105SAPE   H3X10772   6.495   1.814   4.179 -1.3033  2.1332  0.6449
  105SAPE   H3Y10773   6.584   1.951   4.173  0.2655 -0.2557  1.3869
  105SAPE   C3410774   6.650   1.850   4.339 -0.3607  0.4596 -0.0589
  105SAPE   H4X10775   6.731   1.926   4.346 -0.3239  0.6045 -1.7035
  105SAPE   H4Y10776   6.697   1.754   4.372  1.8073  0.8215 -1.8951
  105SAPE   C3510777   6.531   1.880   4.443 -0.4736  0.5538  0.1311
  105SAPE   H5X10778   6.467   1.789   4.453 -0.1117  0.3372  0.5522
  105SAPE   H5Y10779   6.469   1.957   4.393 -1.3889 -0.2507  0.0051
  105SAPE   C3610780   6.567   1.926   4.579 -0.7527 -0.3104 -0.6130
  105SAPE   H6X10781   6.625   2.020   4.565 -2.6282  1.1307  0.7373
  105SAPE   H6Y10782   6.629   1.852   4.634 -0.5858  0.6694  0.5572
  105SAPE   C3710783   6.441   1.967   4.659  0.3356  0.3314 -0.0415
  105SAPE   H7X10784   6.389   1.874   4.693  1.1262 -0.0909  0.0242
  105SAPE   H7Y10785   6.365   2.025   4.601 -1.4179  0.1863  1.9963
  105SAPE   C3810786   6.462   2.046   4.793 -0.1517  0.3534  0.0150
  105SAPE   H8X10787   6.368   2.059   4.850  0.4783 -2.2873  1.8044
  105SAPE   H8Y10788   6.489   2.152   4.773 -1.0862  0.6011  0.0197
  105SAPE   C3910789   6.573   1.988   4.881  0.1664  0.1955  0.2730
  105SAPE   H9X10790   6.592   2.053   4.969 -2.7813  0.2304  0.9909
  105SAPE   H9Y10791   6.665   1.979   4.819 -0.3897 -0.7929 -0.4423
  105SAPE  C31010792   6.542   1.845   4.935 -0.1230 -0.5787 -0.3031
  105SAPE  H10X10793   6.634   1.817   4.990 -0.1421 -1.4746 -0.7086
  105SAPE  H10Y10794   6.525   1.767   4.858 -3.6183 -0.9922  0.6884
  105SAPE  C31110795   6.419   1.841   5.026  0.4762  0.1371  0.0434
  105SAPE  H11X10796   6.344   1.906   4.976  0.2557  0.2055  0.4678
  105SAPE  H11Y10797   6.426   1.897   5.122  3.6183 -1.1899  0.7317
  105SAPE  C31210798   6.346   1.704   5.041 -0.0833 -0.1183 -0.0666
  105SAPE  H12X10799   6.306   1.660   4.947 -1.7899 -1.5405  1.2679
  105SAPE  H12Y10800   6.260   1.723   5.108 -0.0229  1.2439 -0.3282
  105SAPE  C31310801   6.441   1.603   5.098  0.5155  0.8080 -0.4774
  105SAPE  H13X10802   6.498   1.638   5.187  0.4210 -2.2794  0.9457
  105SAPE  H13Y10803   6.509   1.581   5.013  1.1294 -0.0292  0.2113
  105SAPE  C31410804   6.386   1.464   5.129 -0.4499  0.1697 -0.5008
  105SAPE  H14X10805   6.313   1.472   5.212  1.7517  0.6099  1.4962
  105SAPE  H14Y10806   6.467   1.391   5.147 -0.1604  0.3687 -0.9790
  105SAPE  C31510807   6.296   1.407   5.022 -0.3083  0.2477 -0.4062
  105SAPE  H15X10808   6.355   1.396   4.928  2.1996 -0.0336  1.1184
  105SAPE  H15Y10809   6.211   1.477   5.010  0.6248  1.6432  0.7355
  105SAPE  C31610810   6.251   1.267   5.056 -0.2644  0.3688 -0.0706
  105SAPE  H16X10811   6.202   1.274   5.155  2.3539  1.0185  1.2886
  105SAPE  H16Y10812   6.343   1.207   5.071  0.4277  1.0654 -1.3105
  105SAPE  C31710813   6.153   1.202   4.959  0.7516  0.4591  0.5312
  105SAPE  H17X10814   6.190   1.223   4.857 -1.5651  2.4059 -0.0145
  105SAPE  H17Y10815   6.050   1.244   4.968  0.7024  0.3525  0.4579
  105SAPE  C31810816   6.142   1.047   4.985 -0.2051 -0.0652  0.4526
  105SAPE  H18X10817   6.236   0.996   5.012 -0.3362 -1.0779 -0.8682
  105SAPE  H18Y10818   6.100   1.005   4.891 -2.4626 -1.0082  1.7929
  105SAPE  H18Z10819   6.060   1.033   5.059 -0.3768 -1.6811  0.0076
  106SAPE     N10820   1.184   5.768   3.119 -0.0787  1.1724  0.3185
  106SAPE   HN110821   1.168   5.850   3.057 -1.2260 -0.4903 -1.6950
  106SAPE   HN210822   1.092   5.720   3.112 -1.4861  3.8156 -0.9708
  106SAPE   HN310823   1.193   5.805   3.216  1.3786  0.8610  0.3195
  106SAPE   C1210824   1.300   5.688   3.081 -0.3109  0.1560  0.4074
  106SAPE  H12A10825   1.385   5.760   3.080 -1.2802  1.3207  0.1558
  106SAPE  H12B10826   1.289   5.639   2.982  0.8343  0.8175 -0.0764
  106SAPE   C1110827   1.314   5.572   3.175 -0.2064 -1.1184  0.6254
  106SAPE  H11A10828   1.392   5.512   3.123 -0.3827  0.2001 -1.2700
  106SAPE  H11B10829   1.222   5.511   3.183 -1.2594 -0.1086 -2.3075
  106SAPE     P10830   1.426   5.520   3.417 -0.2754 -0.7065 -0.1694
  106SAPE   O1310831   1.536   5.448   3.344  0.0533  0.4552  0.1210
  106SAPE   O1410832   1.468   5.606   3.531  0.0347  0.5545  0.2301
  106SAPE   O1210833   1.354   5.610   3.308 -0.2388  0.1163  0.1643
  106SAPE   O1110834   1.308   5.419   3.454 -0.5245 -0.6031  0.8156
  106SAPE    C110835   1.176   5.472   3.475  0.1470 -0.2636  0.0339
  106SAPE    HA10836   1.164   5.579   3.447 -2.7713 -1.3045 -3.4073
  106SAPE    HB10837   1.095   5.419   3.421 -0.7461  0.3836  0.7174
  106SAPE    C210838   1.141   5.459   3.630 -0.4079  0.4337 -0.1932
  106SAPE    HS10839   1.033   5.438   3.642 -0.1314 -0.3583  1.2169
  106SAPE   O2110840   1.176   5.576   3.706 -0.3903  0.0794  0.0546
  106SAPE   C2110841   1.103   5.680   3.680  0.0489 -0.1516  0.5729
  106SAPE   O2210842   0.995   5.682   3.618 -0.3143  0.6358  0.2709
  106SAPE   C2210843   1.162   5.798   3.755 -0.5509 -0.3788 -0.5412
  106SAPE   H2R10844   1.231   5.761   3.833  1.1683 -0.6985 -2.1593
  106SAPE   H2S10845   1.231   5.850   3.686  1.3604 -1.7251  0.2681
  106SAPE    C310846   1.212   5.344   3.701 -0.4361 -0.0978  0.0860
  106SAPE    HX10847   1.318   5.378   3.709 -1.1327  2.2150 -0.0698
  106SAPE    HY10848   1.203   5.260   3.628  0.2773 -1.2783  1.3042
  106SAPE   O3110849   1.157   5.328   3.829  0.0668  0.2463  0.4389
  106SAPE   C3110850   1.054   5.256   3.837  0.0618 -0.0455  1.6169
  106SAPE   O3210851   0.986   5.212   3.745 -0.5084  0.6394  0.2613
  106SAPE   C3210852   0.998   5.245   3.982  0.2617 -0.4368 -0.4376
  106SAPE   H2X10853   0.972   5.345   4.024  0.3285 -1.1338  1.3340
  106SAPE   H2Y10854   1.077   5.194   4.041  0.6103  1.4014  0.7861
  106SAPE   C2310855   1.058   5.898   3.814  0.4888  0.0092  0.2594
  106SAPE   H3R10856   0.985   5.926   3.735 -0.6254 -1.5927  0.6611
  106SAPE   H3S10857   1.102   5.997   3.837 -1.1205  0.9288 -0.4796
  106SAPE   C2410858   0.979   5.846   3.942 -0.3537 -0.4417 -0.6126
  106SAPE   H4R10859   1.051   5.803   4.016 -1.8273 -0.0103  1.1465
  106SAPE   H4S10860   0.900   5.772   3.918 -3.0453  1.3717  2.0143
  106SAPE   C2510861   0.906   5.964   4.004 -0.4053 -0.0949 -0.1727
  106SAPE   H5R10862   0.813   5.990   3.949 -0.0495  0.9442 -0.3126
  106SAPE   C2610863   0.965   6.057   4.079  0.2003  0.0398 -0.6319
  106SAPE   H6R10864   0.903   6.144   4.107 -3.0980 -1.9528 -1.2028
  106SAPE   C2710865   1.104   6.051   4.139 -0.1851  0.8210  0.1701
  106SAPE   H7R10866   1.171   6.090   4.059  2.1567  1.1972  2.1907
  106SAPE   H7S10867   1.137   5.951   4.173 -3.2137 -0.0973  0.7433
  106SAPE   C2810868   1.099   6.140   4.257  0.9092 -0.0290 -0.3643
  106SAPE   H8R10869   1.121   6.243   4.225  0.3335 -0.3422 -1.8138
  106SAPE   C2910870   1.090   6.124   4.394 -0.2288 -0.1912 -0.3298
  106SAPE   H9R10871   1.109   6.209   4.460  1.3039 -1.0894  0.4352
  106SAPE  C21010872   1.074   5.992   4.471 -0.6316 -0.1015  0.3933
  106SAPE  H10R10873   1.157   5.981   4.544  1.2299 -0.6636 -1.7270
  106SAPE  H10S10874   1.069   5.907   4.400  0.2345  1.6591 -1.9152
  106SAPE  C21110875   0.938   5.990   4.532 -1.2711  0.2499 -0.1706
  106SAPE  H11R10876   0.857   6.025   4.467 -2.1575  0.8152  1.1892
  106SAPE  C21210877   0.910   5.941   4.655  0.2121  0.2679  0.1910
  106SAPE  H12R10878   0.805   5.930   4.688  1.5200 -1.8162  4.4394
  106SAPE  C21310879   1.004   5.878   4.754 -0.0637  0.2610  0.4324
  106SAPE  H13R10880   0.983   5.911   4.858  0.1319 -0.5400  0.7375
  106SAPE  H13S10881   1.109   5.905   4.730  0.6573 -1.0998  1.8140
  106SAPE  C21410882   0.996   5.723   4.752  0.0792 -0.2117  0.3551
  106SAPE  H14R10883   0.979   5.673   4.656 -1.8515  1.0013 -0.0011
  106SAPE  C21510884   1.018   5.629   4.853  0.0307 -0.5740  0.2073
  106SAPE  H15R10885   0.995   5.523   4.840 -2.4169  0.0100 -0.6532
  106SAPE  C21610886   1.051   5.667   4.994  0.2702  0.6684 -0.5758
  106SAPE  H16R10887   1.035   5.776   5.010 -0.4557  0.5009 -0.1375
  106SAPE  H16S10888   1.157   5.648   5.021 -0.0862 -4.0589 -1.6740
  106SAPE  C21710889   0.959   5.616   5.109  0.2937  0.6081 -0.1392
  106SAPE  H17R10890   0.946   5.506   5.095  0.3240  0.3070  1.8451
  106SAPE  H17S10891   0.857   5.659   5.103 -0.6133 -1.3983 -0.1226
  106SAPE  C21810892   1.008   5.633   5.254  0.1181 -0.7986  0.0299
  106SAPE  H18R10893   1.118   5.645   5.248 -0.0799  0.2694 -2.5806
  106SAPE  H18S10894   1.005   5.542   5.318 -1.0946  1.2245  3.1372
  106SAPE  C21910895   0.933   5.742   5.329  0.0751 -0.0803 -0.0921
  106SAPE  H19R10896   0.946   5.740   5.439 -0.3291 -0.0631 -0.0436
  106SAPE  H19S10897   0.825   5.724   5.310  0.3912 -2.3243  0.0198
  106SAPE  C22010898   0.973   5.879   5.284  0.3657  0.3516  0.2061
  106SAPE  H20R10899   1.081   5.900   5.301  0.7750 -0.4847 -1.1188
  106SAPE  H20S10900   0.908   5.950   5.339 -1.2322 -0.4156 -0.6179
  106SAPE  H20T10901   0.949   5.889   5.176  2.2577 -1.4664 -0.4664
  106SAPE   C3310902   0.868   5.162   3.985 -0.2551 -0.7122  0.3133
  106SAPE   H3X10903   0.884   5.069   3.926 -1.9918 -1.1340  0.4574
  106SAPE   H3Y10904   0.797   5.218   3.920  0.8617 -0.9624 -1.1882
  106SAPE   C3410905   0.818   5.131   4.130  0.3902 -0.1274  0.1465
  106SAPE   H4X10906   0.832   5.228   4.183 -0.9053  1.4570 -2.1732
  106SAPE   H4Y10907   0.892   5.055   4.161  0.7295  0.4233  0.7200
  106SAPE   C3510908   0.678   5.075   4.141 -0.0311  0.3140 -0.6721
  106SAPE   H5X10909   0.669   4.978   4.088  0.8880  0.8919 -1.9284
  106SAPE   H5Y10910   0.607   5.149   4.097  1.8091  2.0673 -0.8453
  106SAPE   C3610911   0.639   5.069   4.288 -0.1886 -0.1334 -0.0140
  106SAPE   H6X10912   0.547   5.006   4.294  0.5159 -1.1106  0.7525
  106SAPE   H6Y10913   0.618   5.168   4.334 -1.6258 -0.0300 -0.7992
  106SAPE   C3710914   0.745   4.993   4.369 -0.2469  0.9680 -0.0012
  106SAPE   H7X10915   0.824   5.070   4.378 -0.4870  1.0189  2.3314
  106SAPE   H7Y10916   0.774   4.910   4.301  0.3474  1.6092 -0.5391
  106SAPE   C3810917   0.686   4.945   4.504  0.0463  0.0854 -0.1754
  106SAPE   H8X10918   0.644   4.844   4.485 -1.6399  0.9245 -1.0883
  106SAPE   H8Y10919   0.607   5.017   4.533 -1.0187 -1.0181 -0.2484
  106SAPE   C3910920   0.787   4.922   4.618  0.5143  0.5244  0.1552
  106SAPE   H9X10921   0.866   4.870   4.561  1.5753  1.4637  0.7161
  106SAPE   H9Y10922   0.736   4.861   4.696 -1.6322 -0.9650 -2.2746
  106SAPE  C31010923   0.834   5.043   4.694  0.1215 -0.5248  0.2638
  106SAPE  H10X10924   0.816   5.139   4.641  1.9484  0.2438  0.9639
  106SAPE  H10Y10925   0.944   5.035   4.708  0.3301  0.5992 -0.5471
  106SAPE  C31110926   0.781   5.039   4.832 -0.3085 -0.3133 -0.4485
  106SAPE  H11X10927   0.803   4.938   4.873 -2.3744 -0.0473  1.5369
  106SAPE  H11Y10928   0.671   5.046   4.824 -0.3432  0.1290  0.3272
  106SAPE  C31210929   0.828   5.142   4.925 -0.3672 -0.1992  0.0967
  106SAPE  H12X10930   0.779   5.236   4.893 -0.9122  0.0878  1.6655
  106SAPE  H12Y10931   0.938   5.142   4.940 -0.2732  0.4857 -0.5630
  106SAPE  C31310932   0.771   5.110   5.065 -1.0512 -0.1129  0.7979
  106SAPE  H13X10933   0.804   5.011   5.103  0.6655 -0.9333 -2.4542
  106SAPE  H13Y10934   0.660   5.102   5.055 -1.1397 -0.5294  1.9631
  106SAPE  C31410935   0.793   5.225   5.168 -0.0178  0.0640 -0.9953
  106SAPE  H14X10936   0.742   5.319   5.139  1.9902  1.4494 -0.2845
  106SAPE  H14Y10937   0.899   5.257   5.179 -0.0501  1.0573 -3.0935
  106SAPE  C31510938   0.755   5.177   5.310  0.2034  0.0423 -0.2163
  106SAPE  H15X10939   0.817   5.090   5.340  1.4053  1.5159  1.8098
  106SAPE  H15Y10940   0.654   5.134   5.294 -0.7313  2.4555 -1.1518
  106SAPE  C31610941   0.772   5.274   5.420 -0.1415  0.5119 -0.1099
  106SAPE  H16X10942   0.706   5.362   5.408 -1.6937 -0.7397 -1.2645
  106SAPE  H16Y10943   0.869   5.327   5.412 -0.4896  1.4619  1.4552
  106SAPE  C31710944   0.762   5.199   5.558  0.4011 -0.2448 -0.0548
  106SAPE  H17X10945   0.832   5.113   5.555 -0.5115 -1.0839  1.4392
  106SAPE  H17Y10946   0.664   5.151   5.577  0.9572 -1.4075 -0.0709
  106SAPE  C31810947   0.799   5.292   5.668 -0.9606  0.5129 -0.1527
  106SAPE  H18X10948   0.777   5.248   5.768 -3.3746  2.3368  0.2080
  106SAPE  H18Y10949   0.741   5.386   5.665 -1.9229 -0.0876 -1.5289
  106SAPE  H18Z10950   0.907   5.317   5.672 -1.1888  1.8193 -1.4420
  107SAPE     N10951   2.918   3.089   2.730  0.3548 -0.3000  0.0283
  107SAPE   HN110952   2.920   3.180   2.779 -0.1421 -0.6129  0.6504
  107SAPE   HN210953   2.819   3.056   2.730  0.2641 -0.2824  2.7498
  107SAPE   HN310954   2.973   3.023   2.788 -0.7201 -1.8565 -0.6292
  107SAPE   C1210955   2.973   3.098   2.586 -0.9728 -0.2658 -0.0461
  107SAPE  H12A10956   2.902   3.162   2.529 -3.6481 -1.3793  1.8107
  107SAPE  H12B10957   2.971   2.999   2.536 -0.4567  0.4695 -1.5504
  107SAPE   C1110958   3.111   3.169   2.579 -0.3308 -0.1350  0.4861
  107SAPE  H11A10959   3.139   3.191   2.473  0.8549  2.6491  1.2874
  107SAPE  H11B10960   3.194   3.102   2.609  1.2470  2.1785  1.5069
  107SAPE     P10961   3.262   3.339   2.692  0.1001  0.2828 -0.2392
  107SAPE   O1310962   3.352   3.327   2.578 -0.5558 -0.3670 -0.1321
  107SAPE   O1410963   3.250   3.471   2.759  0.1658  0.3499  0.4126
  107SAPE   O1210964   3.116   3.288   2.660 -0.8886  0.5244 -0.0718
  107SAPE   O1110965   3.314   3.240   2.806  0.1145  0.7401  0.0790
  107SAPE    C110966   3.239   3.195   2.914 -0.3917  0.3430  0.0184
  107SAPE    HA10967   3.134   3.173   2.884 -0.1873  1.0364 -1.2940
  107SAPE    HB10968   3.290   3.107   2.959  0.4110  1.5582  1.5905
  107SAPE    C210969   3.229   3.291   3.034  0.3016 -0.0954  0.9231
  107SAPE    HS10970   3.214   3.392   2.991 -0.6260 -0.0872  1.2381
  107SAPE   O2110971   3.358   3.276   3.099  0.0982 -0.1401  0.3485
  107SAPE   C2110972   3.396   3.368   3.180  0.5373  0.5220 -1.0588
  107SAPE   O2210973   3.331   3.463   3.214  0.2865  0.4150 -0.1057
  107SAPE   C2210974   3.539   3.335   3.237  0.6285  0.9410 -0.6856
  107SAPE   H2R10975   3.553   3.225   3.236 -0.1321  0.8174  0.6151
  107SAPE   H2S10976   3.605   3.379   3.158  0.7184 -0.0286 -1.1668
  107SAPE    C310977   3.108   3.247   3.123 -0.0038  0.2227  0.2250
  107SAPE    HX10978   3.126   3.138   3.127 -1.8310 -0.2100 -1.5922
  107SAPE    HY10979   3.007   3.254   3.077  0.1858  1.8119 -0.0027
  107SAPE   O3110980   3.108   3.292   3.257 -0.0994 -0.0568  0.1959
  107SAPE   C3110981   3.042   3.407   3.274 -0.4423  0.0974  0.2215
  107SAPE   O3210982   2.992   3.472   3.183 -0.1517  0.3257 -0.0327
  107SAPE   C3210983   3.032   3.436   3.426  0.0119  0.4660 -0.1202
  107SAPE   H2X10984   3.126   3.397   3.471 -1.1328 -1.5537  0.6627
  107SAPE   H2Y10985   2.951   3.368   3.459 -2.2429  1.1977 -3.6571
  107SAPE   C2310986   3.565   3.406   3.375 -0.0862 -0.0040 -0.1049
  107SAPE   H3R10987   3.511   3.502   3.393 -0.0451 -0.1694  0.9978
  107SAPE   H3S10988   3.673   3.429   3.381 -0.4110  1.9099 -0.9715
  107SAPE   C2410989   3.522   3.317   3.498 -0.2804 -0.5923  0.1563
  107SAPE   H4R10990   3.555   3.214   3.470  1.1530  0.0060 -0.4723
  107SAPE   H4S10991   3.411   3.322   3.500 -0.4137 -2.4323 -0.3290
  107SAPE   C2510992   3.575   3.365   3.634 -0.2588  0.2491  0.1659
  107SAPE   H5R10993   3.684   3.363   3.648  0.1776  1.4100 -2.4390
  107SAPE   C2610994   3.502   3.381   3.751  0.3601  0.7998  0.1501
  107SAPE   H6R10995   3.561   3.396   3.842  0.2743 -1.9946  0.7431
  107SAPE   C2710996   3.351   3.380   3.756 -0.6789  0.0454  0.3808
  107SAPE   H7R10997   3.315   3.425   3.661 -0.8211  2.4184  1.4812
  107SAPE   H7S10998   3.311   3.456   3.827 -1.6267  0.8745 -0.9760
  107SAPE   C2810999   3.282   3.248   3.773 -0.2608  0.2906 -0.1959
  107SAPE   H8R11000   3.284   3.176   3.689  1.7291 -0.8539  0.7789
  107SAPE   C2911001   3.220   3.212   3.885 -0.6603 -0.4040  0.0009
  107SAPE   H9R11002   3.188   3.107   3.890 -2.3548 -0.1062 -2.4877
  107SAPE  C21011003   3.212   3.291   4.013 -0.2640  0.2580 -0.2478
  107SAPE  H10R11004   3.312   3.329   4.043 -0.3189  0.1595  0.0575
  107SAPE  H10S11005   3.177   3.222   4.092  0.1640 -1.5826 -1.5835
  107SAPE  C21111006   3.107   3.400   4.010  0.0447 -0.0777 -0.0662
  107SAPE  H11R11007   3.016   3.371   3.955  0.3345 -1.0424 -0.0648
  107SAPE  C21211008   3.111   3.513   4.080 -1.0740 -0.4928  0.5862
  107SAPE  H12R11009   3.020   3.571   4.102  0.0056  1.2147  0.7050
  107SAPE  C21311010   3.234   3.549   4.159 -0.3936 -0.0840  0.0638
  107SAPE  H13R11011   3.319   3.550   4.087  0.0907  0.1573  0.6312
  107SAPE  H13S11012   3.261   3.470   4.232 -1.5530 -1.5245 -0.9996
  107SAPE  C21411013   3.231   3.675   4.238  0.1011  0.7547  0.3719
  107SAPE  H14R11014   3.284   3.758   4.188  1.7812 -1.8735 -2.5306
  107SAPE  C21511015   3.178   3.690   4.356 -0.5351 -0.5441 -0.0215
  107SAPE  H15R11016   3.176   3.790   4.403  2.1023  0.0690 -1.0485
  107SAPE  C21611017   3.082   3.597   4.423 -0.3637  0.2596  0.8217
  107SAPE  H16R11018   3.105   3.492   4.393  0.0934  0.2473  1.1970
  107SAPE  H16S11019   2.978   3.616   4.390 -0.7744 -2.4826  0.3046
  107SAPE  C21711020   3.068   3.602   4.579  0.0187 -0.4558  0.5147
  107SAPE  H17R11021   3.164   3.638   4.622 -0.3756  0.6024  0.5390
  107SAPE  H17S11022   3.056   3.500   4.621  0.5695 -0.0561  1.6634
  107SAPE  C21811023   2.953   3.671   4.637 -0.2279 -0.0007 -0.5045
  107SAPE  H18R11024   2.856   3.649   4.586 -0.2124  1.4829 -1.2100
  107SAPE  H18S11025   2.958   3.778   4.608  0.0411  0.6645  1.8657
  107SAPE  C21911026   2.952   3.657   4.791  0.0636 -0.5660 -0.7485
  107SAPE  H19R11027   3.054   3.638   4.832  0.7157  0.5336 -1.7994
  107SAPE  H19S11028   2.893   3.567   4.819  2.2559 -1.6727  0.5699
  107SAPE  C22011029   2.892   3.779   4.854 -0.4036 -0.3880  0.1632
  107SAPE  H20R11030   2.882   3.763   4.964  0.3208  0.0730  0.3008
  107SAPE  H20S11031   2.785   3.784   4.824  0.2177 -0.1776 -2.2262
  107SAPE  H20T11032   2.961   3.863   4.831 -1.2168  0.9923  2.3606
  107SAPE   C3311033   3.014   3.587   3.456  0.1448 -0.3458  0.3369
  107SAPE   H3X11034   2.908   3.599   3.427  0.1229  0.7068  0.8131
  107SAPE   H3Y11035   3.077   3.647   3.387 -0.3254  0.3730  0.5234
  107SAPE   C3411036   3.046   3.618   3.610  0.1245  0.0930  0.0421
  107SAPE   H4X11037   3.122   3.545   3.646 -0.7531 -0.1095  1.5433
  107SAPE   H4Y11038   2.951   3.580   3.652 -1.1578  1.2775 -1.6196
  107SAPE   C3511039   3.090   3.758   3.640 -0.1683 -0.4912  0.8249
  107SAPE   H5X11040   3.003   3.828   3.641  0.4809  0.3388  1.4971
  107SAPE   H5Y11041   3.162   3.806   3.571  0.2296 -1.5129  0.5190
  107SAPE   C3611042   3.145   3.781   3.784  0.4297  0.2241 -0.1044
  107SAPE   H6X11043   3.236   3.719   3.790  0.2349 -0.0538  0.0228
  107SAPE   H6Y11044   3.065   3.735   3.846 -0.0373  0.4779 -0.5101
  107SAPE   C3711045   3.162   3.931   3.817 -0.4941  0.1661  0.1957
  107SAPE   H7X11046   3.079   3.993   3.776  1.4146  2.8200  0.0610
  107SAPE   H7Y11047   3.253   3.964   3.763  0.6914  0.3964  2.2335
  107SAPE   C3811048   3.174   3.946   3.973  0.1010 -0.0606  0.8613
  107SAPE   H8X11049   3.248   3.870   4.006  0.5696  0.6560  1.5044
  107SAPE   H8Y11050   3.073   3.911   4.005 -0.7490  1.1308 -0.4303
  107SAPE   C3911051   3.199   4.090   4.009 -0.6729 -0.1901 -0.1706
  107SAPE   H9X11052   3.111   4.150   3.976 -0.4755  0.2102  0.0244
  107SAPE   H9Y11053   3.286   4.127   3.951 -0.8102  1.2880  0.5212
  107SAPE  C31011054   3.239   4.127   4.155 -0.3406 -0.3255 -0.4655
  107SAPE  H10X11055   3.260   4.236   4.161 -1.0181 -0.1223 -1.3918
  107SAPE  H10Y11056   3.337   4.079   4.171  0.9540  1.7264 -1.7479
  107SAPE  C31111057   3.144   4.091   4.266  0.2134  0.4171  0.2088
  107SAPE  H11X11058   3.179   4.115   4.369  1.4890 -1.9290  0.3870
  107SAPE  H11Y11059   3.117   3.983   4.270 -0.2166  0.4687 -0.8829
  107SAPE  C31211060   3.005   4.155   4.248  0.1176 -0.9977 -0.2617
  107SAPE  H12X11061   2.943   4.080   4.195 -1.9782  0.1013  0.5173
  107SAPE  H12Y11062   3.008   4.250   4.192 -2.7544 -0.2188  0.7210
  107SAPE  C31311063   2.937   4.200   4.377 -0.2091  0.0305  0.3206
  107SAPE  H13X11064   2.855   4.273   4.363 -1.0864 -1.0604 -0.3515
  107SAPE  H13Y11065   3.028   4.245   4.422 -0.9189 -0.3116  2.1784
  107SAPE  C31411066   2.897   4.084   4.465 -0.7084  0.2870 -0.1343
  107SAPE  H14X11067   2.976   4.006   4.455 -1.8057 -0.7150 -1.2772
  107SAPE  H14Y11068   2.801   4.042   4.427 -1.7346  0.1516  2.3973
  107SAPE  C31511069   2.871   4.129   4.610 -0.3088  0.8195  0.3033
  107SAPE  H15X11070   2.960   4.185   4.644 -1.4340  2.9002 -0.0340
  107SAPE  H15Y11071   2.862   4.036   4.671 -1.9325  1.0617  0.4739
  107SAPE  C31611072   2.734   4.196   4.621 -0.8090 -0.4928 -0.1263
  107SAPE  H16X11073   2.672   4.170   4.532  0.1432 -1.9692 -0.3955
  107SAPE  H16Y11074   2.749   4.306   4.618  0.7021 -0.6958 -2.0562
  107SAPE  C31711075   2.657   4.164   4.743 -0.1183 -0.6081 -0.3989
  107SAPE  H17X11076   2.667   4.054   4.754  0.0062 -0.5225  0.4197
  107SAPE  H17Y11077   2.551   4.195   4.730 -0.1936 -0.1814  1.0716
  107SAPE  C31811078   2.702   4.246   4.870  0.2867  0.0916 -0.0844
  107SAPE  H18X11079   2.632   4.229   4.954 -2.1178  2.5321 -1.4505
  107SAPE  H18Y11080   2.712   4.354   4.846  1.0889  0.8447  3.1220
  107SAPE  H18Z11081   2.797   4.201   4.906 -0.9076 -2.7988 -0.2691
  108SAPE     N11082   3.226   4.510   2.921  0.3611 -0.0379  0.0351
  108SAPE   HN111083   3.290   4.584   2.887  2.1347 -1.4483  0.1507
  108SAPE   HN211084   3.192   4.534   3.017 -0.0537  2.7104 -0.7047
  108SAPE   HN311085   3.273   4.418   2.929  0.4939  0.0975  0.9821
  108SAPE   C1211086   3.097   4.512   2.837  0.5512  0.0491 -0.3977
  108SAPE  H12A11087   3.121   4.453   2.746  1.1184 -0.2065 -0.0916
  108SAPE  H12B11088   3.083   4.618   2.806  1.1028 -0.0119 -0.8682
  108SAPE   C1111089   2.982   4.456   2.914 -0.2459 -0.4611  0.2758
  108SAPE  H11A11090   3.008   4.356   2.953  1.1033 -0.5855 -0.8724
  108SAPE  H11B11091   2.891   4.453   2.851  0.5093 -0.0729 -0.8675
  108SAPE     P11092   2.844   4.508   3.132  0.0802 -0.0670  0.1714
  108SAPE   O1311093   2.757   4.625   3.127  0.5554  0.6225  0.1720
  108SAPE   O1411094   2.780   4.372   3.100 -0.6863  0.0230  0.2597
  108SAPE   O1211095   2.955   4.533   3.030 -0.4436  0.2776  0.4205
  108SAPE   O1111096   2.920   4.501   3.273  0.0448 -0.2751 -0.4245
  108SAPE    C111097   2.980   4.373   3.312 -0.0999  0.3821  0.3246
  108SAPE    HA11098   2.910   4.288   3.324  2.1735 -1.5548  0.5170
  108SAPE    HB11099   3.054   4.348   3.233  1.9139  1.8801  1.6274
  108SAPE    C211100   3.074   4.381   3.433  0.3340  0.0632 -0.7403
  108SAPE    HS11101   3.143   4.294   3.435  0.0420 -0.1624  0.1379
  108SAPE   O2111102   3.013   4.403   3.567 -0.1397 -0.3059 -0.4414
  108SAPE   C2111103   2.960   4.296   3.625 -0.3416  0.1565  0.7837
  108SAPE   O2211104   2.966   4.184   3.582 -0.3700  0.4180  0.1924
  108SAPE   C2211105   2.900   4.341   3.761 -0.2486  0.5282  0.0808
  108SAPE   H2R11106   2.989   4.368   3.822 -0.0039 -0.1058  0.0097
  108SAPE   H2S11107   2.829   4.426   3.746 -1.3291 -0.0658  1.6100
  108SAPE    C311108   3.166   4.501   3.408 -0.0704 -0.0597  0.3894
  108SAPE    HX11109   3.105   4.591   3.387 -0.5171 -0.9776 -3.0362
  108SAPE    HY11110   3.214   4.482   3.309  0.7373 -0.4161  0.8447
  108SAPE   O3111111   3.267   4.514   3.513  0.4561  0.0307  0.2506
  108SAPE   C3111112   3.283   4.633   3.564  0.1591  0.1984 -0.5743
  108SAPE   O3211113   3.212   4.730   3.541  0.4148 -0.2812  0.4485
  108SAPE   C3211114   3.377   4.629   3.684  0.4057  0.3160 -0.6000
  108SAPE   H2X11115   3.414   4.729   3.717  0.7923 -0.6582  2.1881
  108SAPE   H2Y11116   3.474   4.586   3.650  2.3159  2.1259  2.1238
  108SAPE   C2311117   2.832   4.226   3.839  0.1399 -0.0068  0.9006
  108SAPE   H3R11118   2.905   4.142   3.844  0.7813  0.4634 -0.0442
  108SAPE   H3S11119   2.749   4.187   3.777  1.1709 -0.9571  0.0671
  108SAPE   C2411120   2.767   4.268   3.968 -0.4789 -0.5996 -0.9309
  108SAPE   H4R11121   2.844   4.325   4.025  0.3498 -1.2156 -1.4011
  108SAPE   H4S11122   2.753   4.186   4.042 -0.9606  1.1413  1.0031
  108SAPE   C2511123   2.642   4.359   3.959  0.0955 -0.1138 -1.0720
  108SAPE   H5R11124   2.622   4.398   3.858  1.2631  0.1660 -1.2111
  108SAPE   C2611125   2.572   4.413   4.061 -0.2973 -0.1586  0.5435
  108SAPE   H6R11126   2.478   4.462   4.031  0.1229 -0.1712 -0.8433
  108SAPE   C2711127   2.576   4.381   4.207 -1.0675  0.4988  0.2714
  108SAPE   H7R11128   2.583   4.270   4.205  0.6481  0.5841 -1.9376
  108SAPE   H7S11129   2.473   4.402   4.244 -1.2885  0.0890 -0.1130
  108SAPE   C2811130   2.685   4.451   4.293  0.5258 -0.5716 -0.5600
  108SAPE   H8R11131   2.784   4.476   4.254  2.2544 -2.3429  2.2999
  108SAPE   C2911132   2.654   4.515   4.409  0.1049  0.3331  0.2057
  108SAPE   H9R11133   2.738   4.577   4.444  0.8811  0.4389 -1.6831
  108SAPE  C21011134   2.542   4.495   4.509 -1.0693 -0.7424 -0.1140
  108SAPE  H10R11135   2.580   4.446   4.600 -1.6290  1.0008  1.1139
  108SAPE  H10S11136   2.462   4.436   4.459 -1.7759  0.6640 -0.7177
  108SAPE  C21111137   2.484   4.636   4.524 -0.0476  0.3759  0.4733
  108SAPE  H11R11138   2.435   4.684   4.437  2.7415  2.7013  0.0522
  108SAPE  C21211139   2.520   4.719   4.622  0.1430  0.0809 -0.5105
  108SAPE  H12R11140   2.464   4.813   4.631  1.3853  0.7840  0.1338
  108SAPE  C21311141   2.607   4.684   4.745 -0.5443  0.4555  0.3251
  108SAPE  H13R11142   2.712   4.677   4.707 -0.2526 -0.7245  1.2873
  108SAPE  H13S11143   2.577   4.583   4.779  0.9514 -0.1545 -0.0559
  108SAPE  C21411144   2.621   4.788   4.858  0.3543 -0.1305  0.2978
  108SAPE  H14R11145   2.681   4.874   4.827 -0.7711  0.0172 -1.6908
  108SAPE  C21511146   2.583   4.777   4.986  0.3985  0.8096 -0.1574
  108SAPE  H15R11147   2.602   4.859   5.058  1.8253 -0.2877  0.7870
  108SAPE  C21611148   2.495   4.665   5.040 -0.0756 -0.3723 -0.1398
  108SAPE  H16R11149   2.473   4.597   4.955  2.0789  1.2882 -2.1376
  108SAPE  H16S11150   2.395   4.695   5.080  0.2233  0.3356  0.0913
  108SAPE  C21711151   2.559   4.576   5.151  0.1522  0.0879  0.7534
  108SAPE  H17R11152   2.648   4.549   5.091 -0.9986  1.1691 -1.5917
  108SAPE  H17S11153   2.496   4.485   5.164  1.5132 -1.0249 -0.1649
  108SAPE  C21811154   2.594   4.651   5.282  0.2413  0.2880  0.3886
  108SAPE  H18R11155   2.624   4.756   5.261 -1.4795  0.6062 -0.6641
  108SAPE  H18S11156   2.681   4.595   5.322  0.7278  0.5420 -0.3000
  108SAPE  C21911157   2.479   4.652   5.372  0.1241 -0.5716  0.0400
  108SAPE  H19R11158   2.402   4.723   5.335  1.1348  0.7110  0.3454
  108SAPE  H19S11159   2.525   4.707   5.457  0.3836  0.0184 -0.4746
  108SAPE  C22011160   2.420   4.517   5.418 -0.1692 -0.3533  0.1834
  108SAPE  H20R11161   2.361   4.476   5.333 -0.4744  1.3075 -0.4578
  108SAPE  H20S11162   2.352   4.531   5.504  1.1612 -0.5731  1.3028
  108SAPE  H20T11163   2.504   4.452   5.448  0.3097  0.3201  0.3284
  108SAPE   C3311164   3.320   4.556   3.807  0.0111  0.2296  0.7815
  108SAPE   H3X11165   3.397   4.530   3.883  0.8634  2.4613  0.7273
  108SAPE   H3Y11166   3.292   4.458   3.762  0.5307  0.0334  0.8834
  108SAPE   C3411167   3.204   4.620   3.884 -0.0951 -0.1293  0.4523
  108SAPE   H4X11168   3.115   4.652   3.826  0.1409  1.6016  0.9796
  108SAPE   H4Y11169   3.243   4.719   3.918  1.6665 -1.2084  1.7330
  108SAPE   C3511170   3.157   4.543   4.011  0.0484 -0.3625 -0.1344
  108SAPE   H5X11171   3.124   4.439   3.991 -0.3115 -0.6611  1.8109
  108SAPE   H5Y11172   3.250   4.533   4.071  0.6987 -0.1337 -1.0844
  108SAPE   C3611173   3.043   4.608   4.089  0.3543 -0.2110  0.2337
  108SAPE   H6X11174   2.954   4.583   4.027  1.3613  0.9599 -1.8034
  108SAPE   H6Y11175   3.077   4.713   4.080  2.3570 -0.8535 -0.5379
  108SAPE   C3711176   3.027   4.566   4.234  0.8803  0.9277  0.5124
  108SAPE   H7X11177   3.020   4.455   4.239 -0.0493  0.8360 -1.6499
  108SAPE   H7Y11178   2.926   4.604   4.260 -0.2830  2.1433 -4.7476
  108SAPE   C3811179   3.132   4.621   4.338  0.2137  0.0885  0.0355
  108SAPE   H8X11180   3.136   4.731   4.329 -1.5454  0.1245 -0.6369
  108SAPE   H8Y11181   3.232   4.590   4.301  1.2470  1.8957  1.1889
  108SAPE   C3911182   3.131   4.554   4.475 -0.1550  0.2540 -0.7123
  108SAPE   H9X11183   3.196   4.611   4.544 -0.3518  0.4244 -0.6666
  108SAPE   H9Y11184   3.159   4.446   4.471  0.3841  0.3299  0.4602
  108SAPE  C31011185   2.987   4.554   4.539 -0.2977  0.2506 -0.5040
  108SAPE  H10X11186   2.934   4.479   4.477 -1.0550  1.0062 -0.7865
  108SAPE  H10Y11187   2.932   4.649   4.524 -1.5559  0.3671  3.7786
  108SAPE  C31111188   2.985   4.523   4.691  0.4227  0.5461 -0.4833
  108SAPE  H11X11189   3.043   4.429   4.704 -1.0929 -0.8164 -2.9023
  108SAPE  H11Y11190   2.881   4.518   4.728  0.8301  0.9445  0.7678
  108SAPE  C31211191   3.058   4.638   4.766 -0.2611  0.0027 -0.9327
  108SAPE  H12X11192   3.006   4.734   4.746  0.8739  1.0938  1.0309
  108SAPE  H12Y11193   3.168   4.649   4.752  0.1694 -2.3613  0.1736
  108SAPE  C31311194   3.047   4.622   4.924  0.4103  0.0438 -0.2330
  108SAPE  H13X11195   3.142   4.625   4.983 -0.1917  0.0409  0.7567
  108SAPE  H13Y11196   3.001   4.525   4.953  0.1756  0.8523  2.3923
  108SAPE  C31411197   2.966   4.738   4.973 -0.5391 -0.6217 -0.1818
  108SAPE  H14X11198   2.876   4.745   4.907  0.8154  3.4782 -1.9254
  108SAPE  H14Y11199   3.021   4.829   4.941 -0.3699 -1.4582 -2.4396
  108SAPE  C31511200   2.942   4.725   5.120 -0.7369  0.0213  0.9904
  108SAPE  H15X11201   3.038   4.679   5.151 -0.8215 -2.3661 -1.8276
  108SAPE  H15Y11202   2.858   4.657   5.146 -0.6926 -0.8002 -0.7976
  108SAPE  C31611203   2.937   4.866   5.192  0.0637  0.2217 -0.1666
  108SAPE  H16X11204   2.839   4.912   5.169  0.1316 -0.3429 -1.6682
  108SAPE  H16Y11205   3.013   4.930   5.142  0.9983 -0.0212  0.9077
  108SAPE  C31711206   2.956   4.866   5.339  0.1325 -0.1415 -0.3021
  108SAPE  H17X11207   3.021   4.784   5.378 -1.3387 -1.1035  0.2355
  108SAPE  H17Y11208   2.853   4.853   5.380 -1.0011 -1.7892 -3.3623
  108SAPE  C31811209   3.007   5.000   5.393 -0.3442  0.0565 -0.1331
  108SAPE  H18X11210   2.944   5.085   5.359 -0.9749 -0.4190 -0.1607
  108SAPE  H18Y11211   3.106   5.018   5.347 -0.0732  0.6018  0.6323
  108SAPE  H18Z11212   3.017   4.989   5.504 -3.1441  2.5102  0.4891
  109SAPE     N11213   5.932   0.438   2.981  0.3672  0.3950  0.4326
  109SAPE   HN111214   5.865   0.364   2.952  0.4024  0.7934 -0.7007
  109SAPE   HN211215   5.992   0.452   2.898 -1.7156  0.6501 -1.1009
  109SAPE   HN311216   5.993   0.397   3.055 -0.8248 -0.8984  0.7576
  109SAPE   C1211217   5.861   0.562   3.029 -0.2952 -0.3954 -0.2290
  109SAPE  H12A11218   5.834   0.618   2.937 -1.8453 -1.5071 -0.4859
  109SAPE  H12B11219   5.937   0.622   3.084 -1.0616  0.7205 -0.3473
  109SAPE   C1111220   5.751   0.533   3.124 -0.4410 -0.1349 -0.4788
  109SAPE  H11A11221   5.718   0.634   3.155  1.5920  0.5202 -0.2772
  109SAPE  H11B11222   5.794   0.469   3.205  0.2830  1.0083  0.0696
  109SAPE     P11223   5.584   0.328   3.104 -0.5582  0.1158 -0.0913
  109SAPE   O1311224   5.466   0.295   3.020  0.2014 -0.0348 -0.3476
  109SAPE   O1411225   5.692   0.229   3.113  0.0775  0.9921  0.5878
  109SAPE   O1211226   5.643   0.466   3.057 -0.0556 -0.8304 -0.0989
  109SAPE   O1111227   5.537   0.362   3.251 -0.4609 -0.1905  0.2360
  109SAPE    C111228   5.415   0.430   3.281 -0.3499  0.0934 -0.3962
  109SAPE    HA11229   5.363   0.459   3.188 -2.5098  1.6839  1.2047
  109SAPE    HB11230   5.356   0.366   3.351  0.8185 -1.9144 -1.1561
  109SAPE    C211231   5.452   0.569   3.345  0.1729 -0.3105  0.3361
  109SAPE    HS11232   5.519   0.619   3.272  0.2759  0.2237  0.7902
  109SAPE   O2111233   5.515   0.535   3.471  0.0306  0.2332  0.1709
  109SAPE   C2111234   5.606   0.618   3.514  0.1992  0.5554 -0.1826
  109SAPE   O2211235   5.648   0.714   3.456 -0.2416  0.3720 -0.5266
  109SAPE   C2211236   5.650   0.582   3.660  0.5726  0.0229  0.2907
  109SAPE   H2R11237   5.749   0.533   3.665  0.5784 -0.3606 -2.3898
  109SAPE   H2S11238   5.660   0.680   3.713  2.3119 -0.3419  0.6910
  109SAPE    C311239   5.323   0.649   3.374  0.0458  0.1882  0.7567
  109SAPE    HX11240   5.254   0.586   3.434 -0.2909 -0.3313 -0.1488
  109SAPE    HY11241   5.270   0.677   3.281  2.6041  1.9113 -0.2886
  109SAPE   O3111242   5.341   0.770   3.451  0.2515 -0.2145 -0.9159
  109SAPE   C3111243   5.401   0.871   3.379 -0.0054  1.2613  0.2040
  109SAPE   O3211244   5.431   0.858   3.261  0.1518 -0.1882  0.3257
  109SAPE   C3211245   5.421   0.988   3.476  0.1938 -0.5813  0.1105
  109SAPE   H2X11246   5.387   1.078   3.420 -0.4290 -1.9334 -1.7890
  109SAPE   H2Y11247   5.531   0.987   3.492  0.2456 -0.1426 -0.1888
  109SAPE   C2311248   5.556   0.485   3.747 -0.1437  0.5698  0.2368
  109SAPE   H3R11249   5.608   0.456   3.841  0.9589  0.8590 -0.2645
  109SAPE   H3S11250   5.529   0.392   3.693 -1.8283  2.1789 -1.8577
  109SAPE   C2411251   5.420   0.550   3.780  0.2548  0.0995  0.5055
  109SAPE   H4R11252   5.361   0.562   3.686 -1.8086 -0.8446  1.6109
  109SAPE   H4S11253   5.436   0.646   3.833 -2.0084 -0.4667  2.3936
  109SAPE   C2511254   5.337   0.467   3.866  0.6088  0.5448  0.6422
  109SAPE   H5R11255   5.303   0.374   3.818  0.1743  1.2290 -0.4232
  109SAPE   C2611256   5.293   0.487   3.993 -0.4608  0.0313  0.0359
  109SAPE   H6R11257   5.229   0.410   4.038  0.4034 -0.0566  1.1830
  109SAPE   C2711258   5.337   0.603   4.084 -0.7964  0.1451 -0.3095
  109SAPE   H7R11259   5.367   0.696   4.032  2.3783 -0.3613  0.3828
  109SAPE   H7S11260   5.435   0.573   4.128 -0.4765 -0.0648 -1.1537
  109SAPE   C2811261   5.239   0.625   4.194  0.9422  0.0845 -0.4045
  109SAPE   H8R11262   5.178   0.716   4.179  1.9560  0.9016  0.2891
  109SAPE   C2911263   5.231   0.565   4.312 -0.3265 -0.4889  0.3938
  109SAPE   H9R11264   5.152   0.593   4.382 -1.1724 -1.8111  0.0019
  109SAPE  C21011265   5.322   0.453   4.352  0.5404  0.5894  0.5153
  109SAPE  H10R11266   5.349   0.388   4.266 -1.0473 -0.0627  0.4715
  109SAPE  H10S11267   5.270   0.381   4.418  2.9179 -0.3336  1.4946
  109SAPE  C21111268   5.450   0.490   4.415 -0.4566 -0.0966  0.3399
  109SAPE  H11R11269   5.478   0.595   4.395  0.4910 -0.1913  1.0796
  109SAPE  C21211270   5.509   0.434   4.519 -0.0736  0.1074 -0.0461
  109SAPE  H12R11271   5.606   0.475   4.550 -1.4332  2.2697  1.6350
  109SAPE  C21311272   5.467   0.304   4.586  0.6273  0.6889  0.4020
  109SAPE  H13R11273   5.414   0.231   4.521  0.1857 -0.6648  2.2110
  109SAPE  H13S11274   5.386   0.324   4.660  0.3353  0.4350  0.1561
  109SAPE  C21411275   5.591   0.245   4.646  0.1799 -0.0714 -0.0454
  109SAPE  H14R11276   5.605   0.276   4.751 -0.7623 -0.0936  0.0934
  109SAPE  C21511277   5.666   0.143   4.595  0.2941 -0.5319 -0.2319
  109SAPE  H15R11278   5.753   0.111   4.654 -0.2621 -1.3779  0.1510
  109SAPE  C21611279   5.649   0.071   4.461  0.4429  0.6721  0.2864
  109SAPE  H16R11280   5.567   0.109   4.396  0.2662 -0.2204 -0.0379
  109SAPE  H16S11281   5.611  -0.031   4.483  0.5223  0.2263 -1.4454
  109SAPE  C21711282   5.787   0.078   4.387 -0.5968 -0.2629  0.1606
  109SAPE  H17R11283   5.806  -0.006   4.316 -0.6936  0.2512 -0.4864
  109SAPE  H17S11284   5.864   0.060   4.465  1.2401 -0.7490 -1.6657
  109SAPE  C21811285   5.822   0.211   4.311  0.7620 -0.2917  0.4428
  109SAPE  H18R11286   5.926   0.197   4.276  0.5890  0.8729 -0.5801
  109SAPE  H18S11287   5.821   0.301   4.377  2.3747 -0.4433  0.7129
  109SAPE  C21911288   5.724   0.237   4.194  0.1557 -0.3039  0.1290
  109SAPE  H19R11289   5.628   0.211   4.242 -0.7292 -0.9905 -1.9041
  109SAPE  H19S11290   5.742   0.159   4.116  2.6087 -0.2148  0.5306
  109SAPE  C22011291   5.719   0.385   4.144 -0.6054 -0.3755  0.2809
  109SAPE  H20R11292   5.823   0.408   4.113 -1.3992  1.4191 -1.2915
  109SAPE  H20S11293   5.702   0.452   4.231 -1.9063  0.8114 -0.8238
  109SAPE  H20T11294   5.637   0.403   4.070  1.0793  1.5819 -1.2427
  109SAPE   C3311295   5.364   0.971   3.616  0.6074  0.1301 -0.4494
  109SAPE   H3X11296   5.399   0.881   3.671 -1.6044  0.0501  0.9727
  109SAPE   H3Y11297   5.255   0.961   3.597  0.4107 -0.1832  0.7281
  109SAPE   C3411298   5.401   1.093   3.701  0.6154  0.2453  0.3137
  109SAPE   H4X11299   5.386   1.182   3.636 -0.2975 -0.0880  0.0452
  109SAPE   H4Y11300   5.512   1.090   3.710  0.5126 -2.2810  1.5544
  109SAPE   C3511301   5.317   1.099   3.835 -0.5524 -0.4783  0.8696
  109SAPE   H5X11302   5.220   1.053   3.806  0.2349 -0.8599 -1.4103
  109SAPE   H5Y11303   5.288   1.205   3.849 -1.4158 -0.4049 -1.1662
  109SAPE   C3611304   5.381   1.046   3.967  0.0308 -0.5453 -0.2750
  109SAPE   H6X11305   5.486   1.078   3.984  0.9859 -2.1289 -2.6353
  109SAPE   H6Y11306   5.375   0.936   3.956 -1.6374 -0.6023  0.8231
  109SAPE   C3711307   5.297   1.075   4.101  0.5002  0.2897  0.3115
  109SAPE   H7X11308   5.202   1.019   4.083  1.6683 -1.3432 -1.1162
  109SAPE   H7Y11309   5.275   1.184   4.105 -2.8052 -0.1903 -1.0368
  109SAPE   C3811310   5.357   1.021   4.229  0.4668 -0.2378 -0.8220
  109SAPE   H8X11311   5.459   1.064   4.232  0.3700 -0.0486 -0.3229
  109SAPE   H8Y11312   5.359   0.910   4.228  0.8043 -0.2305 -0.9802
  109SAPE   C3911313   5.278   1.059   4.361  0.0565 -0.0055  0.4220
  109SAPE   H9X11314   5.196   0.986   4.344  0.4054 -0.2003 -0.4467
  109SAPE   H9Y11315   5.231   1.159   4.353  0.1961 -0.0127 -0.5451
  109SAPE  C31011316   5.356   1.025   4.489  0.2051  0.1825 -0.2009
  109SAPE  H10X11317   5.460   1.064   4.496  0.4483 -0.6349  1.2473
  109SAPE  H10Y11318   5.369   0.915   4.483  1.0614  0.3152 -1.0014
  109SAPE  C31111319   5.282   1.056   4.619 -0.8290 -0.0520 -0.3273
  109SAPE  H11X11320   5.190   0.995   4.629 -0.6058 -0.9997 -3.1001
  109SAPE  H11Y11321   5.259   1.165   4.612 -1.5107 -0.1738 -0.0046
  109SAPE  C31211322   5.385   1.028   4.734  0.3707 -0.7964  0.9627
  109SAPE  H12X11323   5.477   1.084   4.708 -0.2385  0.0672  0.6205
  109SAPE  H12Y11324   5.398   0.918   4.747  0.6071 -0.8597  0.2034
  109SAPE  C31311325   5.322   1.066   4.867  0.3427  0.8608  0.1347
  109SAPE  H13X11326   5.216   1.030   4.869  0.6423 -0.1487 -0.9339
  109SAPE  H13Y11327   5.322   1.177   4.862 -1.3555  0.8296 -2.7837
  109SAPE  C31411328   5.408   1.027   4.987  0.3508  0.0273 -0.6788
  109SAPE  H14X11329   5.515   1.056   4.980  0.5832 -0.2346  1.2200
  109SAPE  H14Y11330   5.409   0.916   4.992 -0.1255  0.0356 -0.3915
  109SAPE  C31511331   5.368   1.090   5.124 -0.4603  0.1706 -0.5338
  109SAPE  H15X11332   5.263   1.062   5.149  0.0734 -1.4536  0.0160
  109SAPE  H15Y11333   5.391   1.198   5.114 -1.3159  0.3346 -0.8514
  109SAPE  C31611334   5.468   1.040   5.232 -0.4953  0.6551 -0.1870
  109SAPE  H16X11335   5.567   1.083   5.205 -0.1913 -0.1476 -0.3735
  109SAPE  H16Y11336   5.479   0.930   5.237 -1.4377  0.5616 -0.0174
  109SAPE  C31711337   5.425   1.091   5.365 -0.5503  0.1654  0.3291
  109SAPE  H17X11338   5.359   1.021   5.421 -1.6853  0.6869 -0.3428
  109SAPE  H17Y11339   5.352   1.173   5.346  0.1571  0.9551  0.9091
  109SAPE  C31811340   5.541   1.129   5.450  0.6540  0.0699  0.9466
  109SAPE  H18X11341   5.514   1.179   5.546 -0.5337 -0.8524  1.1053
  109SAPE  H18Y11342   5.610   1.206   5.406  0.1420  0.1771  0.3194
  109SAPE  H18Z11343   5.593   1.037   5.485 -1.0918 -0.7424  1.4831
  110SAPE     N11344   5.108   4.678   3.606  0.0718 -0.3342  0.5298
  110SAPE   HN111345   5.069   4.765   3.648  0.4415 -1.3982  3.2962
  110SAPE   HN211346   5.190   4.649   3.662  0.3017  3.3760  2.3740
  110SAPE   HN311347   5.141   4.690   3.508 -1.1732  0.4188  0.1666
  110SAPE   C1211348   4.999   4.579   3.619  1.0039 -0.0196 -0.2374
  110SAPE  H12A11349   4.986   4.557   3.727  4.0994  0.5873  0.3548
  110SAPE  H12B11350   5.024   4.485   3.564 -1.3291 -2.0051  1.8647
  110SAPE   C1111351   4.872   4.643   3.557 -0.8158 -0.5511 -0.6475
  110SAPE  H11A11352   4.850   4.746   3.591  2.1905 -0.4663  1.4021
  110SAPE  H11B11353   4.792   4.582   3.605 -0.5680  1.1140  2.0518
  110SAPE     P11354   4.809   4.515   3.335 -0.0957 -0.1540  0.1553
  110SAPE   O1311355   4.674   4.550   3.290  0.2854  0.2599  0.2877
  110SAPE   O1411356   4.905   4.484   3.226  0.2509 -0.4247 -0.0332
  110SAPE   O1211357   4.880   4.634   3.413 -0.4530  0.5432 -0.9410
  110SAPE   O1111358   4.801   4.401   3.448  0.7774  0.8564 -0.6813
  110SAPE    C111359   4.730   4.280   3.404  0.1212 -0.5046 -0.0238
  110SAPE    HA11360   4.621   4.302   3.407  0.5527  1.7662  1.4506
  110SAPE    HB11361   4.755   4.250   3.300  0.8294 -0.6220  0.1729
  110SAPE    C211362   4.755   4.156   3.502  0.0940  0.6630 -0.7796
  110SAPE    HS11363   4.693   4.075   3.457  1.7418 -1.1034 -0.0442
  110SAPE   O2111364   4.717   4.201   3.635 -0.1409  0.1117  0.1755
  110SAPE   C2111365   4.698   4.101   3.717  0.6948 -0.8846 -0.0958
  110SAPE   O2211366   4.682   3.984   3.679  0.2073  0.2996  0.4599
  110SAPE   C2211367   4.687   4.159   3.858 -0.0186  0.0853  0.2424
  110SAPE   H2R11368   4.793   4.173   3.888  0.4224  0.7364 -1.5158
  110SAPE   H2S11369   4.630   4.254   3.851  1.9775  1.3799  0.7337
  110SAPE    C311370   4.903   4.110   3.505 -0.1899 -0.0987 -0.0258
  110SAPE    HX11371   4.935   4.136   3.402  2.0621  1.6177  1.0192
  110SAPE    HY11372   4.955   4.174   3.580  0.2506  0.4586 -0.7910
  110SAPE   O3111373   4.910   3.966   3.528 -0.6598 -0.0207  0.5792
  110SAPE   C3111374   5.031   3.918   3.540  0.7181  0.4234 -0.4318
  110SAPE   O3211375   5.130   3.984   3.529 -0.1074  0.2048 -0.1599
  110SAPE   C3211376   5.025   3.774   3.588  0.6092 -0.0078 -0.0726
  110SAPE   H2X11377   5.126   3.731   3.602  0.9174  0.1906 -1.5298
  110SAPE   H2Y11378   4.983   3.700   3.517 -1.2464  1.1885 -0.2792
  110SAPE   C2311379   4.606   4.064   3.949  0.4324 -0.1759 -0.4987
  110SAPE   H3R11380   4.651   3.966   3.977 -0.7362 -0.3385  0.9411
  110SAPE   H3S11381   4.509   4.043   3.899 -0.0497  0.0378  0.3224
  110SAPE   C2411382   4.564   4.121   4.085 -0.7375  0.0461  0.2666
  110SAPE   H4R11383   4.479   4.058   4.118 -1.0823 -0.3110 -1.2228
  110SAPE   H4S11384   4.529   4.224   4.068 -2.0552 -0.6262 -1.3227
  110SAPE   C2511385   4.677   4.113   4.179 -0.8783 -0.1883 -0.7899
  110SAPE   H5R11386   4.780   4.131   4.146  1.0464 -1.5986  3.7221
  110SAPE   C2611387   4.668   4.080   4.310  0.1735  0.4097 -0.2444
  110SAPE   H6R11388   4.760   4.081   4.371  0.5065 -1.9481 -0.6127
  110SAPE   C2711389   4.536   4.057   4.379 -0.3007 -0.0218  0.1311
  110SAPE   H7R11390   4.562   3.991   4.465  0.0290 -1.7002 -1.2005
  110SAPE   H7S11391   4.460   3.994   4.328  1.3802 -2.5273  0.5199
  110SAPE   C2811392   4.476   4.182   4.415  0.2480 -0.2818  0.1333
  110SAPE   H8R11393   4.440   4.250   4.336 -2.7272 -0.3272  1.3457
  110SAPE   C2911394   4.446   4.229   4.532  0.0014 -0.1315  0.1824
  110SAPE   H9R11395   4.412   4.333   4.544 -1.2986 -0.5355  0.1089
  110SAPE  C21011396   4.469   4.153   4.659  0.2408  0.3332  0.0483
  110SAPE  H10R11397   4.558   4.088   4.650  0.2534  0.4452 -0.7241
  110SAPE  H10S11398   4.384   4.083   4.670 -0.4849  1.1127 -0.4235
  110SAPE  C21111399   4.479   4.245   4.783  0.8121  0.8195  0.8240
  110SAPE  H11R11400   4.576   4.293   4.803  1.1328 -0.5010  2.6588
  110SAPE  C21211401   4.385   4.239   4.880 -0.0900 -0.0697 -0.2848
  110SAPE  H12R11402   4.408   4.291   4.974 -0.0682  1.2281 -0.9852
  110SAPE  C21311403   4.248   4.172   4.866  0.5135  0.2811 -0.2828
  110SAPE  H13R11404   4.257   4.062   4.858 -0.6421  0.0618  0.9486
  110SAPE  H13S11405   4.195   4.209   4.776 -0.7426  1.2116  0.7941
  110SAPE  C21411406   4.163   4.202   4.988 -0.0641  0.0042 -0.2805
  110SAPE  H14R11407   4.175   4.304   5.027  1.0557  0.1349 -0.9137
  110SAPE  C21511408   4.079   4.122   5.054  0.1579  0.0807  0.5354
  110SAPE  H15R11409   4.035   4.155   5.149 -1.6075  0.3973 -0.3678
  110SAPE  C21611410   4.059   3.974   5.034  0.3066 -0.4688 -0.1411
  110SAPE  H16R11411   4.023   3.918   5.123 -0.2832 -1.7776 -1.1662
  110SAPE  H16S11412   4.148   3.918   4.999 -0.2813 -0.4694 -1.7255
  110SAPE  C21711413   3.954   3.961   4.918 -0.1195  0.6485 -0.2813
  110SAPE  H17R11414   3.996   3.972   4.816 -1.3651 -3.4997 -1.4418
  110SAPE  H17S11415   3.881   4.044   4.930 -0.5881  0.6631 -2.6708
  110SAPE  C21811416   3.891   3.820   4.922  0.4473  0.0187  0.1590
  110SAPE  H18R11417   3.980   3.758   4.946  0.4922  0.5447  1.4357
  110SAPE  H18S11418   3.842   3.796   4.825  2.6357 -0.6175 -0.8571
  110SAPE  C21911419   3.777   3.809   5.024 -1.0769 -0.9332  0.0391
  110SAPE  H19R11420   3.688   3.862   4.983  0.0448 -0.3108 -1.7167
  110SAPE  H19S11421   3.807   3.851   5.122 -0.8591 -0.0103 -0.4149
  110SAPE  C22011422   3.738   3.661   5.041  0.3575  1.0444 -0.4163
  110SAPE  H20R11423   3.723   3.615   4.941  0.3020  0.5273 -0.1723
  110SAPE  H20S11424   3.644   3.658   5.099  0.3878 -1.0620 -0.3889
  110SAPE  H20T11425   3.818   3.601   5.089 -2.0657 -2.6110 -0.5316
  110SAPE   C3311426   4.935   3.756   3.722 -0.3475 -0.2041 -0.0563
  110SAPE   H3X11427   4.934   3.647   3.744  1.2210  0.0935  1.7416
  110SAPE   H3Y11428   4.840   3.804   3.692 -0.0014  0.5525  0.0424
  110SAPE   C3411429   4.998   3.825   3.840  0.5279  0.2289  0.2690
  110SAPE   H4X11430   4.990   3.935   3.828  0.9283  0.2512  0.1709
  110SAPE   H4Y11431   5.105   3.798   3.852  0.7029  1.4117  1.6121
  110SAPE   C3511432   4.924   3.795   3.970 -0.1241 -0.2092 -0.2802
  110SAPE   H5X11433   4.913   3.684   3.975  0.2106 -0.1908  1.9603
  110SAPE   H5Y11434   4.820   3.833   3.973  0.4742  1.5598 -0.9660
  110SAPE   C3611435   5.002   3.851   4.094  0.3476  0.0290 -1.1549
  110SAPE   H6X11436   5.010   3.961   4.104  0.5157  0.1297 -2.3115
  110SAPE   H6Y11437   5.101   3.800   4.090  0.2823 -0.5605  1.8315
  110SAPE   C3711438   4.945   3.795   4.228 -0.0752  0.8367  0.0745
  110SAPE   H7X11439   4.967   3.687   4.227 -1.9318  0.4060 -1.6353
  110SAPE   H7Y11440   4.839   3.828   4.237 -0.0849  0.4093  1.8377
  110SAPE   C3811441   5.006   3.863   4.348  1.1259 -0.8294 -0.0788
  110SAPE   H8X11442   4.995   3.971   4.325  1.8238 -0.7589 -0.0851
  110SAPE   H8Y11443   5.116   3.848   4.344  0.8471 -3.0401 -2.0300
  110SAPE   C3911444   4.945   3.815   4.478  0.1278  0.4439 -0.4613
  110SAPE   H9X11445   4.952   3.704   4.484  0.3709  0.5422  3.4618
  110SAPE   H9Y11446   4.836   3.829   4.490  0.1989  0.2577  0.5112
  110SAPE  C31011447   5.005   3.892   4.599 -0.3056  0.1585  0.5011
  110SAPE  H10X11448   4.972   3.995   4.573  2.5704  0.9816 -0.2486
  110SAPE  H10Y11449   5.115   3.889   4.618 -0.5984 -0.2605  2.2744
  110SAPE  C31111450   4.945   3.835   4.726 -0.1510  0.3248 -0.4512
  110SAPE  H11X11451   4.938   3.725   4.714  0.0230  0.1551  0.7977
  110SAPE  H11Y11452   4.841   3.872   4.727  0.0241  0.9020 -1.5814
  110SAPE  C31211453   5.021   3.879   4.854 -0.4805 -0.1964 -0.5325
  110SAPE  H12X11454   5.049   3.986   4.844 -0.7282 -0.0000  0.6758
  110SAPE  H12Y11455   5.118   3.824   4.853 -0.5059 -0.2710  0.4039
  110SAPE  C31311456   4.962   3.860   4.997 -0.3093  0.8076 -0.1387
  110SAPE  H13X11457   5.017   3.889   5.088 -1.7110 -0.0215  1.0122
  110SAPE  H13Y11458   4.949   3.751   5.013 -2.8877  1.1171  0.3560
  110SAPE  C31411459   4.820   3.920   5.007  0.0463 -0.5375 -0.0892
  110SAPE  H14X11460   4.744   3.855   4.958  0.1845 -1.1158  0.4532
  110SAPE  H14Y11461   4.825   4.020   4.960 -0.2054 -1.1476 -1.4578
  110SAPE  C31511462   4.780   3.945   5.151  1.0389 -0.1454 -0.1976
  110SAPE  H15X11463   4.831   4.030   5.202 -0.0884  0.2089  0.3910
  110SAPE  H15Y11464   4.794   3.853   5.211 -1.8884 -0.6971 -0.2037
  110SAPE  C31611465   4.634   3.981   5.168  0.5411  1.4078 -0.4697
  110SAPE  H16X11466   4.579   3.888   5.190  1.0719  1.1426 -0.2473
  110SAPE  H16Y11467   4.594   4.020   5.072 -3.6533 -1.0714  0.0122
  110SAPE  C31711468   4.594   4.075   5.286  0.1961  0.1135  0.0933
  110SAPE  H17X11469   4.651   4.046   5.377 -0.1817  1.4660  0.7939
  110SAPE  H17Y11470   4.489   4.079   5.321  0.7185 -1.7319  2.1037
  110SAPE  C31811471   4.629   4.225   5.266  0.1810 -0.8235 -0.4068
  110SAPE  H18X11472   4.719   4.233   5.201 -0.4882 -2.7361 -1.6563
  110SAPE  H18Y11473   4.643   4.283   5.360  0.1901  4.2007 -3.1709
  110SAPE  H18Z11474   4.537   4.263   5.217 -0.0570  1.3800  1.5903
  111SAPE     N11475   4.798   0.168   3.739  0.6193 -0.2503  0.1767
  111SAPE   HN111476   4.716   0.164   3.676  0.7387 -2.3154  0.0623
  111SAPE   HN211477   4.820   0.268   3.753 -1.7070  0.2876  0.4720
  111SAPE   HN311478   4.875   0.132   3.680  1.6488 -2.1335  2.5046
  111SAPE   C1211479   4.780   0.069   3.851 -0.2889 -0.5041  0.1626
  111SAPE  H12A11480   4.719   0.121   3.928 -0.3454  1.2631 -1.0326
  111SAPE  H12B11481   4.882   0.069   3.893  0.8815  1.5488 -2.4116
  111SAPE   C1111482   4.735  -0.071   3.810 -0.3133  0.0238  0.5098
  111SAPE  H11A11483   4.761  -0.139   3.893 -0.8208  1.6384  2.0664
  111SAPE  H11B11484   4.797  -0.114   3.729  0.5391  3.1684 -0.6375
  111SAPE     P11485   4.533  -0.209   3.722 -0.7139  0.3049  0.1946
  111SAPE   O1311486   4.392  -0.185   3.686 -0.1740 -0.5304 -0.3437
  111SAPE   O1411487   4.616  -0.262   3.616 -0.2155 -0.3464  0.0725
  111SAPE   O1211488   4.600  -0.075   3.777  0.1182 -0.3823  0.1587
  111SAPE   O1111489   4.547  -0.309   3.843  0.2621  0.1935  0.4055
  111SAPE    C111490   4.460  -0.301   3.953 -0.3970  0.1170  0.4468
  111SAPE    HA11491   4.365  -0.247   3.939 -0.4479 -0.3984 -1.5669
  111SAPE    HB11492   4.433  -0.406   3.978  1.6426 -0.7147 -0.5211
  111SAPE    C211493   4.534  -0.248   4.084  0.4788 -1.0092 -0.2277
  111SAPE    HS11494   4.553  -0.143   4.052 -1.8892 -0.2643  0.6112
  111SAPE   O2111495   4.651  -0.324   4.123 -0.0963 -0.7521  0.2807
  111SAPE   C2111496   4.738  -0.254   4.189 -0.1187  0.5666 -0.0406
  111SAPE   O2211497   4.736  -0.133   4.209  0.0604  0.0021 -0.0472
  111SAPE   C2211498   4.839  -0.350   4.253 -0.4126  0.3811 -0.0307
  111SAPE   H2R11499   4.879  -0.416   4.173 -1.1500 -0.3983  0.2236
  111SAPE   H2S11500   4.919  -0.279   4.282 -0.7351  0.8376 -0.2329
  111SAPE    C311501   4.444  -0.232   4.207 -0.3769 -0.3689  0.0354
  111SAPE    HX11502   4.363  -0.162   4.181 -1.3084 -1.3130  0.3178
  111SAPE    HY11503   4.496  -0.179   4.289 -0.0156 -1.9152  0.8520
  111SAPE   O3111504   4.396  -0.354   4.260  0.9043  0.2208 -0.0937
  111SAPE   C3111505   4.276  -0.397   4.235  0.1728  0.0716 -0.4603
  111SAPE   O3211506   4.195  -0.338   4.172  0.5635  0.1362  0.5607
  111SAPE   C3211507   4.251  -0.528   4.303  0.0788 -0.0422 -0.1249
  111SAPE   H2X11508   4.251  -0.618   4.238 -0.3767  0.2562 -0.5409
  111SAPE   H2Y11509   4.158  -0.519   4.362 -0.3950 -1.4628 -0.6185
  111SAPE   C2311510   4.796  -0.438   4.375 -0.1134  0.2729  0.2387
  111SAPE   H3R11511   4.877  -0.512   4.385  0.3199  0.8206  0.8435
  111SAPE   H3S11512   4.695  -0.472   4.342  0.1771 -0.1649 -0.2080
  111SAPE   C2411513   4.779  -0.367   4.504  0.3660 -1.2350  0.0563
  111SAPE   H4R11514   4.695  -0.294   4.495  2.4370  1.4910  1.1479
  111SAPE   H4S11515   4.874  -0.318   4.536 -0.8123  0.1423  1.6872
  111SAPE   C2511516   4.742  -0.470   4.607  0.7716 -0.1371 -0.6222
  111SAPE   H5R11517   4.636  -0.499   4.610  1.4801 -3.2186 -1.7421
  111SAPE   C2611518   4.826  -0.525   4.695  0.3102  0.4052  0.3494
  111SAPE   H6R11519   4.783  -0.600   4.763  1.6039  0.2818  1.0660
  111SAPE   C2711520   4.972  -0.500   4.706  0.1760 -0.1260  0.1750
  111SAPE   H7R11521   4.991  -0.417   4.778 -1.8973  1.3228 -0.8496
  111SAPE   H7S11522   5.007  -0.463   4.608 -1.3157 -2.0397 -1.1471
  111SAPE   C2811523   5.068  -0.620   4.744  0.1542 -0.3849  0.1906
  111SAPE   H8R11524   5.091  -0.696   4.669 -0.7541  0.9926 -1.5682
  111SAPE   C2911525   5.119  -0.650   4.864  0.9975  0.2163  0.1972
  111SAPE   H9R11526   5.182  -0.741   4.866  1.3429  0.4647  0.9361
  111SAPE  C21011527   5.101  -0.584   5.003 -0.1132 -0.4786  0.9595
  111SAPE  H10R11528   5.044  -0.650   5.071 -1.9347  0.8076  0.7422
  111SAPE  H10S11529   5.035  -0.495   4.995  0.0043 -0.5502 -2.9782
  111SAPE  C21111530   5.229  -0.534   5.057 -0.7243 -0.0371  0.1744
  111SAPE  H11R11531   5.279  -0.470   4.984 -0.8616  0.3468  0.4137
  111SAPE  C21211532   5.269  -0.528   5.185  0.6214  0.3631 -0.0740
  111SAPE  H12R11533   5.367  -0.486   5.214  1.0401 -0.3314 -0.4576
  111SAPE  C21311534   5.205  -0.612   5.294  0.6210  0.0297 -0.4839
  111SAPE  H13R11535   5.224  -0.720   5.277 -3.3498 -0.8896  0.0262
  111SAPE  H13S11536   5.095  -0.612   5.283  0.6141 -2.1996 -0.7631
  111SAPE  C21411537   5.250  -0.576   5.431 -0.2544  0.5525 -1.2312
  111SAPE  H14R11538   5.359  -0.576   5.448 -0.5999 -1.7099  1.9190
  111SAPE  C21511539   5.172  -0.553   5.537  0.3127 -0.2988 -0.3442
  111SAPE  H15R11540   5.218  -0.529   5.634  0.6493  3.0681 -1.2304
  111SAPE  C21611541   5.021  -0.543   5.547 -0.1514 -0.3686  0.4132
  111SAPE  H16R11542   4.972  -0.643   5.550 -1.3586  0.1869 -0.3233
  111SAPE  H16S11543   4.984  -0.503   5.451 -0.6503 -1.2498  0.2281
  111SAPE  C21711544   4.958  -0.454   5.657  0.3967  0.6511 -0.2425
  111SAPE  H17R11545   4.850  -0.478   5.652  0.8223 -1.2015 -2.3009
  111SAPE  H17S11546   4.989  -0.350   5.638  1.6298  0.1243 -1.2702
  111SAPE  C21811547   4.992  -0.500   5.798 -0.7206  0.1733 -0.8163
  111SAPE  H18R11548   4.974  -0.420   5.873  0.9228 -1.6558  1.6914
  111SAPE  H18S11549   5.096  -0.536   5.809 -0.2933  1.7973  0.9715
  111SAPE  C21911550   4.896  -0.610   5.862  0.2697 -0.3641  0.0764
  111SAPE  H19R11551   4.896  -0.703   5.803 -1.6425  1.6971 -3.5298
  111SAPE  H19S11552   4.798  -0.562   5.841  0.6776  0.3247 -0.2803
  111SAPE  C22011553   4.921  -0.636   6.013  1.0217  0.1559 -0.5846
  111SAPE  H20R11554   4.876  -0.559   6.080 -2.5288 -2.7458  0.6846
  111SAPE  H20S11555   5.030  -0.652   6.024  1.2523 -0.1024 -2.7727
  111SAPE  H20T11556   4.872  -0.730   6.044 -0.3363  0.9473 -0.2318
  111SAPE   C3311557   4.358  -0.549   4.417  0.7425  0.4304  0.4521
  111SAPE   H3X11558   4.374  -0.455   4.473 -1.9597  0.0139  2.1196
  111SAPE   H3Y11559   4.456  -0.592   4.386  0.0883 -1.1339  0.4411
  111SAPE   C3411560   4.312  -0.656   4.508 -0.2960  0.5377 -1.0037
  111SAPE   H4X11561   4.304  -0.742   4.439  2.5259 -0.1323 -0.6149
  111SAPE   H4Y11562   4.205  -0.632   4.529  0.3097  2.5669  0.0533
  111SAPE   C3511563   4.398  -0.684   4.629  0.1723  0.0793 -0.8170
  111SAPE   H5X11564   4.422  -0.586   4.675  0.8062  0.7037 -2.3863
  111SAPE   H5Y11565   4.495  -0.717   4.585 -0.1246 -0.4123 -1.1079
  111SAPE   C3611566   4.335  -0.775   4.743 -0.8248  0.3070 -0.4992
  111SAPE   H6X11567   4.309  -0.875   4.701  0.8336 -0.7913  0.9699
  111SAPE   H6Y11568   4.247  -0.728   4.793 -1.1372 -1.3495  0.5680
  111SAPE   C3711569   4.437  -0.808   4.855  0.5927  0.7237  0.0419
  111SAPE   H7X11570   4.523  -0.863   4.811  0.3127 -1.1763  1.7206
  111SAPE   H7Y11571   4.373  -0.863   4.927 -0.8374  2.6566  0.3284
  111SAPE   C3811572   4.492  -0.692   4.939  1.0647 -0.7208 -0.3201
  111SAPE   H8X11573   4.407  -0.657   5.002 -0.4241  1.3708 -3.2686
  111SAPE   H8Y11574   4.528  -0.599   4.891 -0.1302  0.8129  1.6154
  111SAPE   C3911575   4.601  -0.732   5.037 -0.1816  0.5422  0.4415
  111SAPE   H9X11576   4.673  -0.788   4.974 -0.3970  0.2319  0.4678
  111SAPE   H9Y11577   4.562  -0.803   5.113  0.4675  0.4606  0.7005
  111SAPE  C31011578   4.671  -0.614   5.112 -0.0940  0.1605  0.4860
  111SAPE  H10X11579   4.594  -0.549   5.160 -1.0860  2.0123 -3.1911
  111SAPE  H10Y11580   4.719  -0.561   5.027 -2.5312  0.3730 -0.8392
  111SAPE  C31111581   4.771  -0.659   5.223  0.0626 -0.3863  0.1059
  111SAPE  H11X11582   4.858  -0.590   5.227 -0.8602  0.8693 -0.4591
  111SAPE  H11Y11583   4.812  -0.760   5.205  1.5980  0.3155 -0.4532
  111SAPE  C31211584   4.704  -0.646   5.364 -0.1421 -0.5607  0.1037
  111SAPE  H12X11585   4.596  -0.628   5.348  0.2239  1.8653  0.0794
  111SAPE  H12Y11586   4.746  -0.559   5.418  0.5562 -0.7468 -0.1251
  111SAPE  C31311587   4.714  -0.766   5.459 -0.3424  0.2229 -0.2268
  111SAPE  H13X11588   4.673  -0.747   5.560 -1.3208 -0.1464 -0.5398
  111SAPE  H13Y11589   4.821  -0.786   5.482  0.4943 -0.8986 -4.2116
  111SAPE  C31411590   4.646  -0.891   5.402 -0.6387  0.0685 -1.0201
  111SAPE  H14X11591   4.697  -0.915   5.307  0.5748  0.0083 -0.3727
  111SAPE  H14Y11592   4.539  -0.872   5.381 -0.4683 -0.4293 -2.4642
  111SAPE  C31511593   4.647  -1.004   5.505 -0.0255  1.1234 -0.4924
  111SAPE  H15X11594   4.651  -0.968   5.610  1.2994  0.9968 -0.4864
  111SAPE  H15Y11595   4.734  -1.070   5.485 -1.3907 -0.6471 -0.9105
  111SAPE  C31611596   4.529  -1.100   5.489  0.0377 -0.1251 -0.1317
  111SAPE  H16X11597   4.519  -1.124   5.381  1.1136  1.7586 -0.7120
  111SAPE  H16Y11598   4.438  -1.052   5.532 -0.1353  0.8605 -1.5288
  111SAPE  C31711599   4.549  -1.233   5.569  0.2880 -0.2971  0.7213
  111SAPE  H17X11600   4.540  -1.198   5.674  0.9816  0.8518  0.4239
  111SAPE  H17Y11601   4.654  -1.262   5.546 -0.1870  0.5220 -3.3180
  111SAPE  C31811602   4.446  -1.336   5.526  0.4394  0.2077  0.3692
  111SAPE  H18X11603   4.467  -1.418   5.598  0.9973  1.1290  1.2810
  111SAPE  H18Y11604   4.437  -1.360   5.418 -0.8471 -0.5469  0.6184
  111SAPE  H18Z11605   4.344  -1.321   5.567  0.0569 -0.8380 -0.1567
  112SAPE     N11606   2.052   1.924   3.414  0.0571  0.0966 -0.7455
  112SAPE   HN111607   2.087   2.021   3.403 -1.6250  0.6043 -2.0969
  112SAPE   HN211608   2.110   1.879   3.488  0.5560 -1.1448 -1.8440
  112SAPE   HN311609   2.065   1.881   3.320  0.4867  0.2333 -0.7469
  112SAPE   C1211610   1.905   1.929   3.444 -0.0474  0.6360  0.0980
  112SAPE  H12A11611   1.877   2.013   3.512 -1.6414 -1.0955  1.7167
  112SAPE  H12B11612   1.867   1.834   3.488  0.4221  0.6761  0.6043
  112SAPE   C1111613   1.827   1.965   3.316  0.0436 -0.2255 -0.4551
  112SAPE  H11A11614   1.837   2.075   3.302 -1.1125  0.3740  2.7262
  112SAPE  H11B11615   1.722   1.947   3.347  0.6336 -0.6347  1.4663
  112SAPE     P11616   1.821   1.743   3.182 -0.1072  0.1287  0.3646
  112SAPE   O1311617   1.686   1.751   3.121  0.5587  1.3790  0.7045
  112SAPE   O1411618   1.927   1.675   3.108  0.4708  0.0719  0.5980
  112SAPE   O1211619   1.863   1.895   3.204  0.9748  0.3757  0.8240
  112SAPE   O1111620   1.807   1.684   3.325  0.1514 -0.0153 -0.2072
  112SAPE    C111621   1.772   1.554   3.368 -0.8795 -0.2855 -0.0616
  112SAPE    HA11622   1.664   1.544   3.393 -1.2869 -0.5411 -1.7909
  112SAPE    HB11623   1.779   1.474   3.290 -0.8050 -0.8182  0.4856
  112SAPE    C211624   1.859   1.502   3.491  0.1375 -0.0221 -0.5709
  112SAPE    HS11625   1.826   1.404   3.529  0.3312  0.1587  0.0752
  112SAPE   O2111626   1.841   1.598   3.597 -0.2688  0.5458 -0.5368
  112SAPE   C2111627   1.729   1.622   3.652  0.3102  0.2203 -0.6153
  112SAPE   O2211628   1.621   1.570   3.633 -0.3353 -0.5559 -0.4130
  112SAPE   C2211629   1.747   1.738   3.754  0.0706  0.2764  0.1534
  112SAPE   H2R11630   1.707   1.712   3.855 -0.9819  1.4148  0.0536
  112SAPE   H2S11631   1.854   1.764   3.769 -0.0822 -0.3558  2.9501
  112SAPE    C311632   2.003   1.505   3.445  0.1598  0.3997  0.0296
  112SAPE    HX11633   2.036   1.611   3.456 -1.6972  0.7873  2.9114
  112SAPE    HY11634   2.025   1.475   3.340 -0.1591  0.8701 -0.1794
  112SAPE   O3111635   2.081   1.432   3.540 -0.2626  0.4411 -0.0433
  112SAPE   C3111636   2.204   1.421   3.502  0.1252  0.8057 -0.1388
  112SAPE   O3211637   2.262   1.475   3.408 -0.3738  0.3550 -0.3017
  112SAPE   C3211638   2.288   1.344   3.605 -0.3930 -0.5594 -0.0794
  112SAPE   H2X11639   2.381   1.404   3.611 -1.1719  0.6950 -0.1183
  112SAPE   H2Y11640   2.297   1.241   3.563  0.2185 -0.1532 -0.9563
  112SAPE   C2311641   1.659   1.859   3.709  0.4748 -0.0974  0.1269
  112SAPE   H3R11642   1.556   1.820   3.718  0.6047 -0.3337  0.6157
  112SAPE   H3S11643   1.695   1.880   3.606  2.0420 -2.0497  0.2224
  112SAPE   C2411644   1.675   1.982   3.798  0.2183 -0.0102 -0.0652
  112SAPE   H4R11645   1.621   2.069   3.754 -1.4478 -1.5008 -1.1230
  112SAPE   H4S11646   1.779   2.020   3.801  0.6689 -1.2104  2.1237
  112SAPE   C2511647   1.610   1.958   3.931  0.3935  0.1512 -0.3961
  112SAPE   H5R11648   1.500   1.957   3.924  0.3907  1.1169 -0.5901
  112SAPE   C2611649   1.666   1.955   4.052 -0.9121  0.4717 -0.7706
  112SAPE   H6R11650   1.608   1.945   4.145  4.0828 -2.3053  2.5263
  112SAPE   C2711651   1.812   1.971   4.089  0.2075 -0.3913  0.0907
  112SAPE   H7R11652   1.864   1.883   4.045 -1.4468 -0.1154 -2.6586
  112SAPE   H7S11653   1.822   1.955   4.199 -1.2719 -2.8744 -0.0660
  112SAPE   C2811654   1.866   2.111   4.054 -0.4638  0.0142  0.0314
  112SAPE   H8R11655   1.891   2.129   3.948  1.9057  1.3375  0.7380
  112SAPE   C2911656   1.889   2.209   4.145  0.5985 -0.5583  0.1795
  112SAPE   H9R11657   1.917   2.309   4.107 -0.6466 -0.3250 -0.1865
  112SAPE  C21011658   1.864   2.207   4.296 -0.5513  0.3530 -0.2316
  112SAPE  H10R11659   1.819   2.112   4.333 -0.9192 -0.0658 -1.7204
  112SAPE  H10S11660   1.804   2.292   4.335 -0.4536  0.4606 -0.3153
  112SAPE  C21111661   2.005   2.226   4.356 -0.7599  0.4090  0.9810
  112SAPE  H11R11662   2.076   2.149   4.323 -3.6608 -1.5665 -1.2020
  112SAPE  C21211663   2.047   2.315   4.446  0.1288  0.4707  0.1376
  112SAPE  H12R11664   2.154   2.321   4.473 -0.0205  1.7567  0.5038
  112SAPE  C21311665   1.971   2.431   4.501  0.2186 -0.3197  0.3492
  112SAPE  H13R11666   1.993   2.443   4.609  2.8275  1.9813 -0.3421
  112SAPE  H13S11667   1.862   2.412   4.496  0.1623 -0.0686  0.6139
  112SAPE  C21411668   2.000   2.565   4.430  1.2183 -0.0621  0.0004
  112SAPE  H14R11669   2.096   2.578   4.378  2.3609  1.5613  2.3123
  112SAPE  C21511670   1.906   2.665   4.408 -0.3347 -0.2751  0.3052
  112SAPE  H15R11671   1.943   2.754   4.355  0.9439 -0.2527  1.1698
  112SAPE  C21611672   1.755   2.662   4.451  0.5221 -0.3352 -1.0491
  112SAPE  H16R11673   1.721   2.572   4.507 -1.0226 -1.4478 -3.5691
  112SAPE  H16S11674   1.686   2.669   4.365 -0.0385 -2.6766 -0.8591
  112SAPE  C21711675   1.718   2.783   4.536  0.0034  0.0119 -0.3319
  112SAPE  H17R11676   1.617   2.761   4.575 -0.6451  2.2855 -0.5869
  112SAPE  H17S11677   1.702   2.864   4.462 -0.7691  0.3648  0.2053
  112SAPE  C21811678   1.811   2.820   4.647  0.3042  0.1577  0.9391
  112SAPE  H18R11679   1.892   2.882   4.604 -1.0679  1.1560 -0.3304
  112SAPE  H18S11680   1.851   2.728   4.695  1.5272  0.8505  1.3019
  112SAPE  C21911681   1.747   2.898   4.757 -0.4227  0.0092 -0.0511
  112SAPE  H19R11682   1.645   2.866   4.787  0.5496 -0.6903  2.9538
  112SAPE  H19S11683   1.715   2.997   4.718  2.2754  1.0323  0.1408
  112SAPE  C22011684   1.837   2.896   4.878 -0.1874 -0.4729  0.3054
  112SAPE  H20R11685   1.798   2.954   4.965 -0.2901  0.8601 -0.6069
  112SAPE  H20S11686   1.941   2.924   4.851 -0.0956 -2.2784 -1.4883
  112SAPE  H20T11687   1.841   2.800   4.934  0.2392 -0.2889  0.6013
  112SAPE   C3311688   2.220   1.347   3.750  0.1189  0.6621  0.3494
  112SAPE   H3X11689   2.266   1.278   3.825 -0.6263 -2.1194 -1.5770
  112SAPE   H3Y11690   2.117   1.306   3.749  0.7374 -1.0513 -1.3258
  112SAPE   C3411691   2.232   1.490   3.813  0.1760  0.0279  0.4276
  112SAPE   H4X11692   2.167   1.557   3.752  0.2308 -0.3950 -0.1050
  112SAPE   H4Y11693   2.338   1.522   3.809  0.0834  1.0590  3.6587
  112SAPE   C3511694   2.189   1.498   3.961  0.2994 -0.1711 -0.4158
  112SAPE   H5X11695   2.269   1.454   4.025  0.1893  1.2958  0.7579
  112SAPE   H5Y11696   2.086   1.469   3.988  0.6872 -0.1114  1.2236
  112SAPE   C3611697   2.192   1.644   4.011 -0.5051 -0.1275 -0.7098
  112SAPE   H6X11698   2.107   1.706   3.976 -0.0052  0.5639 -0.7358
  112SAPE   H6Y11699   2.289   1.691   3.982 -0.3323  0.3600  0.6137
  112SAPE   C3711700   2.198   1.672   4.165  0.1710  1.0879 -0.1341
  112SAPE   H7X11701   2.191   1.782   4.183  0.1099  0.5767  3.6349
  112SAPE   H7Y11702   2.298   1.649   4.208  1.4301  0.3054 -3.2141
  112SAPE   C3811703   2.097   1.588   4.236  0.0406  0.2369 -0.1984
  112SAPE   H8X11704   2.110   1.478   4.221 -0.9618 -0.0081  0.6079
  112SAPE   H8Y11705   2.001   1.603   4.182 -0.0279 -0.3589 -0.2509
  112SAPE   C3911706   2.089   1.616   4.385 -0.3148 -1.2025  0.7494
  112SAPE   H9X11707   2.184   1.590   4.435 -0.1147  1.1004  1.6740
  112SAPE   H9Y11708   2.005   1.558   4.430  1.3507 -1.2283  4.0877
  112SAPE  C31011709   2.064   1.768   4.420  0.1473 -0.9013 -0.3128
  112SAPE  H10X11710   1.961   1.781   4.381 -0.2474 -1.1281  0.6153
  112SAPE  H10Y11711   2.127   1.846   4.373 -1.3270  1.1066  0.8774
  112SAPE  C31111712   2.072   1.780   4.570 -0.3421  0.4798  0.3245
  112SAPE  H11X11713   2.171   1.745   4.605 -0.6752  0.4607  1.2804
  112SAPE  H11Y11714   1.994   1.716   4.617  1.0725 -1.8698 -0.3508
  112SAPE  C31211715   2.033   1.926   4.608  0.2688  0.5170  0.2558
  112SAPE  H12X11716   1.929   1.951   4.580  0.8199  0.9982 -1.4944
  112SAPE  H12Y11717   2.089   1.998   4.544 -0.6971  0.4053 -0.7493
  112SAPE  C31311718   2.059   1.944   4.758  0.0880 -0.5059 -0.8470
  112SAPE  H13X11719   2.158   1.905   4.788 -0.4240  0.1374  1.9494
  112SAPE  H13Y11720   1.980   1.885   4.808 -1.2613  1.0755 -1.0293
  112SAPE  C31411721   2.039   2.088   4.811  0.0464 -0.0516  0.7744
  112SAPE  H14X11722   1.950   2.122   4.754  0.0130 -0.2615  0.7013
  112SAPE  H14Y11723   2.128   2.151   4.789 -0.6256  1.6885  2.8100
  112SAPE  C31511724   2.025   2.097   4.965  0.3075  0.2428  0.2094
  112SAPE  H15X11725   2.114   2.050   5.011  0.3122  0.2018  0.1589
  112SAPE  H15Y11726   1.937   2.035   4.993  1.3477 -1.0716  0.6095
  112SAPE  C31611727   2.014   2.237   5.019  0.5392 -0.2310 -0.1868
  112SAPE  H16X11728   2.119   2.273   5.022  0.1604  1.0072 -1.0048
  112SAPE  H16Y11729   1.972   2.226   5.121 -1.1019  0.1177 -0.7877
  112SAPE  C31711730   1.938   2.348   4.936  0.0777  0.6243  0.1161
  112SAPE  H17X11731   1.828   2.346   4.948  0.1124  0.2944  0.3852
  112SAPE  H17Y11732   1.965   2.345   4.828  2.0811 -1.0446  0.6050
  112SAPE  C31811733   1.966   2.488   5.002 -0.9315 -0.3676  0.0969
  112SAPE  H18X11734   1.934   2.486   5.108 -1.7490  0.3580 -0.1271
  112SAPE  H18Y11735   1.913   2.565   4.941 -1.2295  0.1650  1.0125
  112SAPE  H18Z11736   2.074   2.511   4.986 -0.4482 -1.3769  1.7586
  113SAPE     N11737   0.506   3.072   3.383 -0.3854 -0.1693 -0.0785
  113SAPE   HN111738   0.570   3.028   3.451  0.0748 -0.2758 -0.5713
  113SAPE   HN211739   0.432   3.004   3.357 -0.0309 -0.2372 -0.9682
  113SAPE   HN311740   0.549   3.112   3.296 -0.9425  2.5883  0.8010
  113SAPE   C1211741   0.454   3.199   3.447 -0.0158  0.0689 -0.1840
  113SAPE  H12A11742   0.455   3.181   3.557 -0.3622  1.3263  0.0400
  113SAPE  H12B11743   0.351   3.216   3.409 -0.3772 -2.0321 -0.2413
  113SAPE   C1111744   0.549   3.315   3.410  0.1526 -0.2259 -0.2384
  113SAPE  H11A11745   0.652   3.302   3.450 -0.4818 -0.0140  1.5356
  113SAPE  H11B11746   0.518   3.414   3.450  0.5337  0.4720 -1.6042
  113SAPE     P11747   0.610   3.439   3.191  0.0119 -0.4240 -0.1886
  113SAPE   O1311748   0.714   3.395   3.096  0.3592  0.2155 -0.8612
  113SAPE   O1411749   0.490   3.517   3.134 -0.8004  0.2335 -0.3042
  113SAPE   O1211750   0.549   3.316   3.269  0.5450 -0.3579  0.0144
  113SAPE   O1111751   0.679   3.524   3.305 -0.4403 -0.9625  0.1267
  113SAPE    C111752   0.672   3.664   3.322 -0.2080 -0.1102 -0.1202
  113SAPE    HA11753   0.734   3.721   3.250  1.1479 -3.8099 -2.1492
  113SAPE    HB11754   0.566   3.698   3.317 -0.5237 -0.5506  2.3159
  113SAPE    C211755   0.725   3.708   3.461  0.0239  0.7020  0.1061
  113SAPE    HS11756   0.832   3.678   3.471 -0.0811  0.9616  2.9694
  113SAPE   O2111757   0.651   3.653   3.569 -0.8081 -0.0157 -0.6564
  113SAPE   C2111758   0.704   3.548   3.630  0.1757  0.2603 -0.5587
  113SAPE   O2211759   0.807   3.493   3.596 -0.4737 -0.3607  0.1482
  113SAPE   C2211760   0.606   3.492   3.730 -0.9014 -0.6841 -0.2767
  113SAPE   H2R11761   0.581   3.580   3.792  1.8039  0.6827 -0.9900
  113SAPE   H2S11762   0.516   3.466   3.669 -0.7312 -0.1231 -0.7760
  113SAPE    C311763   0.732   3.864   3.467 -0.3780  0.1809 -0.4445
  113SAPE    HX11764   0.635   3.914   3.443  0.3373  1.4296 -0.8640
  113SAPE    HY11765   0.810   3.887   3.390  1.1910  2.3917  1.6598
  113SAPE   O3111766   0.780   3.909   3.597 -0.3133 -0.1225  0.6153
  113SAPE   C3111767   0.900   3.937   3.623  0.1997 -0.2865 -0.0467
  113SAPE   O3211768   0.999   3.921   3.552  0.4570  0.3524 -0.5162
  113SAPE   C3211769   0.911   3.980   3.769 -0.0279 -0.3703  0.7657
  113SAPE   H2X11770   0.808   3.993   3.808 -0.1985  1.7354 -0.2824
  113SAPE   H2Y11771   0.968   4.075   3.779 -0.1507 -0.4195  2.0928
  113SAPE   C2311772   0.646   3.360   3.807 -0.4235 -0.4350  0.6832
  113SAPE   H3R11773   0.749   3.367   3.847 -0.3080  0.6779  0.2168
  113SAPE   H3S11774   0.641   3.277   3.734 -0.8289 -0.9073  1.2434
  113SAPE   C2411775   0.557   3.344   3.934 -0.4435 -0.6478  0.6975
  113SAPE   H4R11776   0.577   3.429   4.002  1.5722  0.1830 -0.8581
  113SAPE   H4S11777   0.586   3.247   3.981  1.8319 -1.1651 -1.5342
  113SAPE   C2511778   0.412   3.340   3.892  0.1068 -0.3062 -0.1089
  113SAPE   H5R11779   0.388   3.275   3.806 -0.5940 -0.8661  0.5034
  113SAPE   C2611780   0.310   3.413   3.941 -0.1928  0.1619 -0.1431
  113SAPE   H6R11781   0.206   3.396   3.908 -0.4440 -0.3762  0.8926
  113SAPE   C2711782   0.323   3.508   4.059 -0.7994  0.9551 -0.4660
  113SAPE   H7R11783   0.428   3.523   4.094 -0.1675 -1.1939 -1.2510
  113SAPE   H7S11784   0.263   3.467   4.142  0.1062 -0.0569 -0.2929
  113SAPE   C2811785   0.264   3.641   4.021  0.5663  0.4749  0.3201
  113SAPE   H8R11786   0.261   3.672   3.915 -0.8538  0.7428  0.4196
  113SAPE   C2911787   0.222   3.739   4.106  1.0003  0.1031 -0.3236
  113SAPE   H9R11788   0.170   3.826   4.061 -0.8277  0.2432  1.8992
  113SAPE  C21011789   0.228   3.734   4.255  0.3763  0.0312 -0.2494
  113SAPE  H10R11790   0.188   3.832   4.290 -0.5490 -0.0313 -1.0879
  113SAPE  H10S11791   0.334   3.743   4.287  0.0159  0.4363  0.8939
  113SAPE  C21111792   0.160   3.628   4.340  0.3246 -0.3576  0.0802
  113SAPE  H11R11793   0.118   3.540   4.288  0.3684 -0.4212  0.1535
  113SAPE  C21211794   0.130   3.618   4.471 -0.2543 -0.1929  0.7899
  113SAPE  H12R11795   0.086   3.524   4.507 -2.1677 -0.4948 -2.1072
  113SAPE  C21311796   0.162   3.711   4.585  0.2764  0.2120  0.3731
  113SAPE  H13R11797   0.084   3.687   4.660 -0.2030 -0.5479 -0.3478
  113SAPE  H13S11798   0.150   3.819   4.561  1.4715  0.0892 -0.9272
  113SAPE  C21411799   0.300   3.687   4.645 -0.7769 -0.6176 -0.1617
  113SAPE  H14R11800   0.384   3.676   4.574 -0.1423 -0.0091  0.4845
  113SAPE  C21511801   0.331   3.674   4.779  0.5261 -0.8552  0.4376
  113SAPE  H15R11802   0.432   3.655   4.818  0.2869  0.4428  1.7992
  113SAPE  C21611803   0.229   3.691   4.890 -0.1658  0.0320 -0.3272
  113SAPE  H16R11804   0.157   3.607   4.899  0.2791 -0.2019  1.3518
  113SAPE  H16S11805   0.163   3.780   4.874  0.1502  0.5118  0.9558
  113SAPE  C21711806   0.307   3.711   5.033  0.2845 -0.1775 -0.1640
  113SAPE  H17R11807   0.349   3.812   5.019 -1.5610  0.4906 -1.3404
  113SAPE  H17S11808   0.385   3.635   5.054 -1.4503 -2.0427 -0.1530
  113SAPE  C21811809   0.212   3.701   5.155 -0.6105 -0.5276 -0.3097
  113SAPE  H18R11810   0.191   3.592   5.164  0.6014 -0.9510 -2.1521
  113SAPE  H18S11811   0.116   3.755   5.140  0.8377  1.4951 -3.2210
  113SAPE  C21911812   0.286   3.728   5.285  0.0908  0.0371  0.5394
  113SAPE  H19R11813   0.339   3.823   5.265  1.8740 -1.1174 -0.4054
  113SAPE  H19S11814   0.358   3.644   5.290  0.8106  0.4665 -1.7002
  113SAPE  C22011815   0.201   3.723   5.411  0.1346 -0.0838  0.4471
  113SAPE  H20R11816   0.103   3.673   5.395  0.2311 -0.0163 -0.4094
  113SAPE  H20S11817   0.191   3.831   5.431  1.6804  0.2584 -0.4407
  113SAPE  H20T11818   0.246   3.675   5.501  0.6474 -1.1105 -0.3302
  113SAPE   C3311819   0.987   3.875   3.842 -0.1459  0.1684 -0.4038
  113SAPE   H3X11820   1.091   3.861   3.805 -0.0360  1.3627 -0.5808
  113SAPE   H3Y11821   0.934   3.778   3.829 -1.5241  0.4582  2.4349
  113SAPE   C3411822   0.976   3.905   3.999  1.1391  0.0540  0.0777
  113SAPE   H4X11823   0.877   3.937   4.037  2.4431  2.6956  1.5889
  113SAPE   H4Y11824   1.059   3.978   4.009  0.9810  0.1319  0.8285
  113SAPE   C3511825   1.021   3.787   4.085  0.0200  0.0403  0.8128
  113SAPE   H5X11826   1.113   3.740   4.043 -0.8864 -2.1934  1.1804
  113SAPE   H5Y11827   0.936   3.716   4.090  1.0626 -1.3249 -0.0631
  113SAPE   C3611828   1.062   3.831   4.221 -0.6243  0.3923  0.1494
  113SAPE   H6X11829   0.978   3.873   4.280 -1.3662 -1.7101  0.6827
  113SAPE   H6Y11830   1.149   3.901   4.219  0.8581 -1.2817  1.9701
  113SAPE   C3711831   1.120   3.711   4.298 -0.0864  0.0650 -0.3162
  113SAPE   H7X11832   1.193   3.660   4.231  1.2094  0.6048  0.6649
  113SAPE   H7Y11833   1.032   3.649   4.326  0.6826 -0.5957  0.7136
  113SAPE   C3811834   1.173   3.750   4.435  0.3379 -0.0079 -0.2879
  113SAPE   H8X11835   1.273   3.797   4.439  0.0412  0.7997 -1.6078
  113SAPE   H8Y11836   1.105   3.830   4.473 -0.2767 -0.5583 -0.1995
  113SAPE   C3911837   1.181   3.643   4.548  0.1220 -0.0772  0.2772
  113SAPE   H9X11838   1.083   3.595   4.567  0.3720 -0.2569  1.1613
  113SAPE   H9Y11839   1.211   3.686   4.646 -0.6222 -1.8377  1.3321
  113SAPE  C31011840   1.272   3.526   4.510  0.0542  0.0774 -0.1421
  113SAPE  H10X11841   1.380   3.554   4.507  0.2059 -0.3867  0.8739
  113SAPE  H10Y11842   1.229   3.497   4.411 -1.1025 -2.8165  1.1102
  113SAPE  C31111843   1.257   3.402   4.599 -0.4873 -0.1163 -0.4277
  113SAPE  H11X11844   1.148   3.381   4.592 -0.5463 -0.2264  0.6497
  113SAPE  H11Y11845   1.286   3.424   4.704 -1.3122 -2.4080  0.3388
  113SAPE  C31211846   1.339   3.280   4.555  0.1153  0.2728 -0.0969
  113SAPE  H12X11847   1.448   3.296   4.540  0.4954 -1.8786  0.1404
  113SAPE  H12Y11848   1.297   3.231   4.464 -1.9544  0.2211  0.8171
  113SAPE  C31311849   1.327   3.171   4.670 -0.6655 -0.0843 -0.1573
  113SAPE  H13X11850   1.368   3.076   4.630  0.7537  0.1677  0.6693
  113SAPE  H13Y11851   1.217   3.156   4.674 -0.6596 -0.0194  0.2800
  113SAPE  C31411852   1.409   3.209   4.798  0.6149 -0.2697  0.1898
  113SAPE  H14X11853   1.367   3.301   4.845  0.6951 -0.6847  1.0986
  113SAPE  H14Y11854   1.511   3.244   4.770  0.8678 -2.4433 -1.9718
  113SAPE  C31511855   1.409   3.099   4.910  0.7458  0.6650  0.2002
  113SAPE  H15X11856   1.489   3.033   4.869 -2.1904 -0.9024 -3.5690
  113SAPE  H15Y11857   1.312   3.045   4.906  0.4188  1.2883 -0.2996
  113SAPE  C31611858   1.414   3.157   5.052 -0.2508  0.3921 -0.1203
  113SAPE  H16X11859   1.411   3.066   5.114  1.7973  0.5117  0.2203
  113SAPE  H16Y11860   1.321   3.215   5.066 -1.3467 -0.8912 -1.6968
  113SAPE  C31711861   1.542   3.241   5.070  0.6069  0.2838 -0.0268
  113SAPE  H17X11862   1.548   3.320   4.992  0.3582  2.5277  2.1111
  113SAPE  H17Y11863   1.628   3.171   5.073 -0.5262 -1.1178  1.5430
  113SAPE  C31811864   1.559   3.307   5.205 -0.6048 -0.0335 -0.6740
  113SAPE  H18X11865   1.581   3.238   5.290  0.2792  1.0104 -0.0255
  113SAPE  H18Y11866   1.464   3.360   5.228 -0.3184  0.0514  0.3832
  113SAPE  H18Z11867   1.637   3.387   5.207  0.9674 -1.5075 -0.4868
  114SAPE     N11868   5.827   6.605   3.551  0.2601 -0.1025  0.4817
  114SAPE   HN111869   5.900   6.679   3.556 -0.4862  0.6953 -0.2137
  114SAPE   HN211870   5.744   6.639   3.602 -0.4109  0.2324 -0.8069
  114SAPE   HN311871   5.853   6.516   3.600 -1.9372 -1.3866 -0.5617
  114SAPE   C1211872   5.791   6.554   3.416  0.6438 -0.7245 -0.2459
  114SAPE  H12A11873   5.882   6.546   3.353  2.7476  1.0307  2.2887
  114SAPE  H12B11874   5.725   6.633   3.374 -0.3948 -1.0345  0.7412
  114SAPE   C1111875   5.734   6.415   3.431 -0.5443 -0.3448  0.2760
  114SAPE  H11A11876   5.798   6.353   3.498  0.1957 -1.1449 -1.1290
  114SAPE  H11B11877   5.743   6.368   3.330  0.7665  0.2960  0.0742
  114SAPE     P11878   5.510   6.288   3.476  0.6642 -0.1870 -0.1633
  114SAPE   O1311879   5.382   6.340   3.419  0.4803 -0.1990 -0.2703
  114SAPE   O1411880   5.587   6.178   3.411 -0.3245 -0.1525  0.2997
  114SAPE   O1211881   5.604   6.420   3.488 -0.2889 -0.5401  0.0434
  114SAPE   O1111882   5.498   6.248   3.625 -0.1122 -0.6402 -0.0678
  114SAPE    C111883   5.443   6.325   3.732  0.4372  0.2689 -1.1453
  114SAPE    HA11884   5.482   6.429   3.728  0.5282  0.4000  1.4513
  114SAPE    HB11885   5.333   6.334   3.720  0.0187 -0.1102  1.5996
  114SAPE    C211886   5.487   6.268   3.874  0.2949 -0.2215  0.2970
  114SAPE    HS11887   5.424   6.179   3.896 -2.5437  1.4684 -0.4845
  114SAPE   O2111888   5.476   6.373   3.970 -0.5982  0.1837  0.1258
  114SAPE   C2111889   5.351   6.413   3.998  0.7955  0.1876  0.6933
  114SAPE   O2211890   5.249   6.371   3.945 -0.0962  0.1033  0.1018
  114SAPE   C2211891   5.361   6.528   4.108  0.0376 -0.3969  0.7743
  114SAPE   H2R11892   5.429   6.492   4.188  0.4600  2.3660  1.7723
  114SAPE   H2S11893   5.396   6.624   4.065  2.4777  0.2802  3.8758
  114SAPE    C311894   5.636   6.231   3.864 -0.2965 -0.4844 -0.0303
  114SAPE    HX11895   5.692   6.321   3.833 -0.1376 -0.9975 -1.2683
  114SAPE    HY11896   5.643   6.152   3.787 -0.4794 -1.3812  0.8516
  114SAPE   O3111897   5.674   6.172   3.995 -0.3861 -0.6391 -0.1470
  114SAPE   C3111898   5.806   6.170   4.013  0.1605  1.2260 -0.0724
  114SAPE   O3211899   5.887   6.199   3.926  0.2122 -0.1109  0.1449
  114SAPE   C3211900   5.834   6.105   4.150  0.1423 -0.1107  0.5387
  114SAPE   H2X11901   5.835   5.995   4.134 -1.3003  0.1003 -1.2979
  114SAPE   H2Y11902   5.763   6.141   4.228  2.0253 -0.0242  2.3035
  114SAPE   C2311903   5.213   6.538   4.167 -0.3762  0.2810 -0.6649
  114SAPE   H3R11904   5.159   6.444   4.191 -1.3514  1.0772  0.3859
  114SAPE   H3S11905   5.153   6.594   4.092  0.2176  1.2726 -0.4183
  114SAPE   C2411906   5.208   6.629   4.296 -0.2263  0.0919 -0.2761
  114SAPE   H4R11907   5.102   6.647   4.323  0.6581  2.5987  2.0300
  114SAPE   H4S11908   5.256   6.727   4.272 -0.0588  0.3099  0.8732
  114SAPE   C2511909   5.283   6.564   4.403  0.6328 -0.0418  0.3040
  114SAPE   H5R11910   5.300   6.456   4.391  2.2354  0.3377 -1.3977
  114SAPE   C2611911   5.336   6.636   4.512  0.3963  0.3617  0.3064
  114SAPE   H6R11912   5.380   6.569   4.588 -0.0434  1.3325  1.4598
  114SAPE   C2711913   5.330   6.780   4.534 -0.0198 -0.2621  0.5136
  114SAPE   H7R11914   5.224   6.814   4.529 -0.5943 -2.1015 -1.7830
  114SAPE   H7S11915   5.386   6.831   4.452 -1.4598  1.1645  0.3794
  114SAPE   C2811916   5.372   6.816   4.667 -0.5697 -0.1067  0.2602
  114SAPE   H8R11917   5.421   6.734   4.722  1.1708 -1.2035 -2.7386
  114SAPE   C2911918   5.325   6.922   4.731  0.2426  0.2710 -0.0921
  114SAPE   H9R11919   5.338   6.931   4.839 -0.8043  1.5504 -0.0510
  114SAPE  C21011920   5.250   7.039   4.668  0.1013  0.6013  0.1831
  114SAPE  H10R11921   5.284   7.042   4.562 -1.1541 -0.9314 -0.2957
  114SAPE  H10S11922   5.301   7.128   4.710  0.4427 -0.0445  1.1648
  114SAPE  C21111923   5.101   7.028   4.659 -0.1497 -0.8713 -0.4689
  114SAPE  H11R11924   5.062   6.962   4.580 -0.6310 -0.9875 -0.1355
  114SAPE  C21211925   5.028   7.117   4.727 -0.0953 -0.1209 -0.3710
  114SAPE  H12R11926   4.920   7.125   4.711 -0.9918 -1.1633  3.8272
  114SAPE  C21311927   5.080   7.227   4.823  0.2852  0.1883  0.5891
  114SAPE  H13R11928   4.999   7.293   4.860 -1.7418 -1.2942 -0.9394
  114SAPE  H13S11929   5.153   7.294   4.775  1.9272 -2.5011 -0.9165
  114SAPE  C21411930   5.149   7.182   4.942 -0.1483 -0.0527 -0.8757
  114SAPE  H14R11931   5.109   7.101   5.005 -0.3955  0.0446 -0.9084
  114SAPE  C21511932   5.264   7.231   4.988 -0.2358 -0.1132  0.1282
  114SAPE  H15R11933   5.314   7.183   5.074  1.0546  2.0752  0.6899
  114SAPE  C21611934   5.345   7.349   4.947 -0.3558 -0.2111  1.0302
  114SAPE  H16R11935   5.294   7.411   4.870  2.6886  0.1114 -0.8912
  114SAPE  H16S11936   5.438   7.325   4.892  0.8862  4.2407  0.8089
  114SAPE  C21711937   5.385   7.447   5.065 -0.3041  0.0040  0.4125
  114SAPE  H17R11938   5.284   7.488   5.086 -0.7006 -0.5035 -0.4698
  114SAPE  H17S11939   5.446   7.525   5.014 -0.1097 -0.6016 -0.3009
  114SAPE  C21811940   5.448   7.403   5.195  0.0452 -0.4607 -0.2198
  114SAPE  H18R11941   5.542   7.352   5.165  0.7158  1.6139 -1.9271
  114SAPE  H18S11942   5.376   7.340   5.252  0.1850 -0.7950 -0.4129
  114SAPE  C21911943   5.484   7.518   5.287  0.9673  0.3014 -0.9391
  114SAPE  H19R11944   5.391   7.577   5.301  0.4323 -0.4858 -1.1302
  114SAPE  H19S11945   5.558   7.584   5.237  2.1761 -0.6545 -0.4579
  114SAPE  C22011946   5.549   7.466   5.414  0.2689  0.7572  0.1063
  114SAPE  H20R11947   5.625   7.390   5.384 -1.7984 -0.8235 -1.4756
  114SAPE  H20S11948   5.481   7.405   5.478  1.9805 -3.4131 -1.6566
  114SAPE  H20T11949   5.594   7.552   5.467  2.6645 -0.7838  0.7168
  114SAPE   C3311950   5.979   6.139   4.198  0.4424  0.0214 -0.0845
  114SAPE   H3X11951   5.994   6.247   4.220  0.9846 -0.2038  0.6869
  114SAPE   H3Y11952   6.051   6.116   4.117  0.9798  0.0098  0.3944
  114SAPE   C3411953   6.020   6.047   4.323 -0.2002 -0.7523 -0.1011
  114SAPE   H4X11954   6.131   6.051   4.333 -0.1509 -1.4082 -0.3588
  114SAPE   H4Y11955   5.990   5.943   4.300 -1.5761 -0.0761 -1.5911
  114SAPE   C3511956   5.960   6.092   4.456 -0.5188 -0.8537 -0.7180
  114SAPE   H5X11957   5.853   6.062   4.456 -0.5104 -0.9066  0.0669
  114SAPE   H5Y11958   5.952   6.202   4.468  1.2653 -0.8985  1.5315
  114SAPE   C3611959   6.029   6.039   4.583  0.1799 -0.1089  0.4205
  114SAPE   H6X11960   6.132   6.078   4.580  0.6273 -1.1828 -3.2876
  114SAPE   H6Y11961   6.044   5.929   4.582  1.1344 -0.0423  2.1967
  114SAPE   C3711962   5.963   6.081   4.716 -0.0594  0.4772 -0.2070
  114SAPE   H7X11963   5.859   6.043   4.714  0.8929 -2.2937 -1.6696
  114SAPE   H7Y11964   5.961   6.190   4.737  0.6416  0.7533 -1.4866
  114SAPE   C3811965   6.036   6.023   4.838  0.2140 -0.0761  0.2045
  114SAPE   H8X11966   6.133   6.075   4.850 -0.0750  0.4709  0.2065
  114SAPE   H8Y11967   6.042   5.913   4.820 -1.8306 -0.1630 -0.3047
  114SAPE   C3911968   5.966   6.037   4.973 -0.6921 -0.2695 -0.0807
  114SAPE   H9X11969   5.870   5.982   4.990 -2.1444  1.6862 -1.5225
  114SAPE   H9Y11970   5.931   6.142   4.980 -0.4086 -0.1455 -0.4635
  114SAPE  C31011971   6.069   5.998   5.090  0.0133 -0.1190  0.0087
  114SAPE  H10X11972   6.164   6.050   5.065  1.7450 -2.7430  0.7234
  114SAPE  H10Y11973   6.077   5.888   5.076  1.0103 -0.2815  1.5948
  114SAPE  C31111974   6.021   6.022   5.235 -0.1448 -0.2986  0.3145
  114SAPE  H11X11975   5.927   5.968   5.260 -1.3407  0.4845 -2.2170
  114SAPE  H11Y11976   6.018   6.130   5.263  0.0772 -0.2279  0.0653
  114SAPE  C31211977   6.123   5.963   5.332 -0.4046  0.1298  0.4869
  114SAPE  H12X11978   6.221   6.014   5.315 -0.0202 -1.0645 -1.0971
  114SAPE  H12Y11979   6.147   5.859   5.302 -2.2097 -0.4577  0.9416
  114SAPE  C31311980   6.073   5.954   5.471 -0.1071 -0.1359 -0.0930
  114SAPE  H13X11981   6.028   6.051   5.503 -0.2254 -0.7907  1.8107
  114SAPE  H13Y11982   6.160   5.951   5.540  0.4580  0.7419 -0.7354
  114SAPE  C31411983   5.988   5.828   5.507 -1.0335 -0.4686 -0.3698
  114SAPE  H14X11984   6.041   5.732   5.489 -0.8873 -0.3678 -0.4886
  114SAPE  H14Y11985   5.901   5.828   5.438  0.2672  0.7306 -2.1052
  114SAPE  C31511986   5.941   5.837   5.654  0.1658 -0.1492  0.0709
  114SAPE  H15X11987   5.865   5.917   5.670 -1.1363 -1.1510 -0.9164
  114SAPE  H15Y11988   6.036   5.848   5.711 -1.0441  1.1524  1.9700
  114SAPE  C31611989   5.874   5.708   5.688 -0.4290  0.2400 -0.0078
  114SAPE  H16X11990   5.803   5.677   5.608 -0.1429 -1.1363  0.2466
  114SAPE  H16Y11991   5.809   5.724   5.776 -1.0432  2.6098 -0.8195
  114SAPE  C31711992   5.975   5.601   5.717 -0.1104  0.6712 -0.0775
  114SAPE  H17X11993   6.039   5.622   5.806 -0.8025 -0.7065  0.7794
  114SAPE  H17Y11994   6.044   5.584   5.631 -1.3200 -0.5337 -0.8396
  114SAPE  C31811995   5.914   5.465   5.742  0.1732  0.4899  0.1636
  114SAPE  H18X11996   5.982   5.393   5.793  0.7301  1.7584  1.2561
  114SAPE  H18Y11997   5.875   5.415   5.651 -0.4038 -1.6444  1.4873
  114SAPE  H18Z11998   5.819   5.467   5.801 -1.3531 -0.1662 -2.1415
  115SAPE     N11999   2.103   6.676   3.346  0.7064  0.9184  0.9545
  115SAPE   HN112000   2.172   6.599   3.339 -0.5068 -0.1150 -0.4100
  115SAPE   HN212001   2.009   6.633   3.362 -0.3176  2.5362 -0.2999
  115SAPE   HN312002   2.093   6.712   3.249 -1.4752  0.2554  0.8732
  115SAPE   C1212003   2.125   6.757   3.467  0.2303 -0.6806  0.4047
  115SAPE  H12A12004   2.225   6.804   3.458  0.0453 -0.6450 -2.4292
  115SAPE  H12B12005   2.117   6.690   3.555 -2.7201  2.0938  2.4739
  115SAPE   C1112006   2.004   6.852   3.478 -0.2165  0.1864 -0.0052
  115SAPE  H11A12007   2.024   6.938   3.411  5.2595 -1.3575 -0.8894
  115SAPE  H11B12008   2.014   6.901   3.578 -0.2534 -1.0647  0.6288
  115SAPE     P12009   1.786   6.740   3.576 -0.0410 -0.0436 -0.4719
  115SAPE   O1312010   1.651   6.720   3.518  0.5341 -0.2293 -0.2592
  115SAPE   O1412011   1.843   6.626   3.655  0.5405 -0.5560  0.1388
  115SAPE   O1212012   1.887   6.787   3.466  0.9416 -0.5286  0.3344
  115SAPE   O1112013   1.791   6.863   3.671 -0.1640 -0.2755 -0.2843
  115SAPE    C112014   1.688   6.960   3.654  0.6699  0.0867  0.0531
  115SAPE    HA12015   1.590   6.908   3.653  1.2519 -1.0527 -1.4457
  115SAPE    HB12016   1.690   7.025   3.744  1.8377  2.1054 -1.3654
  115SAPE    C212017   1.716   7.061   3.537 -0.7175 -0.3533  0.1309
  115SAPE    HS12018   1.716   7.005   3.441 -4.3625 -0.1232 -0.1361
  115SAPE   O2112019   1.841   7.127   3.560 -0.1713 -0.0508  0.1565
  115SAPE   C2112020   1.888   7.179   3.447  0.2410  0.3374 -0.0999
  115SAPE   O2212021   1.848   7.142   3.335  0.3172  0.0412  0.0364
  115SAPE   C2212022   2.003   7.266   3.485  0.3845 -0.0159 -0.2687
  115SAPE   H2R12023   2.012   7.286   3.594  3.1803 -1.1933 -0.1953
  115SAPE   H2S12024   2.098   7.214   3.462  0.2597 -0.8133  0.9122
  115SAPE    C312025   1.601   7.165   3.519  0.4720  0.6797  0.4559
  115SAPE    HX12026   1.503   7.122   3.488  1.7307  1.0600 -5.1529
  115SAPE    HY12027   1.623   7.231   3.432 -2.1566 -0.2935 -1.0775
  115SAPE   O3112028   1.571   7.226   3.649 -0.6106  0.5748 -0.0427
  115SAPE   C3112029   1.627   7.341   3.679  0.1958  0.0161  0.6938
  115SAPE   O3212030   1.708   7.398   3.610  0.4090 -0.2960  0.6196
  115SAPE   C3212031   1.583   7.386   3.815 -0.0791  0.1631  0.2295
  115SAPE   H2X12032   1.651   7.329   3.882  0.7734 -0.9228 -1.4942
  115SAPE   H2Y12033   1.485   7.341   3.844  1.0064 -0.0457  4.1225
  115SAPE   C2312034   2.014   7.397   3.404 -0.0365 -0.1049  0.3941
  115SAPE   H3R12035   1.921   7.457   3.411  0.2001  0.7468 -2.4918
  115SAPE   H3S12036   2.016   7.374   3.296 -1.1524  0.0098  0.3462
  115SAPE   C2412037   2.141   7.476   3.442  0.3096 -0.2404  0.1617
  115SAPE   H4R12038   2.157   7.557   3.367 -1.5385  0.7903  0.8410
  115SAPE   H4S12039   2.222   7.400   3.436 -0.4357 -1.1145  0.8846
  115SAPE   C2512040   2.112   7.535   3.578  0.3689  0.2938  0.2452
  115SAPE   H5R12041   2.014   7.576   3.606  0.3895  1.5964 -1.4843
  115SAPE   C2612042   2.202   7.546   3.673 -0.1789  0.7206  0.0901
  115SAPE   H6R12043   2.168   7.603   3.761  0.9141  1.3942  0.0962
  115SAPE   C2712044   2.345   7.511   3.661 -0.6652 -0.1532  0.0753
  115SAPE   H7R12045   2.382   7.523   3.558 -0.3001  0.0394  0.2293
  115SAPE   H7S12046   2.365   7.405   3.687 -1.6635 -0.6097 -0.9335
  115SAPE   C2812047   2.434   7.601   3.740  0.5719 -0.4130  0.2806
  115SAPE   H8R12048   2.516   7.657   3.692  0.6305 -0.4114  0.3799
  115SAPE   C2912049   2.434   7.624   3.875  0.1054 -0.1826  0.3021
  115SAPE   H9R12050   2.505   7.698   3.915 -0.8226  0.4011  0.9140
  115SAPE  C21012051   2.354   7.567   3.987 -0.1499  0.0532  0.2390
  115SAPE  H10R12052   2.263   7.631   3.991  0.2371  0.7209 -0.9772
  115SAPE  H10S12053   2.422   7.595   4.071 -0.2459 -0.5224  0.5101
  115SAPE  C21112054   2.326   7.423   4.006 -0.8691  0.1719  0.5746
  115SAPE  H11R12055   2.359   7.364   3.919  1.1811  2.3640 -0.2534
  115SAPE  C21212056   2.274   7.363   4.114 -0.2269 -0.1714  0.1768
  115SAPE  H12R12057   2.253   7.256   4.122  0.5961 -0.4611 -1.1805
  115SAPE  C21312058   2.235   7.433   4.240  0.8398  0.0173 -0.0006
  115SAPE  H13R12059   2.145   7.495   4.220  2.9004  3.5834  0.7813
  115SAPE  H13S12060   2.312   7.511   4.260  3.0482 -1.7874 -1.0365
  115SAPE  C21412061   2.221   7.340   4.357  0.0401  0.0654  0.4678
  115SAPE  H14R12062   2.181   7.240   4.333 -1.1102  0.8892 -1.2830
  115SAPE  C21512063   2.248   7.374   4.480 -1.1494 -0.0455 -0.5167
  115SAPE  H15R12064   2.221   7.296   4.553  1.7498 -0.0840  0.6719
  115SAPE  C21612065   2.286   7.516   4.530  0.2609  0.7491 -0.2947
  115SAPE  H16R12066   2.256   7.591   4.454 -0.9285  2.3359  1.6525
  115SAPE  H16S12067   2.392   7.530   4.562 -0.0196  0.2149  0.9127
  115SAPE  C21712068   2.202   7.544   4.653  0.0234  0.9568  0.3216
  115SAPE  H17R12069   2.213   7.458   4.723  0.7966  0.3120 -0.5642
  115SAPE  H17S12070   2.098   7.543   4.615 -0.6503  0.2320  2.0520
  115SAPE  C21812071   2.233   7.679   4.722 -0.5118  0.0258  0.9912
  115SAPE  H18R12072   2.237   7.765   4.652 -0.7218 -1.2209 -0.6076
  115SAPE  H18S12073   2.335   7.676   4.766 -0.1675 -1.2658  0.1251
  115SAPE  C21912074   2.138   7.730   4.833 -0.3061  0.0470 -0.3948
  115SAPE  H19R12075   2.043   7.739   4.777  0.0771 -2.9710 -1.7588
  115SAPE  H19S12076   2.193   7.826   4.844  2.0262 -1.0919 -1.2504
  115SAPE  C22012077   2.121   7.632   4.952  0.2090 -0.3625  0.3891
  115SAPE  H20R12078   2.219   7.585   4.975  0.7405 -0.4259 -1.8161
  115SAPE  H20S12079   2.047   7.552   4.930 -0.3936 -0.2426  1.8748
  115SAPE  H20T12080   2.081   7.700   5.030 -0.7461 -1.0119  0.4836
  115SAPE   C3312081   1.594   7.534   3.841  0.5737  0.3205  0.3520
  115SAPE   H3X12082   1.512   7.583   3.785  1.1203 -0.9266 -1.6490
  115SAPE   H3Y12083   1.685   7.578   3.794  1.4759 -2.1335 -0.3714
  115SAPE   C3412084   1.580   7.579   3.988  0.6580  0.0563  0.2868
  115SAPE   H4X12085   1.674   7.557   4.043  0.0830  0.3133  1.3917
  115SAPE   H4Y12086   1.500   7.524   4.041  0.9916  1.6391  2.5741
  115SAPE   C3512087   1.555   7.726   4.002 -0.3639 -0.4003  0.3314
  115SAPE   H5X12088   1.467   7.772   3.953 -0.5895  0.3444  1.3942
  115SAPE   H5Y12089   1.631   7.791   3.953 -3.1898  1.0557 -2.4692
  115SAPE   C3612090   1.538   7.764   4.144 -0.6346  0.9006 -0.0659
  115SAPE   H6X12091   1.557   7.873   4.142 -1.3890  1.1331  2.2534
  115SAPE   H6Y12092   1.617   7.726   4.212  0.1243 -0.2001 -1.4975
  115SAPE   C3712093   1.403   7.739   4.220 -1.0452 -0.3541  0.3493
  115SAPE   H7X12094   1.376   7.634   4.245 -2.2667  0.2318  1.5882
  115SAPE   H7Y12095   1.326   7.783   4.153 -0.8781 -1.8457 -0.8777
  115SAPE   C3812096   1.403   7.806   4.358 -0.9936  0.7918  0.1009
  115SAPE   H8X12097   1.462   7.900   4.351  0.4613 -0.1951 -1.5828
  115SAPE   H8Y12098   1.468   7.745   4.425 -1.1104  2.0212  1.3969
  115SAPE   C3912099   1.267   7.834   4.419  0.4161 -0.3050  0.4892
  115SAPE   H9X12100   1.207   7.741   4.409 -1.4069  0.9410 -0.7009
  115SAPE   H9Y12101   1.223   7.919   4.363  1.2683 -0.7499 -0.9077
  115SAPE  C31012102   1.271   7.863   4.576 -0.1401 -0.2639  0.2377
  115SAPE  H10X12103   1.360   7.921   4.609 -0.7305  1.9273 -1.7938
  115SAPE  H10Y12104   1.277   7.765   4.630 -0.2587  0.3080  1.3193
  115SAPE  C31112105   1.155   7.962   4.618 -0.1482  0.6035 -0.5102
  115SAPE  H11X12106   1.061   7.905   4.601  0.6837 -1.1299  0.4145
  115SAPE  H11Y12107   1.163   8.061   4.568 -1.7492  0.1272 -1.8026
  115SAPE  C31212108   1.162   8.001   4.772 -0.6246  0.0963  0.9473
  115SAPE  H12X12109   1.097   8.091   4.785 -0.7270  0.3689 -1.1641
  115SAPE  H12Y12110   1.264   8.043   4.787 -1.1568  1.1391  1.8430
  115SAPE  C31312111   1.116   7.899   4.871 -0.4632  0.5147 -0.7345
  115SAPE  H13X12112   1.188   7.816   4.854  0.0265  0.9310 -0.7067
  115SAPE  H13Y12113   1.016   7.853   4.853  0.0179 -0.7012 -0.4513
  115SAPE  C31412114   1.112   7.942   5.018  0.0584  0.4359  0.4162
  115SAPE  H14X12115   1.040   8.027   5.024  0.4912  0.7537  1.2635
  115SAPE  H14Y12116   1.218   7.966   5.039 -0.1005  1.4615  0.0950
  115SAPE  C31512117   1.067   7.826   5.115  0.2418  0.2328  0.2705
  115SAPE  H15X12118   1.131   7.737   5.098  1.0628  0.7491  0.5921
  115SAPE  H15Y12119   0.961   7.795   5.102 -0.2615  0.5284  3.1423
  115SAPE  C31612120   1.081   7.864   5.260 -0.9411  0.3131 -0.8183
  115SAPE  H16X12121   1.035   7.791   5.329  1.0449 -0.6884 -0.4617
  115SAPE  H16Y12122   1.026   7.959   5.275 -3.6306 -1.0811 -1.2882
  115SAPE  C31712123   1.228   7.876   5.312  0.7525 -0.3038 -0.2283
  115SAPE  H17X12124   1.273   7.963   5.260  1.5204 -0.8625 -0.5259
  115SAPE  H17Y12125   1.284   7.784   5.283  1.7254  0.0901  0.3339
  115SAPE  C31812126   1.233   7.906   5.454  0.2914  0.5634 -0.2462
  115SAPE  H18X12127   1.337   7.940   5.474  0.2568  0.4578  0.1210
  115SAPE  H18Y12128   1.209   7.812   5.508  1.3688 -0.4201 -1.4112
  115SAPE  H18Z12129   1.156   7.982   5.480 -1.0973 -0.8977  0.0550
  116SAPE     N12130   2.548   2.458   3.150 -0.0446 -0.8448  0.0271
  116SAPE   HN112131   2.478   2.487   3.221 -2.5350 -1.3846 -2.0642
  116SAPE   HN212132   2.647   2.471   3.181 -0.1468  1.5143 -0.4746
  116SAPE   HN312133   2.538   2.520   3.068  0.8102  0.2770  0.7399
  116SAPE   C1212134   2.510   2.314   3.115 -0.3114 -0.0253 -0.5532
  116SAPE  H12A12135   2.584   2.262   3.051 -1.1194 -2.3632  0.3154
  116SAPE  H12B12136   2.420   2.323   3.050  1.6983  1.4393 -3.3295
  116SAPE   C1112137   2.474   2.235   3.251 -0.2216 -0.8588 -0.0683
  116SAPE  H11A12138   2.569   2.234   3.310 -1.3394 -2.6250  1.8549
  116SAPE  H11B12139   2.456   2.129   3.224  0.4393 -0.8159 -0.6876
  116SAPE     P12140   2.214   2.275   3.297 -0.1376  0.3757  0.2951
  116SAPE   O1312141   2.182   2.302   3.153 -0.8528 -0.1988  0.1578
  116SAPE   O1412142   2.164   2.151   3.354 -0.7440 -0.2133 -0.0448
  116SAPE   O1212143   2.373   2.301   3.324  0.3033  0.1872 -0.0206
  116SAPE   O1112144   2.159   2.389   3.385  0.8910 -0.1609  1.2470
  116SAPE    C112145   2.171   2.390   3.530 -0.0901 -0.4272  0.1114
  116SAPE    HA12146   2.263   2.339   3.563 -0.2292  0.2653  1.7085
  116SAPE    HB12147   2.180   2.498   3.557 -0.1045  0.0505 -1.6953
  116SAPE    C212148   2.044   2.333   3.593  1.0308 -0.1403 -0.5077
  116SAPE    HS12149   2.017   2.230   3.561 -2.3119  0.2755  0.5665
  116SAPE   O2112150   1.939   2.430   3.577 -0.2068  0.8384 -0.0913
  116SAPE   C2112151   1.862   2.409   3.475  0.1318  0.7211 -0.3533
  116SAPE   O2212152   1.880   2.309   3.398  0.0995 -0.1926 -0.1503
  116SAPE   C2212153   1.759   2.510   3.454 -0.1605  0.4147 -1.0229
  116SAPE   H2R12154   1.791   2.614   3.432 -1.2512  0.6292 -1.6330
  116SAPE   H2S12155   1.695   2.479   3.369 -0.9663  0.1967 -0.3551
  116SAPE    C312156   2.063   2.316   3.749 -0.4305  0.3971 -0.5307
  116SAPE    HX12157   1.966   2.313   3.804  1.1194 -0.6369  2.3980
  116SAPE    HY12158   2.106   2.412   3.786 -0.5930  0.5608 -0.7709
  116SAPE   O3112159   2.154   2.206   3.777  0.1342  0.1573 -0.0593
  116SAPE   C3112160   2.108   2.082   3.775 -0.5542 -0.4956  0.0787
  116SAPE   O3212161   2.000   2.046   3.738 -0.1060 -0.4592  0.4124
  116SAPE   C3212162   2.216   1.989   3.830 -0.1275  0.2347 -0.2097
  116SAPE   H2X12163   2.313   2.002   3.778 -0.2394 -1.7416 -0.9728
  116SAPE   H2Y12164   2.180   1.885   3.814 -0.1570  0.0117  1.1917
  116SAPE   C2312165   1.664   2.520   3.577 -0.1260 -0.1191  0.3765
  116SAPE   H3R12166   1.574   2.576   3.544  1.1050  1.2157 -0.9103
  116SAPE   H3S12167   1.717   2.586   3.649  0.1902 -1.4429  1.3845
  116SAPE   C2412168   1.624   2.386   3.636 -0.2786 -0.3839 -0.3880
  116SAPE   H4R12169   1.714   2.342   3.685 -1.3796 -0.4106  1.7070
  116SAPE   H4S12170   1.604   2.308   3.560 -0.1389 -1.5500  0.7301
  116SAPE   C2512171   1.507   2.402   3.731  0.3167 -0.4625 -0.2985
  116SAPE   H5R12172   1.416   2.415   3.670  1.0733 -1.1152 -1.6361
  116SAPE   C2612173   1.516   2.393   3.863  0.9802  0.0973  0.0319
  116SAPE   H6R12174   1.429   2.412   3.927  0.4583  1.9322 -1.1241
  116SAPE   C2712175   1.630   2.347   3.950 -0.1548 -0.2676  0.6342
  116SAPE   H7R12176   1.721   2.326   3.891  0.6001 -0.8086  1.9441
  116SAPE   H7S12177   1.607   2.249   3.997 -2.0752 -0.1932 -0.0528
  116SAPE   C2812178   1.667   2.440   4.061 -0.2807  0.1612 -0.3057
  116SAPE   H8R12179   1.655   2.409   4.166  1.2342 -1.7421 -0.6406
  116SAPE   C2912180   1.730   2.559   4.047  0.0437  0.3339 -1.1951
  116SAPE   H9R12181   1.749   2.620   4.137  0.9283 -0.3665 -0.8916
  116SAPE  C21012182   1.763   2.635   3.925 -0.1044  0.5302 -0.4562
  116SAPE  H10R12183   1.727   2.737   3.948 -0.3644  0.3443 -0.0322
  116SAPE  H10S12184   1.686   2.599   3.852 -1.7351  1.8163  0.5418
  116SAPE  C21112185   1.907   2.629   3.872  1.5015  0.1539 -0.5827
  116SAPE  H11R12186   1.910   2.585   3.771 -0.3863 -0.0379 -0.5886
  116SAPE  C21212187   2.024   2.654   3.932  0.0291  0.1213 -0.3831
  116SAPE  H12R12188   2.105   2.653   3.858 -1.1188 -2.0559 -1.6979
  116SAPE  C21312189   2.051   2.694   4.075  0.3921 -0.0218 -0.2152
  116SAPE  H13R12190   2.126   2.627   4.122 -0.7664 -0.1408  1.5874
  116SAPE  H13S12191   1.959   2.687   4.137 -0.1908 -0.3175 -1.0882
  116SAPE  C21412192   2.100   2.835   4.089  0.4730  0.2530  1.0428
  116SAPE  H14R12193   2.016   2.904   4.069 -0.9304 -1.3608  1.1832
  116SAPE  C21512194   2.221   2.888   4.130 -0.1132 -0.7149  0.4527
  116SAPE  H15R12195   2.232   2.998   4.133  2.5039 -0.9287  1.6493
  116SAPE  C21612196   2.347   2.818   4.174 -0.0396  0.4508 -0.4249
  116SAPE  H16R12197   2.413   2.835   4.086 -1.9444 -0.7846 -2.1946
  116SAPE  H16S12198   2.318   2.711   4.174  0.6948  0.2391 -1.4143
  116SAPE  C21712199   2.417   2.849   4.302  0.2193 -1.0517 -0.8033
  116SAPE  H17R12200   2.344   2.844   4.385 -0.7369  1.7593 -1.3690
  116SAPE  H17S12201   2.443   2.956   4.320 -0.5344 -1.3690  3.1767
  116SAPE  C21812202   2.542   2.771   4.351 -0.0858  0.1545 -0.1028
  116SAPE  H18R12203   2.621   2.769   4.272 -0.6828  0.0502 -0.7099
  116SAPE  H18S12204   2.518   2.662   4.356  3.9671 -1.0597 -2.0772
  116SAPE  C21912205   2.609   2.806   4.485 -0.2674  0.2728  0.0397
  116SAPE  H19R12206   2.528   2.830   4.556 -1.3416 -0.7908 -0.7931
  116SAPE  H19S12207   2.677   2.894   4.474  1.7659 -0.6190  3.7350
  116SAPE  C22012208   2.706   2.704   4.537 -0.6258 -0.0565 -0.5274
  116SAPE  H20R12209   2.768   2.757   4.612 -1.2108  1.9524 -1.3841
  116SAPE  H20S12210   2.780   2.678   4.458  0.5387  0.4877  0.3610
  116SAPE  H20T12211   2.657   2.610   4.569 -0.6463 -0.1225 -0.7519
  116SAPE   C3312212   2.236   1.998   3.987 -0.1528 -0.4183 -0.3749
  116SAPE   H3X12213   2.316   1.923   4.007 -1.2496 -1.8063 -1.0498
  116SAPE   H3Y12214   2.145   1.967   4.042 -1.0060  1.3430 -0.7260
  116SAPE   C3412215   2.283   2.129   4.047 -0.4811  1.2521 -0.1848
  116SAPE   H4X12216   2.200   2.202   4.058 -0.0359  2.7943 -4.8859
  116SAPE   H4Y12217   2.355   2.178   3.978 -0.6400  0.3248 -1.0279
  116SAPE   C3512218   2.346   2.108   4.185  0.2191 -0.7204  0.5271
  116SAPE   H5X12219   2.437   2.044   4.180  1.2632  0.8080 -1.7156
  116SAPE   H5Y12220   2.279   2.045   4.247 -0.5330 -0.4982 -0.0501
  116SAPE   C3612221   2.370   2.238   4.268 -0.1851  0.4214  0.7201
  116SAPE   H6X12222   2.282   2.306   4.262 -0.1283  0.4025 -0.7060
  116SAPE   H6Y12223   2.459   2.285   4.221 -0.1412 -1.6204 -1.4442
  116SAPE   C3712224   2.396   2.210   4.415  0.6083  0.4788  0.2141
  116SAPE   H7X12225   2.460   2.120   4.429 -1.9187 -1.7242 -1.3699
  116SAPE   H7Y12226   2.298   2.182   4.459 -0.3154  1.9248 -0.8483
  116SAPE   C3812227   2.452   2.331   4.484 -0.3310  0.1119 -0.2500
  116SAPE   H8X12228   2.396   2.425   4.462  0.6051  0.8037  0.2328
  116SAPE   H8Y12229   2.554   2.349   4.444 -0.4957 -0.1504 -0.8071
  116SAPE   C3912230   2.466   2.314   4.635 -0.4883  0.2098  0.0982
  116SAPE   H9X12231   2.448   2.207   4.656  0.9472 -0.0712 -0.0111
  116SAPE   H9Y12232   2.387   2.374   4.686  0.3519  1.5439 -0.1201
  116SAPE  C31012233   2.616   2.331   4.684  0.0484  0.1333  0.4881
  116SAPE  H10X12234   2.618   2.434   4.727 -1.8810 -0.8956  3.2733
  116SAPE  H10Y12235   2.691   2.337   4.602  1.0957  2.5379  1.5086
  116SAPE  C31112236   2.668   2.214   4.773 -0.4891  0.5028  0.6182
  116SAPE  H11X12237   2.663   2.111   4.730  2.1484  0.1562  0.9657
  116SAPE  H11Y12238   2.609   2.215   4.866 -0.1557 -2.4415  0.9750
  116SAPE  C31212239   2.819   2.222   4.798 -0.1841  0.1952  0.0642
  116SAPE  H12X12240   2.876   2.217   4.703  1.4499 -0.0448  1.0241
  116SAPE  H12Y12241   2.836   2.126   4.851 -0.4384  0.6767  1.0498
  116SAPE  C31312242   2.857   2.348   4.884 -0.1943  1.2549 -0.1061
  116SAPE  H13X12243   2.823   2.322   4.987 -0.5154 -1.5044 -0.8126
  116SAPE  H13Y12244   2.802   2.434   4.842 -2.4493 -1.2129 -2.5635
  116SAPE  C31412245   3.012   2.379   4.891 -0.0914 -0.3526  0.1041
  116SAPE  H14X12246   3.046   2.384   4.785 -2.7134 -0.9712 -0.8268
  116SAPE  H14Y12247   3.061   2.288   4.933 -0.8178 -0.6991  0.2158
  116SAPE  C31512248   3.052   2.507   4.961 -0.8693  0.3709 -0.1371
  116SAPE  H15X12249   3.161   2.527   4.956 -0.7902 -0.3254 -2.4739
  116SAPE  H15Y12250   3.023   2.511   5.068 -0.2996  0.3231  0.0211
  116SAPE  C31612251   3.002   2.619   4.879  0.4060 -0.4381  0.0831
  116SAPE  H16X12252   2.891   2.621   4.877  0.4039  1.8212 -0.4089
  116SAPE  H16Y12253   3.036   2.601   4.775  0.9835  2.2143 -0.2563
  116SAPE  C31712254   3.043   2.758   4.922  0.0904 -0.7324  0.6404
  116SAPE  H17X12255   3.149   2.748   4.956  0.5509 -0.3266 -0.6233
  116SAPE  H17Y12256   2.970   2.796   4.996 -1.1798  1.7490 -1.7349
  116SAPE  C31812257   3.041   2.853   4.799  0.1630  0.1223  0.1425
  116SAPE  H18X12258   3.116   2.828   4.721  0.3733  2.7505 -0.5791
  116SAPE  H18Y12259   3.062   2.958   4.827  2.5377  0.0640 -1.1759
  116SAPE  H18Z12260   2.939   2.850   4.756  0.6858 -2.5172 -1.1484
  117SOPE     N12261   6.683   6.745   7.876 -0.0455  0.0184 -0.6626
  117SOPE   HN112262   6.582   6.751   7.900 -0.4522 -0.0926 -2.2728
  117SOPE   HN212263   6.720   6.663   7.928 -0.6068  0.7639  0.9839
  117SOPE   HN312264   6.734   6.830   7.909  0.7387  0.3372 -2.5548
  117SOPE   C1212265   6.692   6.746   7.725 -0.6154  0.0912 -0.4253
  117SOPE  H12A12266   6.606   6.690   7.683  0.7576 -1.5449 -1.1940
  117SOPE  H12B12267   6.783   6.694   7.688 -0.9056 -0.3728 -0.4951
  117SOPE   C1112268   6.717   6.883   7.665  0.6467  0.6743  0.1205
  117SOPE  H11A12269   6.621   6.936   7.681  0.3590  0.7668 -1.6920
  117SOPE  H11B12270   6.739   6.876   7.557 -0.9514 -0.4419 -0.1794
  117SOPE     P12271   6.967   6.979   7.690 -0.1467 -0.5677  0.1983
  117SOPE   O1312272   7.051   6.862   7.728  0.1545 -0.5124  0.0503
  117SOPE   O1412273   7.010   7.115   7.731  0.7669  0.0362 -0.7203
  117SOPE   O1212274   6.820   6.951   7.739  0.1638 -0.1647  0.3321
  117SOPE   O1112275   6.954   6.976   7.531 -0.1463 -0.1797 -0.0485
  117SOPE    C112276   6.989   6.860   7.457 -0.0270 -0.5115  0.1754
  117SOPE    HA12277   6.929   6.773   7.490  1.1650  0.2640  5.1438
  117SOPE    HB12278   7.096   6.832   7.470  0.0616  0.4083  1.6830
  117SOPE    C212279   6.971   6.877   7.301 -0.3313 -0.5801  0.5434
  117SOPE    HS12280   7.053   6.942   7.262  1.7418 -3.0519  0.5201
  117SOPE   O2112281   6.842   6.925   7.272  0.4834  0.2035 -0.2016
  117SOPE   C2112282   6.820   7.058   7.286  0.3198  0.3035 -0.4747
  117SOPE   O2212283   6.898   7.136   7.336  0.1127 -0.2225 -0.1831
  117SOPE   C2212284   6.676   7.099   7.237  0.4980 -0.3712  0.0466
  117SOPE   H2R12285   6.630   7.091   7.338 -0.1879 -0.1707 -0.2522
  117SOPE   H2S12286   6.633   7.017   7.176  0.3736 -1.6109  1.6950
  117SOPE    C312287   6.983   6.748   7.217 -0.0699  1.0674  0.2116
  117SOPE    HX12288   6.908   6.679   7.263  0.9518 -0.7411 -0.7334
  117SOPE    HY12289   7.082   6.701   7.231  0.8315  0.9611 -4.7772
  117SOPE   O3112290   6.960   6.770   7.075 -0.4964 -0.1102 -0.2361
  117SOPE   C3112291   6.883   6.686   7.007 -0.0123 -0.9420  0.3081
  117SOPE   O3212292   6.815   6.602   7.056  0.2118  0.4313  0.0906
  117SOPE   C3212293   6.872   6.732   6.858  0.1868  0.3575  0.2555
  117SOPE   H2X12294   6.946   6.672   6.801  1.0351  1.7743 -0.1592
  117SOPE   H2Y12295   6.907   6.837   6.847 -1.9760  1.0245 -0.7900
  117SOPE   C2312296   6.666   7.240   7.182  0.5145  0.4671 -0.1445
  117SOPE   H3R12297   6.749   7.308   7.212  1.1310  1.0265 -2.7987
  117SOPE   H3S12298   6.567   7.284   7.206 -0.0806 -0.1293 -1.3834
  117SOPE   C2412299   6.676   7.243   7.029  0.4043  0.4849  0.5016
  117SOPE   H4R12300   6.611   7.160   6.994  0.1058  0.2753  1.4935
  117SOPE   H4S12301   6.633   7.334   6.983 -2.7140 -0.5331  1.1742
  117SOPE   C2512302   6.821   7.222   6.987 -0.3131  0.3440 -0.5831
  117SOPE   H5R12303   6.884   7.298   7.038 -0.4612  1.5485 -2.1461
  117SOPE   H5S12304   6.857   7.124   7.026 -2.3253  0.8678  3.1170
  117SOPE   C2612305   6.836   7.252   6.839  0.1494 -0.5241 -0.5833
  117SOPE   H6R12306   6.805   7.357   6.823  0.6789 -0.4169 -0.9459
  117SOPE   H6S12307   6.945   7.238   6.821  0.3791 -2.3535  1.7309
  117SOPE   C2712308   6.757   7.159   6.747  0.3587 -0.3310  0.1636
  117SOPE   H7R12309   6.790   7.055   6.767  1.6058  0.1022  0.4673
  117SOPE   H7S12310   6.647   7.170   6.746  0.3669 -0.0805  1.2402
  117SOPE   C2812311   6.784   7.165   6.597  0.2343 -0.1393  0.1827
  117SOPE   H8R12312   6.884   7.123   6.574 -0.7981 -1.7051 -1.8706
  117SOPE   H8S12313   6.712   7.099   6.544  0.2004  0.3192 -0.3466
  117SOPE   C2912314   6.781   7.306   6.542  0.1367 -0.1814  0.0670
  117SOPE   H9112315   6.833   7.368   6.617  1.0292 -1.3133  0.4155
  117SOPE  C21012316   6.713   7.356   6.437  0.7413 -0.0494  0.0822
  117SOPE  H10112317   6.733   7.454   6.393  1.1276 -0.8396 -1.5874
  117SOPE  C21112318   6.610   7.273   6.359 -0.8657 -0.6742 -0.0482
  117SOPE  H11R12319   6.531   7.343   6.325 -1.0156 -0.3136  1.0166
  117SOPE  H11S12320   6.558   7.196   6.419  0.2415 -0.6725  0.9495
  117SOPE  C21212321   6.676   7.202   6.234  0.1036  0.6977  0.2116
  117SOPE  H12R12322   6.771   7.158   6.274 -0.6345 -3.1014 -1.7524
  117SOPE  H12S12323   6.708   7.270   6.153 -1.8934  0.1737 -1.0786
  117SOPE  C21312324   6.583   7.083   6.183 -0.4166  0.1173  0.3674
  117SOPE  H13R12325   6.503   7.064   6.258  1.1201  0.8945  2.2811
  117SOPE  H13S12326   6.646   6.992   6.170 -0.0465  0.3145  0.7477
  117SOPE  C21412327   6.525   7.123   6.046 -0.1524  0.3006 -1.0946
  117SOPE  H14R12328   6.601   7.149   5.970  0.8323 -2.9345 -1.3840
  117SOPE  H14S12329   6.472   7.214   6.081  0.1691 -0.8950  3.1833
  117SOPE  C21512330   6.438   7.010   5.987  0.1331 -0.1083  0.1945
  117SOPE  H15R12331   6.366   6.976   6.065 -1.0022 -0.5466 -1.0077
  117SOPE  H15S12332   6.493   6.914   5.978  0.6199  0.1667  0.1542
  117SOPE  C21612333   6.377   7.055   5.858 -0.1329 -1.3424 -0.0482
  117SOPE  H16R12334   6.456   7.037   5.782 -0.0851  0.2381 -0.4171
  117SOPE  H16S12335   6.356   7.164   5.857  1.1980 -1.0695 -0.0768
  117SOPE  C21712336   6.253   6.982   5.800  0.0113  0.1342  0.6318
  117SOPE  H17R12337   6.157   6.999   5.853  0.4932 -0.8690  1.8979
  117SOPE  H17S12338   6.276   6.873   5.802  2.9623  0.5241 -2.4953
  117SOPE  C21812339   6.223   7.021   5.660  0.1721  0.0557 -0.0659
  117SOPE  H18R12340   6.316   7.016   5.601  0.6077  1.5492  0.4523
  117SOPE  H18S12341   6.181   7.124   5.662  0.0495  0.0524 -1.5491
  117SOPE  H18T12342   6.152   6.950   5.610 -1.0155  0.9434  0.3133
  117SOPE   C3312343   6.728   6.722   6.796 -0.3265  0.0977  0.6366
  117SOPE   H3X12344   6.659   6.766   6.872 -0.6981  0.0453  0.3326
  117SOPE   H3Y12345   6.708   6.614   6.778  0.6207  0.0943 -0.4929
  117SOPE   C3412346   6.713   6.806   6.662 -0.2813  0.0540 -0.3032
  117SOPE   H4X12347   6.804   6.865   6.637  1.5430 -2.8580 -1.1134
  117SOPE   H4Y12348   6.627   6.876   6.668 -0.0114  0.5749 -1.9283
  117SOPE   C3512349   6.706   6.717   6.533 -0.1529  0.5394 -0.3336
  117SOPE   H5X12350   6.628   6.639   6.524 -0.2455  0.4070  1.2835
  117SOPE   H5Y12351   6.799   6.656   6.535 -1.0759 -0.8885  0.4003
  117SOPE   C3612352   6.717   6.795   6.398  0.1209 -0.8882 -0.7180
  117SOPE   H6X12353   6.824   6.827   6.393  0.1081 -0.7351 -0.1245
  117SOPE   H6Y12354   6.654   6.885   6.411 -0.4959 -1.3167 -0.7211
  117SOPE   C3712355   6.669   6.730   6.274  0.4808 -0.4142 -0.2957
  117SOPE   H7X12356   6.695   6.622   6.278  1.0650 -0.3197 -1.1913
  117SOPE   H7Y12357   6.706   6.774   6.179  1.6600 -1.9322 -0.5724
  117SOPE   C3812358   6.511   6.724   6.253 -0.6653 -0.3492  0.1385
  117SOPE   H8X12359   6.480   6.827   6.226  3.5364  1.4245  1.1530
  117SOPE   H8Y12360   6.464   6.693   6.349 -1.5680 -0.1262 -0.2225
  117SOPE   C3912361   6.471   6.620   6.145 -1.0746  0.0065 -0.4734
  117SOPE   H9X12362   6.506   6.519   6.174  1.8845  0.7199 -1.2399
  117SOPE   H9Y12363   6.538   6.649   6.061 -0.0148  1.0257  0.6796
  117SOPE  C31012364   6.325   6.630   6.115  0.1395 -0.2771  0.3362
  117SOPE  H10X12365   6.313   6.731   6.069 -0.6599  0.5042  2.1556
  117SOPE  H10Y12366   6.267   6.632   6.210 -1.8755 -1.1817 -0.8124
  117SOPE  C31112367   6.284   6.517   6.025  0.7018 -0.0553  0.6428
  117SOPE  H11X12368   6.181   6.494   6.059  1.0026 -0.2410  1.4644
  117SOPE  H11Y12369   6.337   6.422   6.046 -1.1682 -1.1791  0.4866
  117SOPE  C31212370   6.279   6.545   5.875  0.1695  0.3248 -0.0674
  117SOPE  H12X12371   6.232   6.646   5.870 -0.2751  0.0736 -2.1311
  117SOPE  H12Y12372   6.224   6.462   5.826 -1.7257  1.0643  0.6907
  117SOPE  C31312373   6.423   6.549   5.810  0.1983  0.3871  0.2144
  117SOPE  H13X12374   6.490   6.461   5.814  1.2133  0.8381 -3.1603
  117SOPE  H13Y12375   6.473   6.630   5.868 -1.4077  1.0656  0.7136
  117SOPE  C31412376   6.430   6.610   5.660  0.6810  0.1470 -0.3415
  117SOPE  H14X12377   6.533   6.652   5.655  1.8042 -2.4814 -2.0006
  117SOPE  H14Y12378   6.353   6.689   5.657 -1.5610 -1.8460  0.7691
  117SOPE  C31512379   6.408   6.514   5.548 -0.0582  0.3799 -0.7956
  117SOPE  H15X12380   6.301   6.482   5.546  0.1132 -0.5578  1.5294
  117SOPE  H15Y12381   6.468   6.423   5.570 -0.8507  0.1372  0.4795
  117SOPE  C31612382   6.466   6.557   5.414 -0.2829  0.5349  0.7905
  117SOPE  H16X12383   6.576   6.553   5.403 -0.4417  0.3698 -0.9851
  117SOPE  H16Y12384   6.439   6.663   5.392  2.6022  1.5339  1.5834
  117SOPE  C31712385   6.407   6.485   5.292  0.4898 -0.4931 -0.5132
  117SOPE  H17X12386   6.446   6.528   5.198  1.1649  1.8626  0.7487
  117SOPE  H17Y12387   6.300   6.516   5.294  0.0179 -1.9652 -1.5761
  117SOPE  C31812388   6.419   6.332   5.281 -0.2203 -0.3500  0.0300
  117SOPE  H18X12389   6.526   6.303   5.273 -0.2765 -1.1592  1.7107
  117SOPE  H18Y12390   6.381   6.294   5.183  2.5865  3.3738 -2.7558
  117SOPE  H18Z12391   6.375   6.273   5.365 -3.5273  0.1395 -1.2105
  118SOPE     N12392   6.656   1.670   8.137  0.2471 -0.1078  0.2354
  118SOPE   HN112393   6.746   1.631   8.174 -0.1160  0.1117  1.4151
  118SOPE   HN212394   6.680   1.726   8.053 -1.7928  0.7236  0.1609
  118SOPE   HN312395   6.614   1.735   8.207  2.3852 -0.5862  2.0869
  118SOPE   C1212396   6.567   1.540   8.116  0.3888 -0.4911  0.9360
  118SOPE  H12A12397   6.597   1.489   8.023 -1.3603 -0.4698  0.3218
  118SOPE  H12B12398   6.467   1.580   8.086  1.7186  0.5897 -2.4369
  118SOPE   C1112399   6.577   1.448   8.234  0.4535 -0.2009 -0.5993
  118SOPE  H11A12400   6.526   1.502   8.317  1.0449  0.9487 -0.9655
  118SOPE  H11B12401   6.682   1.431   8.267 -0.4623 -0.6215  2.3836
  118SOPE     P12402   6.368   1.287   8.206  0.0721  0.0294 -0.1153
  118SOPE   O1312403   6.287   1.383   8.278  0.2569 -0.4167 -0.3725
  118SOPE   O1412404   6.351   1.145   8.236  0.2064 -0.7977  0.0147
  118SOPE   O1212405   6.526   1.318   8.211 -0.2601 -0.2378  0.1918
  118SOPE   O1112406   6.342   1.314   8.049 -0.3854 -0.0619  0.2092
  118SOPE    C112407   6.411   1.228   7.952 -0.3410  0.2570 -0.0610
  118SOPE    HA12408   6.356   1.132   7.950  0.1388 -0.0532  1.1129
  118SOPE    HB12409   6.518   1.214   7.980 -0.4078 -1.4781 -0.5539
  118SOPE    C212410   6.423   1.298   7.812  0.2687 -0.2006 -0.1750
  118SOPE    HS12411   6.502   1.377   7.816 -0.0797  0.1631 -0.4522
  118SOPE   O2112412   6.302   1.351   7.767 -0.4635 -0.0661  1.0043
  118SOPE   C2112413   6.269   1.472   7.808 -0.5547 -0.8699  0.3198
  118SOPE   O2212414   6.346   1.550   7.863  0.3336 -0.2206 -0.5644
  118SOPE   C2212415   6.131   1.493   7.745 -0.5716  0.4418  0.6464
  118SOPE   H2R12416   6.069   1.402   7.764  0.3046 -0.2642  0.1829
  118SOPE   H2S12417   6.142   1.507   7.635  0.6527 -0.7299  0.5927
  118SOPE    C312418   6.475   1.189   7.714  0.0483  0.0521  0.3065
  118SOPE    HX12419   6.385   1.126   7.698 -0.7018  1.5961 -2.1648
  118SOPE    HY12420   6.563   1.140   7.760 -0.0789  0.0161  0.5075
  118SOPE   O3112421   6.511   1.250   7.590  0.4084  0.7569  0.4089
  118SOPE   C3112422   6.555   1.159   7.498  0.0520  0.9766  0.1894
  118SOPE   O3212423   6.569   1.039   7.526 -0.3383 -0.5216 -0.0831
  118SOPE   C3212424   6.576   1.223   7.365 -0.1181 -0.6368  0.0959
  118SOPE   H2X12425   6.675   1.274   7.375  0.2068 -1.5729  2.3090
  118SOPE   H2Y12426   6.495   1.295   7.342  1.4585  0.4021 -2.8529
  118SOPE   C2312427   6.039   1.606   7.808  0.0353 -0.2914  0.3423
  118SOPE   H3R12428   6.100   1.698   7.821 -0.0616 -0.0210 -0.9453
  118SOPE   H3S12429   6.004   1.577   7.909  1.3989  0.2459  1.0047
  118SOPE   C2412430   5.923   1.650   7.709 -0.2149  0.1677 -0.4906
  118SOPE   H4R12431   5.848   1.569   7.704 -0.0460 -0.0083 -0.2066
  118SOPE   H4S12432   5.873   1.738   7.754 -1.7410 -0.6633 -0.5240
  118SOPE   C2512433   5.961   1.708   7.569  0.3762  0.1987 -0.0210
  118SOPE   H5R12434   5.905   1.804   7.559  0.9976  0.6695  0.9117
  118SOPE   H5S12435   6.067   1.740   7.574  0.1968  0.6657  0.8870
  118SOPE   C2612436   5.931   1.608   7.464  0.5405 -1.2101 -0.2235
  118SOPE   H6R12437   5.967   1.511   7.503  2.6942 -0.2002  0.4077
  118SOPE   H6S12438   5.821   1.591   7.455  0.3050  0.0117  0.0676
  118SOPE   C2712439   5.975   1.650   7.321  0.0448  0.0486  0.0435
  118SOPE   H7R12440   5.936   1.753   7.312 -1.5997 -0.3500  1.7555
  118SOPE   H7S12441   6.085   1.661   7.332  0.0321  0.6122 -0.3963
  118SOPE   C2812442   5.936   1.554   7.208 -0.4202 -0.1290  0.3411
  118SOPE   H8R12443   5.971   1.455   7.243  3.2048  1.5309  2.0502
  118SOPE   H8S12444   5.829   1.566   7.182 -0.0443  1.1374 -0.7233
  118SOPE   C2912445   6.016   1.600   7.086  0.1867 -0.1010 -0.1811
  118SOPE   H9112446   6.107   1.656   7.111  0.2930 -0.5864  0.5201
  118SOPE  C21012447   5.999   1.543   6.963 -0.6497 -0.1789  0.5196
  118SOPE  H10112448   6.063   1.571   6.877 -1.2261 -0.1611  0.0907
  118SOPE  C21112449   5.900   1.440   6.931 -0.1648 -0.0948 -0.4240
  118SOPE  H11R12450   5.836   1.410   7.017  0.2427 -2.4345 -0.8526
  118SOPE  H11S12451   5.948   1.345   6.899  0.7010 -0.7053  2.3557
  118SOPE  C21212452   5.813   1.481   6.813  0.2311 -0.3108  0.2037
  118SOPE  H12R12453   5.879   1.535   6.742 -1.0017  1.0151  0.0232
  118SOPE  H12S12454   5.738   1.559   6.838  1.8476  1.0909  0.9500
  118SOPE  C21312455   5.739   1.368   6.737 -0.1580 -0.1013 -0.5270
  118SOPE  H13R12456   5.651   1.329   6.794 -1.6446  1.3361 -1.7241
  118SOPE  H13S12457   5.795   1.273   6.732 -2.8864 -1.8534 -0.3158
  118SOPE  C21412458   5.679   1.403   6.600  1.4686  0.2427 -0.1465
  118SOPE  H14R12459   5.622   1.497   6.618 -1.6833 -2.0533  3.5395
  118SOPE  H14S12460   5.601   1.331   6.567  0.0034  2.1559 -1.0843
  118SOPE  C21512461   5.790   1.418   6.497 -0.3523 -0.0552 -0.5364
  118SOPE  H15R12462   5.821   1.317   6.464  2.4079  0.6542 -0.3643
  118SOPE  H15S12463   5.878   1.469   6.541  0.0403 -1.2446  0.0776
  118SOPE  C21612464   5.743   1.501   6.377  0.8847  0.0725  0.7270
  118SOPE  H16R12465   5.694   1.596   6.408 -1.8404 -0.4944 -1.4561
  118SOPE  H16S12466   5.660   1.448   6.325  0.6782  0.9902  0.0884
  118SOPE  C21712467   5.853   1.532   6.278  0.0016  0.5972 -0.0126
  118SOPE  H17R12468   5.884   1.439   6.227 -0.2193  0.5509 -0.0606
  118SOPE  H17S12469   5.937   1.584   6.329  1.1185 -0.9384 -0.2091
  118SOPE  C21812470   5.820   1.621   6.167 -0.1029 -0.4433  0.1658
  118SOPE  H18R12471   5.739   1.589   6.098  1.0030 -3.6751  0.1882
  118SOPE  H18S12472   5.911   1.634   6.104  1.5553 -2.4714  1.9735
  118SOPE  H18T12473   5.804   1.724   6.206  1.3914 -0.3317  0.5463
  118SOPE   C3312474   6.585   1.112   7.264  0.5395 -0.5638  0.3815
  118SOPE   H3X12475   6.484   1.070   7.244  0.9247 -1.3125 -0.0287
  118SOPE   H3Y12476   6.648   1.028   7.301 -0.3081 -0.1998  2.8371
  118SOPE   C3412477   6.646   1.148   7.126  0.2766 -0.3557 -0.8812
  118SOPE   H4X12478   6.750   1.187   7.136 -0.7290  1.8819  4.3608
  118SOPE   H4Y12479   6.592   1.238   7.091  2.0891  0.5612 -1.4592
  118SOPE   C3512480   6.639   1.036   7.021 -0.6283  0.4353 -0.6509
  118SOPE   H5X12481   6.535   1.007   6.994 -0.6817  2.0753 -2.3965
  118SOPE   H5Y12482   6.681   0.945   7.068 -1.4506  1.1571  1.6358
  118SOPE   C3612483   6.695   1.088   6.890 -0.8136 -0.6808  1.1100
  118SOPE   H6X12484   6.801   1.120   6.889 -0.1260 -2.8050  0.6333
  118SOPE   H6Y12485   6.641   1.182   6.863  0.5427 -0.1115  0.2908
  118SOPE   C3712486   6.675   0.985   6.775 -1.1056  0.0833  0.4344
  118SOPE   H7X12487   6.567   0.959   6.771 -1.2627  0.8363 -0.8766
  118SOPE   H7Y12488   6.732   0.892   6.798 -0.6966  0.7581  2.4074
  118SOPE   C3812489   6.720   1.034   6.641  0.5829  0.7118 -0.1781
  118SOPE   H8X12490   6.823   1.073   6.646  1.3169 -1.0092 -1.0418
  118SOPE   H8Y12491   6.658   1.117   6.600  0.2524  0.3362 -0.4636
  118SOPE   C3912492   6.721   0.916   6.536 -0.4675  0.1119  0.3882
  118SOPE   H9X12493   6.786   0.831   6.563  0.4309  0.5255 -0.4267
  118SOPE   H9Y12494   6.771   0.963   6.448 -1.7714 -0.0830 -0.4887
  118SOPE  C31012495   6.587   0.867   6.489 -0.3149 -0.1860  0.3905
  118SOPE  H10X12496   6.538   0.946   6.428 -2.6528 -1.0907  0.9780
  118SOPE  H10Y12497   6.525   0.830   6.573 -0.6980 -1.1910 -0.3154
  118SOPE  C31112498   6.603   0.745   6.396  0.5480 -0.1632 -0.1594
  118SOPE  H11X12499   6.638   0.663   6.461  0.2224  0.8331  1.3120
  118SOPE  H11Y12500   6.685   0.754   6.321  1.2189  0.6047  0.6416
  118SOPE  C31212501   6.478   0.690   6.331 -0.3283  0.4061 -0.1426
  118SOPE  H12X12502   6.423   0.769   6.274 -0.9091  0.4447  0.4579
  118SOPE  H12Y12503   6.409   0.650   6.408  0.1446  1.6216  0.9514
  118SOPE  C31312504   6.515   0.568   6.241  0.1386 -0.0564 -0.2411
  118SOPE  H13X12505   6.538   0.479   6.303 -1.1633  0.5702  1.1815
  118SOPE  H13Y12506   6.604   0.592   6.178  1.2825 -0.7862  1.0300
  118SOPE  C31412507   6.418   0.516   6.132  0.0037  0.0770  0.2444
  118SOPE  H14X12508   6.335   0.478   6.195 -0.2334  0.0485 -0.0818
  118SOPE  H14Y12509   6.465   0.429   6.080 -1.8723  0.1511 -1.6839
  118SOPE  C31512510   6.380   0.614   6.021 -0.2123 -0.8488  0.7814
  118SOPE  H15X12511   6.306   0.682   6.070  0.8647  1.4514 -0.6010
  118SOPE  H15Y12512   6.332   0.562   5.936 -0.3003  0.4799 -0.0083
  118SOPE  C31612513   6.485   0.708   5.959 -0.0731 -0.0235 -0.3621
  118SOPE  H16X12514   6.569   0.649   5.915 -0.9413 -0.9754 -0.7875
  118SOPE  H16Y12515   6.535   0.767   6.038 -1.9795 -1.5838  2.1846
  118SOPE  C31712516   6.419   0.802   5.857  0.5390 -0.1143  0.5420
  118SOPE  H17X12517   6.342   0.857   5.915  0.3685 -1.6331  1.8253
  118SOPE  H17Y12518   6.388   0.745   5.767 -0.2101  0.0054  0.7170
  118SOPE  C31812519   6.507   0.920   5.815 -0.1854 -0.4847  0.3422
  118SOPE  H18X12520   6.449   0.982   5.743  0.4545  2.5175  2.2187
  118SOPE  H18Y12521   6.604   0.892   5.769  0.6946 -1.1209  2.5000
  118SOPE  H18Z12522   6.526   0.984   5.903 -1.2234  0.9026 -0.3978
  119SOPE     N12523   1.858   6.706   7.322 -0.5560 -0.3082 -0.5822
  119SOPE   HN112524   1.931   6.697   7.249  0.8393  1.0603  0.5649
  119SOPE   HN212525   1.796   6.622   7.330 -0.6051 -0.4796 -2.4446
  119SOPE   HN312526   1.797   6.785   7.293  0.8113  1.3004  0.7659
  119SOPE   C1212527   1.926   6.743   7.452 -0.1936  0.2473  0.4992
  119SOPE  H12A12528   1.851   6.788   7.520  1.4975  0.3961  2.3636
  119SOPE  H12B12529   2.005   6.817   7.426  0.5744 -1.1691 -1.5084
  119SOPE   C1112530   1.987   6.622   7.514 -0.2083  0.0909 -0.0492
  119SOPE  H11A12531   1.918   6.536   7.532 -1.2615  0.9177 -0.0038
  119SOPE  H11B12532   2.020   6.648   7.617  0.3822 -2.4633  0.4950
  119SOPE     P12533   2.213   6.485   7.505  0.2262 -0.0648  0.2305
  119SOPE   O1312534   2.245   6.376   7.410  0.3672 -0.0169  0.8447
  119SOPE   O1412535   2.165   6.448   7.645 -0.2719 -0.1811 -0.1560
  119SOPE   O1212536   2.098   6.572   7.434 -0.6439 -0.0487 -0.6764
  119SOPE   O1112537   2.329   6.592   7.523 -0.0283  0.1194 -0.0919
  119SOPE    C112538   2.348   6.699   7.424 -0.0904  0.1604 -0.1940
  119SOPE    HA12539   2.448   6.744   7.442 -1.2602  2.6129  0.5749
  119SOPE    HB12540   2.284   6.783   7.456  1.4284  0.0367  3.7495
  119SOPE    C212541   2.356   6.663   7.271  0.3610  0.6394 -0.4057
  119SOPE    HS12542   2.251   6.640   7.241  0.8326 -1.5183 -0.5975
  119SOPE   O2112543   2.433   6.549   7.244  0.4454 -0.1538 -0.0665
  119SOPE   C2112544   2.402   6.487   7.136  0.3422  0.0679  0.2284
  119SOPE   O2212545   2.309   6.508   7.062 -0.3411  0.4202  0.1108
  119SOPE   C2212546   2.495   6.364   7.122 -0.3523 -0.1576 -0.2125
  119SOPE   H2R12547   2.489   6.308   7.218 -2.2984 -0.6412 -0.5659
  119SOPE   H2S12548   2.598   6.402   7.107 -1.0051  1.2922 -1.2762
  119SOPE    C312549   2.403   6.789   7.200  0.4859 -0.1540  0.9458
  119SOPE    HX12550   2.513   6.786   7.188  0.3256 -0.8476 -0.6086
  119SOPE    HY12551   2.387   6.886   7.252  1.2191  1.9954 -2.4801
  119SOPE   O3112552   2.341   6.792   7.074 -0.0772 -0.9736  0.2132
  119SOPE   C3112553   2.364   6.906   6.999 -0.0416 -0.2270  0.1662
  119SOPE   O3212554   2.407   7.014   7.041 -0.2307 -0.1345 -0.1109
  119SOPE   C3212555   2.313   6.878   6.863  0.3008 -0.3735 -0.0143
  119SOPE   H2X12556   2.214   6.830   6.875  0.0555  0.2702  0.5811
  119SOPE   H2Y12557   2.370   6.794   6.818  0.4690  0.4563 -1.4184
  119SOPE   C2312558   2.443   6.272   6.998 -0.4351  0.4490 -0.8544
  119SOPE   H3R12559   2.454   6.332   6.906  2.4499 -0.6647 -1.3374
  119SOPE   H3S12560   2.337   6.253   7.027 -0.5912  2.9919  0.6027
  119SOPE   C2412561   2.502   6.132   6.993 -0.2072  0.7090  0.3944
  119SOPE   H4R12562   2.522   6.096   7.097  0.0032  0.6096  0.3184
  119SOPE   H4S12563   2.439   6.062   6.934  1.2343  1.4067 -2.1144
  119SOPE   C2512564   2.641   6.119   6.919 -0.0883  0.2470 -0.4286
  119SOPE   H5R12565   2.716   6.181   6.972 -1.7166  0.8204  1.3633
  119SOPE   H5S12566   2.664   6.010   6.926  1.7529  0.7215  2.4940
  119SOPE   C2612567   2.645   6.163   6.773  0.2213  0.2610 -0.3059
  119SOPE   H6R12568   2.587   6.089   6.714  0.1971 -0.6369  0.8083
  119SOPE   H6S12569   2.606   6.266   6.758  2.3921  1.0704 -0.7140
  119SOPE   C2712570   2.783   6.167   6.701 -0.3976 -0.0324 -0.2222
  119SOPE   H7R12571   2.838   6.260   6.728  0.5549 -0.4057 -0.8178
  119SOPE   H7S12572   2.841   6.080   6.740 -1.5316 -1.3595 -1.3735
  119SOPE   C2812573   2.779   6.163   6.547 -0.2933 -0.4641  0.1905
  119SOPE   H8R12574   2.883   6.157   6.507 -1.1736  2.7923 -3.0732
  119SOPE   H8S12575   2.739   6.062   6.524 -0.3461 -0.6407  1.0073
  119SOPE   C2912576   2.695   6.272   6.479  0.4385  0.4942  0.0375
  119SOPE   H9112577   2.594   6.248   6.442  1.1091  1.1890 -2.4506
  119SOPE  C21012578   2.746   6.388   6.432  0.8939  0.8351 -0.8960
  119SOPE  H10112579   2.685   6.456   6.371 -0.1292  0.7957  0.0538
  119SOPE  C21112580   2.875   6.439   6.464  0.2240 -0.2630  0.1529
  119SOPE  H11R12581   2.954   6.367   6.433  0.0329 -0.4688  0.1427
  119SOPE  H11S12582   2.881   6.455   6.574 -0.0486  0.0729  0.1191
  119SOPE  C21212583   2.903   6.572   6.385 -0.1932  0.3243 -0.1569
  119SOPE  H12R12584   3.004   6.609   6.413  0.6304 -1.8254 -0.1403
  119SOPE  H12S12585   2.835   6.649   6.427 -0.9692 -1.3438  1.8418
  119SOPE  C21312586   2.873   6.572   6.238 -0.3528  0.2931 -0.0761
  119SOPE  H13R12587   2.764   6.559   6.223 -0.5287  0.2938  1.1163
  119SOPE  H13S12588   2.917   6.482   6.190 -1.9235 -0.4064 -0.2821
  119SOPE  C21412589   2.934   6.693   6.167 -0.3830 -0.2424 -0.6357
  119SOPE  H14R12590   3.042   6.685   6.192 -0.3251  2.4166  0.3049
  119SOPE  H14S12591   2.911   6.796   6.201 -0.0543 -1.2267  3.0092
  119SOPE  C21512592   2.906   6.707   6.022  0.2385  0.4277 -0.3144
  119SOPE  H15R12593   2.977   6.785   5.986 -1.0016  1.0724 -1.4236
  119SOPE  H15S12594   2.799   6.735   6.012  0.0207  0.8480  2.3432
  119SOPE  C21612595   2.930   6.594   5.929  0.1256 -0.2612 -0.5265
  119SOPE  H16R12596   3.032   6.552   5.939  0.3146 -0.0603 -1.5085
  119SOPE  H16S12597   2.929   6.638   5.827  2.2871 -1.1255 -0.9849
  119SOPE  C21712598   2.805   6.492   5.928 -0.0348 -0.0910  0.0061
  119SOPE  H17R12599   2.715   6.549   5.897 -0.5636 -0.2927  1.1148
  119SOPE  H17S12600   2.796   6.452   6.031 -0.9184 -1.0461 -0.4302
  119SOPE  C21812601   2.807   6.381   5.823 -0.1362 -0.0322  0.2920
  119SOPE  H18R12602   2.904   6.328   5.832 -0.4274 -0.8137 -0.8965
  119SOPE  H18S12603   2.796   6.434   5.726 -1.7272  2.1603  1.5682
  119SOPE  H18T12604   2.725   6.307   5.837  1.7060 -2.3100 -0.3731
  119SOPE   C3312605   2.297   7.006   6.781  0.4061  0.1049 -0.0306
  119SOPE   H3X12606   2.392   7.062   6.765  0.3208 -0.2985 -2.3470
  119SOPE   H3Y12607   2.222   7.070   6.832  1.1048 -1.2624  2.9450
  119SOPE   C3412608   2.235   6.980   6.644  0.3830  0.5276 -0.0080
  119SOPE   H4X12609   2.128   6.957   6.660  0.4701 -1.4193 -1.8183
  119SOPE   H4Y12610   2.289   6.897   6.593 -1.9060 -0.7670 -0.4649
  119SOPE   C3512611   2.240   7.098   6.552 -0.1129  0.6185  0.2828
  119SOPE   H5X12612   2.346   7.112   6.522 -0.2750 -2.5169 -2.2981
  119SOPE   H5Y12613   2.213   7.187   6.613 -0.9477 -0.2906  1.2916
  119SOPE   C3612614   2.159   7.094   6.425 -0.0263 -0.0004 -0.1017
  119SOPE   H6X12615   2.050   7.095   6.446  0.0560  0.0620  0.3224
  119SOPE   H6Y12616   2.178   7.005   6.361 -0.6488 -1.0741  1.1674
  119SOPE   C3712617   2.181   7.231   6.358  0.3622 -0.2902  0.2014
  119SOPE   H7X12618   2.287   7.235   6.323  0.9733  3.3296  1.9391
  119SOPE   H7Y12619   2.162   7.315   6.428  0.2974  0.0938 -0.2658
  119SOPE   C3812620   2.075   7.259   6.247 -0.2981  0.2651  0.8934
  119SOPE   H8X12621   1.967   7.247   6.270 -1.4869  1.1874 -3.2839
  119SOPE   H8Y12622   2.093   7.185   6.166 -1.6905  1.5461 -0.6673
  119SOPE   C3912623   2.093   7.401   6.186 -0.0605  0.0527 -0.0353
  119SOPE   H9X12624   2.198   7.432   6.167  0.0483 -1.0918 -1.4905
  119SOPE   H9Y12625   2.068   7.461   6.276 -2.1439 -0.8147  0.0319
  119SOPE  C31012626   2.002   7.434   6.072 -0.0037 -0.3567 -0.0043
  119SOPE  H10X12627   1.936   7.349   6.044  0.0874 -0.0852 -1.0832
  119SOPE  H10Y12628   2.065   7.441   5.981 -1.9660  0.4032 -1.3658
  119SOPE  C31112629   1.916   7.556   6.085 -0.0287  0.4548  1.0450
  119SOPE  H11X12630   1.973   7.651   6.082 -3.1058  2.4345 -0.0406
  119SOPE  H11Y12631   1.843   7.546   6.169 -0.2285 -2.1575  0.6374
  119SOPE  C31212632   1.829   7.574   5.955 -0.1970  0.2821  0.0751
  119SOPE  H12X12633   1.772   7.479   5.943  0.1217  0.1915 -0.7783
  119SOPE  H12Y12634   1.893   7.583   5.865  0.6408 -2.5105  0.2933
  119SOPE  C31312635   1.742   7.705   5.970  0.8891 -0.1840 -0.2197
  119SOPE  H13X12636   1.813   7.789   5.982  0.5946 -0.0883  0.9677
  119SOPE  H13Y12637   1.683   7.688   6.062 -1.5685 -0.9795 -1.8413
  119SOPE  C31412638   1.645   7.717   5.844  0.2213  0.0729  0.1142
  119SOPE  H14X12639   1.582   7.627   5.833  0.1363  0.0543  0.7036
  119SOPE  H14Y12640   1.706   7.720   5.751 -1.2737  3.3656 -0.9163
  119SOPE  C31512641   1.572   7.856   5.839  0.3494 -0.8891 -0.1364
  119SOPE  H15X12642   1.640   7.943   5.821 -1.6115  1.4990  2.9842
  119SOPE  H15Y12643   1.528   7.881   5.937  1.3324 -0.5463  0.2375
  119SOPE  C31612644   1.460   7.872   5.735  0.0308  0.0106  0.2173
  119SOPE  H16X12645   1.419   7.771   5.712 -1.3149 -0.1292  2.8050
  119SOPE  H16Y12646   1.481   7.918   5.636 -2.4512 -0.2897 -0.5215
  119SOPE  C31712647   1.342   7.948   5.796 -0.5882 -0.3801  0.0192
  119SOPE  H17X12648   1.316   7.917   5.900  0.3813  2.2323  1.1297
  119SOPE  H17Y12649   1.253   7.945   5.731 -0.6246  0.0393  0.0492
  119SOPE  C31812650   1.379   8.096   5.811 -0.2702  0.1653 -0.3995
  119SOPE  H18X12651   1.299   8.136   5.877  0.8700  1.3763  0.2885
  119SOPE  H18Y12652   1.377   8.151   5.714  0.0412  1.3134  0.2343
  119SOPE  H18Z12653   1.481   8.111   5.852 -0.5065 -1.7024  1.0176
  120SOPE     N12654   1.601   1.485   7.530 -0.0609 -0.5343  0.0580
  120SOPE   HN112655   1.521   1.425   7.502  1.0228 -2.1783  0.3190
  120SOPE   HN212656   1.579   1.584   7.507 -0.4227 -0.6176  0.0508
  120SOPE   HN312657   1.671   1.454   7.460  1.3467 -1.9666  1.9749
  120SOPE   C1212658   1.638   1.455   7.675  0.2175  0.0921 -0.3739
  120SOPE  H12A12659   1.542   1.421   7.719  0.2165  0.7167  0.1220
  120SOPE  H12B12660   1.682   1.547   7.720  1.4785 -2.1565  3.5035
  120SOPE   C1112661   1.751   1.356   7.703 -0.1559  0.0102  0.3766
  120SOPE  H11A12662   1.718   1.257   7.665 -1.6697  0.7253 -0.2702
  120SOPE  H11B12663   1.770   1.363   7.812 -0.0450  2.1453  0.2635
  120SOPE     P12664   1.986   1.486   7.702 -0.2291  0.1404 -0.3379
  120SOPE   O1312665   2.090   1.391   7.750 -0.0013  0.4726 -0.1380
  120SOPE   O1412666   1.928   1.567   7.805  0.2227 -0.3007 -0.1017
  120SOPE   O1212667   1.868   1.394   7.631 -0.7317  0.1076 -0.8075
  120SOPE   O1112668   2.058   1.571   7.586 -0.4532 -0.2255  0.1071
  120SOPE    C112669   2.128   1.522   7.476 -0.0921  0.1035  1.2875
  120SOPE    HA12670   2.155   1.414   7.476 -0.2462  0.0659  0.6944
  120SOPE    HB12671   2.222   1.580   7.467  1.0212 -1.7312  0.5780
  120SOPE    C212672   2.048   1.556   7.348  0.1598  0.3349  0.0389
  120SOPE    HS12673   1.965   1.483   7.339  0.8493 -0.4016 -0.4200
  120SOPE   O2112674   2.131   1.549   7.229 -0.2520  0.7072  0.2029
  120SOPE   C2112675   2.154   1.417   7.195  0.1885  0.4996 -0.0649
  120SOPE   O2212676   2.111   1.319   7.252 -0.3584  0.6253 -0.2138
  120SOPE   C2212677   2.235   1.418   7.058  0.1809  0.0439 -0.4870
  120SOPE   H2R12678   2.276   1.317   7.037  2.9477  1.3300 -1.9438
  120SOPE   H2S12679   2.326   1.480   7.073  0.7106 -0.7920 -0.1926
  120SOPE    C312680   1.980   1.694   7.357  0.0137  0.2266 -0.0998
  120SOPE    HX12681   2.056   1.775   7.366 -0.4935  0.5784  1.1841
  120SOPE    HY12682   1.919   1.700   7.450  0.3899  1.7762  0.0891
  120SOPE   O3112683   1.900   1.726   7.239  0.3524  0.3891  0.6214
  120SOPE   C3112684   1.781   1.658   7.235 -0.1497 -0.1765  0.0020
  120SOPE   O3212685   1.746   1.586   7.325  0.0728 -0.9722 -0.0228
  120SOPE   C3212686   1.699   1.690   7.110  0.1782 -0.1273  0.0821
  120SOPE   H2X12687   1.605   1.743   7.138  0.3611  0.9067 -1.1507
  120SOPE   H2Y12688   1.673   1.594   7.061 -1.2041 -1.1397  2.6326
  120SOPE   C2312689   2.154   1.471   6.946  0.4173 -0.1121  0.0754
  120SOPE   H3R12690   2.225   1.491   6.863  0.0796  3.9409  0.5947
  120SOPE   H3S12691   2.110   1.572   6.956  1.3521  0.1144  2.5465
  120SOPE   C2412692   2.050   1.373   6.890  0.5285  0.3218 -0.5260
  120SOPE   H4R12693   2.107   1.280   6.873  1.2480  0.4667  0.9369
  120SOPE   H4S12694   1.969   1.360   6.966 -0.1725  2.5982 -0.7853
  120SOPE   C2512695   1.989   1.412   6.754  0.2928 -0.3285  0.7147
  120SOPE   H5R12696   2.063   1.431   6.674 -1.8947  0.5829 -1.2019
  120SOPE   H5S12697   1.930   1.322   6.724 -1.8538  0.7770  1.3743
  120SOPE   C2612698   1.907   1.548   6.746  0.1362 -0.4797  0.5014
  120SOPE   H6R12699   1.811   1.536   6.802 -0.5960 -2.3390 -1.0284
  120SOPE   H6S12700   1.964   1.629   6.796 -1.1584  0.8635 -0.1207
  120SOPE   C2712701   1.875   1.584   6.595  0.0729 -0.2022  0.1174
  120SOPE   H7R12702   1.966   1.598   6.534 -0.8560  2.9078 -0.7616
  120SOPE   H7S12703   1.798   1.517   6.552  0.5644 -0.3054 -0.6092
  120SOPE   C2812704   1.814   1.726   6.584  0.0200 -0.8374 -0.4414
  120SOPE   H8R12705   1.739   1.715   6.502 -0.1776 -0.1682 -0.3580
  120SOPE   H8S12706   1.754   1.755   6.673  2.0026 -0.4236  0.8136
  120SOPE   C2912707   1.906   1.844   6.550  0.3130  0.5947  0.8519
  120SOPE   H9112708   1.997   1.853   6.611  1.2310 -1.0347 -0.1940
  120SOPE  C21012709   1.882   1.922   6.442 -0.0966 -0.0783 -0.4735
  120SOPE  H10112710   1.957   2.002   6.437  0.0921 -0.3162 -1.9557
  120SOPE  C21112711   1.764   1.921   6.351 -0.4491  0.4118 -0.2893
  120SOPE  H11R12712   1.746   2.015   6.296 -2.1080 -0.8376 -2.0247
  120SOPE  H11S12713   1.671   1.883   6.399 -1.3592  0.4117 -1.9710
  120SOPE  C21212714   1.804   1.821   6.235 -0.9877 -0.4144  0.3833
  120SOPE  H12R12715   1.832   1.725   6.283 -2.7578 -0.1719  1.9783
  120SOPE  H12S12716   1.895   1.868   6.191 -1.0833  1.1427  1.7341
  120SOPE  C21312717   1.700   1.789   6.124 -0.2298 -0.3118  0.0742
  120SOPE  H13R12718   1.605   1.751   6.166  0.2644  0.4679  1.9683
  120SOPE  H13S12719   1.745   1.706   6.065  0.4848 -0.9014  1.4106
  120SOPE  C21412720   1.654   1.907   6.032 -0.0863 -0.1391  0.9705
  120SOPE  H14R12721   1.737   1.933   5.963  0.3654  1.4220  2.0562
  120SOPE  H14S12722   1.642   1.992   6.102  2.9539 -2.5861  4.9026
  120SOPE  C21512723   1.523   1.893   5.950  0.2023  0.3967 -0.6743
  120SOPE  H15R12724   1.512   1.973   5.874 -2.5929  0.1797 -0.6047
  120SOPE  H15S12725   1.434   1.901   6.016  1.3360 -2.8812  1.4821
  120SOPE  C21612726   1.513   1.762   5.879 -0.1885  0.1816  0.3208
  120SOPE  H16R12727   1.418   1.743   5.824  0.1301 -2.6616  0.5936
  120SOPE  H16S12728   1.519   1.678   5.951 -0.1674 -0.2145 -0.1385
  120SOPE  C21712729   1.628   1.734   5.772 -0.5335  0.2634  0.2902
  120SOPE  H17R12730   1.723   1.731   5.830 -1.9971  2.7027  3.1014
  120SOPE  H17S12731   1.629   1.825   5.708 -1.7996  0.0483 -0.0508
  120SOPE  C21812732   1.608   1.605   5.695  0.0374  0.1145  0.1490
  120SOPE  H18R12733   1.530   1.615   5.617  0.6049  0.8040 -0.3458
  120SOPE  H18S12734   1.588   1.519   5.762  1.9613  0.2722  1.0270
  120SOPE  H18T12735   1.708   1.589   5.648  0.4586  0.4987  0.8831
  120SOPE   C3312736   1.767   1.768   6.997 -0.0496  0.0354  0.2589
  120SOPE   H3X12737   1.707   1.737   6.909  0.3173  1.5358 -0.5609
  120SOPE   H3Y12738   1.871   1.729   6.985 -0.0220 -0.1935  1.2129
  120SOPE   C3412739   1.770   1.917   7.010  0.5594  0.2199 -0.6124
  120SOPE   H4X12740   1.830   1.951   7.097  0.6133 -0.5827 -0.3305
  120SOPE   H4Y12741   1.669   1.950   7.042  1.1400 -0.0688  1.6925
  120SOPE   C3512742   1.818   1.994   6.885 -0.0305  0.2410  0.2136
  120SOPE   H5X12743   1.736   1.974   6.813 -0.6206  1.1269  0.6264
  120SOPE   H5Y12744   1.916   1.949   6.857 -0.4223 -2.8789  3.2109
  120SOPE   C3612745   1.836   2.143   6.911 -0.3326  0.3107 -0.6074
  120SOPE   H6X12746   1.929   2.157   6.971 -0.9118 -1.4432  0.7842
  120SOPE   H6Y12747   1.753   2.181   6.975  0.2626  0.4713  0.0925
  120SOPE   C3712748   1.851   2.224   6.780  0.1005 -0.5870 -0.0640
  120SOPE   H7X12749   1.818   2.330   6.791 -1.4871 -0.8237 -2.0477
  120SOPE   H7Y12750   1.773   2.198   6.705  0.4723 -0.7524 -0.3937
  120SOPE   C3812751   1.993   2.240   6.723  0.4139 -0.0844 -0.2411
  120SOPE   H8X12752   2.048   2.150   6.686 -0.1259 -0.2149 -0.7397
  120SOPE   H8Y12753   2.054   2.279   6.807 -1.0524  0.7454  0.4573
  120SOPE   C3912754   2.004   2.334   6.601 -0.3645 -0.1920 -0.5292
  120SOPE   H9X12755   2.024   2.439   6.630 -1.0400 -0.1246 -0.2868
  120SOPE   H9Y12756   1.915   2.346   6.536 -0.0410 -1.0146 -1.1495
  120SOPE  C31012757   2.103   2.282   6.500 -0.2150 -1.2888  0.0573
  120SOPE  H10X12758   2.115   2.361   6.423  0.5036 -1.3793  0.0708
  120SOPE  H10Y12759   2.078   2.188   6.446  0.1452 -1.7465  0.6744
  120SOPE  C31112760   2.244   2.255   6.554  0.0843  0.1936 -0.1876
  120SOPE  H11X12761   2.240   2.159   6.609  1.4076 -0.6894 -1.5474
  120SOPE  H11Y12762   2.282   2.335   6.622  2.5456 -1.1095  0.0922
  120SOPE  C31212763   2.349   2.232   6.437 -0.0414  0.4904 -0.5693
  120SOPE  H12X12764   2.355   2.321   6.372 -1.9709  0.9488 -0.1949
  120SOPE  H12Y12765   2.310   2.149   6.373 -1.0404  2.6351 -2.9085
  120SOPE  C31312766   2.490   2.194   6.487 -0.1350  0.0325  0.5254
  120SOPE  H13X12767   2.482   2.113   6.564  0.5226 -0.8505 -0.3100
  120SOPE  H13Y12768   2.531   2.286   6.534  0.9608 -0.0146 -0.3146
  120SOPE  C31412769   2.568   2.140   6.364 -0.2137  0.5846 -0.2790
  120SOPE  H14X12770   2.518   2.047   6.330  2.6602 -0.8967 -0.6649
  120SOPE  H14Y12771   2.660   2.098   6.408  1.1969  2.7906 -0.9729
  120SOPE  C31512772   2.589   2.228   6.241 -0.1668  0.6951 -0.0730
  120SOPE  H15X12773   2.636   2.322   6.278  2.0973  1.2979 -3.9064
  120SOPE  H15Y12774   2.489   2.261   6.206 -0.2286 -0.6368 -1.2270
  120SOPE  C31612775   2.675   2.163   6.135  0.4195  0.4755  0.0583
  120SOPE  H16X12776   2.766   2.124   6.185  0.7371 -0.9559 -1.5140
  120SOPE  H16Y12777   2.708   2.222   6.046  3.8641 -2.3470 -0.7704
  120SOPE  C31712778   2.610   2.035   6.082 -0.5571 -0.0296 -1.5265
  120SOPE  H17X12779   2.511   2.057   6.036 -1.8002  0.5596  1.2564
  120SOPE  H17Y12780   2.619   1.964   6.167  2.5685  2.5310  0.5015
  120SOPE  C31812781   2.698   1.979   5.969  0.3121  0.0992  0.7881
  120SOPE  H18X12782   2.696   2.036   5.873 -1.0829  2.3743  2.0730
  120SOPE  H18Y12783   2.666   1.874   5.955  2.7807 -0.5813 -0.2130
  120SOPE  H18Z12784   2.807   1.965   5.985  1.0390  1.3405 -2.3514
  121SOPE     N12785   2.239   1.192   7.605  0.3693 -0.9145 -0.2816
  121SOPE   HN112786   2.300   1.253   7.546 -1.3590  2.7949  1.4707
  121SOPE   HN212787   2.189   1.256   7.670  2.1799  1.2075 -0.8396
  121SOPE   HN312788   2.311   1.137   7.657  2.0562  1.3747 -0.0269
  121SOPE   C1212789   2.145   1.115   7.524  0.4410  1.0529 -1.0488
  121SOPE  H12A12790   2.074   1.196   7.496 -0.7693 -0.2016 -1.7232
  121SOPE  H12B12791   2.098   1.040   7.590  0.0746  1.8159 -0.4282
  121SOPE   C1112792   2.209   1.043   7.401 -0.0159 -0.0221 -0.4094
  121SOPE  H11A12793   2.233   1.116   7.321  1.3998 -0.0394 -0.0355
  121SOPE  H11B12794   2.132   0.986   7.345  1.0986 -0.6557 -1.3474
  121SOPE     P12795   2.314   0.809   7.474  0.1414 -0.2772  0.0611
  121SOPE   O1312796   2.199   0.773   7.562  0.3951 -0.2442  0.0802
  121SOPE   O1412797   2.448   0.786   7.525  0.1296  0.1131 -0.0675
  121SOPE   O1212798   2.322   0.966   7.439 -0.6261 -0.4043  0.1977
  121SOPE   O1112799   2.278   0.732   7.333 -0.3832 -0.2577  0.0515
  121SOPE    C112800   2.370   0.742   7.228  0.0373  0.3146  0.5432
  121SOPE    HA12801   2.377   0.645   7.175  0.1058  0.4595  0.2824
  121SOPE    HB12802   2.478   0.748   7.257  0.4358 -1.8167 -0.3751
  121SOPE    C212803   2.330   0.847   7.121  0.2496 -0.3827  0.4946
  121SOPE    HS12804   2.309   0.943   7.174  0.9022  0.7060 -1.1235
  121SOPE   O2112805   2.216   0.787   7.049 -0.3903  0.2008  0.0182
  121SOPE   C2112806   2.146   0.879   6.986  0.5831  0.1499 -0.3108
  121SOPE   O2212807   2.159   0.995   6.994  0.5421 -0.4935 -0.2007
  121SOPE   C2212808   2.036   0.809   6.910  0.2184  0.5490  0.2795
  121SOPE   H2R12809   1.971   0.756   6.982  3.2622 -0.9047  2.1384
  121SOPE   H2S12810   2.082   0.725   6.854 -1.7735 -0.4424  0.0545
  121SOPE    C312811   2.452   0.863   7.028  0.0190  0.0973  0.2438
  121SOPE    HX12812   2.495   0.766   6.994  0.2728  1.3148 -3.3313
  121SOPE    HY12813   2.529   0.904   7.098 -0.7604  1.8285  0.1080
  121SOPE   O3112814   2.418   0.925   6.910 -0.3866  0.5115  0.5103
  121SOPE   C3112815   2.450   1.057   6.913 -0.4884  0.0635  0.7971
  121SOPE   O3212816   2.500   1.117   7.007  0.3376 -0.2578 -1.2392
  121SOPE   C3212817   2.432   1.121   6.770  0.7988 -0.0557  0.2185
  121SOPE   H2X12818   2.532   1.124   6.720 -0.6959 -1.1817 -3.1374
  121SOPE   H2Y12819   2.399   1.227   6.782  1.5356 -0.0946  3.7584
  121SOPE   C2312820   1.963   0.903   6.812 -1.1202 -0.3008  0.0419
  121SOPE   H3R12821   2.046   0.941   6.748  0.8092 -0.8381  2.0919
  121SOPE   H3S12822   1.919   0.989   6.867  0.5399  2.4057 -2.5418
  121SOPE   C2412823   1.858   0.830   6.729  0.6613 -0.0818 -0.0510
  121SOPE   H4R12824   1.844   0.893   6.638 -0.9578  2.0350  1.5450
  121SOPE   H4S12825   1.908   0.740   6.689 -0.4075 -0.9675  0.5546
  121SOPE   C2512826   1.720   0.798   6.789 -0.1448  0.0246  0.1514
  121SOPE   H5R12827   1.713   0.736   6.881  1.0795 -0.2763  0.0585
  121SOPE   H5S12828   1.677   0.896   6.820 -0.7946 -0.6960  1.6286
  121SOPE   C2612829   1.620   0.743   6.685  0.1594 -0.6793  0.1266
  121SOPE   H6R12830   1.524   0.743   6.741  0.7524 -0.1713  1.1845
  121SOPE   H6S12831   1.610   0.815   6.600 -1.1267 -1.0208 -0.0326
  121SOPE   C2712832   1.656   0.610   6.620  0.4062  0.7233  0.1836
  121SOPE   H7R12833   1.750   0.613   6.562  0.2614 -0.6007 -0.1558
  121SOPE   H7S12834   1.673   0.552   6.713 -0.5642  0.7003  0.3597
  121SOPE   C2812835   1.549   0.559   6.526  0.5474 -0.2233  0.3854
  121SOPE   H8R12836   1.573   0.456   6.494 -0.1313 -0.8974  1.9259
  121SOPE   H8S12837   1.455   0.551   6.585 -0.1032  1.0016 -0.4443
  121SOPE   C2912838   1.532   0.640   6.405  0.0705 -0.0918  0.1886
  121SOPE   H9112839   1.578   0.740   6.412  0.6428 -0.4616  2.1912
  121SOPE  C21012840   1.477   0.607   6.287  0.8002 -0.3297  0.0665
  121SOPE  H10112841   1.485   0.678   6.203 -0.4181 -0.1230  0.1078
  121SOPE  C21112842   1.399   0.484   6.255 -0.5231 -0.6765 -0.3941
  121SOPE  H11R12843   1.290   0.504   6.253 -0.3386  0.5850  0.6689
  121SOPE  H11S12844   1.421   0.411   6.336 -2.7060  0.5248  1.3661
  121SOPE  C21212845   1.437   0.424   6.119 -0.0695 -0.1264  0.1944
  121SOPE  H12R12846   1.391   0.323   6.122  3.0085 -1.6589  0.0744
  121SOPE  H12S12847   1.546   0.408   6.104 -0.2630 -0.2621 -1.1282
  121SOPE  C21312848   1.374   0.479   5.992  0.8738  0.0050  0.6775
  121SOPE  H13R12849   1.427   0.436   5.905 -1.9959 -0.7218 -0.8296
  121SOPE  H13S12850   1.393   0.589   5.995  2.6723 -0.2795  2.8434
  121SOPE  C21412851   1.228   0.450   5.963 -0.3781 -0.6503  0.1119
  121SOPE  H14R12852   1.150   0.474   6.038 -0.4436  1.9548 -0.6902
  121SOPE  H14S12853   1.216   0.341   5.945 -1.2002 -0.5513  0.0296
  121SOPE  C21512854   1.168   0.529   5.844  0.3605  0.6279 -0.2484
  121SOPE  H15R12855   1.233   0.521   5.754 -0.8958  0.3686 -1.1814
  121SOPE  H15S12856   1.170   0.634   5.882 -0.9229  0.2335  0.9956
  121SOPE  C21612857   1.021   0.487   5.814  0.0932  0.0407 -0.6636
  121SOPE  H16R12858   0.977   0.481   5.916  2.2266  0.1048  0.3319
  121SOPE  H16S12859   1.027   0.389   5.761  1.2072 -0.1349 -0.2581
  121SOPE  C21712860   0.948   0.598   5.731 -0.0335  0.8937 -0.7818
  121SOPE  H17R12861   1.005   0.596   5.636  2.7929 -0.4717  0.8065
  121SOPE  H17S12862   0.966   0.700   5.769  4.2443 -0.6830  2.2316
  121SOPE  C21812863   0.802   0.556   5.713  0.2798 -0.3727  0.3716
  121SOPE  H18R12864   0.757   0.526   5.811  1.2728  1.1017  1.3219
  121SOPE  H18S12865   0.788   0.470   5.645  1.7132 -0.0872 -0.3163
  121SOPE  H18T12866   0.750   0.645   5.671  1.4024 -0.7675 -2.0105
  121SOPE   C3312867   2.344   1.043   6.680  0.3059  0.3944 -0.3736
  121SOPE   H3X12868   2.242   1.031   6.722  0.0341  0.8921 -0.8842
  121SOPE   H3Y12869   2.389   0.941   6.681  1.2741  0.7718  1.7326
  121SOPE   C3412870   2.347   1.096   6.531  1.0045  0.1589 -1.1785
  121SOPE   H4X12871   2.302   1.009   6.477  0.6954 -0.4744  0.0512
  121SOPE   H4Y12872   2.451   1.099   6.493  1.7591 -0.1369  0.7401
  121SOPE   C3512873   2.269   1.223   6.514  0.6414  0.2681 -0.1409
  121SOPE   H5X12874   2.330   1.316   6.518  0.1412  0.5735  0.8210
  121SOPE   H5Y12875   2.192   1.239   6.593  1.2502 -0.5120  0.6259
  121SOPE   C3612876   2.196   1.230   6.381  0.4449  0.3808  0.4440
  121SOPE   H6X12877   2.150   1.130   6.371  0.8981 -0.0079  1.9579
  121SOPE   H6Y12878   2.275   1.242   6.304  0.2660 -0.1635  0.1730
  121SOPE   C3712879   2.083   1.332   6.364  0.3944 -0.8340 -0.6322
  121SOPE   H7X12880   2.117   1.432   6.400  1.6924 -2.1450  2.1546
  121SOPE   H7Y12881   2.008   1.299   6.439  1.2765  0.5803  0.9497
  121SOPE   C3812882   2.024   1.336   6.227  0.1855  0.2494 -0.1128
  121SOPE   H8X12883   1.979   1.234   6.223  1.4940 -0.3186 -2.0635
  121SOPE   H8Y12884   2.105   1.336   6.151 -0.4081 -2.4260 -0.8606
  121SOPE   C3912885   1.913   1.439   6.203 -0.5658 -0.0004 -0.1495
  121SOPE   H9X12886   1.953   1.541   6.181  0.2289 -0.5520 -1.3633
  121SOPE   H9Y12887   1.860   1.434   6.300  2.6877 -2.3481  1.6546
  121SOPE  C31012888   1.817   1.394   6.087  0.0131 -0.6662  0.2331
  121SOPE  H10X12889   1.742   1.476   6.092  0.2732 -0.4185  0.1326
  121SOPE  H10Y12890   1.780   1.291   6.102  0.3450 -1.4157 -3.3777
  121SOPE  C31112891   1.880   1.404   5.941 -0.1577 -0.3866  0.3861
  121SOPE  H11X12892   1.949   1.490   5.933 -2.2790  1.2408 -2.9429
  121SOPE  H11Y12893   1.795   1.427   5.873  0.7890 -2.9860 -1.8846
  121SOPE  C31212894   1.934   1.263   5.893  0.0264 -0.8153  0.4604
  121SOPE  H12X12895   1.902   1.179   5.958  1.0328 -0.4675  1.4401
  121SOPE  H12Y12896   2.045   1.276   5.893  0.2979 -2.8161 -0.1247
  121SOPE  C31312897   1.889   1.227   5.750  0.0478  0.3218 -0.5798
  121SOPE  H13X12898   1.964   1.156   5.707 -0.3081 -1.5626  1.7006
  121SOPE  H13Y12899   1.896   1.323   5.695 -2.5274  1.2595  0.5889
  121SOPE  C31412900   1.748   1.169   5.749  0.1799  0.4294 -1.0602
  121SOPE  H14X12901   1.674   1.234   5.801 -1.5023 -1.6662 -0.6600
  121SOPE  H14Y12902   1.752   1.074   5.808  3.8513  1.0918  0.0195
  121SOPE  C31512903   1.695   1.147   5.602  0.0117 -0.1511 -0.2620
  121SOPE  H15X12904   1.682   1.242   5.547 -1.2477  0.0280  0.2985
  121SOPE  H15Y12905   1.595   1.099   5.609  1.2973 -2.8978  4.7483
  121SOPE  C31612906   1.789   1.056   5.514  1.0402 -0.7703 -0.7456
  121SOPE  H16X12907   1.840   0.984   5.582  2.0810 -0.5308 -1.2551
  121SOPE  H16Y12908   1.869   1.125   5.482  1.8263 -0.9904  0.6817
  121SOPE  C31712909   1.707   0.993   5.404  0.3661  0.1989  0.4118
  121SOPE  H17X12910   1.665   1.066   5.331 -1.2947 -0.6729  0.4467
  121SOPE  H17Y12911   1.620   0.935   5.441 -1.0951  2.2642  0.4072
  121SOPE  C31812912   1.791   0.904   5.316  0.1712 -0.2793  0.0771
  121SOPE  H18X12913   1.735   0.876   5.225  0.8255  1.8966 -1.0678
  121SOPE  H18Y12914   1.817   0.811   5.370  0.0060 -0.3006  0.1203
  121SOPE  H18Z12915   1.888   0.951   5.290  1.4206 -1.8513  1.6799
  122SOPE     N12916   1.814   0.481   7.565  0.6406  0.1994  0.1115
  122SOPE   HN112917   1.783   0.410   7.635 -0.2369  0.4076 -0.0536
  122SOPE   HN212918   1.917   0.484   7.562  0.6341  0.2312 -0.0977
  122SOPE   HN312919   1.774   0.573   7.592 -1.5711 -0.5692 -0.3056
  122SOPE   C1212920   1.764   0.453   7.424  0.0511  0.1264 -0.3978
  122SOPE  H12A12921   1.852   0.484   7.364  1.2382 -1.2014  0.5820
  122SOPE  H12B12922   1.674   0.511   7.395 -0.5012 -0.8562 -0.6931
  122SOPE   C1112923   1.767   0.306   7.391  0.4701  0.4706 -0.3454
  122SOPE  H11A12924   1.764   0.281   7.282 -0.4461 -1.1540  0.0207
  122SOPE  H11B12925   1.682   0.253   7.440  0.9195 -1.5591 -1.6550
  122SOPE     P12926   1.886   0.083   7.454  0.1579 -0.1878 -0.4746
  122SOPE   O1312927   1.797   0.027   7.356 -0.0027  0.1749  0.1143
  122SOPE   O1412928   1.856   0.030   7.596  0.2988 -0.9831  0.0988
  122SOPE   O1212929   1.880   0.244   7.451 -0.2609 -0.1363 -0.1238
  122SOPE   O1112930   2.040   0.042   7.412 -0.0571  0.1314 -0.1350
  122SOPE    C112931   2.109   0.128   7.318  0.4269 -0.0641 -0.0745
  122SOPE    HA12932   2.205   0.075   7.306  0.0761 -0.6945 -0.1468
  122SOPE    HB12933   2.120   0.222   7.375 -2.1377  0.1991  0.1095
  122SOPE    C212934   2.045   0.145   7.173 -0.3893  0.0861 -0.9678
  122SOPE    HS12935   1.947   0.197   7.176 -1.6299 -2.1658 -0.9569
  122SOPE   O2112936   2.037   0.019   7.117 -0.5730  0.1786  0.3210
  122SOPE   C2112937   1.928   0.004   7.034  1.0114  0.1361  0.7421
  122SOPE   O2212938   1.846   0.088   7.008 -0.0573 -0.6062  0.1747
  122SOPE   C2212939   1.940  -0.128   6.963  0.3324  0.0187  0.3356
  122SOPE   H2R12940   1.904  -0.216   7.020  2.8040 -2.4670 -1.6530
  122SOPE   H2S12941   2.049  -0.148   6.953  0.4457 -0.1314  1.6688
  122SOPE    C312942   2.133   0.239   7.074 -0.0169 -0.4686  0.0313
  122SOPE    HX12943   2.230   0.187   7.054  0.2719 -0.0177  0.2467
  122SOPE    HY12944   2.166   0.331   7.125  0.1814  0.0600 -1.0166
  122SOPE   O3112945   2.056   0.266   6.956  0.4603 -0.2029  0.3025
  122SOPE   C3112946   1.984   0.382   6.952  0.1707  0.0490  0.6399
  122SOPE   O3212947   1.983   0.466   7.039 -0.3487  0.0041 -0.4694
  122SOPE   C3212948   1.914   0.397   6.817  0.4301 -0.0866  0.1131
  122SOPE   H2X12949   1.971   0.474   6.760 -1.2011  1.3412  0.3400
  122SOPE   H2Y12950   1.810   0.431   6.837  0.3499  1.0378 -1.9575
  122SOPE   C2312951   1.865  -0.137   6.828  1.0788  0.8937 -0.2433
  122SOPE   H3R12952   1.901  -0.069   6.748  0.0117  0.6105 -0.9895
  122SOPE   H3S12953   1.759  -0.106   6.842  1.3738  2.6571 -1.6176
  122SOPE   C2412954   1.855  -0.289   6.786  0.1138  0.0344  0.3439
  122SOPE   H4R12955   1.959  -0.329   6.785 -0.5360 -1.8114 -1.3687
  122SOPE   H4S12956   1.796  -0.347   6.860 -3.8240 -0.7199 -3.0358
  122SOPE   C2512957   1.791  -0.313   6.648 -0.9957  0.5604 -0.2209
  122SOPE   H5R12958   1.693  -0.365   6.651 -1.7209  1.7670 -1.6815
  122SOPE   H5S12959   1.769  -0.213   6.606 -3.8663  0.4958  0.8858
  122SOPE   C2612960   1.897  -0.385   6.557 -0.1888  0.0025 -0.0109
  122SOPE   H6R12961   1.978  -0.309   6.551 -2.2010  2.1800 -1.1272
  122SOPE   H6S12962   1.935  -0.475   6.610  0.5670  0.0788 -0.4150
  122SOPE   C2712963   1.854  -0.435   6.417 -0.1816 -0.3629  0.1614
  122SOPE   H7R12964   1.933  -0.505   6.382  1.2845  1.8630 -1.2273
  122SOPE   H7S12965   1.755  -0.485   6.424  0.3161 -1.4869 -0.4958
  122SOPE   C2812966   1.847  -0.319   6.314  0.0405  0.2061 -0.0693
  122SOPE   H8R12967   1.801  -0.231   6.362 -3.0209 -1.2790 -0.0198
  122SOPE   H8S12968   1.948  -0.292   6.275 -0.1115 -1.2886 -1.6450
  122SOPE   C2912969   1.748  -0.363   6.200 -0.4342  0.1377 -0.3541
  122SOPE   H9112970   1.644  -0.334   6.220 -0.8044  0.0771 -2.0645
  122SOPE  C21012971   1.776  -0.429   6.090 -0.5576  0.7480  0.1049
  122SOPE  H10112972   1.689  -0.454   6.027 -1.5384 -2.0360  2.3439
  122SOPE  C21112973   1.897  -0.500   6.031  0.7236  0.6147 -0.1852
  122SOPE  H11R12974   1.979  -0.491   6.106 -2.9048 -2.3456  4.7379
  122SOPE  H11S12975   1.905  -0.450   5.932 -0.3918 -1.2183 -1.2460
  122SOPE  C21212976   1.861  -0.650   6.008 -0.8290 -1.0284  0.2639
  122SOPE  H12R12977   1.772  -0.666   5.943  0.3076  0.3045 -1.7304
  122SOPE  H12S12978   1.841  -0.695   6.108  1.9396 -0.3860  1.1825
  122SOPE  C21312979   1.983  -0.725   5.957  0.3446  0.2037 -0.1862
  122SOPE  H13R12980   1.969  -0.835   5.958 -0.5086  0.0830 -4.3000
  122SOPE  H13S12981   2.078  -0.701   6.009  0.7057 -1.2043 -0.1781
  122SOPE  C21412982   2.000  -0.700   5.810  0.0546  0.4685  0.3670
  122SOPE  H14R12983   1.984  -0.591   5.800  0.8110  0.6416  1.0106
  122SOPE  H14S12984   1.920  -0.755   5.756  1.3157 -1.0264 -0.0645
  122SOPE  C21512985   2.134  -0.748   5.760  0.2100 -0.4999 -0.3801
  122SOPE  H15R12986   2.141  -0.856   5.781 -1.4988 -0.3506  1.1987
  122SOPE  H15S12987   2.207  -0.692   5.822 -0.1693  3.4063 -3.0501
  122SOPE  C21612988   2.163  -0.724   5.614 -0.6477 -0.3051 -0.1029
  122SOPE  H16R12989   2.141  -0.616   5.598  0.2571  0.1123  1.3042
  122SOPE  H16S12990   2.082  -0.777   5.559 -0.3217 -1.8107  0.7968
  122SOPE  C21712991   2.305  -0.757   5.573 -0.3227 -0.0593 -0.1886
  122SOPE  H17R12992   2.319  -0.802   5.472 -0.4225  0.4600 -0.4398
  122SOPE  H17S12993   2.339  -0.837   5.642 -0.1570  0.2201  0.0541
  122SOPE  C21812994   2.410  -0.644   5.593 -0.1767  0.5573 -0.8824
  122SOPE  H18R12995   2.377  -0.544   5.558 -2.0268 -0.0639 -1.0432
  122SOPE  H18S12996   2.511  -0.684   5.567  0.0496  0.9749 -0.6485
  122SOPE  H18T12997   2.412  -0.612   5.699 -0.0788  0.6489 -0.9126
  122SOPE   C3312998   1.915   0.262   6.742 -0.2688  0.3703  0.4510
  122SOPE   H3X12999   1.858   0.182   6.794  0.4263 -0.0195  0.6325
  122SOPE   H3Y13000   2.017   0.227   6.713  0.3460  1.3190  1.3979
  122SOPE   C3413001   1.837   0.269   6.608  0.1360 -0.1673 -0.0539
  122SOPE   H4X13002   1.908   0.293   6.525 -1.3306 -1.9124 -1.9301
  122SOPE   H4Y13003   1.765   0.352   6.622  2.6772  1.7569  2.8562
  122SOPE   C3513004   1.757   0.145   6.586 -0.2777  0.4454 -0.1602
  122SOPE   H5X13005   1.698   0.107   6.672 -2.7297  3.1864 -0.5026
  122SOPE   H5Y13006   1.817   0.057   6.552  0.5787  1.3517 -1.0677
  122SOPE   C3613007   1.660   0.152   6.468 -0.1360 -0.8128  0.2748
  122SOPE   H6X13008   1.713   0.184   6.376  2.1524 -1.5950  1.2534
  122SOPE   H6Y13009   1.588   0.236   6.483 -2.4658 -3.1631  4.0246
  122SOPE   C3713010   1.574   0.025   6.440  0.0557  0.0640 -0.4997
  122SOPE   H7X13011   1.500   0.034   6.522  2.4224  1.8172  1.5989
  122SOPE   H7Y13012   1.628  -0.071   6.452  1.8964  1.3770  2.6648
  122SOPE   C3813013   1.498   0.042   6.306 -0.0566 -0.5093 -0.0339
  122SOPE   H8X13014   1.461   0.146   6.291  0.8898 -0.3812 -1.7374
  122SOPE   H8Y13015   1.409  -0.025   6.309  0.9734 -1.8789  1.9261
  122SOPE   C3913016   1.583   0.016   6.185  0.1779 -0.3082  0.1408
  122SOPE   H9X13017   1.624  -0.087   6.191  1.4235  0.1894  0.5803
  122SOPE   H9Y13018   1.655   0.100   6.195 -1.0396  1.0375 -1.7220
  122SOPE  C31013019   1.499   0.033   6.065 -0.5713 -0.0641  0.3967
  122SOPE  H10X13020   1.475   0.141   6.057 -3.2613 -0.5174  1.4191
  122SOPE  H10Y13021   1.405  -0.025   6.072 -0.4379 -0.4158 -0.5270
  122SOPE  C31113022   1.564  -0.017   5.932 -0.2334 -0.7379  0.2057
  122SOPE  H11X13023   1.489  -0.006   5.851 -1.8359 -2.3482  1.3949
  122SOPE  H11Y13024   1.577  -0.127   5.942 -0.3417 -0.7784 -0.0845
  122SOPE  C31213025   1.692   0.051   5.894 -1.0321 -0.1428  0.0835
  122SOPE  H12X13026   1.768   0.044   5.975 -1.1890  1.5171  0.4047
  122SOPE  H12Y13027   1.664   0.158   5.880 -1.4633 -0.2725 -0.0459
  122SOPE  C31313028   1.751  -0.017   5.769  0.0371 -0.4662 -0.4481
  122SOPE  H13X13029   1.720  -0.124   5.762  1.7292 -0.8854 -2.3228
  122SOPE  H13Y13030   1.861  -0.005   5.775  0.1457 -1.9080  1.4506
  122SOPE  C31413031   1.704   0.069   5.647 -0.8923 -0.5393 -0.0041
  122SOPE  H14X13032   1.762   0.164   5.643  1.2342 -1.8033 -0.9837
  122SOPE  H14Y13033   1.596   0.093   5.635 -0.3895  1.9973 -0.1731
  122SOPE  C31513034   1.748   0.001   5.516  0.5076  0.0283  0.6550
  122SOPE  H15X13035   1.699  -0.098   5.502 -1.2320  1.0941 -1.2033
  122SOPE  H15Y13036   1.857  -0.018   5.533  0.8041  2.8217  2.5090
  122SOPE  C31613037   1.742   0.084   5.387  0.5744  0.2350  0.5344
  122SOPE  H16X13038   1.791   0.184   5.387  0.4437  0.3414  2.5850
  122SOPE  H16Y13039   1.634   0.100   5.370  0.6141  2.4896  1.9686
  122SOPE  C31713040   1.804   0.006   5.270  0.2664 -0.1619  0.5353
  122SOPE  H17X13041   1.748  -0.087   5.246 -0.3230  0.5547 -1.0866
  122SOPE  H17Y13042   1.904  -0.032   5.297  0.2435  0.0785  0.9661
  122SOPE  C31813043   1.801   0.090   5.143  0.9254 -0.2370  0.7539
  122SOPE  H18X13044   1.878   0.169   5.155  0.3701  0.2161  1.4184
  122SOPE  H18Y13045   1.700   0.130   5.118  0.9379 -1.4787 -1.5704
  122SOPE  H18Z13046   1.838   0.027   5.059 -1.7627 -0.9662  0.0195
  123SOPE     N13047   6.009   1.384   2.870  0.0603  0.5890  0.4162
  123SOPE   HN113048   6.101   1.340   2.845 -1.2353 -1.5335 -0.9645
  123SOPE   HN213049   5.951   1.392   2.785 -1.1911 -0.5022  1.1297
  123SOPE   HN313050   6.029   1.482   2.898 -2.1729  1.5735 -1.2167
  123SOPE   C1213051   5.943   1.294   2.972  0.3823  0.5674 -0.1659
  123SOPE  H12A13052   5.997   1.300   3.069  2.3443  0.0735 -1.1734
  123SOPE  H12B13053   5.950   1.192   2.929 -0.4131 -0.9524  2.9657
  123SOPE   C1113054   5.805   1.345   2.999  0.3728 -0.2372  0.5581
  123SOPE  H11A13055   5.763   1.288   3.085 -0.0583 -1.3886 -0.3881
  123SOPE  H11B13056   5.738   1.340   2.911 -0.8632  0.0819  1.4573
  123SOPE     P13057   5.707   1.547   3.122  0.0821 -0.2537 -0.0448
  123SOPE   O1313058   5.581   1.542   3.044 -0.2243  0.1692 -0.1402
  123SOPE   O1413059   5.737   1.686   3.164  0.3302 -0.1558  0.2694
  123SOPE   O1213060   5.821   1.477   3.048 -0.3807 -0.0644  0.6874
  123SOPE   O1113061   5.690   1.455   3.252 -0.2116  0.4521  0.2969
  123SOPE    C113062   5.601   1.498   3.360 -0.6130 -0.1501  0.2262
  123SOPE    HA13063   5.541   1.410   3.389 -0.2831 -0.8740 -1.1650
  123SOPE    HB13064   5.531   1.576   3.321  2.6139  0.5161 -5.4076
  123SOPE    C213065   5.687   1.550   3.481 -0.3862  0.9504  0.8330
  123SOPE    HS13066   5.750   1.632   3.441  0.7071 -0.0239  0.5017
  123SOPE   O2113067   5.773   1.451   3.535 -0.8511 -0.6891  0.3987
  123SOPE   C2113068   5.843   1.478   3.643  0.1825 -0.6315 -0.8112
  123SOPE   O2213069   5.863   1.581   3.704  0.4113  0.1510 -0.0986
  123SOPE   C2213070   5.916   1.352   3.688  0.4299  0.6709  0.3968
  123SOPE   H2R13071   6.001   1.379   3.754 -0.1312  1.0312  0.9804
  123SOPE   H2S13072   5.943   1.298   3.595  1.5127 -0.6767  1.4489
  123SOPE    C313073   5.596   1.630   3.577  0.1027  0.1770 -0.4666
  123SOPE    HX13074   5.567   1.714   3.511 -1.3884 -0.2265 -0.3414
  123SOPE    HY13075   5.650   1.668   3.667 -2.0708 -0.2705  1.0864
  123SOPE   O3113076   5.482   1.545   3.611 -0.3547  0.0641 -0.0323
  123SOPE   C3113077   5.367   1.608   3.593 -0.0666  0.0920  0.3536
  123SOPE   O3213078   5.349   1.730   3.588 -0.4482 -0.3849  0.0741
  123SOPE   C3213079   5.251   1.514   3.600  0.3010 -0.0055 -0.2746
  123SOPE   H2X13080   5.262   1.440   3.519 -0.9918  1.5255 -1.9381
  123SOPE   H2Y13081   5.162   1.580   3.594  0.0121 -0.4450 -0.9542
  123SOPE   C2313082   5.815   1.260   3.761 -0.0335 -0.1062  0.3335
  123SOPE   H3R13083   5.874   1.170   3.787  1.7873  0.5586 -1.2740
  123SOPE   H3S13084   5.727   1.241   3.694 -1.6681  2.3087  1.6700
  123SOPE   C2413085   5.764   1.318   3.892  0.6514  0.3124  0.2996
  123SOPE   H4R13086   5.704   1.407   3.863  1.9842  1.5638  1.2122
  123SOPE   H4S13087   5.693   1.253   3.947  1.1707  0.5999  1.3462
  123SOPE   C2513088   5.873   1.359   3.992  0.0242  0.0109 -0.4788
  123SOPE   H5R13089   5.929   1.268   4.023 -1.0875 -0.6905 -0.4726
  123SOPE   H5S13090   5.925   1.441   3.938 -0.0745  0.1906 -0.3039
  123SOPE   C2613091   5.804   1.424   4.120 -0.2385 -0.8012 -0.5696
  123SOPE   H6R13092   5.738   1.510   4.095  0.7877 -0.0484 -0.7998
  123SOPE   H6S13093   5.752   1.348   4.182 -0.7486  0.3184  0.4128
  123SOPE   C2713094   5.912   1.483   4.218  0.6532  1.0675 -0.0500
  123SOPE   H7R13095   5.991   1.532   4.157  1.7667 -1.8752 -1.1888
  123SOPE   H7S13096   5.860   1.553   4.286 -2.2165 -2.9437  2.2779
  123SOPE   C2813097   5.966   1.362   4.300  0.3562 -0.6260 -0.3898
  123SOPE   H8R13098   5.882   1.313   4.354  0.5026  1.5062  1.9759
  123SOPE   H8S13099   6.018   1.282   4.244  1.2787  0.2382 -0.8084
  123SOPE   C2913100   6.063   1.415   4.403 -0.6606  0.3281 -0.1865
  123SOPE   H9113101   6.131   1.495   4.370  0.1312 -0.0858  0.4175
  123SOPE  C21013102   6.085   1.374   4.527 -0.0110 -0.0587 -0.1867
  123SOPE  H10113103   6.152   1.437   4.588 -0.1207 -0.5592  0.4531
  123SOPE  C21113104   6.004   1.264   4.592 -1.0302 -0.1605  0.0797
  123SOPE  H11R13105   5.912   1.247   4.532 -0.1133  1.9912 -2.0827
  123SOPE  H11S13106   5.979   1.294   4.696 -0.3631  0.0152  0.1937
  123SOPE  C21213107   6.081   1.126   4.590  0.3674  0.2006 -0.0168
  123SOPE  H12R13108   6.028   1.049   4.648  1.0830 -0.9347 -0.8216
  123SOPE  H12S13109   6.187   1.132   4.624  0.8480  0.4783 -1.4621
  123SOPE  C21313110   6.096   1.064   4.443 -0.4750 -0.0302 -0.6713
  123SOPE  H13R13111   6.157   1.139   4.388 -1.3712 -0.2227 -1.9561
  123SOPE  H13S13112   6.005   1.049   4.382 -1.8843  3.0771  0.4260
  123SOPE  C21413113   6.181   0.937   4.441 -0.1401 -0.3665  0.9367
  123SOPE  H14R13114   6.126   0.851   4.485  1.1855 -0.8979  1.6142
  123SOPE  H14S13115   6.265   0.955   4.512  0.5130  0.7086 -0.0622
  123SOPE  C21513116   6.261   0.906   4.304 -0.7178 -0.9251  0.9596
  123SOPE  H15R13117   6.281   1.006   4.261 -0.8757 -0.1885  2.5043
  123SOPE  H15S13118   6.199   0.858   4.226 -0.1522  3.3100 -2.4664
  123SOPE  C21613119   6.392   0.835   4.320  0.4182 -0.1681  0.1638
  123SOPE  H16R13120   6.365   0.737   4.367 -0.9805  1.1001  2.1504
  123SOPE  H16S13121   6.458   0.892   4.389 -1.4144  1.0872  0.9553
  123SOPE  C21713122   6.462   0.821   4.188  0.0367  0.2125 -0.2841
  123SOPE  H17R13123   6.402   0.860   4.103  0.9980 -0.1243 -1.1200
  123SOPE  H17S13124   6.497   0.716   4.178  1.5284  0.6378  0.2190
  123SOPE  C21813125   6.599   0.899   4.182  0.0442  0.7395 -0.1390
  123SOPE  H18R13126   6.600   1.010   4.189  2.3564  0.8089 -0.8926
  123SOPE  H18S13127   6.641   0.870   4.083 -0.5291 -1.3893  0.2048
  123SOPE  H18T13128   6.653   0.869   4.274  2.5371  0.9592 -1.4509
  123SOPE   C3313129   5.259   1.448   3.740  0.6143  0.2675 -0.2932
  123SOPE   H3X13130   5.356   1.410   3.780  0.4956  1.5094  1.2791
  123SOPE   H3Y13131   5.187   1.364   3.735  2.0399 -1.0057 -0.2369
  123SOPE   C3413132   5.208   1.544   3.848 -0.9154 -0.3624 -0.5094
  123SOPE   H4X13133   5.132   1.491   3.909  1.3814 -0.1289  2.8035
  123SOPE   H4Y13134   5.164   1.634   3.800  2.1742  1.4036 -0.3005
  123SOPE   C3513135   5.316   1.608   3.947  0.5370  0.1324 -0.3720
  123SOPE   H5X13136   5.254   1.664   4.020 -0.6416 -0.8466 -0.5958
  123SOPE   H5Y13137   5.385   1.676   3.891 -0.5274  0.0546 -1.8626
  123SOPE   C3613138   5.398   1.498   4.028  0.3045 -0.1661  0.0826
  123SOPE   H6X13139   5.471   1.448   3.961 -0.5286 -0.4889 -0.6077
  123SOPE   H6Y13140   5.325   1.420   4.058 -0.3010  0.6288  0.7275
  123SOPE   C3713141   5.463   1.559   4.156  0.6724  0.0623  0.1669
  123SOPE   H7X13142   5.393   1.637   4.194  1.2124 -0.0473  1.4133
  123SOPE   H7Y13143   5.554   1.614   4.123  0.1082  0.6715 -0.4238
  123SOPE   C3813144   5.487   1.459   4.269 -0.3929 -0.0219  0.1306
  123SOPE   H8X13145   5.560   1.377   4.251  1.8071  0.9177  3.8554
  123SOPE   H8Y13146   5.399   1.395   4.293 -0.3609  0.4432  1.5939
  123SOPE   C3913147   5.539   1.511   4.398 -0.2217  0.0275 -0.6950
  123SOPE   H9X13148   5.461   1.578   4.440  0.2406 -0.0505  0.3233
  123SOPE   H9Y13149   5.625   1.578   4.377 -0.9705  0.9122 -0.9824
  123SOPE  C31013150   5.586   1.402   4.496  0.2933  0.0953  0.6031
  123SOPE  H10X13151   5.673   1.349   4.451  1.9550  2.9364  0.2261
  123SOPE  H10Y13152   5.492   1.346   4.515 -1.1091  2.0347 -0.2493
  123SOPE  C31113153   5.642   1.447   4.633  0.7052  0.2649 -0.3974
  123SOPE  H11X13154   5.577   1.528   4.670 -0.6340  0.8283 -3.6434
  123SOPE  H11Y13155   5.744   1.479   4.602  0.0309  0.7305 -2.2936
  123SOPE  C31213156   5.647   1.336   4.734  0.5189  0.2864 -0.7253
  123SOPE  H12X13157   5.717   1.258   4.697  0.9809  0.4376 -0.1806
  123SOPE  H12Y13158   5.548   1.286   4.748  1.1143 -0.7329 -0.0383
  123SOPE  C31313159   5.693   1.384   4.872  0.1947  0.4108  0.1523
  123SOPE  H13X13160   5.610   1.420   4.935 -0.2792 -1.1157  0.4286
  123SOPE  H13Y13161   5.753   1.478   4.863 -0.2768  0.5593 -2.1795
  123SOPE  C31413162   5.763   1.279   4.949  0.0063  0.1351 -0.4584
  123SOPE  H14X13163   5.855   1.252   4.893  0.0117 -0.2295 -0.2729
  123SOPE  H14Y13164   5.699   1.190   4.968 -0.2031  0.2024 -0.8269
  123SOPE  C31513165   5.798   1.337   5.088 -0.6719  0.0030 -0.1328
  123SOPE  H15X13166   5.857   1.265   5.147  1.0752  1.7608  0.3850
  123SOPE  H15Y13167   5.711   1.351   5.155  1.3485 -0.4305  2.7524
  123SOPE  C31613168   5.880   1.462   5.109 -0.3188  0.4655  0.1556
  123SOPE  H16X13169   5.819   1.553   5.094 -1.8568 -0.5517  0.0244
  123SOPE  H16Y13170   5.964   1.461   5.037  0.3602 -0.6953  0.9272
  123SOPE  C31713171   5.927   1.478   5.248 -0.3859  0.1398  0.2873
  123SOPE  H17X13172   5.968   1.378   5.276 -0.7190 -1.0676 -3.0369
  123SOPE  H17Y13173   5.842   1.502   5.315 -0.7341 -1.0919  0.3235
  123SOPE  C31813174   6.031   1.596   5.257 -0.2308  0.7511 -0.4023
  123SOPE  H18X13175   5.988   1.694   5.227 -1.5579  0.1318 -0.5862
  123SOPE  H18Y13176   6.125   1.579   5.200  0.5220 -2.1750  1.5127
  123SOPE  H18Z13177   6.055   1.596   5.365  0.8454 -0.0397 -0.6207
  124SOPE     N13178   4.549   6.266   3.401  0.4015  0.2567  0.0041
  124SOPE   HN113179   4.637   6.294   3.449 -0.2041 -1.1216  2.0286
  124SOPE   HN213180   4.570   6.178   3.350  0.1953 -0.0019  0.3658
  124SOPE   HN313181   4.535   6.345   3.335  1.5680  0.2865 -0.2385
  124SOPE   C1213182   4.447   6.253   3.506  0.2700  0.0772 -0.1262
  124SOPE  H12A13183   4.468   6.171   3.578 -2.8644  0.5341  1.4815
  124SOPE  H12B13184   4.350   6.233   3.456 -0.7568 -0.0119  1.7710
  124SOPE   C1113185   4.422   6.383   3.587  0.6903  0.1478  0.0997
  124SOPE  H11A13186   4.518   6.413   3.635  1.7066 -3.5138  0.6434
  124SOPE  H11B13187   4.343   6.352   3.659 -0.0776 -1.3669 -1.3351
  124SOPE     P13188   4.213   6.509   3.475  0.3594 -0.2921 -0.0700
  124SOPE   O1313189   4.156   6.407   3.383  0.5993  0.1541 -0.5026
  124SOPE   O1413190   4.206   6.645   3.430  0.1230  0.3002  0.2213
  124SOPE   O1213191   4.367   6.475   3.493 -0.5201 -0.1045 -0.5693
  124SOPE   O1113192   4.162   6.492   3.626  0.0078  0.5047 -0.6795
  124SOPE    C113193   4.210   6.589   3.728  0.7472  0.1410  0.5608
  124SOPE    HA13194   4.200   6.694   3.694 -0.8705  0.5893  2.2372
  124SOPE    HB13195   4.318   6.570   3.744  1.0564 -0.4772 -1.8820
  124SOPE    C213196   4.133   6.574   3.868 -0.6273 -0.0400  0.2273
  124SOPE    HS13197   4.184   6.639   3.942 -0.8988  2.2763 -1.4961
  124SOPE   O2113198   4.127   6.437   3.920 -0.3817  0.1117 -0.0813
  124SOPE   C2113199   4.245   6.380   3.933  0.4276  0.6651 -0.6848
  124SOPE   O2213200   4.354   6.429   3.936  0.2952  0.5484 -0.5069
  124SOPE   C2213201   4.219   6.226   3.944  0.3917  0.1742 -0.7831
  124SOPE   H2R13202   4.319   6.180   3.955  0.7825  0.8712 -1.3510
  124SOPE   H2S13203   4.177   6.192   3.847  1.0858  0.8384 -1.3303
  124SOPE    C313204   3.987   6.623   3.847  0.2067 -0.1412 -0.0749
  124SOPE    HX13205   3.946   6.558   3.767 -0.1070 -0.0360 -0.0011
  124SOPE    HY13206   3.998   6.729   3.815  1.7066 -0.3656 -0.3779
  124SOPE   O3113207   3.918   6.620   3.971  0.5611 -0.0658 -0.0193
  124SOPE   C3113208   3.882   6.510   4.022  0.1008 -0.3475 -0.3302
  124SOPE   O3213209   3.852   6.404   3.968  0.1200 -0.0350 -0.1141
  124SOPE   C3213210   3.852   6.540   4.167  0.9417  0.3149 -0.5731
  124SOPE   H2X13211   3.772   6.617   4.162  1.6703  1.0165 -1.8794
  124SOPE   H2Y13212   3.944   6.587   4.209 -0.1551  0.3797  1.9251
  124SOPE   C2313213   4.128   6.193   4.067  1.1153 -0.2572 -0.0313
  124SOPE   H3R13214   4.078   6.097   4.042 -0.4129  0.5400 -0.2094
  124SOPE   H3S13215   4.052   6.272   4.087  1.7271  0.0324  1.2261
  124SOPE   C2413216   4.195   6.150   4.193 -0.2194 -0.1051 -0.2432
  124SOPE   H4R13217   4.269   6.229   4.218 -1.0088  1.2329 -1.9309
  124SOPE   H4S13218   4.120   6.137   4.274 -0.6848  0.1939 -0.6187
  124SOPE   C2513219   4.284   6.020   4.187  0.2999 -0.4551 -0.2362
  124SOPE   H5R13220   4.223   5.930   4.171 -0.7652 -0.0472  1.3232
  124SOPE   H5S13221   4.344   6.019   4.093 -1.0512  1.1395 -1.1793
  124SOPE   C2613222   4.377   6.012   4.313  0.1396  0.1874  0.1171
  124SOPE   H6R13223   4.436   6.106   4.320  3.8535 -1.8837 -0.3260
  124SOPE   H6S13224   4.310   6.010   4.401  0.0412  0.9175  0.0674
  124SOPE   C2713225   4.465   5.895   4.297  0.1229  0.2102 -0.8942
  124SOPE   H7R13226   4.395   5.814   4.268  0.1415 -0.1947  0.1433
  124SOPE   H7S13227   4.531   5.911   4.208  0.0277  0.4581 -0.9211
  124SOPE   C2813228   4.562   5.875   4.413 -0.6124  0.1686  0.2339
  124SOPE   H8R13229   4.621   5.783   4.391  1.6082  1.3730  0.8351
  124SOPE   H8S13230   4.641   5.951   4.428  0.1715 -0.6053  0.1035
  124SOPE   C2913231   4.509   5.876   4.556 -0.1340 -0.0404 -0.0179
  124SOPE   H9113232   4.521   5.966   4.619  1.7655  0.8442 -1.5398
  124SOPE  C21013233   4.453   5.773   4.624 -0.2857  0.3897  0.1237
  124SOPE  H10113234   4.406   5.791   4.722 -1.1351  1.1981 -0.4149
  124SOPE  C21113235   4.439   5.628   4.579  0.4664 -0.1884 -0.1110
  124SOPE  H11R13236   4.432   5.613   4.469 -2.2455 -0.8032  0.0772
  124SOPE  H11S13237   4.350   5.578   4.624  2.3414 -1.1205  2.8545
  124SOPE  C21213238   4.571   5.550   4.628 -0.2870 -0.7561 -0.6713
  124SOPE  H12R13239   4.664   5.600   4.594  0.9125 -1.7817  0.9502
  124SOPE  H12S13240   4.566   5.452   4.578  1.7265 -0.8119 -0.8388
  124SOPE  C21313241   4.580   5.534   4.783 -0.4921  0.2302  0.0465
  124SOPE  H13R13242   4.501   5.464   4.818  1.6412 -1.9537  0.7946
  124SOPE  H13S13243   4.571   5.633   4.832  0.7670  0.9330 -1.0812
  124SOPE  C21413244   4.713   5.474   4.833 -0.5021 -0.4701  0.2698
  124SOPE  H14R13245   4.795   5.544   4.806 -1.2314  0.4985  0.5009
  124SOPE  H14S13246   4.733   5.387   4.767  0.3516  0.2327 -0.4298
  124SOPE  C21513247   4.712   5.428   4.976  0.0162  0.4987  0.1094
  124SOPE  H15R13248   4.663   5.509   5.033  0.1959  1.1829 -0.6786
  124SOPE  H15S13249   4.821   5.421   5.000 -0.0732 -2.0352  0.0254
  124SOPE  C21613250   4.657   5.290   4.993 -0.1009 -0.9276 -0.3743
  124SOPE  H16R13251   4.724   5.214   4.947  0.1237 -0.6890 -0.4432
  124SOPE  H16S13252   4.554   5.291   4.951 -0.1767 -1.2579 -0.1974
  124SOPE  C21713253   4.641   5.250   5.144 -0.3643 -0.1237  0.2348
  124SOPE  H17R13254   4.579   5.322   5.200  1.4877  1.5957  0.1775
  124SOPE  H17S13255   4.740   5.282   5.184  1.3028  0.7244 -3.9664
  124SOPE  C21813256   4.614   5.103   5.176  0.4416 -0.5722 -0.1639
  124SOPE  H18R13257   4.511   5.079   5.142  0.1737 -0.4579  0.5510
  124SOPE  H18S13258   4.617   5.086   5.286  1.4012 -0.1080 -0.1016
  124SOPE  H18T13259   4.694   5.037   5.134  0.7947 -0.1612 -0.1497
  124SOPE   C3313260   3.823   6.404   4.244  0.4503  0.4168 -0.6074
  124SOPE   H3X13261   3.906   6.331   4.232 -1.6127 -1.8891 -2.0035
  124SOPE   H3Y13262   3.737   6.355   4.193  1.7448 -0.8137 -1.6956
  124SOPE   C3413263   3.791   6.418   4.394 -0.8474  0.6495  0.3149
  124SOPE   H4X13264   3.740   6.327   4.431 -1.0549  1.2333  1.5139
  124SOPE   H4Y13265   3.724   6.506   4.408 -1.3156  0.6152 -1.4930
  124SOPE   C3513266   3.920   6.452   4.470  0.0933 -0.0914  0.8241
  124SOPE   H5X13267   3.955   6.549   4.429 -1.7381 -0.3782 -1.6506
  124SOPE   H5Y13268   3.991   6.367   4.464  1.7933  1.3302  0.1593
  124SOPE   C3613269   3.900   6.481   4.621 -0.1259 -0.2729  0.0635
  124SOPE   H6X13270   3.833   6.408   4.671 -0.2891  0.1005  0.3932
  124SOPE   H6Y13271   3.839   6.574   4.631  2.2228  1.2009  1.7992
  124SOPE   C3713272   4.030   6.496   4.711 -0.6276 -0.5099 -0.9180
  124SOPE   H7X13273   4.093   6.566   4.651 -3.2393  2.2004 -0.7263
  124SOPE   H7Y13274   4.075   6.396   4.728  0.6218  0.2031  0.2326
  124SOPE   C3813275   4.000   6.571   4.840  0.5730 -0.9460  0.3334
  124SOPE   H8X13276   3.919   6.524   4.899 -0.6841  0.5581 -0.1288
  124SOPE   H8Y13277   3.962   6.671   4.812 -0.5310 -1.4533 -0.0117
  124SOPE   C3913278   4.122   6.580   4.926  0.5006 -0.4533  0.4057
  124SOPE   H9X13279   4.188   6.660   4.886 -1.3540  0.7035 -0.4201
  124SOPE   H9Y13280   4.175   6.482   4.916 -0.5377 -0.7891 -2.7431
  124SOPE  C31013281   4.109   6.618   5.069  0.0516 -0.1535 -0.2144
  124SOPE  H10X13282   4.063   6.543   5.137  0.3046  0.7897  1.0094
  124SOPE  H10Y13283   4.057   6.715   5.083  1.3265  0.4619  0.4616
  124SOPE  C31113284   4.248   6.646   5.136  0.1565 -0.3543  0.1038
  124SOPE  H11X13285   4.309   6.716   5.075 -1.0572 -0.0852 -0.8526
  124SOPE  H11Y13286   4.302   6.550   5.151 -1.3799 -0.8491  3.3129
  124SOPE  C31213287   4.247   6.713   5.277  0.0159 -0.4887 -0.0807
  124SOPE  H12X13288   4.188   6.807   5.274  0.3848 -0.2482  0.0801
  124SOPE  H12Y13289   4.352   6.741   5.302 -0.8731  1.4530  1.8214
  124SOPE  C31313290   4.172   6.623   5.381  0.2433  1.1109 -0.0608
  124SOPE  H13X13291   4.071   6.593   5.347  1.8470 -4.7557 -0.9100
  124SOPE  H13Y13292   4.175   6.680   5.476 -2.9660  0.3397  0.6046
  124SOPE  C31413293   4.245   6.492   5.403  0.0983  0.0831 -0.6046
  124SOPE  H14X13294   4.353   6.516   5.398 -0.0318  1.2039  1.1572
  124SOPE  H14Y13295   4.222   6.428   5.314 -0.1491 -2.2245  1.0258
  124SOPE  C31513296   4.204   6.420   5.533 -0.2372 -0.0094 -0.1146
  124SOPE  H15X13297   4.095   6.418   5.557  0.3170 -1.5317  2.7527
  124SOPE  H15Y13298   4.247   6.493   5.606 -0.7413  2.1403 -1.8443
  124SOPE  C31613299   4.263   6.278   5.559  0.1570 -0.1340  0.6127
  124SOPE  H16X13300   4.374   6.276   5.547  0.0615 -2.0020 -0.3782
  124SOPE  H16Y13301   4.224   6.213   5.477  1.7234  0.0353 -0.3305
  124SOPE  C31713302   4.209   6.214   5.690 -0.4659 -0.2198  0.1030
  124SOPE  H17X13303   4.230   6.105   5.691  0.5821 -0.1860 -3.4541
  124SOPE  H17Y13304   4.098   6.217   5.684 -0.4928 -0.6398  0.3740
  124SOPE  C31813305   4.257   6.278   5.819 -0.3755  0.0782  0.0817
  124SOPE  H18X13306   4.198   6.263   5.911 -1.5445 -0.1315 -0.6731
  124SOPE  H18Y13307   4.267   6.388   5.804 -0.9767  0.3513  1.6163
  124SOPE  H18Z13308   4.366   6.256   5.825  0.1156  2.5210  1.5667
  125SOPE     N13309   2.630   5.339   3.759  0.6525 -0.0619 -0.0357
  125SOPE   HN113310   2.569   5.363   3.679 -0.2600 -0.8988  0.3906
  125SOPE   HN213311   2.644   5.426   3.815 -0.9956 -0.2276  0.6720
  125SOPE   HN313312   2.722   5.312   3.719  1.1137  1.6493 -0.2258
  125SOPE   C1213313   2.558   5.234   3.829  0.4547  0.7809 -0.0067
  125SOPE  H12A13314   2.618   5.206   3.919  0.4445 -1.5847 -0.6627
  125SOPE  H12B13315   2.537   5.144   3.768  0.4903  0.4289  0.4902
  125SOPE   C1113316   2.431   5.294   3.893 -0.2842  0.2401  0.6127
  125SOPE  H11A13317   2.362   5.214   3.928 -0.6311 -0.4578 -1.5009
  125SOPE  H11B13318   2.366   5.360   3.832 -1.4500 -0.7526  0.7339
  125SOPE     P13319   2.500   5.503   4.041 -0.1784  0.4391 -0.4256
  125SOPE   O1313320   2.584   5.551   3.930  0.3141  0.0801  0.2231
  125SOPE   O1413321   2.556   5.516   4.180 -0.0925 -0.2689  0.3749
  125SOPE   O1213322   2.452   5.359   4.019 -0.2658 -0.3062  0.7277
  125SOPE   O1113323   2.369   5.586   4.034  0.2602  0.1756  0.1538
  125SOPE    C113324   2.240   5.525   4.023 -0.0718 -0.3317  0.2201
  125SOPE    HA13325   2.233   5.431   4.083 -0.9181  0.2885  1.1189
  125SOPE    HB13326   2.208   5.524   3.916  0.2517 -0.1560  0.1215
  125SOPE    C213327   2.138   5.614   4.100  0.4280  0.0971  0.4072
  125SOPE    HS13328   2.039   5.586   4.057  0.9258 -0.8330 -0.1607
  125SOPE   O2113329   2.167   5.755   4.074 -0.1526 -0.2698 -0.0869
  125SOPE   C2113330   2.125   5.792   3.955  0.1192  0.3574 -0.3144
  125SOPE   O2213331   2.078   5.720   3.867  0.4989 -0.3121 -0.1994
  125SOPE   C2213332   2.124   5.942   3.941 -0.1538  0.1943  0.2428
  125SOPE   H2R13333   2.162   5.959   3.838 -1.0162 -0.4320 -0.1870
  125SOPE   H2S13334   2.200   5.978   4.013  0.0376 -0.3275  0.3066
  125SOPE    C313335   2.149   5.581   4.255 -0.0023 -0.2020 -0.5944
  125SOPE    HX13336   2.255   5.602   4.282  0.5609 -1.1441 -1.9040
  125SOPE    HY13337   2.118   5.474   4.262  0.2707 -0.1619  1.8731
  125SOPE   O3113338   2.060   5.662   4.336  0.2756 -0.8468  0.0509
  125SOPE   C3113339   2.105   5.776   4.382  0.6109 -0.4878 -0.0504
  125SOPE   O3213340   2.217   5.823   4.366 -0.0025  0.0908 -0.1866
  125SOPE   C3213341   2.009   5.828   4.470 -0.0809 -0.0065 -0.0186
  125SOPE   H2X13342   1.974   5.752   4.543 -0.0299  0.9190  1.0031
  125SOPE   H2Y13343   1.923   5.862   4.410  0.4486 -1.1300 -1.4572
  125SOPE   C2313344   1.983   5.994   3.982  1.0678 -1.5243 -0.1272
  125SOPE   H3R13345   1.913   5.921   3.938 -1.1253  0.4448 -0.1414
  125SOPE   H3S13346   1.964   6.095   3.940 -2.1674 -1.4296  1.2437
  125SOPE   C2413347   1.967   6.013   4.134 -0.1753  0.3336  0.4972
  125SOPE   H4R13348   1.937   5.919   4.186 -1.1902 -0.4235 -1.3582
  125SOPE   H4S13349   2.062   6.050   4.177  0.0237 -2.2133  2.5050
  125SOPE   C2513350   1.860   6.115   4.170 -0.2383 -0.4039 -0.3965
  125SOPE   H5R13351   1.877   6.212   4.118 -1.9650  0.7692  1.0825
  125SOPE   H5S13352   1.759   6.079   4.142 -1.2594  0.2982  2.0611
  125SOPE   C2613353   1.847   6.151   4.319 -0.3196 -0.5311 -0.3695
  125SOPE   H6R13354   1.813   6.068   4.384 -1.3534  1.0412  1.1846
  125SOPE   H6S13355   1.947   6.174   4.360  0.0565  0.8631 -1.9709
  125SOPE   C2713356   1.757   6.277   4.352  0.4450  0.5081 -0.3103
  125SOPE   H7R13357   1.742   6.291   4.461 -1.1202 -0.5257 -0.3516
  125SOPE   H7S13358   1.818   6.366   4.325 -1.4808  1.8835 -0.4342
  125SOPE   C2813359   1.620   6.291   4.272 -0.1669 -0.2758  0.1261
  125SOPE   H8R13360   1.571   6.390   4.276 -0.8630 -0.5581 -0.8896
  125SOPE   H8S13361   1.641   6.274   4.164 -0.0336 -0.3616  0.1655
  125SOPE   C2913362   1.530   6.191   4.323 -0.2719 -0.2229 -0.4787
  125SOPE   H9113363   1.513   6.100   4.265  1.5848 -0.2120 -1.1055
  125SOPE  C21013364   1.451   6.212   4.431  0.7003 -0.5787 -0.2681
  125SOPE  H10113365   1.376   6.134   4.450 -0.1599  0.8801  2.8623
  125SOPE  C21113366   1.453   6.331   4.524  0.2553 -0.4303 -0.1988
  125SOPE  H11R13367   1.372   6.405   4.502  0.2800 -0.4249 -0.2692
  125SOPE  H11S13368   1.542   6.396   4.516 -0.8612  0.9346 -2.7644
  125SOPE  C21213369   1.446   6.272   4.661  0.1718 -0.7272  0.1163
  125SOPE  H12R13370   1.528   6.198   4.678  1.5162  0.6482 -0.1403
  125SOPE  H12S13371   1.351   6.218   4.678 -1.2265  1.8682  1.0922
  125SOPE  C21313372   1.451   6.375   4.783 -0.2734 -0.2896 -0.4377
  125SOPE  H13R13373   1.359   6.436   4.769 -0.2535 -0.5373 -1.8045
  125SOPE  H13S13374   1.529   6.453   4.769 -0.8202 -0.1229 -3.3961
  125SOPE  C21413375   1.462   6.311   4.926  0.5562  1.0553 -0.0207
  125SOPE  H14R13376   1.376   6.243   4.942  0.8924  0.5419 -0.3900
  125SOPE  H14S13377   1.469   6.383   5.010  0.8115  0.6226  0.3327
  125SOPE  C21513378   1.593   6.237   4.952 -0.3086 -0.5472  0.0701
  125SOPE  H15R13379   1.677   6.309   4.953 -0.7781  0.0349 -0.9912
  125SOPE  H15S13380   1.611   6.157   4.877 -1.1216 -3.0328  2.3321
  125SOPE  C21613381   1.576   6.156   5.083 -0.2409 -0.6463 -0.2804
  125SOPE  H16R13382   1.668   6.097   5.104  1.9064  2.3431 -0.6300
  125SOPE  H16S13383   1.488   6.090   5.086 -0.8725  0.0191 -2.4053
  125SOPE  C21713384   1.560   6.251   5.216 -0.0620  0.0154  0.6338
  125SOPE  H17R13385   1.455   6.285   5.215 -1.1727 -3.0815 -1.0868
  125SOPE  H17S13386   1.638   6.330   5.204  1.7867 -1.9621 -1.4705
  125SOPE  C21813387   1.605   6.180   5.342  0.1350  0.3894  0.0495
  125SOPE  H18R13388   1.713   6.158   5.334  0.1738 -0.1570  1.6973
  125SOPE  H18S13389   1.542   6.088   5.339 -1.7300  1.6214 -2.3931
  125SOPE  H18T13390   1.584   6.237   5.435  0.1933 -1.2465  1.1028
  125SOPE   C3313391   2.067   5.931   4.568  0.4308 -0.1478 -0.1863
  125SOPE   H3X13392   2.098   6.017   4.505 -0.8742 -0.0868 -0.7686
  125SOPE   H3Y13393   2.152   5.902   4.634 -0.0032  0.7212  0.7788
  125SOPE   C3413394   1.945   5.975   4.644 -0.1027 -0.1127  0.3483
  125SOPE   H4X13395   1.888   5.884   4.675 -1.7626  0.6061 -0.4804
  125SOPE   H4Y13396   1.886   6.029   4.567 -1.0471 -1.7343 -0.1189
  125SOPE   C3513397   1.954   6.071   4.762 -0.0154  0.0921 -0.4159
  125SOPE   H5X13398   2.037   6.044   4.831 -1.8766  1.4718  2.6202
  125SOPE   H5Y13399   1.866   6.045   4.826  2.1965 -1.1650  2.3486
  125SOPE   C3613400   1.964   6.213   4.710  0.1163 -0.3421 -0.2080
  125SOPE   H6X13401   1.868   6.244   4.664 -0.5665 -2.2163 -0.1626
  125SOPE   H6Y13402   2.047   6.230   4.639  0.1288  1.7267  0.2395
  125SOPE   C3713403   1.985   6.305   4.840  0.0463  0.3697  0.2802
  125SOPE   H7X13404   2.094   6.306   4.859  0.6372 -0.4066 -2.6196
  125SOPE   H7Y13405   1.943   6.261   4.933  0.0270 -1.7348 -0.6526
  125SOPE   C3813406   1.927   6.443   4.828  0.9645 -0.8913 -0.6598
  125SOPE   H8X13407   1.816   6.431   4.833  0.9875 -1.6962 -1.7651
  125SOPE   H8Y13408   1.947   6.489   4.729  2.9456 -0.8911 -0.2855
  125SOPE   C3913409   1.975   6.546   4.938 -0.2637  0.4335 -0.1434
  125SOPE   H9X13410   1.946   6.647   4.902  0.6703  0.8907  0.3298
  125SOPE   H9Y13411   2.086   6.553   4.937 -0.0378 -2.1889 -0.2352
  125SOPE  C31013412   1.924   6.509   5.082  0.0079 -0.7334  0.7011
  125SOPE  H10X13413   1.972   6.412   5.108 -0.7903 -1.5434 -0.7637
  125SOPE  H10Y13414   1.814   6.496   5.088  0.1369 -1.6796  1.1617
  125SOPE  C31113415   1.972   6.620   5.176  0.3343 -0.6769 -0.2815
  125SOPE  H11X13416   1.937   6.722   5.152  0.7793 -0.4326  0.0972
  125SOPE  H11Y13417   2.080   6.644   5.164 -0.2219  1.8097 -0.7565
  125SOPE  C31213418   1.951   6.578   5.321 -0.5723 -0.1556 -0.9180
  125SOPE  H12X13419   2.022   6.500   5.357  0.8449  0.8665 -1.4585
  125SOPE  H12Y13420   1.851   6.528   5.314  0.0568 -1.7253  0.4547
  125SOPE  C31313421   1.960   6.686   5.426 -0.2886 -0.3260  0.1179
  125SOPE  H13X13422   1.916   6.655   5.523  0.9102  0.6779  1.0008
  125SOPE  H13Y13423   1.893   6.765   5.384  1.4127  0.1841 -1.8021
  125SOPE  C31413424   2.098   6.746   5.455  1.1183  0.7768  0.3696
  125SOPE  H14X13425   2.127   6.794   5.359 -0.5269  0.8431 -0.1263
  125SOPE  H14Y13426   2.157   6.655   5.478  2.2516  1.5170  0.5099
  125SOPE  C31513427   2.111   6.854   5.560  0.5364  0.6989  0.6230
  125SOPE  H15X13428   2.073   6.952   5.523 -0.0839 -0.1675 -1.1238
  125SOPE  H15Y13429   2.219   6.867   5.583  0.9840  2.7668 -2.1660
  125SOPE  C31613430   2.042   6.833   5.703  0.1626 -0.7232 -0.1993
  125SOPE  H16X13431   2.052   6.728   5.740 -0.3912  0.2047  2.8249
  125SOPE  H16Y13432   1.934   6.852   5.687  0.3505  0.2173 -0.3820
  125SOPE  C31713433   2.109   6.922   5.815  0.5969  0.1942  0.6060
  125SOPE  H17X13434   2.100   7.025   5.774 -0.6706 -0.1514 -0.0217
  125SOPE  H17Y13435   2.215   6.895   5.833 -0.0536 -2.0451  1.4186
  125SOPE  C31813436   2.044   6.912   5.949 -0.0146 -0.5509 -0.1031
  125SOPE  H18X13437   2.048   6.806   5.981 -0.1439 -0.3075  0.7598
  125SOPE  H18Y13438   1.938   6.945   5.949  0.3832  0.9086 -2.0240
  125SOPE  H18Z13439   2.089   6.971   6.032  0.3168 -0.0253 -0.6488
  126SOPE     N13440   6.513   2.658   3.069 -0.5078  0.0402 -0.3285
  126SOPE   HN113441   6.537   2.566   3.111  0.2132  0.7421  0.8479
  126SOPE   HN213442   6.424   2.698   3.105  1.4158  2.7913  1.7980
  126SOPE   HN313443   6.491   2.646   2.968  0.3506 -0.3405 -0.4726
  126SOPE   C1213444   6.617   2.768   3.088 -0.1550  0.3315  0.5210
  126SOPE  H12A13445   6.570   2.854   3.035 -0.5523  0.2645  0.7641
  126SOPE  H12B13446   6.708   2.739   3.032 -0.5105 -0.3466  0.2835
  126SOPE   C1113447   6.631   2.811   3.230  0.3906  0.0172  0.0710
  126SOPE  H11A13448   6.647   2.728   3.302  0.0705 -0.7773 -0.7733
  126SOPE  H11B13449   6.531   2.852   3.257  0.2707 -0.1140 -0.1811
  126SOPE     P13450   6.800   2.934   3.369  0.5995  0.5450 -0.0273
  126SOPE   O1313451   6.889   3.050   3.345 -0.7712  0.1239 -0.1452
  126SOPE   O1413452   6.862   2.810   3.423 -0.0455 -0.4203 -0.0310
  126SOPE   O1213453   6.727   2.916   3.230 -0.3190  0.5510  0.2051
  126SOPE   O1113454   6.688   2.979   3.477 -0.0177  0.0541 -0.3932
  126SOPE    C113455   6.618   3.105   3.455 -0.2688  0.8352  0.3985
  126SOPE    HA13456   6.509   3.081   3.453 -0.3010  0.8450  1.5675
  126SOPE    HB13457   6.657   3.157   3.365  1.4966 -1.5233 -0.3055
  126SOPE    C213458   6.623   3.204   3.582  0.5421  0.0942  0.3260
  126SOPE    HS13459   6.727   3.243   3.584  0.8702 -0.3948 -2.3285
  126SOPE   O2113460   6.596   3.141   3.706  0.1101 -0.4305 -0.4623
  126SOPE   C2113461   6.681   3.067   3.771  0.4459  0.6029 -0.0756
  126SOPE   O2213462   6.805   3.079   3.765  0.0677 -0.2652  0.2430
  126SOPE   C2213463   6.600   2.985   3.875  0.5298 -0.4122  0.0114
  126SOPE   H2R13464   6.507   2.953   3.824 -0.6818 -0.0152  1.8467
  126SOPE   H2S13465   6.568   3.058   3.953 -1.8835 -0.8461 -0.5233
  126SOPE    C313466   6.529   3.324   3.573  0.3343 -0.3545  0.2716
  126SOPE    HX13467   6.426   3.294   3.547  0.1553  0.6416 -0.2252
  126SOPE    HY13468   6.558   3.379   3.480  0.9395  1.0053  1.2259
  126SOPE   O3113469   6.540   3.417   3.677  0.6644 -0.3600 -1.1463
  126SOPE   C3113470   6.445   3.417   3.772  0.2799 -0.2610  0.7820
  126SOPE   O3213471   6.343   3.345   3.776 -0.7116  0.4004 -0.7643
  126SOPE   C3213472   6.485   3.519   3.874 -0.0462 -0.6641  0.4034
  126SOPE   H2X13473   6.392   3.565   3.913 -0.8736 -1.5448 -0.4516
  126SOPE   H2Y13474   6.553   3.594   3.830 -1.2326  1.0100  1.3431
  126SOPE   C2313475   6.665   2.856   3.923 -0.0947 -0.0485  0.7881
  126SOPE   H3R13476   6.729   2.816   3.841  0.9726  0.6571  1.2556
  126SOPE   H3S13477   6.586   2.784   3.950  0.7882 -1.0245  0.8347
  126SOPE   C2413478   6.752   2.883   4.043 -0.0050  0.3897  0.0955
  126SOPE   H4R13479   6.838   2.949   4.020  2.2667 -3.0784 -2.1629
  126SOPE   H4S13480   6.690   2.925   4.126  0.6548 -1.3110  1.5175
  126SOPE   C2513481   6.818   2.757   4.108  0.2991  0.2187  0.1120
  126SOPE   H5R13482   6.852   2.694   4.024 -2.0558 -1.5787  0.3898
  126SOPE   H5S13483   6.901   2.791   4.174 -0.9751  2.4728  0.6805
  126SOPE   C2613484   6.714   2.664   4.180 -0.2608 -0.1239  0.0938
  126SOPE   H6R13485   6.623   2.658   4.116  0.2613 -1.5369 -0.5660
  126SOPE   H6S13486   6.762   2.567   4.205 -0.3124  0.2878  1.9162
  126SOPE   C2713487   6.664   2.714   4.315  0.1109 -0.4441  0.0777
  126SOPE   H7R13488   6.637   2.821   4.303  1.3543 -0.2020 -0.7427
  126SOPE   H7S13489   6.575   2.655   4.347 -0.3879  1.1315  1.7861
  126SOPE   C2813490   6.764   2.720   4.431  0.4982 -0.1581 -0.2358
  126SOPE   H8R13491   6.783   2.613   4.451 -1.4201 -0.1191  2.3600
  126SOPE   H8S13492   6.863   2.756   4.395  0.5755 -0.0100  0.1251
  126SOPE   C2913493   6.717   2.778   4.559  0.3822 -0.5352 -0.9241
  126SOPE   H9113494   6.725   2.887   4.562  1.6069 -0.6359  0.8639
  126SOPE  C21013495   6.672   2.713   4.671  0.8483  0.0188 -0.1258
  126SOPE  H10113496   6.655   2.774   4.761 -0.6863  1.3665 -1.2692
  126SOPE  C21113497   6.658   2.562   4.693  0.5631 -0.2739  0.2261
  126SOPE  H11R13498   6.723   2.499   4.630 -1.2489 -0.7369 -1.2408
  126SOPE  H11S13499   6.558   2.533   4.655 -0.4757  3.5128 -0.3699
  126SOPE  C21213500   6.668   2.509   4.841 -0.4538  0.3999 -0.1874
  126SOPE  H12R13501   6.759   2.543   4.895  1.5322 -0.1838 -2.9457
  126SOPE  H12S13502   6.661   2.398   4.839 -0.9969  0.3769  1.6164
  126SOPE  C21313503   6.551   2.560   4.929  0.0463  0.3539 -0.2511
  126SOPE  H13R13504   6.463   2.517   4.876 -0.6993  1.1996  0.2818
  126SOPE  H13S13505   6.537   2.670   4.925  3.7401  0.9386 -0.6214
  126SOPE  C21413506   6.555   2.515   5.070 -0.1558  0.7292  0.3552
  126SOPE  H14R13507   6.462   2.541   5.125  0.9653  3.0921  1.2844
  126SOPE  H14S13508   6.644   2.559   5.121  0.7743 -0.5591 -0.0948
  126SOPE  C21513509   6.568   2.357   5.085  0.4629 -1.3689  0.8964
  126SOPE  H15R13510   6.675   2.342   5.060  0.5494  1.7244 -1.1387
  126SOPE  H15S13511   6.510   2.298   5.010  3.0452 -2.9422 -0.0185
  126SOPE  C21613512   6.535   2.307   5.221 -0.2907 -0.5018  0.3429
  126SOPE  H16R13513   6.558   2.379   5.303 -1.1692  0.6051 -0.3587
  126SOPE  H16S13514   6.587   2.210   5.238  0.7704 -0.0322 -0.1297
  126SOPE  C21713515   6.384   2.278   5.233  0.0951  0.2174  1.0322
  126SOPE  H17R13516   6.368   2.174   5.198  0.4105  1.3554 -3.0267
  126SOPE  H17S13517   6.331   2.325   5.147 -1.1586 -1.7137  0.7042
  126SOPE  C21813518   6.321   2.303   5.361 -0.3460  0.1286 -0.2490
  126SOPE  H18R13519   6.357   2.223   5.429 -1.6276 -1.5934 -1.5023
  126SOPE  H18S13520   6.211   2.294   5.351 -0.4070  1.2961 -0.8434
  126SOPE  H18T13521   6.333   2.405   5.403  1.2144  0.6225 -1.7944
  126SOPE   C3313522   6.544   3.463   4.005  0.1001 -0.8830 -0.0009
  126SOPE   H3X13523   6.590   3.552   4.054  2.5861  0.1611 -3.7781
  126SOPE   H3Y13524   6.627   3.390   3.996  1.1047  0.0634  1.2616
  126SOPE   C3413525   6.431   3.410   4.092 -0.0182  0.4245 -0.0080
  126SOPE   H4X13526   6.381   3.327   4.036  0.9477  1.2812 -2.2870
  126SOPE   H4Y13527   6.348   3.483   4.106  0.2851  0.6431  0.6700
  126SOPE   C3513528   6.482   3.359   4.229  0.4725 -0.7196 -0.3906
  126SOPE   H5X13529   6.390   3.336   4.288 -0.4221  1.8753 -0.6538
  126SOPE   H5Y13530   6.533   3.451   4.264 -2.9346  1.9380 -1.8837
  126SOPE   C3613531   6.575   3.238   4.230  0.2056  0.3962  0.0899
  126SOPE   H6X13532   6.646   3.244   4.146 -1.1992 -1.3460 -1.3153
  126SOPE   H6Y13533   6.508   3.151   4.214 -2.5918  2.1267  1.4369
  126SOPE   C3713534   6.656   3.233   4.355 -0.3110  0.2453  0.7383
  126SOPE   H7X13535   6.702   3.333   4.369 -1.6458  1.0316 -0.2390
  126SOPE   H7Y13536   6.734   3.154   4.354 -2.2770 -1.7904  1.3610
  126SOPE   C3813537   6.563   3.199   4.475 -0.7230 -0.3144  0.6779
  126SOPE   H8X13538   6.516   3.100   4.462  3.1005 -2.1906 -0.1193
  126SOPE   H8Y13539   6.493   3.284   4.488  1.3688  1.5470  0.4453
  126SOPE   C3913540   6.648   3.175   4.600 -0.1774  0.4074 -0.2313
  126SOPE   H9X13541   6.694   3.273   4.624  0.0929  0.3260 -0.4142
  126SOPE   H9Y13542   6.734   3.108   4.578  0.4886  1.1130  0.1698
  126SOPE  C31013543   6.572   3.120   4.719 -0.4370 -0.5247 -0.0712
  126SOPE  H10X13544   6.566   3.010   4.705  1.2978 -0.6931  0.3062
  126SOPE  H10Y13545   6.470   3.162   4.728  0.3608  1.9209 -1.5955
  126SOPE  C31113546   6.646   3.157   4.849  0.6346  0.1219 -0.1103
  126SOPE  H11X13547   6.615   3.258   4.884 -0.9008 -0.4909  0.3823
  126SOPE  H11Y13548   6.753   3.161   4.820  0.2862  3.0470 -1.3316
  126SOPE  C31213549   6.618   3.048   4.959  0.0717 -0.8153 -0.0675
  126SOPE  H12X13550   6.697   3.061   5.036  0.1910 -0.8758 -0.1777
  126SOPE  H12Y13551   6.620   2.941   4.929 -1.5443 -0.8196 -0.2405
  126SOPE  C31313552   6.494   3.068   5.049  0.4570  0.1023  0.4161
  126SOPE  H13X13553   6.398   3.069   4.993 -0.3528  1.7368  1.7444
  126SOPE  H13Y13554   6.520   3.168   5.092 -1.2524  0.4246  0.7548
  126SOPE  C31413555   6.472   2.961   5.153  0.0988 -0.6027 -0.2556
  126SOPE  H14X13556   6.453   2.862   5.105  1.0735 -0.5179 -0.8439
  126SOPE  H14Y13557   6.382   2.984   5.213  1.8575  0.4619  2.1162
  126SOPE  C31513558   6.594   2.939   5.255  0.5188 -0.3569 -0.0857
  126SOPE  H15X13559   6.679   2.894   5.198 -0.3709  0.0307 -1.7879
  126SOPE  H15Y13560   6.566   2.856   5.324  0.1690 -1.9599 -2.0399
  126SOPE  C31613561   6.638   3.068   5.322  0.4584 -0.3034 -0.4207
  126SOPE  H16X13562   6.545   3.127   5.318  0.2944 -0.6069 -1.7855
  126SOPE  H16Y13563   6.714   3.115   5.255  0.3204  1.2024  0.4635
  126SOPE  C31713564   6.696   3.059   5.468  0.4767  0.0508 -0.1563
  126SOPE  H17X13565   6.752   2.963   5.477  1.5517  0.8364  2.3662
  126SOPE  H17Y13566   6.608   3.047   5.535 -0.5611 -1.3428 -1.6842
  126SOPE  C31813567   6.776   3.188   5.504 -0.2483  0.0129  0.9773
  126SOPE  H18X13568   6.739   3.267   5.436 -0.5837  0.0240  1.1684
  126SOPE  H18Y13569   6.880   3.190   5.466 -0.8332  0.8110 -0.6758
  126SOPE  H18Z13570   6.773   3.217   5.611  1.7210  1.1537  0.7682
  127SOPE     N13571   0.494   5.502   2.793 -0.6852 -0.7176 -0.4124
  127SOPE   HN113572   0.474   5.603   2.777  2.5847  0.0211 -0.4215
  127SOPE   HN213573   0.593   5.493   2.761  0.6198  2.0700  2.3981
  127SOPE   HN313574   0.434   5.444   2.730  1.1736 -3.5718  0.2467
  127SOPE   C1213575   0.470   5.461   2.935  0.0512  0.1690 -0.4326
  127SOPE  H12A13576   0.496   5.353   2.935  0.7390  0.3290  0.4344
  127SOPE  H12B13577   0.363   5.480   2.958  0.2564  1.0946 -0.1808
  127SOPE   C1113578   0.566   5.531   3.026  0.4274  0.2290  0.2439
  127SOPE  H11A13579   0.548   5.641   3.021 -3.4939 -0.2991 -1.5558
  127SOPE  H11B13580   0.670   5.508   2.996  0.6697 -1.5034  2.2132
  127SOPE     P13581   0.633   5.566   3.271 -0.3607 -0.0566 -0.1849
  127SOPE   O1313582   0.597   5.707   3.266 -0.4347 -0.1649  0.5914
  127SOPE   O1413583   0.779   5.541   3.258 -0.2274 -0.0998 -0.1711
  127SOPE   O1213584   0.554   5.486   3.160  0.0444  0.4700  0.3727
  127SOPE   O1113585   0.561   5.511   3.405 -0.0189 -0.0043 -0.3453
  127SOPE    C113586   0.416   5.526   3.423  0.2364  0.2225  0.5587
  127SOPE    HA13587   0.364   5.441   3.374 -1.1628  1.0396  0.5635
  127SOPE    HB13588   0.376   5.613   3.367 -0.8744  0.1009  1.1317
  127SOPE    C213589   0.377   5.527   3.568  0.1866 -0.0620 -0.3049
  127SOPE    HS13590   0.364   5.629   3.609 -1.4635 -0.7384  0.9547
  127SOPE   O2113591   0.466   5.459   3.655 -0.0162 -0.2855 -0.3302
  127SOPE   C2113592   0.562   5.536   3.708 -0.3107 -0.1334  0.9450
  127SOPE   O2213593   0.579   5.650   3.678  0.1299 -0.0901  0.1466
  127SOPE   C2213594   0.648   5.462   3.806  0.3619 -0.6982 -0.6052
  127SOPE   H2R13595   0.746   5.513   3.797 -0.1490  1.1573  2.7803
  127SOPE   H2S13596   0.665   5.357   3.772  0.6883 -0.8748  0.0782
  127SOPE    C313597   0.235   5.467   3.580  0.0069 -0.8719 -0.3894
  127SOPE    HX13598   0.259   5.358   3.580 -0.5779 -1.0103  0.4513
  127SOPE    HY13599   0.176   5.496   3.491 -0.9928 -0.2787  0.4528
  127SOPE   O3113600   0.168   5.506   3.698 -0.1110 -0.8163 -0.2669
  127SOPE   C3113601   0.037   5.471   3.695  0.4688  0.0316 -0.0184
  127SOPE   O3213602  -0.008   5.381   3.620 -0.3061 -0.3729 -0.2166
  127SOPE   C3213603  -0.048   5.561   3.785 -0.4427 -0.3780  0.0275
  127SOPE   H2X13604  -0.141   5.570   3.725 -0.0847 -0.4957 -0.5473
  127SOPE   H2Y13605  -0.000   5.660   3.773  1.3539 -0.9817  1.6677
  127SOPE   C2313606   0.603   5.481   3.946 -0.2409 -0.2589 -0.4100
  127SOPE   H3R13607   0.579   5.587   3.970 -0.1285 -0.2032 -0.5415
  127SOPE   H3S13608   0.682   5.446   4.017 -0.7078 -0.1518  0.1649
  127SOPE   C2413609   0.482   5.398   3.986  0.5559  0.8742  0.4929
  127SOPE   H4R13610   0.411   5.426   3.905  0.1291 -2.3593 -0.3744
  127SOPE   H4S13611   0.492   5.287   3.982  0.3472  0.8471  0.6870
  127SOPE   C2513612   0.423   5.444   4.121  0.0870  0.0419 -0.4203
  127SOPE   H5R13613   0.509   5.451   4.192  0.0824 -0.9955 -0.3017
  127SOPE   H5S13614   0.390   5.549   4.106  0.3016  0.0831 -0.6261
  127SOPE   C2613615   0.313   5.355   4.178 -0.1352  0.4867  0.3064
  127SOPE   H6R13616   0.236   5.344   4.098  1.2698 -1.4406 -0.8370
  127SOPE   H6S13617   0.354   5.254   4.195 -1.0397 -0.0489 -0.5861
  127SOPE   C2713618   0.247   5.411   4.303  0.4106  0.3575  0.3668
  127SOPE   H7R13619   0.313   5.457   4.379 -0.5515  2.3156  0.0809
  127SOPE   H7S13620   0.200   5.505   4.267  1.9875  0.1943 -2.3706
  127SOPE   C2813621   0.145   5.314   4.364 -0.4877  0.2983 -0.0988
  127SOPE   H8R13622   0.092   5.363   4.449 -1.4159  0.0866 -0.5376
  127SOPE   H8S13623   0.082   5.284   4.278  0.6794 -0.3972 -0.7222
  127SOPE   C2913624   0.196   5.191   4.424  0.4465  0.1214  0.0873
  127SOPE   H9113625   0.164   5.093   4.385  0.0017  0.3803 -0.2121
  127SOPE  C21013626   0.275   5.187   4.532 -0.7496 -0.4190  0.3713
  127SOPE  H10113627   0.322   5.094   4.567 -0.8568 -0.7406 -0.3233
  127SOPE  C21113628   0.339   5.309   4.593 -0.5608  0.2984  0.2537
  127SOPE  H11R13629   0.349   5.299   4.703  0.5224  0.5211  0.1890
  127SOPE  H11S13630   0.284   5.404   4.575  1.2645  1.5867  1.1974
  127SOPE  C21213631   0.483   5.328   4.545 -0.1414  0.4564 -0.4618
  127SOPE  H12R13632   0.476   5.315   4.435 -0.7447 -0.6946 -0.3007
  127SOPE  H12S13633   0.535   5.232   4.568 -0.0087  0.9262  1.3469
  127SOPE  C21313634   0.559   5.459   4.587 -0.4392 -0.2951  0.0376
  127SOPE  H13R13635   0.548   5.473   4.697 -0.5786  0.2339 -0.0433
  127SOPE  H13S13636   0.500   5.543   4.546 -1.8827 -1.0552  0.4893
  127SOPE  C21413637   0.713   5.466   4.564 -0.4457  0.0766 -0.0782
  127SOPE  H14R13638   0.757   5.379   4.618  0.1163  0.0541 -0.5659
  127SOPE  H14S13639   0.762   5.555   4.609 -0.5952 -0.6324  1.5504
  127SOPE  C21513640   0.743   5.468   4.414  0.6682  0.1226  0.0298
  127SOPE  H15R13641   0.675   5.531   4.354  0.5192  1.3886  1.4601
  127SOPE  H15S13642   0.731   5.367   4.368  2.0362 -0.7341  1.4480
  127SOPE  C21613643   0.880   5.531   4.398 -0.4874  0.7217 -0.1920
  127SOPE  H16R13644   0.957   5.494   4.468  0.5460  1.9282 -0.6473
  127SOPE  H16S13645   0.865   5.637   4.428 -0.4213  0.0331  2.5263
  127SOPE  C21713646   0.934   5.518   4.256  0.0652 -0.1291  0.5540
  127SOPE  H17R13647   0.862   5.555   4.181  0.7904 -0.7633 -0.4710
  127SOPE  H17S13648   0.950   5.410   4.236 -1.6756 -0.1956 -0.7583
  127SOPE  C21813649   1.067   5.600   4.237  0.7455  0.1229  0.4856
  127SOPE  H18R13650   1.062   5.704   4.275 -1.2483 -0.8724  3.2881
  127SOPE  H18S13651   1.089   5.604   4.128  2.2704 -2.6980  0.5817
  127SOPE  H18T13652   1.154   5.546   4.280  0.8068 -0.4997 -0.3786
  127SOPE   C3313653  -0.061   5.504   3.931 -0.5803 -0.7046  0.0175
  127SOPE   H3X13654  -0.056   5.592   3.998 -0.0113 -1.9758  1.7265
  127SOPE   H3Y13655   0.020   5.435   3.964 -0.8772 -0.5228  1.1633
  127SOPE   C3413656  -0.191   5.436   3.946  0.8226  0.3030 -0.4667
  127SOPE   H4X13657  -0.207   5.359   3.868 -0.7610 -0.2986  0.3971
  127SOPE   H4Y13658  -0.271   5.512   3.932  2.8048  2.3010 -1.5804
  127SOPE   C3513659  -0.211   5.359   4.079 -0.6128  0.0419 -0.4649
  127SOPE   H5X13660  -0.121   5.295   4.093  0.0576  1.4791  2.5686
  127SOPE   H5Y13661  -0.302   5.294   4.074 -0.4187 -0.1166 -2.8265
  127SOPE   C3613662  -0.241   5.455   4.194  0.0299  0.1217  0.0595
  127SOPE   H6X13663  -0.305   5.541   4.162  0.7153  1.1784  1.4072
  127SOPE   H6Y13664  -0.150   5.502   4.236 -0.5094  1.1696  0.1141
  127SOPE   C3713665  -0.321   5.378   4.307 -0.1427 -0.2726 -0.0853
  127SOPE   H7X13666  -0.406   5.322   4.262  0.4002  0.0998 -1.6486
  127SOPE   H7Y13667  -0.344   5.460   4.378 -0.2100 -0.8047  0.5078
  127SOPE   C3813668  -0.237   5.275   4.371 -0.1280  0.0648  0.0660
  127SOPE   H8X13669  -0.139   5.320   4.400 -0.4948  0.3531  0.8656
  127SOPE   H8Y13670  -0.223   5.193   4.297 -0.9888 -0.2109  0.2080
  127SOPE   C3913671  -0.291   5.206   4.495  0.4392  0.5702 -0.0392
  127SOPE   H9X13672  -0.391   5.166   4.470  0.1861  2.1259 -1.7023
  127SOPE   H9Y13673  -0.313   5.289   4.565 -0.1575 -0.9896  1.7171
  127SOPE  C31013674  -0.199   5.098   4.554 -0.8134 -0.0653 -0.3705
  127SOPE  H10X13675  -0.115   5.144   4.610  0.8663  1.2863 -3.7364
  127SOPE  H10Y13676  -0.160   5.034   4.472  0.4558 -0.2260  0.3329
  127SOPE  C31113677  -0.263   5.005   4.657 -0.3782  0.0992  0.2761
  127SOPE  H11X13678  -0.362   4.968   4.620 -0.8648 -0.0493  1.6735
  127SOPE  H11Y13679  -0.281   5.061   4.751  1.3048  0.5546  0.3470
  127SOPE  C31213680  -0.169   4.887   4.695  0.6233  0.3138  0.2199
  127SOPE  H12X13681  -0.071   4.934   4.713  0.4413  1.2233 -1.0465
  127SOPE  H12Y13682  -0.162   4.821   4.606  0.9717 -0.8894  1.1086
  127SOPE  C31313683  -0.224   4.815   4.814 -0.8851 -0.4038 -0.9277
  127SOPE  H13X13684  -0.297   4.735   4.787 -1.0217 -0.7700  0.4406
  127SOPE  H13Y13685  -0.273   4.885   4.885  1.5913 -0.7567  1.2968
  127SOPE  C31413686  -0.108   4.751   4.882  0.2183  0.4692 -0.5665
  127SOPE  H14X13687  -0.042   4.836   4.911 -1.4766  1.3516  0.9616
  127SOPE  H14Y13688  -0.051   4.684   4.815 -0.4308 -1.6457  0.8765
  127SOPE  C31513689  -0.138   4.691   5.021  0.3067 -0.2289 -0.0463
  127SOPE  H15X13690  -0.226   4.750   5.057  0.6582  1.2061 -1.3906
  127SOPE  H15Y13691  -0.060   4.711   5.097 -0.1243  2.3681 -0.1918
  127SOPE  C31613692  -0.180   4.538   4.999  0.4456 -0.1285 -0.1917
  127SOPE  H16X13693  -0.094   4.483   4.955  1.0018  1.2125 -0.8533
  127SOPE  H16Y13694  -0.260   4.536   4.922 -1.1559  2.5394  1.2741
  127SOPE  C31713695  -0.225   4.471   5.134  0.6502 -0.3217  0.6134
  127SOPE  H17X13696  -0.327   4.503   5.164  0.4370  0.7787 -1.1589
  127SOPE  H17Y13697  -0.152   4.508   5.210  1.0536 -3.0300  1.6506
  127SOPE  C31813698  -0.214   4.322   5.139 -0.3290 -0.6648  0.0188
  127SOPE  H18X13699  -0.114   4.274   5.130 -0.5595 -0.8440 -2.3346
  127SOPE  H18Y13700  -0.273   4.286   5.052 -1.8125  0.8153  0.3680
  127SOPE  H18Z13701  -0.272   4.290   5.228  0.5564 -0.7400  0.5808
  128SOPE     N13702   3.333   1.719   2.616 -0.0130 -0.1151  0.7068
  128SOPE   HN113703   3.371   1.813   2.641 -2.0836  0.4758  1.9156
  128SOPE   HN213704   3.386   1.653   2.677  1.3460 -1.2008 -1.5396
  128SOPE   HN313705   3.357   1.697   2.518  3.5345 -0.5297  1.5164
  128SOPE   C1213706   3.188   1.725   2.646 -0.0934 -0.1830 -0.0555
  128SOPE  H12A13707   3.149   1.627   2.609  2.2353 -2.0304  2.0117
  128SOPE  H12B13708   3.137   1.806   2.590  3.0993 -0.3118 -3.5593
  128SOPE   C1113709   3.168   1.751   2.797 -0.2334  0.1808 -0.4036
  128SOPE  H11A13710   3.058   1.752   2.808 -0.3647 -1.4433 -1.3515
  128SOPE  H11B13711   3.221   1.845   2.826  0.2599  0.1190 -1.1071
  128SOPE     P13712   3.180   1.574   2.986 -0.1083  0.0764 -0.2387
  128SOPE   O1313713   3.269   1.460   3.021  0.2086 -0.0648 -0.4497
  128SOPE   O1413714   3.042   1.530   2.953 -0.4300 -0.2448  0.3085
  128SOPE   O1213715   3.237   1.644   2.865  0.4201 -0.2149 -0.0629
  128SOPE   O1113716   3.177   1.692   3.096  0.1592  0.1768  0.2146
  128SOPE    C113717   3.300   1.769   3.120  0.3317 -0.1029  0.8749
  128SOPE    HA13718   3.316   1.837   3.033  1.1265 -0.1002  1.0175
  128SOPE    HB13719   3.389   1.703   3.125  0.9776  0.6601 -0.0813
  128SOPE    C213720   3.297   1.835   3.262 -0.3516 -0.2471 -0.4941
  128SOPE    HS13721   3.353   1.931   3.253 -0.7188  0.1151  0.7693
  128SOPE   O2113722   3.354   1.755   3.358  0.3062  0.4516  0.6389
  128SOPE   C2113723   3.483   1.760   3.378  0.8908 -0.2222  0.0195
  128SOPE   O2213724   3.558   1.848   3.337  0.2575  0.3590  0.2694
  128SOPE   C2213725   3.517   1.654   3.482 -0.8120  0.3832 -0.5236
  128SOPE   H2R13726   3.626   1.642   3.466 -1.1485  0.1259 -2.9941
  128SOPE   H2S13727   3.459   1.564   3.450 -2.3494  1.2436 -0.2769
  128SOPE    C313728   3.151   1.881   3.308 -0.0251  0.6225  0.8795
  128SOPE    HX13729   3.098   1.785   3.328  2.0962 -1.0311 -0.9161
  128SOPE    HY13730   3.106   1.938   3.224 -2.0529  0.1459  1.5630
  128SOPE   O3113731   3.164   1.952   3.430 -0.5207 -0.4876 -0.0688
  128SOPE   C3113732   3.156   2.080   3.436  0.0819 -0.0601 -0.1457
  128SOPE   O3213733   3.134   2.157   3.344 -0.1404  0.5530  0.2657
  128SOPE   C3213734   3.175   2.123   3.577  0.7686  0.2057 -0.1964
  128SOPE   H2X13735   3.209   2.029   3.626  0.4832  0.6670  0.8998
  128SOPE   H2Y13736   3.076   2.145   3.621  1.6327  1.0685  1.3880
  128SOPE   C2313737   3.488   1.692   3.630 -0.4590  0.1291  0.8601
  128SOPE   H3R13738   3.543   1.788   3.643 -1.1928  0.8793 -1.1478
  128SOPE   H3S13739   3.533   1.619   3.701  0.0576 -2.5478 -1.9803
  128SOPE   C2413740   3.338   1.701   3.663  0.9623 -0.3419 -0.1966
  128SOPE   H4R13741   3.292   1.782   3.602  1.1072 -0.4387 -0.4354
  128SOPE   H4S13742   3.292   1.611   3.616 -0.7792  0.0893  0.6023
  128SOPE   C2513743   3.318   1.700   3.814  0.3520 -0.5466 -0.9248
  128SOPE   H5R13744   3.220   1.660   3.847  1.0376  0.8513  3.6063
  128SOPE   H5S13745   3.395   1.634   3.860 -1.0711 -0.7844  1.2676
  128SOPE   C2613746   3.345   1.830   3.882 -0.3544 -0.2356  0.1615
  128SOPE   H6R13747   3.453   1.852   3.899 -0.8466  2.1234  0.6093
  128SOPE   H6S13748   3.325   1.909   3.806  0.3529 -0.9522 -0.8009
  128SOPE   C2713749   3.256   1.867   4.003 -0.2974 -0.1854 -0.2951
  128SOPE   H7R13750   3.292   1.970   4.026  1.2642 -0.6256 -0.6409
  128SOPE   H7S13751   3.146   1.871   3.987 -0.5560 -0.9668  1.1317
  128SOPE   C2813752   3.284   1.777   4.125 -0.1684 -0.4630 -0.1875
  128SOPE   H8R13753   3.259   1.670   4.109  0.9259 -0.4841 -2.1114
  128SOPE   H8S13754   3.394   1.781   4.144 -0.1995 -0.9480  0.0736
  128SOPE   C2913755   3.213   1.830   4.249 -0.2040 -0.1269 -0.2131
  128SOPE   H9113756   3.209   1.940   4.250 -1.1611 -0.1451  0.8073
  128SOPE  C21013757   3.166   1.760   4.352 -0.0659  0.4812  0.2725
  128SOPE  H10113758   3.130   1.819   4.437  0.7500  1.5813 -0.1251
  128SOPE  C21113759   3.169   1.610   4.365  0.7043  1.0424 -0.6752
  128SOPE  H11R13760   3.234   1.587   4.453 -0.3487  1.2610  0.1821
  128SOPE  H11S13761   3.223   1.560   4.282 -0.6041 -1.6002 -0.0453
  128SOPE  C21213762   3.033   1.552   4.390  0.4437  0.7386 -0.1029
  128SOPE  H12R13763   3.041   1.446   4.355  0.7467  1.1926 -1.4644
  128SOPE  H12S13764   2.952   1.599   4.330 -2.1301 -0.0347  2.5522
  128SOPE  C21313765   3.006   1.548   4.542  0.5960 -0.4904 -0.2390
  128SOPE  H13R13766   3.012   1.655   4.572  0.5080 -0.7443  0.7283
  128SOPE  H13S13767   3.088   1.498   4.598  0.1139  0.4314  1.3581
  128SOPE  C21413768   2.879   1.473   4.580  0.5370  0.2284  0.2113
  128SOPE  H14R13769   2.873   1.380   4.519  0.5543  0.3863 -0.0296
  128SOPE  H14S13770   2.793   1.537   4.549  0.3065 -0.2928 -0.2632
  128SOPE  C21513771   2.857   1.453   4.729 -0.2371  0.4196 -0.7591
  128SOPE  H15R13772   2.747   1.444   4.738 -0.5400  3.2176 -0.8192
  128SOPE  H15S13773   2.890   1.549   4.774 -0.6445 -0.4556  1.5370
  128SOPE  C21613774   2.925   1.331   4.793 -0.5474 -0.3946 -0.0554
  128SOPE  H16R13775   2.904   1.328   4.902  0.6933  1.2261  0.2710
  128SOPE  H16S13776   3.036   1.333   4.779 -0.5097 -1.2104  0.0749
  128SOPE  C21713777   2.860   1.207   4.740  0.5477 -0.4778 -0.1381
  128SOPE  H17R13778   2.870   1.199   4.630  1.2922 -0.6012 -0.0675
  128SOPE  H17S13779   2.753   1.200   4.769  1.1097 -0.7038  2.0692
  128SOPE  C21813780   2.928   1.086   4.796 -0.1372 -0.1317  0.0695
  128SOPE  H18R13781   2.877   0.995   4.759  1.2519 -0.8978 -0.0193
  128SOPE  H18S13782   2.932   1.089   4.907  0.4114  0.0309  0.0508
  128SOPE  H18T13783   3.035   1.081   4.767  0.3661  1.0501  1.5812
  128SOPE   C3313784   3.284   2.224   3.593 -0.3904 -0.5455 -0.5370
  128SOPE   H3X13785   3.258   2.331   3.580  0.6122 -0.4226 -1.5864
  128SOPE   H3Y13786   3.366   2.202   3.522  0.6469  0.7863  0.2162
  128SOPE   C3413787   3.364   2.219   3.725 -0.0254 -0.1380 -0.0752
  128SOPE   H4X13788   3.435   2.135   3.719 -1.1748 -1.1126 -0.4608
  128SOPE   H4Y13789   3.298   2.200   3.813  2.3684 -1.6698  1.4924
  128SOPE   C3513790   3.437   2.349   3.750  0.4887  0.1931 -0.1466
  128SOPE   H5X13791   3.367   2.435   3.747 -0.1743 -0.2652  1.2495
  128SOPE   H5Y13792   3.507   2.374   3.667  1.1218 -0.9231  0.0221
  128SOPE   C3613793   3.506   2.347   3.891 -0.0779  0.2440  0.1310
  128SOPE   H6X13794   3.555   2.447   3.901 -1.4495  0.8138  1.4574
  128SOPE   H6Y13795   3.598   2.287   3.877 -1.6620 -2.2453 -0.1191
  128SOPE   C3713796   3.434   2.296   4.011  0.0830 -0.0095 -0.7504
  128SOPE   H7X13797   3.411   2.188   4.001 -1.4781  0.0822  1.3120
  128SOPE   H7Y13798   3.341   2.352   4.034  2.1195  3.0566  0.8047
  128SOPE   C3813799   3.506   2.313   4.152 -0.0790  0.1483  0.3433
  128SOPE   H8X13800   3.432   2.283   4.229 -0.4750 -0.1558 -0.1507
  128SOPE   H8Y13801   3.534   2.418   4.175  3.5444 -0.7248  0.5557
  128SOPE   C3913802   3.628   2.220   4.173 -0.9553  0.3161 -0.1298
  128SOPE   H9X13803   3.680   2.249   4.266 -0.2697 -3.3287  0.7830
  128SOPE   H9Y13804   3.695   2.229   4.084 -1.6819 -2.2708 -1.0356
  128SOPE  C31013805   3.587   2.075   4.192  0.2438 -0.1034 -0.0812
  128SOPE  H10X13806   3.589   2.019   4.096  0.9346 -1.0246  0.4641
  128SOPE  H10Y13807   3.490   2.054   4.242  0.5538 -2.4363 -0.3255
  128SOPE  C31113808   3.703   2.002   4.282  0.4273  0.5840 -0.2116
  128SOPE  H11X13809   3.715   2.062   4.375 -0.7370  2.1981 -1.0526
  128SOPE  H11Y13810   3.802   2.000   4.231 -1.4498  0.3961 -4.2245
  128SOPE  C31213811   3.659   1.861   4.322 -0.1400  0.3562  1.0102
  128SOPE  H12X13812   3.754   1.817   4.358  0.9783 -1.4020 -3.3876
  128SOPE  H12Y13813   3.644   1.808   4.225 -2.5920  2.3021  0.1940
  128SOPE  C31313814   3.549   1.849   4.422 -0.2777  0.7035  0.1789
  128SOPE  H13X13815   3.448   1.849   4.377 -0.8277  2.8106  1.2931
  128SOPE  H13Y13816   3.553   1.932   4.496 -1.1459 -0.3778  1.5013
  128SOPE  C31413817   3.561   1.721   4.515  0.2611 -0.2716  0.7614
  128SOPE  H14X13818   3.667   1.724   4.545  0.6348  4.1243 -0.3639
  128SOPE  H14Y13819   3.555   1.631   4.450  1.9718  0.1670 -0.0582
  128SOPE  C31513820   3.462   1.731   4.632 -0.1003 -0.0779  0.5544
  128SOPE  H15X13821   3.358   1.725   4.592  0.3876 -1.3076 -0.5885
  128SOPE  H15Y13822   3.469   1.833   4.677 -0.8965 -0.2473  1.0988
  128SOPE  C31613823   3.478   1.626   4.743 -0.4555  0.0750 -0.7454
  128SOPE  H16X13824   3.549   1.653   4.824 -1.6336 -0.3360  0.4599
  128SOPE  H16Y13825   3.507   1.525   4.707 -0.1561  0.1910 -0.8372
  128SOPE  C31713826   3.352   1.615   4.836 -0.3868  0.1487  0.3699
  128SOPE  H17X13827   3.269   1.566   4.779 -0.8981  0.8572  0.4969
  128SOPE  H17Y13828   3.338   1.723   4.855  0.2031  0.5863 -1.4833
  128SOPE  C31813829   3.364   1.534   4.965 -0.4991 -0.7148 -0.0281
  128SOPE  H18X13830   3.437   1.566   5.042  1.2858  0.9322 -2.2966
  128SOPE  H18Y13831   3.382   1.427   4.939 -0.6342 -0.9353  0.7404
  128SOPE  H18Z13832   3.268   1.544   5.021  0.4349  0.8483  1.3534
  129OSM      N13833   0.036   2.366   7.861  0.1637 -0.5493  0.8571
  129OSM    C1513834   0.062   2.266   7.967  0.1869  0.2402  0.5072
  129OSM   H15A13835  -0.005   2.288   8.047  0.1541  3.3402 -0.2644
  129OSM   H15B13836   0.164   2.264   8.003  0.5055 -1.4338 -0.3545
  129OSM   H15C13837   0.043   2.166   7.931  0.1762 -0.6120  2.7213
  129OSM    C1413838   0.041   2.507   7.911  0.2368 -0.4045  0.0908
  129OSM   H14A13839   0.135   2.530   7.958  0.3517 -2.0395  0.7218
  129OSM   H14B13840  -0.037   2.518   7.985  0.0598  0.7719 -0.2550
  129OSM   H14C13841   0.012   2.577   7.834  0.5790  0.2493  0.5457
  129OSM    C1313842   0.152   2.346   7.762  0.0482 -0.5069 -0.2112
  129OSM   H13A13843   0.236   2.405   7.796 -0.8473 -1.5202  4.5905
  129OSM   H13B13844   0.132   2.385   7.664 -1.9223 -0.0417  0.3195
  129OSM   H13C13845   0.164   2.239   7.766 -1.2806 -0.6802 -0.3004
  129OSM    C1213846  -0.105   2.346   7.794 -0.9428 -0.2203 -0.1719
  129OSM   H12A13847  -0.116   2.431   7.727  2.0909  0.4741  0.1018
  129OSM   H12B13848  -0.179   2.338   7.872  0.5606 -2.4141  1.1187
  129OSM    C1113849  -0.129   2.218   7.713  0.5770  0.3424  0.3558
  129OSM   H11A13850  -0.061   2.228   7.626  1.7648  1.1496  1.3246
  129OSM   H11B13851  -0.233   2.224   7.675  0.3893  2.5258  1.0950
  129OSM      P13852  -0.061   1.972   7.733 -0.4559  0.1888 -0.0197
  129OSM    O1313853   0.081   1.990   7.696  0.1122  0.0571 -0.0741
  129OSM    O1413854  -0.096   1.858   7.821  0.6731 -0.3842 -0.1778
  129OSM    O1113855  -0.157   1.967   7.601  0.1442 -0.0612  0.2090
  129OSM    O1213856  -0.103   2.103   7.795  0.2636  0.3725 -0.0160
  129OSM    C1S13857  -0.289   1.913   7.610 -0.0425  0.0349 -0.0405
  129OSM    H1S13858  -0.361   1.997   7.597 -1.7377 -1.0537  1.8010
  129OSM    H1T13859  -0.312   1.844   7.694 -1.0050 -1.5041 -1.5107
  129OSM     NF13860  -0.425   1.750   7.487 -0.3215 -0.0645  0.0090
  129OSM    HNF13861  -0.440   1.662   7.531  0.1353  0.8350  2.0528
  129OSM    C2S13862  -0.293   1.815   7.490  0.0183  0.7419 -0.3120
  129OSM    H2S13863  -0.280   1.874   7.397  1.8487  1.6264  0.4645
  129OSM    C3S13864  -0.170   1.714   7.479 -1.0474  0.6310  0.3362
  129OSM    H3S13865  -0.153   1.668   7.579  2.1697 -0.8602 -0.7369
  129OSM     O313866  -0.036   1.770   7.455  0.3460 -0.4242  0.1660
  129OSM    HO313867  -0.043   1.863   7.478 -3.1984 -0.7758  1.1097
  129OSM    C4S13868  -0.196   1.602   7.372 -1.0470  0.1859 -0.0522
  129OSM    H4S13869  -0.243   1.509   7.407  0.2530 -0.6095 -0.3628
  129OSM    C5S13870  -0.147   1.602   7.250 -0.1226  0.7756  0.3595
  129OSM    H5S13871  -0.071   1.677   7.226  1.7667 -0.3622  2.3507
  129OSM    C6S13872  -0.159   1.494   7.144  0.3766  0.0587 -1.0517
  129OSM    H6S13873  -0.248   1.432   7.169  0.1257  0.8408  0.0911
  129OSM    H6T13874  -0.068   1.434   7.125 -0.3869 -1.4500 -0.1573
  129OSM    C7S13875  -0.184   1.557   7.000  0.9677  0.3829  0.3621
  129OSM    H7S13876  -0.096   1.618   6.966 -0.1962  2.5855  1.0984
  129OSM    H7T13877  -0.278   1.616   7.004 -0.9675 -2.5807  0.9792
  129OSM    C8S13878  -0.206   1.450   6.883 -0.0798  0.4334  0.0110
  129OSM    H8S13879  -0.293   1.383   6.901 -0.3558  1.4155  2.9013
  129OSM    H8T13880  -0.109   1.395   6.883 -0.6519 -0.6141  0.6935
  129OSM    C9S13881  -0.216   1.512   6.747 -0.7551  0.1500 -0.1968
  129OSM    H9S13882  -0.130   1.582   6.745 -1.1354  0.6064 -1.3727
  129OSM    H9T13883  -0.311   1.570   6.742 -0.3254  0.8741 -0.1060
  129OSM   C10S13884  -0.198   1.414   6.625 -0.4465 -0.7431 -0.3543
  129OSM   H10S13885  -0.280   1.342   6.645  0.5930 -1.1327  3.1021
  129OSM   H10T13886  -0.101   1.360   6.632  0.4508  0.9591  1.2208
  129OSM   C11S13887  -0.231   1.481   6.492  0.0713  0.1013 -0.0731
  129OSM   H11S13888  -0.162   1.564   6.466  0.2207  0.1851  0.5603
  129OSM   H11T13889  -0.333   1.523   6.505 -0.2483 -1.1212  1.7260
  129OSM   C12S13890  -0.249   1.375   6.382 -0.1370  0.2289 -0.1995
  129OSM   H12S13891  -0.318   1.302   6.428 -0.8005  2.4702  2.6993
  129OSM   H12T13892  -0.153   1.323   6.364  1.0121  1.0939  2.7184
  129OSM   C13S13893  -0.317   1.427   6.258 -0.1403  0.2775 -0.5279
  129OSM   H13S13894  -0.245   1.492   6.205  0.5076  0.3419  0.4082
  129OSM   H13T13895  -0.418   1.468   6.278 -1.0866 -0.7616 -2.8334
  129OSM   C14S13896  -0.344   1.319   6.158  0.4520  0.5041 -0.4269
  129OSM   H14S13897  -0.442   1.272   6.180  1.3296 -1.3292 -0.2277
  129OSM   H14T13898  -0.260   1.246   6.163 -0.6261 -0.8611 -1.3360
  129OSM   C15S13899  -0.333   1.372   6.015 -0.1922 -0.0172  0.1329
  129OSM   H15S13900  -0.235   1.422   6.006 -0.4239  0.8952  2.1575
  129OSM   H15T13901  -0.409   1.452   6.002  0.7354  1.3425  2.4033
  129OSM   C16S13902  -0.348   1.258   5.915  0.0297 -0.4627 -0.2272
  129OSM   H16S13903  -0.456   1.232   5.916 -0.1827  0.4190  0.7487
  129OSM   H16T13904  -0.311   1.159   5.949  0.5637  0.2893  1.4707
  129OSM   C17S13905  -0.301   1.283   5.770  0.7211 -0.5963 -0.0503
  129OSM   H17S13906  -0.207   1.343   5.767  1.2055 -1.2411  1.4112
  129OSM   H17T13907  -0.377   1.354   5.733 -0.0112  1.0775  4.1084
  129OSM   C18S13908  -0.275   1.157   5.689  0.3799 -0.3314 -0.3723
  129OSM   H18S13909  -0.365   1.094   5.679  1.1405 -1.1342 -3.4958
  129OSM   H18T13910  -0.196   1.093   5.732 -1.0693 -2.1752 -0.3410
  129OSM   H18U13911  -0.243   1.186   5.586 -3.3849  0.9374 -1.3535
  129OSM    C1F13912  -0.534   1.812   7.448 -0.2265  0.1834 -0.2623
  129OSM     OF13913  -0.531   1.933   7.415 -0.1168 -0.3914  0.0552
  129OSM    C2F13914  -0.659   1.733   7.437  0.2416 -0.1181 -0.2062
  129OSM    H2F13915  -0.743   1.803   7.415  0.3654  0.1125  0.0596
  129OSM    H2G13916  -0.694   1.696   7.536 -0.5320  1.7879  0.2755
  129OSM    C3F13917  -0.648   1.613   7.342 -0.5702  0.3616 -0.1999
  129OSM    H3F13918  -0.739   1.550   7.339 -2.0552  2.3644  0.7731
  129OSM    H3G13919  -0.569   1.542   7.374 -1.5880 -1.1797 -0.9823
  129OSM    C4F13920  -0.628   1.662   7.192 -0.2646  0.0448 -0.2479
  129OSM    H4F13921  -0.535   1.722   7.188  0.0899 -0.3157  1.7701
  129OSM    H4G13922  -0.716   1.719   7.155  0.3006  2.0023  1.2708
  129OSM    C5F13923  -0.626   1.539   7.100  0.7906 -0.3284  0.6089
  129OSM    H5F13924  -0.725   1.489   7.111  0.2849  0.6852  0.7835
  129OSM    H5G13925  -0.539   1.475   7.127  1.2386 -0.7815 -1.6996
  129OSM    C6F13926  -0.599   1.585   6.954 -0.4923  0.1367 -0.1843
  129OSM    H6F13927  -0.504   1.640   6.942 -0.4288  0.0528 -0.0686
  129OSM    H6G13928  -0.680   1.657   6.925 -0.1947  0.2115 -0.8590
  129OSM    C7F13929  -0.588   1.473   6.847  0.3261 -0.3489  0.2785
  129OSM    H7F13930  -0.497   1.414   6.868  1.8739  2.0241  0.6143
  129OSM    H7G13931  -0.577   1.522   6.748 -2.0807  0.5564  0.3837
  129OSM    C8F13932  -0.714   1.383   6.834 -0.4722  0.1314  0.1484
  129OSM    H8F13933  -0.792   1.457   6.807 -0.4888  0.0138 -0.1270
  129OSM    H8G13934  -0.727   1.340   6.936  3.0440 -0.4391  0.4795
  129OSM    C9F13935  -0.703   1.282   6.722 -0.5843  0.1780  0.1414
  129OSM    H9F13936  -0.621   1.210   6.730 -1.5338 -0.9876 -0.3406
  129OSM   C10F13937  -0.774   1.278   6.612 -0.2287  0.1147  0.1776
  129OSM   H10F13938  -0.739   1.204   6.538  0.8193 -1.0728  1.7820
  129OSM   C11F13939  -0.890   1.367   6.561  0.1935  0.1828  0.8805
  129OSM   H11F13940  -0.952   1.419   6.637 -1.9111 -1.5213  0.4090
  129OSM   H11G13941  -0.973   1.310   6.514  1.6702 -1.0359 -0.3430
  129OSM   C12F13942  -0.837   1.465   6.454  0.0624  0.4172  0.1073
  129OSM   H12F13943  -0.766   1.533   6.505  2.4817 -0.5179 -1.8175
  129OSM   H12G13944  -0.928   1.516   6.416  1.2738  0.6537 -2.6664
  129OSM   C13F13945  -0.771   1.404   6.334  0.6953  0.2752  0.7549
  129OSM   H13F13946  -0.827   1.314   6.302 -0.1917  0.8159  0.7347
  129OSM   H13G13947  -0.673   1.360   6.362  0.0001 -1.6770  0.2798
  129OSM   C14F13948  -0.763   1.517   6.220 -0.7058  0.6324 -0.4199
  129OSM   H14F13949  -0.688   1.582   6.271 -1.2801  2.0477 -1.3436
  129OSM   H14G13950  -0.864   1.557   6.197 -0.7119  0.0394 -1.4837
  129OSM   C15F13951  -0.710   1.453   6.094  0.0692  0.1635 -0.6392
  129OSM   H15F13952  -0.767   1.374   6.041 -0.7006  2.1358 -2.9337
  129OSM   H15G13953  -0.609   1.409   6.109 -0.1392 -0.3229 -0.6493
  129OSM   C16F13954  -0.683   1.557   5.991  0.0318  0.1821 -0.2458
  129OSM   H16F13955  -0.633   1.520   5.899 -0.3355  0.3787 -0.5284
  129OSM   H16G13956  -0.626   1.646   6.025  0.7079  0.2047 -1.3893
  129OSM   C17F13957  -0.819   1.608   5.942 -0.3356 -0.9614  0.3881
  129OSM   H17F13958  -0.799   1.663   5.848  0.7434 -3.3354 -0.8700
  129OSM   H17G13959  -0.851   1.682   6.018 -0.9951 -1.0919  0.2489
  129OSM   C18F13960  -0.939   1.513   5.911 -0.5497  0.3597  0.1961
  129OSM   H18F13961  -0.963   1.465   6.008  0.3674  0.1403  0.3296
  129OSM   H18G13962  -0.912   1.442   5.830 -0.0462  0.9557 -0.1701
  129OSM   H18H13963  -1.023   1.578   5.880  1.0274  2.9123  0.9226
  130OSM      N13964   6.781   2.961   7.861 -0.7358  0.4738 -0.0964
  130OSM    C1513965   6.799   3.044   7.979 -0.1809 -0.0465  0.0869
  130OSM   H15A13966   6.893   3.017   8.025 -0.7057 -0.1791  1.1053
  130OSM   H15B13967   6.726   3.034   8.058  0.3604 -1.2140  0.4621
  130OSM   H15C13968   6.801   3.148   7.950  0.8712 -0.6017 -2.0450
  130OSM    C1413969   6.915   2.963   7.788 -0.4897  0.5813 -0.9605
  130OSM   H14A13970   6.904   2.910   7.694  1.7822 -0.4612 -0.7025
  130OSM   H14B13971   6.998   2.922   7.843 -0.4209  0.7278 -0.9527
  130OSM   H14C13972   6.932   3.067   7.762  0.5312 -0.2332 -4.0073
  130OSM    C1313973   6.760   2.821   7.908 -0.1486  0.5245 -0.1437
  130OSM   H13A13974   6.849   2.775   7.947 -0.3598 -0.4001 -0.7064
  130OSM   H13B13975   6.716   2.760   7.830 -1.4302  1.1161  0.0885
  130OSM   H13C13976   6.677   2.819   7.977  0.0526 -3.4031  0.2219
  130OSM    C1213977   6.670   3.008   7.770  0.1860  0.8450  0.5856
  130OSM   H12A13978   6.572   2.972   7.798 -1.2689  1.9819 -2.5924
  130OSM   H12B13979   6.681   2.958   7.675  1.2733  0.2968  0.9845
  130OSM    C1113980   6.651   3.161   7.749 -0.4762 -0.2618  0.2073
  130OSM   H11A13981   6.631   3.198   7.852  0.8345 -0.8497  0.6966
  130OSM   H11B13982   6.562   3.175   7.684  0.9125  0.0485 -1.7015
  130OSM      P13983   6.748   3.352   7.602  0.0212  0.1153  0.0305
  130OSM    O1313984   6.633   3.428   7.654 -0.2434  0.4331  0.0366
  130OSM    O1413985   6.884   3.417   7.608  0.2991 -0.0886 -0.0721
  130OSM    O1113986   6.710   3.294   7.462  0.4362 -0.3494 -0.0053
  130OSM    O1213987   6.767   3.230   7.702 -0.2320  0.3963  0.3664
  130OSM    C1S13988   6.809   3.244   7.371 -0.0771 -0.2047 -0.0749
  130OSM    H1S13989   6.910   3.228   7.415  0.1584  0.0735 -0.5048
  130OSM    H1T13990   6.827   3.315   7.287  0.3860 -0.5860 -0.2984
  130OSM     NF13991   6.861   3.043   7.232 -0.4738 -0.3230 -0.2643
  130OSM    HNF13992   6.861   3.064   7.135  1.2387 -1.9669 -0.6770
  130OSM    C2S13993   6.756   3.113   7.309 -0.3119 -0.1359  0.1437
  130OSM    H2S13994   6.721   3.055   7.397 -0.8590  0.5353  0.3684
  130OSM    C3S13995   6.628   3.154   7.226  0.4321  0.1862 -0.0172
  130OSM    H3S13996   6.657   3.237   7.157  0.3490  2.9626  3.0420
  130OSM     O313997   6.527   3.212   7.303  0.6155  0.1256 -0.0667
  130OSM    HO313998   6.578   3.236   7.381 -0.1969 -0.7095  0.7404
  130OSM    C4S13999   6.571   3.049   7.131  0.2746  0.3826 -0.1396
  130OSM    H4S14000   6.549   2.950   7.174 -1.7847  0.3843 -1.0593
  130OSM    C5S14001   6.521   3.067   7.007 -1.3031 -0.1962  0.2507
  130OSM    H5S14002   6.509   3.168   6.965 -2.5770 -0.6714 -0.5993
  130OSM    C6S14003   6.440   2.969   6.929  0.5794 -0.3156 -0.6543
  130OSM    H6S14004   6.331   2.989   6.936  0.3739 -1.5539  0.1439
  130OSM    H6T14005   6.446   2.868   6.975  0.0139 -0.2152 -0.3575
  130OSM    C7S14006   6.470   2.948   6.780  0.0953 -0.4397 -0.0660
  130OSM    H7S14007   6.384   2.890   6.739 -0.2582  0.7369 -1.0731
  130OSM    H7T14008   6.554   2.875   6.776 -0.5577 -1.2788  0.9836
  130OSM    C8S14009   6.487   3.079   6.693 -0.2090  0.5714 -0.3363
  130OSM    H8S14010   6.588   3.115   6.722  0.3167 -0.6643 -0.5811
  130OSM    H8T14011   6.402   3.150   6.705  1.1765  2.1863  0.3305
  130OSM    C9S14012   6.498   3.045   6.545 -0.7730  0.7290 -0.2676
  130OSM    H9S14013   6.551   3.134   6.505 -1.4103  0.7263 -1.1638
  130OSM    H9T14014   6.395   3.039   6.503 -0.5099 -0.2540 -0.8009
  130OSM   C10S14015   6.558   2.915   6.496 -0.3678  0.8731 -0.0703
  130OSM   H10S14016   6.485   2.833   6.513 -1.3808  1.8965  0.6416
  130OSM   H10T14017   6.644   2.895   6.564 -0.8480 -2.1881 -0.2331
  130OSM   C11S14018   6.606   2.913   6.349 -0.6240 -0.2349 -0.0588
  130OSM   H11S14019   6.667   2.820   6.339  0.9476  0.7334  0.1437
  130OSM   H11T14020   6.664   2.998   6.308  0.1405  0.1693  1.7724
  130OSM   C12S14021   6.484   2.898   6.251 -0.2674 -0.0555  0.4416
  130OSM   H12S14022   6.443   2.999   6.232  0.8386  0.7885  2.2967
  130OSM   H12T14023   6.401   2.843   6.302  0.0169 -1.0276 -0.1162
  130OSM   C13S14024   6.516   2.830   6.116  0.5039  0.6320  0.5334
  130OSM   H13S14025   6.427   2.793   6.060  0.7928  0.3587  0.2512
  130OSM   H13T14026   6.588   2.747   6.132  0.4269  0.4425 -0.0748
  130OSM   C14S14027   6.583   2.933   6.025 -0.3748 -0.7508 -0.5205
  130OSM   H14S14028   6.676   2.972   6.072 -0.3454 -1.0449 -0.3295
  130OSM   H14T14029   6.508   3.011   6.002 -2.0731 -2.3058 -0.5439
  130OSM   C15S14030   6.638   2.868   5.897  0.2177  0.2518 -0.3542
  130OSM   H15S14031   6.680   2.771   5.930 -2.4828 -1.1913 -0.8770
  130OSM   H15T14032   6.714   2.938   5.855 -1.1196  2.3290  0.5361
  130OSM   C16S14033   6.527   2.850   5.786 -0.5744 -0.1122 -0.1294
  130OSM   H16S14034   6.527   2.939   5.718  2.4806  1.1943  1.3721
  130OSM   H16T14035   6.434   2.855   5.846 -1.4621  1.9087 -1.5455
  130OSM   C17S14036   6.551   2.715   5.716  0.7226  0.3428 -1.1299
  130OSM   H17S14037   6.568   2.640   5.795  0.5948  0.5358 -0.9197
  130OSM   H17T14038   6.652   2.706   5.670  0.3382 -0.8812 -1.7791
  130OSM   C18S14039   6.441   2.669   5.621  0.2613 -0.5090  0.3297
  130OSM   H18S14040   6.454   2.568   5.576 -0.8788 -1.0254  1.1062
  130OSM   H18T14041   6.423   2.739   5.537 -2.4644 -1.2509  0.1796
  130OSM   H18U14042   6.345   2.680   5.677  0.5957 -2.5309  1.3778
  130OSM    C1F14043   6.967   2.991   7.292 -0.3745  0.1901  0.2912
  130OSM     OF14044   6.990   3.004   7.414 -0.0273 -0.0567 -0.0743
  130OSM    C2F14045   7.065   2.915   7.210  0.0098  0.3682 -0.7307
  130OSM    H2F14046   7.167   2.934   7.251 -0.7956 -0.5474  1.9095
  130OSM    H2G14047   7.066   2.943   7.103  3.3640 -0.4391 -1.0372
  130OSM    C3F14048   7.057   2.763   7.230 -0.2928 -0.1356  0.0688
  130OSM    H3F14049   7.071   2.751   7.339  1.0662  0.4191 -0.0211
  130OSM    H3G14050   7.142   2.726   7.168 -0.0131  3.2873 -1.8027
  130OSM    C4F14051   6.929   2.691   7.188  0.0655 -0.2265  0.1810
  130OSM    H4F14052   6.844   2.744   7.236  0.2503  1.3198 -1.0897
  130OSM    H4G14053   6.933   2.586   7.223  0.6961  0.1393  1.2716
  130OSM    C5F14054   6.893   2.693   7.036  0.4754  0.0899 -0.6940
  130OSM    H5F14055   6.964   2.633   6.974  0.2074  0.0583 -0.9692
  130OSM    H5G14056   6.902   2.793   6.988 -0.1510 -0.6018 -2.3176
  130OSM    C6F14057   6.749   2.634   7.011 -0.0926  0.5275  0.3474
  130OSM    H6F14058   6.669   2.681   7.072  0.0833 -0.0351  1.0330
  130OSM    H6G14059   6.753   2.525   7.035  0.7032  0.3632 -0.4619
  130OSM    C7F14060   6.697   2.648   6.867  0.1429  0.7745  0.3347
  130OSM    H7F14061   6.776   2.597   6.808  0.5804 -1.5101  2.7239
  130OSM    H7G14062   6.711   2.757   6.850  1.2232  0.5864 -0.0684
  130OSM    C8F14063   6.554   2.601   6.839  0.1904 -0.2107  0.6098
  130OSM    H8F14064   6.519   2.656   6.749 -1.2675 -0.0860  1.2351
  130OSM    H8G14065   6.490   2.634   6.923  2.9814  0.3463  2.6727
  130OSM    C9F14066   6.551   2.452   6.814  1.0411  0.0954 -0.5579
  130OSM    H9F14067   6.581   2.399   6.905  0.6285  2.2982  0.9479
  130OSM   C10F14068   6.531   2.385   6.701  0.3694  0.6127  0.1471
  130OSM   H10F14069   6.533   2.275   6.694 -0.3797  0.4118  2.3902
  130OSM   C11F14070   6.498   2.444   6.568 -0.2221 -0.9133  0.0915
  130OSM   H11F14071   6.520   2.553   6.566 -0.6012 -0.7675  2.0075
  130OSM   H11G14072   6.392   2.428   6.538 -0.7381  2.5402 -0.3289
  130OSM   C12F14073   6.582   2.387   6.452  0.2634  0.3367  0.5442
  130OSM   H12F14074   6.570   2.277   6.454  0.1242  0.3471  0.2936
  130OSM   H12G14075   6.692   2.392   6.462  0.1816  3.6181  1.0672
  130OSM   C13F14076   6.550   2.447   6.312 -0.0495 -0.4588  0.0298
  130OSM   H13F14077   6.570   2.557   6.319  1.2254 -0.7565  1.5850
  130OSM   H13G14078   6.442   2.427   6.297  0.1428 -3.2245  1.8336
  130OSM   C14F14079   6.644   2.386   6.202 -0.8857  0.0150  0.2430
  130OSM   H14F14080   6.665   2.278   6.223  0.8204  0.5576  1.5665
  130OSM   H14G14081   6.739   2.432   6.236 -0.8965 -1.0225  1.8304
  130OSM   C15F14082   6.618   2.411   6.054 -0.2809 -0.3887  0.0909
  130OSM   H15F14083   6.605   2.520   6.036 -1.0618 -0.2222  1.4968
  130OSM   H15G14084   6.526   2.367   6.010 -0.3803 -0.5724  0.4708
  130OSM   C16F14085   6.744   2.360   5.974  0.2665 -0.0214 -0.2609
  130OSM   H16F14086   6.784   2.260   5.998 -1.3078 -0.1266  2.2679
  130OSM   H16G14087   6.826   2.432   5.996 -1.7706  2.3709  0.0731
  130OSM   C17F14088   6.731   2.344   5.820  0.6598 -0.2238 -0.0863
  130OSM   H17F14089   6.823   2.293   5.785  1.7155  1.5288 -0.0026
  130OSM   H17G14090   6.730   2.446   5.775  1.8134  0.8758  2.2036
  130OSM   C18F14091   6.613   2.260   5.777 -0.0367 -0.4703 -0.5294
  130OSM   H18F14092   6.521   2.319   5.798 -1.0751 -2.2630  0.2024
  130OSM   H18G14093   6.607   2.174   5.847 -1.6302  1.8590  2.4670
  130OSM   H18H14094   6.609   2.235   5.669  0.3888 -1.8428 -0.2436
  131OSM      N14095   0.350   3.117   7.555 -0.1482 -0.4816 -0.2373
  131OSM    C1514096   0.455   3.013   7.518 -0.0994 -0.6742 -0.1763
  131OSM   H15A14097   0.445   2.969   7.420  0.0657  0.4934 -0.7434
  131OSM   H15B14098   0.457   2.927   7.583 -1.7731 -1.7054 -1.4182
  131OSM   H15C14099   0.555   3.052   7.533 -0.3346 -0.8966  2.2807
  131OSM    C1414100   0.226   3.040   7.541 -0.3273 -0.1501  0.6134
  131OSM   H14A14101   0.142   3.106   7.556 -0.3829 -0.1672  0.3772
  131OSM   H14B14102   0.221   2.969   7.622  0.4268  1.1638  1.8634
  131OSM   H14C14103   0.221   2.990   7.445  0.9509 -0.6484  0.7794
  131OSM    C1314104   0.351   3.168   7.700  0.2480 -0.4712 -0.0966
  131OSM   H13A14105   0.284   3.252   7.711  1.6232  0.7756 -0.8658
  131OSM   H13B14106   0.448   3.216   7.709 -0.3205  0.5462  1.0071
  131OSM   H13C14107   0.341   3.091   7.775 -0.8738  0.0650  0.3288
  131OSM    C1214108   0.352   3.240   7.458 -0.1896  0.0859 -0.3841
  131OSM   H12A14109   0.253   3.278   7.438 -0.8049 -2.7677 -3.7042
  131OSM   H12B14110   0.384   3.200   7.363 -0.5754  0.1472 -0.5420
  131OSM    C1114111   0.441   3.354   7.501  0.3899  0.5642  0.0331
  131OSM   H11A14112   0.401   3.409   7.589  0.6922  1.3463 -0.3093
  131OSM   H11B14113   0.427   3.434   7.425 -1.5575 -0.4342 -0.7358
  131OSM      P14114   0.671   3.298   7.391  0.1327 -0.4313  0.3216
  131OSM    O1314115   0.791   3.379   7.420 -0.1559 -0.2447 -0.2857
  131OSM    O1414116   0.683   3.155   7.379  0.3082  0.6133  0.4999
  131OSM    O1114117   0.587   3.351   7.265  0.8740 -0.1084  0.7190
  131OSM    O1214118   0.574   3.317   7.522 -0.2243  0.3591  0.4071
  131OSM    C1S14119   0.601   3.487   7.209  1.2518  0.2673 -0.0569
  131OSM    H1S14120   0.707   3.519   7.195  1.8424 -2.1536 -2.0038
  131OSM    H1T14121   0.558   3.565   7.275 -1.9318 -2.8719  1.9555
  131OSM     NF14122   0.599   3.624   7.009 -0.3712  0.3588  0.5487
  131OSM    HNF14123   0.542   3.705   7.024 -0.2556  1.0258 -2.1213
  131OSM    C2S14124   0.554   3.501   7.060  0.1482  0.7251 -0.1157
  131OSM    H2S14125   0.606   3.418   7.009 -0.1102 -0.4338  1.4295
  131OSM    C3S14126   0.405   3.468   7.047  0.2458  0.1260  0.2177
  131OSM    H3S14127   0.343   3.542   7.102 -1.7444 -0.3380 -1.2731
  131OSM     O314128   0.372   3.350   7.117 -0.0042  0.0039 -0.0801
  131OSM    HO314129   0.451   3.343   7.170 -1.0433  0.5141  1.6052
  131OSM    C4S14130   0.359   3.446   6.899  0.6111 -0.5511 -0.1835
  131OSM    H4S14131   0.308   3.534   6.858  1.2267 -0.7027 -1.3248
  131OSM    C5S14132   0.378   3.336   6.823  0.0027 -0.0591 -0.7867
  131OSM    H5S14133   0.418   3.245   6.870 -2.1268 -1.0756 -0.8614
  131OSM    C6S14134   0.330   3.310   6.680 -0.0487  0.0122  0.4549
  131OSM    H6S14135   0.262   3.393   6.649 -1.1155 -0.6393  0.9852
  131OSM    H6T14136   0.266   3.219   6.679  0.2149 -0.1873  1.3158
  131OSM    C7S14137   0.456   3.286   6.588  0.2244  0.0696 -0.5735
  131OSM    H7S14138   0.530   3.368   6.603  1.9444 -1.3665 -0.9642
  131OSM    H7T14139   0.417   3.292   6.484 -0.8196  1.3906 -0.1387
  131OSM    C8S14140   0.528   3.149   6.605 -0.3838  0.8294  0.0495
  131OSM    H8S14141   0.590   3.144   6.697  1.8660 -0.7836 -1.4452
  131OSM    H8T14142   0.601   3.141   6.521 -1.9079  1.5902 -1.4135
  131OSM    C9S14143   0.428   3.025   6.599  0.6034 -0.7835 -0.0192
  131OSM    H9S14144   0.362   3.012   6.687 -2.2969  0.6080 -1.8450
  131OSM    H9T14145   0.500   2.940   6.602 -0.0030 -1.2760  1.0027
  131OSM   C10S14146   0.341   3.007   6.468 -0.3747  0.5230 -0.4140
  131OSM   H10S14147   0.284   3.102   6.464 -1.0613  0.1832  0.7949
  131OSM   H10T14148   0.262   2.930   6.481 -2.9110  3.0699  0.3315
  131OSM   C11S14149   0.431   2.979   6.355  0.8750  0.5771 -0.0319
  131OSM   H11S14150   0.507   2.902   6.377  1.5945  1.4199  0.5074
  131OSM   H11T14151   0.481   3.074   6.326 -1.3907  1.7380 -0.3955
  131OSM   C12S14152   0.356   2.933   6.227 -0.0342 -0.4876  0.2684
  131OSM   H12S14153   0.270   2.999   6.202 -0.7052 -1.9623 -1.5401
  131OSM   H12T14154   0.300   2.838   6.238 -0.5732 -0.0896  1.0678
  131OSM   C13S14155   0.457   2.912   6.115 -0.3367 -0.0376  0.5547
  131OSM   H13S14156   0.521   2.827   6.145 -0.1652 -0.2592 -0.4076
  131OSM   H13T14157   0.514   3.006   6.101 -1.0423  0.0427 -2.4454
  131OSM   C14S14158   0.379   2.875   5.984 -0.9688  0.6139  0.5990
  131OSM   H14S14159   0.299   2.947   5.957 -1.3999  0.2639  0.9265
  131OSM   H14T14160   0.315   2.786   6.000 -0.2994 -0.0897 -0.4974
  131OSM   C15S14161   0.480   2.854   5.861 -0.3212  0.5731 -0.1068
  131OSM   H15S14162   0.418   2.829   5.772  1.4830 -1.9148 -0.7692
  131OSM   H15T14163   0.541   2.763   5.880  1.8746  2.1653  0.8375
  131OSM   C16S14164   0.575   2.976   5.833 -0.2543  0.3736  0.8244
  131OSM   H16S14165   0.647   2.955   5.751 -2.0933  1.2823 -1.1396
  131OSM   H16T14166   0.629   2.981   5.930  1.6833  1.4229 -0.2617
  131OSM   C17S14167   0.484   3.098   5.802  0.0520  0.5451 -0.2121
  131OSM   H17S14168   0.421   3.121   5.890  2.7711  0.2782  1.9554
  131OSM   H17T14169   0.423   3.084   5.710  1.5339  1.3170 -1.3660
  131OSM   C18S14170   0.562   3.228   5.791 -0.6604 -0.2581  0.0935
  131OSM   H18S14171   0.584   3.268   5.893 -1.4792  2.5486 -0.7285
  131OSM   H18T14172   0.501   3.307   5.742  1.1833 -0.5369 -2.8999
  131OSM   H18U14173   0.653   3.213   5.730 -1.3954 -1.1330 -0.8271
  131OSM    C1F14174   0.726   3.647   6.974 -0.7840  0.3465 -0.9906
  131OSM     OF14175   0.805   3.554   6.991 -0.3798  0.0735  0.2380
  131OSM    C2F14176   0.761   3.780   6.918 -0.5356 -0.4630 -0.3135
  131OSM    H2F14177   0.837   3.826   6.985 -0.9674  2.1733 -1.5180
  131OSM    H2G14178   0.679   3.851   6.940  0.8822  0.6255  1.9349
  131OSM    C3F14179   0.805   3.775   6.774  1.1725 -0.5109  0.7053
  131OSM    H3F14180   0.734   3.704   6.725  2.3565 -2.5790  1.8310
  131OSM    H3G14181   0.911   3.751   6.753  1.2021  0.3713 -0.2593
  131OSM    C4F14182   0.777   3.904   6.700  0.1276  0.0189 -1.0746
  131OSM    H4F14183   0.859   3.978   6.716  0.2290 -0.6770  2.3107
  131OSM    H4G14184   0.694   3.957   6.751 -0.1335 -0.5335 -0.9141
  131OSM    C5F14185   0.738   3.904   6.553  0.1387 -0.0958  0.6792
  131OSM    H5F14186   0.707   4.006   6.522  0.7181 -0.9384 -3.1823
  131OSM    H5G14187   0.655   3.832   6.535 -0.6279  0.8790  0.2155
  131OSM    C6F14188   0.863   3.875   6.471 -0.0207  0.0178 -0.7374
  131OSM    H6F14189   0.888   3.767   6.470 -2.4254 -0.5980 -0.6444
  131OSM    H6G14190   0.954   3.922   6.514 -0.5053 -1.5487  2.2005
  131OSM    C7F14191   0.845   3.902   6.318  0.2295  0.1178  0.0320
  131OSM    H7F14192   0.813   4.008   6.310 -0.8295 -0.2250 -0.3865
  131OSM    H7G14193   0.768   3.838   6.271  1.6306 -0.3378 -1.7350
  131OSM    C8F14194   0.980   3.882   6.237  0.5854  0.4959  1.0243
  131OSM    H8F14195   1.002   3.773   6.238 -1.2829  0.0287 -1.0958
  131OSM    H8G14196   1.063   3.942   6.280  1.8881  0.1657 -0.9070
  131OSM    C9F14197   0.960   3.922   6.092  0.5254 -0.3735 -0.4643
  131OSM    H9F14198   0.863   3.888   6.053  0.3919 -1.1908  0.5322
  131OSM   C10F14199   1.056   3.970   6.012 -0.4393  0.3133  0.3350
  131OSM   H10F14200   1.018   3.983   5.910  0.1535 -0.1574  0.0439
  131OSM   C11F14201   1.192   4.022   6.048 -0.5016 -0.6116 -0.5179
  131OSM   H11F14202   1.282   3.970   6.008  1.8119  2.0360  0.8968
  131OSM   H11G14203   1.202   4.035   6.158 -0.0263  0.6711 -0.6969
  131OSM   C12F14204   1.218   4.169   5.997  0.2098 -0.7354  0.4302
  131OSM   H12F14205   1.321   4.204   6.020 -0.3710  0.5404  1.1417
  131OSM   H12G14206   1.152   4.237   6.053  1.0100 -1.8086  2.8068
  131OSM   C13F14207   1.210   4.202   5.846 -0.2675 -0.0076  0.8943
  131OSM   H13F14208   1.104   4.193   5.813  0.0636 -0.3662 -0.1120
  131OSM   H13G14209   1.268   4.124   5.792 -2.4551 -1.1253  0.0452
  131OSM   C14F14210   1.274   4.341   5.814  0.0474  0.7661  0.2958
  131OSM   H14F14211   1.371   4.348   5.870 -1.2537  3.6699  2.4900
  131OSM   H14G14212   1.211   4.417   5.866 -0.5030  0.7773 -0.3893
  131OSM   C15F14213   1.290   4.372   5.664 -0.4291  0.4876  0.0549
  131OSM   H15F14214   1.361   4.300   5.618 -1.3017 -0.2546 -0.1537
  131OSM   H15G14215   1.331   4.474   5.645 -2.5089  0.5608 -7.0531
  131OSM   C16F14216   1.157   4.363   5.587 -0.0946  0.3367 -0.3057
  131OSM   H16F14217   1.096   4.441   5.637 -0.7255 -0.9535  0.9932
  131OSM   H16G14218   1.107   4.266   5.604 -0.2490  0.4053 -0.3658
  131OSM   C17F14219   1.166   4.403   5.439 -0.8424  0.3527  0.1585
  131OSM   H17F14220   1.216   4.325   5.379  4.2089  3.4334 -0.2449
  131OSM   H17G14221   1.228   4.495   5.436 -1.1206  0.5274 -0.7285
  131OSM   C18F14222   1.038   4.425   5.367 -0.0263 -0.7920  0.2010
  131OSM   H18F14223   0.965   4.342   5.381 -0.8413  0.1617  1.9610
  131OSM   H18G14224   1.058   4.438   5.259  0.6464 -0.5033  0.3590
  131OSM   H18H14225   0.987   4.520   5.395  1.7513  0.3559 -0.3476
  132OSM      N14226   6.843   0.307   7.954  0.3500 -0.0469 -1.0153
  132OSM    C1514227   6.970   0.285   8.029  0.1735 -0.0606 -0.4208
  132OSM   H15A14228   7.053   0.244   7.973 -1.3428 -1.0591 -2.0310
  132OSM   H15B14229   6.953   0.216   8.110  2.0237  0.9930  0.9600
  132OSM   H15C14230   7.006   0.379   8.067 -1.1050 -0.1966  1.2496
  132OSM    C1414231   6.740   0.361   8.052  0.1753  0.4249  0.0366
  132OSM   H14A14232   6.705   0.285   8.120  3.1771 -0.4183  0.7695
  132OSM   H14B14233   6.649   0.391   8.001 -0.7423 -4.1084 -1.3922
  132OSM   H14C14234   6.788   0.431   8.119 -1.2997  0.8163  0.7291
  132OSM    C1314235   6.885   0.412   7.852 -0.1362  0.3392 -0.6266
  132OSM   H13A14236   6.799   0.420   7.787 -1.3121 -1.5649  0.5902
  132OSM   H13B14237   6.962   0.385   7.781  1.1790  3.3973 -0.5111
  132OSM   H13C14238   6.920   0.506   7.891  0.6520  0.9506 -2.6537
  132OSM    C1214239   6.793   0.179   7.879  1.2009 -0.2346 -0.5744
  132OSM   H12A14240   6.759   0.118   7.962  1.1149  0.2709 -0.2362
  132OSM   H12B14241   6.881   0.135   7.834  2.6420  0.7610  1.1451
  132OSM    C1114242   6.671   0.193   7.778 -0.4296 -0.7760 -0.2418
  132OSM   H11A14243   6.655   0.091   7.737  0.3440 -0.9332 -0.1605
  132OSM   H11B14244   6.695   0.263   7.695 -1.8992 -0.9218 -0.8328
  132OSM      P14245   6.458   0.142   7.921  0.4926 -0.4100  0.0922
  132OSM    O1314246   6.537   0.038   7.983  0.2792  0.6547  0.5314
  132OSM    O1414247   6.363   0.222   8.003 -0.1693  0.1724  0.2850
  132OSM    O1114248   6.370   0.072   7.818  0.1703  0.0442 -0.2881
  132OSM    O1214249   6.551   0.239   7.839  0.0935 -0.0109 -0.7108
  132OSM    C1S14250   6.304   0.155   7.713 -0.4111  0.4151 -0.3709
  132OSM    H1S14251   6.324   0.264   7.707  0.0777  0.2733 -1.9619
  132OSM    H1T14252   6.194   0.156   7.730 -0.1250 -0.1746  1.8047
  132OSM     NF14253   6.306   0.202   7.478 -0.1325 -0.9385  0.2702
  132OSM    HNF14254   6.215   0.204   7.437  0.1733  3.1036 -0.6328
  132OSM    C2S14255   6.329   0.100   7.571 -0.6512  0.6239 -0.3661
  132OSM    H2S14256   6.439   0.083   7.561 -1.0585 -2.8971 -0.1016
  132OSM    C3S14257   6.263  -0.037   7.554 -0.4346  0.6012 -0.0114
  132OSM    H3S14258   6.153  -0.023   7.553 -0.3639  1.6214  1.7595
  132OSM     O314259   6.278  -0.120   7.667 -0.2599  0.2912 -0.2353
  132OSM    HO314260   6.306  -0.058   7.735  1.8362 -0.3350 -0.4555
  132OSM    C4S14261   6.318  -0.106   7.430  0.6183 -0.1240  0.4171
  132OSM    H4S14262   6.286  -0.053   7.339 -0.5068 -2.4088 -0.5827
  132OSM    C5S14263   6.398  -0.213   7.410  0.7277 -0.3242 -0.5944
  132OSM    H5S14264   6.439  -0.262   7.499  0.4791  0.8801  0.1900
  132OSM    C6S14265   6.453  -0.251   7.276 -0.6503  0.0068 -0.2216
  132OSM    H6S14266   6.429  -0.359   7.270 -0.7136 -0.1066  1.5065
  132OSM    H6T14267   6.562  -0.233   7.285 -0.6645 -0.2585  0.5179
  132OSM    C7S14268   6.387  -0.189   7.152 -0.3518 -0.2544  0.5297
  132OSM    H7S14269   6.407  -0.080   7.143  0.3510 -0.3056  1.3460
  132OSM    H7T14270   6.276  -0.199   7.156 -0.9525  2.4286 -3.3150
  132OSM    C8S14271   6.428  -0.255   7.025 -1.1323 -0.5272  0.8011
  132OSM    H8S14272   6.537  -0.275   7.024 -0.9928 -0.0694 -1.8454
  132OSM    H8T14273   6.403  -0.183   6.943  2.4240  1.3333  1.1501
  132OSM    C9S14274   6.355  -0.386   6.997 -0.4637 -0.5861  0.7435
  132OSM    H9S14275   6.245  -0.371   7.009 -0.6473  0.6790 -1.7453
  132OSM    H9T14276   6.392  -0.464   7.067  0.7482 -0.7068 -0.0146
  132OSM   C10S14277   6.380  -0.439   6.856 -0.0426  0.1236  0.1469
  132OSM   H10S14278   6.486  -0.472   6.851 -0.5558 -1.9119  1.3561
  132OSM   H10T14279   6.359  -0.358   6.783  0.9140 -0.6909 -1.0624
  132OSM   C11S14280   6.288  -0.554   6.818 -0.1026  0.2079 -0.0843
  132OSM   H11S14281   6.183  -0.517   6.821  0.5110  2.0526  0.1306
  132OSM   H11T14282   6.304  -0.636   6.891 -1.6585 -1.5748 -1.6505
  132OSM   C12S14283   6.327  -0.606   6.683  0.4857 -0.5913 -0.1171
  132OSM   H12S14284   6.438  -0.614   6.672  0.7950 -0.5955  2.3794
  132OSM   H12T14285   6.277  -0.537   6.613 -0.1274 -1.5540 -0.6514
  132OSM   C13S14286   6.269  -0.749   6.657 -0.1247 -0.2719  0.6270
  132OSM   H13S14287   6.165  -0.763   6.693 -0.0165 -3.1946  0.0174
  132OSM   H13T14288   6.333  -0.805   6.729 -0.4165 -1.8490 -0.3037
  132OSM   C14S14289   6.290  -0.794   6.515 -0.5009 -0.4708  0.0334
  132OSM   H14S14290   6.393  -0.759   6.492 -0.7457 -0.0945 -0.5315
  132OSM   H14T14291   6.221  -0.760   6.435  0.1145 -1.7694 -1.0963
  132OSM   C15S14292   6.302  -0.944   6.500 -0.0095 -0.5326 -0.6857
  132OSM   H15S14293   6.210  -0.990   6.542  0.5679 -1.4055 -0.3622
  132OSM   H15T14294   6.385  -0.975   6.567  0.6684  0.3525 -1.0962
  132OSM   C16S14295   6.317  -0.986   6.356 -0.6124  0.9439 -0.7109
  132OSM   H16S14296   6.396  -0.931   6.301  0.8694 -1.4364 -1.0898
  132OSM   H16T14297   6.223  -0.947   6.311 -1.1957 -1.1133 -1.4156
  132OSM   C17S14298   6.338  -1.133   6.330  0.1092  0.2943 -0.1259
  132OSM   H17S14299   6.254  -1.186   6.379  1.0542  0.3000  1.5736
  132OSM   H17T14300   6.434  -1.148   6.385  1.8466  1.3705 -2.6550
  132OSM   C18S14301   6.355  -1.183   6.190 -0.6404  0.7790  0.2231
  132OSM   H18S14302   6.387  -1.290   6.187  0.7947  1.1904  0.4221
  132OSM   H18T14303   6.423  -1.126   6.123 -2.9321  3.0960 -0.3188
  132OSM   H18U14304   6.258  -1.188   6.135 -0.5077 -1.3137  0.0915
  132OSM    C1F14305   6.388   0.303   7.468 -0.1675 -0.9646  0.3475
  132OSM     OF14306   6.506   0.300   7.499 -0.1089 -0.0787 -0.2954
  132OSM    C2F14307   6.333   0.415   7.383  0.5552 -0.1164 -0.6862
  132OSM    H2F14308   6.223   0.413   7.362  0.6802  1.9116 -1.8745
  132OSM    H2G14309   6.369   0.388   7.282 -0.3419 -1.9303 -0.5701
  132OSM    C3F14310   6.377   0.560   7.425 -0.2805 -0.9307 -0.1170
  132OSM    H3F14311   6.488   0.564   7.431 -0.2057 -1.0849 -1.2077
  132OSM    H3G14312   6.322   0.580   7.519 -2.2488 -1.4797 -1.0789
  132OSM    C4F14313   6.337   0.672   7.329 -0.6285 -0.5864  0.8505
  132OSM    H4F14314   6.383   0.761   7.376  0.2317 -0.5806  0.0271
  132OSM    H4G14315   6.227   0.682   7.329 -0.7134 -1.4112  0.8577
  132OSM    C5F14316   6.381   0.655   7.181  0.2945 -0.4311  0.2105
  132OSM    H5F14317   6.367   0.753   7.130  0.9764 -0.1477  0.5635
  132OSM    H5G14318   6.316   0.571   7.146 -1.2906  0.0306  1.8702
  132OSM    C6F14319   6.524   0.622   7.164  0.7810  0.2533 -0.1623
  132OSM    H6F14320   6.567   0.543   7.230  0.1906 -2.2257 -2.5672
  132OSM    H6G14321   6.572   0.713   7.204  1.2361 -0.1498  0.2267
  132OSM    C7F14322   6.556   0.576   7.023  0.4162 -0.7410  0.1604
  132OSM    H7F14323   6.518   0.472   7.031 -0.5796 -0.3768  0.2763
  132OSM    H7G14324   6.667   0.573   7.015  0.4146  0.9050 -0.8392
  132OSM    C8F14325   6.498   0.653   6.900  0.3870  0.3243 -0.1899
  132OSM    H8F14326   6.503   0.764   6.908 -0.4073  0.3505  0.0522
  132OSM    H8G14327   6.391   0.624   6.904  0.8606 -1.6800 -1.0014
  132OSM    C9F14328   6.559   0.615   6.771  0.0068 -0.1093 -0.2402
  132OSM    H9F14329   6.640   0.681   6.738  0.5391 -1.1113 -0.9870
  132OSM   C10F14330   6.536   0.505   6.700  1.1860  0.2552 -0.1238
  132OSM   H10F14331   6.590   0.482   6.607  1.5829 -0.8153  0.3548
  132OSM   C11F14332   6.434   0.393   6.733  0.1797  0.1352 -0.0951
  132OSM   H11F14333   6.343   0.426   6.787  0.3472 -0.6365  0.6860
  132OSM   H11G14334   6.479   0.307   6.787 -1.4052 -2.1536 -2.1897
  132OSM   C12F14335   6.376   0.331   6.605  0.4953  0.4658  0.0387
  132OSM   H12F14336   6.354   0.228   6.641  3.9715 -0.2768  0.3379
  132OSM   H12G14337   6.464   0.316   6.539  0.3862 -0.8890  0.1581
  132OSM   C13F14338   6.259   0.401   6.536 -0.7037  0.3938  0.4734
  132OSM   H13F14339   6.298   0.500   6.505  1.7342 -1.1595 -1.8283
  132OSM   H13G14340   6.168   0.410   6.599 -0.9948  0.0561  0.1050
  132OSM   C14F14341   6.222   0.316   6.414  0.1518  1.0113  0.6455
  132OSM   H14F14342   6.206   0.217   6.462  0.7888  1.7410  2.4513
  132OSM   H14G14343   6.309   0.306   6.346 -0.9508 -2.6209 -0.4560
  132OSM   C15F14344   6.088   0.352   6.354 -0.3034 -0.5228  0.0987
  132OSM   H15F14345   6.091   0.462   6.339  0.5868 -0.3647  1.2766
  132OSM   H15G14346   5.997   0.343   6.418 -0.8352  1.1651 -0.3765
  132OSM   C16F14347   6.040   0.276   6.234 -0.6606 -0.1721  0.1422
  132OSM   H16F14348   5.932   0.296   6.221 -1.1801 -2.2204  0.8581
  132OSM   H16G14349   6.043   0.167   6.255 -1.3813  0.1166  1.9011
  132OSM   C17F14350   6.118   0.298   6.098  0.0323 -0.5006 -0.5076
  132OSM   H17F14351   6.219   0.255   6.116  0.3135  0.9437  1.8695
  132OSM   H17G14352   6.130   0.407   6.079 -0.8914 -0.1880  0.5409
  132OSM   C18F14353   6.056   0.227   5.981  0.4939  0.5882 -0.0389
  132OSM   H18F14354   6.134   0.199   5.907  1.0620 -1.6907  1.3306
  132OSM   H18G14355   5.977   0.287   5.930 -0.1463 -0.6414 -0.5451
  132OSM   H18H14356   6.013   0.130   6.014 -0.0759  0.8397 -0.0354
  133OSM      N14357   5.814   1.891   8.142 -0.2713  0.0464 -0.6083
  133OSM    C1514358   5.918   1.857   8.249 -0.1921  0.8304  0.1345
  133OSM   H15A14359   5.923   1.750   8.266  1.5296  1.0106  0.9965
  133OSM   H15B14360   5.894   1.892   8.349  0.6566 -1.1041  1.0742
  133OSM   H15C14361   6.020   1.889   8.233  0.2433 -0.2496  0.6259
  133OSM    C1414362   5.846   1.809   8.017  0.1207  0.2352  0.4763
  133OSM   H14A14363   5.795   1.834   7.925 -1.0418  2.0118  1.5427
  133OSM   H14B14364   5.831   1.705   8.039 -1.0270  0.7888  2.5498
  133OSM   H14C14365   5.948   1.833   7.992 -0.3446  2.0496  0.1231
  133OSM    C1314366   5.681   1.841   8.194  0.4671  0.3808  0.3434
  133OSM   H13A14367   5.660   1.896   8.285  0.6426  1.2556 -0.1377
  133OSM   H13B14368   5.670   1.735   8.212  1.1163 -0.1476 -2.0971
  133OSM   H13C14369   5.601   1.871   8.129 -0.3769  0.9129  1.5877
  133OSM    C1214370   5.804   2.040   8.120  0.0075 -0.4595  0.3860
  133OSM   H12A14371   5.806   2.100   8.210 -1.2889  0.0601  0.0783
  133OSM   H12B14372   5.704   2.069   8.095 -0.6054 -2.0033  0.8954
  133OSM    C1114373   5.896   2.104   8.011 -0.7987  0.0013  0.3277
  133OSM   H11A14374   5.879   2.059   7.911  1.7452 -1.9152  0.6599
  133OSM   H11B14375   6.001   2.086   8.041 -1.2979 -2.2558  0.8649
  133OSM      P14376   5.733   2.307   7.960  0.3521 -0.1805  0.3608
  133OSM    O1314377   5.674   2.355   8.085 -0.6569 -0.5828  0.0059
  133OSM    O1414378   5.754   2.416   7.860  0.3755 -0.1902 -0.0393
  133OSM    O1114379   5.648   2.191   7.896 -0.2467  0.1115 -0.4499
  133OSM    O1214380   5.871   2.244   7.996 -0.0215  0.3359  0.3132
  133OSM    C1S14381   5.524   2.209   7.832 -0.3010  0.4539 -0.1103
  133OSM    H1S14382   5.477   2.309   7.843 -1.7899 -0.4244  2.2875
  133OSM    H1T14383   5.451   2.144   7.885 -1.6746  0.4795 -1.8684
  133OSM     NF14384   5.383   2.196   7.622 -0.6414  0.2527  0.2033
  133OSM    HNF14385   5.319   2.120   7.617 -0.2683  0.0143 -2.0051
  133OSM    C2S14386   5.513   2.160   7.681 -0.0165 -0.1847  0.2225
  133OSM    H2S14387   5.588   2.208   7.614 -1.2053  1.4898  0.0237
  133OSM    C3S14388   5.535   2.005   7.671  0.1756  0.0130  0.2658
  133OSM    H3S14389   5.435   1.967   7.700  0.0293  0.0113 -0.2249
  133OSM     O314390   5.626   1.946   7.767  0.4959  0.7475 -0.3055
  133OSM    HO314391   5.645   2.010   7.836  2.1810 -0.9795  0.9509
  133OSM    C4S14392   5.545   1.965   7.525  0.0124 -0.1491 -0.1236
  133OSM    H4S14393   5.456   1.920   7.479  0.5246 -1.2936 -0.0310
  133OSM    C5S14394   5.658   1.977   7.449 -0.1815 -1.0350  0.4841
  133OSM    H5S14395   5.744   2.029   7.492 -0.7067  0.6557 -0.3929
  133OSM    C6S14396   5.668   1.956   7.302  0.3910  0.0632 -0.5382
  133OSM    H6S14397   5.775   1.959   7.272  0.6872 -1.6330  0.2708
  133OSM    H6T14398   5.620   2.042   7.249 -0.3523 -0.2624 -0.4066
  133OSM    C7S14399   5.600   1.825   7.256 -0.2507  0.5488 -0.0791
  133OSM    H7S14400   5.490   1.823   7.276 -0.3249  0.5430 -0.4829
  133OSM    H7T14401   5.647   1.741   7.312 -1.3228 -1.4145 -1.9805
  133OSM    C8S14402   5.620   1.787   7.109  0.0009 -0.2994 -0.5826
  133OSM    H8S14403   5.601   1.679   7.091  0.2991 -0.2631 -1.1492
  133OSM    H8T14404   5.725   1.806   7.079  0.4615 -1.1944  0.3973
  133OSM    C9S14405   5.540   1.857   7.002 -0.3341  0.9855  0.1222
  133OSM    H9S14406   5.550   1.966   7.024 -0.0791  0.6472  1.8128
  133OSM    H9T14407   5.435   1.819   6.999  0.1005 -0.1729 -1.3379
  133OSM   C10S14408   5.600   1.841   6.861  0.8196  0.4507  0.1245
  133OSM   H10S14409   5.616   1.738   6.823 -0.1422  1.2510 -2.7035
  133OSM   H10T14410   5.700   1.888   6.861  0.1528  1.9205 -0.3760
  133OSM   C11S14411   5.523   1.906   6.744  0.7915 -0.5092 -0.2248
  133OSM   H11S14412   5.513   2.015   6.757  1.2422 -0.5230  0.2908
  133OSM   H11T14413   5.421   1.861   6.744  0.8957 -0.8160 -1.9380
  133OSM   C12S14414   5.578   1.872   6.604  0.4765  0.3259  0.6614
  133OSM   H12S14415   5.574   1.763   6.583  0.4665 -0.2210  3.2318
  133OSM   H12T14416   5.680   1.916   6.604  1.3447 -1.4951  2.3909
  133OSM   C13S14417   5.495   1.945   6.499 -0.4736  0.8764 -0.5007
  133OSM   H13S14418   5.498   2.052   6.527  2.3235  1.1638 -1.6065
  133OSM   H13T14419   5.392   1.909   6.521  0.8931 -2.0073  2.0056
  133OSM   C14S14420   5.548   1.913   6.367 -0.4465  0.3573 -0.4936
  133OSM   H14S14421   5.543   1.803   6.349  0.1333 -0.2101  2.3283
  133OSM   H14T14422   5.656   1.938   6.355  0.1033 -1.6504 -0.2101
  133OSM   C15S14423   5.480   1.988   6.248 -0.1430  0.1293 -0.1767
  133OSM   H15S14424   5.510   1.947   6.150  0.2470  1.1473 -0.4920
  133OSM   H15T14425   5.528   2.087   6.245 -1.6653  0.8706 -2.0201
  133OSM   C16S14426   5.328   2.009   6.247  0.6195  0.1156  0.3807
  133OSM   H16S14427   5.310   2.077   6.161  2.5628 -2.5762 -2.3402
  133OSM   H16T14428   5.296   2.066   6.337  0.2952  1.5679 -0.6185
  133OSM   C17S14429   5.261   1.874   6.233 -0.9003 -0.5164 -0.7654
  133OSM   H17S14430   5.296   1.804   6.311 -1.0826  0.1118 -0.1105
  133OSM   H17T14431   5.298   1.849   6.131 -1.1344  1.1097 -1.2799
  133OSM   C18S14432   5.108   1.870   6.240  0.5180 -0.2763  0.8659
  133OSM   H18S14433   5.083   1.770   6.199  0.6680 -0.2430  0.6922
  133OSM   H18T14434   5.058   1.949   6.179  0.8954 -1.1914 -0.6788
  133OSM   H18U14435   5.078   1.889   6.345  0.2634 -0.0508  0.7567
  133OSM    C1F14436   5.348   2.313   7.583 -0.5075 -0.0911  0.0733
  133OSM     OF14437   5.431   2.402   7.590 -0.3561  0.2400 -0.1780
  133OSM    C2F14438   5.212   2.335   7.541 -0.8757 -1.2468  0.6258
  133OSM    H2F14439   5.212   2.443   7.514  0.8146 -1.8289 -2.1607
  133OSM    H2G14440   5.147   2.318   7.630 -1.4666  3.9567  1.5134
  133OSM    C3F14441   5.150   2.266   7.418  0.1734  0.3894  0.3540
  133OSM    H3F14442   5.046   2.298   7.398 -0.1918 -0.5962  0.6074
  133OSM    H3G14443   5.133   2.158   7.437 -2.7658  1.0283  1.9463
  133OSM    C4F14444   5.240   2.279   7.291  0.0636  0.2163  0.7421
  133OSM    H4F14445   5.316   2.199   7.299 -0.0820  0.1148  1.1629
  133OSM    H4G14446   5.288   2.379   7.285  1.7176 -0.3875  2.6920
  133OSM    C5F14447   5.162   2.259   7.164  0.1324  0.5886 -0.3707
  133OSM    H5F14448   5.092   2.344   7.152  0.3215  0.9789  1.1436
  133OSM    H5G14449   5.113   2.160   7.177  1.5323  0.1034  1.8975
  133OSM    C6F14450   5.249   2.234   7.042 -0.2943 -0.3665 -0.4557
  133OSM    H6F14451   5.335   2.170   7.071 -1.1810 -1.8024 -0.8568
  133OSM    H6G14452   5.269   2.334   6.998 -2.6179  0.0160 -0.7886
  133OSM    C7F14453   5.177   2.152   6.932  0.0762  0.5433 -0.1873
  133OSM    H7F14454   5.139   2.054   6.966 -2.0320  1.2484 -0.3742
  133OSM    H7G14455   5.239   2.142   6.840  0.6103 -1.0881  0.3292
  133OSM    C8F14456   5.049   2.221   6.873  0.3335  0.4026 -0.6962
  133OSM    H8F14457   4.981   2.241   6.959 -2.3279 -1.1941 -2.2867
  133OSM    H8G14458   5.011   2.146   6.801 -1.4137  0.2510  0.3270
  133OSM    C9F14459   5.089   2.348   6.798  0.6861  0.4670 -0.3864
  133OSM    H9F14460   5.112   2.429   6.869  1.4908 -0.6398  0.6479
  133OSM   C10F14461   5.100   2.366   6.668 -0.1337  0.0361  0.3008
  133OSM   H10F14462   5.140   2.463   6.636  3.2091 -0.6793  1.8738
  133OSM   C11F14463   5.083   2.261   6.555 -0.5985 -0.0610 -0.5861
  133OSM   H11F14464   4.994   2.199   6.579 -0.1458 -0.9973 -1.2753
  133OSM   H11G14465   5.171   2.195   6.538 -0.3123  0.6409 -1.9870
  133OSM   C12F14466   5.041   2.309   6.411  0.2415  0.3835  0.1456
  133OSM   H12F14467   4.960   2.383   6.426 -0.9863 -0.5766 -1.4172
  133OSM   H12G14468   4.990   2.221   6.366  1.5761  0.3725 -1.4361
  133OSM   C13F14469   5.150   2.343   6.311  0.1852 -0.0458  0.0358
  133OSM   H13F14470   5.241   2.282   6.327  0.9955  0.4634 -2.2527
  133OSM   H13G14471   5.173   2.449   6.334  0.1181  0.0250 -0.2191
  133OSM   C14F14472   5.102   2.323   6.165 -0.1914 -0.4747 -0.2563
  133OSM   H14F14473   5.002   2.371   6.153  0.4670  1.2441  0.7827
  133OSM   H14G14474   5.093   2.216   6.135  1.1924 -1.4760  2.5473
  133OSM   C15F14475   5.196   2.393   6.074 -0.0353  0.3839 -0.4376
  133OSM   H15F14476   5.209   2.496   6.113 -2.2714  0.1871  1.0502
  133OSM   H15G14477   5.148   2.408   5.975 -2.7824  0.3955  0.7854
  133OSM   C16F14478   5.331   2.327   6.062  0.1693  0.1702 -0.2054
  133OSM   H16F14479   5.309   2.228   6.016 -2.4510  1.1313 -1.2236
  133OSM   H16G14480   5.368   2.313   6.166  0.1048 -0.5180 -0.2721
  133OSM   C17F14481   5.440   2.393   5.980 -0.8205  0.0122 -0.0075
  133OSM   H17F14482   5.536   2.366   6.030 -1.0090 -1.7517 -0.5433
  133OSM   H17G14483   5.429   2.503   5.992 -0.5621  0.0215  0.1624
  133OSM   C18F14484   5.442   2.365   5.831 -0.5600  0.0263 -0.4587
  133OSM   H18F14485   5.522   2.415   5.772 -0.5976  1.9281  1.0027
  133OSM   H18G14486   5.341   2.388   5.793 -0.6315  1.3259  0.4568
  133OSM   H18H14487   5.469   2.257   5.820  3.3059  0.7615  0.3420
  134OSM      N14488   6.935   6.210   8.042  0.4814  0.0376  0.7730
  134OSM    C1514489   6.839   6.104   7.982 -0.4707 -0.7342 -0.0118
  134OSM   H15A14490   6.849   6.010   8.035  0.3697 -0.6698 -0.0427
  134OSM   H15B14491   6.868   6.098   7.878 -0.8907  1.5348 -0.3116
  134OSM   H15C14492   6.734   6.132   7.988 -0.0243  1.4643 -1.3187
  134OSM    C1414493   6.930   6.193   8.192  0.1744 -0.1751 -0.0556
  134OSM   H14A14494   7.015   6.246   8.233  0.0530 -0.3364  0.4072
  134OSM   H14B14495   6.937   6.087   8.211  1.7184  0.1721  1.5467
  134OSM   H14C14496   6.838   6.228   8.235 -0.4102 -0.2707 -1.1729
  134OSM    C1314497   7.068   6.180   7.984 -0.0067  0.6530  0.6480
  134OSM   H13A14498   7.136   6.254   8.024 -0.5861  2.5785 -1.6983
  134OSM   H13B14499   7.066   6.195   7.878 -1.5311  1.5543  0.7894
  134OSM   H13C14500   7.093   6.076   8.001  1.2596  0.7425 -0.4654
  134OSM    C1214501   6.901   6.355   8.004 -0.1764  0.0476 -0.1196
  134OSM   H12A14502   6.981   6.413   8.048  1.9637 -1.1156 -2.2378
  134OSM   H12B14503   6.809   6.388   8.049 -0.3874  0.3443 -0.7580
  134OSM    C1114504   6.898   6.388   7.854 -0.8256 -0.0511  0.4223
  134OSM   H11A14505   6.999   6.375   7.809 -0.8525  0.9318  0.0441
  134OSM   H11B14506   6.880   6.498   7.854 -0.6461 -0.0041  1.8236
  134OSM      P14507   6.652   6.372   7.761 -0.0243 -0.2922  0.1519
  134OSM    O1314508   6.565   6.257   7.725 -0.1025  0.1159 -0.2243
  134OSM    O1414509   6.616   6.454   7.875  0.0761 -0.0497 -0.3163
  134OSM    O1114510   6.655   6.463   7.632  0.7368  0.3960 -0.5809
  134OSM    O1214511   6.808   6.317   7.774  0.0587  0.3502 -0.5167
  134OSM    C1S14512   6.761   6.463   7.536 -0.4783  0.2172 -0.1450
  134OSM    H1S14513   6.860   6.427   7.570 -0.6624 -1.0650 -0.9013
  134OSM    H1T14514   6.771   6.565   7.494 -1.4499  0.3269 -0.1462
  134OSM     NF14515   6.843   6.384   7.318 -0.5287 -0.6775  0.6096
  134OSM    HNF14516   6.832   6.428   7.229 -0.7427  1.9697  1.8226
  134OSM    C2S14517   6.729   6.385   7.401  0.8031 -0.7569  0.5194
  134OSM    H2S14518   6.708   6.280   7.431 -2.7475 -0.2823  0.1562
  134OSM    C3S14519   6.602   6.452   7.338  0.3703  0.0570  0.2074
  134OSM    H3S14520   6.629   6.558   7.323 -1.5526  0.5375 -0.1191
  134OSM     O314521   6.483   6.451   7.414  0.1558  0.0530 -0.5000
  134OSM    HO314522   6.516   6.438   7.503  1.9023  0.4171 -1.0450
  134OSM    C4S14523   6.569   6.402   7.201 -0.7423 -0.8863 -0.0213
  134OSM    H4S14524   6.602   6.465   7.117 -0.5107 -3.0154 -1.6219
  134OSM    C5S14525   6.531   6.285   7.157  0.8353  0.6659 -0.3356
  134OSM    H5S14526   6.511   6.202   7.226 -1.8330  0.4412 -1.2769
  134OSM    C6S14527   6.525   6.235   7.013  0.2591  0.2057 -0.0178
  134OSM    H6S14528   6.419   6.233   6.981  0.0262 -0.0171  0.7630
  134OSM    H6T14529   6.567   6.132   7.007  0.1208  0.1321  0.2900
  134OSM    C7S14530   6.603   6.309   6.907  0.1603  0.3540  0.2187
  134OSM    H7S14531   6.705   6.313   6.952  1.1266  0.6930 -1.8533
  134OSM    H7T14532   6.564   6.412   6.891  0.1909  0.1598 -1.3132
  134OSM    C8S14533   6.625   6.237   6.775  0.3434 -0.0973 -0.8270
  134OSM    H8S14534   6.528   6.242   6.723  0.5985  2.5856 -1.2013
  134OSM    H8T14535   6.659   6.133   6.794  1.3159  0.1873 -0.9296
  134OSM    C9S14536   6.729   6.295   6.689  0.2052 -0.4253 -0.1047
  134OSM    H9S14537   6.821   6.338   6.733 -0.9287  1.0194  0.9896
  134OSM    H9T14538   6.682   6.385   6.642  1.3172  0.3350  0.1860
  134OSM   C10S14539   6.778   6.203   6.576 -0.7815  0.0984 -0.8539
  134OSM   H10S14540   6.840   6.124   6.623 -1.7555 -2.3815 -3.4119
  134OSM   H10T14541   6.850   6.251   6.507  0.0171 -1.8045 -1.4299
  134OSM   C11S14542   6.676   6.133   6.494 -0.0517  0.3669 -0.3942
  134OSM   H11S14543   6.602   6.205   6.454 -1.5299 -0.5288  0.6226
  134OSM   H11T14544   6.629   6.052   6.554 -0.1285  0.4105 -0.3952
  134OSM   C12S14545   6.726   6.044   6.372  0.1398  0.0885  0.0947
  134OSM   H12S14546   6.650   5.966   6.350  0.6792 -0.0458 -1.4353
  134OSM   H12T14547   6.820   5.991   6.399  0.3051  0.8431  1.0778
  134OSM   C13S14548   6.755   6.141   6.256  0.1525  0.4983 -0.1314
  134OSM   H13S14549   6.802   6.236   6.290 -2.1170  0.5604  3.3198
  134OSM   H13T14550   6.653   6.170   6.224 -0.4600 -1.9462 -0.5389
  134OSM   C14S14551   6.819   6.071   6.126 -0.1847 -0.1538 -0.4862
  134OSM   H14S14552   6.746   5.992   6.098 -0.6341  0.2960 -0.5999
  134OSM   H14T14553   6.922   6.041   6.153 -0.3687  0.5137  1.0676
  134OSM   C15S14554   6.820   6.178   6.014  0.1202 -0.9954 -0.8469
  134OSM   H15S14555   6.871   6.270   6.049  1.5843 -1.4127 -1.7940
  134OSM   H15T14556   6.713   6.197   5.991 -0.0138 -1.0768 -0.3022
  134OSM   C16S14557   6.896   6.137   5.888 -0.3467  0.0439  0.2074
  134OSM   H16S14558   6.872   6.029   5.876  1.3382 -0.1030 -2.8175
  134OSM   H16T14559   7.003   6.128   5.915 -0.2803 -2.7690 -0.6034
  134OSM   C17S14560   6.878   6.218   5.760  0.0383 -0.1181 -0.1278
  134OSM   H17S14561   6.891   6.327   5.779 -2.3011  0.2781 -0.5217
  134OSM   H17T14562   6.772   6.202   5.732 -0.4572  0.3776  1.3539
  134OSM   C18S14563   6.972   6.175   5.645 -0.1527 -0.2556 -0.4591
  134OSM   H18S14564   6.938   6.227   5.552  1.4790  1.6923 -0.0381
  134OSM   H18T14565   6.968   6.065   5.634  2.4795 -0.1619 -4.7462
  134OSM   H18U14566   7.076   6.209   5.663  0.1749 -0.8404 -1.2255
  134OSM    C1F14567   6.953   6.318   7.339  0.7615  0.2523 -0.1271
  134OSM     OF14568   6.971   6.254   7.441  0.1513 -0.0414 -0.0899
  134OSM    C2F14569   7.059   6.318   7.228 -0.4767 -0.1730 -0.0418
  134OSM    H2F14570   7.160   6.351   7.260  0.3210 -0.9667 -1.6191
  134OSM    H2G14571   7.023   6.384   7.146  0.1644  0.4862  0.1934
  134OSM    C3F14572   7.087   6.172   7.183 -0.2575 -0.0749  0.3216
  134OSM    H3F14573   6.993   6.114   7.192 -2.2686  3.0758  1.3251
  134OSM    H3G14574   7.164   6.132   7.252  0.8153 -1.9693 -1.8174
  134OSM    C4F14575   7.149   6.152   7.040  0.7103 -0.0034 -1.0491
  134OSM    H4F14576   7.216   6.064   7.046 -0.7634 -1.0954  0.1779
  134OSM    H4G14577   7.203   6.249   7.030 -1.0825  1.3952  1.5655
  134OSM    C5F14578   7.055   6.127   6.925 -0.7149  0.0872  0.0480
  134OSM    H5F14579   6.977   6.206   6.919 -0.3487  0.3424 -1.7784
  134OSM    H5G14580   7.008   6.027   6.926  0.9711 -0.7722 -1.5348
  134OSM    C6F14581   7.135   6.135   6.794 -0.1160 -0.2298 -0.2596
  134OSM    H6F14582   7.216   6.211   6.797  1.8298 -2.1583 -1.2150
  134OSM    H6G14583   7.065   6.167   6.714  0.1180  1.6763  0.2416
  134OSM    C7F14584   7.201   5.996   6.757  0.0099 -0.2087  0.8290
  134OSM    H7F14585   7.127   5.914   6.770  1.8062 -1.8565  1.0437
  134OSM    H7G14586   7.288   5.992   6.826  0.6911 -1.7479 -0.0556
  134OSM    C8F14587   7.246   6.003   6.612  0.2243 -0.3628  1.0450
  134OSM    H8F14588   7.311   5.914   6.600  0.6270  0.2134 -1.7820
  134OSM    H8G14589   7.315   6.088   6.594  1.5522 -1.3380  1.3665
  134OSM    C9F14590   7.136   5.992   6.509 -1.0673 -0.0447  0.3025
  134OSM    H9F14591   7.041   5.985   6.565 -0.4293  0.5255  1.4841
  134OSM   C10F14592   7.139   5.984   6.372 -0.1169  0.5149 -0.6260
  134OSM   H10F14593   7.043   5.965   6.320 -0.6982 -1.2681  0.9516
  134OSM   C11F14594   7.258   5.991   6.277  0.3316 -0.3094 -1.0786
  134OSM   H11F14595   7.353   6.019   6.325  0.5002 -0.7223 -1.1704
  134OSM   H11G14596   7.241   6.068   6.198  3.2273  1.1576 -0.3855
  134OSM   C12F14597   7.282   5.858   6.201  0.1921  0.5589 -0.0149
  134OSM   H12F14598   7.188   5.828   6.150  1.3985 -0.0032 -2.0244
  134OSM   H12G14599   7.306   5.780   6.276 -0.5427  0.3990  0.0649
  134OSM   C13F14600   7.408   5.877   6.108  0.4455  0.1501  0.0342
  134OSM   H13F14601   7.502   5.884   6.166  1.6378  1.0892 -1.9144
  134OSM   H13G14602   7.395   5.981   6.072 -1.0367 -0.3458 -1.0177
  134OSM   C14F14603   7.408   5.762   6.008 -0.3841 -0.5438 -0.2392
  134OSM   H14F14604   7.311   5.758   5.955 -1.2812 -2.4554  1.4285
  134OSM   H14G14605   7.414   5.669   6.068 -1.3153 -0.0955  0.5675
  134OSM   C15F14606   7.519   5.775   5.906  0.7699 -0.1723  0.1052
  134OSM   H15F14607   7.616   5.787   5.958 -0.0289  2.0798  1.2044
  134OSM   H15G14608   7.493   5.864   5.845 -0.1199 -1.8648 -2.1410
  134OSM   C16F14609   7.533   5.661   5.800 -0.2432 -0.2711  0.0310
  134OSM   H16F14610   7.431   5.624   5.774  0.3403 -1.3448 -0.7764
  134OSM   H16G14611   7.581   5.578   5.855  0.3801  0.4772  0.6368
  134OSM   C17F14612   7.618   5.700   5.680 -0.8135 -0.2271 -0.1932
  134OSM   H17F14613   7.723   5.714   5.712 -0.7292 -0.0736 -0.5366
  134OSM   H17G14614   7.591   5.799   5.637  1.4465  0.9261  0.8871
  134OSM   C18F14615   7.596   5.594   5.568 -1.0621  0.6785  0.3424
  134OSM   H18F14616   7.502   5.609   5.510  0.3207  0.1780 -2.2244
  134OSM   H18G14617   7.596   5.491   5.611  0.8013  0.8438  0.8181
  134OSM   H18H14618   7.674   5.607   5.489  0.9984 -1.9265  1.7545
  135OSM      N14619   5.763   6.275   8.021 -1.1823  0.0858 -0.4766
  135OSM    C1514620   5.864   6.170   8.018 -0.1857  0.0523 -0.6433
  135OSM   H15A14621   5.822   6.082   8.063  2.8621 -1.2062  0.0050
  135OSM   H15B14622   5.954   6.180   8.076 -1.4905 -2.1801  1.9667
  135OSM   H15C14623   5.891   6.146   7.916 -0.7524 -0.0441 -0.7761
  135OSM    C1414624   5.744   6.313   8.160  0.8731 -0.0651 -0.0333
  135OSM   H14A14625   5.700   6.235   8.221 -1.5744  1.0973 -0.2114
  135OSM   H14B14626   5.664   6.385   8.172  1.4918  0.3692  1.7416
  135OSM   H14C14627   5.836   6.351   8.201  1.0728 -1.8549  1.2721
  135OSM    C1314628   5.821   6.391   7.940 -0.2349 -0.0464 -0.4606
  135OSM   H13A14629   5.753   6.475   7.944 -0.6851 -0.4203 -0.2758
  135OSM   H13B14630   5.815   6.361   7.837 -0.3670 -1.3488 -0.0854
  135OSM   H13C14631   5.915   6.429   7.978 -0.3984 -0.3937  0.3123
  135OSM    C1214632   5.633   6.226   7.963  0.1049 -0.8759  0.1930
  135OSM   H12A14633   5.545   6.284   7.986  0.2275 -1.7081  3.2051
  135OSM   H12B14634   5.610   6.131   8.011  0.4890 -1.7175 -1.2243
  135OSM    C1114635   5.633   6.175   7.816  0.2605  0.1740  0.2835
  135OSM   H11A14636   5.673   6.256   7.753 -0.3119 -0.6324 -1.1611
  135OSM   H11B14637   5.527   6.173   7.781  0.4255  0.3928 -0.2371
  135OSM      P14638   5.614   5.924   7.820  0.4171 -0.0457  0.2074
  135OSM    O1314639   5.706   5.811   7.817 -0.3054 -0.4712  0.1402
  135OSM    O1414640   5.548   5.940   7.949  0.0406 -0.5293  0.1843
  135OSM    O1114641   5.503   5.896   7.702 -0.5073 -0.6885 -0.5641
  135OSM    O1214642   5.697   6.051   7.795 -0.4091  0.5043 -0.0943
  135OSM    C1S14643   5.546   5.944   7.569  1.1298 -0.0763 -0.4139
  135OSM    H1S14644   5.619   5.874   7.523 -0.4291 -0.8387 -1.8246
  135OSM    H1T14645   5.608   6.036   7.567 -0.2344  0.8315 -2.1485
  135OSM     NF14646   5.467   5.982   7.331  0.1252 -0.1358  0.7139
  135OSM    HNF14647   5.428   6.063   7.290 -2.9583 -1.1636  1.3598
  135OSM    C2S14648   5.427   5.961   7.471  0.4409  0.5006  0.4507
  135OSM    H2S14649   5.373   5.865   7.467 -0.1299  0.6946  2.4175
  135OSM    C3S14650   5.327   6.070   7.522 -0.0072  0.1203  0.0436
  135OSM    H3S14651   5.381   6.166   7.513  0.6056 -0.2824 -0.6490
  135OSM     O314652   5.308   6.063   7.661  0.7900 -0.0841 -0.1121
  135OSM    HO314653   5.361   5.989   7.690  0.3585 -0.3905 -0.0887
  135OSM    C4S14654   5.200   6.078   7.451 -0.6855 -1.0661 -1.1112
  135OSM    H4S14655   5.118   6.018   7.494  1.1911 -2.2770  1.0353
  135OSM    C5S14656   5.177   6.173   7.355 -0.3776  0.5205  0.4041
  135OSM    H5S14657   5.259   6.243   7.329  0.9612 -0.5664  1.5231
  135OSM    C6S14658   5.051   6.201   7.282 -0.8422  0.3044 -0.2648
  135OSM    H6S14659   5.034   6.311   7.291  0.7753  0.4959  0.7950
  135OSM    H6T14660   4.969   6.145   7.332  1.2821 -0.5034  2.5570
  135OSM    C7S14661   5.055   6.138   7.145  0.4305  0.0899  0.1338
  135OSM    H7S14662   4.957   6.161   7.097  0.2045 -0.6884  0.2192
  135OSM    H7T14663   5.062   6.029   7.165 -1.6364 -0.2325 -0.6462
  135OSM    C8S14664   5.162   6.177   7.046  0.5069  0.4132  1.0040
  135OSM    H8S14665   5.261   6.159   7.095  0.7002  0.3543  0.5979
  135OSM    H8T14666   5.154   6.287   7.033 -1.0920  0.4374  2.0580
  135OSM    C9S14667   5.177   6.109   6.910  0.5589  0.7491 -0.6865
  135OSM    H9S14668   5.181   5.998   6.910 -1.7841  0.5020 -3.7374
  135OSM    H9T14669   5.277   6.145   6.877 -0.0553  1.5605 -1.7441
  135OSM   C10S14670   5.065   6.155   6.817 -0.2864 -0.3935 -0.7062
  135OSM   H10S14671   5.068   6.266   6.825 -0.0450 -0.3843 -0.9102
  135OSM   H10T14672   4.970   6.119   6.862 -0.0778 -0.8892 -0.6621
  135OSM   C11S14673   5.078   6.104   6.669 -0.6551 -0.1042  0.0287
  135OSM   H11S14674   5.090   5.995   6.682 -0.8469 -0.3143 -1.3786
  135OSM   H11T14675   5.173   6.137   6.622 -1.0229 -0.4875 -0.9998
  135OSM   C12S14676   4.968   6.139   6.576  0.5469  0.1852 -0.1239
  135OSM   H12S14677   4.954   6.249   6.580  2.6404  0.4873  0.2456
  135OSM   H12T14678   4.873   6.096   6.613 -0.3418  3.2326  1.4985
  135OSM   C13S14679   4.987   6.103   6.430  0.1892  0.3898 -0.0989
  135OSM   H13S14680   5.030   6.000   6.421  0.6182  0.6140 -0.6449
  135OSM   H13T14681   5.064   6.167   6.382  0.1409  0.9535  0.5596
  135OSM   C14S14682   4.860   6.104   6.346 -0.0229 -0.1409 -0.0038
  135OSM   H14S14683   4.813   6.204   6.355  1.4089  0.4793  1.0413
  135OSM   H14T14684   4.775   6.036   6.370 -0.6602  0.7392  0.2976
  135OSM   C15S14685   4.896   6.072   6.194 -0.2761  0.1041  0.1560
  135OSM   H15S14686   4.945   5.973   6.186 -2.4919 -0.9426 -1.7807
  135OSM   H15T14687   4.958   6.155   6.155  1.8517  0.3767  3.6289
  135OSM   C16S14688   4.772   6.057   6.109  0.1523  0.1830  0.9026
  135OSM   H16S14689   4.714   6.151   6.096 -0.4942 -0.2663  0.4895
  135OSM   H16T14690   4.694   5.990   6.151 -2.1198  3.1561  1.7864
  135OSM   C17S14691   4.809   6.005   5.962  0.8933 -0.3387 -0.2101
  135OSM   H17S14692   4.874   5.915   5.966 -0.0167 -1.0529 -0.9993
  135OSM   H17T14693   4.870   6.086   5.917 -0.8191  0.3263 -1.4610
  135OSM   C18S14694   4.682   5.982   5.877 -0.1951  0.1771 -0.3285
  135OSM   H18S14695   4.720   5.989   5.773  0.0701  1.2222 -0.1683
  135OSM   H18T14696   4.606   6.062   5.894 -0.9503  0.0661 -2.8279
  135OSM   H18U14697   4.641   5.884   5.909 -1.3674  1.5825  2.9465
  135OSM    C1F14698   5.535   5.888   7.263 -0.4588  0.6072  0.2733
  135OSM     OF14699   5.566   5.783   7.310  0.2746 -0.1811  0.2764
  135OSM    C2F14700   5.581   5.915   7.130  0.3836  0.2036  0.7405
  135OSM    H2F14701   5.672   5.856   7.106 -0.9002 -0.4051 -3.3292
  135OSM    H2G14702   5.612   6.022   7.127  1.2379 -0.0104  1.3718
  135OSM    C3F14703   5.478   5.886   7.027  0.1059 -0.1722  0.8361
  135OSM    H3F14704   5.389   5.950   7.047 -1.1143 -0.5515 -2.6955
  135OSM    H3G14705   5.434   5.784   7.031 -1.3528  0.3772 -0.1371
  135OSM    C4F14706   5.523   5.909   6.880 -0.5900 -0.3618 -0.6198
  135OSM    H4F14707   5.562   6.013   6.872 -0.5303 -0.4061 -0.8958
  135OSM    H4G14708   5.605   5.840   6.854 -0.4566  0.3581 -2.2407
  135OSM    C5F14709   5.408   5.881   6.779 -0.6834  0.3041  0.2332
  135OSM    H5F14710   5.325   5.955   6.788  0.0141  1.1261  0.0263
  135OSM    H5G14711   5.357   5.785   6.801  0.8425 -1.2437 -2.4366
  135OSM    C6F14712   5.455   5.851   6.633  0.4154 -0.7187  0.2917
  135OSM    H6F14713   5.516   5.759   6.645 -0.4276 -1.6873 -2.2763
  135OSM    H6G14714   5.504   5.946   6.604 -1.3523 -0.1797 -1.1457
  135OSM    C7F14715   5.336   5.832   6.544  0.2871 -0.6235  0.3282
  135OSM    H7F14716   5.269   5.919   6.556  1.1492  1.0063 -4.3315
  135OSM    H7G14717   5.290   5.741   6.587  0.8099 -0.7652  0.5940
  135OSM    C8F14718   5.373   5.809   6.395  0.0127 -1.0155 -0.1835
  135OSM    H8F14719   5.413   5.906   6.358 -2.2322 -0.2029 -0.6723
  135OSM    H8G14720   5.286   5.791   6.328 -0.7925 -0.2351  0.6060
  135OSM    C9F14721   5.472   5.703   6.376  0.4452 -0.2671  0.0792
  135OSM    H9F14722   5.483   5.631   6.459  0.6903  0.7893  0.9837
  135OSM   C10F14723   5.552   5.695   6.264 -0.3428  0.1867  0.0438
  135OSM   H10F14724   5.609   5.602   6.250 -2.3431 -0.7865 -2.5830
  135OSM   C11F14725   5.554   5.790   6.148  0.4042 -0.0278 -0.6942
  135OSM   H11F14726   5.645   5.854   6.140  2.1237 -2.5295 -2.9927
  135OSM   H11G14727   5.464   5.855   6.153  0.2384 -0.2592 -0.6614
  135OSM   C12F14728   5.557   5.715   6.019  0.1210 -0.8227 -0.0468
  135OSM   H12F14729   5.633   5.635   6.030  0.2388 -0.6356  0.5225
  135OSM   H12G14730   5.573   5.783   5.933 -0.6249  1.0052  1.1933
  135OSM   C13F14731   5.426   5.644   5.990 -0.1369  0.7424  0.5495
  135OSM   H13F14732   5.349   5.724   5.991 -0.7232  0.1930 -0.0442
  135OSM   H13G14733   5.403   5.576   6.075 -2.6006 -1.6365 -1.8760
  135OSM   C14F14734   5.425   5.574   5.849 -0.1795  0.4024  0.0270
  135OSM   H14F14735   5.423   5.656   5.774  1.1540  0.9008  0.5091
  135OSM   H14G14736   5.324   5.528   5.842 -1.3414  2.9343 -0.9231
  135OSM   C15F14737   5.532   5.477   5.825 -0.3814  0.1268 -0.2128
  135OSM   H15F14738   5.537   5.413   5.916 -0.3170  1.4492  0.7277
  135OSM   H15G14739   5.629   5.530   5.815  0.1881 -0.6977  0.7567
  135OSM   C16F14740   5.515   5.387   5.704  0.1156  0.2567  0.2970
  135OSM   H16F14741   5.422   5.326   5.710 -0.1556  0.6823  0.4158
  135OSM   H16G14742   5.587   5.302   5.711 -1.7315 -1.4386 -0.3443
  135OSM   C17F14743   5.541   5.462   5.578 -0.6157  0.0024 -0.6518
  135OSM   H17F14744   5.626   5.534   5.585 -0.1535 -0.4517 -1.4613
  135OSM   H17G14745   5.455   5.530   5.557 -0.4975  0.7412  1.1019
  135OSM   C18F14746   5.564   5.372   5.460  0.1216  0.5225 -0.4272
  135OSM   H18F14747   5.591   5.430   5.369  1.2580 -2.4252 -2.1294
  135OSM   H18G14748   5.471   5.318   5.433 -0.2528  0.4144  0.9871
  135OSM   H18H14749   5.643   5.295   5.474  0.0241  0.7411  1.6094
  136OSM      N14750   3.076   6.307   7.852  0.0529  0.3785 -0.5798
  136OSM    C1514751   3.210   6.238   7.857 -0.1526  0.2236  0.4938
  136OSM   H15A14752   3.239   6.223   7.960  0.5255 -1.7924  0.0440
  136OSM   H15B14753   3.285   6.304   7.815  0.1620 -1.2744 -1.4297
  136OSM   H15C14754   3.216   6.149   7.796 -2.6861  1.1595 -1.2690
  136OSM    C1414755   2.965   6.215   7.915  0.0252  0.1097 -0.1098
  136OSM   H14A14756   2.965   6.114   7.875 -2.7016  0.6040 -1.6123
  136OSM   H14B14757   2.866   6.257   7.903 -1.7363 -3.0227  1.8276
  136OSM   H14C14758   2.994   6.200   8.018 -0.5159 -0.2847 -0.0036
  136OSM    C1314759   3.084   6.433   7.933  0.1647 -0.4322 -0.0037
  136OSM   H13A14760   3.108   6.402   8.034 -1.5816  0.3509  0.6838
  136OSM   H13B14761   2.986   6.479   7.927 -0.5968 -1.8644  0.8158
  136OSM   H13C14762   3.166   6.500   7.913 -0.9904  2.5823  3.9896
  136OSM    C1214763   3.048   6.333   7.708 -0.3503 -0.0423  0.0938
  136OSM   H12A14764   3.067   6.241   7.653 -0.5103 -0.9033  1.4419
  136OSM   H12B14765   3.130   6.393   7.672 -0.0996  0.3674  1.2994
  136OSM    C1114766   2.908   6.385   7.674 -0.1449 -0.5797 -1.0318
  136OSM   H11A14767   2.895   6.474   7.738 -0.1538 -0.6932 -0.8761
  136OSM   H11B14768   2.833   6.319   7.721 -1.2137  0.8683 -0.6382
  136OSM      P14769   2.834   6.298   7.452 -0.2991 -0.1779 -0.2531
  136OSM    O1314770   2.936   6.188   7.440 -0.6232  0.2843 -0.2167
  136OSM    O1414771   2.695   6.266   7.495  0.5312  0.9446 -0.6228
  136OSM    O1114772   2.831   6.375   7.317  0.0518 -0.1094  0.4299
  136OSM    O1214773   2.899   6.415   7.537  0.3808  0.2852  0.4002
  136OSM    C1S14774   2.951   6.425   7.254  0.7908  0.7667 -0.9476
  136OSM    H1S14775   3.032   6.353   7.276 -1.7714 -1.2973  3.0096
  136OSM    H1T14776   2.991   6.517   7.301  0.0802 -0.4081  2.2315
  136OSM     NF14777   3.028   6.418   7.013 -0.0022 -0.2776 -0.0964
  136OSM    HNF14778   3.055   6.496   6.957  3.4709 -0.2789  1.3156
  136OSM    C2S14779   2.919   6.453   7.108  0.4907  0.5698 -0.2062
  136OSM    H2S14780   2.845   6.380   7.070 -0.1586  0.9116  0.3821
  136OSM    C3S14781   2.852   6.590   7.080 -0.4632  0.6198 -0.0271
  136OSM    H3S14782   2.938   6.659   7.094  2.2729 -2.3463 -0.8400
  136OSM     O314783   2.749   6.627   7.172 -0.0949 -0.0859  0.3903
  136OSM    HO314784   2.716   6.549   7.217  2.0859 -0.5915  1.2226
  136OSM    C4S14785   2.801   6.609   6.937  0.0808 -0.5404 -0.1331
  136OSM    H4S14786   2.884   6.645   6.874 -0.6395 -0.0210 -0.8112
  136OSM    C5S14787   2.677   6.598   6.886  0.8171  1.0134 -0.3528
  136OSM    H5S14788   2.588   6.585   6.949  0.5238 -0.6642 -1.0793
  136OSM    C6S14789   2.640   6.636   6.742  0.2718  0.3010  0.2594
  136OSM    H6S14790   2.536   6.600   6.727 -0.3872  1.7951  1.0185
  136OSM    H6T14791   2.696   6.572   6.670 -1.1127  0.5010 -1.0386
  136OSM    C7S14792   2.641   6.779   6.705 -0.6342  0.7486 -0.1770
  136OSM    H7S14793   2.744   6.820   6.703 -0.8558  1.3917  0.8747
  136OSM    H7T14794   2.581   6.837   6.778  1.3828  0.4515  1.8322
  136OSM    C8S14795   2.584   6.798   6.568  0.5144  0.4058  0.8801
  136OSM    H8S14796   2.473   6.797   6.570  0.4907  1.9259  1.3314
  136OSM    H8T14797   2.603   6.710   6.503 -1.0959  1.2865 -0.8832
  136OSM    C9S14798   2.637   6.921   6.497 -0.3433 -0.6261 -0.7356
  136OSM    H9S14799   2.747   6.907   6.506 -0.4459 -0.3182  1.8298
  136OSM    H9T14800   2.606   7.016   6.545 -1.2045 -1.2700  0.0111
  136OSM   C10S14801   2.592   6.918   6.351 -0.4375 -0.1875  0.3374
  136OSM   H10S14802   2.492   6.967   6.344 -0.1253  0.3334 -0.7647
  136OSM   H10T14803   2.582   6.811   6.326  0.1755 -1.1090  3.5954
  136OSM   C11S14804   2.688   6.998   6.264  0.8495 -0.0461  0.2674
  136OSM   H11S14805   2.792   6.961   6.282  0.2567 -2.0144 -0.0800
  136OSM   H11T14806   2.683   7.105   6.294 -2.3607  0.3215 -1.1432
  136OSM   C12S14807   2.653   6.991   6.111  0.5810  0.0439 -0.1363
  136OSM   H12S14808   2.619   6.888   6.084 -1.4811  0.5263  0.4219
  136OSM   H12T14809   2.742   7.020   6.052  0.5848 -1.8060 -1.1421
  136OSM   C13S14810   2.538   7.085   6.079 -0.6266 -0.4208  0.2368
  136OSM   H13S14811   2.552   7.192   6.105 -0.0310  0.1909 -2.2729
  136OSM   H13T14812   2.449   7.049   6.135 -0.9160  0.7088  0.5288
  136OSM   C14S14813   2.508   7.082   5.928  0.2031 -0.8413 -0.8500
  136OSM   H14S14814   2.423   7.153   5.916 -0.6564 -1.2113  2.2031
  136OSM   H14T14815   2.489   6.979   5.889  2.3714 -1.2248 -1.0143
  136OSM   C15S14816   2.625   7.142   5.855 -0.4455  0.4380 -0.0075
  136OSM   H15S14817   2.724   7.093   5.871  0.6529  1.9544 -1.6951
  136OSM   H15T14818   2.652   7.240   5.901  2.1039 -0.0798 -0.2206
  136OSM   C16S14819   2.605   7.161   5.703  0.5523  0.6437  0.2637
  136OSM   H16S14820   2.551   7.256   5.682 -0.7224  0.0908  0.9350
  136OSM   H16T14821   2.538   7.083   5.660  1.5495  1.0084 -2.1705
  136OSM   C17S14822   2.741   7.170   5.627  0.2194  0.4877  0.4011
  136OSM   H17S14823   2.786   7.071   5.650  0.6550  1.1182  2.5091
  136OSM   H17T14824   2.804   7.251   5.668  0.3140  1.1102 -0.9153
  136OSM   C18S14825   2.737   7.183   5.473 -0.0031  0.3873  0.4738
  136OSM   H18S14826   2.831   7.156   5.420 -0.8531 -0.9403 -0.4344
  136OSM   H18T14827   2.699   7.275   5.424  2.4902  0.8983 -0.6847
  136OSM   H18U14828   2.672   7.105   5.427 -0.1787  0.7376  0.1138
  136OSM    C1F14829   3.088   6.300   6.994  0.0838 -0.1581  0.1549
  136OSM     OF14830   3.042   6.196   7.036  0.2644  0.1168 -0.2036
  136OSM    C2F14831   3.210   6.305   6.907  0.1774  0.5265  0.1474
  136OSM    H2F14832   3.271   6.223   6.950  0.2942  1.7706  2.4911
  136OSM    H2G14833   3.266   6.397   6.935  0.5041 -0.0369  1.3825
  136OSM    C3F14834   3.183   6.281   6.759 -0.2515 -0.3295  0.2656
  136OSM    H3F14835   3.104   6.207   6.731  0.5124 -0.7066 -0.9620
  136OSM    H3G14836   3.279   6.240   6.722  0.3734 -0.0137  1.4937
  136OSM    C4F14837   3.138   6.414   6.688  0.6195 -0.0049 -0.1013
  136OSM    H4F14838   3.032   6.436   6.713  0.4558 -1.0113  0.1054
  136OSM    H4G14839   3.137   6.387   6.580  1.6847  0.5648 -0.2703
  136OSM    C5F14840   3.226   6.540   6.704 -0.3426 -0.3747  0.3601
  136OSM    H5F14841   3.329   6.503   6.687 -1.6495 -4.0267 -0.4951
  136OSM    H5G14842   3.213   6.573   6.809  2.4334 -0.7030  0.8694
  136OSM    C6F14843   3.201   6.659   6.610 -0.3462  1.0603  0.2051
  136OSM    H6F14844   3.104   6.710   6.631 -1.2245  0.3659 -1.9251
  136OSM    H6G14845   3.188   6.622   6.506 -2.5211  0.9849  0.4413
  136OSM    C7F14846   3.313   6.761   6.615 -0.1662 -0.1101 -1.0845
  136OSM    H7F14847   3.341   6.779   6.721 -1.5796  0.6168 -0.8164
  136OSM    H7G14848   3.276   6.859   6.580  1.4633  1.7399  2.0198
  136OSM    C8F14849   3.446   6.732   6.531  0.4955 -0.6385  0.6094
  136OSM    H8F14850   3.496   6.831   6.526 -0.6445 -0.0258  1.0181
  136OSM    H8G14851   3.416   6.695   6.431 -2.3255  0.5472  0.9024
  136OSM    C9F14852   3.549   6.640   6.591 -0.1264 -0.2076  0.1488
  136OSM    H9F14853   3.588   6.684   6.683 -0.6308  0.7465 -0.0856
  136OSM   C10F14854   3.604   6.532   6.557  0.2340 -0.4667  0.1638
  136OSM   H10F14855   3.682   6.486   6.620 -0.6854  0.2084  1.8323
  136OSM   C11F14856   3.567   6.447   6.440  0.8169  0.5912  0.2009
  136OSM   H11F14857   3.656   6.387   6.411 -0.1213 -0.8314  0.2265
  136OSM   H11G14858   3.545   6.508   6.349  1.1697 -2.6068 -2.1788
  136OSM   C12F14859   3.434   6.367   6.458  0.0314  0.3160  0.2969
  136OSM   H12F14860   3.351   6.433   6.491 -0.4127 -0.2270  0.2776
  136OSM   H12G14861   3.443   6.290   6.538  2.1720 -0.1143 -0.2872
  136OSM   C13F14862   3.389   6.296   6.326  0.5036  0.0533 -0.1076
  136OSM   H13F14863   3.459   6.220   6.284  3.2022  2.4837 -0.2808
  136OSM   H13G14864   3.379   6.373   6.247 -0.1204  0.2552  0.1644
  136OSM   C14F14865   3.244   6.244   6.344 -0.2182  0.3997 -0.7394
  136OSM   H14F14866   3.186   6.332   6.378  2.8618  2.3137 -0.0330
  136OSM   H14G14867   3.230   6.165   6.421 -0.1955  0.7381 -0.3828
  136OSM   C15F14868   3.198   6.200   6.213 -0.0425 -0.2032  0.8455
  136OSM   H15F14869   3.269   6.135   6.158  1.1714  1.0251  0.9147
  136OSM   H15G14870   3.187   6.290   6.150 -0.0041 -0.6504  0.1923
  136OSM   C16F14871   3.059   6.137   6.226 -0.1890  0.0548  0.2651
  136OSM   H16F14872   2.990   6.218   6.258 -0.7554  0.3163 -1.5334
  136OSM   H16G14873   3.057   6.060   6.306 -0.1903  0.2057  0.4140
  136OSM   C17F14874   3.010   6.088   6.093  0.4765 -0.3447  0.5322
  136OSM   H17F14875   3.063   6.004   6.044  0.6888  0.7818 -1.2728
  136OSM   H17G14876   3.031   6.177   6.028  2.0639 -0.7640  0.4364
  136OSM   C18F14877   2.855   6.089   6.072  0.0541  0.3621  0.1929
  136OSM   H18F14878   2.836   6.048   5.971 -1.7160 -1.3893  1.1707
  136OSM   H18G14879   2.814   6.192   6.062 -1.2269 -0.3329 -3.2039
  136OSM   H18H14880   2.800   6.036   6.153 -0.8302 -0.5189 -0.9394
  137OSM      N14881   4.639   4.061   7.694 -0.7308  0.2591 -0.2062
  137OSM    C1514882   4.523   4.141   7.745 -0.5578  0.5018  0.1557
  137OSM   H15A14883   4.535   4.246   7.726  0.4978  0.0617 -1.8860
  137OSM   H15B14884   4.515   4.129   7.852 -3.9004  1.1511  0.0725
  137OSM   H15C14885   4.430   4.115   7.696  1.9016 -0.6758 -4.5009
  137OSM    C1414886   4.596   3.919   7.719 -0.6424  0.7942  0.0209
  137OSM   H14A14887   4.666   3.852   7.671 -0.2941 -1.4717  3.3755
  137OSM   H14B14888   4.496   3.903   7.681 -0.2743 -2.0703  0.0459
  137OSM   H14C14889   4.585   3.894   7.823 -1.7927  2.1706  0.2671
  137OSM    C1314890   4.654   4.079   7.545 -0.1850  0.3723  0.0688
  137OSM   H13A14891   4.728   4.010   7.507  1.7774  1.8180  1.0895
  137OSM   H13B14892   4.697   4.176   7.526 -0.8794  1.0245  1.6565
  137OSM   H13C14893   4.562   4.067   7.490  0.7546 -0.3192 -1.4165
  137OSM    C1214894   4.770   4.096   7.763 -0.3274 -0.0617 -0.0072
  137OSM   H12A14895   4.836   4.056   7.688  0.5785  1.2062  0.1020
  137OSM   H12B14896   4.779   4.035   7.852 -1.5714  0.5443  0.5625
  137OSM    C1114897   4.792   4.251   7.788  0.7173  0.0789  0.5180
  137OSM   H11A14898   4.750   4.296   7.695 -2.8368 -2.0402  0.8867
  137OSM   H11B14899   4.901   4.266   7.804  0.8617 -1.8001  1.6727
  137OSM      P14900   4.739   4.451   7.953  0.6782  0.2969  0.4906
  137OSM    O1314901   4.633   4.478   8.057 -0.2053 -0.2758  0.5688
  137OSM    O1414902   4.881   4.467   7.990  0.0439 -0.2134  0.4323
  137OSM    O1114903   4.710   4.533   7.820 -0.2795 -0.0501 -0.5953
  137OSM    O1214904   4.720   4.300   7.895  0.0062  0.2687 -0.2513
  137OSM    C1S14905   4.790   4.649   7.802  0.6478  1.0158  0.2088
  137OSM    H1S14906   4.887   4.624   7.753  0.7902  0.9366  0.5295
  137OSM    H1T14907   4.805   4.710   7.893 -0.9747  0.4297  0.9091
  137OSM     NF14908   4.815   4.840   7.639  0.7628  0.0200  0.0625
  137OSM    HNF14909   4.809   4.938   7.656 -2.7689  0.3741 -2.1607
  137OSM    C2S14910   4.724   4.737   7.692 -0.1882 -0.2313 -0.1520
  137OSM    H2S14911   4.686   4.668   7.614  0.4743 -1.1928  0.3531
  137OSM    C3S14912   4.593   4.800   7.762 -0.5174 -0.3702  0.4892
  137OSM    H3S14913   4.637   4.854   7.848  0.3484  0.2957 -0.3612
  137OSM     O314914   4.508   4.709   7.826  0.0609 -0.2768 -0.6642
  137OSM    HO314915   4.553   4.624   7.816 -0.6752 -0.7138 -0.3810
  137OSM    C4S14916   4.514   4.898   7.674 -0.2507  0.6922  0.3391
  137OSM    H4S14917   4.544   5.002   7.691  0.8329  0.7146 -1.3987
  137OSM    C5S14918   4.409   4.877   7.591  0.2971  0.4307  0.0573
  137OSM    H5S14919   4.371   4.775   7.576 -1.4762  1.1576 -0.6184
  137OSM    C6S14920   4.330   4.980   7.515 -0.1165 -0.5303  0.0459
  137OSM    H6S14921   4.377   5.077   7.541  0.2511 -0.7182  0.0955
  137OSM    H6T14922   4.225   4.984   7.550  0.3653  1.1585  1.4288
  137OSM    C7S14923   4.327   4.965   7.361 -0.4141  0.1192 -0.2955
  137OSM    H7S14924   4.427   4.954   7.313 -0.3502 -2.0458  0.2180
  137OSM    H7T14925   4.280   5.060   7.327 -0.2866 -0.0214 -0.8874
  137OSM    C8S14926   4.236   4.858   7.308 -0.0398  0.8291  0.4076
  137OSM    H8S14927   4.146   4.858   7.372 -1.1433 -1.9126 -0.9904
  137OSM    H8T14928   4.280   4.756   7.307 -0.8994  0.4481  0.1954
  137OSM    C9S14929   4.202   4.875   7.156 -0.8522 -0.2517  0.0099
  137OSM    H9S14930   4.295   4.887   7.097 -0.8504 -0.1787  0.0275
  137OSM    H9T14931   4.154   4.973   7.133  2.3303  0.9237 -2.2924
  137OSM   C10S14932   4.119   4.756   7.110  0.2583 -0.5968 -0.5213
  137OSM   H10S14933   4.027   4.749   7.171  1.4728 -1.7548  1.2433
  137OSM   H10T14934   4.173   4.661   7.131  1.0683  0.1170  0.7500
  137OSM   C11S14935   4.075   4.787   6.966  0.1513 -0.4273  0.0462
  137OSM   H11S14936   4.027   4.887   6.969 -0.4336 -0.6850 -0.5886
  137OSM   H11T14937   3.989   4.724   6.934  0.3114 -0.6677  0.0878
  137OSM   C12S14938   4.192   4.778   6.868 -0.0314  0.1457  0.0105
  137OSM   H12S14939   4.280   4.834   6.905  1.8955 -1.7676 -1.3837
  137OSM   H12T14940   4.162   4.827   6.773  0.4919 -1.6733 -1.1499
  137OSM   C13S14941   4.237   4.635   6.832  0.0165 -0.1472 -0.4430
  137OSM   H13S14942   4.256   4.582   6.928  1.4453 -1.5595 -1.4444
  137OSM   H13T14943   4.336   4.647   6.783 -0.4645 -0.0608 -1.4245
  137OSM   C14S14944   4.135   4.558   6.743 -0.4773  0.1332 -0.2581
  137OSM   H14S14945   4.049   4.624   6.720 -2.1453 -1.2214  1.7165
  137OSM   H14T14946   4.094   4.467   6.793 -2.5627  1.0548 -0.1927
  137OSM   C15S14947   4.197   4.520   6.610 -0.0160  0.4356 -0.1225
  137OSM   H15S14948   4.244   4.613   6.571  1.2664  0.7900  2.0828
  137OSM   H15T14949   4.120   4.491   6.536  1.1751 -0.1803 -1.1698
  137OSM   C16S14950   4.307   4.411   6.626  0.2121 -0.3243 -0.5854
  137OSM   H16S14951   4.256   4.312   6.633 -0.1776 -0.0856  0.0816
  137OSM   H16T14952   4.362   4.432   6.720 -2.4127  2.0455  0.5489
  137OSM   C17S14953   4.400   4.418   6.504  0.7169  0.4298  0.1939
  137OSM   H17S14954   4.481   4.347   6.533  1.8043  2.0738  1.3199
  137OSM   H17T14955   4.442   4.520   6.492 -0.8998  0.8765 -2.4344
  137OSM   C18S14956   4.335   4.381   6.367  0.8523  0.4822 -0.3757
  137OSM   H18S14957   4.275   4.467   6.334  0.2830  0.8902  1.5726
  137OSM   H18T14958   4.270   4.291   6.379  2.6498 -0.8687 -0.2239
  137OSM   H18U14959   4.410   4.354   6.290  2.9055  0.7775  1.3911
  137OSM    C1F14960   4.910   4.809   7.557  0.2830 -0.3813 -0.1062
  137OSM     OF14961   4.926   4.693   7.521  0.4225 -0.0342  0.2510
  137OSM    C2F14962   5.018   4.915   7.530 -0.3921  0.2415 -0.1065
  137OSM    H2F14963   5.119   4.873   7.553 -0.1589  1.5412  1.4373
  137OSM    H2G14964   5.009   5.004   7.595  1.8355  0.4135  0.0565
  137OSM    C3F14965   5.019   4.964   7.379  0.1340 -0.3062  0.0834
  137OSM    H3F14966   5.016   4.877   7.311 -1.3869 -1.5233  1.6235
  137OSM    H3G14967   5.110   5.026   7.365  0.2265 -0.6653 -1.0576
  137OSM    C4F14968   4.901   5.053   7.336 -0.0615 -0.1864 -0.3469
  137OSM    H4F14969   4.921   5.152   7.381 -0.4643 -0.5569  0.6746
  137OSM    H4G14970   4.799   5.018   7.362 -0.0421 -0.9592 -1.2563
  137OSM    C5F14971   4.898   5.084   7.184  0.3181 -0.0988  0.0348
  137OSM    H5F14972   4.817   5.159   7.171 -1.8579 -1.9374  2.0252
  137OSM    H5G14973   4.879   4.992   7.124 -1.6814  0.6404 -0.5446
  137OSM    C6F14974   5.024   5.156   7.132  0.0850 -0.0114  0.1627
  137OSM    H6F14975   5.105   5.082   7.152 -0.0210 -0.1633  0.0353
  137OSM    H6G14976   5.043   5.243   7.198 -0.2574 -0.4964  0.9104
  137OSM    C7F14977   5.021   5.192   6.981  0.2073  0.1071 -0.8685
  137OSM    H7F14978   5.119   5.239   6.956  1.5620 -1.1881  1.5863
  137OSM    H7G14979   4.939   5.266   6.971  0.4536  0.4704 -0.2462
  137OSM    C8F14980   4.977   5.070   6.892  0.4212  0.9808  0.8370
  137OSM    H8F14981   4.887   5.013   6.922  1.8300 -2.0193 -0.2252
  137OSM    H8G14982   5.062   4.999   6.890 -1.3904 -1.3091 -0.7463
  137OSM    C9F14983   4.959   5.116   6.751 -0.3829 -0.1748 -0.1628
  137OSM    H9F14984   4.907   5.211   6.733 -0.8176 -0.4439 -0.3825
  137OSM   C10F14985   5.002   5.047   6.640  0.1967  0.1570 -0.5315
  137OSM   H10F14986   4.984   5.092   6.541  3.2442 -1.4192 -1.9431
  137OSM   C11F14987   5.048   4.901   6.644 -0.3519 -0.7474  0.2691
  137OSM   H11F14988   4.967   4.833   6.679 -0.0960 -1.3529 -0.2926
  137OSM   H11G14989   5.129   4.882   6.717  1.1656 -0.1630 -1.2045
  137OSM   C12F14990   5.094   4.849   6.506 -0.2938 -0.0528  0.0818
  137OSM   H12F14991   5.138   4.747   6.515  2.9620  1.3572  2.2598
  137OSM   H12G14992   5.185   4.908   6.481  2.4361 -3.2443  1.6928
  137OSM   C13F14993   4.982   4.853   6.406  0.2315 -0.4612  0.3569
  137OSM   H13F14994   4.947   4.958   6.401  0.8716 -0.3133 -1.6230
  137OSM   H13G14995   4.900   4.785   6.439 -0.1036 -0.2231  0.0136
  137OSM   C14F14996   5.028   4.802   6.265 -0.8778  0.1766 -0.4512
  137OSM   H14F14997   5.078   4.706   6.289 -0.3386  0.4834 -0.3266
  137OSM   H14G14998   5.096   4.881   6.228 -0.4561 -0.8731 -1.9900
  137OSM   C15F14999   4.919   4.775   6.159  0.4149 -0.2621  0.2183
  137OSM   H15F15000   4.848   4.857   6.134 -0.0395 -0.8669 -0.5064
  137OSM   H15G15001   4.848   4.698   6.193  0.7152 -0.0510  1.3897
  137OSM   C16F15002   4.986   4.733   6.020  1.1296  0.6501 -0.4004
  137OSM   H16F15003   5.069   4.664   6.046 -0.6749 -0.7538  2.0216
  137OSM   H16G15004   5.030   4.827   5.980 -0.6640  2.4781  1.6452
  137OSM   C17F15005   4.877   4.665   5.936 -0.9009  0.0770  0.5449
  137OSM   H17F15006   4.815   4.754   5.910  0.4775  0.9768  0.2020
  137OSM   H17G15007   4.832   4.581   5.992 -0.4127 -0.4704  0.1315
  137OSM   C18F15008   4.925   4.589   5.816 -0.1202  0.3547 -0.2769
  137OSM   H18F15009   5.005   4.514   5.836 -0.3959 -0.3644 -1.7395
  137OSM   H18G15010   4.972   4.653   5.738 -1.3045  0.9009 -0.5589
  137OSM   H18H15011   4.845   4.540   5.757 -0.6293 -0.1103  0.7617
  138OSM      N15012   0.679   3.999   7.840  0.6782  0.8840 -0.8039
  138OSM    C1515013   0.702   4.098   7.946 -0.3154  0.7187  0.2101
  138OSM   H15A15014   0.616   4.099   8.012  1.7875 -0.6139  3.1964
  138OSM   H15B15015   0.725   4.195   7.906  1.2529  1.5990  3.0495
  138OSM   H15C15016   0.780   4.078   8.018 -0.8412 -0.7660  0.4017
  138OSM    C1415017   0.810   3.958   7.778  0.1896 -0.4498  0.6226
  138OSM   H14A15018   0.877   4.043   7.767 -2.8587  1.9946 -0.5461
  138OSM   H14B15019   0.782   3.913   7.684  0.3494 -0.1600  0.4315
  138OSM   H14C15020   0.871   3.888   7.833 -0.0013  0.3108  1.8406
  138OSM    C1315021   0.602   3.877   7.894 -0.0352 -0.2410 -0.4691
  138OSM   H13A15022   0.658   3.827   7.972 -1.0567  0.1456  0.5350
  138OSM   H13B15023   0.576   3.806   7.817  0.4193 -2.6491  1.4653
  138OSM   H13C15024   0.501   3.908   7.917 -0.8989 -1.6302 -2.2027
  138OSM    C1215025   0.581   4.056   7.737  0.1075 -0.2800 -0.0980
  138OSM   H12A15026   0.610   4.147   7.688 -0.4393 -0.2881 -0.4446
  138OSM   H12B15027   0.494   4.088   7.792 -1.3668  0.8069 -2.8362
  138OSM    C1115028   0.533   3.975   7.615 -0.0849  0.3174 -0.2878
  138OSM   H11A15029   0.467   4.040   7.554 -2.2601  0.9135  2.4724
  138OSM   H11B15030   0.458   3.914   7.670 -0.6799  1.0522 -0.2547
  138OSM      P15031   0.614   3.742   7.516 -0.5284  0.1338 -0.1004
  138OSM    O1315032   0.693   3.709   7.399  0.4713  0.7738  0.0127
  138OSM    O1415033   0.645   3.668   7.639  0.0368  0.5451 -0.5348
  138OSM    O1115034   0.457   3.722   7.485  0.1088  0.2547  0.2522
  138OSM    O1215035   0.629   3.903   7.537  0.1569 -0.0275 -0.1995
  138OSM    C1S15036   0.386   3.810   7.397 -0.3063  0.1877 -0.2933
  138OSM    H1S15037   0.459   3.866   7.335 -0.2030  2.1621  1.5013
  138OSM    H1T15038   0.336   3.886   7.460  1.0929  0.3904  0.6150
  138OSM     NF15039   0.235   3.819   7.199 -0.2723 -0.0860 -0.8112
  138OSM    HNF15040   0.137   3.837   7.205 -0.0083  1.1810  0.0804
  138OSM    C2S15041   0.290   3.739   7.306 -0.2528  0.7034 -0.4495
  138OSM    H2S15042   0.342   3.660   7.248 -0.7824  1.8360 -2.5682
  138OSM    C3S15043   0.182   3.665   7.380  0.7697 -0.2502  0.2675
  138OSM    H3S15044   0.111   3.745   7.411 -0.2749  0.0376 -2.5782
  138OSM     O315045   0.227   3.597   7.497 -0.0012  0.1694 -0.3688
  138OSM    HO315046   0.313   3.640   7.503  0.8579 -1.4458 -0.4140
  138OSM    C4S15047   0.121   3.570   7.278 -0.1053  0.0378 -0.0583
  138OSM    H4S15048   0.199   3.504   7.237 -1.9251 -0.5663 -2.8797
  138OSM    C5S15049  -0.008   3.564   7.232  0.3075 -0.3463 -0.0615
  138OSM    H5S15050  -0.079   3.640   7.269 -1.1992 -1.5109 -0.4807
  138OSM    C6S15051  -0.063   3.480   7.118 -1.1908 -0.1750 -0.3646
  138OSM    H6S15052  -0.088   3.545   7.031  1.0010 -0.2961 -1.1497
  138OSM    H6T15053  -0.159   3.437   7.155 -1.6342  0.7784 -0.3814
  138OSM    C7S15054   0.023   3.361   7.076 -0.0269 -0.0842  0.1482
  138OSM    H7S15055   0.067   3.302   7.159  0.9684 -0.4393 -0.6131
  138OSM    H7T15056   0.099   3.390   7.000 -0.5049 -2.9083 -1.5524
  138OSM    C8S15057  -0.062   3.256   7.000  0.4170 -0.3492  0.3633
  138OSM    H8S15058  -0.135   3.316   6.941  0.1457 -2.1462 -1.2135
  138OSM    H8T15059  -0.121   3.195   7.071  3.1368 -1.3015  1.9890
  138OSM    C9S15060   0.026   3.177   6.907  0.2854  0.3203 -0.2609
  138OSM    H9S15061   0.104   3.136   6.975  1.9222  3.5101 -0.0343
  138OSM    H9T15062   0.078   3.236   6.829 -1.0930  0.4443 -1.1108
  138OSM   C10S15063  -0.056   3.073   6.827 -0.0053  0.0756  0.0260
  138OSM   H10S15064  -0.124   3.011   6.890 -0.1505  1.2973  1.0933
  138OSM   H10T15065   0.014   2.997   6.785 -0.4480 -0.3314  0.0048
  138OSM   C11S15066  -0.148   3.138   6.720 -0.1897 -0.6707  0.6321
  138OSM   H11S15067  -0.175   3.241   6.753  2.7217  1.2637 -2.3409
  138OSM   H11T15068  -0.229   3.067   6.693  0.5188 -0.5676 -2.0239
  138OSM   C12S15069  -0.072   3.172   6.587  0.2251  1.0044  0.3952
  138OSM   H12S15070  -0.027   3.083   6.538  0.0015  0.7633  0.6249
  138OSM   H12T15071   0.003   3.250   6.611 -1.5607  2.6992  0.6907
  138OSM   C13S15072  -0.167   3.223   6.471 -0.3305 -0.1199  0.3083
  138OSM   H13S15073  -0.231   3.298   6.522  0.2489 -0.7662  2.0679
  138OSM   H13T15074  -0.224   3.135   6.434 -0.7262  0.5276 -0.6524
  138OSM   C14S15075  -0.105   3.284   6.343  0.0167  0.6602 -0.2287
  138OSM   H14S15076  -0.012   3.339   6.370 -0.4163  0.0436  2.8929
  138OSM   H14T15077  -0.176   3.342   6.280  0.0778 -0.6718 -1.5818
  138OSM   C15S15078  -0.051   3.174   6.242  0.4244 -0.4455 -0.3667
  138OSM   H15S15079  -0.121   3.090   6.225 -0.4472  0.1587  0.1447
  138OSM   H15T15080   0.043   3.131   6.283  0.1833  1.1390  2.0875
  138OSM   C16S15081  -0.013   3.250   6.110  0.1539  0.6895  0.4268
  138OSM   H16S15082   0.080   3.305   6.133  0.8642 -0.4549  0.3708
  138OSM   H16T15083  -0.088   3.329   6.086  0.9468  1.4099  0.2581
  138OSM   C17S15084   0.007   3.147   5.997  0.2175  0.0756 -0.1637
  138OSM   H17S15085   0.057   3.055   6.035  1.6544  0.1181 -1.8124
  138OSM   H17T15086   0.071   3.184   5.915  0.9563 -0.7264  0.0311
  138OSM   C18S15087  -0.126   3.097   5.940  0.4272  0.0214 -0.2883
  138OSM   H18S15088  -0.104   3.037   5.849 -0.6061  1.0917 -1.2808
  138OSM   H18T15089  -0.192   3.183   5.916  1.3026  1.0327  0.8133
  138OSM   H18U15090  -0.183   3.033   6.011 -2.0815  0.8832 -1.3860
  138OSM    C1F15091   0.311   3.866   7.099  0.4676  0.1952  0.1167
  138OSM     OF15092   0.424   3.815   7.086 -0.1511 -0.6021 -0.3797
  138OSM    C2F15093   0.250   3.969   7.015 -0.5100 -0.2070 -0.3061
  138OSM    H2F15094   0.250   4.065   7.071  0.0759 -2.7766  4.6471
  138OSM    H2G15095   0.144   3.936   7.015 -1.1622  1.7515 -0.4121
  138OSM    C3F15096   0.280   3.971   6.865  0.3944  0.4579 -0.5420
  138OSM    H3F15097   0.382   4.009   6.845  1.4732 -1.6724  0.4776
  138OSM    H3G15098   0.210   4.040   6.813 -0.4372  0.7153  0.8666
  138OSM    C4F15099   0.269   3.836   6.791 -0.8156 -0.1219 -0.2561
  138OSM    H4F15100   0.164   3.801   6.791 -0.8184 -0.1515  0.9887
  138OSM    H4G15101   0.334   3.766   6.848  0.3343  2.2845  1.5931
  138OSM    C5F15102   0.329   3.851   6.653  0.4127  0.1698 -0.0395
  138OSM    H5F15103   0.433   3.888   6.659 -0.1166  2.4086 -2.6068
  138OSM    H5G15104   0.261   3.922   6.601  0.6866 -0.6490 -1.6056
  138OSM    C6F15105   0.327   3.710   6.579 -0.4635 -0.2002  0.5719
  138OSM    H6F15106   0.222   3.675   6.579 -0.2451 -0.9575  2.4219
  138OSM    H6G15107   0.391   3.641   6.638  0.8973  0.9566  0.4966
  138OSM    C7F15108   0.393   3.714   6.436 -0.1474 -0.2535 -0.8133
  138OSM    H7F15109   0.492   3.764   6.438  2.0830 -4.1047 -2.5020
  138OSM    H7G15110   0.314   3.775   6.388  0.0763  2.5158  1.9951
  138OSM    C8F15111   0.415   3.579   6.356  0.9624 -0.2963 -0.5036
  138OSM    H8F15112   0.316   3.530   6.349  1.7871 -1.9275 -1.1886
  138OSM    H8G15113   0.487   3.507   6.401  1.5502 -2.0995 -3.9766
  138OSM    C9F15114   0.452   3.606   6.213  0.3586 -0.2778 -0.2390
  138OSM    H9F15115   0.373   3.645   6.148  2.8459  1.0319 -2.6750
  138OSM   C10F15116   0.584   3.607   6.173 -0.3504 -0.6390  0.7068
  138OSM   H10F15117   0.620   3.634   6.072  0.0213 -0.2646  0.9342
  138OSM   C11F15118   0.702   3.565   6.259 -0.6132  0.5750  0.2812
  138OSM   H11F15119   0.670   3.467   6.300 -0.6444 -0.5734 -2.3232
  138OSM   H11G15120   0.720   3.631   6.347  2.8532 -2.4969  2.1982
  138OSM   C12F15121   0.840   3.556   6.179 -0.2668 -0.2836  0.4935
  138OSM   H12F15122   0.927   3.533   6.244  1.0462 -0.1252 -1.1351
  138OSM   H12G15123   0.850   3.659   6.139 -0.6328 -0.1936  0.6294
  138OSM   C13F15124   0.839   3.458   6.062 -0.2676  0.4751  0.1030
  138OSM   H13F15125   0.745   3.467   6.004 -0.9386 -0.2983  1.0545
  138OSM   H13G15126   0.846   3.352   6.093 -0.6374  0.1042 -1.0346
  138OSM   C14F15127   0.961   3.492   5.967 -0.1479  0.5365 -0.7094
  138OSM   H14F15128   1.059   3.459   6.008 -0.5281 -1.0124 -1.0008
  138OSM   H14G15129   0.954   3.601   5.944  1.4810  1.5643  2.8425
  138OSM   C15F15130   0.948   3.408   5.834  0.1656  0.1124 -0.2778
  138OSM   H15F15131   0.860   3.443   5.776  0.3147 -0.2618 -0.7294
  138OSM   H15G15132   0.931   3.301   5.858 -1.1696  0.9820  3.3343
  138OSM   C16F15133   1.071   3.424   5.744 -0.2483  0.1806  0.0825
  138OSM   H16F15134   1.152   3.352   5.769  0.6215  1.5214  1.3590
  138OSM   H16G15135   1.108   3.528   5.758 -0.3619  0.3966 -1.1358
  138OSM   C17F15136   1.050   3.413   5.592  0.0012 -0.5858 -0.0243
  138OSM   H17F15137   0.995   3.318   5.578 -0.0850 -0.9165  2.1403
  138OSM   H17G15138   1.151   3.398   5.549 -0.3439 -1.8929 -0.4253
  138OSM   C18F15139   0.970   3.522   5.530  0.1419  0.7881  0.0989
  138OSM   H18F15140   1.036   3.611   5.532  2.9670 -1.1135 -1.4704
  138OSM   H18G15141   0.877   3.547   5.585 -0.4481 -1.2421  0.1038
  138OSM   H18H15142   0.941   3.492   5.426  0.7867  1.8568 -0.4047
  139OSM      N15143   4.543   6.866   7.983 -0.2290 -0.6586  0.0019
  139OSM    C1515144   4.456   6.750   7.959 -0.1420  0.4462  0.2445
  139OSM   H15A15145   4.394   6.754   7.871 -2.2244 -2.8661  1.3980
  139OSM   H15B15146   4.397   6.732   8.048 -2.4765 -2.2816 -1.7033
  139OSM   H15C15147   4.515   6.660   7.966 -0.8614 -0.1035 -0.6098
  139OSM    C1415148   4.625   6.844   8.107  0.2003  0.2381 -0.3239
  139OSM   H14A15149   4.693   6.927   8.113  1.4540 -0.8719  2.3500
  139OSM   H14B15150   4.667   6.744   8.114  0.8690  0.4603 -1.0074
  139OSM   H14C15151   4.575   6.856   8.201 -0.1917  0.3611 -0.5464
  139OSM    C1315152   4.650   6.884   7.880 -0.2550 -0.0398  0.2149
  139OSM   H13A15153   4.696   6.982   7.884  2.2079 -0.8061 -3.8651
  139OSM   H13B15154   4.621   6.898   7.777  1.4479 -1.7479 -0.5534
  139OSM   H13C15155   4.716   6.800   7.891 -0.4899 -0.2116  0.3026
  139OSM    C1215156   4.454   6.992   7.993  0.2528 -0.6624  0.1362
  139OSM   H12A15157   4.524   7.071   8.017 -0.5574 -0.7757  3.2958
  139OSM   H12B15158   4.380   6.990   8.072 -0.5260 -1.0903 -0.5922
  139OSM    C1115159   4.385   7.033   7.860 -0.1423 -0.2555 -0.1637
  139OSM   H11A15160   4.304   6.958   7.844 -0.2482  0.1827 -1.9247
  139OSM   H11B15161   4.450   7.014   7.771  0.0882 -1.2766  0.2008
  139OSM      P15162   4.424   7.282   7.819 -0.3510 -0.2353 -0.0499
  139OSM    O1315163   4.334   7.400   7.809 -0.2801 -0.1744 -0.2339
  139OSM    O1415164   4.539   7.287   7.912  0.0728  0.2889  0.0777
  139OSM    O1115165   4.477   7.225   7.680  0.2316 -0.4661 -0.1824
  139OSM    O1215166   4.329   7.159   7.869 -0.2922 -0.0767  0.4976
  139OSM    C1S15167   4.380   7.213   7.576 -0.1576 -0.0804 -0.3662
  139OSM    H1S15168   4.333   7.308   7.542 -2.5621 -0.9349  0.3128
  139OSM    H1T15169   4.294   7.149   7.605  0.7381 -1.8110 -1.3554
  139OSM     NF15170   4.335   7.174   7.333 -0.9605 -0.4384 -0.6019
  139OSM    HNF15171   4.268   7.103   7.314 -1.4229 -0.1044 -0.2371
  139OSM    C2S15172   4.437   7.160   7.444 -0.9625  0.4722 -0.2049
  139OSM    H2S15173   4.518   7.234   7.427 -1.9338  0.6835 -5.3957
  139OSM    C3S15174   4.511   7.018   7.456 -0.2084 -0.0818  0.3347
  139OSM    H3S15175   4.426   6.951   7.482 -1.6875  2.0387  1.3041
  139OSM     O315176   4.600   7.001   7.559  0.2567 -0.0744 -0.9260
  139OSM    HO315177   4.573   7.065   7.625  0.5339 -1.0419  0.1654
  139OSM    C4S15178   4.578   6.982   7.325  0.2371  0.5397 -0.6346
  139OSM    H4S15179   4.648   7.054   7.281  0.7671  0.1746 -0.3982
  139OSM    C5S15180   4.561   6.864   7.270 -0.5808 -0.0900 -0.4018
  139OSM    H5S15181   4.495   6.785   7.309  0.5862 -0.3900  1.0665
  139OSM    C6S15182   4.635   6.822   7.142 -0.2148  0.1557  1.8709
  139OSM    H6S15183   4.577   6.763   7.068  1.9718  1.7972 -1.3756
  139OSM    H6T15184   4.713   6.750   7.177  1.2276  0.7108 -0.0634
  139OSM    C7S15185   4.704   6.934   7.062  0.1605  0.3893 -0.5209
  139OSM    H7S15186   4.754   6.875   6.981  0.0783 -1.5210  0.7534
  139OSM    H7T15187   4.790   6.988   7.106  0.1597  0.5706 -0.7413
  139OSM    C8S15188   4.606   7.039   6.994 -0.1979 -0.1751  0.4861
  139OSM    H8S15189   4.652   7.133   6.958 -0.4247 -0.4060 -0.4301
  139OSM    H8T15190   4.556   7.092   7.078 -0.2370  1.8106 -0.7314
  139OSM    C9S15191   4.497   6.989   6.904  0.8212 -0.4294  0.8522
  139OSM    H9S15192   4.432   7.075   6.876  0.7581 -1.2938 -2.0321
  139OSM    H9T15193   4.434   6.919   6.962  2.0359 -0.5211  2.1141
  139OSM   C10S15194   4.526   6.925   6.766  0.3444  0.5489  0.2670
  139OSM   H10S15195   4.449   6.854   6.728 -0.3594  1.4971 -0.1039
  139OSM   H10T15196   4.617   6.863   6.781  0.7367  1.4203  1.6552
  139OSM   C11S15197   4.550   7.020   6.648 -0.1934 -0.1267 -0.3694
  139OSM   H11S15198   4.616   7.106   6.671  0.1549  0.1112 -2.1333
  139OSM   H11T15199   4.448   7.047   6.612 -0.2474 -0.7997 -0.7281
  139OSM   C12S15200   4.607   6.957   6.513 -0.5380 -0.0677  0.6711
  139OSM   H12S15201   4.535   6.881   6.475  0.2548 -0.7244  0.4608
  139OSM   H12T15202   4.707   6.915   6.535  0.1435  0.0778 -1.8275
  139OSM   C13S15203   4.618   7.063   6.400 -0.2075  0.4928  0.3355
  139OSM   H13S15204   4.695   7.137   6.431  0.7626 -0.8249  1.2019
  139OSM   H13T15205   4.527   7.126   6.389  1.6685  3.2057 -0.8238
  139OSM   C14S15206   4.652   6.996   6.268 -0.0405  0.4100  0.8166
  139OSM   H14S15207   4.575   6.921   6.241 -0.0428  1.0372 -1.0762
  139OSM   H14T15208   4.755   6.954   6.260  0.1237  0.7007  1.3581
  139OSM   C15S15209   4.640   7.105   6.151  0.1899  0.1559 -0.6214
  139OSM   H15S15210   4.714   7.184   6.176 -1.8646  1.4298  1.8727
  139OSM   H15T15211   4.543   7.159   6.151  0.2318  0.3408 -3.0300
  139OSM   C16S15212   4.674   7.049   6.010  0.4340  0.3998 -0.0337
  139OSM   H16S15213   4.648   7.122   5.931 -0.1880 -1.1989 -1.3732
  139OSM   H16T15214   4.622   6.952   5.995  0.9442 -0.2610  2.0731
  139OSM   C17S15215   4.823   7.020   5.990 -0.1897 -0.1277  0.6477
  139OSM   H17S15216   4.860   6.955   6.072 -1.7718  1.6422  2.9301
  139OSM   H17T15217   4.874   7.119   5.989 -0.6816  0.1307  0.6651
  139OSM   C18S15218   4.858   6.952   5.860  0.0833 -0.0331 -0.4101
  139OSM   H18S15219   4.801   6.858   5.870 -0.8587  0.5718  0.0918
  139OSM   H18T15220   4.967   6.934   5.843  0.7574  1.2878  2.0801
  139OSM   H18U15221   4.819   7.007   5.771 -1.5982  0.8578  0.8244
  139OSM    C1F15222   4.301   7.301   7.285 -1.0642 -0.0718  0.8565
  139OSM     OF15223   4.355   7.399   7.328 -0.2105 -0.4184  0.0696
  139OSM    C2F15224   4.178   7.306   7.208 -0.2079 -0.2215  0.6010
  139OSM    H2F15225   4.107   7.376   7.256 -1.3201  0.7236 -2.2212
  139OSM    H2G15226   4.126   7.209   7.191  0.5504 -0.4567 -0.4994
  139OSM    C3F15227   4.204   7.357   7.060 -0.3951  0.2272 -0.3057
  139OSM    H3F15228   4.300   7.313   7.027 -0.6343 -2.1256  1.8732
  139OSM    H3G15229   4.210   7.468   7.058 -1.0596  0.3362  1.7475
  139OSM    C4F15230   4.092   7.340   6.953  0.3162  0.2719  0.0002
  139OSM    H4F15231   3.993   7.351   7.004 -0.5453  0.4973 -1.6529
  139OSM    H4G15232   4.100   7.234   6.921  0.0720 -0.7663  3.0439
  139OSM    C5F15233   4.102   7.435   6.837  0.1004  0.5685  0.3512
  139OSM    H5F15234   4.204   7.429   6.793 -0.0224  0.6422  0.0575
  139OSM    H5G15235   4.086   7.538   6.876 -1.0956  1.2054 -1.6569
  139OSM    C6F15236   3.991   7.412   6.737  0.0463 -0.1982  0.3846
  139OSM    H6F15237   3.897   7.442   6.787 -0.0369  0.5835 -0.2256
  139OSM    H6G15238   3.989   7.303   6.713 -0.1693 -0.1207  0.0474
  139OSM    C7F15239   4.021   7.489   6.610 -0.2967  0.0630 -0.1463
  139OSM    H7F15240   4.114   7.443   6.571 -0.9035 -1.7275  0.3998
  139OSM    H7G15241   4.031   7.598   6.628 -0.0444  0.0093  0.0354
  139OSM    C8F15242   3.918   7.453   6.500  0.6204 -0.2013 -0.7039
  139OSM    H8F15243   3.913   7.343   6.485  0.6538 -0.3605  0.3997
  139OSM    H8G15244   3.961   7.499   6.408  0.8626  1.5789  0.2749
  139OSM    C9F15245   3.782   7.497   6.526 -0.2270 -0.6384 -0.1424
  139OSM    H9F15246   3.761   7.535   6.627  1.2453 -0.7763  0.2472
  139OSM   C10F15247   3.691   7.488   6.431 -0.7463 -0.8883 -1.0235
  139OSM   H10F15248   3.591   7.528   6.454  0.6484  1.7861  0.8881
  139OSM   C11F15249   3.712   7.430   6.292  0.7279 -0.0890  0.0620
  139OSM   H11F15250   3.622   7.378   6.252 -0.3199  0.1877  1.9626
  139OSM   H11G15251   3.793   7.354   6.292 -0.1023 -1.0443 -1.5510
  139OSM   C12F15252   3.739   7.535   6.187 -0.0995  0.1103 -0.0907
  139OSM   H12F15253   3.828   7.591   6.221 -1.3804  1.2756  1.5727
  139OSM   H12G15254   3.654   7.606   6.173  0.1910  0.7472  1.1643
  139OSM   C13F15255   3.754   7.475   6.045 -0.1331 -0.4360 -0.5993
  139OSM   H13F15256   3.766   7.554   5.968  3.0001 -0.4114 -0.2020
  139OSM   H13G15257   3.652   7.433   6.030 -0.8213  1.1179 -0.4364
  139OSM   C14F15258   3.864   7.373   6.016 -0.4416  0.1213  0.3474
  139OSM   H14F15259   3.850   7.359   5.906  1.8764  1.2849 -0.1697
  139OSM   H14G15260   3.857   7.276   6.069  1.5290  0.1371  0.7339
  139OSM   C15F15261   4.007   7.431   6.044 -0.4311  0.1509 -0.2746
  139OSM   H15F15262   4.007   7.497   6.133  0.8701  1.8478 -1.4834
  139OSM   H15G15263   4.021   7.503   5.960 -0.6380 -2.1295 -2.4023
  139OSM   C16F15264   4.125   7.330   6.038 -0.0049  0.2835  0.3750
  139OSM   H16F15265   4.219   7.388   6.045  0.2134  0.0178 -0.2130
  139OSM   H16G15266   4.121   7.282   5.937 -0.3160  1.3587 -0.1408
  139OSM   C17F15267   4.127   7.216   6.142 -0.3843 -0.1136 -0.2246
  139OSM   H17F15268   4.216   7.153   6.119  0.1847  1.1763 -1.7751
  139OSM   H17G15269   4.033   7.158   6.131 -1.7420  0.5286  5.2986
  139OSM   C18F15270   4.132   7.261   6.281 -0.6774 -0.3428 -0.8226
  139OSM   H18F15271   4.046   7.329   6.302 -0.8481  0.2632 -3.2383
  139OSM   H18G15272   4.222   7.322   6.308 -2.3125  1.2180  1.4894
  139OSM   H18H15273   4.143   7.176   6.352  1.0403  0.9337  0.5535
  140OSM      N15274   2.370   4.635   7.829  1.0305 -0.8697  1.0846
  140OSM    C1515275   2.236   4.613   7.772  0.1993 -0.3068 -1.0205
  140OSM   H15A15276   2.200   4.512   7.779 -1.9491  0.5126  1.3632
  140OSM   H15B15277   2.217   4.647   7.671  0.6131  1.0462 -0.6632
  140OSM   H15C15278   2.160   4.665   7.828  0.1180 -0.4240 -1.0223
  140OSM    C1415279   2.391   4.782   7.841 -0.3528 -0.1169  0.5732
  140OSM   H14A15280   2.476   4.820   7.896 -0.0495  0.5900 -0.3463
  140OSM   H14B15281   2.310   4.829   7.894 -1.4223 -0.2131 -0.9099
  140OSM   H14C15282   2.395   4.824   7.741 -0.2927 -2.6081 -0.5497
  140OSM    C1315283   2.380   4.571   7.965 -0.1866  0.0775  0.0993
  140OSM   H13A15284   2.480   4.586   8.004 -0.6192 -3.0249  2.7680
  140OSM   H13B15285   2.369   4.464   7.970  2.1247 -0.2520 -0.8776
  140OSM   H13C15286   2.307   4.602   8.039 -0.2273  0.0875  0.0552
  140OSM    C1215287   2.474   4.569   7.738 -0.7352  0.0651 -0.1859
  140OSM   H12A15288   2.478   4.622   7.644 -0.1533 -0.6608 -0.5833
  140OSM   H12B15289   2.438   4.470   7.713  1.8335 -1.7034  2.5183
  140OSM    C1115290   2.622   4.534   7.792 -0.5505  0.9079  0.3078
  140OSM   H11A15291   2.671   4.502   7.698 -3.1725  1.6582 -1.4478
  140OSM   H11B15292   2.614   4.438   7.848 -0.7556  1.1370  0.6815
  140OSM      P15293   2.821   4.706   7.848  0.1826 -0.2817 -0.5362
  140OSM    O1315294   2.831   4.839   7.910 -0.9237 -0.5921 -0.2171
  140OSM    O1415295   2.916   4.603   7.890  0.0181 -0.7264 -0.3952
  140OSM    O1115296   2.844   4.720   7.693  0.2126 -1.1688 -0.1804
  140OSM    O1215297   2.682   4.645   7.866  0.0050 -0.0475  0.1934
  140OSM    C1S15298   2.757   4.807   7.609  0.0009 -0.0292 -0.6713
  140OSM    H1S15299   2.753   4.909   7.653  1.1522 -0.2542  0.0025
  140OSM    H1T15300   2.652   4.773   7.616 -0.3753  1.2221 -0.0377
  140OSM     NF15301   2.716   4.897   7.390  0.3815 -0.3313 -0.3271
  140OSM    HNF15302   2.636   4.866   7.340 -0.8971 -2.2156  2.5973
  140OSM    C2S15303   2.798   4.799   7.466 -0.6691 -0.3300  0.6705
  140OSM    H2S15304   2.902   4.834   7.447  0.2292 -2.9808  0.3900
  140OSM    C3S15305   2.802   4.646   7.421 -0.5223 -0.2117 -0.2641
  140OSM    H3S15306   2.700   4.610   7.446 -0.9156  1.0207 -0.0098
  140OSM     O315307   2.895   4.564   7.487  0.1151  0.0209 -1.1657
  140OSM    HO315308   2.907   4.603   7.574  2.6322  0.9175 -1.8150
  140OSM    C4S15309   2.826   4.633   7.277  0.4924  0.1561 -0.0708
  140OSM    H4S15310   2.929   4.666   7.257  1.4215 -1.4216  1.7841
  140OSM    C5S15311   2.756   4.573   7.183 -0.2084 -0.0576 -0.0760
  140OSM    H5S15312   2.669   4.511   7.210 -0.6919  1.1709  1.3156
  140OSM    C6S15313   2.783   4.583   7.039  0.4874 -0.3919 -0.0066
  140OSM    H6S15314   2.692   4.602   6.979  1.3759  0.0810 -1.2462
  140OSM    H6T15315   2.836   4.491   7.007  1.1691 -0.4463  1.1983
  140OSM    C7S15316   2.858   4.712   6.978 -0.7254  0.1989  0.0369
  140OSM    H7S15317   2.947   4.729   7.043  0.0141 -0.7031 -0.7124
  140OSM    H7T15318   2.790   4.800   6.983  0.1253  1.0091 -1.8277
  140OSM    C8S15319   2.891   4.706   6.829 -0.2634 -0.1424 -0.5633
  140OSM    H8S15320   2.945   4.612   6.802 -2.5305 -1.4929 -0.6810
  140OSM    H8T15321   2.962   4.791   6.821  0.5695 -0.8871 -1.3131
  140OSM    C9S15322   2.763   4.724   6.746  0.2256  0.5788  0.4628
  140OSM    H9S15323   2.726   4.827   6.760  0.9588  0.8688  0.2931
  140OSM    H9T15324   2.684   4.655   6.783  0.4068  0.8227  1.3467
  140OSM   C10S15325   2.788   4.704   6.597 -0.0648 -0.1011  0.5473
  140OSM   H10S15326   2.828   4.603   6.574  0.3505 -0.1105  1.2975
  140OSM   H10T15327   2.866   4.779   6.571 -0.7349 -0.4371 -2.9672
  140OSM   C11S15328   2.667   4.722   6.511 -0.0008 -0.7274  0.3007
  140OSM   H11S15329   2.607   4.812   6.535  2.4825  0.9348  0.6254
  140OSM   H11T15330   2.596   4.639   6.530 -1.1581  0.4789  1.4858
  140OSM   C12S15331   2.699   4.740   6.365  0.7307  0.6439  0.2137
  140OSM   H12S15332   2.809   4.747   6.350  0.5597  0.2140 -1.5001
  140OSM   H12T15333   2.654   4.837   6.333 -1.4747 -0.5114 -0.4408
  140OSM   C13S15334   2.636   4.621   6.291 -0.5006  0.4574  0.9163
  140OSM   H13S15335   2.530   4.601   6.317 -0.1149 -1.2628  1.3117
  140OSM   H13T15336   2.697   4.530   6.311 -0.3568  1.0197  3.4085
  140OSM   C14S15337   2.647   4.642   6.137  0.1555  0.1156  0.9210
  140OSM   H14S15338   2.702   4.737   6.122 -0.6350  0.4743  0.2037
  140OSM   H14T15339   2.542   4.653   6.101  0.4772 -0.2922 -0.1562
  140OSM   C15S15340   2.705   4.533   6.057 -0.4392  0.0319  0.2234
  140OSM   H15S15341   2.629   4.453   6.042  0.3335 -0.7658  0.4660
  140OSM   H15T15342   2.787   4.490   6.119 -2.0487 -2.3114  0.8774
  140OSM   C16S15343   2.753   4.577   5.915 -0.0872 -0.4139 -0.6729
  140OSM   H16S15344   2.827   4.658   5.932 -0.0230 -0.1417 -2.1663
  140OSM   H16T15345   2.674   4.629   5.858  0.0108  1.9745  1.2030
  140OSM   C17S15346   2.820   4.472   5.825 -0.0296  0.2148 -0.1486
  140OSM   H17S15347   2.742   4.406   5.781  0.8379 -1.5315  0.8097
  140OSM   H17T15348   2.890   4.408   5.884  1.0553  1.1832 -0.3589
  140OSM   C18S15349   2.905   4.524   5.708  0.1982 -0.4594 -0.4537
  140OSM   H18S15350   2.841   4.582   5.638  2.3082  3.3344  0.4401
  140OSM   H18T15351   2.947   4.442   5.646 -0.9454 -2.8819  1.7747
  140OSM   H18U15352   2.986   4.589   5.749  0.6580 -0.8066 -0.7997
  140OSM    C1F15353   2.742   5.027   7.402 -0.2430 -0.6928  0.2807
  140OSM     OF15354   2.835   5.065   7.469  0.1970 -0.4798 -0.6029
  140OSM    C2F15355   2.658   5.119   7.320  0.5202  0.2379  0.2886
  140OSM    H2F15356   2.607   5.191   7.387 -0.1299  0.5475 -0.5222
  140OSM    H2G15357   2.583   5.060   7.264 -1.4004  2.1964  0.6755
  140OSM    C3F15358   2.736   5.208   7.223  0.5005 -0.5940  0.1875
  140OSM    H3F15359   2.794   5.285   7.278 -1.9890  0.5930  1.3077
  140OSM    H3G15360   2.649   5.265   7.183 -0.1521 -0.4255  1.7697
  140OSM    C4F15361   2.821   5.145   7.111  0.6022  0.4148 -0.1845
  140OSM    H4F15362   2.755   5.076   7.054  0.1597 -0.5858  1.4638
  140OSM    H4G15363   2.898   5.082   7.160  0.2956  1.2512  1.4222
  140OSM    C5F15364   2.884   5.251   7.023 -0.0763  0.2730  0.8697
  140OSM    H5F15365   2.967   5.295   7.083  1.5138 -1.9270  0.4280
  140OSM    H5G15366   2.812   5.328   6.988 -2.2286 -1.9689  0.0400
  140OSM    C6F15367   2.965   5.194   6.907 -0.2981  0.9692 -1.1151
  140OSM    H6F15368   3.030   5.115   6.951 -1.1995  0.7863 -0.0634
  140OSM    H6G15369   3.025   5.271   6.854  1.6219 -0.2348 -0.8070
  140OSM    C7F15370   2.886   5.107   6.813 -0.0752  0.1459 -0.2146
  140OSM    H7F15371   2.791   5.150   6.776  0.1992  0.4826 -0.5376
  140OSM    H7G15372   2.867   5.006   6.854  0.2006 -0.0825 -0.6318
  140OSM    C8F15373   2.970   5.088   6.679  0.0968  0.8936 -0.4896
  140OSM    H8F15374   2.927   5.010   6.613 -0.2772  1.7394 -1.2718
  140OSM    H8G15375   3.070   5.043   6.695 -0.8508 -0.9077  0.5675
  140OSM    C9F15376   2.990   5.215   6.595 -0.0094 -0.1940 -0.2233
  140OSM    H9F15377   3.009   5.310   6.647  0.4418 -0.7443  0.6528
  140OSM   C10F15378   2.956   5.229   6.467 -0.2883  0.1772 -0.0591
  140OSM   H10F15379   2.961   5.332   6.428 -2.1161  1.6079  3.0743
  140OSM   C11F15380   2.902   5.131   6.361  0.2214  0.1328 -0.1440
  140OSM   H11F15381   2.798   5.153   6.331 -1.1318 -0.3263  3.7005
  140OSM   H11G15382   2.898   5.031   6.408 -0.2567  1.2343  2.2838
  140OSM   C12F15383   2.995   5.097   6.239 -0.6331  0.1589 -0.8983
  140OSM   H12F15384   3.035   5.190   6.194 -0.0225  0.5490  0.4112
  140OSM   H12G15385   2.950   5.033   6.160  2.4604  1.1404 -3.6756
  140OSM   C13F15386   3.132   5.036   6.269 -0.2834  0.6664 -0.5764
  140OSM   H13F15387   3.181   5.083   6.357  2.1515  0.3005 -1.6563
  140OSM   H13G15388   3.206   5.055   6.189 -0.0341 -0.7210 -0.6916
  140OSM   C14F15389   3.111   4.889   6.299 -0.2956  0.0854  0.9618
  140OSM   H14F15390   3.068   4.843   6.207 -0.6381 -1.2584  1.7738
  140OSM   H14G15391   3.034   4.881   6.379  0.8498  0.5272  2.1356
  140OSM   C15F15392   3.238   4.806   6.350  0.1503  0.7099  0.4944
  140OSM   H15F15393   3.214   4.702   6.381  1.6650 -0.1690 -1.0784
  140OSM   H15G15394   3.268   4.862   6.441  1.4993 -2.5505  2.1997
  140OSM   C16F15395   3.346   4.803   6.244  0.0146 -0.9281 -0.4203
  140OSM   H16F15396   3.349   4.898   6.188 -0.5566 -1.4190 -1.2953
  140OSM   H16G15397   3.333   4.727   6.164 -0.9745 -1.8876  0.6128
  140OSM   C17F15398   3.486   4.810   6.307  0.0437  0.4060  0.8432
  140OSM   H17F15399   3.496   4.723   6.375 -1.5164  1.0694  1.9887
  140OSM   H17G15400   3.499   4.908   6.358  1.7782  1.0892 -0.8187
  140OSM   C18F15401   3.591   4.799   6.196  0.4555 -0.7811 -0.2648
  140OSM   H18F15402   3.693   4.805   6.239  0.0999  0.1091  0.4897
  140OSM   H18G15403   3.582   4.878   6.118  1.6589 -0.8575 -0.5102
  140OSM   H18H15404   3.591   4.700   6.144 -0.1397 -1.2610  0.6327
  141OSM      N15405   2.620   3.075   7.220  0.4477  0.8583  0.1146
  141OSM    C1515406   2.651   3.117   7.078 -0.1575 -0.1164 -0.4859
  141OSM   H15A15407   2.627   3.037   7.010 -1.0427  1.7293 -2.4810
  141OSM   H15B15408   2.757   3.136   7.074 -0.1856  0.4410  1.0600
  141OSM   H15C15409   2.599   3.205   7.043  1.4072 -0.2117 -3.3730
  141OSM    C1415410   2.472   3.060   7.227 -0.1641 -0.1707 -0.1444
  141OSM   H14A15411   2.433   3.147   7.178  0.4674  0.7911  0.9925
  141OSM   H14B15412   2.428   3.048   7.325  0.8919 -2.2653  0.1238
  141OSM   H14C15413   2.443   2.974   7.169  0.6757 -0.1472 -0.6109
  141OSM    C1315414   2.688   2.943   7.248 -0.0021  0.2416 -0.5053
  141OSM   H13A15415   2.646   2.899   7.337  1.9335  1.2532  0.9803
  141OSM   H13B15416   2.793   2.934   7.274 -0.2898  1.2639  1.1099
  141OSM   H13C15417   2.671   2.878   7.163  0.2344 -3.0878  1.7946
  141OSM    C1215418   2.657   3.180   7.319  0.1425 -0.9371  0.0302
  141OSM   H12A15419   2.763   3.172   7.338 -0.1361 -1.3328  1.5883
  141OSM   H12B15420   2.622   3.152   7.417  1.1871 -1.8982  0.1549
  141OSM    C1115421   2.625   3.338   7.306 -0.1049  0.5159  0.5251
  141OSM   H11A15422   2.672   3.361   7.208 -1.1131 -0.2474 -0.1606
  141OSM   H11B15423   2.676   3.405   7.378  0.5986  1.9286 -1.1951
  141OSM      P15424   2.399   3.403   7.189 -0.0771 -0.0334  0.3688
  141OSM    O1315425   2.427   3.321   7.073 -0.2784 -0.3338  0.4192
  141OSM    O1415426   2.258   3.401   7.234 -0.4035 -0.8134 -0.6562
  141OSM    O1115427   2.442   3.555   7.164 -0.1914 -0.1280  0.1051
  141OSM    O1215428   2.488   3.360   7.306  0.0943  0.4211 -0.0632
  141OSM    C1S15429   2.521   3.599   7.049  0.0073  0.0796 -0.7717
  141OSM    H1S15430   2.597   3.525   7.016  2.1329  1.5859  0.5456
  141OSM    H1T15431   2.579   3.689   7.078 -1.1656  0.1722  1.5532
  141OSM     NF15432   2.513   3.674   6.816 -0.2124  0.8725 -0.2306
  141OSM    HNF15433   2.566   3.758   6.820  1.3160 -0.1031  1.5006
  141OSM    C2S15434   2.431   3.631   6.929  0.1320 -0.3696  0.0775
  141OSM    H2S15435   2.389   3.533   6.897  1.4263 -0.8594 -0.1988
  141OSM    C3S15436   2.310   3.718   6.978 -0.0674 -0.6410  0.7844
  141OSM    H3S15437   2.353   3.808   7.028 -2.9632  0.9459  0.6362
  141OSM     O315438   2.231   3.663   7.087  0.4175 -0.0346  0.2048
  141OSM    HO315439   2.288   3.605   7.139 -0.3043 -2.0182 -1.1231
  141OSM    C4S15440   2.222   3.761   6.862  0.3849 -0.5115  0.4879
  141OSM    H4S15441   2.163   3.676   6.826 -0.7680  0.3375  0.3204
  141OSM    C5S15442   2.200   3.886   6.817  0.7865  0.0073  0.4342
  141OSM    H5S15443   2.263   3.968   6.854  1.7891 -1.1754  1.4557
  141OSM    C6S15444   2.109   3.921   6.703 -0.1753  0.1497 -0.3609
  141OSM    H6S15445   2.167   4.001   6.652  2.0298 -1.2431 -0.2000
  141OSM    H6T15446   2.013   3.952   6.749  0.2412 -1.1420  1.4905
  141OSM    C7S15447   2.068   3.813   6.596  0.1823 -0.5673  0.3364
  141OSM    H7S15448   2.016   3.730   6.648 -0.5112 -0.6915 -0.5414
  141OSM    H7T15449   2.158   3.769   6.546 -0.6960 -1.2850 -0.6619
  141OSM    C8S15450   1.971   3.885   6.500  0.7308  0.6829 -0.7798
  141OSM    H8S15451   2.025   3.952   6.429 -0.0821  0.3815 -1.7059
  141OSM    H8T15452   1.900   3.952   6.554  2.6909  2.2133  0.0311
  141OSM    C9S15453   1.877   3.791   6.424  0.5407 -0.7911 -0.3957
  141OSM    H9S15454   1.804   3.856   6.371  2.6062  0.5179 -1.7904
  141OSM    H9T15455   1.821   3.729   6.496 -1.7101  1.1693 -0.3576
  141OSM   C10S15456   1.940   3.701   6.311  0.4059 -0.9253  0.0176
  141OSM   H10S15457   1.872   3.614   6.296 -1.3192  0.3101  0.3555
  141OSM   H10T15458   2.038   3.667   6.350  0.5401 -0.1399  0.3907
  141OSM   C11S15459   1.940   3.792   6.188 -0.1248  0.0348 -0.2199
  141OSM   H11S15460   1.987   3.885   6.227  0.6752 -1.2876  2.2165
  141OSM   H11T15461   1.836   3.816   6.159  0.4573  0.9431 -1.6545
  141OSM   C12S15462   2.024   3.744   6.071  0.1736 -0.1708  0.4162
  141OSM   H12S15463   1.991   3.647   6.030  0.5436 -1.3325  2.7244
  141OSM   H12T15464   2.132   3.721   6.086  0.4187 -0.7103 -1.7707
  141OSM   C13S15465   2.010   3.843   5.951  0.1358 -0.1913 -0.5031
  141OSM   H13S15466   2.035   3.947   5.981  1.7488 -0.3714 -1.1110
  141OSM   H13T15467   1.904   3.848   5.921 -0.2482  3.9552  0.8810
  141OSM   C14S15468   2.113   3.805   5.839  0.2539  0.0899 -0.0075
  141OSM   H14S15469   2.119   3.695   5.826  0.7416 -0.0920  1.5537
  141OSM   H14T15470   2.214   3.836   5.873  1.2790 -0.9395 -1.9722
  141OSM   C15S15471   2.080   3.861   5.696  0.2205 -0.9912 -0.1980
  141OSM   H15S15472   2.088   3.969   5.717  0.8602 -1.3489  1.5184
  141OSM   H15T15473   1.975   3.845   5.663 -0.1404 -0.4772  0.6829
  141OSM   C16S15474   2.177   3.821   5.586  0.2811 -0.2868 -0.9230
  141OSM   H16S15475   2.135   3.739   5.524 -0.3529 -0.1098 -0.7255
  141OSM   H16T15476   2.249   3.761   5.645 -0.4676  0.5611  0.9245
  141OSM   C17S15477   2.228   3.935   5.503 -0.8270 -0.0968  0.3930
  141OSM   H17S15478   2.312   3.981   5.560  0.4281 -1.3910 -0.3565
  141OSM   H17T15479   2.146   4.007   5.481 -1.3930 -0.8133  0.1240
  141OSM   C18S15480   2.283   3.898   5.367 -0.9380  0.2331  0.2466
  141OSM   H18S15481   2.316   3.992   5.318  5.3439 -0.3577  2.5159
  141OSM   H18T15482   2.211   3.834   5.312 -0.2851 -0.8790  0.6604
  141OSM   H18U15483   2.376   3.838   5.376 -2.9538 -3.2202 -0.3438
  141OSM    C1F15484   2.562   3.581   6.730  0.1400  0.3469 -0.3749
  141OSM     OF15485   2.528   3.464   6.738  0.3190 -0.0017  0.0088
  141OSM    C2F15486   2.672   3.624   6.632 -0.6214  0.2604  0.3471
  141OSM    H2F15487   2.764   3.587   6.681 -0.0234  1.1944 -0.0348
  141OSM    H2G15488   2.664   3.735   6.643 -2.8476  0.1780  0.0465
  141OSM    C3F15489   2.658   3.573   6.490  0.3537  0.1173  0.5055
  141OSM    H3F15490   2.690   3.468   6.478 -1.5363 -0.5225  0.7349
  141OSM    H3G15491   2.724   3.633   6.423 -0.1995 -0.2419 -0.3786
  141OSM    C4F15492   2.509   3.585   6.424 -0.6318  0.1146 -0.0125
  141OSM    H4F15493   2.471   3.689   6.429 -2.4025 -0.5461  1.2446
  141OSM    H4G15494   2.444   3.520   6.486  0.9564 -0.7864  0.7955
  141OSM    C5F15495   2.492   3.521   6.287 -0.0726  0.3141 -0.1447
  141OSM    H5F15496   2.389   3.536   6.250 -1.3491  0.0218  3.0107
  141OSM    H5G15497   2.511   3.413   6.300 -0.0002  0.0033 -2.3547
  141OSM    C6F15498   2.575   3.585   6.178  0.8791 -0.1473 -0.0859
  141OSM    H6F15499   2.683   3.588   6.203  0.9633 -0.0615 -0.4421
  141OSM    H6G15500   2.545   3.692   6.170  1.7027  0.0262 -1.3319
  141OSM    C7F15501   2.551   3.532   6.038  0.2045 -0.0091 -0.3396
  141OSM    H7F15502   2.442   3.537   6.018 -0.1196  0.7662  1.5013
  141OSM    H7G15503   2.579   3.424   6.039 -0.6310 -0.2288  0.0003
  141OSM    C8F15504   2.646   3.599   5.933 -0.3569 -0.2387 -0.3468
  141OSM    H8F15505   2.751   3.592   5.968 -1.1838 -0.6341  2.2809
  141OSM    H8G15506   2.631   3.709   5.935 -0.3337 -0.2338 -0.4290
  141OSM    C9F15507   2.629   3.535   5.796 -0.1380  0.2667 -0.5192
  141OSM    H9F15508   2.569   3.443   5.792 -0.0424  0.1533  0.3896
  141OSM   C10F15509   2.657   3.584   5.679 -0.2297 -0.7088  0.0076
  141OSM   H10F15510   2.641   3.523   5.590  0.0587 -1.3374  0.3816
  141OSM   C11F15511   2.730   3.712   5.644  0.2359 -0.2691  0.7880
  141OSM   H11F15512   2.784   3.691   5.549 -1.9914 -0.2286 -0.5549
  141OSM   H11G15513   2.805   3.751   5.716  0.5861 -0.2306  0.4060
  141OSM   C12F15514   2.643   3.831   5.611 -0.0754 -0.6784 -0.0096
  141OSM   H12F15515   2.569   3.844   5.693 -0.4447  1.1262 -0.5715
  141OSM   H12G15516   2.591   3.815   5.515 -3.1098 -1.7800  1.6873
  141OSM   C13F15517   2.726   3.970   5.604 -0.4074  0.6136 -0.2842
  141OSM   H13F15518   2.824   3.956   5.554 -0.2040  2.1834 -0.3767
  141OSM   H13G15519   2.746   4.001   5.708 -1.7927 -1.2632  0.5824
  141OSM   C14F15520   2.641   4.069   5.527  0.4513  0.8827  0.7518
  141OSM   H14F15521   2.542   4.072   5.578 -0.5016 -0.1842 -0.9533
  141OSM   H14G15522   2.622   4.031   5.425 -0.3783 -0.1524  1.2656
  141OSM   C15F15523   2.704   4.205   5.502  0.2224  0.0800 -0.2599
  141OSM   H15F15524   2.746   4.247   5.596  0.5752  1.0803 -0.8439
  141OSM   H15G15525   2.633   4.280   5.461  0.8522 -0.0398 -1.6487
  141OSM   C16F15526   2.813   4.207   5.388  0.1853  0.4218  0.7614
  141OSM   H16F15527   2.761   4.181   5.293 -0.1903 -0.6955  1.2609
  141OSM   H16G15528   2.883   4.127   5.418 -0.4885 -0.5839 -0.2799
  141OSM   C17F15529   2.895   4.337   5.382 -0.3367 -1.0613  0.2235
  141OSM   H17F15530   2.944   4.350   5.481 -1.3209 -0.4806  0.6509
  141OSM   H17G15531   2.819   4.414   5.355  0.0885 -0.3714  0.9328
  141OSM   C18F15532   3.007   4.324   5.279 -0.0578 -0.5314 -0.4040
  141OSM   H18F15533   2.962   4.313   5.178 -0.8770 -3.2279  0.1890
  141OSM   H18G15534   3.078   4.244   5.309  1.0987  0.9763  1.0909
  141OSM   H18H15535   3.080   4.408   5.275 -1.2261  0.6293  1.2357
  142OSM      N15536   3.064   3.275   7.856 -0.3145 -0.0510 -0.5569
  142OSM    C1515537   3.138   3.176   7.938 -0.5378  0.7524  0.6911
  142OSM   H15A15538   3.211   3.213   8.008  0.7118 -2.4521  1.2596
  142OSM   H15B15539   3.172   3.095   7.875 -1.6136 -0.1949  1.2808
  142OSM   H15C15540   3.069   3.135   8.010 -0.4472 -1.1861 -0.2544
  142OSM    C1415541   2.924   3.231   7.835 -0.1476 -0.3152 -0.0559
  142OSM   H14A15542   2.860   3.301   7.784 -1.9887 -2.1843 -0.4416
  142OSM   H14B15543   2.878   3.201   7.929  0.6167 -3.2834 -0.5316
  142OSM   H14C15544   2.921   3.136   7.784 -2.5434 -0.3009 -0.0563
  142OSM    C1315545   3.066   3.404   7.928  0.6186 -0.6904 -1.1210
  142OSM   H13A15546   2.994   3.473   7.886  0.9603 -0.4783 -1.3652
  142OSM   H13B15547   3.157   3.458   7.949 -0.5224  1.3903 -1.1709
  142OSM   H13C15548   3.019   3.390   8.024  0.3430  3.3763 -0.4776
  142OSM    C1215549   3.127   3.294   7.717 -0.1863  0.1394  0.0078
  142OSM   H12A15550   3.202   3.370   7.732  0.3304 -0.7282  2.1510
  142OSM   H12B15551   3.047   3.334   7.655  0.5915  0.7635 -0.6107
  142OSM    C1115552   3.180   3.169   7.640  0.8913 -0.8947 -0.0546
  142OSM   H11A15553   3.255   3.112   7.700  3.2312  1.7679 -0.2290
  142OSM   H11B15554   3.234   3.209   7.552  1.1387 -2.7314 -0.7816
  142OSM      P15555   2.990   3.085   7.482  0.3309 -0.5021  0.3048
  142OSM    O1315556   2.947   2.950   7.456 -0.5971 -0.0017  0.5033
  142OSM    O1415557   2.882   3.181   7.500  0.2477 -0.8801 -0.4205
  142OSM    O1115558   3.082   3.144   7.370 -0.0878 -0.3667 -0.1459
  142OSM    O1215559   3.073   3.078   7.611 -0.0873 -0.0259 -0.4892
  142OSM    C1S15560   3.064   3.101   7.233  0.4713 -0.7290 -0.4347
  142OSM    H1S15561   2.958   3.110   7.204 -0.5896  0.5472  3.2678
  142OSM    H1T15562   3.101   2.998   7.212  1.7031 -0.1707 -1.1682
  142OSM     NF15563   3.102   3.170   6.999 -0.2959  0.5592  0.5172
  142OSM    HNF15564   3.154   3.112   6.936  0.4190  0.9719  0.7167
  142OSM    C2S15565   3.143   3.194   7.132  0.3712  1.0338  0.0575
  142OSM    H2S15566   3.126   3.301   7.158 -0.6033  1.0674 -0.6651
  142OSM    C3S15567   3.293   3.162   7.154 -0.0077 -0.0967  0.0822
  142OSM    H3S15568   3.312   3.052   7.149 -0.9855 -0.2409 -0.8221
  142OSM     O315569   3.345   3.213   7.273 -0.5273  0.3274 -0.0654
  142OSM    HO315570   3.264   3.227   7.323  0.2114 -0.5862  1.4500
  142OSM    C4S15571   3.380   3.229   7.054  0.4197 -0.3089  0.4099
  142OSM    H4S15572   3.397   3.336   7.072  0.2640 -0.5068  1.8494
  142OSM    C5S15573   3.447   3.169   6.948  0.2991 -0.6860 -0.1668
  142OSM    H5S15574   3.446   3.060   6.932  1.7237 -0.9527  1.3639
  142OSM    C6S15575   3.541   3.243   6.856  0.0559 -0.0020 -0.7707
  142OSM    H6S15576   3.640   3.196   6.876  0.9619  1.6850 -1.1069
  142OSM    H6T15577   3.571   3.341   6.899  1.8315 -0.5497 -0.6657
  142OSM    C7S15578   3.502   3.243   6.712  0.5783  0.3898 -0.1580
  142OSM    H7S15579   3.398   3.282   6.708  1.0238  1.7206  0.7309
  142OSM    H7T15580   3.505   3.140   6.670  0.9414  0.6152 -0.7067
  142OSM    C8S15581   3.588   3.343   6.632  0.0076 -0.7777  0.6656
  142OSM    H8S15582   3.689   3.304   6.611  0.3234  1.4327 -2.7864
  142OSM    H8T15583   3.605   3.433   6.695  0.6832 -0.0236 -0.5372
  142OSM    C9S15584   3.521   3.396   6.499  0.0004  0.4243 -0.0952
  142OSM    H9S15585   3.558   3.499   6.480  1.7721 -0.2985 -0.7618
  142OSM    H9T15586   3.412   3.400   6.523  0.1965  1.6070  0.6646
  142OSM   C10S15587   3.547   3.299   6.378 -0.2031  0.7302  0.4288
  142OSM   H10S15588   3.498   3.200   6.389  1.7218 -0.1812  1.2457
  142OSM   H10T15589   3.654   3.283   6.354 -1.1185 -2.7333 -2.0758
  142OSM   C11S15590   3.475   3.354   6.251 -0.3811  0.2733 -0.3594
  142OSM   H11S15591   3.520   3.456   6.243 -0.0786  0.2727  1.0019
  142OSM   H11T15592   3.366   3.365   6.266 -0.3161 -0.1024  0.4456
  142OSM   C12S15593   3.503   3.279   6.120  0.0420 -0.1576  1.2092
  142OSM   H12S15594   3.433   3.193   6.129 -0.2366 -0.1132 -0.2445
  142OSM   H12T15595   3.607   3.239   6.108  0.2766  0.8813 -0.5535
  142OSM   C13S15596   3.468   3.360   5.996 -0.6282 -0.2337 -0.9440
  142OSM   H13S15597   3.536   3.447   6.000  0.2777 -0.8348 -2.5374
  142OSM   H13T15598   3.365   3.400   6.010 -0.2000  0.0864  2.1378
  142OSM   C14S15599   3.494   3.294   5.865  0.7623  0.5277 -0.5300
  142OSM   H14S15600   3.426   3.207   5.867 -0.6315  1.5714 -0.7865
  142OSM   H14T15601   3.601   3.268   5.850  1.3825  3.5014 -2.2177
  142OSM   C15S15602   3.451   3.381   5.752  0.3280  0.1175  0.0111
  142OSM   H15S15603   3.504   3.479   5.751  1.6438 -0.5501  0.7344
  142OSM   H15T15604   3.340   3.382   5.752  0.2355 -0.6628  2.9940
  142OSM   C16S15605   3.502   3.336   5.615  0.8971  0.4197  1.4488
  142OSM   H16S15606   3.609   3.308   5.619  1.1107  1.1374  1.0138
  142OSM   H16T15607   3.493   3.422   5.546  0.6922 -0.7196  0.0272
  142OSM   C17S15608   3.434   3.210   5.565  0.3089  0.5258  0.1647
  142OSM   H17S15609   3.332   3.244   5.537  0.3691 -0.1958 -0.9996
  142OSM   H17T15610   3.414   3.142   5.651 -2.4973  0.8332 -0.1480
  142OSM   C18S15611   3.501   3.140   5.448  0.2639  0.5618  0.2639
  142OSM   H18S15612   3.610   3.136   5.467  0.3801  1.4480 -0.1426
  142OSM   H18T15613   3.477   3.209   5.364  0.3693  1.2713  0.8104
  142OSM   H18U15614   3.468   3.040   5.414 -0.2362  0.9001 -0.2708
  142OSM    C1F15615   2.988   3.216   6.954  0.4081  0.0558  0.0645
  142OSM     OF15616   2.909   3.288   7.019 -0.2502 -0.6573 -0.1641
  142OSM    C2F15617   2.951   3.163   6.823 -0.8097 -0.1533 -0.3441
  142OSM    H2F15618   2.910   3.061   6.835 -5.3735  1.4601 -0.1531
  142OSM    H2G15619   3.035   3.176   6.752 -0.6168  0.3837 -0.0285
  142OSM    C3F15620   2.832   3.242   6.757 -0.1668  0.1449  0.1503
  142OSM    H3F15621   2.871   3.346   6.752 -0.1287  0.1299  0.1347
  142OSM    H3G15622   2.735   3.252   6.810 -0.2226 -0.0145  0.0789
  142OSM    C4F15623   2.807   3.188   6.618  0.1908 -0.9529  0.3225
  142OSM    H4F15624   2.905   3.210   6.569  0.0142 -1.7334 -0.4029
  142OSM    H4G15625   2.730   3.246   6.564  2.1407  0.1789 -1.4067
  142OSM    C5F15626   2.782   3.034   6.603 -0.4513  0.5947  0.3531
  142OSM    H5F15627   2.687   3.009   6.654 -0.8407  2.5781  0.7034
  142OSM    H5G15628   2.854   2.966   6.653 -1.0273 -1.1289 -1.0919
  142OSM    C6F15629   2.749   2.992   6.459 -0.2063  0.3318  0.5023
  142OSM    H6F15630   2.738   2.881   6.465  0.8265  0.2526  1.1699
  142OSM    H6G15631   2.842   3.012   6.402  0.6034 -1.0842  1.2735
  142OSM    C7F15632   2.610   3.044   6.411 -0.1711  0.0853  0.6328
  142OSM    H7F15633   2.587   3.151   6.431  0.1437  0.7282 -2.0998
  142OSM    H7G15634   2.535   2.974   6.453  0.3184 -1.2130 -0.5855
  142OSM    C8F15635   2.603   3.028   6.254 -0.4279 -0.3958 -0.0626
  142OSM    H8F15636   2.498   3.042   6.221 -0.4176  1.9745  0.6995
  142OSM    H8G15637   2.629   2.925   6.221 -0.1835 -0.0197 -1.0857
  142OSM    C9F15638   2.684   3.138   6.189  0.3437  0.0368  0.1178
  142OSM    H9F15639   2.749   3.195   6.257  0.1591 -1.2980  1.4670
  142OSM   C10F15640   2.679   3.175   6.061 -0.2217  0.4992 -1.0700
  142OSM   H10F15641   2.756   3.249   6.035 -1.0204  0.6254 -3.3450
  142OSM   C11F15642   2.601   3.107   5.948 -0.6979 -0.6066  0.1987
  142OSM   H11F15643   2.511   3.158   5.910 -1.6784 -2.1162  0.3912
  142OSM   H11G15644   2.572   3.005   5.982  1.8731 -1.8910 -1.1424
  142OSM   C12F15645   2.672   3.089   5.814  0.6756 -0.1270 -0.4900
  142OSM   H12F15646   2.761   3.026   5.832 -0.3482 -0.8798  2.7220
  142OSM   H12G15647   2.695   3.190   5.774 -1.9196  0.0012 -1.8769
  142OSM   C13F15648   2.585   3.014   5.705 -0.3362 -0.0956 -0.1780
  142OSM   H13F15649   2.477   3.039   5.704 -1.0787 -2.8586  0.7252
  142OSM   H13G15650   2.594   2.903   5.710  2.5751  0.1081  0.7003
  142OSM   C14F15651   2.639   3.054   5.569 -0.0860  0.3618 -0.0893
  142OSM   H14F15652   2.736   3.004   5.550  0.3359  0.5978  1.3763
  142OSM   H14G15653   2.645   3.165   5.576 -0.0223  0.5326 -2.1378
  142OSM   C15F15654   2.539   3.009   5.460 -0.5363  0.0943  0.8720
  142OSM   H15F15655   2.445   3.067   5.461  0.2857  1.9256 -3.3764
  142OSM   H15G15656   2.515   2.901   5.463 -0.5338  0.0406 -0.3659
  142OSM   C16F15657   2.599   3.045   5.320  0.6286  0.0147  0.1788
  142OSM   H16F15658   2.698   2.994   5.314  0.0796 -0.9386 -1.9360
  142OSM   H16G15659   2.602   3.155   5.308  0.9007 -0.0328 -0.2426
  142OSM   C17F15660   2.523   3.001   5.200 -0.1321 -0.5278  0.1572
  142OSM   H17F15661   2.521   2.890   5.190  3.7634 -0.5126 -3.6162
  142OSM   H17G15662   2.574   3.053   5.117  2.8273 -0.3648  1.9027
  142OSM   C18F15663   2.375   3.038   5.196  0.2364 -0.2133 -0.2560
  142OSM   H18F15664   2.321   2.966   5.260  1.4645 -1.2261 -0.3244
  142OSM   H18G15665   2.336   3.038   5.092  0.3044  2.8727 -0.3890
  142OSM   H18H15666   2.359   3.146   5.218 -1.5796 -0.8916  2.1062
  143OSM      N15667   4.538   5.039   8.177 -0.3563  0.0623  0.3592
  143OSM    C1515668   4.580   4.902   8.122 -0.5674 -0.0536 -0.1688
  143OSM   H15A15669   4.652   4.846   8.179 -0.2076 -0.9971 -1.5038
  143OSM   H15B15670   4.628   4.924   8.027  0.0226 -1.6981 -0.2807
  143OSM   H15C15671   4.499   4.834   8.104 -0.6282  0.2285 -1.0292
  143OSM    C1415672   4.449   5.015   8.296  0.2616 -0.3479 -0.2118
  143OSM   H14A15673   4.417   5.113   8.327  1.8940  0.5343 -1.1834
  143OSM   H14B15674   4.493   4.968   8.383 -1.9565 -0.8729  0.7144
  143OSM   H14C15675   4.357   4.965   8.267 -0.4045  1.1369 -0.7240
  143OSM    C1315676   4.657   5.110   8.227 -0.4462 -0.1686 -0.4128
  143OSM   H13A15677   4.722   5.141   8.147 -0.2550 -1.2304 -0.6770
  143OSM   H13B15678   4.714   5.062   8.305 -0.0285  1.8191  0.5824
  143OSM   H13C15679   4.640   5.202   8.280 -0.2146 -0.3878  0.0472
  143OSM    C1215680   4.466   5.120   8.069 -0.5687  0.9163 -0.6593
  143OSM   H12A15681   4.421   5.204   8.121 -1.5998 -0.7044  1.1626
  143OSM   H12B15682   4.385   5.059   8.032 -0.8934 -0.3108  1.8867
  143OSM    C1115683   4.549   5.180   7.946 -0.3252  0.0819 -0.0906
  143OSM   H11A15684   4.487   5.225   7.866  0.8409  4.2381  1.0707
  143OSM   H11B15685   4.620   5.108   7.899 -2.8518 -1.2624 -2.0891
  143OSM      P15686   4.577   5.435   8.011 -0.0726 -0.1899 -0.1868
  143OSM    O1315687   4.460   5.437   8.097  0.1131  0.0167  0.3453
  143OSM    O1415688   4.684   5.528   8.048  0.0117  0.4676  0.6081
  143OSM    O1115689   4.519   5.465   7.871 -0.1361 -0.4039 -0.2556
  143OSM    O1215690   4.635   5.287   7.989 -0.0127  0.1470  0.4845
  143OSM    C1S15691   4.598   5.485   7.751  0.0846 -0.2298 -1.2694
  143OSM    H1S15692   4.657   5.393   7.731  1.2783 -0.0313  1.0162
  143OSM    H1T15693   4.659   5.577   7.761 -1.9309  1.0392  0.1927
  143OSM     NF15694   4.583   5.532   7.510  0.4707 -0.4514  0.1326
  143OSM    HNF15695   4.610   5.626   7.490  0.0282 -0.9306 -3.4170
  143OSM    C2S15696   4.504   5.503   7.627 -0.1905 -0.3459  0.0680
  143OSM    H2S15697   4.457   5.403   7.616 -1.1823  0.0207  0.8672
  143OSM    C3S15698   4.402   5.611   7.664 -0.4260  0.0714 -0.1236
  143OSM    H3S15699   4.453   5.701   7.705  0.3591  0.1861 -1.3091
  143OSM     O315700   4.315   5.582   7.771  0.5123  0.2919 -0.1535
  143OSM    HO315701   4.357   5.514   7.824  1.0588 -0.4737 -1.5164
  143OSM    C4S15702   4.326   5.648   7.540 -0.2194  0.3604  1.0141
  143OSM    H4S15703   4.369   5.728   7.479 -1.7810 -0.8251 -1.8156
  143OSM    C5S15704   4.206   5.593   7.506  0.6453  0.1304 -0.2373
  143OSM    H5S15705   4.161   5.519   7.573  2.5489 -1.6420 -0.8142
  143OSM    C6S15706   4.130   5.635   7.385  0.2319 -0.0982 -0.1889
  143OSM    H6S15707   4.138   5.743   7.360 -1.0058 -0.6536 -3.4438
  143OSM    H6T15708   4.020   5.633   7.403 -0.1824  2.2671 -1.9244
  143OSM    C7S15709   4.160   5.541   7.265  0.1146 -0.2128  0.3279
  143OSM    H7S15710   4.147   5.438   7.304  3.5083 -1.4426 -1.3719
  143OSM    H7T15711   4.261   5.563   7.223  0.3075  2.9270  2.1203
  143OSM    C8S15712   4.059   5.558   7.147  0.6295 -0.4631  0.1338
  143OSM    H8S15713   3.972   5.495   7.175  1.4855 -1.5488  0.4486
  143OSM    H8T15714   4.105   5.506   7.060  0.1092 -0.7670  0.0405
  143OSM    C9S15715   4.003   5.699   7.117  0.1872  0.0122  0.2882
  143OSM    H9S15716   4.079   5.780   7.110 -1.1466  1.4946  2.0390
  143OSM    H9T15717   3.941   5.722   7.206  2.1409  0.0996  1.6882
  143OSM   C10S15718   3.930   5.708   6.982  0.1919 -0.6493 -0.7239
  143OSM   H10S15719   3.860   5.793   6.974 -0.7323 -1.4049 -0.7976
  143OSM   H10T15720   3.880   5.609   6.974 -1.9338  0.4713 -1.8883
  143OSM   C11S15721   4.013   5.697   6.857 -0.2737 -0.9561  0.2493
  143OSM   H11S15722   3.941   5.659   6.782 -0.7247 -1.8236  1.0974
  143OSM   H11T15723   4.105   5.634   6.862 -0.0860 -0.6564  0.6067
  143OSM   C12S15724   4.062   5.835   6.803  0.4859 -0.4174  0.2111
  143OSM   H12S15725   4.149   5.876   6.859 -1.2392  0.4703  2.4070
  143OSM   H12T15726   3.980   5.908   6.819  0.4101 -0.5508  0.4426
  143OSM   C13S15727   4.095   5.843   6.650  0.5033 -0.2663 -0.1351
  143OSM   H13S15728   4.075   5.943   6.605  1.2759 -0.8442 -1.8321
  143OSM   H13T15729   4.042   5.764   6.593  1.1362 -1.5246  0.9793
  143OSM   C14S15730   4.243   5.811   6.628 -0.2801  0.2314 -0.8656
  143OSM   H14S15731   4.267   5.724   6.693  1.1894  0.8410 -0.5521
  143OSM   H14T15732   4.303   5.899   6.659 -0.1525  0.2455 -1.1508
  143OSM   C15S15733   4.281   5.800   6.483 -0.7695 -0.0957  0.2817
  143OSM   H15S15734   4.221   5.720   6.435  0.5631 -0.1420 -1.3784
  143OSM   H15T15735   4.384   5.758   6.482 -0.4868  0.5410  1.3112
  143OSM   C16S15736   4.280   5.925   6.392 -0.1481 -0.3083 -0.1646
  143OSM   H16S15737   4.334   6.008   6.442  0.9198 -1.3427  0.4504
  143OSM   H16T15738   4.176   5.957   6.369  1.1475  2.5745 -2.7661
  143OSM   C17S15739   4.343   5.893   6.256 -0.3635 -0.0031  0.4764
  143OSM   H17S15740   4.296   5.813   6.194  0.0121 -0.1239  0.3435
  143OSM   H17T15741   4.438   5.846   6.291  0.7233  1.5307 -0.2819
  143OSM   C18S15742   4.375   6.004   6.158  0.1264 -0.1070  0.2204
  143OSM   H18S15743   4.448   6.070   6.210  0.0159 -0.2917  0.6181
  143OSM   H18T15744   4.283   6.064   6.139  0.1877  0.1230  0.6362
  143OSM   H18U15745   4.425   5.968   6.065  0.1008 -0.7874  0.4596
  143OSM    C1F15746   4.643   5.432   7.445  0.5435 -0.0265 -0.0771
  143OSM     OF15747   4.628   5.318   7.489  0.3823 -0.2088 -0.2296
  143OSM    C2F15748   4.730   5.457   7.325 -0.3618 -0.9827  0.1852
  143OSM    H2F15749   4.747   5.367   7.262 -2.9149 -0.6472 -1.1194
  143OSM    H2G15750   4.826   5.501   7.361 -1.3927  2.4108 -0.8349
  143OSM    C3F15751   4.679   5.574   7.236  0.4166  0.5039 -0.3493
  143OSM    H3F15752   4.753   5.581   7.153 -0.5233 -0.3026 -1.2956
  143OSM    H3G15753   4.672   5.663   7.302  0.5653 -0.9556  1.6869
  143OSM    C4F15754   4.549   5.537   7.174 -0.3586 -0.3028 -0.3239
  143OSM    H4F15755   4.513   5.609   7.096  1.0856 -1.8692 -2.5687
  143OSM    H4G15756   4.478   5.529   7.259  0.4650 -1.3667  0.2844
  143OSM    C5F15757   4.544   5.395   7.112 -0.9852 -0.0488 -0.6500
  143OSM    H5F15758   4.537   5.326   7.199 -0.7794  0.2349 -0.4083
  143OSM    H5G15759   4.640   5.379   7.058 -1.2590 -1.2379 -0.8169
  143OSM    C6F15760   4.429   5.359   7.019 -0.6374 -0.0776 -0.4447
  143OSM    H6F15761   4.428   5.415   6.923 -1.7546 -0.0435 -0.4274
  143OSM    H6G15762   4.331   5.378   7.068  0.8050  1.2598  2.1308
  143OSM    C7F15763   4.433   5.203   6.989 -0.3175 -0.4288 -0.4856
  143OSM    H7F15764   4.337   5.170   6.943  0.6038 -0.7870 -2.2715
  143OSM    H7G15765   4.455   5.149   7.083 -0.8403  1.2612  0.6477
  143OSM    C8F15766   4.551   5.159   6.905  0.2729 -0.8312  0.1037
  143OSM    H8F15767   4.648   5.195   6.944  0.0767  0.2824 -0.3740
  143OSM    H8G15768   4.544   5.202   6.803 -1.9254 -0.6541  0.2796
  143OSM    C9F15769   4.563   5.010   6.906 -0.1819 -0.3308  0.3564
  143OSM    H9F15770   4.638   4.971   6.976 -0.6327  1.5901  2.0058
  143OSM   C10F15771   4.540   4.926   6.802  0.5745 -0.2347  0.4493
  143OSM   H10F15772   4.542   4.816   6.815 -4.2473 -0.6297 -0.1192
  143OSM   C11F15773   4.504   4.972   6.660 -0.2312  0.7829  0.3928
  143OSM   H11F15774   4.568   5.055   6.624 -0.2888  0.0315 -1.5535
  143OSM   H11G15775   4.394   4.991   6.654 -0.8567 -1.8923  1.6878
  143OSM   C12F15776   4.531   4.860   6.560 -0.3701  0.6790  0.2794
  143OSM   H12F15777   4.487   4.762   6.588  0.7800  0.2849  0.7594
  143OSM   H12G15778   4.641   4.845   6.557 -0.7186 -2.1711 -0.9671
  143OSM   C13F15779   4.481   4.900   6.418 -0.5433  0.0829 -0.0494
  143OSM   H13F15780   4.527   4.999   6.398 -2.1036  0.9915  0.6412
  143OSM   H13G15781   4.373   4.926   6.425 -0.2468  1.2465  0.5652
  143OSM   C14F15782   4.526   4.801   6.312 -0.2913  0.3299  0.2051
  143OSM   H14F15783   4.495   4.700   6.346  0.1745 -0.5311 -1.7977
  143OSM   H14G15784   4.637   4.791   6.310 -0.4474 -2.4492  1.0593
  143OSM   C15F15785   4.485   4.826   6.164 -0.0113  0.4375 -0.1924
  143OSM   H15F15786   4.507   4.933   6.141 -0.1841  0.6063  0.4058
  143OSM   H15G15787   4.374   4.817   6.162  0.0504 -0.8313 -2.8750
  143OSM   C16F15788   4.541   4.719   6.066 -0.1821 -0.0529 -0.0533
  143OSM   H16F15789   4.505   4.621   6.104 -2.4818 -0.6975 -3.4089
  143OSM   H16G15790   4.652   4.721   6.066 -0.1756  2.1711 -0.3620
  143OSM   C17F15791   4.497   4.740   5.923 -0.1220 -0.1895 -0.0193
  143OSM   H17F15792   4.557   4.820   5.874  2.1811 -1.6861  0.1917
  143OSM   H17G15793   4.388   4.760   5.927 -0.4453 -2.0155  1.4189
  143OSM   C18F15794   4.512   4.606   5.848 -0.7224 -0.2849 -0.2050
  143OSM   H18F15795   4.617   4.575   5.830 -0.7850 -0.8972  0.4488
  143OSM   H18G15796   4.468   4.609   5.746 -2.0137  0.9211  0.3457
  143OSM   H18H15797   4.461   4.531   5.912  1.7219 -0.4249  1.7448
  144OSM      N15798   3.959   0.221   7.925 -0.8526 -0.1352 -0.7985
  144OSM    C1515799   3.969   0.192   8.069  0.1438  0.2884 -0.2401
  144OSM   H15A15800   4.069   0.200   8.108 -0.2675 -1.8853  1.4684
  144OSM   H15B15801   3.940   0.089   8.081  0.6149  0.2730  0.9249
  144OSM   H15C15802   3.892   0.243   8.126  0.5239  0.1174  0.4356
  144OSM    C1415803   3.818   0.217   7.889  0.3975 -0.1600  0.1842
  144OSM   H14A15804   3.752   0.277   7.949 -0.2759  0.4193 -1.1056
  144OSM   H14B15805   3.774   0.120   7.874  0.2640 -0.0567 -0.1058
  144OSM   H14C15806   3.809   0.257   7.789  2.0306  0.0485  0.0867
  144OSM    C1315807   4.008   0.368   7.901  0.1661 -0.3201 -0.1216
  144OSM   H13A15808   3.941   0.434   7.954  0.0993 -1.5047  1.3376
  144OSM   H13B15809   4.006   0.399   7.797  1.5453  0.7804  0.1535
  144OSM   H13C15810   4.112   0.369   7.929  0.4237 -0.2155 -1.0418
  144OSM    C1215811   4.043   0.126   7.845 -0.0497  0.8012  0.2852
  144OSM   H12A15812   4.149   0.146   7.855  0.0379  0.5556 -0.1041
  144OSM   H12B15813   4.017   0.132   7.740 -0.8825  0.3006  0.4520
  144OSM    C1115814   4.023  -0.026   7.875  0.1748  0.9211 -0.9155
  144OSM   H11A15815   4.048  -0.052   7.980 -0.1533 -0.4140 -1.1448
  144OSM   H11B15816   4.113  -0.071   7.827  0.9659 -1.2520  2.2153
  144OSM      P15817   3.876  -0.146   7.690  0.8940  0.0621  0.2109
  144OSM    O1315818   3.771  -0.250   7.694 -0.0906  0.1186 -0.0975
  144OSM    O1415819   3.875  -0.048   7.583  0.0920 -0.2700  0.8167
  144OSM    O1115820   4.010  -0.233   7.664  0.2529 -0.1604  0.0516
  144OSM    O1215821   3.899  -0.081   7.829 -0.4817 -0.2049  0.1928
  144OSM    C1S15822   4.017  -0.294   7.535  0.4296  0.0271 -0.8435
  144OSM    H1S15823   3.974  -0.231   7.455 -1.2784 -0.3704 -0.2822
  144OSM    H1T15824   3.976  -0.397   7.527  0.6180 -0.1227  0.0174
  144OSM     NF15825   4.194  -0.374   7.378  0.2956 -0.5394  0.4588
  144OSM    HNF15826   4.242  -0.461   7.372  0.7600 -0.2653  0.1120
  144OSM    C2S15827   4.170  -0.320   7.507 -0.0851  0.4014 -0.2551
  144OSM    H2S15828   4.220  -0.221   7.517 -0.5179  0.6926 -0.9029
  144OSM    C3S15829   4.229  -0.401   7.620 -0.3635  0.5616  0.0318
  144OSM    H3S15830   4.165  -0.491   7.634  1.0060 -0.4675 -0.0186
  144OSM     O315831   4.227  -0.336   7.750 -0.0657  0.4223  0.5362
  144OSM    HO315832   4.165  -0.264   7.736  1.7788  1.8629 -0.6740
  144OSM    C4S15833   4.359  -0.464   7.588  0.2613  0.2776 -0.1851
  144OSM    H4S15834   4.350  -0.567   7.552 -3.3527 -0.4986  2.3682
  144OSM    C5S15835   4.478  -0.406   7.610  0.1648 -0.2101 -0.4930
  144OSM    H5S15836   4.481  -0.306   7.656 -0.9764  0.2458 -1.3537
  144OSM    C6S15837   4.615  -0.457   7.576  0.6317 -0.8398  0.8139
  144OSM    H6S15838   4.653  -0.520   7.659  0.9258 -0.0827  1.2624
  144OSM    H6T15839   4.679  -0.369   7.556  1.3284 -1.6887 -0.9367
  144OSM    C7S15840   4.616  -0.541   7.448 -0.2486 -1.0317 -0.3042
  144OSM    H7S15841   4.569  -0.483   7.365 -0.1739  1.7119  1.4737
  144OSM    H7T15842   4.559  -0.637   7.453  0.8262 -1.6056  2.4300
  144OSM    C8S15843   4.761  -0.586   7.405  0.1205 -0.9694 -0.5748
  144OSM    H8S15844   4.820  -0.628   7.489  0.7374  0.0004 -0.4973
  144OSM    H8T15845   4.805  -0.488   7.373 -2.0397  0.4378  0.5249
  144OSM    C9S15846   4.763  -0.680   7.287 -0.3271 -0.1070 -0.0923
  144OSM    H9S15847   4.738  -0.782   7.324 -1.1148 -0.0507 -0.4524
  144OSM    H9T15848   4.856  -0.682   7.226  0.9313 -1.0052  1.7567
  144OSM   C10S15849   4.664  -0.644   7.174  0.1885 -1.1472 -0.0732
  144OSM   H10S15850   4.666  -0.539   7.138 -0.2741 -1.8798 -2.4468
  144OSM   H10T15851   4.559  -0.660   7.209  0.4998 -2.8410  0.1678
  144OSM   C11S15852   4.696  -0.729   7.048 -0.2450  0.0717 -0.0785
  144OSM   H11S15853   4.669  -0.836   7.055 -0.6430  0.0610 -1.4460
  144OSM   H11T15854   4.799  -0.711   7.011  0.2599  0.4050  1.4228
  144OSM   C12S15855   4.596  -0.688   6.928 -0.9269 -0.8371 -0.0004
  144OSM   H12S15856   4.601  -0.578   6.919  3.1366 -0.9316 -0.5543
  144OSM   H12T15857   4.491  -0.711   6.959 -1.7292  2.0991 -0.2476
  144OSM   C13S15858   4.645  -0.737   6.786  0.3883  0.0725  0.0564
  144OSM   H13S15859   4.659  -0.847   6.793  0.1386  0.1485  2.2503
  144OSM   H13T15860   4.741  -0.684   6.764  0.1613  0.8738  0.9265
  144OSM   C14S15861   4.549  -0.687   6.678 -0.3177  0.3017  0.5290
  144OSM   H14S15862   4.544  -0.576   6.684  1.1081  0.4894 -1.0586
  144OSM   H14T15863   4.446  -0.717   6.707  0.1529  0.0610  2.0410
  144OSM   C15S15864   4.584  -0.716   6.534 -0.4050  0.7179  1.2388
  144OSM   H15S15865   4.589  -0.825   6.516 -1.6052  0.8601 -0.1678
  144OSM   H15T15866   4.684  -0.672   6.517 -1.5928  2.6581 -1.4637
  144OSM   C16S15867   4.491  -0.643   6.428 -0.5082  0.0983 -0.1745
  144OSM   H16S15868   4.452  -0.545   6.462 -1.6245  0.3864 -2.0816
  144OSM   H16T15869   4.399  -0.703   6.412 -0.6100 -0.8465  3.2332
  144OSM   C17S15870   4.578  -0.617   6.297  0.2656 -0.1355 -0.0137
  144OSM   H17S15871   4.613  -0.711   6.251  0.6093 -0.2815  0.5303
  144OSM   H17T15872   4.676  -0.572   6.327  0.0043  0.1509  0.4233
  144OSM   C18S15873   4.506  -0.532   6.186 -0.1255 -0.1195 -0.4336
  144OSM   H18S15874   4.399  -0.564   6.195  0.4539 -1.9459  0.5179
  144OSM   H18T15875   4.554  -0.545   6.087  0.9967 -0.5486  0.1523
  144OSM   H18U15876   4.505  -0.427   6.221 -0.5609 -0.7732  1.6735
  144OSM    C1F15877   4.170  -0.296   7.274  0.0373  0.9152  0.1465
  144OSM     OF15878   4.139  -0.182   7.291  0.2921  0.0003  0.7935
  144OSM    C2F15879   4.207  -0.361   7.145 -0.2671 -0.1569  1.2091
  144OSM    H2F15880   4.162  -0.462   7.140  0.0302 -0.2426 -2.7916
  144OSM    H2G15881   4.314  -0.389   7.155  0.0739  0.4604 -0.4376
  144OSM    C3F15882   4.168  -0.280   7.014  0.7923 -1.0673  0.9980
  144OSM    H3F15883   4.227  -0.187   7.023  0.5414 -1.0172  2.3530
  144OSM    H3G15884   4.060  -0.265   7.037  0.6365  0.7831 -0.7278
  144OSM    C4F15885   4.204  -0.370   6.884 -0.1258  0.3009 -0.1000
  144OSM    H4F15886   4.147  -0.465   6.888 -0.5312  0.4879 -1.1826
  144OSM    H4G15887   4.313  -0.377   6.867  0.1008  1.7572  0.5937
  144OSM    C5F15888   4.155  -0.312   6.756  0.2503 -0.2067  0.4032
  144OSM    H5F15889   4.218  -0.225   6.730 -1.0107  0.5698 -0.1290
  144OSM    H5G15890   4.055  -0.271   6.781  0.8547  0.9966  0.9042
  144OSM    C6F15891   4.157  -0.414   6.642  0.2010  0.1093  1.2840
  144OSM    H6F15892   4.098  -0.506   6.663  2.1618 -1.4060  0.4882
  144OSM    H6G15893   4.262  -0.450   6.640 -0.2296 -1.2505 -1.1074
  144OSM    C7F15894   4.114  -0.338   6.516 -0.3927 -0.4591 -0.2016
  144OSM    H7F15895   4.131  -0.228   6.528  0.0321 -0.6723  1.4196
  144OSM    H7G15896   4.004  -0.348   6.514 -0.2716 -2.2179  0.2605
  144OSM    C8F15897   4.171  -0.387   6.388  0.4392  0.8237  0.1431
  144OSM    H8F15898   4.083  -0.416   6.327  0.2077 -0.4923  1.0529
  144OSM    H8G15899   4.230  -0.481   6.395 -0.6363  0.2244  1.6876
  144OSM    C9F15900   4.252  -0.279   6.327  0.2255 -0.9196 -0.6891
  144OSM    H9F15901   4.302  -0.225   6.409 -1.3635  1.8093 -1.3947
  144OSM   C10F15902   4.234  -0.209   6.215  0.7854  0.2165 -0.5318
  144OSM   H10F15903   4.315  -0.135   6.204  0.9924  0.0358 -0.2132
  144OSM   C11F15904   4.157  -0.242   6.090  1.6127 -0.7980 -0.3362
  144OSM   H11F15905   4.145  -0.150   6.028  0.7514 -0.4136  0.3736
  144OSM   H11G15906   4.059  -0.282   6.125  2.0277 -1.1215  0.4683
  144OSM   C12F15907   4.218  -0.353   6.007  0.5571  0.1010 -0.5124
  144OSM   H12F15908   4.146  -0.378   5.926 -2.4805  0.6361  1.8130
  144OSM   H12G15909   4.213  -0.441   6.074  0.2579  2.6563  3.1384
  144OSM   C13F15910   4.357  -0.326   5.945 -0.4136 -0.0825 -0.1553
  144OSM   H13F15911   4.430  -0.381   6.008 -0.2635  0.4345  0.1309
  144OSM   H13G15912   4.372  -0.216   5.953 -0.1620 -0.0776 -0.6569
  144OSM   C14F15913   4.367  -0.359   5.802  0.4162 -0.5341  0.5946
  144OSM   H14F15914   4.286  -0.298   5.755 -1.0550 -1.1454  2.2391
  144OSM   H14G15915   4.339  -0.463   5.775  1.0072 -0.2314 -1.3311
  144OSM   C15F15916   4.489  -0.303   5.728  0.2732  0.2306 -1.0417
  144OSM   H15F15917   4.586  -0.349   5.756  0.2604  1.3613  1.0467
  144OSM   H15G15918   4.485  -0.195   5.754 -1.2609  0.1029 -0.6583
  144OSM   C16F15919   4.468  -0.344   5.579 -0.6340  0.2312 -0.0943
  144OSM   H16F15920   4.368  -0.303   5.554 -0.6076  0.3441 -0.0137
  144OSM   H16G15921   4.463  -0.455   5.577  1.5289  0.1045 -1.2034
  144OSM   C17F15922   4.577  -0.289   5.484 -0.2945  0.4084  0.2180
  144OSM   H17F15923   4.542  -0.289   5.379  1.7712  1.4879 -0.5291
  144OSM   H17G15924   4.662  -0.361   5.489  0.9832  1.9563  2.8066
  144OSM   C18F15925   4.636  -0.155   5.512 -0.1353  0.2191 -0.2082
  144OSM   H18F15926   4.709  -0.125   5.434 -0.8536 -0.6163 -1.2412
  144OSM   H18G15927   4.674  -0.153   5.616 -0.3117 -1.5787 -0.0759
  144OSM   H18H15928   4.551  -0.083   5.514  0.8809  1.4454  1.2483
  145OSM      N15929   4.502   2.968   7.631  0.0373 -0.4480 -0.2749
  145OSM    C1515930   4.469   3.016   7.500 -0.6143 -0.2619 -0.1355
  145OSM   H15A15931   4.563   3.038   7.452 -1.0202 -2.1056 -1.8734
  145OSM   H15B15932   4.406   3.104   7.498 -0.3732 -0.0836 -2.4320
  145OSM   H15C15933   4.421   2.942   7.438 -1.8050  0.7995 -0.5229
  145OSM    C1415934   4.582   2.841   7.621 -0.0058  0.0793  0.2569
  145OSM   H14A15935   4.681   2.872   7.592  0.7037 -2.0961  0.1540
  145OSM   H14B15936   4.529   2.780   7.549 -1.2413  1.4055 -0.0213
  145OSM   H14C15937   4.587   2.793   7.718  0.3434  0.5133  0.4564
  145OSM    C1315938   4.593   3.072   7.682  0.8894 -0.6439  0.3267
  145OSM   H13A15939   4.539   3.161   7.711  1.9942 -0.1384  0.8609
  145OSM   H13B15940   4.671   3.094   7.611  1.8288  0.2941  1.5958
  145OSM   H13C15941   4.653   3.042   7.767  1.2619  0.2288  0.3819
  145OSM    C1215942   4.374   2.944   7.709  0.0926 -0.0765 -0.0108
  145OSM   H12A15943   4.394   2.901   7.806  0.3589 -4.0263 -1.6285
  145OSM   H12B15944   4.326   2.861   7.658  0.8780 -1.3384  1.2236
  145OSM    C1115945   4.274   3.059   7.724 -0.2182 -0.1843  0.2944
  145OSM   H11A15946   4.334   3.138   7.773  3.4614 -1.6362 -1.4804
  145OSM   H11B15947   4.196   3.040   7.800  1.0181  1.1153  1.9682
  145OSM      P15948   4.065   3.065   7.569 -0.0314 -0.3729 -0.2088
  145OSM    O1315949   4.040   2.931   7.621 -0.4969  0.1015 -0.4959
  145OSM    O1415950   3.975   3.176   7.616 -0.1263  0.2394  0.4756
  145OSM    O1115951   4.059   3.076   7.415 -0.1069 -0.2493 -0.0168
  145OSM    O1215952   4.217   3.103   7.594  1.2025  0.0949  0.5449
  145OSM    C1S15953   4.163   3.062   7.329 -0.6988 -0.1308  0.4625
  145OSM    H1S15954   4.175   2.955   7.299 -2.3189 -0.5279  1.1435
  145OSM    H1T15955   4.259   3.092   7.375  0.3471 -0.4755 -1.3792
  145OSM     NF15956   4.247   3.109   7.096  0.0062 -0.3833  1.0082
  145OSM    HNF15957   4.301   3.192   7.081 -2.5642  1.0098 -1.3506
  145OSM    C2S15958   4.138   3.131   7.191  0.5002 -0.0688  0.3024
  145OSM    H2S15959   4.044   3.088   7.152  0.2922  1.2927 -0.7868
  145OSM    C3S15960   4.109   3.285   7.208 -0.0209  0.2136  0.5793
  145OSM    H3S15961   4.203   3.337   7.235 -0.6197  0.4156  2.4437
  145OSM     O315962   4.023   3.320   7.322 -0.7480  0.1765  0.4198
  145OSM    HO315963   4.007   3.238   7.368 -0.1437  0.0499  0.4141
  145OSM    C4S15964   4.052   3.351   7.082 -0.1720  0.7443  0.7839
  145OSM    H4S15965   3.960   3.302   7.047 -0.1877  1.5813 -0.4071
  145OSM    C5S15966   4.115   3.438   6.993 -0.4406  1.1564  0.5569
  145OSM    H5S15967   4.223   3.457   7.008  0.4881 -2.1927 -1.0285
  145OSM    C6S15968   4.058   3.494   6.870 -0.1480 -0.1228  0.2816
  145OSM    H6S15969   4.108   3.446   6.783  0.1907 -1.1098  1.0162
  145OSM    H6T15970   4.081   3.603   6.865 -0.5192 -0.0012  1.0344
  145OSM    C7S15971   3.899   3.493   6.838  0.1192  0.0009  0.4161
  145OSM    H7S15972   3.846   3.554   6.914 -1.1337  0.2319 -0.6248
  145OSM    H7T15973   3.855   3.392   6.852 -0.2935  0.1072 -0.1016
  145OSM    C8S15974   3.874   3.553   6.702 -0.1119 -0.6022 -0.3044
  145OSM    H8S15975   3.911   3.657   6.714  0.6085 -1.1058  2.4695
  145OSM    H8T15976   3.765   3.561   6.680 -0.4595  0.5012  1.6234
  145OSM    C9S15977   3.949   3.492   6.575  0.4481  0.6062 -0.7704
  145OSM    H9S15978   3.940   3.385   6.601 -0.6314  0.7832 -0.3769
  145OSM    H9T15979   4.054   3.528   6.568  0.3972  0.9522  0.1731
  145OSM   C10S15980   3.874   3.515   6.437 -0.0681 -0.4423  0.0900
  145OSM   H10S15981   3.882   3.624   6.421 -1.7834 -0.0979  1.2391
  145OSM   H10T15982   3.769   3.476   6.438  0.9884 -3.6797 -1.0992
  145OSM   C11S15983   3.932   3.448   6.312  0.3565  0.2957 -0.0214
  145OSM   H11S15984   3.904   3.340   6.316 -1.0166  0.4592 -2.7503
  145OSM   H11T15985   4.042   3.464   6.310  0.3198  0.4959 -1.3388
  145OSM   C12S15986   3.869   3.513   6.187 -0.1773 -0.0979  0.1480
  145OSM   H12S15987   3.894   3.621   6.190 -1.1582  0.3151 -3.0889
  145OSM   H12T15988   3.759   3.502   6.194 -0.9113  3.4289 -2.7755
  145OSM   C13S15989   3.915   3.441   6.054  0.4038  0.4918  0.2811
  145OSM   H13S15990   3.896   3.332   6.056  0.3598  0.5078  1.0467
  145OSM   H13T15991   4.023   3.452   6.034  0.2997 -1.8256 -2.0219
  145OSM   C14S15992   3.845   3.490   5.921 -0.5965  0.4656 -0.7479
  145OSM   H14S15993   3.735   3.493   5.935 -0.4632 -0.3787  0.6901
  145OSM   H14T15994   3.864   3.414   5.842 -0.6665 -1.8347  1.3213
  145OSM   C15S15995   3.905   3.619   5.875 -0.6178 -0.3013  0.0026
  145OSM   H15S15996   4.013   3.613   5.900 -0.2375  1.5686 -0.9719
  145OSM   H15T15997   3.866   3.702   5.938  3.2774 -0.8907  3.6513
  145OSM   C16S15998   3.911   3.653   5.722 -0.8307  0.3225 -0.4766
  145OSM   H16S15999   3.984   3.583   5.675  0.6233  0.6371  1.2143
  145OSM   H16T16000   3.947   3.758   5.718 -0.2041  0.0822 -2.5649
  145OSM   C17S16001   3.775   3.647   5.655  0.1404 -0.4490 -0.4444
  145OSM   H17S16002   3.712   3.718   5.713  0.1869 -0.7223 -0.0573
  145OSM   H17T16003   3.726   3.548   5.666 -1.8427  0.4465 -0.7653
  145OSM   C18S16004   3.781   3.681   5.504  0.1950  0.2224 -0.4632
  145OSM   H18S16005   3.863   3.617   5.465 -0.2743 -1.0944  0.6152
  145OSM   H18T16006   3.817   3.786   5.496  1.6645 -0.1861  0.3937
  145OSM   H18U16007   3.687   3.663   5.447 -1.0043 -0.7689  1.7217
  145OSM    C1F16008   4.257   2.997   7.027 -0.0387 -0.1961 -0.4959
  145OSM     OF16009   4.216   2.896   7.073  0.4673  0.9275  0.2357
  145OSM    C2F16010   4.301   3.009   6.884  0.3582  0.4638  0.5598
  145OSM    H2F16011   4.412   3.016   6.887  0.5161  1.0925 -2.5960
  145OSM    H2G16012   4.263   3.099   6.830  1.3230  1.2239  1.1103
  145OSM    C3F16013   4.285   2.888   6.790 -0.3533 -0.1399  0.5194
  145OSM    H3F16014   4.177   2.864   6.782 -0.2170 -1.2139  1.5815
  145OSM    H3G16015   4.317   2.795   6.841  1.0908  0.0432  0.0003
  145OSM    C4F16016   4.349   2.900   6.644  0.2797  0.5228  0.1714
  145OSM    H4F16017   4.458   2.921   6.641 -0.1014  2.5938 -0.5605
  145OSM    H4G16018   4.299   2.990   6.604 -2.3538 -0.5198  0.9444
  145OSM    C5F16019   4.337   2.781   6.552 -0.2923  0.8133  0.7042
  145OSM    H5F16020   4.231   2.749   6.545 -0.2367  0.5071  1.2345
  145OSM    H5G16021   4.388   2.697   6.603  0.1368  1.0268  0.6256
  145OSM    C6F16022   4.383   2.810   6.403 -0.5713  0.6549 -1.0235
  145OSM    H6F16023   4.333   2.899   6.359  0.8120  1.4200 -1.0996
  145OSM    H6G16024   4.354   2.724   6.339  0.5014 -3.7366  3.6661
  145OSM    C7F16025   4.531   2.847   6.386 -0.0614 -0.6387  0.7542
  145OSM    H7F16026   4.601   2.768   6.421 -0.0701 -1.1758 -0.3786
  145OSM    H7G16027   4.550   2.944   6.438 -1.0668  0.5324 -0.9534
  145OSM    C8F16028   4.552   2.859   6.226 -0.1171  0.3311 -0.2649
  145OSM    H8F16029   4.656   2.899   6.220  0.9613 -2.2934 -0.3314
  145OSM    H8G16030   4.472   2.927   6.190 -0.5198  0.5366  0.9589
  145OSM    C9F16031   4.542   2.743   6.136  0.2714 -0.2553 -0.2907
  145OSM    H9F16032   4.454   2.681   6.155  0.0442  0.4993  1.3000
  145OSM   C10F16033   4.594   2.735   6.008  0.3164  0.3812  0.3294
  145OSM   H10F16034   4.591   2.639   5.954 -1.7510  0.8265 -0.4561
  145OSM   C11F16035   4.691   2.827   5.944  0.2919 -0.2979  0.4335
  145OSM   H11F16036   4.770   2.844   6.021  1.7461 -2.3658 -0.5295
  145OSM   H11G16037   4.640   2.922   5.919  2.1415  0.3030 -1.3343
  145OSM   C12F16038   4.747   2.765   5.815 -0.2604 -0.1631  1.0815
  145OSM   H12F16039   4.798   2.844   5.756 -2.1586 -0.1962 -0.7269
  145OSM   H12G16040   4.654   2.739   5.760 -0.0008 -0.5956  0.8505
  145OSM   C13F16041   4.838   2.640   5.827  0.4361 -0.2893  1.0927
  145OSM   H13F16042   4.785   2.562   5.884 -1.1813 -0.2924 -0.3209
  145OSM   H13G16043   4.928   2.663   5.887 -0.2359 -1.3221  2.5266
  145OSM   C14F16044   4.860   2.576   5.687 -0.9921  0.0511 -0.3898
  145OSM   H14F16045   4.934   2.631   5.625 -1.2230  1.4771  0.5567
  145OSM   H14G16046   4.765   2.559   5.632 -0.0071 -0.2575 -2.0577
  145OSM   C15F16047   4.909   2.432   5.702  0.0749 -0.1839  0.3114
  145OSM   H15F16048   4.832   2.367   5.749 -0.1780  1.2382  1.9181
  145OSM   H15G16049   4.994   2.436   5.773  0.1077 -0.0887  0.2665
  145OSM   C16F16050   4.952   2.375   5.564  0.3026 -0.0888  0.5129
  145OSM   H16F16051   5.039   2.436   5.532  1.4128 -1.4643  0.8138
  145OSM   H16G16052   4.878   2.397   5.485  0.8098  1.9221  0.5652
  145OSM   C17F16053   4.987   2.227   5.579 -1.0361  0.2907 -0.6705
  145OSM   H17F16054   5.049   2.180   5.500  1.5514 -0.1205  1.4730
  145OSM   H17G16055   4.889   2.174   5.583 -1.2701  0.7844  0.6483
  145OSM   C18F16056   5.062   2.204   5.704 -0.1682 -0.1903 -0.1550
  145OSM   H18F16057   5.120   2.110   5.709  0.1163  0.0086  0.5061
  145OSM   H18G16058   4.991   2.215   5.790  0.1656  2.4852 -0.1205
  145OSM   H18H16059   5.142   2.280   5.721  0.2601 -0.8399  0.8369
  146OSM      N16060   2.782   1.796   7.806 -0.4603  1.3128  0.8230
  146OSM    C1516061   2.888   1.692   7.836 -0.2451  0.1092  1.0964
  146OSM   H15A16062   2.916   1.695   7.940 -2.1927  0.1211  1.6556
  146OSM   H15B16063   2.969   1.706   7.766 -1.1959  0.0580 -0.0523
  146OSM   H15C16064   2.845   1.596   7.809 -0.4425  0.2949  0.7402
  146OSM    C1416065   2.854   1.919   7.835 -0.5751 -0.0836 -0.3475
  146OSM   H14A16066   2.784   2.000   7.851 -0.1365 -0.0814  2.0236
  146OSM   H14B16067   2.925   1.958   7.763  0.7854 -0.4678  0.7334
  146OSM   H14C16068   2.917   1.911   7.923  2.6714  2.5151 -2.1819
  146OSM    C1316069   2.758   1.799   7.657 -0.5848  0.1492 -0.3555
  146OSM   H13A16070   2.731   1.704   7.615  1.1667 -0.2195 -0.7073
  146OSM   H13B16071   2.844   1.845   7.612 -1.5022  2.5263  0.1313
  146OSM   H13C16072   2.675   1.868   7.648 -1.9461 -1.2388  0.8688
  146OSM    C1216073   2.656   1.780   7.884 -1.0568  0.5460  0.5453
  146OSM   H12A16074   2.681   1.774   7.989  3.1598  1.0638 -0.2245
  146OSM   H12B16075   2.618   1.688   7.843  2.6184  0.5337 -3.6024
  146OSM    C1116076   2.543   1.886   7.866  0.1823  0.3948 -0.1972
  146OSM   H11A16077   2.579   1.987   7.894 -1.3582  0.6571  0.9540
  146OSM   H11B16078   2.464   1.864   7.941  1.0431 -0.0712  0.5944
  146OSM      P16079   2.387   1.771   7.707 -0.1660  0.0054 -0.2743
  146OSM    O1316080   2.459   1.645   7.717  0.0085  0.1601  0.1306
  146OSM    O1416081   2.267   1.796   7.790 -0.1214  0.6358 -0.3805
  146OSM    O1116082   2.351   1.798   7.558 -0.0165  0.3482  0.5525
  146OSM    O1216083   2.492   1.881   7.736  0.3259  0.2900 -0.4010
  146OSM    C1S16084   2.453   1.777   7.455 -0.3905  0.6223 -0.2188
  146OSM    H1S16085   2.517   1.690   7.480 -1.3675 -0.4414 -1.3187
  146OSM    H1T16086   2.516   1.868   7.452  1.4133 -0.5989 -0.4574
  146OSM     NF16087   2.504   1.732   7.222  0.1024 -0.7698  0.9154
  146OSM    HNF16088   2.557   1.812   7.196 -3.0942  0.3862 -2.9590
  146OSM    C2S16089   2.395   1.769   7.313 -0.0477 -0.3424 -0.4546
  146OSM    H2S16090   2.319   1.688   7.314 -0.5221  0.0542  2.4289
  146OSM    C3S16091   2.327   1.909   7.288  0.5551 -0.2297 -1.0333
  146OSM    H3S16092   2.405   1.987   7.301 -0.5966  0.7124  0.6518
  146OSM     O316093   2.224   1.951   7.376 -0.4014  1.3550 -0.0716
  146OSM    HO316094   2.231   1.876   7.436  0.8375  1.0221 -0.5940
  146OSM    C4S16095   2.292   1.923   7.147 -0.2192  0.4527  0.1488
  146OSM    H4S16096   2.374   1.971   7.091 -0.4271  1.8225  0.9540
  146OSM    C5S16097   2.183   1.876   7.084  0.6546 -0.1745 -0.0863
  146OSM    H5S16098   2.108   1.827   7.148  1.4201  1.8551  2.5801
  146OSM    C6S16099   2.152   1.874   6.937 -0.1775 -0.1877 -0.9313
  146OSM    H6S16100   2.135   1.981   6.910 -2.0202 -0.0644  0.5393
  146OSM    H6T16101   2.071   1.804   6.907 -0.3312 -0.2835 -0.2934
  146OSM    C7S16102   2.276   1.820   6.858 -0.0139 -0.5154 -0.2672
  146OSM    H7S16103   2.321   1.734   6.912  2.5028  0.6597 -0.3534
  146OSM    H7T16104   2.350   1.903   6.854  1.6235 -1.9575 -1.7750
  146OSM    C8S16105   2.236   1.789   6.712  0.2015  0.4190  0.9511
  146OSM    H8S16106   2.213   1.881   6.654 -1.1848 -0.6147 -0.1863
  146OSM    H8T16107   2.150   1.720   6.720  1.0529 -0.7413  0.4074
  146OSM    C9S16108   2.331   1.704   6.617  0.2374 -0.5487  0.0154
  146OSM    H9S16109   2.350   1.609   6.670  0.3779 -0.4855  0.0792
  146OSM    H9T16110   2.428   1.757   6.607 -0.1140  0.1355  0.1160
  146OSM   C10S16111   2.270   1.686   6.485  0.7174  0.9272  0.5215
  146OSM   H10S16112   2.169   1.642   6.502 -0.1564  3.1787  1.5268
  146OSM   H10T16113   2.331   1.601   6.446  1.5357  1.4408  0.6782
  146OSM   C11S16114   2.251   1.794   6.386 -0.2310 -0.3453 -0.1119
  146OSM   H11S16115   2.353   1.824   6.351 -0.4609 -0.3857 -0.8372
  146OSM   H11T16116   2.208   1.883   6.437  0.5737 -0.3967  0.6787
  146OSM   C12S16117   2.175   1.757   6.250 -0.4308  0.4943 -0.5347
  146OSM   H12S16118   2.064   1.753   6.260 -0.3293 -0.1753  0.5518
  146OSM   H12T16119   2.202   1.655   6.216 -0.2468  0.5488 -0.5512
  146OSM   C13S16120   2.227   1.853   6.140 -0.5803 -0.5652 -0.3822
  146OSM   H13S16121   2.334   1.849   6.113 -0.3308 -0.8214  0.6236
  146OSM   H13T16122   2.217   1.953   6.189  0.3926 -1.3536  1.5434
  146OSM   C14S16123   2.144   1.813   6.017  0.3175 -1.0025 -0.4204
  146OSM   H14S16124   2.163   1.895   5.944  2.8198 -0.9826  0.1494
  146OSM   H14T16125   2.035   1.819   6.035  0.4505  1.9467 -0.0073
  146OSM   C15S16126   2.199   1.691   5.946 -0.6232 -0.0334 -0.0603
  146OSM   H15S16127   2.163   1.600   5.999  3.8360 -1.2212  1.3502
  146OSM   H15T16128   2.309   1.692   5.953 -0.6125 -1.4169  0.2960
  146OSM   C16S16129   2.155   1.694   5.798 -0.0723 -0.2108 -0.3374
  146OSM   H16S16130   2.219   1.756   5.733  2.4951 -0.6537  1.6128
  146OSM   H16T16131   2.045   1.710   5.795 -0.4816 -1.8752  2.0933
  146OSM   C17S16132   2.168   1.551   5.736  0.7370  0.2884  0.0155
  146OSM   H17S16133   2.120   1.486   5.813 -0.6679  1.8865  0.5559
  146OSM   H17T16134   2.270   1.507   5.729  0.5361 -0.7525  2.3664
  146OSM   C18S16135   2.079   1.522   5.609  0.2180  0.6010 -0.5267
  146OSM   H18S16136   2.099   1.598   5.530 -1.0015 -0.1495 -1.5965
  146OSM   H18T16137   1.969   1.527   5.624  0.6229  1.0061  3.1025
  146OSM   H18U16138   2.094   1.420   5.569  1.1533  0.8773 -0.9126
  146OSM    C1F16139   2.542   1.608   7.201 -0.3168  0.1511 -0.8180
  146OSM     OF16140   2.493   1.511   7.257 -0.2162 -0.4390  0.7323
  146OSM    C2F16141   2.649   1.585   7.109  0.6446  0.4321 -0.2367
  146OSM    H2F16142   2.727   1.513   7.141 -0.7473 -1.2488 -0.4640
  146OSM    H2G16143   2.712   1.671   7.079  1.0611 -0.1389 -1.0470
  146OSM    C3F16144   2.595   1.531   6.977  0.7817  0.3409 -0.0136
  146OSM    H3F16145   2.531   1.609   6.931  0.3708  1.4919  2.3762
  146OSM    H3G16146   2.526   1.445   6.993  0.2586  0.6623 -0.5210
  146OSM    C4F16147   2.713   1.497   6.889 -0.9565  0.3288 -0.4886
  146OSM    H4F16148   2.765   1.406   6.926  0.1470  0.9811 -0.4205
  146OSM    H4G16149   2.796   1.570   6.886 -0.6613  0.0012 -0.3552
  146OSM    C5F16150   2.660   1.469   6.745 -0.2814  0.2520 -0.3115
  146OSM    H5F16151   2.607   1.555   6.698 -0.7344 -0.9011 -1.9816
  146OSM    H5G16152   2.582   1.390   6.749 -0.7525  0.7463  2.0285
  146OSM    C6F16153   2.765   1.405   6.647 -0.6605 -0.7857 -0.0703
  146OSM    H6F16154   2.826   1.329   6.700  1.9599 -0.9816 -3.0470
  146OSM    H6G16155   2.834   1.485   6.611 -0.3686 -0.8667  0.3111
  146OSM    C7F16156   2.704   1.335   6.528 -0.0210 -0.5189 -0.3808
  146OSM    H7F16157   2.646   1.247   6.563 -0.7484  0.6927  1.6892
  146OSM    H7G16158   2.785   1.296   6.463 -0.6580 -2.9709  0.2025
  146OSM    C8F16159   2.604   1.417   6.445  0.0486  0.1309  0.1793
  146OSM    H8F16160   2.518   1.440   6.510 -0.2056  0.9028 -0.4092
  146OSM    H8G16161   2.565   1.345   6.369  3.0584 -0.2633 -1.1390
  146OSM    C9F16162   2.652   1.548   6.377  0.5542 -0.2243 -0.8084
  146OSM    H9F16163   2.726   1.599   6.440 -1.2692  1.6321 -0.0565
  146OSM   C10F16164   2.612   1.598   6.255  0.1274  0.0124  0.5001
  146OSM   H10F16165   2.637   1.703   6.231 -1.5544  1.0839  3.0659
  146OSM   C11F16166   2.501   1.544   6.168 -0.4713  0.0410 -0.6397
  146OSM   H11F16167   2.439   1.621   6.117 -1.3177 -0.4808 -0.4062
  146OSM   H11G16168   2.430   1.492   6.236 -0.1123 -0.3935 -0.5898
  146OSM   C12F16169   2.555   1.444   6.067  0.0528  0.0296  0.5414
  146OSM   H12F16170   2.462   1.395   6.029 -0.1131 -0.4440  1.5215
  146OSM   H12G16171   2.606   1.363   6.123  1.9926  0.2136 -0.8980
  146OSM   C13F16172   2.645   1.491   5.955 -0.7956  0.8347  0.0100
  146OSM   H13F16173   2.736   1.544   5.990 -0.3887 -0.6691  1.3485
  146OSM   H13G16174   2.592   1.547   5.874 -0.7389 -0.5199 -0.9878
  146OSM   C14F16175   2.710   1.365   5.884 -0.3533  0.0592 -0.7068
  146OSM   H14F16176   2.788   1.409   5.819 -0.3261  2.1176  0.6171
  146OSM   H14G16177   2.767   1.305   5.958 -0.9902  1.6699  1.1944
  146OSM   C15F16178   2.612   1.279   5.815 -0.0990  0.2892 -0.2150
  146OSM   H15F16179   2.567   1.353   5.745 -0.8034  0.2326  0.1715
  146OSM   H15G16180   2.521   1.245   5.868 -0.3668  1.8368  0.3742
  146OSM   C16F16181   2.688   1.162   5.747 -0.3346 -0.0055 -0.1347
  146OSM   H16F16182   2.738   1.108   5.830  3.7865  0.9833 -1.7366
  146OSM   H16G16183   2.771   1.205   5.688 -0.1441  0.5765  0.5486
  146OSM   C17F16184   2.584   1.078   5.672  0.6316  0.1512  0.1679
  146OSM   H17F16185   2.532   1.143   5.599  2.0605 -0.3091 -1.2941
  146OSM   H17G16186   2.501   1.062   5.745  1.5903 -0.3534  1.1678
  146OSM   C18F16187   2.640   0.944   5.620 -0.1414  0.2803  0.0967
  146OSM   H18F16188   2.559   0.875   5.588  1.2447 -2.0580  1.2950
  146OSM   H18G16189   2.684   0.907   5.716  0.3146  1.6734  0.4437
  146OSM   H18H16190   2.718   0.964   5.543 -0.3816  4.9164  0.8001
  147OSM      N16191   5.569   4.901   3.062 -0.4114  0.0186 -0.2237
  147OSM    C1516192   5.481   4.984   3.145  0.6614  0.1421  0.2225
  147OSM   H15A16193   5.528   5.050   3.216  0.1253  1.4779 -0.6281
  147OSM   H15B16194   5.412   4.914   3.189  0.8605  0.3624  0.8928
  147OSM   H15C16195   5.413   5.047   3.089 -1.7809 -0.2108  2.5705
  147OSM    C1416196   5.651   4.989   2.977 -0.7275  0.0420  0.5848
  147OSM   H14A16197   5.724   4.932   2.921  1.5655  1.9524  1.4543
  147OSM   H14B16198   5.696   5.072   3.030 -0.6437  2.2054 -2.5887
  147OSM   H14C16199   5.596   5.029   2.894 -1.7427  2.5372  2.3315
  147OSM    C1316200   5.666   4.823   3.153  0.7010  0.7419  1.0014
  147OSM   H13A16201   5.611   4.751   3.213  2.4975 -0.5455  1.1941
  147OSM   H13B16202   5.721   4.887   3.220  1.4590  0.9973  0.1509
  147OSM   H13C16203   5.725   4.756   3.091 -0.7889  0.7952 -0.5547
  147OSM    C1216204   5.493   4.805   2.972 -0.0246 -0.3859 -0.2491
  147OSM   H12A16205   5.564   4.761   2.903 -0.5713  0.3222 -1.2848
  147OSM   H12B16206   5.428   4.869   2.915  0.6786 -0.6194 -1.3552
  147OSM    C1116207   5.422   4.688   3.045 -0.1155 -0.6527 -0.6172
  147OSM   H11A16208   5.501   4.615   3.074  2.1163  0.9614 -2.1840
  147OSM   H11B16209   5.358   4.646   2.964 -0.6764  0.6089 -0.8460
  147OSM      P16210   5.322   4.658   3.288 -0.1657  0.1774  0.1330
  147OSM    O1316211   5.235   4.734   3.377  0.6762 -0.1538 -0.2920
  147OSM    O1416212   5.286   4.520   3.263 -0.2330 -0.1360 -0.0230
  147OSM    O1116213   5.465   4.658   3.351 -0.6059 -0.3535  0.4401
  147OSM    O1216214   5.336   4.732   3.149 -0.5885  0.0910 -0.0954
  147OSM    C1S16215   5.500   4.705   3.487 -0.2363 -0.0706  0.5273
  147OSM    H1S16216   5.407   4.742   3.536 -1.7458 -1.3310 -1.2509
  147OSM    H1T16217   5.577   4.785   3.492  1.1001 -1.3363  1.1287
  147OSM     NF16218   5.560   4.614   3.714 -0.6156 -0.1779  0.0386
  147OSM    HNF16219   5.649   4.634   3.755 -1.2355  0.5040  1.0986
  147OSM    C2S16220   5.568   4.588   3.567  0.3051 -0.7068  0.6336
  147OSM    H2S16221   5.499   4.502   3.550 -1.7850  0.8092  1.1013
  147OSM    C3S16222   5.703   4.553   3.512 -0.2593 -0.3495 -0.7350
  147OSM    H3S16223   5.760   4.649   3.513  0.5150 -0.7999 -0.3217
  147OSM     O316224   5.705   4.521   3.377 -0.1067 -0.0197  0.2434
  147OSM    HO316225   5.625   4.559   3.340 -1.0547 -1.4902  0.6764
  147OSM    C4S16226   5.774   4.454   3.598 -0.5322  0.3099 -0.1207
  147OSM    H4S16227   5.698   4.380   3.627 -0.2017 -1.0264 -2.4126
  147OSM    C5S16228   5.894   4.452   3.655 -0.5106  0.0731 -0.0908
  147OSM    H5S16229   5.952   4.542   3.632 -1.0952  0.2877 -0.7873
  147OSM    C6S16230   5.952   4.351   3.750 -0.3816  0.3791 -0.6778
  147OSM    H6S16231   6.051   4.317   3.714 -0.6484  0.1776 -1.2498
  147OSM    H6T16232   5.886   4.261   3.758 -0.2071  0.3495  0.5513
  147OSM    C7S16233   5.961   4.400   3.901  0.6168  0.7159 -0.6833
  147OSM    H7S16234   5.858   4.432   3.924 -0.4640 -2.3250 -0.9347
  147OSM    H7T16235   6.037   4.481   3.905 -0.2799  1.6537 -1.9958
  147OSM    C8S16236   6.001   4.282   3.992 -0.2491 -0.6727  0.7247
  147OSM    H8S16237   6.105   4.258   3.960 -0.3491  0.5531 -0.6554
  147OSM    H8T16238   5.939   4.193   3.969 -1.1033 -0.2217  1.2330
  147OSM    C9S16239   6.007   4.315   4.135  0.2558 -0.2050 -0.0350
  147OSM    H9S16240   5.911   4.361   4.166  0.1005  1.0754 -2.2140
  147OSM    H9T16241   6.085   4.391   4.160 -0.6831  1.6350 -2.2966
  147OSM   C10S16242   6.027   4.184   4.215  0.1361 -0.5339 -0.0640
  147OSM   H10S16243   6.117   4.133   4.174 -1.0135 -0.8381 -2.4426
  147OSM   H10T16244   5.939   4.123   4.186 -2.1051  1.8853  1.1842
  147OSM   C11S16245   6.034   4.207   4.365  0.0444  0.5267 -0.4171
  147OSM   H11S16246   5.937   4.249   4.399  1.4407  1.2764  3.0911
  147OSM   H11T16247   6.119   4.272   4.395  0.6488 -0.4926  0.1622
  147OSM   C12S16248   6.061   4.074   4.435 -0.4038  0.2175  0.3453
  147OSM   H12S16249   6.169   4.052   4.416 -0.5028 -0.2574  0.3215
  147OSM   H12T16250   6.001   3.993   4.388 -0.3136 -0.9411  2.1140
  147OSM   C13S16251   6.055   4.076   4.590 -0.0019 -0.7540  0.7595
  147OSM   H13S16252   5.951   4.109   4.615  0.1778  0.1939  0.2719
  147OSM   H13T16253   6.135   4.145   4.624  0.1031  0.3595 -1.5919
  147OSM   C14S16254   6.069   3.946   4.668 -0.6097  0.9305 -0.1305
  147OSM   H14S16255   6.170   3.905   4.651 -2.1582 -1.7717 -4.3560
  147OSM   H14T16256   5.993   3.884   4.616 -0.9327 -0.2989  1.7134
  147OSM   C15S16257   6.037   3.961   4.818  0.2773  0.6858  0.4663
  147OSM   H15S16258   5.929   3.969   4.843 -0.0604 -0.4483 -0.5425
  147OSM   H15T16259   6.097   4.044   4.862  1.4352  0.7162 -1.1070
  147OSM   C16S16260   6.091   3.838   4.897  0.3449  0.2654 -0.4771
  147OSM   H16S16261   6.201   3.846   4.887  0.2557  2.7005 -0.2499
  147OSM   H16T16262   6.055   3.757   4.830  0.2043 -0.7140  0.7443
  147OSM   C17S16263   6.050   3.818   5.043 -0.0060 -0.3211 -0.3101
  147OSM   H17S16264   5.945   3.851   5.059  0.4778  0.0642  2.4505
  147OSM   H17T16265   6.119   3.887   5.097  2.0598 -1.1211 -1.7785
  147OSM   C18S16266   6.064   3.666   5.069 -0.9744 -0.4491  0.1195
  147OSM   H18S16267   6.172   3.640   5.060 -0.8048  0.4877 -0.8178
  147OSM   H18T16268   6.004   3.609   4.995  1.0653  1.2579 -3.1158
  147OSM   H18U16269   6.030   3.653   5.173  0.7939  0.3780  0.8514
  147OSM    C1F16270   5.448   4.638   3.783  0.3013 -0.1108 -0.4537
  147OSM     OF16271   5.336   4.618   3.736 -0.2537  0.6088  0.4419
  147OSM    C2F16272   5.457   4.684   3.923 -0.2392 -0.3055  0.2487
  147OSM    H2F16273   5.453   4.795   3.921  0.4062 -0.2743  0.5119
  147OSM    H2G16274   5.551   4.649   3.971 -0.5116 -0.4983  0.6517
  147OSM    C3F16275   5.329   4.648   4.005 -0.2488  0.0969  0.0698
  147OSM    H3F16276   5.303   4.540   3.997 -0.2063  0.1145 -0.3202
  147OSM    H3G16277   5.244   4.703   3.958  1.3945  2.4773 -0.2500
  147OSM    C4F16278   5.338   4.691   4.152 -0.1607  0.3164  0.5689
  147OSM    H4F16279   5.230   4.700   4.178 -1.2911  2.6825 -4.0095
  147OSM    H4G16280   5.385   4.791   4.162 -1.7038  1.0944  0.3143
  147OSM    C5F16281   5.403   4.590   4.247 -0.2024 -0.0743  0.4854
  147OSM    H5F16282   5.514   4.589   4.236  0.3468 -1.8016  4.4561
  147OSM    H5G16283   5.363   4.491   4.217  0.3262  0.7404 -3.3706
  147OSM    C6F16284   5.371   4.604   4.398  0.2625 -1.1328 -0.3464
  147OSM    H6F16285   5.388   4.511   4.456  0.3300  0.3329  2.1470
  147OSM    H6G16286   5.273   4.651   4.423  2.2192  1.8333  2.6377
  147OSM    C7F16287   5.462   4.717   4.458  0.3330 -0.0267  1.0368
  147OSM    H7F16288   5.437   4.808   4.399 -0.5701 -0.1208  1.2548
  147OSM    H7G16289   5.567   4.695   4.429  1.2101 -1.7334  4.8939
  147OSM    C8F16290   5.461   4.738   4.609 -0.2047 -0.4512  0.2590
  147OSM    H8F16291   5.362   4.777   4.640 -0.2139 -0.6105  0.4347
  147OSM    H8G16292   5.540   4.811   4.636 -0.8957  0.5903 -0.4630
  147OSM    C9F16293   5.483   4.612   4.682 -0.2186 -0.5515 -0.2289
  147OSM    H9F16294   5.571   4.560   4.642 -0.0056 -1.3758  1.2568
  147OSM   C10F16295   5.426   4.560   4.784 -0.3535  0.3645  0.1604
  147OSM   H10F16296   5.454   4.459   4.819  0.7900  1.0039  1.1134
  147OSM   C11F16297   5.307   4.601   4.855  0.0122 -0.3717 -0.2400
  147OSM   H11F16298   5.239   4.514   4.865  0.4485 -0.9698 -2.1522
  147OSM   H11G16299   5.259   4.680   4.795  0.9054  1.8917  1.8609
  147OSM   C12F16300   5.327   4.663   4.993 -0.5090 -0.3780 -0.5347
  147OSM   H12F16301   5.230   4.709   5.023 -1.7786 -1.9802 -1.9733
  147OSM   H12G16302   5.412   4.734   4.987 -0.4188  0.0416  3.4170
  147OSM   C13F16303   5.369   4.558   5.098  0.4136  0.8115 -0.3842
  147OSM   H13F16304   5.461   4.513   5.055  0.4634  0.6448 -0.1091
  147OSM   H13G16305   5.286   4.486   5.114  0.5184  0.6171 -0.7159
  147OSM   C14F16306   5.413   4.609   5.238 -0.2735 -0.1433  0.3539
  147OSM   H14F16307   5.334   4.674   5.282 -1.5511 -0.1663 -1.7226
  147OSM   H14G16308   5.504   4.665   5.208  0.5231 -2.5416 -2.1510
  147OSM   C15F16309   5.463   4.504   5.341 -0.3865  0.1589 -1.1005
  147OSM   H15F16310   5.530   4.429   5.293  0.1769 -1.5199  2.0065
  147OSM   H15G16311   5.383   4.437   5.379  2.0829 -1.3321  1.9798
  147OSM   C16F16312   5.543   4.574   5.448 -0.1865  0.9708 -0.4372
  147OSM   H16F16313   5.490   4.668   5.476 -1.8120  0.6706 -2.3103
  147OSM   H16G16314   5.641   4.599   5.402 -0.2288  0.2502 -0.9315
  147OSM   C17F16315   5.567   4.478   5.568 -0.2287 -1.0751 -0.2609
  147OSM   H17F16316   5.465   4.452   5.603 -0.0357 -0.4859  0.8183
  147OSM   H17G16317   5.620   4.544   5.641  2.2255 -1.5990 -1.4882
  147OSM   C18F16318   5.648   4.353   5.545  0.1957  0.2592 -0.5765
  147OSM   H18F16319   5.640   4.300   5.642 -2.0262  2.1874  0.3936
  147OSM   H18G16320   5.754   4.378   5.523  0.1276  0.2953 -0.8705
  147OSM   H18H16321   5.617   4.293   5.457  0.0037  1.2683 -1.2252
  148OSM      N16322   5.998   2.684   2.997  0.0543 -0.3023 -0.5417
  148OSM    C1516323   6.022   2.552   2.936  0.6559  0.1955  0.5170
  148OSM   H15A16324   5.957   2.480   2.981 -0.5996  0.4653 -0.7938
  148OSM   H15B16325   6.118   2.521   2.975 -0.6363 -0.3355  3.5178
  148OSM   H15C16326   6.003   2.571   2.831  2.1594  1.2603  0.3975
  148OSM    C1416327   5.859   2.718   2.958  0.1971 -0.4879 -0.2988
  148OSM   H14A16328   5.863   2.718   2.850  0.5541 -2.7977 -0.3403
  148OSM   H14B16329   5.834   2.819   2.986  2.1191 -0.2658  0.7392
  148OSM   H14C16330   5.785   2.644   2.988 -0.2860 -0.1683 -0.6793
  148OSM    C1316331   6.007   2.667   3.145 -0.6618 -0.2455  0.2540
  148OSM   H13A16332   5.954   2.746   3.196  0.1636  0.7650 -0.4045
  148OSM   H13B16333   6.111   2.676   3.174 -0.3547  1.5820 -1.2366
  148OSM   H13C16334   5.947   2.583   3.178 -1.3122 -0.2891 -1.0070
  148OSM    C1216335   6.091   2.788   2.947  0.6554 -0.1158  0.4846
  148OSM   H12A16336   6.083   2.795   2.839 -0.1247 -0.1209  0.5316
  148OSM   H12B16337   6.190   2.752   2.970  1.2789  1.3833  0.3062
  148OSM    C1116338   6.091   2.934   3.005 -0.3139 -0.1038  0.0803
  148OSM   H11A16339   6.004   2.994   2.970  1.1061  1.9878 -0.0236
  148OSM   H11B16340   6.175   2.989   2.957  0.2390 -0.1896  0.9175
  148OSM      P16341   6.234   2.937   3.218  0.4614  0.2980 -0.2210
  148OSM    O1316342   6.311   2.814   3.185 -0.2648 -0.3995 -0.4628
  148OSM    O1416343   6.302   3.067   3.179  0.5493 -0.2205 -0.2060
  148OSM    O1116344   6.195   2.951   3.371 -0.3098 -0.5222 -0.1706
  148OSM    O1216345   6.092   2.935   3.147  0.3140 -0.0971  0.2489
  148OSM    C1S16346   6.179   3.084   3.423  0.5210 -0.0798  0.1076
  148OSM    H1S16347   6.094   3.136   3.374  0.2113  1.1703  1.9086
  148OSM    H1T16348   6.265   3.150   3.400  1.5351 -1.8019 -1.3857
  148OSM     NF16349   6.126   3.219   3.627  0.0974  0.2485 -0.4648
  148OSM    HNF16350   6.191   3.265   3.687 -1.0340 -0.4874  1.4059
  148OSM    C2S16351   6.142   3.078   3.576  0.3147 -0.7894 -0.4350
  148OSM    H2S16352   6.039   3.037   3.586  0.6483 -1.2735  1.2683
  148OSM    C3S16353   6.232   2.983   3.660 -0.0665  0.1529 -0.1271
  148OSM    H3S16354   6.339   3.014   3.652  0.6961 -2.3761 -0.6565
  148OSM     O316355   6.249   2.857   3.613  0.0790 -0.1590 -0.1163
  148OSM    HO316356   6.202   2.869   3.530  0.4461  1.5485 -0.1322
  148OSM    C4S16357   6.193   2.974   3.805  0.2893  0.0102 -0.7204
  148OSM    H4S16358   6.144   2.879   3.832  1.0396 -0.6525 -1.6641
  148OSM    C5S16359   6.237   3.060   3.904 -0.8210  0.8293 -0.0257
  148OSM    H5S16360   6.327   3.122   3.894  0.4427 -0.6459  1.6296
  148OSM    C6S16361   6.199   3.053   4.050  0.0281  0.5603 -0.3267
  148OSM    H6S16362   6.089   3.064   4.053 -0.1749 -1.2603  0.5376
  148OSM    H6T16363   6.250   3.135   4.104 -1.3377  0.7963  0.6620
  148OSM    C7S16364   6.234   2.915   4.114  0.8408 -0.0761 -0.9673
  148OSM    H7S16365   6.343   2.911   4.094  2.0011 -1.3049  4.2697
  148OSM    H7T16366   6.194   2.819   4.076 -1.4070 -1.5206  4.1631
  148OSM    C8S16367   6.222   2.921   4.271  0.2352 -0.4229  0.1214
  148OSM    H8S16368   6.117   2.908   4.304  0.1585 -0.4971 -0.1468
  148OSM    H8T16369   6.259   3.017   4.311 -0.1760 -0.1527 -0.1406
  148OSM    C9S16370   6.294   2.797   4.339 -0.0718 -0.4452 -0.3286
  148OSM    H9S16371   6.384   2.787   4.274  2.1656  1.2697  2.2804
  148OSM    H9T16372   6.229   2.707   4.333 -0.4585 -0.0799 -4.8647
  148OSM   C10S16373   6.332   2.824   4.488  0.1396 -0.0599  0.1182
  148OSM   H10S16374   6.361   2.931   4.500  0.1445 -0.1048  0.4950
  148OSM   H10T16375   6.421   2.761   4.508  0.1686 -0.1589 -0.2985
  148OSM   C11S16376   6.221   2.779   4.577 -0.1275 -0.6068  1.2095
  148OSM   H11S16377   6.199   2.676   4.544 -0.7331  0.2214 -1.2137
  148OSM   H11T16378   6.136   2.846   4.551 -1.2166 -0.9386  3.6435
  148OSM   C12S16379   6.274   2.780   4.720  0.1523 -0.1621 -0.0316
  148OSM   H12S16380   6.292   2.887   4.744  0.9470 -0.7340  2.1025
  148OSM   H12T16381   6.373   2.731   4.729  0.4924  0.2897 -1.0851
  148OSM   C13S16382   6.165   2.741   4.819 -0.0847 -0.0090  0.2537
  148OSM   H13S16383   6.146   2.632   4.817  0.0967 -0.0719  1.3451
  148OSM   H13T16384   6.075   2.793   4.782 -0.8085 -0.9346  0.6831
  148OSM   C14S16385   6.201   2.761   4.968 -0.8800  0.2229  0.4581
  148OSM   H14S16386   6.239   2.865   4.979 -3.0968  1.4449 -2.2008
  148OSM   H14T16387   6.287   2.696   4.994  0.7025  1.6193 -1.0265
  148OSM   C15S16388   6.090   2.726   5.069  0.0695 -0.5055  0.2124
  148OSM   H15S16389   6.020   2.649   5.030 -2.4617  0.7710  1.9420
  148OSM   H15T16390   6.033   2.821   5.077  0.4995 -0.1803 -0.4813
  148OSM   C16S16391   6.157   2.690   5.208 -0.3462 -0.6733  0.0408
  148OSM   H16S16392   6.254   2.741   5.227 -0.8374  0.2806  0.0489
  148OSM   H16T16393   6.172   2.581   5.193  0.5863 -0.3961 -1.2788
  148OSM   C17S16394   6.075   2.720   5.325  1.1884 -0.1565 -0.1418
  148OSM   H17S16395   5.981   2.664   5.307  1.2969 -0.2321 -0.4810
  148OSM   H17T16396   6.060   2.830   5.331  0.8815 -0.2489  1.0095
  148OSM   C18S16397   6.136   2.664   5.451  0.4842  0.0938 -0.0735
  148OSM   H18S16398   6.148   2.554   5.443  0.4173  0.0800  0.0151
  148OSM   H18T16399   6.067   2.671   5.538 -1.0494  1.0447 -1.3123
  148OSM   H18U16400   6.234   2.711   5.472  0.5513 -0.3468  0.6650
  148OSM    C1F16401   6.024   3.296   3.579 -0.8111 -0.4158 -0.0794
  148OSM     OF16402   5.917   3.253   3.538  0.5689  0.5565  0.8248
  148OSM    C2F16403   6.047   3.445   3.583 -0.4302  0.3168  0.3497
  148OSM    H2F16404   6.080   3.466   3.479  1.7163 -1.7425  0.5360
  148OSM    H2G16405   6.128   3.467   3.656 -1.4879  0.0087  1.6587
  148OSM    C3F16406   5.921   3.523   3.625 -0.2596 -0.2135  0.4075
  148OSM    H3F16407   5.837   3.495   3.558 -0.4541  1.9322 -0.3159
  148OSM    H3G16408   5.943   3.631   3.611  1.5241 -0.5492  0.4788
  148OSM    C4F16409   5.881   3.506   3.772 -0.1782  0.0002 -0.2059
  148OSM    H4F16410   5.842   3.402   3.776 -1.2506  0.4274  0.6723
  148OSM    H4G16411   5.788   3.564   3.790 -1.1286 -1.4083 -0.3948
  148OSM    C5F16412   5.982   3.538   3.877  0.2619  0.5624 -0.2183
  148OSM    H5F16413   5.989   3.648   3.870  0.0254  0.4663 -3.3209
  148OSM    H5G16414   6.084   3.496   3.862  0.5904  0.1340  2.5689
  148OSM    C6F16415   5.930   3.500   4.011  0.3447 -0.1299 -0.3202
  148OSM    H6F16416   5.825   3.535   4.020  0.5545  1.2300 -2.4168
  148OSM    H6G16417   5.990   3.541   4.094 -0.2296  0.4175 -0.1683
  148OSM    C7F16418   5.921   3.350   4.035  1.0248  0.5499  0.0331
  148OSM    H7F16419   6.011   3.293   4.004  1.3900  1.6354 -0.9900
  148OSM    H7G16420   5.842   3.304   3.972  0.7999  0.6454  0.2415
  148OSM    C8F16421   5.876   3.311   4.184  0.2863  0.3764 -0.0527
  148OSM    H8F16422   5.811   3.222   4.194 -0.2390  0.6570 -0.8709
  148OSM    H8G16423   5.804   3.387   4.223 -0.9839 -0.6595 -0.3262
  148OSM    C9F16424   5.997   3.303   4.269 -0.2070 -1.8803  0.2557
  148OSM    H9F16425   6.070   3.385   4.257 -0.5421 -1.0563  3.1901
  148OSM   C10F16426   6.016   3.229   4.377  0.1040  0.1372 -0.5338
  148OSM   H10F16427   6.109   3.237   4.436 -0.6472  0.7440  0.6056
  148OSM   C11F16428   5.932   3.122   4.426 -0.0639  0.5429  1.0209
  148OSM   H11F16429   6.003   3.039   4.446  0.2975  0.6703  0.3227
  148OSM   H11G16430   5.852   3.090   4.355  1.4320 -1.5355  0.1632
  148OSM   C12F16431   5.852   3.151   4.558 -0.3008 -0.0852  0.0390
  148OSM   H12F16432   5.778   3.068   4.566 -1.9471  1.3137  0.0288
  148OSM   H12G16433   5.789   3.242   4.539  0.3791  0.7901  1.7420
  148OSM   C13F16434   5.938   3.162   4.689  0.6925 -0.2652  0.0947
  148OSM   H13F16435   5.964   3.270   4.691 -2.2319  0.6537  5.1886
  148OSM   H13G16436   6.024   3.094   4.669  0.6153 -0.3321 -0.0141
  148OSM   C14F16437   5.853   3.133   4.815  0.5850  0.5027 -0.6222
  148OSM   H14F16438   5.785   3.051   4.784  1.9667 -0.9804  0.1047
  148OSM   H14G16439   5.799   3.227   4.843 -0.1705  0.2941 -1.3507
  148OSM   C15F16440   5.933   3.081   4.938 -0.1615  0.7333  0.1105
  148OSM   H15F16441   5.982   2.991   4.895  2.1997  1.6539  0.6729
  148OSM   H15G16442   5.859   3.051   5.015  0.9792 -0.4294  0.7999
  148OSM   C16F16443   6.042   3.179   4.997  0.1100  0.2758  0.0798
  148OSM   H16F16444   5.996   3.280   5.008 -1.1623 -0.4214  1.6131
  148OSM   H16G16445   6.124   3.188   4.922 -0.2014 -1.3540 -0.4904
  148OSM   C17F16446   6.098   3.123   5.128  0.0278  0.1775  0.2978
  148OSM   H17F16447   6.197   3.169   5.146  0.4627  0.2655 -1.9657
  148OSM   H17G16448   6.116   3.014   5.113 -0.7182  0.0953 -0.0855
  148OSM   C18F16449   6.001   3.148   5.241 -0.3034  0.8543 -0.3311
  148OSM   H18F16450   6.001   3.258   5.258 -0.5390  0.6912  0.8466
  148OSM   H18G16451   6.031   3.108   5.341 -0.5604 -0.6354 -0.8382
  148OSM   H18H16452   5.898   3.113   5.221 -0.2271 -0.5616  1.4441
  149OSM      N16453   2.077   2.738   2.625 -0.2624  0.0105  0.1552
  149OSM    C1516454   2.038   2.720   2.478  0.1308  0.2301  0.4741
  149OSM   H15A16455   1.953   2.654   2.470  0.6646 -0.3509 -0.5923
  149OSM   H15B16456   2.114   2.668   2.422 -0.8351 -0.6298 -0.0893
  149OSM   H15C16457   2.006   2.815   2.438 -1.8447  0.5871  2.6778
  149OSM    C1416458   1.965   2.802   2.700  0.3712  0.3823 -0.3051
  149OSM   H14A16459   1.871   2.749   2.706  0.0683  1.0141  0.8386
  149OSM   H14B16460   1.939   2.896   2.654 -0.4879 -0.2448 -1.1573
  149OSM   H14C16461   1.990   2.812   2.804 -2.2605 -0.6059  0.5214
  149OSM    C1316462   2.116   2.610   2.690  0.5442  0.9509 -0.9391
  149OSM   H13A16463   2.053   2.528   2.659  2.1218  0.1632 -2.2115
  149OSM   H13B16464   2.125   2.627   2.797  4.0877 -0.1304 -0.9400
  149OSM   H13C16465   2.215   2.577   2.664 -0.3842 -1.1181 -2.0780
  149OSM    C1216466   2.198   2.834   2.635  0.2015  0.0790  0.1159
  149OSM   H12A16467   2.170   2.933   2.605  0.7110  0.6224  1.3833
  149OSM   H12B16468   2.271   2.804   2.560 -1.5191  1.4236 -2.2296
  149OSM    C1116469   2.266   2.851   2.770  0.2090 -0.5842  0.6422
  149OSM   H11A16470   2.187   2.879   2.843  0.8893 -0.1401  1.2199
  149OSM   H11B16471   2.327   2.944   2.759 -0.9413 -0.0859 -2.9649
  149OSM      P16472   2.463   2.721   2.885 -0.3167  0.1358 -0.3560
  149OSM    O1316473   2.469   2.585   2.944 -0.3482 -0.3827 -0.5203
  149OSM    O1416474   2.579   2.753   2.803  0.5609 -0.2596 -0.3801
  149OSM    O1116475   2.434   2.820   3.004 -0.7229 -0.7078  0.7977
  149OSM    O1216476   2.328   2.729   2.807  0.0316  0.2177  0.3212
  149OSM    C1S16477   2.323   2.815   3.096 -1.2012 -0.3263 -0.1265
  149OSM    H1S16478   2.339   2.731   3.166  0.9045 -0.6821 -0.9584
  149OSM    H1T16479   2.229   2.802   3.038  0.4138  0.5561 -3.1678
  149OSM     NF16480   2.208   2.912   3.287 -0.3925 -0.0262 -0.2026
  149OSM    HNF16481   2.113   2.925   3.261 -0.0482  1.1199 -0.9344
  149OSM    C2S16482   2.309   2.937   3.185  0.1326  0.4660 -0.5161
  149OSM    H2S16483   2.402   2.961   3.241 -0.6364  0.9125  0.6134
  149OSM    C3S16484   2.268   3.052   3.093  0.0475  0.3179  0.4455
  149OSM    H3S16485   2.170   3.023   3.050  0.1194 -0.2540  0.6695
  149OSM     O316486   2.355   3.073   2.981  0.1929 -0.4441 -0.1160
  149OSM    HO316487   2.425   3.009   2.996  0.9460  0.4089  0.0387
  149OSM    C4S16488   2.254   3.183   3.172  0.4303 -0.4465 -0.0343
  149OSM    H4S16489   2.327   3.212   3.249  0.3930  2.4023 -0.9577
  149OSM    C5S16490   2.141   3.261   3.175 -0.3809  0.9050  0.0457
  149OSM    H5S16491   2.062   3.236   3.103 -0.1468  1.2524 -0.3354
  149OSM    C6S16492   2.115   3.384   3.267  0.4976  0.2006  0.0794
  149OSM    H6S16493   2.012   3.424   3.259  1.5295  3.0761  0.1289
  149OSM    H6T16494   2.170   3.471   3.226  0.3396  0.4466  0.3938
  149OSM    C7S16495   2.163   3.364   3.415  0.4144 -0.7423 -0.1131
  149OSM    H7S16496   2.271   3.340   3.420 -0.1993 -3.6221  3.6802
  149OSM    H7T16497   2.111   3.278   3.462 -0.4272 -0.2017 -0.0378
  149OSM    C8S16498   2.138   3.487   3.507  0.1647 -0.4323  0.0065
  149OSM    H8S16499   2.029   3.509   3.502  0.2337 -0.1462 -0.2764
  149OSM    H8T16500   2.195   3.569   3.458  1.7238 -0.9369  0.8868
  149OSM    C9S16501   2.171   3.462   3.655 -0.0133  0.5737  0.3846
  149OSM    H9S16502   2.281   3.445   3.657 -0.0619  0.2338  0.2891
  149OSM    H9T16503   2.116   3.370   3.685 -0.0421  0.9450  1.4875
  149OSM   C10S16504   2.137   3.577   3.746 -0.2793 -0.0300 -0.7333
  149OSM   H10S16505   2.042   3.622   3.710 -0.5770 -0.7929 -0.9102
  149OSM   H10T16506   2.219   3.652   3.738  1.1503 -1.2280  1.6526
  149OSM   C11S16507   2.126   3.535   3.890  0.3100  0.6244 -0.0834
  149OSM   H11S16508   2.221   3.502   3.936  0.5097  2.1840  0.7113
  149OSM   H11T16509   2.054   3.453   3.909 -2.7202  3.3001  0.8948
  149OSM   C12S16510   2.066   3.654   3.969  0.3292  0.2353 -0.9456
  149OSM   H12S16511   1.959   3.659   3.940  0.3844 -1.5437 -1.6224
  149OSM   H12T16512   2.112   3.749   3.934  0.1559  0.1937 -1.2906
  149OSM   C13S16513   2.088   3.629   4.114 -0.0015  1.0075 -0.0506
  149OSM   H13S16514   2.195   3.602   4.123 -0.6148 -1.2125  1.4951
  149OSM   H13T16515   2.027   3.539   4.138  1.2963  0.4464  1.3485
  149OSM   C14S16516   2.046   3.745   4.198 -0.5344  0.7892  0.5608
  149OSM   H14S16517   2.117   3.829   4.185 -2.1182  1.9869 -0.8461
  149OSM   H14T16518   2.063   3.719   4.305 -0.3713 -1.9294 -0.0485
  149OSM   C15S16519   1.897   3.792   4.178 -0.0109 -0.5275  0.8085
  149OSM   H15S16520   1.892   3.837   4.076  1.6754 -2.7797 -0.3844
  149OSM   H15T16521   1.889   3.876   4.249  0.1345 -0.9710  1.3569
  149OSM   C16S16522   1.793   3.691   4.211  0.4931  0.0625  0.5425
  149OSM   H16S16523   1.813   3.651   4.312  1.2949  0.0282  0.3761
  149OSM   H16T16524   1.802   3.604   4.142 -0.3152  2.3154 -2.6455
  149OSM   C17S16525   1.641   3.738   4.213  0.6412 -0.7152 -0.2224
  149OSM   H17S16526   1.623   3.786   4.115 -0.4514 -1.3289 -0.3474
  149OSM   H17T16527   1.628   3.818   4.288 -0.1333  0.2022 -1.3052
  149OSM   C18S16528   1.545   3.627   4.233 -0.0452  0.1243 -0.5632
  149OSM   H18S16529   1.442   3.665   4.249  0.5851  0.9474  2.0365
  149OSM   H18T16530   1.566   3.576   4.330  1.6088  1.5651 -0.1128
  149OSM   H18U16531   1.539   3.559   4.146  1.4167  1.8227 -2.0971
  149OSM    C1F16532   2.238   2.846   3.401 -0.4629 -0.4527  0.3459
  149OSM     OF16533   2.347   2.799   3.424 -0.1862 -0.6614 -0.7522
  149OSM    C2F16534   2.124   2.840   3.502 -0.3205  0.3058 -0.2713
  149OSM    H2F16535   2.114   2.732   3.524  2.5236 -0.4772 -2.2694
  149OSM    H2G16536   2.033   2.889   3.462 -0.9295 -0.4164  0.2043
  149OSM    C3F16537   2.170   2.913   3.631 -0.2012 -0.1304  0.6761
  149OSM    H3F16538   2.251   2.855   3.681 -2.3018 -2.4339  1.5684
  149OSM    H3G16539   2.099   2.909   3.716 -0.2236 -0.6203  0.6385
  149OSM    C4F16540   2.236   3.049   3.617  0.0029  0.2819 -0.3180
  149OSM    H4F16541   2.155   3.107   3.568 -2.3335 -1.8613  0.8295
  149OSM    H4G16542   2.327   3.048   3.553  0.4858 -2.1452  0.3119
  149OSM    C5F16543   2.265   3.131   3.745 -0.7260 -0.0047 -0.1199
  149OSM    H5F16544   2.177   3.132   3.812 -0.6655  4.3142  0.2036
  149OSM    H5G16545   2.277   3.237   3.714  2.9047  0.1340  1.1553
  149OSM    C6F16546   2.394   3.079   3.818  0.6906  0.3806 -0.4355
  149OSM    H6F16547   2.464   3.039   3.741 -0.1176 -1.9594 -0.0486
  149OSM    H6G16548   2.371   2.996   3.887  1.0181  0.7127  0.0763
  149OSM    C7F16549   2.445   3.196   3.907  0.5910  0.5672 -0.6809
  149OSM    H7F16550   2.450   3.284   3.839  0.0891  0.6487 -0.6159
  149OSM    H7G16551   2.549   3.170   3.937  0.5896  0.5055 -0.7288
  149OSM    C8F16552   2.368   3.218   4.036 -0.3839 -0.8165  0.6478
  149OSM    H8F16553   2.373   3.119   4.084  1.7700 -1.2520 -0.3487
  149OSM    H8G16554   2.261   3.235   4.010 -0.4159  0.5720  1.5753
  149OSM    C9F16555   2.418   3.340   4.105  0.1127 -0.4621 -0.1368
  149OSM    H9F16556   2.347   3.423   4.090  0.6459  0.0021 -0.1224
  149OSM   C10F16557   2.519   3.356   4.190  0.6371 -0.2205 -0.3426
  149OSM   H10F16558   2.533   3.455   4.234 -3.5801 -0.4114  1.9696
  149OSM   C11F16559   2.622   3.257   4.229 -0.2487 -0.2398 -0.4710
  149OSM   H11F16560   2.698   3.241   4.149 -1.2440  1.2564 -1.7692
  149OSM   H11G16561   2.575   3.159   4.251 -0.4392  0.1394  0.9079
  149OSM   C12F16562   2.710   3.288   4.353  0.0289  0.2623  0.0987
  149OSM   H12F16563   2.781   3.367   4.317  0.5478 -0.6574 -0.9690
  149OSM   H12G16564   2.774   3.202   4.384  1.3929  1.6831  1.4113
  149OSM   C13F16565   2.618   3.330   4.474  0.5391 -0.1983  0.3648
  149OSM   H13F16566   2.552   3.417   4.453  0.0147  0.0577  2.7761
  149OSM   H13G16567   2.673   3.372   4.562  0.6118 -1.1707  0.8011
  149OSM   C14F16568   2.523   3.224   4.536  0.1128  0.3716 -0.2110
  149OSM   H14F16569   2.594   3.141   4.554  2.1194  1.6476 -1.7605
  149OSM   H14G16570   2.444   3.197   4.462  0.6680 -0.3521 -0.5626
  149OSM   C15F16571   2.473   3.267   4.672 -0.0708  0.3077 -0.4841
  149OSM   H15F16572   2.409   3.358   4.665 -0.0562  0.3234 -0.4073
  149OSM   H15G16573   2.560   3.296   4.734 -0.7315 -0.4746  0.8493
  149OSM   C16F16574   2.393   3.160   4.759 -0.0237  0.7666  0.5321
  149OSM   H16F16575   2.331   3.214   4.834 -1.3081 -2.7487  2.2392
  149OSM   H16G16576   2.460   3.083   4.804 -0.4353 -0.1595 -0.4148
  149OSM   C17F16577   2.290   3.087   4.672  0.7177 -0.1341 -0.2572
  149OSM   H17F16578   2.357   3.027   4.606 -1.0892 -0.3726 -1.9685
  149OSM   H17G16579   2.222   3.156   4.618  0.2220 -0.4247 -0.0085
  149OSM   C18F16580   2.215   2.977   4.754  0.1340  0.2815  0.2029
  149OSM   H18F16581   2.283   2.893   4.781  1.1137  1.3738  1.2942
  149OSM   H18G16582   2.132   2.930   4.698 -0.6987  1.2950  0.5591
  149OSM   H18H16583   2.174   3.021   4.847 -2.0954  1.2003 -1.1373
  150OSM      N16584   4.203   5.748   3.257 -0.1824  0.5172  0.5249
  150OSM    C1516585   4.054   5.747   3.287  0.0129 -0.7094 -0.7217
  150OSM   H15A16586   4.013   5.830   3.232  0.0032 -0.5140 -0.4204
  150OSM   H15B16587   4.034   5.759   3.392 -0.9175 -0.5593 -0.9128
  150OSM   H15C16588   4.003   5.663   3.243  1.0916 -1.3750 -0.7535
  150OSM    C1416589   4.261   5.650   3.350  0.4405 -0.0076 -0.1040
  150OSM   H14A16590   4.368   5.658   3.364  0.4610 -2.5755  1.9513
  150OSM   H14B16591   4.235   5.548   3.325 -1.7008  0.9280 -2.0385
  150OSM   H14C16592   4.233   5.670   3.453  0.2735 -1.4703  0.1591
  150OSM    C1316593   4.215   5.692   3.124  0.1906  0.5256 -0.0387
  150OSM   H13A16594   4.161   5.599   3.115  0.7986  0.0417  1.0795
  150OSM   H13B16595   4.319   5.674   3.101 -0.1889 -2.4322  0.1128
  150OSM   H13C16596   4.184   5.755   3.042  1.8853  0.4337 -0.7848
  150OSM    C1216597   4.269   5.884   3.266  0.0560  0.2858 -0.0147
  150OSM   H12A16598   4.259   5.930   3.363 -1.4946 -0.0437  0.0035
  150OSM   H12B16599   4.216   5.949   3.199 -2.1954  0.4805  1.8191
  150OSM    C1116600   4.422   5.894   3.229 -0.2781  0.3176 -0.3140
  150OSM   H11A16601   4.437   6.004   3.236  2.0898 -0.0228  1.1069
  150OSM   H11B16602   4.428   5.864   3.122  0.5525 -1.1350  0.1145
  150OSM      P16603   4.591   5.884   3.419  0.4291 -0.3091  0.4319
  150OSM    O1316604   4.694   5.789   3.456  0.5561 -0.1614  0.0008
  150OSM    O1416605   4.623   6.015   3.368 -0.4656  0.7018  0.0990
  150OSM    O1116606   4.491   5.917   3.544  0.5574 -0.0488 -0.2096
  150OSM    O1216607   4.498   5.816   3.319 -0.4277  0.2395 -0.2282
  150OSM    C1S16608   4.459   5.813   3.636  0.7363  0.4009 -0.3785
  150OSM    H1S16609   4.539   5.797   3.712 -0.1828 -1.2072  0.3170
  150OSM    H1T16610   4.437   5.713   3.594  1.3628  0.1246 -0.0620
  150OSM     NF16611   4.295   5.743   3.808 -0.4344 -0.3592 -0.0030
  150OSM    HNF16612   4.217   5.687   3.783 -0.5862  0.3456 -1.1761
  150OSM    C2S16613   4.328   5.851   3.713  0.6733 -0.3229  0.4853
  150OSM    H2S16614   4.356   5.941   3.771 -1.8455  0.2101  1.0169
  150OSM    C3S16615   4.211   5.903   3.622  0.4659 -0.3906  0.0692
  150OSM    H3S16616   4.180   5.836   3.538  1.0127 -0.4076 -0.1236
  150OSM     O316617   4.244   6.023   3.562 -0.5051 -0.5259  0.1721
  150OSM    HO316618   4.338   6.005   3.550 -0.1653  0.8797  0.4712
  150OSM    C4S16619   4.091   5.933   3.700  0.8477  0.1233 -0.2794
  150OSM    H4S16620   4.111   6.009   3.777 -1.2207  1.5842 -1.1187
  150OSM    C5S16621   3.967   5.879   3.681  0.3004 -0.4074 -0.5665
  150OSM    H5S16622   3.948   5.810   3.597  0.1662  0.3958 -1.2117
  150OSM    C6S16623   3.841   5.902   3.765  0.1723 -0.6689 -0.4096
  150OSM    H6S16624   3.788   5.805   3.774 -0.4591 -0.3972 -1.1004
  150OSM    H6T16625   3.775   5.973   3.711 -1.1945 -1.2552  0.4425
  150OSM    C7S16626   3.857   5.966   3.907  0.2121  0.3221  0.1067
  150OSM    H7S16627   3.931   6.050   3.904  0.7030 -0.0747  0.8776
  150OSM    H7T16628   3.897   5.877   3.959  0.4271  1.0726  1.2758
  150OSM    C8S16629   3.733   6.006   3.981  0.5121 -0.7472  0.1421
  150OSM    H8S16630   3.643   5.966   3.930  0.8638  0.4450 -1.4946
  150OSM    H8T16631   3.723   6.117   3.975 -0.5735 -0.8328  0.0553
  150OSM    C9S16632   3.727   5.955   4.130 -0.4347  0.0351 -0.0962
  150OSM    H9S16633   3.717   5.844   4.128 -3.6563  0.2229  0.3983
  150OSM    H9T16634   3.631   5.998   4.165 -0.4214  0.3160 -0.3998
  150OSM   C10S16635   3.852   6.001   4.212  0.3749  0.0497 -0.0951
  150OSM   H10S16636   3.875   6.107   4.190  1.2286 -0.1160 -0.0276
  150OSM   H10T16637   3.940   5.955   4.161  0.7905  2.8581 -2.1365
  150OSM   C11S16638   3.835   5.983   4.355 -0.0897  0.2711  0.1184
  150OSM   H11S16639   3.849   5.874   4.372  1.6179  0.3888 -0.4006
  150OSM   H11T16640   3.728   6.007   4.376 -0.1918  0.0700 -0.1651
  150OSM   C12S16641   3.933   6.055   4.446  0.0621 -0.2828  0.4498
  150OSM   H12S16642   3.927   6.164   4.427  0.9491 -0.1417  0.9230
  150OSM   H12T16643   4.038   6.023   4.432 -0.0763 -2.0057  2.7221
  150OSM   C13S16644   3.903   6.022   4.587 -0.3697 -0.5480 -1.3310
  150OSM   H13S16645   3.899   5.912   4.594 -1.9848 -0.5343 -1.6489
  150OSM   H13T16646   3.805   6.061   4.621 -0.2163 -2.1047  1.0980
  150OSM   C14S16647   4.004   6.075   4.685  0.4731  0.1940 -0.9433
  150OSM   H14S16648   4.016   6.185   4.671 -1.0799  0.4087 -0.7604
  150OSM   H14T16649   4.105   6.030   4.680  0.6042  0.4292 -0.4948
  150OSM   C15S16650   3.960   6.044   4.825 -0.1053  0.4553 -0.2907
  150OSM   H15S16651   3.959   5.934   4.834 -3.0209  0.4053 -0.2495
  150OSM   H15T16652   3.857   6.070   4.857 -0.4125 -2.0449  0.9894
  150OSM   C16S16653   4.061   6.084   4.933  0.0938  0.3845 -0.1418
  150OSM   H16S16654   4.079   6.193   4.921  0.8500  0.1613 -1.1272
  150OSM   H16T16655   4.162   6.040   4.919 -0.5974 -0.2552 -4.1268
  150OSM   C17S16656   4.022   6.048   5.075 -0.4480 -0.1734 -0.2552
  150OSM   H17S16657   4.016   5.937   5.081  1.4210 -0.3157 -0.4830
  150OSM   H17T16658   3.926   6.084   5.116  0.1899  2.9114 -1.2538
  150OSM   C18S16659   4.126   6.097   5.181 -1.3979 -0.0605 -0.3273
  150OSM   H18S16660   4.158   6.200   5.159 -1.2766 -0.4158 -1.8885
  150OSM   H18T16661   4.212   6.027   5.173 -1.4963 -0.1937 -0.2301
  150OSM   H18U16662   4.088   6.100   5.286 -3.3123 -0.6190 -0.9664
  150OSM    C1F16663   4.368   5.719   3.907 -0.8501  0.2173 -1.0837
  150OSM     OF16664   4.475   5.773   3.928  0.2190 -0.6367 -0.4650
  150OSM    C2F16665   4.327   5.610   4.004  0.0972 -0.1022 -0.5392
  150OSM    H2F16666   4.247   5.547   3.958 -0.5485 -1.2377  1.9623
  150OSM    H2G16667   4.287   5.661   4.094  0.9382 -0.4543  0.0436
  150OSM    C3F16668   4.438   5.510   4.041  0.0396 -0.3952 -0.1462
  150OSM    H3F16669   4.534   5.559   4.068  0.8806  0.0716 -3.5249
  150OSM    H3G16670   4.452   5.438   3.957 -2.0201 -1.5306  0.4209
  150OSM    C4F16671   4.411   5.436   4.174  0.4353  0.4520 -0.7634
  150OSM    H4F16672   4.406   5.516   4.251  0.1309  0.3961 -0.7249
  150OSM    H4G16673   4.499   5.376   4.206 -0.2830  0.8857  2.4099
  150OSM    C5F16674   4.277   5.374   4.184  0.0435  0.4367  0.7623
  150OSM    H5F16675   4.254   5.295   4.109  2.6038 -1.7337  2.0882
  150OSM    H5G16676   4.201   5.455   4.181 -1.4937 -0.8125  3.0596
  150OSM    C6F16677   4.261   5.303   4.323  0.0850  0.2833  0.4339
  150OSM    H6F16678   4.239   5.370   4.409 -2.0864  0.8514 -0.4835
  150OSM    H6G16679   4.357   5.253   4.351  0.4855  0.9553  0.2680
  150OSM    C7F16680   4.146   5.202   4.310  0.5208 -0.2294 -0.1183
  150OSM    H7F16681   4.191   5.131   4.237  0.8131  0.7498 -0.9248
  150OSM    H7G16682   4.056   5.256   4.274  0.7294 -0.6561 -1.3414
  150OSM    C8F16683   4.116   5.131   4.444  0.5068 -0.4014 -0.2360
  150OSM    H8F16684   4.214   5.095   4.481  0.1435 -1.4512 -0.2739
  150OSM    H8G16685   4.051   5.046   4.415 -0.1429  0.3572 -1.0755
  150OSM    C9F16686   4.036   5.218   4.540  0.2448  0.0458  0.0858
  150OSM    H9F16687   3.930   5.234   4.516  0.2566  2.3665  1.2082
  150OSM   C10F16688   4.074   5.279   4.651 -0.1910  0.2165  0.1084
  150OSM   H10F16689   3.998   5.329   4.712  1.3017  1.4040  1.0616
  150OSM   C11F16690   4.208   5.290   4.702 -0.6157  0.4315  0.0732
  150OSM   H11F16691   4.250   5.393   4.706  0.9388 -0.1967  1.0719
  150OSM   H11G16692   4.283   5.228   4.648  0.6900 -0.7641  3.0291
  150OSM   C12F16693   4.218   5.242   4.845 -0.1579  0.2513 -0.5387
  150OSM   H12F16694   4.139   5.298   4.900  0.1769 -1.4571  1.8226
  150OSM   H12G16695   4.317   5.263   4.891  0.2819 -0.3204 -1.2164
  150OSM   C13F16696   4.189   5.085   4.863 -0.0455 -0.2136 -0.8613
  150OSM   H13F16697   4.250   5.035   4.784  0.5720  0.2580 -0.6951
  150OSM   H13G16698   4.079   5.070   4.856 -0.1246 -1.9289  2.1980
  150OSM   C14F16699   4.236   5.033   5.003  0.4156 -0.1657 -0.3922
  150OSM   H14F16700   4.336   5.074   5.029  0.7921 -2.1356  1.5382
  150OSM   H14G16701   4.246   4.923   4.991 -1.3473 -0.4388  0.3689
  150OSM   C15F16702   4.123   5.061   5.099  0.1401  0.3022 -0.6229
  150OSM   H15F16703   4.017   5.041   5.070  0.4368 -1.7651 -0.3944
  150OSM   H15G16704   4.132   5.167   5.133 -0.0056 -0.5722  2.4780
  150OSM   C16F16705   4.130   4.978   5.232  0.0973  0.1458  1.0664
  150OSM   H16F16706   4.237   4.965   5.259  0.3781 -1.0219 -0.5297
  150OSM   H16G16707   4.095   4.874   5.217  0.1959  0.3634 -0.8237
  150OSM   C17F16708   4.058   5.021   5.356  0.9055 -0.3923 -0.0354
  150OSM   H17F16709   4.071   5.130   5.372 -0.9690 -0.3039  1.2673
  150OSM   H17G16710   4.101   4.965   5.441 -0.7897  0.7142  1.6325
  150OSM   C18F16711   3.904   5.008   5.349 -0.0268  0.5053  0.0518
  150OSM   H18F16712   3.854   5.030   5.445  0.7041  3.1207 -0.0870
  150OSM   H18G16713   3.874   4.910   5.306  1.9856  0.2294 -0.8872
  150OSM   H18H16714   3.861   5.078   5.274 -1.1685  1.7275  1.7908
  151OSM      N16715   3.914   4.761   3.082  0.1637 -0.2393  0.7619
  151OSM    C1516716   3.981   4.733   2.952  0.3786 -0.7394  0.9631
  151OSM   H15A16717   4.004   4.825   2.901 -1.3742 -0.1849  1.1006
  151OSM   H15B16718   3.918   4.668   2.892 -0.3102  0.0739  0.7813
  151OSM   H15C16719   4.072   4.678   2.966  1.0633  0.1068  0.0081
  151OSM    C1416720   3.790   4.851   3.062  0.6732  0.1278  0.5416
  151OSM   H14A16721   3.711   4.795   3.013  0.8857 -1.0373  1.4939
  151OSM   H14B16722   3.809   4.944   3.012 -0.4931 -0.5824 -1.3449
  151OSM   H14C16723   3.747   4.869   3.159  0.8554 -1.2042  0.8840
  151OSM    C1316724   3.867   4.632   3.152 -0.0778 -0.2602  0.1080
  151OSM   H13A16725   3.795   4.574   3.096  0.7765 -1.1482 -0.0952
  151OSM   H13B16726   3.809   4.662   3.238  0.3424 -0.3402  0.4196
  151OSM   H13C16727   3.945   4.560   3.172 -0.2240 -1.0969 -2.0345
  151OSM    C1216728   4.012   4.814   3.182 -0.1448 -0.0898  0.2659
  151OSM   H12A16729   4.071   4.892   3.138  1.7072 -0.8346  1.2882
  151OSM   H12B16730   4.080   4.733   3.207 -0.7895 -0.7961 -0.2074
  151OSM    C1116731   3.955   4.862   3.319  0.5922  0.8069  0.2832
  151OSM   H11A16732   4.036   4.885   3.392 -0.4345  1.1860  1.3350
  151OSM   H11B16733   3.897   4.779   3.365 -0.6859  1.5273  0.0036
  151OSM      P16734   3.931   5.112   3.292 -0.0985 -0.1563 -0.1967
  151OSM    O1316735   4.036   5.114   3.192  0.0975 -0.3696 -0.3990
  151OSM    O1416736   3.822   5.207   3.268  0.4958  0.1483  0.3384
  151OSM    O1116737   3.986   5.131   3.442  0.5012  0.3599 -0.1617
  151OSM    O1216738   3.865   4.966   3.295 -0.1561  0.7379 -0.1838
  151OSM    C1S16739   3.903   5.135   3.557  0.1919  0.0889  1.1610
  151OSM    H1S16740   3.803   5.091   3.537  0.7389 -0.9466  0.6756
  151OSM    H1T16741   3.874   5.236   3.593 -1.6314  0.1451 -0.2656
  151OSM     NF16742   3.857   5.048   3.782 -0.4304 -0.1591  0.3152
  151OSM    HNF16743   3.850   5.127   3.842 -0.5540 -0.4593  0.7066
  151OSM    C2S16744   3.962   5.060   3.679 -0.1094 -0.2203  0.2634
  151OSM    H2S16745   4.001   4.960   3.652  0.8207 -0.0651  0.9600
  151OSM    C3S16746   4.090   5.141   3.732 -0.5787 -0.8005 -0.2524
  151OSM    H3S16747   4.050   5.232   3.783 -0.2259  0.4987 -2.1649
  151OSM     O316748   4.175   5.193   3.638  0.3022 -0.7754  0.5641
  151OSM    HO316749   4.134   5.169   3.555  2.1922  0.1633 -0.7011
  151OSM    C4S16750   4.161   5.056   3.833  0.4790  0.1899  0.0128
  151OSM    H4S16751   4.131   5.083   3.935 -2.3684 -2.1150 -0.1003
  151OSM    C5S16752   4.254   4.958   3.816  0.7934  0.4581 -0.1310
  151OSM    H5S16753   4.275   4.928   3.712 -1.5750  0.6046 -0.7084
  151OSM    C6S16754   4.336   4.886   3.917 -0.4919  0.2711  0.5293
  151OSM    H6S16755   4.444   4.893   3.889 -0.0501 -1.1326  1.7603
  151OSM    H6T16756   4.303   4.780   3.906 -0.3632  0.4727 -2.8562
  151OSM    C7S16757   4.316   4.925   4.063  0.7539 -0.2335  0.2598
  151OSM    H7S16758   4.208   4.922   4.087  0.6373  0.7374 -0.1106
  151OSM    H7T16759   4.354   5.028   4.084  0.6551 -0.1415 -0.0149
  151OSM    C8S16760   4.378   4.832   4.164 -0.0628 -0.1293 -0.3275
  151OSM    H8S16761   4.488   4.841   4.152 -0.1046  1.8068  0.4304
  151OSM    H8T16762   4.360   4.724   4.143  2.2715 -0.4482 -1.0802
  151OSM    C9S16763   4.343   4.860   4.309  0.0795 -0.1684 -0.3784
  151OSM    H9S16764   4.233   4.871   4.320 -0.0761  0.5562 -2.2627
  151OSM    H9T16765   4.380   4.963   4.327 -2.8999  0.8467  0.5694
  151OSM   C10S16766   4.409   4.772   4.408  0.8179 -0.3985  0.6885
  151OSM   H10S16767   4.520   4.776   4.406  1.0125 -2.4147  2.9789
  151OSM   H10T16768   4.378   4.666   4.397  1.2209 -0.5670  1.1070
  151OSM   C11S16769   4.383   4.814   4.560  0.1755  0.2664  0.1468
  151OSM   H11S16770   4.274   4.835   4.563 -0.0987 -1.1910  1.6283
  151OSM   H11T16771   4.433   4.909   4.591 -1.3956  1.6093 -1.2575
  151OSM   C12S16772   4.416   4.703   4.659  0.3000  0.0138 -0.3393
  151OSM   H12S16773   4.519   4.662   4.652  0.8601  1.0008  1.4042
  151OSM   H12T16774   4.338   4.629   4.635  1.7703 -1.8054  0.2736
  151OSM   C13S16775   4.420   4.737   4.817 -0.1255  0.0857  0.0391
  151OSM   H13S16776   4.313   4.746   4.844  0.0031 -1.9352  1.5447
  151OSM   H13T16777   4.465   4.838   4.822  1.2821 -0.5590  1.1286
  151OSM   C14S16778   4.489   4.622   4.890 -0.4299 -0.7657 -0.2363
  151OSM   H14S16779   4.595   4.610   4.861  0.1643  1.0480  1.0015
  151OSM   H14T16780   4.427   4.532   4.868 -4.2706  1.6378 -0.1993
  151OSM   C15S16781   4.493   4.644   5.043 -0.1466 -0.4096  0.1672
  151OSM   H15S16782   4.493   4.543   5.091 -0.4701 -2.4584 -3.7327
  151OSM   H15T16783   4.406   4.707   5.071 -0.6102 -0.6218 -0.7646
  151OSM   C16S16784   4.616   4.726   5.099  0.2145 -0.1632  0.3026
  151OSM   H16S16785   4.568   4.820   5.133  2.0249  1.3165 -1.0495
  151OSM   H16T16786   4.693   4.749   5.022  0.4262  0.0532  0.5781
  151OSM   C17S16787   4.690   4.650   5.210 -0.2237  0.0559 -0.9318
  151OSM   H17S16788   4.721   4.554   5.165 -0.8553 -0.2526 -0.7299
  151OSM   H17T16789   4.612   4.626   5.286 -0.2557 -0.4163 -1.1079
  151OSM   C18S16790   4.810   4.715   5.273  0.0959 -0.2035 -0.4353
  151OSM   H18S16791   4.770   4.808   5.319  1.1655  1.2637 -2.3289
  151OSM   H18T16792   4.883   4.741   5.194 -1.6744 -3.3393 -3.3537
  151OSM   H18U16793   4.849   4.643   5.348 -2.3014 -2.0680 -0.8700
  151OSM    C1F16794   3.764   4.953   3.773  0.5477  0.8024  0.5370
  151OSM     OF16795   3.752   4.871   3.680 -0.2001 -0.3064 -0.2436
  151OSM    C2F16796   3.663   4.948   3.884 -0.5421  0.2315 -0.0049
  151OSM    H2F16797   3.566   4.908   3.848 -1.0301  0.4292  1.0373
  151OSM    H2G16798   3.648   5.055   3.910  3.0782  0.6895  0.7567
  151OSM    C3F16799   3.707   4.859   4.006 -0.6527  0.1004  0.6496
  151OSM    H3F16800   3.804   4.889   4.051 -0.6218  3.6101 -1.3985
  151OSM    H3G16801   3.729   4.757   3.968  0.7532  1.2710 -1.9420
  151OSM    C4F16802   3.607   4.847   4.115  0.2478  0.3308 -1.9485
  151OSM    H4F16803   3.530   4.780   4.072 -1.2575  2.3320 -2.5386
  151OSM    H4G16804   3.569   4.950   4.134 -0.8230 -0.4864  0.8004
  151OSM    C5F16805   3.654   4.776   4.247 -0.7315  0.0335  0.0298
  151OSM    H5F16806   3.746   4.827   4.283 -0.4816  0.0263 -0.5947
  151OSM    H5G16807   3.675   4.671   4.219  0.6633  0.9921 -3.0016
  151OSM    C6F16808   3.552   4.790   4.361  0.2209 -0.0929 -0.2689
  151OSM    H6F16809   3.473   4.716   4.337  1.6073 -1.4575 -0.8260
  151OSM    H6G16810   3.517   4.895   4.369  0.8609  0.1994 -1.0914
  151OSM    C7F16811   3.620   4.746   4.499  0.4320  0.0809  0.3593
  151OSM    H7F16812   3.700   4.818   4.526 -0.0199  1.4233 -1.6843
  151OSM    H7G16813   3.654   4.642   4.480 -2.0529 -0.7865  0.2570
  151OSM    C8F16814   3.520   4.739   4.615 -0.7027  0.1559  0.5822
  151OSM    H8F16815   3.579   4.694   4.697 -2.8112 -1.2551  1.4229
  151OSM    H8G16816   3.443   4.663   4.586 -1.4838  0.4238  1.8545
  151OSM    C9F16817   3.449   4.862   4.650  0.4310  0.2330 -0.3873
  151OSM    H9F16818   3.402   4.919   4.568 -0.5727  1.1263  0.7636
  151OSM   C10F16819   3.442   4.915   4.776  0.2854 -0.0330  0.0629
  151OSM   H10F16820   3.406   5.017   4.796  1.1553  0.0514  1.2789
  151OSM   C11F16821   3.504   4.858   4.899 -0.1631 -0.2800  0.1037
  151OSM   H11F16822   3.594   4.911   4.937 -1.6807  0.6583  2.6140
  151OSM   H11G16823   3.527   4.750   4.890 -1.2531 -0.3719 -2.5440
  151OSM   C12F16824   3.412   4.871   5.021 -0.3857 -0.2048  0.0779
  151OSM   H12F16825   3.315   4.830   4.984  0.6162 -1.3535 -1.4011
  151OSM   H12G16826   3.382   4.977   5.037 -0.7538 -0.0448 -1.5008
  151OSM   C13F16827   3.463   4.798   5.152 -0.1787 -0.1615 -0.0240
  151OSM   H13F16828   3.566   4.841   5.158 -0.8930  1.6921 -0.1996
  151OSM   H13G16829   3.460   4.690   5.126 -1.1543 -0.6492  1.9530
  151OSM   C14F16830   3.376   4.825   5.274 -0.4563  0.0009 -0.7908
  151OSM   H14F16831   3.270   4.802   5.248 -1.0397  1.8257 -0.1605
  151OSM   H14G16832   3.378   4.928   5.313 -1.4976 -1.1199  2.5340
  151OSM   C15F16833   3.417   4.733   5.382 -0.1752 -0.3805 -0.0074
  151OSM   H15F16834   3.419   4.632   5.336  2.0245 -0.6010  0.4868
  151OSM   H15G16835   3.336   4.739   5.458 -0.6181 -0.3491 -0.4734
  151OSM   C16F16836   3.548   4.771   5.462  0.4389  0.4974  0.2571
  151OSM   H16F16837   3.538   4.873   5.504  1.1589  0.1753  1.2500
  151OSM   H16G16838   3.638   4.770   5.397  0.3913  2.4885  0.1035
  151OSM   C17F16839   3.565   4.660   5.570  0.0902  0.2071  0.0098
  151OSM   H17F16840   3.602   4.568   5.520  0.0641  0.0346  0.3119
  151OSM   H17G16841   3.465   4.654   5.620  0.8096 -0.0639  1.4590
  151OSM   C18F16842   3.669   4.694   5.674  0.5110 -0.2337  0.4790
  151OSM   H18F16843   3.657   4.793   5.722 -1.4627 -0.5290  0.6523
  151OSM   H18G16844   3.763   4.688   5.615  1.4418 -0.6634  1.9451
  151OSM   H18H16845   3.664   4.614   5.751 -0.5009 -1.6713 -1.0098
  152OSM      N16846   6.496   5.025   3.389 -0.4693  0.2029  0.4007
  152OSM    C1516847   6.647   5.010   3.398  0.1575 -0.6441  0.1315
  152OSM   H15A16848   6.681   4.909   3.380  3.5156 -0.2396  3.0858
  152OSM   H15B16849   6.688   5.030   3.496 -2.7209 -1.5218  1.6361
  152OSM   H15C16850   6.695   5.070   3.322 -2.5292  0.2211 -1.0039
  152OSM    C1416851   6.440   4.925   3.481  0.2230 -0.1149 -0.3223
  152OSM   H14A16852   6.333   4.930   3.467  0.0637  0.8166  1.0160
  152OSM   H14B16853   6.463   4.938   3.586 -1.4653 -0.2568  0.0913
  152OSM   H14C16854   6.483   4.835   3.441  1.0544  0.6259 -1.1381
  152OSM    C1316855   6.464   5.164   3.422 -0.2424  0.0210  0.4169
  152OSM   H13A16856   6.518   5.192   3.511  2.3397  1.3671 -1.4687
  152OSM   H13B16857   6.362   5.176   3.457  0.6581 -0.7713  3.6575
  152OSM   H13C16858   6.479   5.241   3.348 -0.1012  0.6103  1.0412
  152OSM    C1216859   6.449   4.987   3.249  0.5111 -0.7285  0.2176
  152OSM   H12A16860   6.485   5.061   3.179 -0.0758 -0.7371 -0.1017
  152OSM   H12B16861   6.341   4.999   3.246  0.5666  0.7027  1.9856
  152OSM    C1116862   6.486   4.843   3.196  0.1170  0.0671 -0.6099
  152OSM   H11A16863   6.596   4.848   3.212  0.3806 -0.5259 -2.0095
  152OSM   H11B16864   6.469   4.852   3.086  1.8211  2.5820 -0.7446
  152OSM      P16865   6.275   4.689   3.226  0.1517  0.1403 -0.0116
  152OSM    O1316866   6.178   4.796   3.254  1.0043  0.5207  0.4640
  152OSM    O1416867   6.278   4.634   3.087 -0.0436 -0.2223 -0.0091
  152OSM    O1116868   6.238   4.569   3.317  0.1776  0.1936  0.2540
  152OSM    O1216869   6.424   4.730   3.268  0.1217  0.0502 -0.3592
  152OSM    C1S16870   6.312   4.546   3.444 -0.2308  0.7033  0.7272
  152OSM    H1S16871   6.302   4.634   3.511 -1.9526  2.6686 -1.8790
  152OSM    H1T16872   6.421   4.533   3.426  0.2921  2.6973  2.1114
  152OSM     NF16873   6.345   4.412   3.645 -0.3367 -0.9865 -0.7575
  152OSM    HNF16874   6.432   4.363   3.643  0.4707  0.2535  1.0948
  152OSM    C2S16875   6.265   4.420   3.520  0.0202 -0.4124  0.0230
  152OSM    H2S16876   6.158   4.417   3.550  0.2964 -0.8160  1.0113
  152OSM    C3S16877   6.291   4.287   3.436 -0.1022 -0.3254 -0.2416
  152OSM    H3S16878   6.402   4.280   3.432  0.2239  2.1840  1.7290
  152OSM     O316879   6.238   4.292   3.303 -1.0114  0.1379  0.1498
  152OSM    HO316880   6.218   4.385   3.291 -1.3281 -0.0249 -0.6847
  152OSM    C4S16881   6.245   4.173   3.512  0.9125  0.3662  0.6390
  152OSM    H4S16882   6.318   4.101   3.553 -1.3224 -1.6690  1.2326
  152OSM    C5S16883   6.117   4.121   3.522 -0.1665  0.7569  0.3853
  152OSM    H5S16884   6.035   4.174   3.472 -0.3460 -1.1418 -1.4421
  152OSM    C6S16885   6.079   3.995   3.591 -0.4748  0.3415 -0.0878
  152OSM    H6S16886   6.042   3.910   3.530  0.4161 -1.3245  1.6138
  152OSM    H6T16887   5.993   4.023   3.656 -1.0211 -0.6679 -0.3570
  152OSM    C7S16888   6.167   3.926   3.696 -0.4941  0.8445  0.0139
  152OSM    H7S16889   6.266   3.891   3.660  0.1320  1.5418  0.9950
  152OSM    H7T16890   6.113   3.839   3.739  1.9783 -1.5212 -1.3705
  152OSM    C8S16891   6.208   4.024   3.812  0.2105  0.6966 -0.1782
  152OSM    H8S16892   6.115   4.074   3.846 -0.3883 -0.1334 -0.5553
  152OSM    H8T16893   6.276   4.097   3.762 -1.2521  0.6748 -2.3596
  152OSM    C9S16894   6.283   3.948   3.931 -0.1352  0.0420  0.7427
  152OSM    H9S16895   6.307   4.011   4.020  2.5921 -0.8346  0.6917
  152OSM    H9T16896   6.380   3.916   3.887 -0.0199  0.0827  0.9658
  152OSM   C10S16897   6.217   3.816   3.974  0.2116  0.3861 -0.3223
  152OSM   H10S16898   6.242   3.736   3.901  1.3877 -0.5793  1.0749
  152OSM   H10T16899   6.109   3.839   3.984 -0.0073 -0.6343 -0.2012
  152OSM   C11S16900   6.274   3.762   4.106  0.6926 -0.4835 -0.0596
  152OSM   H11S16901   6.385   3.765   4.096  0.5655 -0.9017 -1.9308
  152OSM   H11T16902   6.236   3.660   4.127 -1.5890  0.4143  0.5395
  152OSM   C12S16903   6.246   3.855   4.230  0.2481  0.4583  0.2965
  152OSM   H12S16904   6.136   3.847   4.248  0.1770 -1.6567 -0.7875
  152OSM   H12T16905   6.270   3.961   4.204  1.6436 -0.5184 -2.8346
  152OSM   C13S16906   6.307   3.797   4.359 -0.5378 -0.4877 -0.5198
  152OSM   H13S16907   6.242   3.841   4.437 -0.3374  1.0139 -1.1726
  152OSM   H13T16908   6.411   3.823   4.387 -0.9390  0.5215  0.0702
  152OSM   C14S16909   6.291   3.646   4.391 -0.7910 -0.0726 -0.0639
  152OSM   H14S16910   6.359   3.589   4.324 -1.1282 -1.7506  0.9745
  152OSM   H14T16911   6.184   3.627   4.372 -1.3634  1.8966  0.8518
  152OSM   C15S16912   6.315   3.627   4.543 -0.0711  0.0017  0.1851
  152OSM   H15S16913   6.249   3.692   4.605 -3.0542 -3.0312  0.4699
  152OSM   H15T16914   6.419   3.660   4.566  0.0452  0.1688 -0.5544
  152OSM   C16S16915   6.262   3.487   4.591 -0.1040 -0.0836 -0.5791
  152OSM   H16S16916   6.327   3.406   4.552  1.5541 -0.0927  1.9953
  152OSM   H16T16917   6.161   3.461   4.552 -1.6821  1.7130  1.9470
  152OSM   C17S16918   6.269   3.466   4.746 -0.5067  0.3366  0.0528
  152OSM   H17S16919   6.265   3.355   4.757  0.3879  0.3562  0.6537
  152OSM   H17T16920   6.179   3.512   4.792 -1.7699 -0.9890 -0.9959
  152OSM   C18S16921   6.393   3.520   4.808 -0.5887 -0.3893 -0.0858
  152OSM   H18S16922   6.376   3.618   4.859 -0.4569 -0.0904 -0.6110
  152OSM   H18T16923   6.488   3.522   4.750 -0.4812  1.1854  0.0819
  152OSM   H18U16924   6.422   3.447   4.887 -1.8523 -1.1563 -0.3061
  152OSM    C1F16925   6.326   4.502   3.742 -0.7181  0.6200 -0.0601
  152OSM     OF16926   6.230   4.581   3.744 -0.2903  0.5297  0.9005
  152OSM    C2F16927   6.428   4.499   3.852 -0.4763  0.8562 -0.4405
  152OSM    H2F16928   6.531   4.537   3.836 -0.5508  1.2270 -0.0710
  152OSM    H2G16929   6.438   4.390   3.873 -0.9918  0.7118 -0.9199
  152OSM    C3F16930   6.381   4.550   3.988 -0.1344  1.2446 -0.0474
  152OSM    H3F16931   6.280   4.517   4.019  0.4090 -0.4797 -0.0035
  152OSM    H3G16932   6.376   4.661   3.979 -0.6335  1.2300  0.0376
  152OSM    C4F16933   6.482   4.517   4.104  0.0364  0.7089  0.2517
  152OSM    H4F16934   6.439   4.565   4.195  0.3544 -0.3947  1.0024
  152OSM    H4G16935   6.586   4.547   4.080  1.1299 -2.0728  1.1327
  152OSM    C5F16936   6.468   4.368   4.142  0.2067  0.0663 -0.1427
  152OSM    H5F16937   6.534   4.313   4.071  2.2660  0.8441  1.0818
  152OSM    H5G16938   6.363   4.336   4.125 -0.0582  2.0154 -2.8174
  152OSM    C6F16939   6.519   4.325   4.282  0.2429 -0.1258 -0.3426
  152OSM    H6F16940   6.458   4.375   4.360  0.3366  0.9156 -0.9163
  152OSM    H6G16941   6.627   4.348   4.293  0.0197  1.8758 -1.6555
  152OSM    C7F16942   6.514   4.169   4.292  0.6504 -0.6489 -0.4147
  152OSM    H7F16943   6.584   4.141   4.211  3.4715  0.0413  1.6264
  152OSM    H7G16944   6.411   4.141   4.262 -1.8705  2.7462  3.8375
  152OSM    C8F16945   6.555   4.116   4.426  0.7376 -0.2266 -0.2811
  152OSM    H8F16946   6.646   4.170   4.460 -0.1348  0.1320  1.5762
  152OSM    H8G16947   6.572   4.007   4.414 -1.5696 -0.7840  1.0810
  152OSM    C9F16948   6.454   4.145   4.541  0.7081 -0.5371  0.4833
  152OSM    H9F16949   6.367   4.205   4.508  0.4776 -0.8277  0.5566
  152OSM   C10F16950   6.462   4.104   4.666  0.2682 -0.7240 -0.3260
  152OSM   H10F16951   6.384   4.140   4.735  0.1553 -1.2173 -0.1912
  152OSM   C11F16952   6.574   4.022   4.728  0.2911 -0.9670 -0.4890
  152OSM   H11F16953   6.639   4.084   4.793  1.8068 -1.4082 -1.5473
  152OSM   H11G16954   6.646   3.978   4.656  0.9952  2.1944 -1.9188
  152OSM   C12F16955   6.522   3.908   4.814  0.2387  0.2740  0.6466
  152OSM   H12F16956   6.592   3.823   4.826  0.3095  0.3968  1.1583
  152OSM   H12G16957   6.427   3.860   4.784  0.8893 -2.2292  2.3124
  152OSM   C13F16958   6.504   3.960   4.957 -0.6081 -0.9360 -0.3250
  152OSM   H13F16959   6.411   4.020   4.952 -1.3040 -2.0448 -0.9132
  152OSM   H13G16960   6.586   4.033   4.976 -0.4127 -0.6642 -2.0575
  152OSM   C14F16961   6.488   3.849   5.063  0.1953 -0.2126 -0.6417
  152OSM   H14F16962   6.553   3.761   5.045  1.0658  0.2047  0.3886
  152OSM   H14G16963   6.387   3.805   5.050  1.2823 -2.9254 -0.5260
  152OSM   C15F16964   6.495   3.891   5.214  0.1189  0.8848  0.3022
  152OSM   H15F16965   6.569   3.972   5.228  2.4086 -0.7063 -1.6941
  152OSM   H15G16966   6.531   3.796   5.260 -2.7332 -0.6882 -0.4177
  152OSM   C16F16967   6.354   3.935   5.267  0.1621 -0.7653 -0.5197
  152OSM   H16F16968   6.286   3.853   5.234  1.6905 -1.7968 -1.2663
  152OSM   H16G16969   6.324   4.032   5.224 -2.0312 -1.3184 -0.3531
  152OSM   C17F16970   6.346   3.955   5.415  0.2288 -0.5223 -0.2489
  152OSM   H17F16971   6.421   4.031   5.443  0.0620 -0.0243 -1.1133
  152OSM   H17G16972   6.342   3.869   5.485 -1.6868 -0.9546 -0.8095
  152OSM   C18F16973   6.203   4.011   5.440  0.1721 -0.4212  0.0741
  152OSM   H18F16974   6.128   3.947   5.390 -2.5251  1.4037  1.5262
  152OSM   H18G16975   6.196   4.113   5.396 -1.2406 -0.5287  0.0135
  152OSM   H18H16976   6.170   4.023   5.545 -2.8702 -0.1285 -0.8248
  153OSM      N16977   4.979   4.856   3.129 -0.1385  0.1321  0.4072
  153OSM    C1516978   4.839   4.864   3.094  0.4467 -0.2083  0.1567
  153OSM   H15A16979   4.785   4.771   3.107  0.8183 -0.5288 -0.5097
  153OSM   H15B16980   4.842   4.877   2.986 -1.2319 -1.9422 -0.1529
  153OSM   H15C16981   4.786   4.944   3.143  0.9093  1.9597 -2.6419
  153OSM    C1416982   5.039   4.727   3.077  0.3520  0.6275  0.4027
  153OSM   H14A16983   5.144   4.713   3.098 -0.3251 -0.1052  3.8653
  153OSM   H14B16984   5.026   4.723   2.970  1.5464  2.9359  0.1007
  153OSM   H14C16985   4.989   4.645   3.127 -0.7475  2.0551  1.7467
  153OSM    C1316986   5.053   4.971   3.059  0.2944  0.4227  0.3629
  153OSM   H13A16987   5.016   5.067   3.093 -1.2859  0.5364 -1.4951
  153OSM   H13B16988   5.059   4.959   2.952  0.5937 -0.0214  0.4274
  153OSM   H13C16989   5.153   4.966   3.099  1.0155  0.2026 -1.3771
  153OSM    C1216990   4.996   4.876   3.278 -0.2595  0.4729  0.0946
  153OSM   H12A16991   5.102   4.888   3.296 -0.7833  1.7431  2.8128
  153OSM   H12B16992   4.972   4.784   3.330  2.7311 -0.2927  0.3076
  153OSM    C1116993   4.935   5.003   3.351  0.1637  0.3875  0.7637
  153OSM   H11A16994   4.942   4.997   3.461  0.5459  1.8710  0.8367
  153OSM   H11B16995   4.827   5.001   3.325  0.3788  0.9028 -0.2480
  153OSM      P16996   5.116   5.206   3.335  0.4031 -0.0179 -0.1753
  153OSM    O1316997   5.229   5.115   3.299  0.0062  0.0800  0.3919
  153OSM    O1416998   5.111   5.348   3.272 -0.2493 -0.6908 -0.0450
  153OSM    O1116999   5.091   5.219   3.492 -0.1137  0.3256  0.6935
  153OSM    O1217000   4.992   5.122   3.300  0.4590 -0.1125 -0.2790
  153OSM    C1S17001   4.976   5.283   3.548 -0.0200  0.0279  0.6118
  153OSM    H1S17002   4.880   5.234   3.520 -0.5838  1.8881 -0.9614
  153OSM    H1T17003   4.973   5.393   3.532  0.2654 -0.0717 -0.2069
  153OSM     NF17004   4.876   5.278   3.777  0.4955 -0.0148 -0.6427
  153OSM    HNF17005   4.849   5.362   3.823  0.2731 -1.4785  2.1282
  153OSM    C2S17006   5.000   5.285   3.704 -0.5035  0.4083 -0.1023
  153OSM    H2S17007   5.048   5.185   3.716  2.3626  1.5434 -1.0720
  153OSM    C3S17008   5.111   5.386   3.745  0.1608  0.2516 -0.3542
  153OSM    H3S17009   5.062   5.486   3.739 -1.7637 -0.6618 -1.0345
  153OSM     O317010   5.223   5.385   3.661 -0.3567 -0.2414  0.1193
  153OSM    HO317011   5.186   5.331   3.591 -0.5480 -0.7402  0.5959
  153OSM    C4S17012   5.145   5.365   3.890  0.3309  0.1860 -0.2951
  153OSM    H4S17013   5.157   5.256   3.903 -0.6131  0.0360 -0.6426
  153OSM    C5S17014   5.154   5.454   3.994  0.7005  0.9108  0.1256
  153OSM    H5S17015   5.145   5.561   3.972  0.3041  1.3146  2.0847
  153OSM    C6S17016   5.168   5.397   4.129 -0.9562  0.5451  0.3294
  153OSM    H6S17017   5.098   5.447   4.199 -0.2264  1.3395  0.5070
  153OSM    H6T17018   5.273   5.429   4.150 -1.0046  0.3834  0.8345
  153OSM    C7S17019   5.178   5.247   4.149 -0.5267  0.2816 -0.6451
  153OSM    H7S17020   5.255   5.198   4.086  0.3701  0.3656  0.3496
  153OSM    H7T17021   5.082   5.201   4.116 -0.8387  1.0815 -0.8637
  153OSM    C8S17022   5.207   5.202   4.300  0.3971  0.4369 -0.2182
  153OSM    H8S17023   5.131   5.252   4.364  1.0792  1.2436 -0.0231
  153OSM    H8T17024   5.304   5.251   4.324  1.2822 -0.4623 -1.8093
  153OSM    C9S17025   5.227   5.053   4.323  0.8306 -1.1865  0.1707
  153OSM    H9S17026   5.326   5.022   4.282 -0.6570 -1.9612 -3.1840
  153OSM    H9T17027   5.148   4.998   4.267 -0.0039 -1.7367  1.8123
  153OSM   C10S17028   5.216   5.034   4.471  0.4063  0.8147 -0.0204
  153OSM   H10S17029   5.208   4.924   4.487 -2.1670  0.7667 -1.1476
  153OSM   H10T17030   5.126   5.083   4.515 -1.0692 -1.8118  0.1036
  153OSM   C11S17031   5.339   5.076   4.558 -0.0653  0.0626 -0.4780
  153OSM   H11S17032   5.362   5.179   4.525 -2.4922  0.8182  0.0011
  153OSM   H11T17033   5.429   5.013   4.538  1.9502  1.7624  2.4975
  153OSM   C12S17034   5.294   5.066   4.695 -0.2432  0.3080 -0.1967
  153OSM   H12S17035   5.281   4.959   4.723  0.6973  0.3348  0.4039
  153OSM   H12T17036   5.207   5.131   4.719 -1.4837 -1.0136 -0.9966
  153OSM   C13S17037   5.419   5.095   4.787  0.9604  0.2979 -0.3928
  153OSM   H13S17038   5.440   5.203   4.770  2.2671  0.3314  1.0961
  153OSM   H13T17039   5.503   5.040   4.738  0.7541 -0.6224  0.2655
  153OSM   C14S17040   5.399   5.048   4.927 -0.3002 -0.0623  0.6429
  153OSM   H14S17041   5.366   4.942   4.925 -0.5654  0.0041  1.1306
  153OSM   H14T17042   5.311   5.093   4.978 -0.9689  0.8349 -1.1892
  153OSM   C15S17043   5.529   5.065   5.014  0.1039  0.1248  0.3713
  153OSM   H15S17044   5.554   5.170   5.037  2.2266 -0.1473 -0.4688
  153OSM   H15T17045   5.611   5.024   4.952 -0.2145  0.5643 -0.3513
  153OSM   C16S17046   5.517   4.989   5.147 -0.0721  0.0596  0.4515
  153OSM   H16S17047   5.469   4.891   5.126  2.2050 -0.6692 -1.9339
  153OSM   H16T17048   5.446   5.050   5.207  0.9292  0.7918  0.9177
  153OSM   C17S17049   5.646   4.986   5.223  0.3789  0.3836  0.5333
  153OSM   H17S17050   5.706   5.073   5.190 -1.0489  1.7866  1.4712
  153OSM   H17T17051   5.703   4.894   5.196 -1.2611 -0.2154 -1.0922
  153OSM   C18S17052   5.616   4.978   5.370 -0.7987  0.4703 -0.0272
  153OSM   H18S17053   5.551   5.065   5.395 -0.5078  0.6422  0.1465
  153OSM   H18T17054   5.709   4.991   5.430 -0.8932 -0.9990  0.4622
  153OSM   H18U17055   5.579   4.880   5.405 -0.3662  0.2423 -0.2066
  153OSM    C1F17056   4.790   5.178   3.775  0.5418 -0.3266  0.0897
  153OSM     OF17057   4.826   5.072   3.728  0.2654  0.2082 -0.2314
  153OSM    C2F17058   4.656   5.197   3.833  0.9452 -0.0746  0.3203
  153OSM    H2F17059   4.587   5.168   3.752 -0.1261 -0.7717  1.4532
  153OSM    H2G17060   4.641   5.306   3.847  1.6024 -0.0011  0.4832
  153OSM    C3F17061   4.630   5.117   3.968 -0.3855 -0.0876 -0.5779
  153OSM    H3F17062   4.652   5.008   3.956  1.8063 -0.2229  3.1952
  153OSM    H3G17063   4.520   5.124   3.985 -0.5784 -0.9386 -1.3520
  153OSM    C4F17064   4.698   5.165   4.093 -0.2992 -0.6593 -0.2698
  153OSM    H4F17065   4.681   5.273   4.109 -0.2512 -0.8153  0.9692
  153OSM    H4G17066   4.809   5.160   4.092 -0.2501 -1.4206  2.2625
  153OSM    C5F17067   4.676   5.082   4.218 -0.2521 -0.2555  0.0032
  153OSM    H5F17068   4.709   4.977   4.204  1.0686  0.0475  0.6460
  153OSM    H5G17069   4.569   5.066   4.242  0.1061 -0.0762  1.8765
  153OSM    C6F17070   4.725   5.151   4.347  0.6230 -0.7431  0.0710
  153OSM    H6F17071   4.690   5.256   4.355  1.6069 -0.5649  3.0939
  153OSM    H6G17072   4.836   5.160   4.345  0.4602  1.8646 -0.2194
  153OSM    C7F17073   4.671   5.073   4.467 -0.1139 -0.2643  0.9697
  153OSM    H7F17074   4.664   4.965   4.443  0.1721 -0.4499  1.6694
  153OSM    H7G17075   4.562   5.093   4.465 -0.3159 -0.6820 -4.1678
  153OSM    C8F17076   4.749   5.092   4.593 -0.3675  0.2524  0.4501
  153OSM    H8F17077   4.745   5.200   4.621  0.2667  0.9100 -1.8025
  153OSM    H8G17078   4.856   5.090   4.563 -0.6473 -0.6532 -0.5180
  153OSM    C9F17079   4.722   5.010   4.709  0.9723  0.4706 -0.4646
  153OSM    H9F17080   4.628   4.953   4.697  2.4605 -2.2048 -0.0453
  153OSM   C10F17081   4.806   4.981   4.814  0.5646 -0.0709  0.0863
  153OSM   H10F17082   4.777   4.924   4.903 -1.9965 -1.2192 -1.3539
  153OSM   C11F17083   4.948   5.019   4.832 -0.6142 -0.2149 -0.6300
  153OSM   H11F17084   4.955   5.099   4.754 -0.7906 -1.1832 -1.6697
  153OSM   H11G17085   5.017   4.944   4.786 -2.2445 -1.1760 -1.5904
  153OSM   C12F17086   4.981   5.077   4.972  0.1526 -0.4571 -0.5837
  153OSM   H12F17087   4.888   5.104   5.026  0.1998  0.6999 -1.0532
  153OSM   H12G17088   5.046   5.167   4.965 -0.5197  0.3155  2.0834
  153OSM   C13F17089   5.056   4.979   5.068 -0.4907  0.1103  1.0093
  153OSM   H13F17090   5.150   4.940   5.023  1.4353  1.1780  3.9006
  153OSM   H13G17091   4.988   4.891   5.076 -0.2445  0.0144  2.0718
  153OSM   C14F17092   5.076   5.036   5.204  0.3989  0.8721  0.3765
  153OSM   H14F17093   4.980   5.067   5.251  0.4112 -1.1559  1.8939
  153OSM   H14G17094   5.137   5.127   5.189 -0.2627  1.2539 -0.0309
  153OSM   C15F17095   5.138   4.941   5.303  0.1981 -0.1018  0.1783
  153OSM   H15F17096   5.231   4.894   5.265  0.7830  1.1795  0.0116
  153OSM   H15G17097   5.071   4.854   5.322 -0.8789  1.1049  2.1461
  153OSM   C16F17098   5.160   5.018   5.435  0.1407  0.0043  0.0290
  153OSM   H16F17099   5.053   5.029   5.464 -0.0213 -1.4413  0.0881
  153OSM   H16G17100   5.200   5.120   5.421  0.7398 -0.2267  0.0366
  153OSM   C17F17101   5.239   4.947   5.549  0.4050  0.6116  1.1754
  153OSM   H17F17102   5.245   5.022   5.631 -1.6004  0.8865  1.1193
  153OSM   H17G17103   5.343   4.922   5.519 -0.1481  1.6409 -2.0876
  153OSM   C18F17104   5.168   4.827   5.610 -0.5064  0.1484  0.2657
  153OSM   H18F17105   5.098   4.854   5.692 -0.0980  1.3514  0.2364
  153OSM   H18G17106   5.241   4.758   5.658  0.8462  2.0887  1.1601
  153OSM   H18H17107   5.110   4.786   5.526  1.3221  1.3302 -1.6715
  154OSM      N17108   3.206   2.464   2.629  0.6356  0.8003  0.2870
  154OSM    C1517109   3.332   2.439   2.550  0.4406 -0.2640  0.1099
  154OSM   H15A17110   3.390   2.361   2.597 -1.1031 -1.4648  0.0875
  154OSM   H15B17111   3.399   2.524   2.554  0.7043 -0.4320 -0.5462
  154OSM   H15C17112   3.316   2.398   2.451  0.0220  0.9135 -0.3257
  154OSM    C1417113   3.124   2.563   2.554 -0.5237 -0.0151 -0.7663
  154OSM   H14A17114   3.184   2.653   2.553 -0.3242 -0.1381 -0.1981
  154OSM   H14B17115   3.030   2.578   2.604 -0.3344 -1.0888 -0.0556
  154OSM   H14C17116   3.115   2.543   2.448 -2.0134  0.2555 -0.7101
  154OSM    C1317117   3.135   2.332   2.638  0.0443 -0.1459  0.1626
  154OSM   H13A17118   3.046   2.344   2.698  0.5513 -2.2170  1.4672
  154OSM   H13B17119   3.199   2.256   2.680  0.2737  0.4455  0.9100
  154OSM   H13C17120   3.101   2.292   2.544 -0.2448  0.6570 -0.0790
  154OSM    C1217121   3.253   2.506   2.768  0.2301  0.1257  1.1807
  154OSM   H12A17122   3.302   2.425   2.820  0.1182 -0.0858  0.9579
  154OSM   H12B17123   3.165   2.532   2.827  1.2156  3.0761  1.5379
  154OSM    C1117124   3.341   2.638   2.778  0.5376 -0.0008  0.1252
  154OSM   H11A17125   3.424   2.633   2.704  0.0355  0.9316 -0.5202
  154OSM   H11B17126   3.394   2.650   2.875 -1.1934 -0.9047  1.2234
  154OSM      P17127   3.157   2.790   2.856 -0.2920 -0.3654 -0.0239
  154OSM    O1317128   3.128   2.935   2.837 -0.2880  0.9115 -0.0081
  154OSM    O1417129   3.042   2.695   2.850  0.8383  0.4408  0.4739
  154OSM    O1117130   3.239   2.772   2.998 -0.1635  0.1569 -0.4901
  154OSM    O1217131   3.259   2.745   2.738  0.0691 -0.4797  0.4087
  154OSM    C1S17132   3.168   2.812   3.114  0.1825  0.5688  0.1628
  154OSM    H1S17133   3.065   2.772   3.119  0.6817 -0.9080 -0.6066
  154OSM    H1T17134   3.162   2.923   3.116 -2.6557  0.4793  0.5229
  154OSM     NF17135   3.150   2.798   3.348  0.1689  0.9071 -0.7954
  154OSM    HNF17136   3.167   2.877   3.406  0.5805  0.6817 -0.5994
  154OSM    C2S17137   3.245   2.772   3.240 -0.6089  0.7153  0.3787
  154OSM    H2S17138   3.268   2.664   3.231  1.3202  1.1636 -0.6749
  154OSM    C3S17139   3.368   2.856   3.260 -0.7727 -0.8265 -0.1272
  154OSM    H3S17140   3.334   2.961   3.267 -0.0338 -0.6145  0.5089
  154OSM     O317141   3.450   2.869   3.146 -0.5588 -0.1483 -0.2278
  154OSM    HO317142   3.401   2.822   3.078 -1.9848  0.8622  0.0398
  154OSM    C4S17143   3.441   2.805   3.387 -0.1559  0.5385 -0.2134
  154OSM    H4S17144   3.500   2.713   3.372 -1.0190 -0.1247  0.3876
  154OSM    C5S17145   3.444   2.874   3.507  0.3539 -0.2324  1.5921
  154OSM    H5S17146   3.376   2.961   3.516 -0.3935 -0.3922 -1.3475
  154OSM    C6S17147   3.521   2.850   3.629  0.6457 -0.3223 -0.2014
  154OSM    H6S17148   3.455   2.838   3.718  0.9906 -1.2344 -0.0621
  154OSM    H6T17149   3.593   2.933   3.645  0.4094 -0.0434 -0.5498
  154OSM    C7S17150   3.597   2.720   3.623 -0.4400  0.5733 -0.7852
  154OSM    H7S17151   3.650   2.712   3.525  0.0128 -0.9410 -0.4317
  154OSM    H7T17152   3.523   2.638   3.638 -1.7895  1.0037 -4.1531
  154OSM    C8S17153   3.712   2.703   3.733  0.6565 -0.6021  0.6789
  154OSM    H8S17154   3.665   2.711   3.834 -0.3582 -1.2558  0.2817
  154OSM    H8T17155   3.783   2.784   3.707 -1.6133  0.5263 -2.7230
  154OSM    C9S17156   3.785   2.571   3.731  0.1878  0.5335  0.1507
  154OSM    H9S17157   3.837   2.553   3.634 -1.2462  0.1415 -0.5654
  154OSM    H9T17158   3.711   2.489   3.744  0.2972  0.2134 -1.1031
  154OSM   C10S17159   3.882   2.549   3.848 -0.8791 -0.0648  0.1176
  154OSM   H10S17160   3.925   2.648   3.871 -1.2927 -0.2272  1.7193
  154OSM   H10T17161   3.959   2.475   3.817  0.5752 -0.0458  3.3267
  154OSM   C11S17162   3.818   2.503   3.976  0.1692  0.0794 -0.2069
  154OSM   H11S17163   3.779   2.400   3.969  2.2733 -0.7578 -0.2740
  154OSM   H11T17164   3.736   2.574   4.001  0.2996  0.8801 -1.9126
  154OSM   C12S17165   3.926   2.493   4.088 -0.6329 -0.0628  0.0519
  154OSM   H12S17166   3.991   2.582   4.078  1.3338 -1.5426 -0.9904
  154OSM   H12T17167   3.995   2.413   4.053 -3.4621 -1.2536 -3.4754
  154OSM   C13S17168   3.871   2.473   4.226  0.8800  0.0191 -0.5920
  154OSM   H13S17169   3.813   2.379   4.222  0.9144 -0.0157 -0.3289
  154OSM   H13T17170   3.799   2.552   4.255  2.5707  1.0059  1.1783
  154OSM   C14S17171   3.975   2.466   4.334  0.0528  0.3310  0.2621
  154OSM   H14S17172   4.016   2.569   4.333  2.2599 -0.4822 -1.6764
  154OSM   H14T17173   4.057   2.397   4.304 -1.9379 -1.4790 -1.2940
  154OSM   C15S17174   3.922   2.442   4.472  0.1995 -0.4116 -0.8923
  154OSM   H15S17175   3.873   2.342   4.478  2.7315 -1.6835  0.0368
  154OSM   H15T17176   3.845   2.510   4.513  1.0788 -1.2572  2.5225
  154OSM   C16S17177   4.025   2.451   4.579  0.0179  0.7424  0.2815
  154OSM   H16S17178   4.051   2.559   4.573 -1.4411  1.0612 -1.0541
  154OSM   H16T17179   4.105   2.381   4.547 -0.3508  1.3912 -2.2906
  154OSM   C17S17180   3.981   2.414   4.721  0.8219  0.0305  0.4080
  154OSM   H17S17181   3.955   2.307   4.730 -0.3402  0.3545  0.9951
  154OSM   H17T17182   3.887   2.469   4.741 -0.1969 -1.5535  0.1649
  154OSM   C18S17183   4.084   2.448   4.821 -0.7109  0.2485  0.5499
  154OSM   H18S17184   4.053   2.438   4.927 -1.0576  0.3389  0.4587
  154OSM   H18T17185   4.120   2.550   4.797 -1.0953 -0.1006 -1.7740
  154OSM   H18U17186   4.175   2.388   4.802  0.4895  1.9830  0.5886
  154OSM    C1F17187   3.052   2.713   3.380  0.5518 -1.2748 -0.5337
  154OSM     OF17188   3.036   2.607   3.317  0.5275 -0.4576  0.0326
  154OSM    C2F17189   2.962   2.765   3.485  0.8545  0.3732 -0.3713
  154OSM    H2F17190   2.855   2.751   3.461  1.3231 -0.3777 -2.2537
  154OSM    H2G17191   2.975   2.871   3.517 -3.0394  0.4842  1.3910
  154OSM    C3F17192   2.993   2.685   3.614 -0.7051 -0.3028 -0.3398
  154OSM    H3F17193   2.994   2.574   3.603  3.2286 -0.4349 -0.2685
  154OSM    H3G17194   2.918   2.707   3.693  0.2457  3.5576 -0.2967
  154OSM    C4F17195   3.130   2.733   3.674 -0.2297  0.3584  0.2507
  154OSM    H4F17196   3.122   2.844   3.681 -1.6966  0.2400  0.8564
  154OSM    H4G17197   3.218   2.701   3.614 -0.5812  0.0821 -0.1219
  154OSM    C5F17198   3.144   2.675   3.816 -0.9600 -0.4328  0.6516
  154OSM    H5F17199   3.133   2.566   3.797  0.1013 -0.3644 -0.4871
  154OSM    H5G17200   3.064   2.717   3.880 -1.2412  1.2942 -0.7742
  154OSM    C6F17201   3.272   2.708   3.895  0.0990  0.4464 -0.1845
  154OSM    H6F17202   3.270   2.819   3.907 -0.4725  0.2354  2.2556
  154OSM    H6G17203   3.361   2.666   3.842 -0.5202  1.0578 -1.7489
  154OSM    C7F17204   3.286   2.638   4.036  0.3643 -0.0611 -0.5721
  154OSM    H7F17205   3.255   2.532   4.024 -1.1468  0.3301 -0.3833
  154OSM    H7G17206   3.215   2.694   4.102  0.4699 -0.8917  0.2758
  154OSM    C8F17207   3.424   2.653   4.105 -0.1989 -0.0908 -0.4117
  154OSM    H8F17208   3.494   2.604   4.035  1.0870 -0.6797  1.2135
  154OSM    H8G17209   3.418   2.602   4.204 -2.2502  1.8877  0.5896
  154OSM    C9F17210   3.475   2.799   4.123  0.1149 -0.4502  0.3012
  154OSM    H9F17211   3.564   2.829   4.065 -1.4121  1.3265 -1.2848
  154OSM   C10F17212   3.445   2.870   4.233 -0.0974 -0.3214  0.0470
  154OSM   H10F17213   3.478   2.975   4.231 -0.9001 -0.0454  1.1958
  154OSM   C11F17214   3.355   2.849   4.349  0.1306  0.3358  0.0163
  154OSM   H11F17215   3.406   2.800   4.436 -0.4855 -0.4734 -0.0607
  154OSM   H11G17216   3.273   2.777   4.329 -2.1926  0.7668  5.9020
  154OSM   C12F17217   3.296   2.987   4.388  0.3291  0.2177 -0.0155
  154OSM   H12F17218   3.362   3.069   4.425 -0.1438  0.6586 -0.1328
  154OSM   H12G17219   3.243   2.965   4.483  0.3202  3.0045  0.7022
  154OSM   C13F17220   3.182   3.046   4.303 -0.7925 -0.0118  0.1506
  154OSM   H13F17221   3.221   3.053   4.200  1.3346  1.5705  0.9992
  154OSM   H13G17222   3.147   3.144   4.342 -0.5170  0.1505 -0.0113
  154OSM   C14F17223   3.058   2.962   4.285 -0.4653  0.7038 -0.3295
  154OSM   H14F17224   2.981   3.021   4.339  1.4239  1.9371  1.1617
  154OSM   H14G17225   3.070   2.860   4.328  0.2208  1.2580  0.8580
  154OSM   C15F17226   3.014   2.959   4.138  0.1560 -0.1938  0.1873
  154OSM   H15F17227   3.079   2.892   4.077 -1.1876  0.1938 -1.7954
  154OSM   H15G17228   3.027   3.057   4.087  2.1461 -1.1757 -1.3061
  154OSM   C16F17229   2.867   2.909   4.122  0.0444  0.0919  0.2540
  154OSM   H16F17230   2.807   2.980   4.183  2.5489  1.5189  1.2241
  154OSM   H16G17231   2.868   2.808   4.168 -0.1632 -0.2546 -0.4895
  154OSM   C17F17232   2.828   2.897   3.977 -0.0635  0.0127 -0.4846
  154OSM   H17F17233   2.735   2.836   3.967 -0.3022  0.4142 -0.7476
  154OSM   H17G17234   2.904   2.846   3.914  1.3110 -0.7885  1.7267
  154OSM   C18F17235   2.795   3.035   3.911  0.0839 -0.2453 -0.4947
  154OSM   H18F17236   2.732   3.098   3.978 -1.6057 -0.6345 -1.6429
  154OSM   H18G17237   2.743   3.007   3.817  1.0332 -1.3681 -0.7067
  154OSM   H18H17238   2.886   3.094   3.886 -0.0108 -0.8491 -2.4483
  155OSM      N17239   4.946   6.558   3.760  0.7466  0.1030  0.6387
  155OSM    C1517240   4.882   6.430   3.723 -0.1064  0.6340  0.6829
  155OSM   H15A17241   4.931   6.342   3.761  0.8597 -0.8471 -3.4673
  155OSM   H15B17242   4.892   6.405   3.619  1.0121  1.0092  0.6885
  155OSM   H15C17243   4.779   6.445   3.753  0.3982  0.0867  2.8411
  155OSM    C1417244   4.887   6.670   3.686 -0.9830  0.1147  0.6065
  155OSM   H14A17245   4.938   6.758   3.723  0.1442  0.0720 -0.7360
  155OSM   H14B17246   4.783   6.685   3.710 -1.4609  0.3003 -1.4030
  155OSM   H14C17247   4.898   6.659   3.579  0.1416  0.8255  0.6262
  155OSM    C1317248   4.907   6.577   3.907 -0.1819  0.3189  0.4303
  155OSM   H13A17249   4.802   6.600   3.920  0.0217  0.7553  1.4168
  155OSM   H13B17250   4.957   6.663   3.951  0.5256  1.5456 -2.5475
  155OSM   H13C17251   4.936   6.483   3.952 -0.2390 -0.8476 -1.8434
  155OSM    C1217252   5.095   6.557   3.736  0.1766  1.1824  0.1734
  155OSM   H12A17253   5.114   6.530   3.633  0.2159  0.9382  0.2428
  155OSM   H12B17254   5.138   6.471   3.785  0.2953  0.0549 -1.8086
  155OSM    C1117255   5.190   6.672   3.764  0.1183  0.5550 -0.3233
  155OSM   H11A17256   5.296   6.641   3.746  0.3243  0.8664  0.3350
  155OSM   H11B17257   5.174   6.695   3.871 -0.4876 -1.7861  0.1276
  155OSM      P17258   5.208   6.812   3.557 -0.3439  0.3518  0.0383
  155OSM    O1317259   5.211   6.683   3.479  0.2768 -0.0328 -0.8137
  155OSM    O1417260   5.143   6.931   3.500  0.0859  0.1684 -0.2101
  155OSM    O1117261   5.357   6.859   3.589  0.2404 -0.5964 -0.2647
  155OSM    O1217262   5.147   6.784   3.691  0.6856 -0.3815 -1.1261
  155OSM    C1S17263   5.384   6.939   3.706  0.3801  0.4715 -0.0993
  155OSM    H1S17264   5.293   6.985   3.750  0.5198 -0.9081  1.7457
  155OSM    H1T17265   5.454   7.021   3.679 -0.0735  0.6522 -0.7638
  155OSM     NF17266   5.492   6.943   3.934 -0.1612  0.6836 -0.4436
  155OSM    HNF17267   5.574   6.997   3.947  0.2527  0.1329 -0.7294
  155OSM    C2S17268   5.476   6.863   3.812  0.2923 -0.6053 -0.7905
  155OSM    H2S17269   5.428   6.765   3.834  0.2705 -0.3654  0.2907
  155OSM    C3S17270   5.609   6.812   3.747  0.4107 -0.3357 -0.4726
  155OSM    H3S17271   5.662   6.900   3.705  1.9845 -1.2950 -0.5711
  155OSM     O317272   5.586   6.728   3.640  0.3127  0.1396  0.2091
  155OSM    HO317273   5.503   6.745   3.594 -0.3940 -1.3132  0.8683
  155OSM    C4S17274   5.705   6.747   3.849 -0.0975 -0.4447  0.2901
  155OSM    H4S17275   5.797   6.806   3.859 -1.0705  1.5564 -1.6322
  155OSM    C5S17276   5.699   6.623   3.912  0.5047 -0.4738 -0.2871
  155OSM    H5S17277   5.606   6.565   3.898  0.7194 -0.5766 -1.3284
  155OSM    C6S17278   5.819   6.576   3.986 -0.1280  0.3262 -0.3599
  155OSM    H6S17279   5.915   6.620   3.952  1.7609 -2.1485  1.3645
  155OSM    H6T17280   5.836   6.467   3.971 -0.1804  0.0416  1.3840
  155OSM    C7S17281   5.787   6.573   4.139  0.2585 -0.3095 -0.2096
  155OSM    H7S17282   5.710   6.499   4.171  0.5651 -0.0923  1.0775
  155OSM    H7T17283   5.736   6.666   4.173  1.9524  1.4332 -2.2016
  155OSM    C8S17284   5.917   6.568   4.222  0.0211 -0.2779  0.9182
  155OSM    H8S17285   5.986   6.655   4.207 -1.7145  1.1655  0.9749
  155OSM    H8T17286   5.966   6.476   4.185 -3.8670 -1.8618 -0.7589
  155OSM    C9S17287   5.890   6.559   4.370  0.0199  0.6326  0.2127
  155OSM    H9S17288   5.850   6.660   4.392 -1.7918 -0.3886  2.0017
  155OSM    H9T17289   5.987   6.537   4.419  0.2897  0.1088 -0.5203
  155OSM   C10S17290   5.780   6.464   4.413  0.0334  0.5441 -0.0536
  155OSM   H10S17291   5.783   6.361   4.370  0.8511  0.6493 -0.2665
  155OSM   H10T17292   5.686   6.512   4.377  0.8420  0.6722 -2.1736
  155OSM   C11S17293   5.752   6.446   4.565 -0.8152 -0.1806  0.3120
  155OSM   H11S17294   5.843   6.396   4.606 -0.5487 -0.6702 -0.8266
  155OSM   H11T17295   5.674   6.368   4.575  0.4738 -1.6513 -0.5207
  155OSM   C12S17296   5.707   6.576   4.638  0.0973 -0.1914 -0.1279
  155OSM   H12S17297   5.628   6.625   4.577  0.4671 -2.0549 -2.2344
  155OSM   H12T17298   5.798   6.639   4.626 -0.4462  0.2642 -2.4912
  155OSM   C13S17299   5.677   6.558   4.791  1.1471 -0.1924 -0.1072
  155OSM   H13S17300   5.724   6.466   4.833  2.0722  0.9138  1.3793
  155OSM   H13T17301   5.570   6.528   4.795  0.9896 -0.1430 -2.7003
  155OSM   C14S17302   5.720   6.688   4.867  0.4691 -1.0987 -0.0761
  155OSM   H14S17303   5.662   6.778   4.836  1.7407  0.7725  2.5924
  155OSM   H14T17304   5.826   6.718   4.849  0.3924 -1.1550 -0.6588
  155OSM   C15S17305   5.696   6.674   5.016  0.6215 -0.6368 -0.5306
  155OSM   H15S17306   5.790   6.670   5.075  0.6347 -1.7463 -0.6080
  155OSM   H15T17307   5.653   6.573   5.034 -0.9943  0.4931  2.7386
  155OSM   C16S17308   5.607   6.775   5.085  0.1605  0.1529 -0.6109
  155OSM   H16S17309   5.500   6.779   5.056  0.1654 -0.3602 -0.7110
  155OSM   H16T17310   5.653   6.874   5.060  0.1027  0.5265  0.6658
  155OSM   C17S17311   5.595   6.764   5.240 -0.2474 -0.0481  0.2060
  155OSM   H17S17312   5.684   6.718   5.287  0.7953  2.1740  0.5594
  155OSM   H17T17313   5.501   6.713   5.269 -0.5698  0.6217  0.3666
  155OSM   C18S17314   5.574   6.906   5.299 -0.5087  0.0755  0.4985
  155OSM   H18S17315   5.663   6.971   5.285  0.9506 -2.0499 -0.4793
  155OSM   H18T17316   5.555   6.909   5.408  1.8802  1.6650  0.9659
  155OSM   H18U17317   5.487   6.951   5.245 -0.8599 -0.9043  0.2352
  155OSM    C1F17318   5.384   6.991   4.005 -0.6150  0.1172  0.0196
  155OSM     OF17319   5.268   6.960   3.975 -0.7196 -0.1630  0.4132
  155OSM    C2F17320   5.415   7.068   4.129 -0.4247 -0.1061 -0.6767
  155OSM    H2F17321   5.490   7.145   4.105  0.0439 -0.4763 -0.4153
  155OSM    H2G17322   5.458   6.999   4.204  0.8156  0.6866 -0.6402
  155OSM    C3F17323   5.298   7.147   4.191  0.4850 -0.1913  0.1469
  155OSM    H3F17324   5.260   7.212   4.109  0.2251  0.0951  0.4929
  155OSM    H3G17325   5.327   7.209   4.278  1.1380  1.0484 -0.9112
  155OSM    C4F17326   5.187   7.060   4.247  0.0863  0.6111 -0.4906
  155OSM    H4F17327   5.216   6.976   4.314 -1.4579 -0.0875 -0.6555
  155OSM    H4G17328   5.140   7.003   4.164 -0.4481 -3.2347  2.1932
  155OSM    C5F17329   5.068   7.131   4.305 -0.3201 -0.4288  0.2579
  155OSM    H5F17330   5.108   7.169   4.402  0.3483  0.3342 -0.2931
  155OSM    H5G17331   4.984   7.065   4.333 -0.1352 -1.0117 -0.5217
  155OSM    C6F17332   5.023   7.243   4.219  0.3400 -0.0262  1.1389
  155OSM    H6F17333   5.036   7.227   4.110  0.3788  0.0369  1.1338
  155OSM    H6G17334   5.081   7.337   4.235 -0.1258  0.5319 -0.3360
  155OSM    C7F17335   4.884   7.293   4.257  0.6835 -0.3319  0.0018
  155OSM    H7F17336   4.876   7.289   4.368  0.5874 -0.0080  0.0074
  155OSM    H7G17337   4.812   7.216   4.222 -0.7389  1.2566 -0.7265
  155OSM    C8F17338   4.857   7.429   4.188 -0.3951 -0.2079 -0.1816
  155OSM    H8F17339   4.852   7.425   4.077 -1.1460 -0.2341 -0.1504
  155OSM    H8G17340   4.942   7.499   4.204 -0.6033  0.3520 -1.4219
  155OSM    C9F17341   4.730   7.480   4.253  0.2340  0.1990  0.3754
  155OSM    H9F17342   4.635   7.464   4.199 -0.2696  3.2249  0.1777
  155OSM   C10F17343   4.723   7.547   4.367 -0.6789  0.3808 -0.4479
  155OSM   H10F17344   4.624   7.576   4.404 -1.0053 -1.4219  0.1492
  155OSM   C11F17345   4.834   7.593   4.458  0.2969 -0.3776 -0.2708
  155OSM   H11F17346   4.822   7.703   4.474  0.4757 -0.4012  0.0257
  155OSM   H11G17347   4.931   7.586   4.405  0.0993  0.5760 -0.7895
  155OSM   C12F17348   4.859   7.532   4.593  0.1743  0.6148 -0.8033
  155OSM   H12F17349   4.860   7.422   4.575  1.5054  0.4677  0.0382
  155OSM   H12G17350   4.771   7.556   4.656 -0.2348 -1.6300 -0.4284
  155OSM   C13F17351   5.001   7.575   4.655  0.0428  0.4722 -0.9985
  155OSM   H13F17352   5.089   7.542   4.595  1.3364  1.7840  0.1204
  155OSM   H13G17353   5.005   7.522   4.752 -0.3080 -2.0857 -2.2876
  155OSM   C14F17354   5.006   7.725   4.681 -0.2578 -0.6123  0.0465
  155OSM   H14F17355   4.905   7.767   4.700  0.6167  2.3537 -1.2083
  155OSM   H14G17356   5.036   7.776   4.587 -2.6800 -0.9507 -0.9822
  155OSM   C15F17357   5.103   7.764   4.791 -0.4356  0.0977  0.3734
  155OSM   H15F17358   5.121   7.872   4.776 -1.4614  0.5155  1.9712
  155OSM   H15G17359   5.205   7.722   4.785 -0.2173  0.6228  0.3879
  155OSM   C16F17360   5.037   7.750   4.929  0.6010  0.4010  0.2334
  155OSM   H16F17361   5.050   7.646   4.964  1.7582  0.2022 -0.7350
  155OSM   H16G17362   4.929   7.770   4.909  0.0852  0.3346  2.6519
  155OSM   C17F17363   5.070   7.854   5.034 -0.0126 -0.1620 -0.3280
  155OSM   H17F17364   5.039   7.953   4.994  1.2418 -0.0074 -0.9759
  155OSM   H17G17365   5.179   7.862   5.048 -0.3543 -0.2578  3.2727
  155OSM   C18F17366   5.012   7.823   5.176 -0.3068  0.6198  0.5777
  155OSM   H18F17367   4.906   7.856   5.175 -0.5637 -0.1899 -0.8076
  155OSM   H18G17368   5.048   7.900   5.248 -1.2865  1.0491  0.6203
  155OSM   H18H17369   5.027   7.723   5.223  0.7340  1.3407  1.8515
  156OSM      N17370   0.803   6.912   3.149 -0.3024 -0.0890 -0.6710
  156OSM    C1517371   0.929   6.832   3.171 -0.3833 -0.1138  0.7865
  156OSM   H15A17372   1.013   6.887   3.211  0.1512 -1.0042  0.9114
  156OSM   H15B17373   0.954   6.793   3.074  0.9849  1.5637  0.4236
  156OSM   H15C17374   0.903   6.751   3.238 -0.0970 -0.7520  0.1329
  156OSM    C1417375   0.767   6.982   3.280 -0.1978  0.6558  0.3477
  156OSM   H14A17376   0.678   7.044   3.279  0.3836  1.4981  0.2235
  156OSM   H14B17377   0.846   7.047   3.314 -1.3361  2.1023  0.3243
  156OSM   H14C17378   0.745   6.903   3.351  0.0797  0.3796  0.1240
  156OSM    C1317379   0.830   7.008   3.038  0.4938  0.3120 -1.4450
  156OSM   H13A17380   0.744   7.069   3.016  1.4118  0.7693 -4.1984
  156OSM   H13B17381   0.875   6.958   2.954  2.1621 -1.6491  0.4843
  156OSM   H13C17382   0.906   7.080   3.065  0.4394  0.3202 -1.3111
  156OSM    C1217383   0.691   6.819   3.122 -0.3304 -0.2129 -0.3026
  156OSM   H12A17384   0.702   6.773   3.025 -1.4959 -2.0433  0.3945
  156OSM   H12B17385   0.604   6.882   3.106 -0.1373  0.0573 -0.3047
  156OSM    C1117386   0.661   6.699   3.224  0.6764  0.7602  0.0934
  156OSM   H11A17387   0.753   6.637   3.218  1.5774  2.0024  0.5518
  156OSM   H11B17388   0.583   6.634   3.180  3.7867 -5.3247  2.4413
  156OSM      P17389   0.487   6.770   3.405 -0.2596 -0.3189  0.0135
  156OSM    O1317390   0.453   6.916   3.368 -0.1420 -0.0351  0.3304
  156OSM    O1417391   0.401   6.663   3.342 -0.0984 -0.3978  0.0817
  156OSM    O1117392   0.480   6.747   3.559 -0.0459 -0.2392  0.2087
  156OSM    O1217393   0.634   6.735   3.361 -0.1359 -0.2002 -0.2917
  156OSM    C1S17394   0.581   6.767   3.659 -0.8024 -0.4778  0.2698
  156OSM    H1S17395   0.617   6.872   3.667 -0.5344 -0.5618  0.1601
  156OSM    H1T17396   0.670   6.709   3.628 -1.2878  0.1337 -2.5222
  156OSM     NF17397   0.621   6.736   3.908  0.8124 -0.6749 -0.2100
  156OSM    HNF17398   0.703   6.687   3.938  0.3527  0.1098  2.6952
  156OSM    C2S17399   0.540   6.699   3.793  0.7272 -0.0346  0.1009
  156OSM    H2S17400   0.443   6.748   3.817 -0.3396 -2.2597  0.5793
  156OSM    C3S17401   0.504   6.542   3.792  0.8261  0.1211  0.6443
  156OSM    H3S17402   0.599   6.489   3.811 -0.5829 -2.3963  1.0148
  156OSM     O317403   0.471   6.505   3.662 -0.0753 -0.0120  0.5053
  156OSM    HO317404   0.498   6.581   3.610 -0.0865 -1.1868 -1.3334
  156OSM    C4S17405   0.396   6.503   3.891 -0.1940 -0.4766  0.6841
  156OSM    H4S17406   0.445   6.476   3.986 -0.0193  0.3619  0.8390
  156OSM    C5S17407   0.264   6.499   3.873 -0.2267  0.3355 -0.5346
  156OSM    H5S17408   0.224   6.536   3.778  2.1123 -0.1943 -1.7933
  156OSM    C6S17409   0.163   6.461   3.984  0.3940  0.0984 -0.3531
  156OSM    H6S17410   0.078   6.412   3.931  0.2246 -0.0689  0.0711
  156OSM    H6T17411   0.110   6.548   4.029 -1.3601 -1.2160  0.2540
  156OSM    C7S17412   0.210   6.374   4.096 -0.2923 -0.3444 -0.0952
  156OSM    H7S17413   0.285   6.428   4.157 -0.2766  0.8868 -1.1538
  156OSM    H7T17414   0.275   6.291   4.061  2.1366  1.4294 -0.0920
  156OSM    C8S17415   0.094   6.324   4.185  0.2224 -0.7137 -0.3572
  156OSM    H8S17416   0.016   6.261   4.136  0.5328 -1.1264 -0.3241
  156OSM    H8T17417   0.037   6.417   4.207  0.9026 -0.7429  1.6914
  156OSM    C9S17418   0.129   6.260   4.321  0.2277  0.6011 -0.7158
  156OSM    H9S17419   0.213   6.322   4.360  0.1560 -0.3450  0.9952
  156OSM    H9T17420   0.175   6.160   4.308  1.9888  1.0424  1.4877
  156OSM   C10S17421   0.021   6.262   4.420 -0.2081  1.0295  0.1197
  156OSM   H10S17422  -0.067   6.221   4.366 -1.7621  2.7238  1.2659
  156OSM   H10T17423  -0.010   6.365   4.448  1.1245  1.4539  0.1179
  156OSM   C11S17424   0.052   6.173   4.553 -0.0773 -0.0298  0.3720
  156OSM   H11S17425   0.121   6.233   4.616 -1.7575  0.9470  1.3749
  156OSM   H11T17426   0.085   6.074   4.515 -0.2914  0.8130 -2.2352
  156OSM   C12S17427  -0.067   6.146   4.646 -0.1334 -0.5683  0.6193
  156OSM   H12S17428  -0.145   6.095   4.586  0.1177 -0.3709  0.1231
  156OSM   H12T17429  -0.105   6.242   4.687 -2.0313 -1.6629  1.5400
  156OSM   C13S17430  -0.037   6.057   4.765  0.3513  0.9418 -0.1292
  156OSM   H13S17431  -0.013   5.953   4.734  0.6474  1.3060 -1.1793
  156OSM   H13T17432  -0.128   6.046   4.828 -0.2393 -0.5465 -1.1966
  156OSM   C14S17433   0.080   6.102   4.852  0.3715  0.4232 -0.1683
  156OSM   H14S17434   0.060   6.206   4.886  2.2935  1.0756 -0.8874
  156OSM   H14T17435   0.171   6.100   4.789 -0.2806  0.4107 -1.1341
  156OSM   C15S17436   0.098   6.018   4.980  0.5401 -0.2055 -0.0457
  156OSM   H15S17437   0.205   6.033   5.005  0.6639  2.3234 -1.6879
  156OSM   H15T17438   0.079   5.913   4.950  0.4881 -0.2907  0.2823
  156OSM   C16S17439   0.011   6.070   5.092  0.1552 -0.1691  0.7627
  156OSM   H16S17440  -0.092   6.038   5.066  0.2617  1.2207 -1.6669
  156OSM   H16T17441   0.004   6.180   5.107  2.2597  0.2535 -0.7442
  156OSM   C17S17442   0.038   5.993   5.221 -0.4889 -0.1351 -0.8047
  156OSM   H17S17443   0.130   6.039   5.264 -1.2629  1.2560 -0.5687
  156OSM   H17T17444   0.069   5.888   5.204 -0.0730 -0.4318  1.4062
  156OSM   C18S17445  -0.080   6.013   5.316  0.3231  0.2600  0.0777
  156OSM   H18S17446  -0.120   6.117   5.309 -1.4439 -0.2611  1.6436
  156OSM   H18T17447  -0.071   5.986   5.423 -1.9434 -0.8527  0.0483
  156OSM   H18U17448  -0.164   5.947   5.284  0.8486 -0.4400  0.1203
  156OSM    C1F17449   0.630   6.864   3.954  0.1608  0.5602 -0.2633
  156OSM     OF17450   0.537   6.940   3.927 -0.6966  0.0059 -0.5803
  156OSM    C2F17451   0.739   6.888   4.048 -0.4474  0.5656  0.0583
  156OSM    H2F17452   0.825   6.922   3.986 -0.1270 -2.6510 -1.4862
  156OSM    H2G17453   0.762   6.792   4.100 -0.7289  0.1750 -0.5215
  156OSM    C3F17454   0.712   6.988   4.153  0.4643 -1.0099 -0.0565
  156OSM    H3F17455   0.643   6.942   4.227  2.9926 -1.3545  2.2641
  156OSM    H3G17456   0.663   7.078   4.112  1.2912  0.1978  1.4889
  156OSM    C4F17457   0.836   7.028   4.229  0.4037 -0.2733 -0.1011
  156OSM    H4F17458   0.913   7.069   4.159  0.2036  1.5656  0.7069
  156OSM    H4G17459   0.880   6.937   4.275  0.1592  0.9546  2.7258
  156OSM    C5F17460   0.811   7.140   4.335  0.2828  0.4152  0.5910
  156OSM    H5F17461   0.761   7.226   4.285 -1.5196  0.4817  2.3986
  156OSM    H5G17462   0.906   7.165   4.385  0.0270  0.4259  1.0764
  156OSM    C6F17463   0.699   7.097   4.434 -0.6711 -0.2154 -0.5588
  156OSM    H6F17464   0.603   7.069   4.386  0.0331 -4.6163  0.2241
  156OSM    H6G17465   0.679   7.194   4.484  0.9953  0.3426 -0.8905
  156OSM    C7F17466   0.736   6.982   4.537  0.2788  0.4277  0.4105
  156OSM    H7F17467   0.821   7.028   4.591 -1.0543  3.6072  0.0278
  156OSM    H7G17468   0.784   6.899   4.481  1.0144  0.8117  0.4698
  156OSM    C8F17469   0.615   6.934   4.622 -0.2984 -0.4530  0.2469
  156OSM    H8F17470   0.551   6.869   4.557  1.5662 -2.9056  0.7095
  156OSM    H8G17471   0.555   7.024   4.648 -0.4348 -0.3368 -0.4523
  156OSM    C9F17472   0.647   6.849   4.740  0.2823 -0.2031  1.0529
  156OSM    H9F17473   0.724   6.776   4.711 -1.9613 -2.2557 -0.0906
  156OSM   C10F17474   0.588   6.853   4.859  0.2734  0.4114  0.1452
  156OSM   H10F17475   0.621   6.777   4.932 -1.3035  0.2862  0.7779
  156OSM   C11F17476   0.477   6.940   4.907 -0.2898 -0.6381 -0.1741
  156OSM   H11F17477   0.385   6.940   4.845 -0.6542 -2.5413  0.2968
  156OSM   H11G17478   0.511   7.044   4.891  0.3069 -0.7728  0.1819
  156OSM   C12F17479   0.424   6.909   5.046 -0.0449 -0.0188  0.3222
  156OSM   H12F17480   0.498   6.869   5.119  0.9798  1.1610 -0.0413
  156OSM   H12G17481   0.357   6.821   5.044 -0.1938  0.0972  0.0651
  156OSM   C13F17482   0.349   7.022   5.115 -0.0373  0.8868  0.1032
  156OSM   H13F17483   0.288   7.074   5.038  0.5383  0.9311 -0.3276
  156OSM   H13G17484   0.418   7.093   5.165 -0.1150  0.9666  0.0981
  156OSM   C14F17485   0.247   6.963   5.221 -0.5766  0.6405  0.2118
  156OSM   H14F17486   0.199   7.047   5.276 -1.1094 -0.3849  1.3670
  156OSM   H14G17487   0.299   6.898   5.294 -1.6696  0.5590  0.9445
  156OSM   C15F17488   0.135   6.878   5.161 -0.2298 -0.1921  0.5330
  156OSM   H15F17489   0.107   6.785   5.216 -0.9388 -0.6443 -0.5515
  156OSM   H15G17490   0.156   6.861   5.053 -0.9655  2.5438 -0.1357
  156OSM   C16F17491   0.000   6.945   5.161  0.5501 -0.1012 -0.2096
  156OSM   H16F17492  -0.073   6.881   5.106  3.7242 -2.1036 -2.4544
  156OSM   H16G17493  -0.002   7.043   5.109 -0.3665 -1.0872 -2.1450
  156OSM   C17F17494  -0.061   6.956   5.305 -0.0281 -0.6298 -0.7793
  156OSM   H17F17495  -0.006   7.029   5.369  0.6364 -0.3351 -1.6704
  156OSM   H17G17496  -0.045   6.860   5.358 -0.5704  1.1619  2.9728
  156OSM   C18F17497  -0.217   6.980   5.313  0.2245  0.5319 -0.1922
  156OSM   H18F17498  -0.245   7.010   5.416 -0.0645 -0.1710 -0.0581
  156OSM   H18G17499  -0.287   6.899   5.283 -1.2064  1.1065  1.4020
  156OSM   H18H17500  -0.246   7.067   5.250 -1.6400 -0.2918 -0.5485
  157OSM      N17501   0.914   1.466   3.239 -0.0592 -0.0375  0.7531
  157OSM    C1517502   1.014   1.520   3.335 -0.4107 -0.2505 -0.5407
  157OSM   H15A17503   1.007   1.481   3.436 -1.7790  0.3407 -0.3773
  157OSM   H15B17504   1.015   1.628   3.340 -1.9318 -0.2412  0.9110
  157OSM   H15C17505   1.116   1.496   3.309 -0.1843 -0.0126  0.1053
  157OSM    C1417506   0.933   1.530   3.108 -0.0742  0.0570  0.0894
  157OSM   H14A17507   1.039   1.531   3.089 -0.0418 -0.5201  0.2498
  157OSM   H14B17508   0.893   1.630   3.098  0.8340  0.3085 -1.3762
  157OSM   H14C17509   0.895   1.456   3.039  2.8999 -1.7594  0.2467
  157OSM    C1317510   0.943   1.317   3.220 -0.1722 -0.2061 -0.4297
  157OSM   H13A17511   1.041   1.305   3.175 -0.5638  0.4855 -1.5191
  157OSM   H13B17512   0.867   1.269   3.160  0.3141 -2.0280  0.3373
  157OSM   H13C17513   0.939   1.263   3.313 -0.2571 -0.9526 -0.8574
  157OSM    C1217514   0.777   1.500   3.284  0.0303 -0.2581  0.5434
  157OSM   H12A17515   0.768   1.607   3.293  1.0864 -0.2837  2.6389
  157OSM   H12B17516   0.751   1.454   3.379 -3.0538  0.3870  0.1289
  157OSM    C1117517   0.662   1.456   3.189  0.3805  0.1176  0.2753
  157OSM   H11A17518   0.687   1.493   3.087  0.2890 -0.7566 -0.0711
  157OSM   H11B17519   0.569   1.515   3.202 -0.0051 -0.5591  0.6130
  157OSM      P17520   0.596   1.251   3.336  0.2628 -0.1656 -0.0067
  157OSM    O1317521   0.564   1.110   3.307  0.0934 -0.3579  0.4081
  157OSM    O1417522   0.700   1.272   3.437  0.5404  0.0663  0.0789
  157OSM    O1117523   0.470   1.333   3.374 -0.5240 -0.3768  0.2042
  157OSM    O1217524   0.637   1.318   3.197 -0.2978 -0.0511  0.0301
  157OSM    C1S17525   0.393   1.281   3.482 -0.0053 -0.3804  0.1627
  157OSM    H1S17526   0.369   1.173   3.473  0.5488 -0.4059 -1.4615
  157OSM    H1T17527   0.296   1.335   3.480 -0.3752 -1.0307  0.3691
  157OSM     NF17528   0.402   1.233   3.734 -0.2058 -0.5356 -0.0815
  157OSM    HNF17529   0.331   1.267   3.795  1.8249  1.4211  1.3645
  157OSM    C2S17530   0.451   1.323   3.627 -0.6293  0.3340  1.2096
  157OSM    H2S17531   0.561   1.306   3.623 -0.5082  1.2147  0.5005
  157OSM    C3S17532   0.446   1.474   3.654 -0.2584  0.3684  0.5628
  157OSM    H3S17533   0.341   1.506   3.670 -0.2060  0.8902 -0.0818
  157OSM     O317534   0.481   1.542   3.537  0.4432 -0.2092  0.2095
  157OSM    HO317535   0.499   1.473   3.472 -1.8319  0.1757 -0.9149
  157OSM    C4S17536   0.530   1.512   3.780  0.2125  0.1025 -0.3559
  157OSM    H4S17537   0.490   1.476   3.876 -2.9485  0.4116 -1.4440
  157OSM    C5S17538   0.646   1.583   3.786 -0.0656 -0.0443 -0.2050
  157OSM    H5S17539   0.674   1.648   3.702 -1.0960  2.5659  1.3451
  157OSM    C6S17540   0.724   1.613   3.912  0.1268 -0.2956 -0.1022
  157OSM    H6S17541   0.765   1.716   3.898 -1.0531  0.8365  3.5959
  157OSM    H6T17542   0.815   1.550   3.905  1.9822  2.2938 -1.4114
  157OSM    C7S17543   0.651   1.617   4.045 -1.0197  0.1987 -0.7168
  157OSM    H7S17544   0.622   1.515   4.077 -0.6329  0.8645  2.0527
  157OSM    H7T17545   0.556   1.676   4.047 -0.3089  1.3730 -0.0886
  157OSM    C8S17546   0.747   1.680   4.147 -0.5663 -0.8057  0.1078
  157OSM    H8S17547   0.785   1.780   4.119 -1.4229 -1.0735 -2.1999
  157OSM    H8T17548   0.834   1.611   4.143 -1.5188 -2.0049 -1.0658
  157OSM    C9S17549   0.706   1.674   4.293  0.4058 -0.8825  0.5751
  157OSM    H9S17550   0.790   1.711   4.356  2.1724 -2.3597 -0.7743
  157OSM    H9T17551   0.689   1.568   4.320 -1.1455 -1.2457 -1.5534
  157OSM   C10S17552   0.574   1.754   4.321 -0.1701  0.1067  1.1921
  157OSM   H10S17553   0.492   1.713   4.258  0.2193 -0.4129  1.0102
  157OSM   H10T17554   0.575   1.861   4.292 -0.6223  0.3358  1.9815
  157OSM   C11S17555   0.529   1.747   4.468  0.6859  0.5002  0.0691
  157OSM   H11S17556   0.607   1.797   4.529  0.6512  2.6653 -1.5206
  157OSM   H11T17557   0.529   1.640   4.497  1.4046  0.6641  0.6933
  157OSM   C12S17558   0.388   1.805   4.492  0.1917  0.7026  0.3105
  157OSM   H12S17559   0.316   1.750   4.428 -1.1959  2.3869  0.3604
  157OSM   H12T17560   0.401   1.912   4.467  2.2086  0.7195  1.2269
  157OSM   C13S17561   0.336   1.796   4.635 -0.6611 -0.4951 -0.2760
  157OSM   H13S17562   0.233   1.831   4.616 -0.4523 -0.0864 -0.6992
  157OSM   H13T17563   0.384   1.872   4.701  2.0902 -0.4488 -2.1449
  157OSM   C14S17564   0.338   1.651   4.684  0.0498  0.6806  0.5067
  157OSM   H14S17565   0.443   1.617   4.694  0.1695  0.3960 -1.2565
  157OSM   H14T17566   0.291   1.595   4.599 -0.2481  0.8371  0.5663
  157OSM   C15S17567   0.265   1.629   4.811 -0.1258  0.6055 -0.5824
  157OSM   H15S17568   0.170   1.687   4.804  0.7071  2.0329 -0.6319
  157OSM   H15T17569   0.321   1.683   4.890 -0.6106  0.5789 -0.2156
  157OSM   C16S17570   0.251   1.481   4.853 -0.0082  0.1648 -0.1210
  157OSM   H16S17571   0.357   1.460   4.880  0.1704 -0.3441 -1.1294
  157OSM   H16T17572   0.213   1.419   4.768 -0.0674 -0.3523  0.2803
  157OSM   C17S17573   0.158   1.452   4.968  0.1637  0.2555  0.5613
  157OSM   H17S17574   0.061   1.445   4.913  0.2776 -0.9764  0.4853
  157OSM   H17T17575   0.164   1.538   5.039 -0.3337  1.3438 -0.6646
  157OSM   C18S17576   0.186   1.324   5.049 -0.0950  0.0354 -1.1109
  157OSM   H18S17577   0.109   1.307   5.127  0.9100  0.7949  0.0981
  157OSM   H18T17578   0.287   1.327   5.095 -0.3225 -0.2110 -0.5861
  157OSM   H18U17579   0.185   1.231   4.988  0.8168 -0.0392 -1.0326
  157OSM    C1F17580   0.441   1.106   3.747  0.4974  0.1655  0.1473
  157OSM     OF17581   0.530   1.064   3.681  0.3528 -0.1912 -0.5239
  157OSM    C2F17582   0.369   1.026   3.847  0.4622 -0.3598 -0.4878
  157OSM    H2F17583   0.277   0.997   3.791  0.8552 -1.2086 -0.7029
  157OSM    H2G17584   0.331   1.084   3.934  0.2833 -2.5532  0.9671
  157OSM    C3F17585   0.451   0.911   3.887 -0.0893 -0.9697 -0.2110
  157OSM    H3F17586   0.546   0.940   3.936  0.0214 -0.3315 -0.7864
  157OSM    H3G17587   0.484   0.856   3.796  0.5114  1.3900 -1.4933
  157OSM    C4F17588   0.380   0.810   3.985 -0.4996  0.3133 -0.1550
  157OSM    H4F17589   0.449   0.725   3.967  1.2389  1.9728 -1.8718
  157OSM    H4G17590   0.284   0.784   3.935  0.6232  2.4497 -3.7760
  157OSM    C5F17591   0.367   0.861   4.128  0.1244 -0.1982 -0.4836
  157OSM    H5F17592   0.289   0.939   4.145  0.1075 -0.3225  0.0244
  157OSM    H5G17593   0.468   0.903   4.149 -0.2053  0.9076 -0.9879
  157OSM    C6F17594   0.329   0.755   4.234  0.1954  0.3177  0.8235
  157OSM    H6F17595   0.376   0.659   4.203 -1.0900 -0.4471  1.1731
  157OSM    H6G17596   0.223   0.725   4.222  0.2642  0.3951 -0.0351
  157OSM    C7F17597   0.379   0.782   4.382 -0.2451  0.6093 -0.4141
  157OSM    H7F17598   0.487   0.803   4.393  0.1257 -0.1870 -2.2876
  157OSM    H7G17599   0.362   0.687   4.437 -0.1783  1.0532  0.3905
  157OSM    C8F17600   0.291   0.899   4.447 -0.0872  0.0240  0.4011
  157OSM    H8F17601   0.189   0.857   4.459 -0.3235  0.3808 -0.3535
  157OSM    H8G17602   0.307   0.984   4.377 -1.5022  0.5423  0.6745
  157OSM    C9F17603   0.345   0.940   4.580  0.0139  0.0680 -0.2380
  157OSM    H9F17604   0.440   0.997   4.582  0.3673 -0.5380  1.1985
  157OSM   C10F17605   0.301   0.908   4.699 -0.2396  0.4018  0.6413
  157OSM   H10F17606   0.359   0.954   4.780  0.9106  0.8883 -0.4403
  157OSM   C11F17607   0.184   0.821   4.740  0.0491 -0.6734 -0.5668
  157OSM   H11F17608   0.131   0.776   4.654  0.7748 -1.9590 -0.3592
  157OSM   H11G17609   0.114   0.890   4.792  0.3938 -0.9255  0.2498
  157OSM   C12F17610   0.236   0.714   4.840 -0.4411  0.3625 -0.1700
  157OSM   H12F17611   0.324   0.649   4.821 -1.4254 -0.8718 -0.7065
  157OSM   H12G17612   0.147   0.651   4.860 -1.3129  1.7793  0.5638
  157OSM   C13F17613   0.280   0.776   4.979 -0.6146  0.1105 -0.5674
  157OSM   H13F17614   0.374   0.833   4.959  1.1547 -2.5783 -0.4459
  157OSM   H13G17615   0.317   0.687   5.033  0.9623 -0.6707 -2.7556
  157OSM   C14F17616   0.171   0.853   5.056  0.1009  0.8458 -0.4159
  157OSM   H14F17617   0.077   0.794   5.057  0.3044  0.5227  0.3695
  157OSM   H14G17618   0.147   0.941   4.993 -1.6537 -0.2515 -1.3576
  157OSM   C15F17619   0.210   0.893   5.197 -0.0609  0.3997 -0.0609
  157OSM   H15F17620   0.308   0.945   5.196 -0.5353  1.3121 -0.9525
  157OSM   H15G17621   0.226   0.800   5.256 -0.5291  0.0409 -0.4874
  157OSM   C16F17622   0.096   0.978   5.262 -0.6998  0.4066 -0.1949
  157OSM   H16F17623   0.003   0.919   5.278 -0.3140  0.4471  2.7776
  157OSM   H16G17624   0.075   1.061   5.192 -0.3094  0.6963  0.0288
  157OSM   C17F17625   0.147   1.041   5.394  0.0678  0.1635  0.3608
  157OSM   H17F17626   0.198   1.135   5.362  1.2637 -1.0625 -1.5662
  157OSM   H17G17627   0.216   0.969   5.443 -1.6422 -0.3079  2.1649
  157OSM   C18F17628   0.045   1.077   5.499 -0.5765 -0.3536 -0.2789
  157OSM   H18F17629   0.085   1.138   5.582  0.2820 -0.1717 -0.8137
  157OSM   H18G17630  -0.010   0.983   5.524 -1.0397  0.3506  1.5396
  157OSM   H18H17631  -0.030   1.131   5.439  1.1498  2.3496 -0.1657
  158OSM      N17632   5.385   5.846   3.567 -0.2315  0.2767  0.4917
  158OSM    C1517633   5.499   5.860   3.460  0.3314  0.3367 -0.2361
  158OSM   H15A17634   5.517   5.772   3.400  0.5103  0.8847 -0.9983
  158OSM   H15B17635   5.597   5.873   3.504 -0.6453 -0.6477  2.3862
  158OSM   H15C17636   5.475   5.947   3.401 -2.0715 -0.2138 -0.1452
  158OSM    C1417637   5.412   5.728   3.656 -0.2125  0.7939 -0.2993
  158OSM   H14A17638   5.401   5.641   3.593 -0.4125  2.6955 -3.1208
  158OSM   H14B17639   5.339   5.721   3.735  1.2219 -0.1583  0.9937
  158OSM   H14C17640   5.517   5.737   3.682 -0.5589  4.5192  0.4264
  158OSM    C1317641   5.396   5.970   3.651  0.0407 -0.0167 -0.6687
  158OSM   H13A17642   5.371   6.064   3.604  1.7503  0.6245 -0.3706
  158OSM   H13B17643   5.501   5.977   3.673  0.2647  2.6708 -2.1877
  158OSM   H13C17644   5.342   5.948   3.742  0.6261  0.3154 -0.2336
  158OSM    C1217645   5.259   5.830   3.482 -0.0401  0.7167  0.4592
  158OSM   H12A17646   5.276   5.730   3.445 -2.3221  0.0013  1.1489
  158OSM   H12B17647   5.248   5.905   3.405 -0.2095  1.0129  0.7709
  158OSM    C1117648   5.117   5.818   3.557  0.2668  0.0167 -0.5513
  158OSM   H11A17649   5.130   5.741   3.635 -0.6088  1.2647  0.8735
  158OSM   H11B17650   5.035   5.797   3.484 -1.0342  0.0374  0.8682
  158OSM      P17651   5.007   6.057   3.602 -0.0239  0.2144  0.1708
  158OSM    O1317652   5.014   6.160   3.712 -0.2251 -0.0429  0.0519
  158OSM    O1417653   5.023   6.112   3.466  0.4260 -0.1935 -0.0654
  158OSM    O1117654   4.859   6.001   3.612  0.3314 -0.0763  0.2112
  158OSM    O1217655   5.107   5.940   3.621 -0.0269  0.0907  0.0038
  158OSM    C1S17656   4.816   5.916   3.722  0.4185  0.5282  0.2525
  158OSM    H1S17657   4.882   5.828   3.735 -1.1514 -0.9012 -0.9665
  158OSM    H1T17658   4.717   5.870   3.701  0.2342  0.7509  0.6101
  158OSM     NF17659   4.743   5.873   3.951 -0.0886 -0.3557 -0.1489
  158OSM    HNF17660   4.654   5.831   3.938 -0.5732  0.9744 -1.4140
  158OSM    C2S17661   4.779   5.977   3.855  0.1877  0.7425 -0.3580
  158OSM    H2S17662   4.864   6.036   3.897  0.4560  0.0390  0.1116
  158OSM    C3S17663   4.665   6.078   3.837  0.1854 -0.0308 -0.1721
  158OSM    H3S17664   4.576   6.014   3.819 -0.3028  0.4811  0.3683
  158OSM     O317665   4.672   6.166   3.722 -0.1959 -0.2768 -0.0590
  158OSM    HO317666   4.733   6.117   3.667 -0.5325 -1.6860  0.7844
  158OSM    C4S17667   4.627   6.147   3.968  0.2684  0.4324  0.3550
  158OSM    H4S17668   4.535   6.100   4.004 -0.5734  0.2973 -1.7896
  158OSM    C5S17669   4.686   6.255   4.024 -0.8700  0.6934  0.0745
  158OSM    H5S17670   4.783   6.291   3.987  0.5800 -2.1654  0.7895
  158OSM    C6S17671   4.624   6.308   4.151  0.1638  0.0641  0.6396
  158OSM    H6S17672   4.513   6.301   4.153  0.1894 -0.7686 -0.1503
  158OSM    H6T17673   4.637   6.418   4.144 -0.7466  0.0823 -2.0622
  158OSM    C7S17674   4.685   6.260   4.284 -0.9368  0.3330 -0.2812
  158OSM    H7S17675   4.638   6.160   4.292 -0.5196  0.1365 -0.2829
  158OSM    H7T17676   4.662   6.325   4.371 -0.0120  0.5441 -0.1851
  158OSM    C8S17677   4.840   6.239   4.273  0.2924 -0.0520  0.2532
  158OSM    H8S17678   4.866   6.332   4.218 -3.6188  1.5770  0.8774
  158OSM    H8T17679   4.856   6.146   4.214 -0.2406 -0.9240  1.4510
  158OSM    C9S17680   4.916   6.225   4.415 -0.3855 -0.3552 -0.2422
  158OSM    H9S17681   4.916   6.320   4.473  2.6585  0.6470 -1.6783
  158OSM    H9T17682   5.020   6.204   4.381 -0.5765 -0.3738 -0.8384
  158OSM   C10S17683   4.861   6.099   4.488  0.0857 -0.6899 -0.0628
  158OSM   H10S17684   4.857   6.013   4.417  1.0536 -2.3424  1.7864
  158OSM   H10T17685   4.753   6.113   4.510  0.1372 -0.9676  0.3797
  158OSM   C11S17686   4.947   6.060   4.609 -0.1858 -0.2400 -0.1826
  158OSM   H11S17687   4.949   6.145   4.680  0.8298  1.0338 -1.6606
  158OSM   H11T17688   5.048   6.035   4.569 -0.0889  0.6848 -0.5683
  158OSM   C12S17689   4.893   5.930   4.679 -0.0656  0.0232  0.1424
  158OSM   H12S17690   4.886   5.855   4.597 -0.3900  1.0927 -0.8465
  158OSM   H12T17691   4.789   5.953   4.711 -0.6115  1.4850 -2.4041
  158OSM   C13S17692   4.982   5.885   4.794 -0.6038 -0.2011  0.7074
  158OSM   H13S17693   5.086   5.872   4.758 -0.8223 -0.7735  0.2707
  158OSM   H13T17694   4.950   5.782   4.822  0.1559 -1.5849 -2.9746
  158OSM   C14S17695   4.991   5.990   4.908  0.8037  0.5303  0.6755
  158OSM   H14S17696   5.051   6.075   4.869  2.5630 -0.8423  0.2780
  158OSM   H14T17697   5.050   5.957   4.996  1.6760 -0.2971 -0.1947
  158OSM   C15S17698   4.854   6.041   4.955 -0.3679  0.5886  0.0182
  158OSM   H15S17699   4.804   6.092   4.870 -1.0075 -0.8502 -0.5168
  158OSM   H15T17700   4.875   6.108   5.040 -1.3303  0.0563  0.6941
  158OSM   C16S17701   4.769   5.933   5.010 -0.2268  0.6300  0.4962
  158OSM   H16S17702   4.803   5.899   5.110 -2.3830  0.2620  1.1439
  158OSM   H16T17703   4.772   5.847   4.939 -0.8475  0.8967  0.1415
  158OSM   C17S17704   4.620   5.974   5.021  0.3332  0.8851 -0.2571
  158OSM   H17S17705   4.593   6.013   4.920 -0.1029  0.4449 -0.3169
  158OSM   H17T17706   4.603   6.058   5.092 -0.5996 -0.4248  1.1246
  158OSM   C18S17707   4.525   5.858   5.056  1.0318 -0.4911 -0.2374
  158OSM   H18S17708   4.546   5.789   4.971  3.1285 -0.0906 -0.1093
  158OSM   H18T17709   4.418   5.886   5.048  1.4035  1.3634  0.7378
  158OSM   H18U17710   4.549   5.825   5.160 -2.6297 -1.9772  0.3042
  158OSM    C1F17711   4.842   5.822   4.025 -0.6909 -0.4073 -0.4874
  158OSM     OF17712   4.953   5.863   4.008  0.6502  0.2231  0.1071
  158OSM    C2F17713   4.817   5.713   4.126  0.3248 -0.4409  0.4785
  158OSM    H2F17714   4.849   5.619   4.077  0.3021  0.8141 -2.1243
  158OSM    H2G17715   4.710   5.715   4.155 -0.3326  0.2041 -1.7971
  158OSM    C3F17716   4.899   5.731   4.259 -0.2934 -0.1742  0.0977
  158OSM    H3F17717   4.875   5.826   4.312  1.5414  0.1874  0.3487
  158OSM    H3G17718   5.005   5.730   4.225 -0.1121  0.0488  0.6394
  158OSM    C4F17719   4.878   5.618   4.353 -0.6978 -0.2426  0.3183
  158OSM    H4F17720   4.880   5.528   4.287  0.6681  0.6982 -0.9640
  158OSM    H4G17721   4.779   5.622   4.404 -0.7356 -1.6059  0.4101
  158OSM    C5F17722   4.986   5.592   4.465 -0.4431  0.2119  0.4839
  158OSM    H5F17723   4.982   5.677   4.535 -0.6410  1.3445 -0.8568
  158OSM    H5G17724   5.086   5.601   4.416 -0.3543  1.6549  0.9054
  158OSM    C6F17725   4.955   5.457   4.538  0.2302 -0.0211 -0.0309
  158OSM    H6F17726   4.937   5.377   4.464  0.9256 -0.1066 -0.1168
  158OSM    H6G17727   4.871   5.454   4.611  0.8669 -3.4891  0.7563
  158OSM    C7F17728   5.086   5.406   4.610  0.2826  0.5151  0.0802
  158OSM    H7F17729   5.164   5.405   4.531 -0.9396  0.5999 -1.1777
  158OSM    H7G17730   5.068   5.307   4.657  1.8373  0.9629  1.7081
  158OSM    C8F17731   5.121   5.508   4.717  0.0315 -0.1724 -0.3425
  158OSM    H8F17732   5.038   5.534   4.785  1.2578 -0.3390  1.2799
  158OSM    H8G17733   5.126   5.610   4.673  0.0826  0.1836  0.4805
  158OSM    C9F17734   5.242   5.467   4.793 -1.0819 -0.0879  0.0255
  158OSM    H9F17735   5.316   5.425   4.723 -0.4902  1.9775 -0.6654
  158OSM   C10F17736   5.271   5.476   4.926  0.2280  0.1829  0.2486
  158OSM   H10F17737   5.371   5.452   4.967 -0.1891  0.7862  1.6648
  158OSM   C11F17738   5.182   5.546   5.029 -0.1725  0.9714 -0.0707
  158OSM   H11F17739   5.099   5.603   4.982 -0.1192  2.5948  1.7097
  158OSM   H11G17740   5.232   5.628   5.084 -1.2232  0.9188  1.0002
  158OSM   C12F17741   5.131   5.437   5.125 -0.0722  0.1815 -0.1042
  158OSM   H12F17742   5.212   5.363   5.139 -0.4016 -0.1593  0.0398
  158OSM   H12G17743   5.048   5.378   5.081  0.5960 -3.6133  3.0975
  158OSM   C13F17744   5.090   5.476   5.268  0.6508  0.3606  1.0705
  158OSM   H13F17745   5.026   5.566   5.253  0.6707 -0.0652 -2.1900
  158OSM   H13G17746   5.184   5.488   5.327  0.4839  0.4877  1.3095
  158OSM   C14F17747   5.010   5.377   5.349 -0.0711  1.6083  0.1866
  158OSM   H14F17748   5.069   5.283   5.340 -3.1774 -0.3296 -2.2356
  158OSM   H14G17749   4.921   5.366   5.282 -2.3142  0.1483  3.1540
  158OSM   C15F17750   4.966   5.415   5.486 -0.4960  0.1806 -0.3272
  158OSM   H15F17751   4.938   5.323   5.541  0.3805  0.9488  1.4930
  158OSM   H15G17752   4.886   5.492   5.478 -0.8324 -0.0701  0.4830
  158OSM   C16F17753   5.061   5.492   5.580 -0.4291  0.4235  0.5062
  158OSM   H16F17754   5.108   5.572   5.518  0.0762  1.2141  1.8771
  158OSM   H16G17755   5.145   5.424   5.601  0.6702  1.1325 -1.3118
  158OSM   C17F17756   5.015   5.567   5.707 -0.9771  0.7842 -0.2710
  158OSM   H17F17757   4.974   5.670   5.697 -1.0667  0.9783  1.6740
  158OSM   H17G17758   5.101   5.583   5.776  0.4621  1.4884 -2.1386
  158OSM   C18F17759   4.912   5.497   5.790  0.1204 -0.6540  0.2272
  158OSM   H18F17760   4.875   5.541   5.885  0.3798 -1.9328  0.9429
  158OSM   H18G17761   4.933   5.392   5.820  1.4832 -0.0029  1.6672
  158OSM   H18H17762   4.818   5.475   5.734 -0.4047 -2.1751  1.6252
  159OSM      N17763   0.109   1.572   3.246 -0.5891 -0.0597  0.3511
  159OSM    C1517764   0.135   1.691   3.155  0.0966 -0.0285  0.1464
  159OSM   H15A17765   0.198   1.666   3.070 -1.8172  0.3935 -1.4629
  159OSM   H15B17766   0.199   1.769   3.195 -1.8020  1.6956 -0.0269
  159OSM   H15C17767   0.040   1.723   3.116  0.0307  2.3853  2.0596
  159OSM    C1417768   0.004   1.485   3.185 -0.2254  0.2939 -0.2814
  159OSM   H14A17769   0.045   1.438   3.096  1.0023  2.2789 -0.8073
  159OSM   H14B17770  -0.082   1.537   3.147  0.8686  0.7152 -2.3062
  159OSM   H14C17771  -0.030   1.408   3.253 -0.4624 -0.3566 -1.1083
  159OSM    C1317772   0.242   1.503   3.274  0.1729  0.9589 -0.3956
  159OSM   H13A17773   0.306   1.569   3.331 -0.0939 -0.7224  1.9825
  159OSM   H13B17774   0.296   1.489   3.180  1.7540  1.8616  0.3341
  159OSM   H13C17775   0.218   1.410   3.323 -3.4080  0.9642 -1.8308
  159OSM    C1217776   0.052   1.627   3.377  0.2601 -0.1177  0.6773
  159OSM   H12A17777  -0.030   1.693   3.353  0.3056 -0.6662 -1.1953
  159OSM   H12B17778   0.131   1.687   3.420  0.3043 -1.0035  1.8747
  159OSM    C1117779   0.003   1.526   3.488  0.4742 -0.2129  0.7946
  159OSM   H11A17780  -0.045   1.585   3.569  0.1367 -0.1416  0.5457
  159OSM   H11B17781   0.087   1.467   3.530 -0.0391 -2.3289 -0.9680
  159OSM      P17782  -0.246   1.468   3.429 -0.2448  0.4821 -0.3705
  159OSM    O1317783  -0.257   1.607   3.374  0.3841 -0.6387 -0.3307
  159OSM    O1417784  -0.308   1.351   3.356 -0.1130  0.1413  0.4862
  159OSM    O1117785  -0.289   1.472   3.581  0.1457 -0.0938 -0.3572
  159OSM    O1217786  -0.093   1.429   3.433 -0.1492  0.6016 -0.1692
  159OSM    C1S17787  -0.243   1.368   3.669 -0.4080 -0.0998  0.3019
  159OSM    H1S17788  -0.137   1.388   3.693 -1.1959  3.2932  1.6756
  159OSM    H1T17789  -0.248   1.267   3.624  1.5362 -0.5134  0.9383
  159OSM     NF17790  -0.272   1.234   3.878 -0.4658  0.8330  0.0297
  159OSM    HNF17791  -0.339   1.163   3.901  1.9665 -0.9272  2.3260
  159OSM    C2S17792  -0.315   1.353   3.805 -0.6678 -0.8790  0.2766
  159OSM    H2S17793  -0.285   1.443   3.864 -1.8910 -0.2904  0.0381
  159OSM    C3S17794  -0.468   1.377   3.793 -0.3936 -0.2529  0.3104
  159OSM    H3S17795  -0.504   1.297   3.724  0.3190  0.1806 -0.5772
  159OSM     O317796  -0.500   1.493   3.717 -0.3039  0.0087  0.1291
  159OSM    HO317797  -0.414   1.518   3.683  0.8363 -1.1721  1.9953
  159OSM    C4S17798  -0.531   1.376   3.931 -0.3649  0.2816 -0.1304
  159OSM    H4S17799  -0.553   1.275   3.968  1.2912  0.2203  0.7608
  159OSM    C5S17800  -0.549   1.481   4.020  0.7038 -0.0069 -0.9233
  159OSM    H5S17801  -0.539   1.581   3.976  1.9235  0.6224  0.6858
  159OSM    C6S17802  -0.590   1.464   4.167 -0.3908  0.2497 -0.3769
  159OSM    H6S17803  -0.685   1.512   4.201 -0.4531 -0.6964  0.8822
  159OSM    H6T17804  -0.513   1.514   4.230  1.0467 -2.7783  0.4745
  159OSM    C7S17805  -0.607   1.322   4.221 -0.1946  0.0361 -0.2089
  159OSM    H7S17806  -0.506   1.275   4.215  0.6478  1.6715  0.5242
  159OSM    H7T17807  -0.689   1.268   4.170 -0.4520  0.1134  0.1216
  159OSM    C8S17808  -0.650   1.321   4.369  0.2730  0.5126  1.0277
  159OSM    H8S17809  -0.704   1.230   4.402  3.2193 -1.6145  0.3523
  159OSM    H8T17810  -0.715   1.409   4.390 -0.0850 -0.4185  4.3473
  159OSM    C9S17811  -0.533   1.323   4.468  0.3116 -0.6362  0.2379
  159OSM    H9S17812  -0.505   1.430   4.479  0.0122 -0.3729 -1.2603
  159OSM    H9T17813  -0.443   1.286   4.413  1.5917  2.7335 -0.1887
  159OSM   C10S17814  -0.553   1.258   4.601  0.2627  0.0700 -0.5007
  159OSM   H10S17815  -0.651   1.289   4.643  0.4041  1.1348 -0.9268
  159OSM   H10T17816  -0.472   1.305   4.660  0.8598 -0.7711 -0.6309
  159OSM   C11S17817  -0.541   1.101   4.584 -0.0464  0.1309 -0.3829
  159OSM   H11S17818  -0.438   1.085   4.549  0.3438 -0.9281  1.1415
  159OSM   H11T17819  -0.615   1.070   4.507 -1.3294  1.7906  0.1141
  159OSM   C12S17820  -0.574   1.029   4.711 -0.0191  0.6277  0.0426
  159OSM   H12S17821  -0.677   1.054   4.745  0.3423 -0.3993  2.0081
  159OSM   H12T17822  -0.508   1.058   4.796  0.3860  0.7072 -0.2985
  159OSM   C13S17823  -0.566   0.874   4.695 -1.1620  0.3311 -0.3259
  159OSM   H13S17824  -0.464   0.832   4.685 -1.0224  1.0086 -2.1730
  159OSM   H13T17825  -0.614   0.853   4.597 -2.3745 -0.1510  0.3450
  159OSM   C14S17826  -0.637   0.788   4.800  0.8232  0.2337 -0.1074
  159OSM   H14S17827  -0.619   0.682   4.771  0.0880  0.0935 -0.0869
  159OSM   H14T17828  -0.747   0.802   4.796  0.6707 -0.9544 -0.7025
  159OSM   C15S17829  -0.592   0.816   4.939 -0.0376 -0.4510  0.3321
  159OSM   H15S17830  -0.613   0.921   4.968  3.0307  0.3022  0.2238
  159OSM   H15T17831  -0.481   0.807   4.941 -0.0341 -1.2477 -1.4456
  159OSM   C16S17832  -0.638   0.706   5.041 -0.0250  0.3168  0.4253
  159OSM   H16S17833  -0.591   0.608   5.018 -1.1926 -0.1237 -0.1891
  159OSM   H16T17834  -0.745   0.692   5.015  0.0775  1.3320 -0.5878
  159OSM   C17S17835  -0.619   0.753   5.184  0.7115  0.3888 -0.5813
  159OSM   H17S17836  -0.516   0.795   5.184 -0.4627  3.6788 -2.9860
  159OSM   H17T17837  -0.616   0.675   5.264 -0.6837  0.7443 -0.1556
  159OSM   C18S17838  -0.712   0.858   5.240 -0.1292 -0.6014  0.5245
  159OSM   H18S17839  -0.661   0.901   5.329  0.2843  1.8145 -0.7755
  159OSM   H18T17840  -0.818   0.830   5.259 -0.2362 -0.2308  0.4819
  159OSM   H18U17841  -0.713   0.949   5.176 -0.1882 -0.5509  0.5969
  159OSM    C1F17842  -0.146   1.196   3.903 -0.5252 -0.0982 -0.3301
  159OSM     OF17843  -0.053   1.269   3.878 -0.1225 -0.5947 -0.4996
  159OSM    C2F17844  -0.117   1.058   3.961  0.4182  0.3827  0.0160
  159OSM    H2F17845  -0.068   1.006   3.876 -0.3219  2.9735 -2.1216
  159OSM    H2G17846  -0.209   0.997   3.976 -0.9768  2.4807  0.3907
  159OSM    C3F17847  -0.021   1.045   4.084  0.0740 -0.1710 -0.0684
  159OSM    H3F17848   0.056   1.124   4.072  0.3136 -0.6817 -2.2312
  159OSM    H3G17849   0.029   0.947   4.069 -1.4968 -0.6317 -2.8080
  159OSM    C4F17850  -0.100   1.049   4.221 -0.5633 -0.0429 -0.2732
  159OSM    H4F17851  -0.159   0.955   4.236  0.9948 -0.9923  0.1154
  159OSM    H4G17852  -0.174   1.130   4.204 -0.5867 -0.2821 -1.4386
  159OSM    C5F17853  -0.020   1.087   4.351  0.6527 -0.5599 -0.4804
  159OSM    H5F17854   0.047   1.172   4.326  1.7379 -0.7003  1.7755
  159OSM    H5G17855   0.042   1.000   4.380 -1.3847 -1.0754  2.7956
  159OSM    C6F17856  -0.107   1.109   4.476 -0.6114  0.5098 -0.0297
  159OSM    H6F17857  -0.196   1.044   4.463 -0.1061 -0.0263 -0.9604
  159OSM    H6G17858  -0.139   1.215   4.490 -1.8374 -0.0888  2.0444
  159OSM    C7F17859  -0.047   1.068   4.620  0.0375  0.5234  0.8279
  159OSM    H7F17860   0.007   1.159   4.654  0.8731  0.0054  0.9191
  159OSM    H7G17861   0.027   0.987   4.610  0.5434  0.9356  1.1639
  159OSM    C8F17862  -0.162   1.024   4.713 -0.3395 -0.3043  0.0630
  159OSM    H8F17863  -0.127   0.972   4.805 -1.2261  1.7054  1.6125
  159OSM    H8G17864  -0.222   0.956   4.649 -2.6199 -0.4676  2.2082
  159OSM    C9F17865  -0.245   1.139   4.766 -0.2707 -0.3920  0.3293
  159OSM    H9F17866  -0.306   1.185   4.687 -2.4955 -2.2795  0.8029
  159OSM   C10F17867  -0.250   1.183   4.892 -0.3300  0.1528 -1.1782
  159OSM   H10F17868  -0.318   1.267   4.911  1.2420  1.3008 -0.4377
  159OSM   C11F17869  -0.173   1.127   5.017 -0.4404  0.0854 -0.3638
  159OSM   H11F17870  -0.138   1.211   5.080  0.4252 -0.8985  0.4811
  159OSM   H11G17871  -0.087   1.060   4.995  1.2930  1.5582  1.5340
  159OSM   C12F17872  -0.273   1.040   5.100  0.3937  0.1602 -0.1519
  159OSM   H12F17873  -0.211   0.991   5.178 -1.4845 -1.5521  0.3656
  159OSM   H12G17874  -0.291   0.954   5.033  0.1488 -0.7480  1.0477
  159OSM   C13F17875  -0.407   1.088   5.152 -0.0515 -0.1353 -0.6991
  159OSM   H13F17876  -0.457   1.012   5.216 -0.8931  0.7970 -0.2254
  159OSM   H13G17877  -0.474   1.110   5.067 -0.4662  0.4606 -0.2299
  159OSM   C14F17878  -0.394   1.210   5.248 -0.0366  0.1459 -0.5104
  159OSM   H14F17879  -0.398   1.307   5.195  2.0361 -0.6905 -2.3646
  159OSM   H14G17880  -0.297   1.199   5.300 -0.9322  1.9046  1.6909
  159OSM   C15F17881  -0.496   1.203   5.364 -0.3150  0.1946  0.6837
  159OSM   H15F17882  -0.464   1.122   5.432  1.0846  0.8210  0.7971
  159OSM   H15G17883  -0.592   1.173   5.316  1.4842  0.9507 -3.9483
  159OSM   C16F17884  -0.525   1.340   5.425 -0.4598  0.6282  0.7333
  159OSM   H16F17885  -0.535   1.420   5.349  0.9592 -0.7742 -1.0197
  159OSM   H16G17886  -0.452   1.368   5.504 -0.2162  1.3393  0.2687
  159OSM   C17F17887  -0.662   1.343   5.493  1.0599  0.2261 -0.7438
  159OSM   H17F17888  -0.666   1.254   5.560 -1.1050  0.4970 -0.4472
  159OSM   H17G17889  -0.745   1.318   5.423  2.6465  0.0003 -2.6433
  159OSM   C18F17890  -0.688   1.482   5.568 -0.5449  0.0931  0.0973
  159OSM   H18F17891  -0.639   1.487   5.667 -0.2327 -2.1004  0.1203
  159OSM   H18G17892  -0.797   1.490   5.589 -1.3077 -1.0628 -2.8717
  159OSM   H18H17893  -0.652   1.570   5.511 -2.4638  0.6490 -0.3483
  160OSM      N17894   3.768   6.494   3.314 -0.4713  0.5428  0.0593
  160OSM    C1517895   3.877   6.422   3.230 -0.8543  0.6608 -0.7438
  160OSM   H15A17896   3.929   6.346   3.286 -0.3876  2.6387  1.7396
  160OSM   H15B17897   3.955   6.493   3.206  2.3197 -1.9052  1.2013
  160OSM   H15C17898   3.843   6.394   3.132 -1.0492  1.8114 -1.0237
  160OSM    C1417899   3.713   6.598   3.228 -0.7958  0.5197  0.1804
  160OSM   H14A17900   3.798   6.658   3.198  0.8978 -2.3951 -1.3487
  160OSM   H14B17901   3.650   6.658   3.292 -0.1182  0.5930  0.7991
  160OSM   H14C17902   3.673   6.566   3.133  1.6908 -0.9271 -0.4781
  160OSM    C1317903   3.666   6.395   3.351  0.5250 -0.9254  0.9259
  160OSM   H13A17904   3.594   6.369   3.275 -0.1251  0.5934  0.9723
  160OSM   H13B17905   3.599   6.446   3.419 -1.6503 -1.8628 -0.4042
  160OSM   H13C17906   3.707   6.310   3.403  1.6193  0.7573  3.0037
  160OSM    C1217907   3.826   6.551   3.439 -0.1423 -0.3341 -1.1441
  160OSM   H12A17908   3.875   6.644   3.413 -0.6500  0.3663  0.2990
  160OSM   H12B17909   3.903   6.484   3.474 -0.3100 -0.7083 -1.4877
  160OSM    C1117910   3.725   6.570   3.554 -0.0394  0.3713 -0.0413
  160OSM   H11A17911   3.773   6.597   3.650  0.7715  0.1069 -0.3688
  160OSM   H11B17912   3.667   6.480   3.583  1.7910 -0.0858  2.5266
  160OSM      P17913   3.668   6.827   3.524 -0.4914  0.3303  0.4836
  160OSM    O1317914   3.807   6.852   3.478  0.3547 -0.7448  0.0869
  160OSM    O1417915   3.570   6.899   3.447 -0.0353  0.1220 -0.2009
  160OSM    O1117916   3.667   6.863   3.675  0.2907 -0.9553  0.1397
  160OSM    O1217917   3.628   6.671   3.520 -0.1116 -0.5652 -0.9772
  160OSM    C1S17918   3.564   6.825   3.764  0.4207  0.2355 -0.4480
  160OSM    H1S17919   3.527   6.727   3.729  1.1390 -0.1235 -0.2133
  160OSM    H1T17920   3.474   6.891   3.764 -0.5463 -1.0250 -1.6291
  160OSM     NF17921   3.515   6.736   3.995  0.3249  0.5873 -0.4596
  160OSM    HNF17922   3.463   6.802   4.049 -2.4017 -1.9663  0.2460
  160OSM    C2S17923   3.617   6.794   3.904 -0.1827 -0.6439 -0.0912
  160OSM    H2S17924   3.695   6.716   3.889  2.5479  1.8420  0.2519
  160OSM    C3S17925   3.699   6.920   3.962  0.1417  0.4418  1.0673
  160OSM    H3S17926   3.628   7.005   3.968 -3.9088 -2.7185  2.3229
  160OSM     O317927   3.818   6.963   3.885  0.2303  0.2578  0.0009
  160OSM    HO317928   3.803   6.919   3.802 -0.0189  3.0279 -1.5540
  160OSM    C4S17929   3.753   6.885   4.099 -0.0527 -0.0861 -0.0407
  160OSM    H4S17930   3.833   6.810   4.104 -1.2740 -1.3773  0.5219
  160OSM    C5S17931   3.699   6.923   4.218  0.7398 -0.6415 -0.1512
  160OSM    H5S17932   3.613   6.991   4.221  0.8541 -0.5157  0.4692
  160OSM    C6S17933   3.751   6.881   4.354  0.4662 -0.7562 -0.4602
  160OSM    H6S17934   3.756   6.771   4.370 -3.9623 -0.7998  2.1765
  160OSM    H6T17935   3.671   6.915   4.422  1.9887 -0.7775  1.4380
  160OSM    C7S17936   3.890   6.949   4.386  0.3702  0.1619  0.6142
  160OSM    H7S17937   3.876   7.058   4.401  2.1101  0.4478  0.3896
  160OSM    H7T17938   3.961   6.943   4.301  1.0431  0.0968  1.1739
  160OSM    C8S17939   3.963   6.900   4.513  0.0394 -0.4907 -0.2888
  160OSM    H8S17940   3.993   6.795   4.492  0.1258 -0.3608 -0.8409
  160OSM    H8T17941   3.894   6.904   4.599  0.1863  0.3358 -0.1953
  160OSM    C9S17942   4.096   6.972   4.543  0.0550  0.5280  0.3518
  160OSM    H9S17943   4.067   7.076   4.569  0.9929  0.6705  0.8869
  160OSM    H9T17944   4.174   6.972   4.464  1.4895 -0.2082  1.7212
  160OSM   C10S17945   4.160   6.924   4.684  0.4152 -0.4993  0.8605
  160OSM   H10S17946   4.127   6.827   4.727  1.5639 -1.6593 -0.7446
  160OSM   H10T17947   4.156   7.014   4.749 -2.4095  0.4591 -0.5003
  160OSM   C11S17948   4.317   6.905   4.680 -0.2356 -0.2197  0.0202
  160OSM   H11S17949   4.374   6.989   4.635 -2.1058  2.1030  1.7159
  160OSM   H11T17950   4.345   6.810   4.629  0.0097  0.1128 -0.4718
  160OSM   C12S17951   4.386   6.899   4.821 -0.1696  0.4188 -0.4953
  160OSM   H12S17952   4.334   6.814   4.870 -0.1313 -0.5649 -2.0573
  160OSM   H12T17953   4.358   6.985   4.885 -1.2795 -1.4782  1.6892
  160OSM   C13S17954   4.537   6.878   4.813  0.4717 -0.5329  0.0776
  160OSM   H13S17955   4.590   6.966   4.773 -1.9593  1.3877  0.8218
  160OSM   H13T17956   4.563   6.794   4.745  2.1444 -1.3051  1.6041
  160OSM   C14S17957   4.604   6.855   4.945 -0.2046 -0.1550 -0.4245
  160OSM   H14S17958   4.578   6.751   4.975 -0.3604 -0.7105 -2.3509
  160OSM   H14T17959   4.549   6.934   5.001 -0.9291 -0.3565 -0.8306
  160OSM   C15S17960   4.752   6.884   4.945 -0.2232 -0.1335 -0.0812
  160OSM   H15S17961   4.785   6.971   4.884  3.8074 -1.7673 -0.5993
  160OSM   H15T17962   4.793   6.794   4.893 -0.2053 -1.2917  1.8679
  160OSM   C16S17963   4.812   6.901   5.089 -0.6808 -0.3750  0.4477
  160OSM   H16S17964   4.730   6.884   5.161 -1.0995  2.2347  0.7037
  160OSM   H16T17965   4.831   7.010   5.104  1.3089 -0.7213  0.7429
  160OSM   C17S17966   4.931   6.811   5.115  0.1980 -0.0251 -0.9907
  160OSM   H17S17967   5.011   6.826   5.040  0.8495  1.6337 -0.0269
  160OSM   H17T17968   4.886   6.713   5.089  1.3547 -0.6520 -0.6784
  160OSM   C18S17969   4.994   6.823   5.252 -0.2719  0.4944  0.7760
  160OSM   H18S17970   4.933   6.804   5.342  0.8140 -0.7383  1.2991
  160OSM   H18T17971   5.052   6.915   5.274  1.5363 -0.4141  0.1015
  160OSM   H18U17972   5.075   6.747   5.264 -0.1503  0.8246  2.2833
  160OSM    C1F17973   3.463   6.614   3.975  0.2829  0.1621  0.4360
  160OSM     OF17974   3.515   6.523   3.909 -0.6656 -0.3357 -0.9406
  160OSM    C2F17975   3.334   6.603   4.045 -0.1965  0.1748 -0.4457
  160OSM    H2F17976   3.253   6.601   3.969 -0.7342 -0.3292  0.1273
  160OSM    H2G17977   3.321   6.700   4.098 -0.9068  0.7076 -1.5604
  160OSM    C3F17978   3.332   6.487   4.151  0.2900 -0.1399  0.8063
  160OSM    H3F17979   3.356   6.389   4.103 -2.6433 -0.3598 -0.4148
  160OSM    H3G17980   3.231   6.473   4.194  0.4974  1.3104  1.8026
  160OSM    C4F17981   3.433   6.506   4.263  0.0745 -0.3851 -0.0746
  160OSM    H4F17982   3.532   6.537   4.222  0.1332 -1.7322 -0.9966
  160OSM    H4G17983   3.441   6.413   4.322 -1.4289  0.2789  1.2358
  160OSM    C5F17984   3.385   6.617   4.363  0.1346 -0.1205  0.4332
  160OSM    H5F17985   3.282   6.597   4.400  0.3427 -2.5177 -0.0841
  160OSM    H5G17986   3.393   6.719   4.320  0.5871 -0.5587 -0.5503
  160OSM    C6F17987   3.481   6.640   4.481 -0.0731  0.5760 -0.1881
  160OSM    H6F17988   3.585   6.660   4.448 -0.3562 -0.7698 -2.0596
  160OSM    H6G17989   3.483   6.546   4.540  2.1696 -0.3857 -1.6388
  160OSM    C7F17990   3.428   6.745   4.579 -0.2065  0.1831  0.3679
  160OSM    H7F17991   3.336   6.710   4.631 -0.5666  0.8522  0.1839
  160OSM    H7G17992   3.390   6.833   4.523  0.0649  1.2594  1.8165
  160OSM    C8F17993   3.532   6.790   4.686  1.0327  0.1114 -0.0888
  160OSM    H8F17994   3.626   6.819   4.633  0.9441 -1.1091 -0.9485
  160OSM    H8G17995   3.560   6.705   4.751  0.5518  0.1025  0.1074
  160OSM    C9F17996   3.479   6.897   4.773 -0.4510 -0.0973  0.6228
  160OSM    H9F17997   3.377   6.937   4.758  0.6795  3.6434  1.7489
  160OSM   C10F17998   3.554   6.969   4.860 -0.3593 -0.1805 -0.2356
  160OSM   H10F17999   3.494   7.041   4.918  1.0108  1.7252 -1.0419
  160OSM   C11F18000   3.697   6.938   4.903 -0.7636 -0.1212 -0.2293
  160OSM   H11F18001   3.734   6.882   4.815 -1.5078 -0.8981 -0.0580
  160OSM   H11G18002   3.716   6.881   4.996 -1.9509  0.3619  0.3351
  160OSM   C12F18003   3.770   7.074   4.942  0.5913 -0.1163  0.2772
  160OSM   H12F18004   3.711   7.120   5.024  0.0721 -1.2387  0.5473
  160OSM   H12G18005   3.748   7.143   4.857  0.3429 -1.3014 -0.6554
  160OSM   C13F18006   3.916   7.048   4.984  0.0506 -1.0061  0.1248
  160OSM   H13F18007   3.965   7.020   4.888 -0.5246 -1.8030  0.0496
  160OSM   H13G18008   3.914   6.957   5.047 -2.3033 -0.6110  0.6986
  160OSM   C14F18009   3.985   7.174   5.043  0.0728  0.0568  0.1880
  160OSM   H14F18010   3.922   7.199   5.132 -0.0150 -0.2365  0.2098
  160OSM   H14G18011   3.991   7.258   4.971  1.3174 -0.7978 -0.7491
  160OSM   C15F18012   4.132   7.152   5.083 -0.2772  0.1041  0.4037
  160OSM   H15F18013   4.192   7.245   5.092  0.8694 -0.5074 -0.6839
  160OSM   H15G18014   4.183   7.089   5.007 -0.2644 -1.1098  1.3698
  160OSM   C16F18015   4.165   7.084   5.223  0.0416 -0.3576  0.0213
  160OSM   H16F18016   4.105   6.991   5.234  0.8216 -0.5850  3.3665
  160OSM   H16G18017   4.141   7.153   5.307 -0.2525  0.0092 -0.3612
  160OSM   C17F18018   4.319   7.042   5.228  0.0944 -0.0194 -0.5012
  160OSM   H17F18019   4.344   6.976   5.142 -0.8058  0.8242 -1.4538
  160OSM   H17G18020   4.339   6.974   5.313  0.7778 -2.6855 -2.6503
  160OSM   C18F18021   4.417   7.156   5.249  0.2799 -0.1138  0.0904
  160OSM   H18F18022   4.384   7.207   5.342  0.7077  0.4821 -0.0869
  160OSM   H18G18023   4.403   7.237   5.175 -1.0579 -0.0377  0.3945
  160OSM   H18H18024   4.524   7.129   5.263  0.1274 -1.2667 -0.7770
  161OSM      N18025   6.745   7.002   3.212 -0.5133  0.2843 -0.6350
  161OSM    C1518026   6.634   6.981   3.109  0.1420  0.4722  0.8337
  161OSM   H15A18027   6.605   6.880   3.088 -1.8565  1.4778 -1.7071
  161OSM   H15B18028   6.663   7.018   3.012 -1.5869 -1.6725 -0.5829
  161OSM   H15C18029   6.548   7.035   3.145 -0.3976  0.5737 -0.5730
  161OSM    C1418030   6.861   6.911   3.175 -0.5035  0.0420  0.0872
  161OSM   H14A18031   6.956   6.931   3.222 -0.5930  1.5478 -0.3334
  161OSM   H14B18032   6.878   6.919   3.069 -2.2490  2.1825 -0.1068
  161OSM   H14C18033   6.831   6.811   3.201  1.8440 -1.2734 -1.8495
  161OSM    C1318034   6.788   7.145   3.202 -0.3742  0.4872 -0.1495
  161OSM   H13A18035   6.797   7.185   3.102  1.4470  2.9755  0.9249
  161OSM   H13B18036   6.879   7.161   3.257  1.1279 -1.0307 -2.0165
  161OSM   H13C18037   6.717   7.208   3.253  1.3452  0.9448  1.7975
  161OSM    C1218038   6.697   6.983   3.356 -0.3501 -0.5656 -0.5086
  161OSM   H12A18039   6.656   6.883   3.357 -0.1237 -0.6584 -0.4357
  161OSM   H12B18040   6.617   7.054   3.370 -0.0230 -0.2324 -0.2955
  161OSM    C1118041   6.802   7.001   3.472 -0.4563  0.0523 -0.0375
  161OSM   H11A18042   6.874   6.917   3.462 -0.5576  0.0253 -0.6242
  161OSM   H11B18043   6.741   6.980   3.562 -1.0211 -1.3323 -0.7065
  161OSM      P18044   7.007   7.159   3.491 -0.0358  0.1194  0.3112
  161OSM    O1318045   7.081   7.030   3.489  0.3526  0.0820  0.1123
  161OSM    O1418046   7.048   7.260   3.394  0.5253  0.1018 -0.1621
  161OSM    O1118047   7.017   7.222   3.636 -0.0713 -0.3967  0.1947
  161OSM    O1218048   6.854   7.127   3.472 -0.2723 -0.0097 -0.0364
  161OSM    C1S18049   7.003   7.139   3.748 -0.3048 -0.5132 -0.8431
  161OSM    H1S18050   7.090   7.070   3.759  0.1254  0.1014 -0.2943
  161OSM    H1T18051   6.908   7.082   3.742 -0.8062 -0.5870  3.9324
  161OSM     NF18052   6.999   7.144   3.992 -0.2241  0.1136  0.2634
  161OSM    HNF18053   6.910   7.120   4.030 -1.0503  2.0348 -0.3571
  161OSM    C2S18054   6.988   7.228   3.873  0.0584  0.2367  0.2606
  161OSM    H2S18055   7.077   7.294   3.871 -0.4253  1.0176  2.2783
  161OSM    C3S18056   6.853   7.314   3.862 -0.0079 -0.2197 -0.5014
  161OSM    H3S18057   6.771   7.242   3.881  1.0772 -0.8917  2.0399
  161OSM     O318058   6.824   7.375   3.732 -0.3369  0.4097 -0.0525
  161OSM    HO318059   6.899   7.354   3.675 -0.8157  0.8462 -0.8691
  161OSM    C4S18060   6.857   7.411   3.972  0.3071  0.0122  0.1394
  161OSM    H4S18061   6.804   7.385   4.065  0.0638  0.0425  0.0090
  161OSM    C5S18062   6.921   7.525   3.978  0.6910  0.1865  0.1134
  161OSM    H5S18063   6.982   7.555   3.892  2.7003 -1.7585  0.7710
  161OSM    C6S18064   6.940   7.621   4.096  0.2748  0.9524 -0.2531
  161OSM    H6S18065   6.907   7.723   4.069 -0.8455  0.5434 -0.4454
  161OSM    H6T18066   7.048   7.641   4.117  0.2179  0.6535  0.3338
  161OSM    C7S18067   6.882   7.577   4.230 -0.3204 -0.6628 -0.1899
  161OSM    H7S18068   6.903   7.473   4.263  3.1602 -0.0512 -0.0622
  161OSM    H7T18069   6.772   7.581   4.218 -0.6191 -3.1277  0.9321
  161OSM    C8S18070   6.904   7.676   4.353 -0.8764  0.5597  0.6417
  161OSM    H8S18071   6.865   7.775   4.319  1.2641  0.8773 -1.1619
  161OSM    H8T18072   7.012   7.689   4.375 -1.0104  0.6030  1.2788
  161OSM    C9S18073   6.829   7.629   4.476 -0.6454  0.2403 -1.0856
  161OSM    H9S18074   6.841   7.520   4.459 -1.0132 -0.2019  1.2193
  161OSM    H9T18075   6.721   7.655   4.475 -1.0639 -1.4159 -1.2256
  161OSM   C10S18076   6.894   7.687   4.599 -0.5456 -0.1388 -0.1875
  161OSM   H10S18077   6.883   7.797   4.587  1.2554  0.0514 -0.3733
  161OSM   H10T18078   7.002   7.661   4.600 -0.3695  0.4984  1.3074
  161OSM   C11S18079   6.820   7.631   4.723 -0.0693 -0.1455  0.0836
  161OSM   H11S18080   6.850   7.525   4.739 -4.5183 -1.3254  1.9365
  161OSM   H11T18081   6.713   7.642   4.698  0.4170  0.0349 -2.1656
  161OSM   C12S18082   6.873   7.706   4.843 -0.1688 -0.1506  0.1512
  161OSM   H12S18083   6.851   7.812   4.817  0.3265 -0.6250 -2.4398
  161OSM   H12T18084   6.982   7.686   4.849 -0.5273 -2.3457  0.2251
  161OSM   C13S18085   6.804   7.663   4.976 -0.6954 -0.1023  0.2615
  161OSM   H13S18086   6.836   7.557   4.986 -1.3527 -0.4452 -1.1123
  161OSM   H13T18087   6.693   7.656   4.968 -0.6456 -3.8103  1.0453
  161OSM   C14S18088   6.857   7.739   5.096  0.4612  0.6199  0.2300
  161OSM   H14S18089   6.829   7.847   5.094  0.2004  0.5462 -0.8189
  161OSM   H14T18090   6.968   7.741   5.097  0.5308 -0.5155 -1.1416
  161OSM   C15S18091   6.804   7.685   5.233  0.6494 -0.4348 -0.2065
  161OSM   H15S18092   6.835   7.580   5.252 -0.3163 -0.4180  1.7036
  161OSM   H15T18093   6.693   7.684   5.239  0.6262  1.9779  1.3638
  161OSM   C16S18094   6.856   7.772   5.353 -0.0108 -0.2035 -1.3790
  161OSM   H16S18095   6.821   7.877   5.341  2.6468  0.8081 -0.9037
  161OSM   H16T18096   6.966   7.781   5.345  0.0869  0.5719  0.2857
  161OSM   C17S18097   6.817   7.724   5.495 -0.1617  0.2563  0.3940
  161OSM   H17S18098   6.868   7.629   5.524 -0.6629 -0.1669 -0.0933
  161OSM   H17T18099   6.708   7.705   5.487 -0.1185  0.4745 -0.9972
  161OSM   C18S18100   6.850   7.835   5.596  0.3545  0.1953 -0.0737
  161OSM   H18S18101   6.788   7.817   5.687  0.0085  2.0352  0.0871
  161OSM   H18T18102   6.821   7.930   5.546 -0.1828 -0.2476 -0.6253
  161OSM   H18U18103   6.960   7.830   5.610  0.4295  1.4131 -0.1279
  161OSM    C1F18104   7.108   7.075   4.015 -0.1197  0.2104  0.8227
  161OSM     OF18105   7.212   7.099   3.953  0.0069  0.1215 -0.1592
  161OSM    C2F18106   7.103   6.959   4.114  0.1447 -0.4232  0.3988
  161OSM    H2F18107   7.021   6.894   4.075  0.4582 -0.4571 -0.2231
  161OSM    H2G18108   7.084   7.007   4.212  1.2494 -2.8522  1.8666
  161OSM    C3F18109   7.240   6.892   4.133  0.4600  0.0544  0.0859
  161OSM    H3F18110   7.318   6.970   4.147 -0.9228  1.2577  1.3743
  161OSM    H3G18111   7.256   6.834   4.039 -1.6730 -0.7072  0.1365
  161OSM    C4F18112   7.234   6.789   4.252 -0.3139 -0.4621  0.0357
  161OSM    H4F18113   7.150   6.720   4.228 -1.1205 -0.4064  2.4917
  161OSM    H4G18114   7.217   6.827   4.355 -0.5748  0.3390 -0.2904
  161OSM    C5F18115   7.362   6.708   4.256 -0.5321 -0.1184 -0.4524
  161OSM    H5F18116   7.407   6.687   4.156  0.1948 -1.7627  0.1927
  161OSM    H5G18117   7.327   6.613   4.301 -0.4811  0.4440  0.8172
  161OSM    C6F18118   7.470   6.755   4.350  0.1394 -0.9387  0.2787
  161OSM    H6F18119   7.444   6.739   4.457 -0.8712  0.7031  0.3141
  161OSM    H6G18120   7.482   6.863   4.326  0.7343 -0.9978  0.2940
  161OSM    C7F18121   7.601   6.698   4.319 -0.3879  0.6350 -0.1743
  161OSM    H7F18122   7.670   6.766   4.373  0.9004  0.8080 -1.9629
  161OSM    H7G18123   7.624   6.705   4.211  0.9504 -1.6296 -0.1021
  161OSM    C8F18124   7.618   6.559   4.379  0.2464 -0.1707 -0.1365
  161OSM    H8F18125   7.522   6.504   4.368  0.3984 -0.5641  0.4149
  161OSM    H8G18126   7.624   6.554   4.490  0.4811 -2.1351 -0.1866
  161OSM    C9F18127   7.730   6.483   4.319  0.1061  0.0435 -0.1385
  161OSM    H9F18128   7.711   6.435   4.222 -0.5760 -0.0050  0.0150
  161OSM   C10F18129   7.852   6.488   4.364 -0.5121  0.1124  0.4395
  161OSM   H10F18130   7.929   6.431   4.309  0.4690  1.1122  0.7353
  161OSM   C11F18131   7.891   6.577   4.477  0.6575  0.6323 -0.2251
  161OSM   H11F18132   7.817   6.645   4.524  0.9257 -0.0005  1.1560
  161OSM   H11G18133   7.978   6.640   4.450  0.2964  2.1283  1.8255
  161OSM   C12F18134   7.942   6.501   4.606  0.1730  0.4683  0.2577
  161OSM   H12F18135   7.988   6.566   4.683 -0.8044 -1.0699  2.2429
  161OSM   H12G18136   8.012   6.419   4.582 -1.5018 -0.9868  0.1428
  161OSM   C13F18137   7.825   6.423   4.675 -0.1858  0.6369  0.8210
  161OSM   H13F18138   7.807   6.334   4.611  2.0862  0.8570 -0.2235
  161OSM   H13G18139   7.731   6.482   4.678  0.9153  2.4656  0.8330
  161OSM   C14F18140   7.855   6.369   4.815 -0.2472 -0.5298 -0.3924
  161OSM   H14F18141   7.789   6.284   4.846 -1.7729  1.1981  1.4151
  161OSM   H14G18142   7.834   6.457   4.880 -1.6017 -0.1464 -1.3088
  161OSM   C15F18143   8.001   6.328   4.843  0.1203 -0.2030  0.9141
  161OSM   H15F18144   8.060   6.419   4.862 -0.6034  0.6715 -0.8240
  161OSM   H15G18145   8.035   6.277   4.750 -1.1065  1.8504 -0.7574
  161OSM   C16F18146   8.024   6.237   4.963  0.9712  1.5083  0.3226
  161OSM   H16F18147   7.968   6.142   4.955  0.0023  2.1875 -1.5639
  161OSM   H16G18148   7.986   6.290   5.053 -3.6291  0.2901 -0.6642
  161OSM   C17F18149   8.171   6.223   4.981 -0.1004  0.7328  0.3736
  161OSM   H17F18150   8.223   6.321   4.978  3.9191 -1.1413  1.1713
  161OSM   H17G18151   8.210   6.158   4.898  0.0932  2.8147 -1.2455
  161OSM   C18F18152   8.201   6.148   5.113  0.5392 -0.3004 -0.9654
  161OSM   H18F18153   8.301   6.175   5.154 -0.3663  1.2526  0.3317
  161OSM   H18G18154   8.210   6.040   5.089  2.7416 -0.6547  1.0689
  161OSM   H18H18155   8.124   6.170   5.190  1.6341 -0.7915  0.3039
  162OSM      N18156   2.876   0.591   3.334 -0.8676 -0.0158 -0.3580
  162OSM    C1518157   2.863   0.604   3.189 -0.0339  0.2595 -0.4680
  162OSM   H15A18158   2.788   0.678   3.168 -1.4015 -0.5860  1.1274
  162OSM   H15B18159   2.814   0.518   3.145  1.8713 -0.7703 -0.6993
  162OSM   H15C18160   2.953   0.625   3.133 -1.4215  2.9796 -1.8613
  162OSM    C1418161   2.987   0.493   3.367  0.7931 -0.2409  0.5393
  162OSM   H14A18162   3.081   0.512   3.318 -0.2371  1.1945 -0.9731
  162OSM   H14B18163   2.956   0.391   3.347  2.7538 -0.5774 -1.2067
  162OSM   H14C18164   3.010   0.480   3.472 -1.8243 -0.1599  1.1749
  162OSM    C1318165   2.920   0.725   3.387 -0.9326 -0.0158  0.7535
  162OSM   H13A18166   3.012   0.757   3.340 -1.2807 -0.3223 -0.1719
  162OSM   H13B18167   2.932   0.730   3.494  0.9680  0.5583  0.5555
  162OSM   H13C18168   2.847   0.802   3.367  0.4437  1.2103  0.2540
  162OSM    C1218169   2.747   0.556   3.394  0.7244  0.3556 -0.3938
  162OSM   H12A18170   2.758   0.553   3.501 -1.7010  0.5017 -0.0779
  162OSM   H12B18171   2.722   0.454   3.369  2.1749 -0.3094  0.7484
  162OSM    C1118172   2.620   0.629   3.356  0.9535  0.2753  0.6459
  162OSM   H11A18173   2.541   0.581   3.417 -1.3088 -0.3317 -2.5064
  162OSM   H11B18174   2.585   0.603   3.254 -0.6311  3.8970  0.1432
  162OSM      P18175   2.525   0.868   3.297 -0.1520 -0.2032  0.1774
  162OSM    O1318176   2.557   1.008   3.336  0.4274  0.1671 -0.1038
  162OSM    O1418177   2.521   0.841   3.151  0.1363 -0.3972  0.3504
  162OSM    O1118178   2.385   0.824   3.355  0.1938 -0.4272  0.3287
  162OSM    O1218179   2.630   0.766   3.376  0.0995 -0.2977  0.1937
  162OSM    C1S18180   2.374   0.810   3.501 -0.2020  0.2275  0.3830
  162OSM    H1S18181   2.469   0.797   3.557 -0.2351  1.2280  0.6831
  162OSM    H1T18182   2.326   0.711   3.520 -2.5092  1.1620 -0.3161
  162OSM     NF18183   2.295   0.929   3.696  0.3512 -0.4303 -0.0094
  162OSM    HNF18184   2.216   0.898   3.749  0.3125 -1.4442 -0.6449
  162OSM    C2S18185   2.296   0.928   3.561  0.2176 -0.0508  0.8569
  162OSM    H2S18186   2.349   1.021   3.532  1.6427 -0.0641  3.1571
  162OSM    C3S18187   2.147   0.940   3.504 -0.0865 -0.4594 -0.2266
  162OSM    H3S18188   2.088   0.849   3.530 -1.9502  0.7051 -0.2136
  162OSM     O318189   2.135   0.949   3.362 -0.8838  0.5606 -0.1839
  162OSM    HO318190   2.213   0.915   3.316 -1.9552 -1.4665 -0.6493
  162OSM    C4S18191   2.068   1.064   3.557 -0.7345 -0.5937 -0.4096
  162OSM    H4S18192   2.099   1.159   3.511  1.6792 -1.2704 -0.3369
  162OSM    C5S18193   1.979   1.063   3.662  0.2993 -0.2851 -0.5579
  162OSM    H5S18194   1.977   0.970   3.720 -0.5555  0.1101  0.0638
  162OSM    C6S18195   1.886   1.172   3.709 -0.1115 -0.1888  0.6818
  162OSM    H6S18196   1.781   1.152   3.681 -0.5508  1.0359  1.3966
  162OSM    H6T18197   1.918   1.269   3.666  0.3656  0.5478  2.5838
  162OSM    C7S18198   1.872   1.183   3.859 -0.7783  0.1763  0.1364
  162OSM    H7S18199   1.973   1.203   3.899 -0.9578  3.0100 -0.6137
  162OSM    H7T18200   1.830   1.092   3.907 -1.3605 -0.8781 -2.1871
  162OSM    C8S18201   1.797   1.315   3.896 -0.2410 -0.1430  1.0296
  162OSM    H8S18202   1.689   1.318   3.869  0.6977 -1.2148 -3.9465
  162OSM    H8T18203   1.846   1.398   3.839  0.8061  0.0999  2.2414
  162OSM    C9S18204   1.808   1.351   4.041 -0.1321  0.3743 -0.4355
  162OSM    H9S18205   1.909   1.348   4.087 -1.1195 -3.7379  1.9774
  162OSM    H9T18206   1.741   1.275   4.086 -0.5044  1.7754  1.4814
  162OSM   C10S18207   1.739   1.483   4.091 -0.7044 -0.6280 -0.1419
  162OSM   H10S18208   1.635   1.501   4.056 -0.2611 -3.1652 -3.2721
  162OSM   H10T18209   1.800   1.572   4.068 -1.1844 -0.0361  0.8144
  162OSM   C11S18210   1.721   1.472   4.242 -0.2694  0.0722  0.3415
  162OSM   H11S18211   1.818   1.438   4.285  0.1668 -1.1664 -1.5139
  162OSM   H11T18212   1.642   1.401   4.274 -0.1700 -1.0899 -1.7823
  162OSM   C12S18213   1.692   1.609   4.301 -0.1162  1.0120  0.5763
  162OSM   H12S18214   1.605   1.663   4.257 -0.1857  1.0579  0.7691
  162OSM   H12T18215   1.774   1.672   4.259  0.4957 -0.2282 -0.1459
  162OSM   C13S18216   1.659   1.609   4.449 -1.4571 -0.8355 -0.0031
  162OSM   H13S18217   1.749   1.579   4.507 -1.2578 -1.2177 -0.5112
  162OSM   H13T18218   1.585   1.532   4.479 -0.9162 -0.6620  1.9475
  162OSM   C14S18219   1.616   1.749   4.499 -0.0227 -0.4001  0.0431
  162OSM   H14S18220   1.514   1.782   4.470 -0.9565 -1.2871  2.1318
  162OSM   H14T18221   1.696   1.820   4.471  1.3103 -1.3389  1.3405
  162OSM   C15S18222   1.606   1.748   4.654 -0.2274  0.3611 -0.4822
  162OSM   H15S18223   1.708   1.724   4.690 -0.1901 -0.5909 -1.1684
  162OSM   H15T18224   1.545   1.660   4.680  0.0822  0.2951  0.0213
  162OSM   C16S18225   1.553   1.872   4.709 -0.0076  0.7230 -0.6806
  162OSM   H16S18226   1.468   1.905   4.645  0.8160 -0.3203 -2.4044
  162OSM   H16T18227   1.631   1.950   4.699  0.8032 -0.0780 -0.7939
  162OSM   C17S18228   1.514   1.868   4.855  0.8311 -0.2825 -0.5812
  162OSM   H17S18229   1.495   1.975   4.882 -1.1189 -0.4271 -1.2274
  162OSM   H17T18230   1.594   1.813   4.908 -2.4411 -2.9601  2.0568
  162OSM   C18S18231   1.395   1.788   4.879  0.2760  0.1613 -0.4370
  162OSM   H18S18232   1.407   1.678   4.872 -0.7436  0.0213 -0.1712
  162OSM   H18T18233   1.309   1.810   4.811  1.1746 -0.0540 -1.6845
  162OSM   H18U18234   1.367   1.801   4.985  0.1475  2.6424 -0.7219
  162OSM    C1F18235   2.409   0.953   3.763  0.3955 -0.1849  0.8343
  162OSM     OF18236   2.510   0.982   3.697 -0.0687 -0.9803  0.2074
  162OSM    C2F18237   2.427   0.940   3.909  0.1569 -0.2610 -0.3331
  162OSM    H2F18238   2.364   0.854   3.941 -0.5472  0.6124  0.6918
  162OSM    H2G18239   2.380   1.026   3.961 -0.7160  0.1469 -1.7500
  162OSM    C3F18240   2.570   0.923   3.964 -0.0198  0.3042 -0.2630
  162OSM    H3F18241   2.619   1.018   3.936  0.1891 -0.0325 -1.0592
  162OSM    H3G18242   2.634   0.841   3.923  3.0675  1.8565  1.0810
  162OSM    C4F18243   2.577   0.913   4.119 -0.4282 -0.0780  0.2922
  162OSM    H4F18244   2.523   1.002   4.159  0.4933  1.2037 -1.2064
  162OSM    H4G18245   2.681   0.915   4.157 -0.1472 -1.2107 -0.3683
  162OSM    C5F18246   2.517   0.787   4.183  0.5192 -0.5560  0.3724
  162OSM    H5F18247   2.555   0.701   4.124 -1.3009  0.5469 -2.6926
  162OSM    H5G18248   2.408   0.777   4.163  0.6003 -3.3508  0.8629
  162OSM    C6F18249   2.546   0.762   4.336  0.0229 -0.2597  0.4840
  162OSM    H6F18250   2.655   0.774   4.356  0.5190 -1.0787 -1.4999
  162OSM    H6G18251   2.525   0.654   4.354  1.7157 -0.5256  1.0761
  162OSM    C7F18252   2.469   0.846   4.436 -0.3470 -0.0533  0.1521
  162OSM    H7F18253   2.361   0.823   4.448 -1.1587  1.9764 -2.2631
  162OSM    H7G18254   2.466   0.938   4.373  0.0456  0.3242  0.6695
  162OSM    C8F18255   2.553   0.854   4.566  0.4667 -0.9200 -0.8365
  162OSM    H8F18256   2.648   0.905   4.541 -0.1581  0.2087 -0.9973
  162OSM    H8G18257   2.576   0.755   4.611 -2.5054 -1.5377 -0.4697
  162OSM    C9F18258   2.485   0.949   4.664 -0.0681 -0.7696 -0.0423
  162OSM    H9F18259   2.449   1.046   4.627 -1.8300 -1.0718  0.8020
  162OSM   C10F18260   2.488   0.940   4.797 -0.0871  0.8417 -0.5227
  162OSM   H10F18261   2.434   1.007   4.865 -1.9578  0.3715 -1.4804
  162OSM   C11F18262   2.545   0.827   4.880  0.0001  0.1065  0.5582
  162OSM   H11F18263   2.580   0.741   4.819 -0.2628  0.5073 -0.1793
  162OSM   H11G18264   2.460   0.796   4.945 -0.3448  0.4599  0.2807
  162OSM   C12F18265   2.655   0.876   4.977  0.3028  0.5779 -0.2250
  162OSM   H12F18266   2.723   0.948   4.926  0.3338  1.9621  1.6330
  162OSM   H12G18267   2.708   0.791   5.025  1.5243  1.8085  0.7151
  162OSM   C13F18268   2.605   0.961   5.098  0.4946  0.0844 -0.5257
  162OSM   H13F18269   2.562   0.895   5.176 -1.0429 -1.6222 -2.7015
  162OSM   H13G18270   2.527   1.032   5.065  0.3515 -0.4023 -1.2554
  162OSM   C14F18271   2.714   1.044   5.163 -0.0291 -0.2338  0.1540
  162OSM   H14F18272   2.770   1.105   5.089  1.3213  0.4642  1.6762
  162OSM   H14G18273   2.793   0.976   5.201  1.5113  1.6384  0.4580
  162OSM   C15F18274   2.649   1.127   5.276  0.1740 -0.8781  0.0995
  162OSM   H15F18275   2.618   1.049   5.349 -0.2962 -1.1207 -0.3546
  162OSM   H15G18276   2.564   1.194   5.251  1.8601  0.1935 -3.4200
  162OSM   C16F18277   2.744   1.219   5.348 -0.3168  0.2238 -0.0421
  162OSM   H16F18278   2.808   1.146   5.401 -0.0021  0.9929  0.6484
  162OSM   H16G18279   2.684   1.284   5.415 -0.3894  0.7222 -0.5803
  162OSM   C17F18280   2.834   1.315   5.259 -0.1782 -0.1410 -0.3594
  162OSM   H17F18281   2.899   1.241   5.207 -0.1743 -1.9095  2.0200
  162OSM   H17G18282   2.896   1.382   5.321  0.2660 -0.9879  0.1369
  162OSM   C18F18283   2.745   1.399   5.164  0.0779  0.5484 -0.1078
  162OSM   H18F18284   2.700   1.337   5.084  0.2967 -1.3468  1.1497
  162OSM   H18G18285   2.817   1.472   5.122  3.6361 -1.5828  1.7494
  162OSM   H18H18286   2.671   1.464   5.215  1.1588  1.3572  0.4936
  163OSM      N18287   1.749   0.946   3.271 -0.1029  0.4663  0.6064
  163OSM    C1518288   1.832   0.822   3.290 -0.1255  0.3262  0.6106
  163OSM   H15A18289   1.933   0.847   3.318  0.3962  0.5306 -1.2787
  163OSM   H15B18290   1.832   0.756   3.204 -2.0892 -1.2144  1.7188
  163OSM   H15C18291   1.793   0.765   3.373 -0.8182 -0.0845  0.0092
  163OSM    C1418292   1.742   1.007   3.405  0.1978  0.0956  0.1125
  163OSM   H14A18293   1.666   1.084   3.404  0.2859  0.1738 -0.6092
  163OSM   H14B18294   1.836   1.056   3.426 -0.2555  0.8713  0.3796
  163OSM   H14C18295   1.712   0.937   3.482  0.1257  1.8598  1.7878
  163OSM    C1318296   1.812   1.033   3.171 -0.3727  0.3496 -0.6582
  163OSM   H13A18297   1.918   1.034   3.189 -0.3431  1.6529 -0.7873
  163OSM   H13B18298   1.773   1.133   3.184 -2.8263 -0.6737  0.4256
  163OSM   H13C18299   1.802   0.996   3.070  0.6366  1.0918 -1.0520
  163OSM    C1218300   1.602   0.908   3.231 -0.0445  0.3984 -0.3680
  163OSM   H12A18301   1.569   0.828   3.296  1.0495 -0.5149 -0.9004
  163OSM   H12B18302   1.612   0.865   3.132 -0.4825  3.1115 -1.6881
  163OSM    C1118303   1.495   1.022   3.215 -0.5377 -0.4516 -0.7463
  163OSM   H11A18304   1.408   0.991   3.153 -0.1299 -0.7072 -1.1985
  163OSM   H11B18305   1.537   1.111   3.163 -1.3630  1.0076  0.9774
  163OSM      P18306   1.368   0.995   3.437  0.1242 -0.3199  0.2506
  163OSM    O1318307   1.244   0.977   3.362  0.2090  0.4771  0.3019
  163OSM    O1418308   1.430   0.878   3.494 -0.0669  0.3560  0.3908
  163OSM    O1118309   1.347   1.106   3.539 -0.3639 -0.1350  0.0651
  163OSM    O1218310   1.469   1.074   3.349  0.4525 -0.3062 -0.2195
  163OSM    C1S18311   1.327   1.085   3.678  0.0876 -0.6251  0.1801
  163OSM    H1S18312   1.376   0.998   3.726  2.0882 -0.0031 -0.6225
  163OSM    H1T18313   1.221   1.059   3.698  0.1378  0.2106  1.7196
  163OSM     NF18314   1.376   1.182   3.897  1.0796 -0.5458  0.6003
  163OSM    HNF18315   1.325   1.239   3.960  0.6822  2.4592 -2.1461
  163OSM    C2S18316   1.366   1.212   3.756 -0.0641 -0.0553  0.0310
  163OSM    H2S18317   1.468   1.246   3.726  0.2817 -2.5120 -1.9448
  163OSM    C3S18318   1.272   1.337   3.712  0.1461  0.5160  0.0154
  163OSM    H3S18319   1.176   1.302   3.755 -0.2179 -0.4314 -1.4989
  163OSM     O318320   1.255   1.362   3.576  0.0658 -0.4366 -0.1714
  163OSM    HO318321   1.300   1.286   3.536  0.8845  0.1312 -0.3539
  163OSM    C4S18322   1.325   1.462   3.780  0.1068 -0.0187 -0.2818
  163OSM    H4S18323   1.434   1.476   3.777  0.3417 -1.6575 -0.2035
  163OSM    C5S18324   1.259   1.552   3.858  0.0469  0.0211 -0.6310
  163OSM    H5S18325   1.155   1.533   3.887  0.1525  0.1254 -0.1834
  163OSM    C6S18326   1.326   1.672   3.917  0.3413 -0.4770 -0.4559
  163OSM    H6S18327   1.249   1.748   3.890 -0.6558 -1.8533 -1.6591
  163OSM    H6T18328   1.422   1.695   3.866  0.2069  0.8042 -0.1576
  163OSM    C7S18329   1.349   1.675   4.067 -0.5175 -0.3288 -0.2594
  163OSM    H7S18330   1.363   1.783   4.092  0.0844 -0.2750 -0.8160
  163OSM    H7T18331   1.438   1.619   4.102  0.2711 -0.1679 -1.9102
  163OSM    C8S18332   1.222   1.623   4.141  0.4271  0.4947 -0.1147
  163OSM    H8S18333   1.196   1.517   4.125  0.1974  0.3370  1.1621
  163OSM    H8T18334   1.135   1.681   4.104 -0.5593 -0.7525  0.2022
  163OSM    C9S18335   1.233   1.630   4.294 -0.3195  0.6053  0.3306
  163OSM    H9S18336   1.291   1.718   4.329  1.1115 -0.5145  0.9030
  163OSM    H9T18337   1.298   1.548   4.333  0.1212  1.5545  1.6306
  163OSM   C10S18338   1.095   1.619   4.368  0.4377 -0.1004 -0.0511
  163OSM   H10S18339   1.061   1.513   4.364  0.1385  0.0161 -2.4942
  163OSM   H10T18340   1.027   1.686   4.311  1.9493  1.2750 -0.3130
  163OSM   C11S18341   1.105   1.664   4.515  0.1569 -0.3488 -0.4740
  163OSM   H11S18342   1.171   1.753   4.507  1.6740 -1.3063  0.6115
  163OSM   H11T18343   1.159   1.589   4.578  1.6572  1.0093 -0.0671
  163OSM   C12S18344   0.960   1.686   4.579 -0.2332  0.0217  0.4883
  163OSM   H12S18345   0.904   1.603   4.529  0.5152  0.4296 -1.0908
  163OSM   H12T18346   0.917   1.781   4.540 -0.3987  0.4825  1.7628
  163OSM   C13S18347   0.969   1.682   4.730 -0.4127 -0.2618 -0.0086
  163OSM   H13S18348   1.052   1.614   4.758 -0.1642 -0.1722 -0.5158
  163OSM   H13T18349   0.879   1.634   4.772  0.1492 -0.5766  0.8661
  163OSM   C14S18350   0.990   1.820   4.795  0.0192 -0.7406 -0.2442
  163OSM   H14S18351   0.913   1.876   4.737 -0.9813 -0.4345  1.3123
  163OSM   H14T18352   1.084   1.874   4.771  0.0260 -0.6062  0.0698
  163OSM   C15S18353   0.952   1.825   4.945 -0.1141 -0.0861  0.6583
  163OSM   H15S18354   0.844   1.806   4.959 -0.1483 -0.3314  0.0804
  163OSM   H15T18355   0.990   1.926   4.971  2.8553 -1.4018  1.9499
  163OSM   C16S18356   1.036   1.718   5.020  0.3153  0.5764  0.0458
  163OSM   H16S18357   1.132   1.712   4.964 -0.7970 -0.2856 -1.8943
  163OSM   H16T18358   0.983   1.621   5.014 -0.9321  1.2027  0.7384
  163OSM   C17S18359   1.056   1.754   5.169  0.1406  0.2155  0.1913
  163OSM   H17S18360   0.965   1.712   5.217  0.3218  0.4192  0.7195
  163OSM   H17T18361   1.061   1.864   5.186 -1.0427  0.1369  1.1875
  163OSM   C18S18362   1.185   1.701   5.216 -0.2951  0.2588  0.2879
  163OSM   H18S18363   1.169   1.643   5.310 -0.2111  0.0389  0.1683
  163OSM   H18T18364   1.258   1.783   5.225 -0.0149 -0.0420  0.8012
  163OSM   H18U18365   1.216   1.620   5.147 -2.4654 -0.4781  0.0770
  163OSM    C1F18366   1.469   1.096   3.937  0.1916 -1.3116 -0.4461
  163OSM     OF18367   1.553   1.060   3.857 -0.0816 -0.6224  0.2385
  163OSM    C2F18368   1.476   1.065   4.083  0.8582 -0.2738  0.0751
  163OSM    H2F18369   1.581   1.042   4.111  1.3123  1.5918  0.0223
  163OSM    H2G18370   1.418   0.971   4.096 -0.5758  0.6959  0.9352
  163OSM    C3F18371   1.411   1.177   4.164  0.3542  0.0686  0.1320
  163OSM    H3F18372   1.302   1.187   4.145  0.5309  2.0738  0.0182
  163OSM    H3G18373   1.459   1.274   4.143  0.3936 -0.1160 -0.6823
  163OSM    C4F18374   1.424   1.150   4.313 -0.1927 -0.6171 -0.0327
  163OSM    H4F18375   1.531   1.166   4.340 -0.6464 -0.0799  1.5523
  163OSM    H4G18376   1.400   1.043   4.329  1.7757 -1.0680  0.2387
  163OSM    C5F18377   1.331   1.243   4.397 -0.8045  1.0091 -0.0706
  163OSM    H5F18378   1.226   1.217   4.370 -0.0821 -0.9723 -1.2197
  163OSM    H5G18379   1.371   1.342   4.368  2.4484  0.1533  1.1102
  163OSM    C6F18380   1.350   1.230   4.544  0.2281 -0.0205  0.2630
  163OSM    H6F18381   1.451   1.263   4.576  1.1110 -2.4277  0.1661
  163OSM    H6G18382   1.346   1.121   4.563 -1.4991 -0.5608 -2.6767
  163OSM    C7F18383   1.249   1.314   4.625  0.1548  0.6027  0.2621
  163OSM    H7F18384   1.145   1.276   4.616  0.0068  0.9574  0.4312
  163OSM    H7G18385   1.240   1.419   4.591 -2.0139  0.1386 -0.7666
  163OSM    C8F18386   1.306   1.316   4.769  0.2857  0.0460 -0.8814
  163OSM    H8F18387   1.413   1.347   4.759  1.1941 -2.0899  1.2970
  163OSM    H8G18388   1.309   1.212   4.808 -1.0801  0.3643  0.1097
  163OSM    C9F18389   1.230   1.413   4.859  0.2370  0.2413 -0.9426
  163OSM    H9F18390   1.223   1.514   4.815 -1.2424  1.1911  1.2461
  163OSM   C10F18391   1.164   1.387   4.981  0.5363  0.2902  0.0229
  163OSM   H10F18392   1.114   1.472   5.029 -0.6770 -0.8422  0.8537
  163OSM   C11F18393   1.160   1.256   5.052 -0.5494 -0.6092 -0.0147
  163OSM   H11F18394   1.232   1.183   5.010  0.3123 -0.4455  1.1339
  163OSM   H11G18395   1.059   1.210   5.042 -1.2036  0.9921 -1.2636
  163OSM   C12F18396   1.192   1.257   5.206 -0.0500 -0.1146 -0.0911
  163OSM   H12F18397   1.282   1.319   5.228  1.3146 -1.0781 -2.5477
  163OSM   H12G18398   1.215   1.157   5.249  1.4583  0.8547  1.5171
  163OSM   C13F18399   1.081   1.327   5.289  0.6954 -0.2531  0.6500
  163OSM   H13F18400   1.067   1.429   5.249  1.2017 -0.0904  0.8797
  163OSM   H13G18401   1.122   1.345   5.391 -1.6747  1.8079  1.3479
  163OSM   C14F18402   0.944   1.251   5.295  0.2242 -0.0107  0.3702
  163OSM   H14F18403   0.972   1.145   5.312  4.1860  0.7360 -0.3758
  163OSM   H14G18404   0.905   1.268   5.192  1.5793 -1.5881 -0.4542
  163OSM   C15F18405   0.839   1.281   5.405  0.5544 -0.2286  0.3793
  163OSM   H15F18406   0.815   1.388   5.422 -0.9184 -0.0381 -2.2939
  163OSM   H15G18407   0.881   1.240   5.499  2.6793 -1.8447 -1.1656
  163OSM   C16F18408   0.706   1.204   5.384  0.6284  0.5832  0.0584
  163OSM   H16F18409   0.665   1.238   5.286  0.8067 -1.9177 -0.9451
  163OSM   H16G18410   0.636   1.228   5.467 -1.8142 -3.0186 -0.7250
  163OSM   C17F18411   0.731   1.052   5.388 -0.4011 -0.6432 -0.2700
  163OSM   H17F18412   0.790   1.027   5.479 -0.9042 -0.6527  0.0599
  163OSM   H17G18413   0.794   1.020   5.303 -0.8253 -0.4120 -0.6735
  163OSM   C18F18414   0.603   0.967   5.382  0.4774  0.1199 -0.0055
  163OSM   H18F18415   0.556   0.955   5.482 -1.6620 -0.4555 -1.0163
  163OSM   H18G18416   0.624   0.866   5.340  2.1615  0.9007 -1.1691
  163OSM   H18H18417   0.532   1.014   5.311  0.7493 -1.4357 -1.3883
  164OSM      N18418   3.591   0.219   3.558  0.5297 -0.2977  0.3302
  164OSM    C1518419   3.576   0.140   3.433 -0.1343  0.5744 -0.2884
  164OSM   H15A18420   3.607   0.038   3.447 -4.3137 -0.9332 -0.5901
  164OSM   H15B18421   3.637   0.191   3.360  2.0303  0.1220  1.1145
  164OSM   H15C18422   3.475   0.125   3.400  0.4473 -0.6638 -1.6009
  164OSM    C1418423   3.735   0.234   3.583  0.5200  0.2600  0.5148
  164OSM   H14A18424   3.782   0.314   3.527  0.3187 -0.8261 -1.2760
  164OSM   H14B18425   3.788   0.141   3.565  1.1162  0.4837  1.0556
  164OSM   H14C18426   3.748   0.247   3.689 -0.1348 -2.0520  0.9287
  164OSM    C1318427   3.539   0.355   3.535 -0.3790 -0.3153 -0.2339
  164OSM   H13A18428   3.561   0.414   3.623 -0.2790  0.0252 -0.4859
  164OSM   H13B18429   3.432   0.358   3.520 -0.7500  0.6396  2.0770
  164OSM   H13C18430   3.586   0.401   3.449 -1.5525  3.3722  0.8885
  164OSM    C1218431   3.514   0.145   3.666  0.3530  0.0152  0.2945
  164OSM   H12A18432   3.479   0.216   3.739 -0.9620  0.2567 -0.5348
  164OSM   H12B18433   3.580   0.071   3.708  3.2275  1.6572 -0.9742
  164OSM    C1118434   3.384   0.067   3.622 -0.8838 -0.0148 -0.7498
  164OSM   H11A18435   3.328   0.021   3.706  0.6176 -1.4305 -0.4802
  164OSM   H11B18436   3.421  -0.017   3.559 -1.3815 -1.1627  0.4510
  164OSM      P18437   3.207   0.258   3.590  0.5152  0.1231 -0.5443
  164OSM    O1318438   3.242   0.381   3.520 -0.2807  0.1399 -0.1132
  164OSM    O1418439   3.064   0.208   3.594 -0.2002 -0.2921  0.2080
  164OSM    O1118440   3.258   0.286   3.734  0.8096 -0.2331  0.6677
  164OSM    O1218441   3.303   0.144   3.536  0.0834 -0.3779 -0.3261
  164OSM    C1S18442   3.184   0.242   3.847 -0.0711 -0.4891 -0.6489
  164OSM    H1S18443   3.228   0.143   3.872 -1.6781 -0.7953  1.3292
  164OSM    H1T18444   3.076   0.221   3.832 -1.3683  4.0303  0.7643
  164OSM     NF18445   3.133   0.274   4.094  0.7561  0.2391 -0.0653
  164OSM    HNF18446   3.035   0.278   4.113  1.1596 -3.4032  4.5575
  164OSM    C2S18447   3.185   0.338   3.974  1.2652  0.3843  0.1637
  164OSM    H2S18448   3.293   0.362   3.987  1.1492  0.2679  1.5272
  164OSM    C3S18449   3.104   0.474   3.943 -0.2543 -0.2621 -0.6848
  164OSM    H3S18450   2.998   0.444   3.928 -0.6577  1.1547 -0.7932
  164OSM     O318451   3.152   0.527   3.824  0.4532 -0.4896 -0.0016
  164OSM    HO318452   3.218   0.462   3.799  1.4991  0.8612 -0.9167
  164OSM    C4S18453   3.135   0.570   4.056  0.4391  0.4370 -0.1364
  164OSM    H4S18454   3.220   0.545   4.121  0.9211 -1.2586 -1.3588
  164OSM    C5S18455   3.054   0.674   4.097 -0.9303  0.2348  0.5561
  164OSM    H5S18456   2.969   0.703   4.033  0.4302  1.7855 -0.6256
  164OSM    C6S18457   3.065   0.759   4.219 -0.6558 -0.3878 -0.2247
  164OSM    H6S18458   3.079   0.863   4.183 -2.3293 -0.1980 -0.4048
  164OSM    H6T18459   3.150   0.718   4.278 -1.6847  0.8676  2.2859
  164OSM    C7S18460   2.927   0.740   4.304 -0.6929 -0.4431 -0.0684
  164OSM    H7S18461   2.920   0.629   4.306 -0.2081 -0.4925 -0.7342
  164OSM    H7T18462   2.847   0.791   4.247 -0.4345 -0.5621 -0.5497
  164OSM    C8S18463   2.925   0.775   4.448 -0.3098 -0.9413 -0.1631
  164OSM    H8S18464   2.825   0.756   4.492 -1.1800  0.4218 -1.4531
  164OSM    H8T18465   2.967   0.877   4.465 -1.3093 -0.3573 -1.0592
  164OSM    C9S18466   3.026   0.683   4.523 -0.0837  0.2526  0.9077
  164OSM    H9S18467   3.128   0.699   4.481 -1.8148  1.7550 -3.2809
  164OSM    H9T18468   2.993   0.577   4.513  0.7114  0.0171  0.6924
  164OSM   C10S18469   3.029   0.718   4.672 -0.0599 -1.1918 -0.9394
  164OSM   H10S18470   2.920   0.728   4.691 -0.0523  3.0543 -2.2974
  164OSM   H10T18471   3.069   0.817   4.702  0.4274 -2.0112  1.2778
  164OSM   C11S18472   3.080   0.603   4.749 -0.4120 -0.3638 -0.0212
  164OSM   H11S18473   3.176   0.577   4.701 -1.1491  0.2029 -1.8626
  164OSM   H11T18474   3.019   0.513   4.727  2.1330 -2.5527  1.3218
  164OSM   C12S18475   3.106   0.621   4.896  0.3093  0.2754  0.2654
  164OSM   H12S18476   3.182   0.699   4.916 -0.3486  0.5755  1.7708
  164OSM   H12T18477   3.154   0.535   4.948  0.0140  1.9603  3.6534
  164OSM   C13S18478   2.973   0.656   4.973 -0.7023 -0.1823  0.5491
  164OSM   H13S18479   2.886   0.605   4.926 -3.3178  2.4214  2.2929
  164OSM   H13T18480   2.950   0.764   4.964  2.2004  0.6561  1.9563
  164OSM   C14S18481   2.983   0.617   5.122 -0.5899  0.5119  0.3473
  164OSM   H14S18482   2.899   0.670   5.171 -3.5549 -1.3817 -2.3161
  164OSM   H14T18483   3.084   0.642   5.162  0.3711  0.9386 -2.1565
  164OSM   C15S18484   2.952   0.465   5.144 -0.0679  0.1395  0.3517
  164OSM   H15S18485   3.023   0.404   5.084  0.4911  1.0084  0.1073
  164OSM   H15T18486   2.857   0.451   5.089 -1.2978 -0.3105  2.4683
  164OSM   C16S18487   2.950   0.416   5.288  0.0423 -1.0509  0.0468
  164OSM   H16S18488   2.905   0.315   5.288 -1.6549 -0.3240  0.5747
  164OSM   H16T18489   2.879   0.480   5.344  0.3483 -1.2495  0.6679
  164OSM   C17S18490   3.094   0.393   5.346  0.5536 -0.2239 -0.2553
  164OSM   H17S18491   3.092   0.349   5.448 -0.1572  2.2564  0.8892
  164OSM   H17T18492   3.138   0.495   5.353  2.3507 -0.5804 -4.0715
  164OSM   C18S18493   3.186   0.319   5.248 -0.1396  1.3848 -0.0626
  164OSM   H18S18494   3.125   0.240   5.200  2.2007 -1.3938  1.2462
  164OSM   H18T18495   3.271   0.262   5.292 -1.0787 -0.0741 -0.1057
  164OSM   H18U18496   3.221   0.392   5.171  1.2403 -0.1999 -1.0110
  164OSM    C1F18497   3.193   0.176   4.152  0.0963  0.2874 -0.5145
  164OSM     OF18498   3.311   0.159   4.133  0.3564 -0.8756  0.0086
  164OSM    C2F18499   3.121   0.089   4.248  0.2119  0.0322  0.7432
  164OSM    H2F18500   3.126  -0.015   4.209 -4.1445  0.3125 -1.1558
  164OSM    H2G18501   3.015   0.122   4.256 -0.3287 -0.5740 -2.3847
  164OSM    C3F18502   3.165   0.096   4.395 -0.5124  0.1731 -0.2006
  164OSM    H3F18503   3.268   0.056   4.404  0.6165  2.3817 -2.2166
  164OSM    H3G18504   3.097   0.034   4.458  0.3997 -0.7823 -0.1360
  164OSM    C4F18505   3.186   0.234   4.455 -0.1827  0.5537 -0.4134
  164OSM    H4F18506   3.087   0.281   4.435 -0.5122 -0.5045 -1.3600
  164OSM    H4G18507   3.256   0.292   4.392  0.2377 -0.7159 -1.1649
  164OSM    C5F18508   3.219   0.243   4.609  0.2707 -0.1205  0.3007
  164OSM    H5F18509   3.163   0.165   4.666 -2.1726 -0.9238 -2.8980
  164OSM    H5G18510   3.187   0.341   4.651 -0.8414  0.4358 -1.6743
  164OSM    C6F18511   3.368   0.234   4.638 -0.6618 -0.4566  0.0977
  164OSM    H6F18512   3.419   0.331   4.620  1.2653 -0.7080  3.3520
  164OSM    H6G18513   3.405   0.146   4.581 -1.0642 -0.3887 -0.2762
  164OSM    C7F18514   3.407   0.206   4.786  0.0886 -0.7299 -0.0934
  164OSM    H7F18515   3.518   0.201   4.789  0.1531  0.4959  2.3798
  164OSM    H7G18516   3.368   0.103   4.800  0.8931 -0.9005  1.0564
  164OSM    C8F18517   3.347   0.315   4.885  0.4063 -0.3708 -0.0214
  164OSM    H8F18518   3.363   0.281   4.990 -0.4202 -0.1973  0.1677
  164OSM    H8G18519   3.238   0.330   4.872  0.3741 -1.2935 -0.9196
  164OSM    C9F18520   3.430   0.434   4.864  1.4777  0.3717 -0.7313
  164OSM    H9F18521   3.393   0.503   4.786 -1.9533  0.5002  0.8217
  164OSM   C10F18522   3.543   0.469   4.926  0.0160  0.5092 -0.0862
  164OSM   H10F18523   3.590   0.563   4.894  0.4230  0.4386  0.2876
  164OSM   C11F18524   3.620   0.400   5.046  0.8771  0.5252  0.2715
  164OSM   H11F18525   3.684   0.321   5.002 -2.4648 -2.9227  1.0283
  164OSM   H11G18526   3.550   0.331   5.097  1.2974 -0.0587  0.0666
  164OSM   C12F18527   3.678   0.495   5.148  0.6164  0.4139  0.0292
  164OSM   H12F18528   3.749   0.569   5.105  0.7925  0.4607  0.3929
  164OSM   H12G18529   3.744   0.429   5.208 -0.2257 -1.5497 -1.1114
  164OSM   C13F18530   3.578   0.568   5.241 -0.3142  0.2756  0.0083
  164OSM   H13F18531   3.621   0.581   5.343  1.0590 -0.8313 -0.3952
  164OSM   H13G18532   3.489   0.503   5.254 -0.2538  0.5121  1.8043
  164OSM   C14F18533   3.547   0.707   5.183 -0.4377 -0.4042 -0.2030
  164OSM   H14F18534   3.506   0.709   5.080  1.0565 -1.2795 -0.8583
  164OSM   H14G18535   3.643   0.764   5.182 -1.0293  0.6053 -0.9321
  164OSM   C15F18536   3.447   0.775   5.274  0.1678 -0.0844  0.7899
  164OSM   H15F18537   3.486   0.767   5.378  0.1013 -0.4956  0.7845
  164OSM   H15G18538   3.348   0.726   5.269  0.2543 -0.7503  3.6977
  164OSM   C16F18539   3.427   0.926   5.228 -0.4040 -0.3498 -0.9362
  164OSM   H16F18540   3.530   0.968   5.217 -0.5031 -0.1703 -1.1804
  164OSM   H16G18541   3.388   0.982   5.316 -0.5607 -1.4130 -0.3178
  164OSM   C17F18542   3.361   0.950   5.093 -0.2626 -0.3675  0.0667
  164OSM   H17F18543   3.398   0.886   5.010  0.5243 -0.3068  0.3685
  164OSM   H17G18544   3.381   1.056   5.066  0.8112 -0.7245 -0.5845
  164OSM   C18F18545   3.210   0.934   5.100  0.2538  1.2541  0.0963
  164OSM   H18F18546   3.153   0.955   5.007 -0.8864  0.2902  0.5392
  164OSM   H18G18547   3.178   1.002   5.183  2.5340  2.1390  0.3114
  164OSM   H18H18548   3.191   0.826   5.119 -0.8283  1.1391 -1.4418
  165SAPS     N18549   5.839   0.743   0.033 -1.0227 -0.2484  0.2592
  165SAPS   HN118550   5.868   0.811  -0.040 -0.6401 -0.5614  0.1169
  165SAPS   HN218551   5.861   0.775   0.130 -1.6100  1.6671 -0.1828
  165SAPS   HN318552   5.885   0.651   0.019  0.9218  0.6063  0.6104
  165SAPS   C1218553   5.690   0.722   0.020 -0.2058 -0.4332  0.2887
  165SAPS  H12A18554   5.672   0.682  -0.079  2.0633 -0.1236 -0.3041
  165SAPS   C1318555   5.628   0.626   0.124 -0.0814  0.1915 -0.6014
  165SAPS  O13A18556   5.695   0.563   0.215  0.2039  0.3338  0.4192
  165SAPS  O13B18557   5.505   0.598   0.100  0.0582  0.3014 -0.0498
  165SAPS   C1118558   5.616   0.856   0.031 -0.4763 -0.4440 -0.4474
  165SAPS  H11A18559   5.625   0.914   0.125 -0.8547  2.1821 -1.9524
  165SAPS  H11B18560   5.507   0.833   0.026 -1.1705  2.5660 -0.8705
  165SAPS     P18561   5.744   1.065  -0.075  0.2696 -0.1987  0.1135
  165SAPS   O1318562   5.694   1.155   0.033  0.2039  0.4895  0.3007
  165SAPS   O1418563   5.880   1.007  -0.062 -0.0354  0.6154  0.4787
  165SAPS   O1218564   5.645   0.940  -0.081  0.5136 -0.4334  0.3529
  165SAPS   O1118565   5.723   1.129  -0.221  0.9692  0.3728 -0.2178
  165SAPS    C118566   5.588   1.125  -0.279  0.1715 -0.0930  0.7873
  165SAPS    HA18567   5.554   1.022  -0.300 -0.0704  0.3743 -1.3077
  165SAPS    HB18568   5.514   1.170  -0.210 -0.2680 -2.7693  2.1996
  165SAPS    C218569   5.579   1.193  -0.425 -0.1215 -0.3910  0.5076
  165SAPS    HS18570   5.528   1.120  -0.491  2.1091 -0.0843 -1.6897
  165SAPS   O2118571   5.710   1.217  -0.475 -0.3301  0.0855 -0.0983
  165SAPS   C2118572   5.776   1.100  -0.504  0.0175 -0.3721 -0.2014
  165SAPS   O2218573   5.729   0.989  -0.489 -0.3393 -0.6164  0.2704
  165SAPS   C2218574   5.909   1.141  -0.566 -0.0924  0.4876  0.8737
  165SAPS   H2R18575   5.909   1.252  -0.561 -1.9024  0.6639 -1.3980
  165SAPS   H2S18576   5.980   1.099  -0.492  0.8820 -1.2389 -0.9556
  165SAPS    C318577   5.509   1.328  -0.433 -0.1053 -0.0594 -1.1488
  165SAPS    HX18578   5.563   1.392  -0.360  1.0709  0.2221 -2.2367
  165SAPS    HY18579   5.402   1.328  -0.403  0.0260  1.1352 -0.6370
  165SAPS   O3118580   5.523   1.397  -0.562  0.4730  0.3926 -0.2245
  165SAPS   C3118581   5.460   1.342  -0.673  0.2355 -0.2447  0.8930
  165SAPS   O3218582   5.377   1.251  -0.667 -0.2426 -0.2264  0.0332
  165SAPS   C3218583   5.503   1.412  -0.801  0.0516  0.1643 -0.2768
  165SAPS   H2X18584   5.495   1.521  -0.785 -2.7198  0.1640 -1.1704
  165SAPS   H2Y18585   5.428   1.392  -0.881  0.0703 -3.8101  0.5004
  165SAPS   C2318586   5.941   1.073  -0.698 -0.1298 -0.3592  0.0489
  165SAPS   H3R18587   5.896   1.110  -0.793  1.6299 -0.6348 -0.9366
  165SAPS   H3S18588   5.891   0.974  -0.699 -2.0931  0.5607  1.3859
  165SAPS   C2418589   6.095   1.056  -0.725 -0.1178  0.6828 -0.0794
  165SAPS   H4R18590   6.105   0.969  -0.793  0.2532 -1.1481  2.2030
  165SAPS   H4S18591   6.139   1.019  -0.629 -1.6696  1.1594  0.8516
  165SAPS   C2518592   6.173   1.181  -0.773  0.1821  0.0746  0.0607
  165SAPS   H5R18593   6.210   1.244  -0.690  0.2472 -0.2563  0.2857
  165SAPS   C2618594   6.198   1.214  -0.898 -0.2494 -0.3502  0.8969
  165SAPS   H6R18595   6.242   1.313  -0.920  1.4164 -1.3484 -0.5358
  165SAPS   C2718596   6.157   1.127  -1.020  0.3157  0.5202 -0.0598
  165SAPS   H7R18597   6.068   1.064  -0.999  0.8685 -0.8799 -1.7039
  165SAPS   H7S18598   6.237   1.053  -1.042 -0.8436 -0.5281 -0.8659
  165SAPS   C2818599   6.131   1.205  -1.143 -0.3130  0.8748 -0.5558
  165SAPS   H8R18600   6.149   1.314  -1.139  0.0189  0.7834  0.6415
  165SAPS   C2918601   6.118   1.145  -1.262  0.8195  0.2297 -0.2687
  165SAPS   H9R18602   6.107   1.215  -1.346  1.0754  1.2211  0.5040
  165SAPS  C21018603   6.114   0.999  -1.299 -0.7913  0.6976 -0.2043
  165SAPS  H10R18604   6.018   0.972  -1.349  0.2105 -1.8068 -0.9511
  165SAPS  H10S18605   6.123   0.934  -1.209 -3.4092 -3.0534 -2.3782
  165SAPS  C21118606   6.235   0.971  -1.378  0.2434  0.2408 -0.1834
  165SAPS  H11R18607   6.326   0.996  -1.321  0.8838 -0.1224 -1.0147
  165SAPS  C21218608   6.233   0.906  -1.499 -0.2306 -0.1112  0.0981
  165SAPS  H12R18609   6.331   0.883  -1.542  1.0241  1.6076  1.8503
  165SAPS  C21318610   6.121   0.858  -1.578  0.5263 -0.1140  0.0748
  165SAPS  H13R18611   6.065   0.947  -1.615 -0.2979 -0.2677  0.9026
  165SAPS  H13S18612   6.050   0.804  -1.511  1.1345 -2.7359 -1.2456
  165SAPS  C21418613   6.161   0.749  -1.680  0.5969 -0.7949 -0.6296
  165SAPS  H14R18614   6.232   0.671  -1.648 -0.1900 -0.9832  0.7778
  165SAPS  C21518615   6.122   0.744  -1.807 -0.1795  0.4781 -0.2445
  165SAPS  H15R18616   6.158   0.659  -1.867  1.2434  1.0076 -0.1922
  165SAPS  C21618617   6.044   0.846  -1.877 -0.0979 -0.5671  0.0601
  165SAPS  H16R18618   6.017   0.935  -1.816  1.7713 -0.0195  0.1608
  165SAPS  H16S18619   5.949   0.797  -1.908 -1.1892 -0.4168  2.8652
  165SAPS  C21718620   6.120   0.900  -2.002 -0.4204  0.1621 -0.7354
  165SAPS  H17R18621   6.052   0.955  -2.071  0.5386 -0.2906 -2.0619
  165SAPS  H17S18622   6.167   0.822  -2.064  1.3064  0.6180 -0.0575
  165SAPS  C21818623   6.220   1.007  -1.960  0.2267  0.7171 -0.7722
  165SAPS  H18R18624   6.286   0.963  -1.882  0.5055  0.6115 -1.0633
  165SAPS  H18S18625   6.164   1.093  -1.919  1.5726  1.4575 -0.4375
  165SAPS  C21918626   6.318   1.040  -2.077 -0.1843  1.3072 -0.5103
  165SAPS  H19R18627   6.385   0.955  -2.102  0.1364  1.6727 -0.9178
  165SAPS  H19S18628   6.393   1.117  -2.050  0.2902  1.4775 -2.1825
  165SAPS  C22018629   6.244   1.089  -2.207 -0.3453 -0.0243 -0.0276
  165SAPS  H20R18630   6.315   1.122  -2.286  1.3198 -1.1931  0.9501
  165SAPS  H20S18631   6.178   1.174  -2.178  0.1609  0.2844  0.2343
  165SAPS  H20T18632   6.190   1.006  -2.258  0.8555 -0.2787 -0.9182
  165SAPS   C3318633   5.640   1.362  -0.861 -0.1116 -0.5992 -0.0410
  165SAPS   H3X18634   5.718   1.369  -0.782 -0.8290  2.2666  0.4929
  165SAPS   H3Y18635   5.673   1.432  -0.940  1.1576 -1.0613  0.0426
  165SAPS   C3418636   5.627   1.226  -0.929  0.8836 -0.1900 -0.3283
  165SAPS   H4X18637   5.526   1.222  -0.973  0.3624  2.6669  0.3906
  165SAPS   H4Y18638   5.638   1.133  -0.868 -4.0400 -0.7433  0.0575
  165SAPS   C3518639   5.728   1.207  -1.045 -0.4201  0.8160  0.0697
  165SAPS   H5X18640   5.835   1.225  -1.022  0.3398 -0.4036 -2.1347
  165SAPS   H5Y18641   5.722   1.294  -1.114  1.6403  0.7476 -0.2579
  165SAPS   C3618642   5.719   1.067  -1.121 -0.3889 -0.3711 -0.3634
  165SAPS   H6X18643   5.752   0.991  -1.047 -1.7563 -1.0882 -0.4545
  165SAPS   H6Y18644   5.794   1.078  -1.201  1.5164 -0.1896  1.3713
  165SAPS   C3718645   5.582   1.040  -1.168  0.5690 -0.1387  0.2176
  165SAPS   H7X18646   5.554   1.123  -1.236 -0.0452  1.1502  1.9756
  165SAPS   H7Y18647   5.496   1.046  -1.098 -0.3915  1.8287 -1.0421
  165SAPS   C3818648   5.567   0.903  -1.240  0.6036  0.0836 -0.0659
  165SAPS   H8X18649   5.469   0.901  -1.292  1.4768 -1.5953 -1.7654
  165SAPS   H8Y18650   5.568   0.808  -1.183 -1.0691 -1.3209 -2.2427
  165SAPS   C3918651   5.659   0.866  -1.360  0.2802  0.1503  0.0471
  165SAPS   H9X18652   5.612   0.776  -1.405  0.5725 -1.8857  3.4351
  165SAPS   H9Y18653   5.758   0.833  -1.321  0.3387  0.6603  0.3450
  165SAPS  C31018654   5.677   0.987  -1.462 -0.3963 -0.0087 -0.5853
  165SAPS  H10X18655   5.749   1.063  -1.425  0.2358 -1.4876  1.4607
  165SAPS  H10Y18656   5.576   1.029  -1.478 -0.8810 -1.0860 -0.4453
  165SAPS  C31118657   5.714   0.925  -1.595  0.6026 -0.8929 -0.0988
  165SAPS  H11X18658   5.649   0.836  -1.607 -0.4918 -0.4871  2.1709
  165SAPS  H11Y18659   5.819   0.888  -1.599  0.8771 -0.0144 -1.8129
  165SAPS  C31218660   5.681   1.040  -1.695  0.1326 -0.2365  1.1316
  165SAPS  H12X18661   5.750   1.127  -1.688 -0.8242  0.5660  0.8666
  165SAPS  H12Y18662   5.584   1.087  -1.668 -0.5656 -1.4392  0.7831
  165SAPS  C31318663   5.688   0.986  -1.840 -0.2900  0.0666 -0.0753
  165SAPS  H13X18664   5.613   0.904  -1.843  1.8830 -2.0401 -0.0021
  165SAPS  H13Y18665   5.784   0.930  -1.840 -1.1428 -1.4904  1.3660
  165SAPS  C31418666   5.673   1.082  -1.960  0.5653 -0.5559  0.2258
  165SAPS  H14X18667   5.744   1.165  -1.942 -1.6267  1.1623  1.4756
  165SAPS  H14Y18668   5.575   1.134  -1.965  1.9268  2.1266 -0.5078
  165SAPS  C31518669   5.703   1.013  -2.092 -0.2017 -0.5139  0.3646
  165SAPS  H15X18670   5.622   0.939  -2.110 -0.9486 -0.4850  3.1125
  165SAPS  H15Y18671   5.798   0.957  -2.082  0.3949  0.6762  1.9183
  165SAPS  C31618672   5.711   1.107  -2.214  0.0503  0.1866  0.3496
  165SAPS  H16X18673   5.763   1.063  -2.302  0.1026 -0.9061  0.9095
  165SAPS  H16Y18674   5.776   1.193  -2.187 -0.3186  0.6297 -0.1506
  165SAPS  C31718675   5.574   1.168  -2.259 -0.2042  0.1460  0.4583
  165SAPS  H17X18676   5.519   1.225  -2.182  0.0365 -0.4309  1.0668
  165SAPS  H17Y18677   5.514   1.080  -2.292 -0.8766  0.4168  0.9579
  165SAPS  C31818678   5.591   1.256  -2.388  0.1894  0.5282 -0.5707
  165SAPS  H18X18679   5.496   1.311  -2.404  0.0557  0.2331 -0.7822
  165SAPS  H18Y18680   5.622   1.194  -2.474 -2.3812 -0.3592 -0.9349
  165SAPS  H18Z18681   5.673   1.330  -2.373  1.1677 -0.1530 -2.2877
  166SAPS     N18682   4.975   2.031   8.279  0.0369 -0.2164  0.2660
  166SAPS   HN118683   4.964   2.109   8.347  0.1657 -1.2333  1.5160
  166SAPS   HN218684   4.881   1.995   8.253  0.8180 -0.3175 -2.6727
  166SAPS   HN318685   5.032   1.958   8.327  2.0599 -0.2085 -1.9772
  166SAPS   C1218686   5.053   2.075   8.162  0.3022 -0.0475  0.2924
  166SAPS  H12A18687   4.991   2.151   8.116 -0.9452 -0.8722  0.5518
  166SAPS   C1318688   5.197   2.124   8.206  0.3243  0.1557 -0.3301
  166SAPS  O13A18689   5.229   2.145   8.328  0.0654  0.3952 -0.4039
  166SAPS  O13B18690   5.270   2.165   8.118  0.2862 -0.8422  0.4059
  166SAPS   C1118691   5.080   1.964   8.064  0.2181  0.2646  0.4564
  166SAPS  H11A18692   5.154   1.898   8.114 -1.4326 -0.4429  2.0729
  166SAPS  H11B18693   5.138   2.004   7.979  1.3840 -2.4148 -0.1144
  166SAPS     P18694   4.957   1.790   7.910  0.0954 -0.1865 -0.9189
  166SAPS   O1318695   5.041   1.679   7.959 -0.5238 -0.6194  0.0524
  166SAPS   O1418696   4.821   1.757   7.861 -0.2000 -0.1574  0.6709
  166SAPS   O1218697   4.956   1.904   8.024  0.3644  0.0600  0.1383
  166SAPS   O1118698   5.039   1.865   7.801  0.2329  0.2676 -0.2123
  166SAPS    C118699   4.986   1.970   7.717  0.6896  0.4258  0.1988
  166SAPS    HA18700   4.898   2.021   7.760 -1.1315  0.4722 -3.2549
  166SAPS    HB18701   5.065   2.047   7.709  0.0464  1.0399 -0.3254
  166SAPS    C218702   4.933   1.916   7.586  0.5724  0.0301 -0.0091
  166SAPS    HS18703   4.878   1.823   7.615  0.6749 -0.5721 -1.6502
  166SAPS   O2118704   5.051   1.897   7.505  0.2367  0.6271  0.7288
  166SAPS   C2118705   5.055   1.788   7.432  0.0179  0.9554 -0.5339
  166SAPS   O2218706   4.972   1.699   7.429  0.3476  0.7975 -0.1101
  166SAPS   C2218707   5.178   1.803   7.341 -0.0315  0.3435 -0.0284
  166SAPS   H2R18708   5.232   1.895   7.372  2.4396 -0.2237 -2.2655
  166SAPS   H2S18709   5.249   1.721   7.368  1.3812  2.0949  1.8902
  166SAPS    C318710   4.836   2.013   7.519 -0.1278 -0.2408  0.3727
  166SAPS    HX18711   4.907   2.097   7.504 -0.8793  0.6569  1.6677
  166SAPS    HY18712   4.750   2.042   7.583 -0.1028  1.0123 -0.1345
  166SAPS   O3118713   4.793   1.945   7.395 -0.0314 -0.0589 -0.2062
  166SAPS   C3118714   4.766   2.036   7.296 -0.2772  0.2208  0.7477
  166SAPS   O3218715   4.786   2.157   7.302 -0.1679  0.4806 -0.0712
  166SAPS   C3218716   4.743   1.949   7.171 -0.0303 -0.0132 -0.1675
  166SAPS   H2X18717   4.647   1.893   7.175 -1.8164  2.3583 -3.8645
  166SAPS   H2Y18718   4.831   1.881   7.161  1.2866  1.1159  2.7540
  166SAPS   C2318719   5.143   1.812   7.188  0.2723 -0.4209 -0.0159
  166SAPS   H3R18720   5.237   1.852   7.144 -0.2534  0.5736 -0.2631
  166SAPS   H3S18721   5.068   1.892   7.170  1.0364  0.6671  1.3913
  166SAPS   C2418722   5.086   1.690   7.112  0.5592 -0.2082  0.2268
  166SAPS   H4R18723   5.049   1.717   7.011  1.7110  1.7615  0.2877
  166SAPS   H4S18724   4.992   1.668   7.169  1.8973 -1.5794  2.0495
  166SAPS   C2518725   5.175   1.564   7.117 -0.5140 -0.4879  0.2723
  166SAPS   H5R18726   5.160   1.496   7.202 -1.4611 -0.5636  0.0616
  166SAPS   C2618727   5.238   1.524   7.001  0.0083 -0.1785 -0.0124
  166SAPS   H6R18728   5.294   1.430   7.010  0.0279 -0.1432  0.2420
  166SAPS   C2718729   5.249   1.611   6.880 -0.2170 -0.2644 -0.3987
  166SAPS   H7R18730   5.274   1.714   6.913  1.2381 -0.2296 -1.5311
  166SAPS   H7S18731   5.148   1.625   6.835 -1.3167 -2.3230  1.2683
  166SAPS   C2818732   5.354   1.565   6.783 -0.4613  0.5172  0.5329
  166SAPS   H8R18733   5.458   1.591   6.805  0.1773  0.3045 -1.9881
  166SAPS   C2918734   5.337   1.491   6.673  0.1704  0.8968  0.2983
  166SAPS   H9R18735   5.427   1.470   6.614  0.2445  0.5048  0.5403
  166SAPS  C21018736   5.218   1.418   6.617 -0.1911  0.4697  0.0722
  166SAPS  H10R18737   5.160   1.376   6.702 -3.2434 -0.3254 -2.2088
  166SAPS  H10S18738   5.252   1.333   6.554 -1.5998  0.9788 -1.4556
  166SAPS  C21118739   5.140   1.520   6.532 -0.0436 -0.3880  0.6059
  166SAPS  H11R18740   5.080   1.594   6.586 -0.2928 -0.2257  0.1109
  166SAPS  C21218741   5.136   1.527   6.399 -0.1271  0.4749  0.6762
  166SAPS  H12R18742   5.095   1.620   6.358 -0.7019  1.1582  2.6754
  166SAPS  C21318743   5.191   1.425   6.304 -0.5939 -0.1180 -0.5818
  166SAPS  H13R18744   5.139   1.446   6.207  0.5157 -1.3914 -1.4854
  166SAPS  H13S18745   5.164   1.322   6.336  1.8781 -0.2795  1.2332
  166SAPS  C21418746   5.335   1.449   6.292 -0.7551  0.4491 -0.0522
  166SAPS  H14R18747   5.394   1.423   6.382 -0.0693 -0.4980 -0.7559
  166SAPS  C21518748   5.398   1.501   6.179 -0.0797  0.5106 -0.0558
  166SAPS  H15R18749   5.502   1.535   6.190  0.6696 -1.5838 -0.2040
  166SAPS  C21618750   5.336   1.552   6.052  0.1937 -0.2601  0.0494
  166SAPS  H16R18751   5.237   1.595   6.077  0.7303  0.2512  1.3738
  166SAPS  H16S18752   5.320   1.468   5.980 -2.7166 -0.1137  0.4063
  166SAPS  C21718753   5.410   1.659   5.976 -0.2470 -0.2035 -0.2145
  166SAPS  H17R18754   5.500   1.617   5.928 -0.5160 -0.6150 -0.3643
  166SAPS  H17S18755   5.455   1.728   6.051 -0.4057 -0.9154  0.5532
  166SAPS  C21818756   5.345   1.730   5.850  0.2057  0.3742 -0.3631
  166SAPS  H18R18757   5.307   1.642   5.795 -1.3725  0.6835  0.1869
  166SAPS  H18S18758   5.421   1.782   5.788  1.2813  2.0238  2.1333
  166SAPS  C21918759   5.217   1.814   5.879 -0.8071  0.5074  0.4809
  166SAPS  H19R18760   5.240   1.912   5.926 -1.8114  1.1652 -0.3350
  166SAPS  H19S18761   5.177   1.761   5.969  0.4116 -0.9189  0.2153
  166SAPS  C22018762   5.114   1.825   5.766 -0.1470  0.1329  0.1070
  166SAPS  H20R18763   5.020   1.867   5.809  1.2853  0.1420  3.5404
  166SAPS  H20S18764   5.083   1.727   5.724 -1.0368  0.1231  0.7554
  166SAPS  H20T18765   5.151   1.880   5.677  0.0607 -1.7367 -1.0097
  166SAPS   C3318766   4.751   2.039   7.048 -0.3547 -0.0578 -0.1027
  166SAPS   H3X18767   4.847   2.092   7.037 -0.9478  0.8895 -0.9339
  166SAPS   H3Y18768   4.672   2.116   7.062  1.0627  1.2958  0.6939
  166SAPS   C3418769   4.710   1.972   6.918  0.0379 -0.5078 -0.0818
  166SAPS   H4X18770   4.681   2.052   6.847 -3.9130  0.3949  2.2132
  166SAPS   H4Y18771   4.612   1.919   6.918 -1.3281  1.8998 -0.5179
  166SAPS   C3518772   4.823   1.881   6.869  0.2945  0.0465 -0.1465
  166SAPS   H5X18773   4.843   1.795   6.937  1.6239  0.0456 -0.5128
  166SAPS   H5Y18774   4.919   1.934   6.883 -0.1905  0.6763  1.0118
  166SAPS   C3618775   4.784   1.826   6.734  0.8178  0.5720  0.1684
  166SAPS   H6X18776   4.675   1.807   6.727  0.5831  2.3376 -2.2099
  166SAPS   H6Y18777   4.842   1.732   6.718  0.3072  0.2708  0.0803
  166SAPS   C3718778   4.814   1.938   6.627 -0.4744 -0.5487 -0.4624
  166SAPS   H7X18779   4.910   1.988   6.651 -2.7024  3.5971  0.9080
  166SAPS   H7Y18780   4.733   2.014   6.633  0.7714  0.8374 -0.8037
  166SAPS   C3818781   4.826   1.875   6.486  0.5948  0.1188 -0.6112
  166SAPS   H8X18782   4.897   1.791   6.499  0.3618  0.2920  2.5708
  166SAPS   H8Y18783   4.870   1.941   6.408 -1.7425  0.2108 -1.9346
  166SAPS   C3918784   4.697   1.824   6.437  0.1031  0.0727  1.0065
  166SAPS   H9X18785   4.627   1.910   6.447 -0.4315 -0.2367 -0.0329
  166SAPS   H9Y18786   4.653   1.740   6.495  0.1990 -2.0998 -1.8825
  166SAPS  C31018787   4.688   1.803   6.287 -0.1922  0.3535 -0.7575
  166SAPS  H10X18788   4.740   1.883   6.231 -0.1217 -0.0143 -1.2160
  166SAPS  H10Y18789   4.582   1.805   6.254 -1.2314 -1.2245  2.0686
  166SAPS  C31118790   4.747   1.666   6.242 -0.6519  0.0999  0.7213
  166SAPS  H11X18791   4.688   1.576   6.270 -0.7602  0.1408  0.6243
  166SAPS  H11Y18792   4.852   1.654   6.276 -0.9004 -1.1566  1.0999
  166SAPS  C31218793   4.743   1.662   6.083 -0.1222 -0.3322  0.5115
  166SAPS  H12X18794   4.782   1.758   6.042 -1.5568 -0.2255 -0.6662
  166SAPS  H12Y18795   4.636   1.668   6.053 -0.1521  0.1029  0.6921
  166SAPS  C31318796   4.819   1.532   6.034 -0.3032 -0.9167 -0.1886
  166SAPS  H13X18797   4.761   1.445   6.071 -0.1143  0.3456  3.4684
  166SAPS  H13Y18798   4.908   1.542   6.099 -0.5289  4.7695 -0.1966
  166SAPS  C31418799   4.848   1.528   5.885  0.0522 -0.6529  0.3751
  166SAPS  H14X18800   4.906   1.620   5.861  0.1111  0.0768  2.9390
  166SAPS  H14Y18801   4.749   1.551   5.840 -0.4567 -0.2726  1.6423
  166SAPS  C31518802   4.909   1.400   5.840 -0.8391 -0.4495 -0.3256
  166SAPS  H15X18803   4.909   1.411   5.730  0.7152  0.4075 -0.2606
  166SAPS  H15Y18804   4.853   1.309   5.874 -0.8445 -0.1231  0.5725
  166SAPS  C31618805   5.052   1.388   5.895 -0.2305 -0.7041  0.1887
  166SAPS  H16X18806   5.067   1.406   6.004 -0.2848  1.6499 -0.1434
  166SAPS  H16Y18807   5.111   1.459   5.833 -2.5901 -0.8695 -2.4432
  166SAPS  C31718808   5.099   1.246   5.860 -0.2709  0.1418 -0.0160
  166SAPS  H17X18809   5.207   1.236   5.838 -0.3950 -1.5905  0.0018
  166SAPS  H17Y18810   5.041   1.214   5.770  0.9671 -1.7817 -0.2010
  166SAPS  C31818811   5.069   1.144   5.973  0.0186  0.5087 -0.3142
  166SAPS  H18X18812   4.959   1.142   5.984 -0.1004  3.0718 -0.2811
  166SAPS  H18Y18813   5.113   1.182   6.067  0.6073  1.1582 -0.8353
  166SAPS  H18Z18814   5.105   1.041   5.954 -0.5899  0.2033  0.1716
  167SAPS     N18815   1.722   0.055   7.832  0.6677  0.2664  0.2468
  167SAPS   HN118816   1.673  -0.032   7.859  0.6417 -0.8610 -3.0799
  167SAPS   HN218817   1.766   0.022   7.744 -1.7074 -2.4277 -0.0828
  167SAPS   HN318818   1.794   0.076   7.903  1.8230 -1.9443 -0.1996
  167SAPS   C1218819   1.636   0.169   7.815 -0.6874 -0.3241  0.1935
  167SAPS  H12A18820   1.579   0.185   7.905 -1.7640  3.3093 -0.9173
  167SAPS   C1318821   1.724   0.291   7.795  0.0987 -0.1239  0.1244
  167SAPS  O13A18822   1.850   0.292   7.816 -0.5284 -0.6628 -0.0816
  167SAPS  O13B18823   1.662   0.398   7.775  0.8828 -0.3069 -0.6224
  167SAPS   C1118824   1.546   0.139   7.695  1.0327 -0.3698  0.2105
  167SAPS  H11A18825   1.613   0.118   7.609  0.5538 -1.8360  0.1608
  167SAPS  H11B18826   1.486   0.232   7.683  1.6159 -0.0604 -0.3405
  167SAPS     P18827   1.406  -0.043   7.581  0.1834 -0.2931  0.1134
  167SAPS   O1318828   1.523  -0.126   7.547 -0.0754 -0.0877  0.7233
  167SAPS   O1418829   1.276  -0.104   7.610 -0.3698  0.0065  0.0050
  167SAPS   O1218830   1.450   0.030   7.717  0.3098  0.2938  0.3560
  167SAPS   O1118831   1.402   0.064   7.463  0.3350 -0.5527  0.0067
  167SAPS    C118832   1.288   0.151   7.455 -0.6295 -0.2749 -0.9957
  167SAPS    HA18833   1.244   0.170   7.555 -0.1971 -0.2353 -0.8075
  167SAPS    HB18834   1.307   0.253   7.416 -1.8529  0.2602 -0.2447
  167SAPS    C218835   1.182   0.084   7.359 -0.5627  0.0540 -0.0912
  167SAPS    HS18836   1.171  -0.018   7.402 -2.2736  0.5253  0.6807
  167SAPS   O2118837   1.224   0.089   7.220 -0.1521  0.0973 -0.1497
  167SAPS   C2118838   1.195  -0.007   7.143  0.1808  0.0218 -0.1986
  167SAPS   O2218839   1.147  -0.114   7.179  0.4483 -0.1779  0.1254
  167SAPS   C2218840   1.248   0.014   7.003  0.1824  0.4255 -0.6813
  167SAPS   H2R18841   1.173   0.071   6.944  1.1699  1.3607 -1.0725
  167SAPS   H2S18842   1.338   0.077   7.017  0.0600  0.2480  1.2727
  167SAPS    C318843   1.049   0.160   7.383 -0.0716  0.2395  0.1399
  167SAPS    HX18844   1.062   0.268   7.403 -3.1652  0.5134  1.1115
  167SAPS    HY18845   1.018   0.114   7.480 -0.0177 -1.1208 -0.4597
  167SAPS   O3118846   0.949   0.120   7.275  0.9198 -0.7007 -0.0345
  167SAPS   C3118847   0.837   0.177   7.301 -0.3385 -0.1736 -0.0664
  167SAPS   O3218848   0.812   0.242   7.401  0.1885 -0.2977 -0.3286
  167SAPS   C3218849   0.749   0.171   7.179  0.1058 -0.2078  0.0709
  167SAPS   H2X18850   0.685   0.262   7.172  1.6623  0.8801 -0.5809
  167SAPS   H2Y18851   0.691   0.077   7.186  2.7763 -2.0008 -0.4633
  167SAPS   C2318852   1.296  -0.113   6.939  0.3816 -0.1861  0.2471
  167SAPS   H3R18853   1.217  -0.182   6.902  1.9585 -1.9331 -0.0635
  167SAPS   H3S18854   1.347  -0.176   7.015 -0.8492 -1.6381 -0.0826
  167SAPS   C2418855   1.389  -0.087   6.818  0.0742  0.5729  0.5049
  167SAPS   H4R18856   1.466  -0.014   6.852  0.2498  0.2791  0.7405
  167SAPS   H4S18857   1.341  -0.026   6.738  0.1779 -1.8487 -1.5293
  167SAPS   C2518858   1.443  -0.222   6.761  0.0724 -0.3662  0.1669
  167SAPS   H5R18859   1.503  -0.274   6.838  0.6604  0.8782  0.5850
  167SAPS   C2618860   1.422  -0.285   6.649  0.3799 -0.5407 -0.0868
  167SAPS   H6R18861   1.470  -0.382   6.634 -0.6956 -1.3520  1.4924
  167SAPS   C2718862   1.351  -0.231   6.525 -0.0493 -0.3081 -0.6736
  167SAPS   H7R18863   1.417  -0.208   6.439 -0.4734 -2.3547 -1.5973
  167SAPS   H7S18864   1.292  -0.140   6.548  0.9333 -0.4581  3.0899
  167SAPS   C2818865   1.244  -0.329   6.472 -0.6258 -0.7385 -0.7248
  167SAPS   H8R18866   1.172  -0.355   6.552 -0.2141 -1.0233 -0.4399
  167SAPS   C2918867   1.236  -0.389   6.348 -0.8709 -0.0313 -0.7327
  167SAPS   H9R18868   1.146  -0.452   6.337 -0.3927 -0.9395  0.4318
  167SAPS  C21018869   1.331  -0.356   6.232  0.0985  0.3704 -0.0499
  167SAPS  H10R18870   1.438  -0.349   6.261  0.8781  0.3542 -2.6793
  167SAPS  H10S18871   1.304  -0.252   6.203  0.5360  1.0910  1.9792
  167SAPS  C21118872   1.323  -0.463   6.123  0.6344  0.6419 -0.1164
  167SAPS  H11R18873   1.319  -0.568   6.156  1.2731 -0.0591 -2.1511
  167SAPS  C21218874   1.292  -0.437   5.993 -1.1715  0.2875  0.2930
  167SAPS  H12R18875   1.268  -0.528   5.936 -0.2322  0.2850 -0.1148
  167SAPS  C21318876   1.257  -0.302   5.935  0.3021  0.2643  0.1388
  167SAPS  H13R18877   1.349  -0.241   5.929 -0.0754  0.9160  0.8701
  167SAPS  H13S18878   1.187  -0.243   5.998 -1.2445  0.5185 -1.7122
  167SAPS  C21418879   1.198  -0.306   5.792 -0.7213  0.1878 -0.0529
  167SAPS  H14R18880   1.225  -0.393   5.730 -0.2853  0.1486  0.1864
  167SAPS  C21518881   1.109  -0.216   5.742 -0.0385  0.4673  0.4033
  167SAPS  H15R18882   1.080  -0.233   5.638  0.5427  0.6503  0.2080
  167SAPS  C21618883   1.068  -0.086   5.809  0.4080  0.7045  0.3811
  167SAPS  H16R18884   1.122  -0.069   5.905  0.3953 -0.8773  0.6976
  167SAPS  H16S18885   0.964  -0.091   5.849  0.4990  0.3398  0.5750
  167SAPS  C21718886   1.080   0.043   5.723  0.1212 -0.6967  0.3940
  167SAPS  H17R18887   1.017   0.126   5.763 -0.8420 -2.4646  2.7798
  167SAPS  H17S18888   1.043   0.016   5.623 -0.1207 -0.8377  0.5213
  167SAPS  C21818889   1.224   0.088   5.698  0.0048  0.2277  0.5449
  167SAPS  H18R18890   1.274   0.007   5.640  0.0070  0.4550  0.2228
  167SAPS  H18S18891   1.269   0.118   5.795 -1.9976  0.8224  1.3419
  167SAPS  C21918892   1.226   0.204   5.592  0.6216 -0.3833  0.7499
  167SAPS  H19R18893   1.155   0.285   5.618  0.6359 -0.3199  0.5940
  167SAPS  H19S18894   1.189   0.156   5.498 -0.4647  0.5020  0.7162
  167SAPS  C22018895   1.368   0.254   5.578 -0.1424 -0.1701 -0.2962
  167SAPS  H20R18896   1.405   0.260   5.682 -0.8567 -1.9833  0.0896
  167SAPS  H20S18897   1.382   0.349   5.521 -0.2040 -0.8419 -1.4550
  167SAPS  H20T18898   1.437   0.182   5.529  0.6444 -1.6412  2.7448
  167SAPS   C3318899   0.817   0.157   7.035 -0.4750  0.3373 -0.6383
  167SAPS   H3X18900   0.916   0.207   7.024 -0.1513 -0.0310  0.4919
  167SAPS   H3Y18901   0.748   0.204   6.962  0.1300  0.8739 -0.8789
  167SAPS   C3418902   0.827   0.014   6.986  0.9118  0.2309 -0.6603
  167SAPS   H4X18903   0.735  -0.044   7.010  1.0045  0.6645  0.8494
  167SAPS   H4Y18904   0.902  -0.042   7.046  2.1554  0.8458 -1.5930
  167SAPS   C3518905   0.873  -0.009   6.841 -0.5555  0.0125  0.4119
  167SAPS   H5X18906   0.913  -0.112   6.835  1.2051  0.6444  0.5149
  167SAPS   H5Y18907   0.957   0.063   6.833 -0.3088  0.0109  2.4783
  167SAPS   C3618908   0.763   0.006   6.736  0.1331 -1.0608 -0.3766
  167SAPS   H6X18909   0.724   0.110   6.728 -0.2340 -1.2910 -1.9236
  167SAPS   H6Y18910   0.675  -0.055   6.764  0.5311 -1.2594  0.4704
  167SAPS   C3718911   0.820  -0.037   6.604 -0.7508  0.3425  0.6320
  167SAPS   H7X18912   0.888  -0.124   6.617 -1.6436 -0.6063 -0.7239
  167SAPS   H7Y18913   0.886   0.047   6.572 -0.3848  0.0467  0.6010
  167SAPS   C3818914   0.720  -0.069   6.499  0.3997  0.3712 -0.6822
  167SAPS   H8X18915   0.676   0.025   6.460  0.0588  1.4733  2.1661
  167SAPS   H8Y18916   0.640  -0.132   6.545  2.1885 -0.8218  0.9531
  167SAPS   C3918917   0.781  -0.155   6.386 -0.4087  0.1965  0.6066
  167SAPS   H9X18918   0.811  -0.257   6.417  2.2917  0.6594 -0.2176
  167SAPS   H9Y18919   0.867  -0.097   6.347 -1.0095  0.6935  0.0040
  167SAPS  C31018920   0.678  -0.158   6.266 -0.7232 -0.4571  0.9688
  167SAPS  H10X18921   0.644  -0.054   6.246  0.6514 -0.1187  0.2429
  167SAPS  H10Y18922   0.592  -0.221   6.297 -2.2435 -0.2152 -2.3027
  167SAPS  C31118923   0.746  -0.212   6.133 -0.0040  0.1629 -0.5299
  167SAPS  H11X18924   0.831  -0.143   6.112 -0.0672  0.1127 -0.9436
  167SAPS  H11Y18925   0.670  -0.208   6.053 -1.1122 -0.8282  0.4235
  167SAPS  C31218926   0.795  -0.358   6.144 -0.2761 -0.2177  0.1270
  167SAPS  H12X18927   0.718  -0.421   6.193  0.0018  0.7219  1.8539
  167SAPS  H12Y18928   0.887  -0.352   6.206 -0.8461 -0.1995  0.9799
  167SAPS  C31318929   0.839  -0.425   6.013  1.0874 -0.5730 -0.4880
  167SAPS  H13X18930   0.875  -0.526   6.042 -1.8734 -1.5080  0.3039
  167SAPS  H13Y18931   0.924  -0.366   5.972  0.0826  0.3093 -1.3940
  167SAPS  C31418932   0.738  -0.426   5.887 -0.0882 -0.5231  0.2194
  167SAPS  H14X18933   0.712  -0.321   5.865  0.7549  0.1820  2.2972
  167SAPS  H14Y18934   0.642  -0.472   5.920 -1.1761  0.0697 -1.9789
  167SAPS  C31518935   0.802  -0.487   5.764 -0.0229 -0.3542 -0.2742
  167SAPS  H15X18936   0.839  -0.584   5.804  0.5284 -0.0159  0.0620
  167SAPS  H15Y18937   0.883  -0.422   5.724  1.4144 -2.5389 -1.1001
  167SAPS  C31618938   0.714  -0.517   5.640  0.4532  0.2167 -0.2110
  167SAPS  H16X18939   0.624  -0.559   5.689  0.2146 -0.0362 -0.8524
  167SAPS  H16Y18940   0.749  -0.600   5.574 -0.1985 -1.0136  0.9397
  167SAPS  C31718941   0.681  -0.392   5.561  0.0190 -0.1290 -0.1264
  167SAPS  H17X18942   0.760  -0.315   5.574 -1.0425  0.9979 -0.1578
  167SAPS  H17Y18943   0.586  -0.352   5.603 -0.8448  1.9564 -3.6445
  167SAPS  C31818944   0.663  -0.413   5.411 -0.3274  0.1002  0.0882
  167SAPS  H18X18945   0.635  -0.311   5.375 -1.9967  0.3415  1.8817
  167SAPS  H18Y18946   0.581  -0.482   5.383 -0.3115  1.3550 -3.6491
  167SAPS  H18Z18947   0.757  -0.455   5.369  0.0469 -1.1608  2.0770
  168SAPS     N18948   5.607   2.567   7.724  0.4331 -0.3948 -0.5773
  168SAPS   HN118949   5.657   2.496   7.780  0.0764 -1.5146 -1.6331
  168SAPS   HN218950   5.524   2.515   7.688 -0.9281  1.4048 -0.2028
  168SAPS   HN318951   5.656   2.611   7.644  0.0332 -0.8234 -1.0667
  168SAPS   C1218952   5.561   2.666   7.826 -0.0926 -0.3777  0.5530
  168SAPS  H12A18953   5.503   2.744   7.780 -0.0727  0.7498  2.3462
  168SAPS   C1318954   5.459   2.606   7.929 -0.0056 -0.2728 -0.2817
  168SAPS  O13A18955   5.391   2.505   7.899 -0.0927  0.0371  0.2100
  168SAPS  O13B18956   5.412   2.690   8.009 -0.1890 -0.4180 -0.9739
  168SAPS   C1118957   5.686   2.731   7.893  0.1274  0.1445 -0.1423
  168SAPS  H11A18958   5.759   2.656   7.929 -0.1095 -0.5215 -1.0165
  168SAPS  H11B18959   5.659   2.772   7.993  1.9851 -0.9292  0.8577
  168SAPS     P18960   5.763   2.967   7.810 -0.2118 -0.2347  0.2399
  168SAPS   O1318961   5.622   3.004   7.811  1.1636  0.4526 -0.3488
  168SAPS   O1418962   5.857   3.024   7.909  0.0846 -0.1560  0.4427
  168SAPS   O1218963   5.765   2.815   7.807  0.4517 -0.0239  0.3329
  168SAPS   O1118964   5.820   3.003   7.666  0.2156 -0.0483  0.0136
  168SAPS    C118965   5.948   2.981   7.621  0.5381 -0.0067  0.6578
  168SAPS    HA18966   6.006   3.074   7.604 -1.4969  1.6265  2.1198
  168SAPS    HB18967   6.010   2.934   7.701  0.6834  3.9980  3.1599
  168SAPS    C218968   5.954   2.891   7.493  0.2103 -0.4631  0.1157
  168SAPS    HS18969   6.056   2.850   7.480  0.0576 -0.3916 -1.5704
  168SAPS   O2118970   5.908   2.966   7.374 -0.0652  0.1124  0.3672
  168SAPS   C2118971   5.999   3.061   7.340 -0.8454  0.0296 -0.1406
  168SAPS   O2218972   6.112   3.072   7.389  0.2581  0.3972 -0.0258
  168SAPS   C2218973   5.939   3.149   7.233 -0.2651 -0.2414 -0.1517
  168SAPS   H2R18974   5.874   3.092   7.163  1.9409 -3.1748  0.0127
  168SAPS   H2S18975   5.869   3.224   7.277  0.5144 -0.1886  1.0421
  168SAPS    C318976   5.860   2.764   7.508 -0.6764  0.2302  0.3464
  168SAPS    HX18977   5.762   2.816   7.515 -0.3922  0.8624 -0.2872
  168SAPS    HY18978   5.890   2.717   7.604  1.0679  0.3261 -0.1295
  168SAPS   O3118979   5.868   2.670   7.398  0.3549  0.0217 -0.2533
  168SAPS   C3118980   5.758   2.604   7.388  0.2146  0.4671 -0.1219
  168SAPS   O3218981   5.654   2.614   7.451 -0.0623  0.0530 -0.5722
  168SAPS   C3218982   5.781   2.489   7.286  0.2477 -0.4206  0.4703
  168SAPS   H2X18983   5.858   2.417   7.324  1.2824  0.0894 -0.5783
  168SAPS   H2Y18984   5.815   2.521   7.185 -3.6815 -0.7826 -1.1120
  168SAPS   C2318985   6.036   3.234   7.149 -0.2058  0.2208  0.3766
  168SAPS   H3R18986   6.113   3.288   7.208  0.2842 -1.5170  1.3874
  168SAPS   H3S18987   5.969   3.307   7.098 -0.2724 -0.3874 -0.4438
  168SAPS   C2418988   6.109   3.150   7.039 -0.4954 -0.3837 -0.0676
  168SAPS   H4R18989   6.031   3.093   6.986  0.2447 -0.3278 -1.2575
  168SAPS   H4S18990   6.179   3.076   7.083 -0.5824 -0.7044 -0.4677
  168SAPS   C2518991   6.173   3.248   6.940 -0.5020  0.3649  0.0479
  168SAPS   H5R18992   6.272   3.286   6.969 -0.5634  1.6300 -1.2912
  168SAPS   C2618993   6.118   3.288   6.824 -0.3583 -0.0951 -0.1212
  168SAPS   H6R18994   6.178   3.351   6.756 -0.1080 -1.5760 -1.3174
  168SAPS   C2718995   5.977   3.248   6.780  0.1625 -0.2948 -0.3759
  168SAPS   H7R18996   5.946   3.316   6.698 -1.6735 -1.2704 -0.5452
  168SAPS   H7S18997   5.899   3.260   6.858  1.6996 -3.3617  1.8628
  168SAPS   C2818998   5.966   3.110   6.724  0.4691  0.2753  0.1106
  168SAPS   H8R18999   5.968   3.031   6.801 -3.9351  0.3584  0.5314
  168SAPS   C2919000   5.974   3.070   6.594 -0.3672 -0.2023 -0.6330
  168SAPS   H9R19001   5.950   2.964   6.575 -2.3750  0.2877 -1.0249
  168SAPS  C21019002   5.986   3.160   6.468  0.2034  0.0512  0.1022
  168SAPS  H10R19003   5.996   3.266   6.501  1.0712 -0.2178  0.7493
  168SAPS  H10S19004   5.898   3.157   6.401  0.9239  1.2677 -0.9656
  168SAPS  C21119005   6.107   3.133   6.390  0.0936  0.5875 -0.1667
  168SAPS  H11R19006   6.196   3.108   6.450  1.6422  2.0727 -1.7298
  168SAPS  C21219007   6.119   3.131   6.258  1.0055  0.5750 -0.6897
  168SAPS  H12R19008   6.211   3.091   6.214 -0.0053 -0.9474 -1.5036
  168SAPS  C21319009   6.020   3.172   6.157 -0.1883 -0.7306 -0.4093
  168SAPS  H13R19010   6.078   3.221   6.076 -2.9625 -0.4351 -2.3506
  168SAPS  H13S19011   5.954   3.245   6.209  1.1936 -0.8514  1.6397
  168SAPS  C21419012   5.935   3.060   6.100  0.0506  0.0201  0.0991
  168SAPS  H14R19013   5.837   3.044   6.146  0.7650 -1.9844  1.0655
  168SAPS  C21519014   5.978   2.964   6.016 -0.5742  0.7327 -0.2964
  168SAPS  H15R19015   5.905   2.885   5.992  0.2697  0.3086 -1.5521
  168SAPS  C21619016   6.110   2.949   5.943  0.8735 -0.0640 -0.1132
  168SAPS  H16R19017   6.157   2.851   5.968 -2.0094 -1.9622 -1.5080
  168SAPS  H16S19018   6.176   3.034   5.970 -1.1577  1.2674  0.8646
  168SAPS  C21719019   6.077   2.966   5.795 -0.2211 -0.6468  0.5576
  168SAPS  H17R19020   6.000   3.045   5.781  0.4241 -0.2237 -0.8536
  168SAPS  H17S19021   6.029   2.873   5.757 -0.2467 -0.1688 -0.6552
  168SAPS  C21819022   6.195   3.009   5.712 -0.2185  0.1042 -0.3305
  168SAPS  H18R19023   6.258   2.917   5.707 -0.4930 -0.0755 -0.5024
  168SAPS  H18S19024   6.255   3.088   5.763  0.0249  0.1514 -0.6845
  168SAPS  C21919025   6.164   3.056   5.573 -0.4596 -0.3479  0.1918
  168SAPS  H19R19026   6.114   3.155   5.579 -1.0358 -0.6881  1.2331
  168SAPS  H19S19027   6.100   2.991   5.509  1.9249 -1.3762 -1.3382
  168SAPS  C22019028   6.296   3.080   5.493 -0.2292  0.3909 -0.5168
  168SAPS  H20R19029   6.352   2.985   5.505  3.5125  2.6973  2.6870
  168SAPS  H20S19030   6.360   3.162   5.531 -0.8075  0.0430  1.3328
  168SAPS  H20T19031   6.276   3.101   5.386 -0.6243 -1.9393 -0.9698
  168SAPS   C3319032   5.655   2.411   7.243  0.5647 -0.1790  1.3327
  168SAPS   H3X19033   5.579   2.480   7.200  1.1655 -1.5130 -2.1738
  168SAPS   H3Y19034   5.610   2.370   7.335  1.8576  3.0280  3.6015
  168SAPS   C3419035   5.666   2.302   7.140 -0.9283  0.3626  0.5288
  168SAPS   H4X19036   5.565   2.264   7.115  0.2851 -2.4050 -0.5808
  168SAPS   H4Y19037   5.725   2.220   7.187  0.3656 -0.0228 -1.6346
  168SAPS   C3519038   5.727   2.331   6.997 -1.1807  0.0109 -0.0482
  168SAPS   H5X19039   5.837   2.337   7.004 -1.1127 -1.4682  0.5611
  168SAPS   H5Y19040   5.688   2.425   6.952 -0.6265  0.8720  1.2403
  168SAPS   C3619041   5.685   2.221   6.892 -0.1152 -0.4944  0.1556
  168SAPS   H6X19042   5.575   2.231   6.881 -0.0298 -0.3723 -0.6515
  168SAPS   H6Y19043   5.698   2.119   6.934  1.9779  0.2274  1.4398
  168SAPS   C3719044   5.749   2.229   6.753 -1.1884  0.1950 -0.2768
  168SAPS   H7X19045   5.714   2.135   6.707  0.0244 -0.0857 -0.6556
  168SAPS   H7Y19046   5.859   2.222   6.762 -1.2927 -0.7141  0.4449
  168SAPS   C3819047   5.729   2.361   6.682  0.8886 -0.8386 -0.0655
  168SAPS   H8X19048   5.781   2.446   6.731  0.0297 -0.9361  1.0534
  168SAPS   H8Y19049   5.620   2.379   6.690  0.8327 -0.8083 -0.8994
  168SAPS   C3919050   5.800   2.361   6.543  0.4463  0.2640  0.2658
  168SAPS   H9X19051   5.908   2.383   6.556  0.3509 -0.3503  2.7416
  168SAPS   H9Y19052   5.746   2.437   6.484  1.4526  0.3604 -0.5441
  168SAPS  C31019053   5.795   2.225   6.466  0.3456 -0.3802  0.0488
  168SAPS  H10X19054   5.688   2.199   6.455 -0.3338  1.8495  0.7891
  168SAPS  H10Y19055   5.843   2.145   6.527  0.8383 -1.9906 -2.3498
  168SAPS  C31119056   5.837   2.223   6.320 -0.2035  0.0119 -0.0920
  168SAPS  H11X19057   5.830   2.119   6.284 -0.6211 -0.2675  0.7799
  168SAPS  H11Y19058   5.943   2.256   6.312 -0.1421 -0.5780 -2.4235
  168SAPS  C31219059   5.761   2.314   6.220  0.5414 -0.0743 -0.1345
  168SAPS  H12X19060   5.777   2.422   6.239  0.0463  0.3980 -2.1928
  168SAPS  H12Y19061   5.652   2.293   6.219  0.7132 -1.0600  0.3303
  168SAPS  C31319062   5.810   2.291   6.077  0.6361  0.2954 -0.0690
  168SAPS  H13X19063   5.920   2.300   6.069  0.6239 -0.0146 -0.6959
  168SAPS  H13Y19064   5.756   2.362   6.011 -0.8088 -1.7179 -1.2023
  168SAPS  C31419065   5.795   2.140   6.037  0.2755 -0.2626 -0.3436
  168SAPS  H14X19066   5.697   2.091   6.055 -0.2583 -0.5335 -3.3889
  168SAPS  H14Y19067   5.871   2.088   6.099  0.5332  0.6433  0.1211
  168SAPS  C31519068   5.821   2.122   5.883 -0.3401  0.5988  0.0295
  168SAPS  H15X19069   5.905   2.185   5.848  0.1191 -0.0617 -0.0525
  168SAPS  H15Y19070   5.726   2.154   5.835 -0.4676 -0.8802 -0.7440
  168SAPS  C31619071   5.868   1.979   5.843 -0.1082  0.8966  0.1516
  168SAPS  H16X19072   5.798   1.910   5.895 -0.0811  0.0742 -0.8595
  168SAPS  H16Y19073   5.959   1.961   5.903 -0.1817 -2.6661 -0.5911
  168SAPS  C31719074   5.870   1.945   5.696 -0.2351  0.1235 -0.3415
  168SAPS  H17X19075   5.913   1.844   5.679 -0.6208  0.1146 -1.3210
  168SAPS  H17Y19076   5.923   2.031   5.651 -1.8969  1.1664 -0.3863
  168SAPS  C31819077   5.718   1.930   5.643  0.4616 -0.0836  0.4278
  168SAPS  H18X19078   5.714   1.896   5.537  1.8650 -0.0342  0.3304
  168SAPS  H18Y19079   5.663   2.026   5.637 -2.2180 -1.5701 -0.2457
  168SAPS  H18Z19080   5.669   1.866   5.719 -0.6728 -2.5707 -2.2044
  169SAPS     N19081   0.988   2.409   7.440 -0.0456 -0.7825  0.3696
  169SAPS   HN119082   1.073   2.464   7.465 -0.1566  0.4551 -1.7397
  169SAPS   HN219083   1.007   2.339   7.365 -0.3597  0.3537 -0.8058
  169SAPS   HN319084   0.915   2.478   7.413 -0.5962 -1.5837 -0.2287
  169SAPS   C1219085   0.951   2.334   7.571  0.1397 -0.1583 -0.5844
  169SAPS  H12A19086   1.031   2.271   7.607  1.5530  1.7949 -0.1662
  169SAPS   C1319087   0.937   2.423   7.699 -0.0317  1.0367  0.3832
  169SAPS  O13A19088   0.968   2.542   7.689 -0.7169  0.0401 -0.7693
  169SAPS  O13B19089   0.881   2.373   7.799  0.2547 -0.1468  0.7080
  169SAPS   C1119090   0.815   2.265   7.542 -0.4811 -0.4954  0.2558
  169SAPS  H11A19091   0.745   2.346   7.514  1.3261  0.3927 -2.1255
  169SAPS  H11B19092   0.764   2.222   7.630  0.8741 -0.7016  0.9699
  169SAPS     P19093   0.696   2.093   7.392 -0.1316 -0.1564  0.0540
  169SAPS   O1319094   0.712   2.031   7.262 -0.3058  0.2027  0.0451
  169SAPS   O1419095   0.670   1.999   7.505  0.0244 -0.3108  0.6510
  169SAPS   O1219096   0.817   2.175   7.427 -0.0396  0.6418  0.7871
  169SAPS   O1119097   0.571   2.193   7.396  0.6801 -0.1552  0.5209
  169SAPS    C119098   0.576   2.319   7.332  0.7618  0.0172  0.5117
  169SAPS    HA19099   0.539   2.399   7.399  0.6532  1.5630 -1.3086
  169SAPS    HB19100   0.680   2.348   7.304 -0.2691  1.4848 -2.1437
  169SAPS    C219101   0.493   2.319   7.202  0.5508  0.3723  0.2939
  169SAPS    HS19102   0.395   2.274   7.229 -0.1937 -0.1657 -2.8803
  169SAPS   O2119103   0.571   2.237   7.110 -0.1828 -1.1323 -0.6882
  169SAPS   C2119104   0.498   2.146   7.045 -0.5694 -0.2347  0.8769
  169SAPS   O2219105   0.384   2.108   7.069 -0.6333  0.7734 -0.4351
  169SAPS   C2219106   0.585   2.090   6.931 -0.4799 -0.4724 -0.4101
  169SAPS   H2R19107   0.662   2.165   6.902 -0.9210  0.5751  1.0380
  169SAPS   H2S19108   0.632   1.997   6.968 -1.7170 -0.8152  0.3470
  169SAPS    C319109   0.465   2.452   7.138  0.4366 -0.0325 -0.1020
  169SAPS    HX19110   0.554   2.509   7.105  0.2710  0.6462  0.5940
  169SAPS    HY19111   0.423   2.511   7.222  0.7551 -1.7204  1.3055
  169SAPS   O3119112   0.375   2.437   7.025  0.3792 -1.2526  0.4216
  169SAPS   C3119113   0.246   2.423   7.055 -0.5153  0.3333  0.2337
  169SAPS   O3219114   0.203   2.415   7.170  0.1606 -0.2785  0.3458
  169SAPS   C3219115   0.166   2.443   6.923  0.7065  0.0908  0.1604
  169SAPS   H2X19116   0.234   2.398   6.847  1.6856 -0.5833  1.3787
  169SAPS   H2Y19117   0.150   2.552   6.909  0.0765 -0.2548 -2.2340
  169SAPS   C2319118   0.502   2.044   6.817  0.1278  0.0240  0.1263
  169SAPS   H3R19119   0.414   1.998   6.868  0.9085  0.5420  2.0543
  169SAPS   H3S19120   0.540   1.957   6.759 -2.6654  0.1815 -2.1539
  169SAPS   C2419121   0.458   2.158   6.721  0.0796  0.1400 -0.4102
  169SAPS   H4R19122   0.550   2.203   6.680  0.1396 -0.0486 -0.4830
  169SAPS   H4S19123   0.393   2.235   6.769 -1.1533 -2.1328  1.8237
  169SAPS   C2519124   0.362   2.108   6.611 -0.4596  0.3554 -0.4033
  169SAPS   H5R19125   0.259   2.097   6.648 -0.1433  1.8622  1.0506
  169SAPS   C2619126   0.404   2.042   6.503  0.5227  0.2218  0.3012
  169SAPS   H6R19127   0.329   1.993   6.438 -0.3394 -0.4442  1.7307
  169SAPS   C2719128   0.549   2.031   6.455 -0.8745  0.2997  0.3140
  169SAPS   H7R19129   0.625   2.032   6.537  0.9713 -1.9442 -1.2396
  169SAPS   H7S19130   0.563   2.123   6.394 -0.3247  0.5150  0.7509
  169SAPS   C2819131   0.580   1.913   6.369  0.0763  0.6553 -0.2374
  169SAPS   H8R19132   0.654   1.845   6.413  1.0181  0.2124 -2.4020
  169SAPS   C2919133   0.560   1.912   6.234 -0.1203  0.0232  0.0122
  169SAPS   H9R19134   0.590   1.827   6.171  0.7929 -0.3730  0.9651
  169SAPS  C21019135   0.491   2.016   6.148 -0.0166 -0.3760 -0.0012
  169SAPS  H10R19136   0.546   2.108   6.175  0.2476 -0.3580 -0.5983
  169SAPS  H10S19137   0.388   2.047   6.176  0.6671 -0.0673  2.3514
  169SAPS  C21119138   0.500   1.982   6.000  0.2819  1.0780  0.3908
  169SAPS  H11R19139   0.440   1.893   5.977  0.0270  1.2624  0.3417
  169SAPS  C21219140   0.579   2.025   5.898  0.9528  0.0070  0.8006
  169SAPS  H12R19141   0.559   1.991   5.795 -2.2571  2.3721  0.4770
  169SAPS  C21319142   0.691   2.123   5.910  0.3888  0.3802 -0.0399
  169SAPS  H13R19143   0.653   2.215   5.960  0.6940  0.7212 -0.4325
  169SAPS  H13S19144   0.721   2.167   5.812  0.2503  3.1068  1.0314
  169SAPS  C21419145   0.802   2.070   5.990 -0.9014  1.0069  1.0148
  169SAPS  H14R19146   0.780   2.003   6.074  2.1540 -1.1669  0.2568
  169SAPS  C21519147   0.935   2.087   5.966  0.4758  0.1533  0.3237
  169SAPS  H15R19148   1.007   2.045   6.039  0.4458  0.9714  0.8321
  169SAPS  C21619149   0.999   2.173   5.860  0.0745  0.3606  0.5381
  169SAPS  H16R19150   1.073   2.235   5.915  0.8522 -0.5836  0.5760
  169SAPS  H16S19151   0.928   2.247   5.815  0.3912  1.0964  1.2289
  169SAPS  C21719152   1.062   2.100   5.736 -0.2615 -0.2481  0.6174
  169SAPS  H17R19153   1.063   2.166   5.647  0.9852 -0.1859  0.6523
  169SAPS  H17S19154   0.995   2.018   5.704  2.8001 -3.0698  0.8053
  169SAPS  C21819155   1.193   2.034   5.778 -0.2058 -0.5662  0.0554
  169SAPS  H18R19156   1.185   1.944   5.843  2.8151  0.0906  1.5080
  169SAPS  H18S19157   1.249   2.107   5.840 -1.2800 -0.5335  1.0124
  169SAPS  C21919158   1.297   1.993   5.672  0.4016  0.1619  0.7385
  169SAPS  H19R19159   1.372   1.932   5.727  0.5701  1.8305  2.4512
  169SAPS  H19S19160   1.347   2.082   5.628 -0.8899  0.5036 -0.1057
  169SAPS  C22019161   1.232   1.908   5.564  0.4981  0.5087  0.7375
  169SAPS  H20R19162   1.307   1.847   5.509 -0.5426  1.0033 -1.3268
  169SAPS  H20S19163   1.173   1.978   5.501  0.9305 -0.1962 -0.4790
  169SAPS  H20T19164   1.157   1.835   5.602  2.8110 -1.9956  0.7998
  169SAPS   C3319165   0.024   2.378   6.925 -0.5694 -0.6477 -0.0433
  169SAPS   H3X19166  -0.034   2.434   7.001 -0.0591 -0.4206  0.1901
  169SAPS   H3Y19167   0.027   2.272   6.958  1.6891 -0.4179  0.7264
  169SAPS   C3419168  -0.052   2.390   6.794  0.0055 -0.2705  0.9140
  169SAPS   H4X19169  -0.060   2.499   6.771  0.2648 -0.2550  0.9043
  169SAPS   H4Y19170  -0.159   2.360   6.803 -1.3716  3.9480  1.0793
  169SAPS   C3519171   0.017   2.323   6.673  0.2515  0.0868  0.0020
  169SAPS   H5X19172   0.067   2.230   6.707 -1.1820 -0.2759  1.2110
  169SAPS   H5Y19173   0.090   2.401   6.641 -1.5437  1.7597 -0.1516
  169SAPS   C3619174  -0.084   2.291   6.558 -0.0694 -0.0903 -0.0087
  169SAPS   H6X19175  -0.134   2.387   6.529 -0.5659 -0.1773  0.5453
  169SAPS   H6Y19176  -0.169   2.225   6.587 -0.6700  0.0349 -1.4053
  169SAPS   C3719177   0.017   2.252   6.443  0.4064  0.3448  0.1448
  169SAPS   H7X19178   0.070   2.165   6.486  0.1025 -0.5351 -1.1960
  169SAPS   H7Y19179   0.087   2.338   6.437 -2.0622  2.5197  0.3479
  169SAPS   C3819180  -0.047   2.212   6.311 -0.6293 -0.9894 -0.1096
  169SAPS   H8X19181  -0.129   2.279   6.276 -0.9390 -0.1753  2.0304
  169SAPS   H8Y19182  -0.093   2.111   6.315  0.3579 -1.4625 -0.3157
  169SAPS   C3919183   0.064   2.203   6.205  0.5839 -0.2743  0.4470
  169SAPS   H9X19184   0.118   2.112   6.239  0.0193 -0.7308  0.1434
  169SAPS   H9Y19185   0.134   2.289   6.203  0.7242 -0.4048 -0.7115
  169SAPS  C31019186   0.019   2.175   6.057 -0.5114 -0.1571  0.5349
  169SAPS  H10X19187  -0.026   2.270   6.019  0.2804 -0.2356 -0.6342
  169SAPS  H10Y19188  -0.056   2.093   6.064  0.1843 -0.6710  2.3927
  169SAPS  C31119189   0.127   2.130   5.958 -0.1110  0.2469  0.1730
  169SAPS  H11X19190   0.178   2.033   5.977 -1.1771 -0.8428 -2.1047
  169SAPS  H11Y19191   0.205   2.209   5.963 -0.0374  0.1252  1.0171
  169SAPS  C31219192   0.069   2.111   5.817  0.1761  0.1376 -0.2113
  169SAPS  H12X19193   0.040   2.205   5.766 -0.8133  0.9449  1.7362
  169SAPS  H12Y19194  -0.029   2.060   5.828  0.0630  0.1290 -1.1925
  169SAPS  C31319195   0.162   2.036   5.713  0.8859 -0.7532 -0.3923
  169SAPS  H13X19196   0.193   1.940   5.760  2.1551 -0.0842  0.1921
  169SAPS  H13Y19197   0.250   2.104   5.708 -0.6961  1.4762  0.4295
  169SAPS  C31419198   0.095   2.001   5.579  0.0488  0.2713 -0.2987
  169SAPS  H14X19199   0.079   2.087   5.511 -0.7024 -0.5306 -1.1627
  169SAPS  H14Y19200  -0.011   1.972   5.591  0.0167  0.3223 -0.4632
  169SAPS  C31519201   0.180   1.903   5.500  0.4552 -0.3920  0.0748
  169SAPS  H15X19202   0.131   1.803   5.503 -0.6695  0.1853  1.7848
  169SAPS  H15Y19203   0.279   1.899   5.550  1.2643  1.2400 -1.3097
  169SAPS  C31619204   0.204   1.947   5.355 -0.2468  0.4323 -0.1147
  169SAPS  H16X19205   0.127   2.021   5.325 -2.6750 -1.1732  1.7608
  169SAPS  H16Y19206   0.184   1.853   5.300 -1.0813  0.7295 -0.3262
  169SAPS  C31719207   0.347   1.974   5.326  0.0905 -0.0140 -0.2625
  169SAPS  H17X19208   0.398   1.876   5.339 -2.3418 -1.2282  0.8316
  169SAPS  H17Y19209   0.384   2.041   5.406  3.3324  1.5338 -2.8300
  169SAPS  C31819210   0.369   2.053   5.194 -0.5671  0.7291 -0.3889
  169SAPS  H18X19211   0.317   2.151   5.191 -1.9550  0.0467 -4.0094
  169SAPS  H18Y19212   0.310   1.991   5.123  0.7990 -0.4481 -0.5591
  169SAPS  H18Z19213   0.478   2.061   5.174 -0.9276 -0.2053 -3.1334
  170SAPS     N19214   3.025   0.638   7.544 -0.3100  0.3779  0.3716
  170SAPS   HN119215   2.997   0.570   7.469  1.1988 -0.3186  0.4108
  170SAPS   HN219216   2.932   0.649   7.589 -1.6709 -0.7722 -1.9027
  170SAPS   HN319217   3.061   0.723   7.496  0.3810 -0.5552 -0.8425
  170SAPS   C1219218   3.128   0.571   7.638  0.0250 -0.4595  0.0064
  170SAPS  H12A19219   3.167   0.652   7.698 -1.1654  1.1347 -1.2581
  170SAPS   C1319220   3.076   0.465   7.732  0.1619 -0.9750 -0.4197
  170SAPS  O13A19221   2.964   0.414   7.713 -0.3887 -0.4109 -0.1812
  170SAPS  O13B19222   3.153   0.430   7.824  0.5111 -0.9013  0.0808
  170SAPS   C1119223   3.244   0.510   7.554 -0.0996 -0.4558  0.8285
  170SAPS  H11A19224   3.318   0.471   7.627 -0.5792 -1.4644  0.7918
  170SAPS  H11B19225   3.301   0.587   7.498 -1.4608 -0.1094 -0.1514
  170SAPS     P19226   3.294   0.323   7.376  0.6106 -0.0499  0.1788
  170SAPS   O1319227   3.335   0.221   7.473  0.1024  0.1292 -0.1117
  170SAPS   O1419228   3.223   0.283   7.248  0.4102 -0.7829  0.0954
  170SAPS   O1219229   3.201   0.413   7.464  1.0249 -0.0259 -0.7976
  170SAPS   O1119230   3.418   0.421   7.341  0.1011 -0.5794  0.2632
  170SAPS    C119231   3.527   0.350   7.274 -0.1748 -0.8567 -0.4932
  170SAPS    HA19232   3.612   0.357   7.345 -1.7469 -0.1878  1.4252
  170SAPS    HB19233   3.512   0.241   7.262  1.1285 -1.0773 -0.2681
  170SAPS    C219234   3.570   0.419   7.152  0.2220 -0.0767  0.1579
  170SAPS    HS19235   3.571   0.529   7.167 -0.1876  0.0794 -0.8635
  170SAPS   O2119236   3.486   0.373   7.040 -0.7931 -0.1057 -0.2782
  170SAPS   C2119237   3.381   0.449   7.004 -0.0942  0.1454  0.2873
  170SAPS   O2219238   3.357   0.561   7.048  0.1908 -0.2381  0.0666
  170SAPS   C2219239   3.315   0.369   6.887  0.3441  0.6600 -0.7075
  170SAPS   H2R19240   3.321   0.264   6.923  0.0889  0.9200  0.1198
  170SAPS   H2S19241   3.209   0.403   6.891  0.2404  0.4616 -1.5554
  170SAPS    C319242   3.713   0.383   7.111  0.2770 -0.1079  0.1106
  170SAPS    HX19243   3.729   0.274   7.096 -0.2759 -0.0907 -0.6587
  170SAPS    HY19244   3.786   0.406   7.192  0.7788 -0.3029 -0.2816
  170SAPS   O3119245   3.748   0.453   6.985 -0.3165  0.0753  0.3069
  170SAPS   C3119246   3.774   0.580   6.998 -0.1880  0.5109  0.3907
  170SAPS   O3219247   3.782   0.645   7.097 -0.3276 -0.6695  0.3008
  170SAPS   C3219248   3.786   0.637   6.861  0.6594 -0.1014  0.0366
  170SAPS   H2X19249   3.682   0.665   6.832 -0.0213 -1.5993  0.8884
  170SAPS   H2Y19250   3.827   0.566   6.786 -2.2032 -2.5205  0.5695
  170SAPS   C2319251   3.391   0.392   6.756 -0.2508 -0.2735 -0.0289
  170SAPS   H3R19252   3.488   0.340   6.764 -0.2589 -0.6984 -2.0293
  170SAPS   H3S19253   3.402   0.502   6.748  1.5405 -0.5275 -2.2788
  170SAPS   C2419254   3.323   0.342   6.631 -1.1412  0.1309 -0.1794
  170SAPS   H4R19255   3.380   0.369   6.540 -2.8960  0.1845 -1.3027
  170SAPS   H4S19256   3.220   0.384   6.630 -1.4651 -0.5745  1.2809
  170SAPS   C2519257   3.330   0.185   6.639  0.3519  0.2599  0.0396
  170SAPS   H5R19258   3.294   0.146   6.736 -0.3468  0.1654 -0.2555
  170SAPS   C2619259   3.373   0.090   6.552 -0.3316  0.0636  0.2481
  170SAPS   H6R19260   3.389  -0.015   6.578 -2.7202 -0.7063 -1.1100
  170SAPS   C2719261   3.452   0.127   6.423  0.1882 -0.1510  0.0384
  170SAPS   H7R19262   3.561   0.137   6.437 -0.0212  0.2624  1.5940
  170SAPS   H7S19263   3.429   0.227   6.381 -0.1576 -0.5077 -0.6347
  170SAPS   C2819264   3.416   0.030   6.311  0.2432  0.4219  0.3029
  170SAPS   H8R19265   3.459  -0.070   6.322 -2.0431 -1.0494 -2.7194
  170SAPS   C2919266   3.334   0.058   6.202  0.0773  0.7215  0.0681
  170SAPS   H9R19267   3.332  -0.012   6.117 -0.4905  0.3064  0.4224
  170SAPS  C21019268   3.263   0.185   6.171  0.6696 -0.2826  0.2028
  170SAPS  H10R19269   3.322   0.243   6.096 -0.9056 -0.6773 -1.4119
  170SAPS  H10S19270   3.245   0.253   6.257  1.3358 -0.9185  0.8516
  170SAPS  C21119271   3.116   0.162   6.126  0.5639 -0.0904  0.7840
  170SAPS  H11R19272   3.075   0.081   6.188  1.5224 -1.3498 -0.1708
  170SAPS  C21219273   3.055   0.211   6.011  0.8671 -0.3370 -1.0235
  170SAPS  H12R19274   2.953   0.181   5.984  0.4597  0.5888 -0.5464
  170SAPS  C21319275   3.105   0.311   5.909 -0.1560 -0.3004 -0.8296
  170SAPS  H13R19276   3.199   0.360   5.943 -0.3248 -1.7374  2.0291
  170SAPS  H13S19277   3.034   0.395   5.896  0.8553  0.7344  0.1159
  170SAPS  C21419278   3.120   0.252   5.773 -0.2073  0.4590 -0.2956
  170SAPS  H14R19279   3.035   0.194   5.737 -0.9029  0.6142  1.0526
  170SAPS  C21519280   3.230   0.268   5.695  0.2950  0.2057  0.1535
  170SAPS  H15R19281   3.233   0.221   5.596  1.0575  1.9863 -0.7088
  170SAPS  C21619282   3.361   0.330   5.734  0.6740 -0.1598  0.3680
  170SAPS  H16R19283   3.369   0.346   5.843 -2.0930 -1.5972  0.8709
  170SAPS  H16S19284   3.370   0.432   5.689 -0.9921 -0.7123 -1.3762
  170SAPS  C21719285   3.481   0.246   5.711 -0.5119  0.1613  0.2284
  170SAPS  H17R19286   3.477   0.154   5.772  0.4864  1.4387  2.3132
  170SAPS  H17S19287   3.566   0.300   5.758 -0.6400  0.5647  0.0061
  170SAPS  C21819288   3.515   0.217   5.559 -0.4682 -0.5223 -0.3690
  170SAPS  H18R19289   3.535   0.320   5.521  1.4361  0.4717  2.9542
  170SAPS  H18S19290   3.423   0.176   5.512 -0.5174 -0.0068 -0.7339
  170SAPS  C21919291   3.621   0.111   5.528 -0.1503  0.0342 -0.1310
  170SAPS  H19R19292   3.583   0.008   5.545  0.1316  0.1143  1.0908
  170SAPS  H19S19293   3.710   0.119   5.594  0.1346  0.0578 -0.5174
  170SAPS  C22019294   3.665   0.125   5.385  0.4703 -0.1604 -0.2388
  170SAPS  H20R19295   3.761   0.073   5.361  0.4588 -0.9668  1.3132
  170SAPS  H20S19296   3.676   0.234   5.369  2.2140  0.2834  3.1130
  170SAPS  H20T19297   3.583   0.089   5.320 -1.1835  2.0475  0.5414
  170SAPS   C3319298   3.875   0.759   6.872 -0.1810 -0.5362  0.0068
  170SAPS   H3X19299   3.969   0.729   6.922 -1.0724 -0.7778  1.6025
  170SAPS   H3Y19300   3.828   0.835   6.939 -1.4852 -0.8296 -0.5355
  170SAPS   C3419301   3.893   0.830   6.737  0.1748 -0.7909  0.4516
  170SAPS   H4X19302   3.947   0.763   6.667 -0.1015  0.4784 -1.0392
  170SAPS   H4Y19303   3.953   0.921   6.763  1.1104 -1.5254  0.9311
  170SAPS   C3519304   3.759   0.874   6.675  0.6227  0.0684  0.5923
  170SAPS   H5X19305   3.708   0.939   6.750 -2.1295 -1.3380  0.0922
  170SAPS   H5Y19306   3.693   0.788   6.650  1.0608 -0.3736  0.9481
  170SAPS   C3619307   3.768   0.960   6.546  0.1364 -0.0341  0.8194
  170SAPS   H6X19308   3.816   0.891   6.474 -0.1205  0.3648  0.2563
  170SAPS   H6Y19309   3.839   1.042   6.570  0.2042  0.4050 -0.7915
  170SAPS   C3719310   3.641   1.013   6.487  0.0313 -0.4786  0.2945
  170SAPS   H7X19311   3.570   0.940   6.443  1.5109 -0.9299 -1.4637
  170SAPS   H7Y19312   3.669   1.077   6.400 -0.2226  0.9531  1.2344
  170SAPS   C3819313   3.564   1.106   6.580  0.2883  0.0593 -0.3187
  170SAPS   H8X19314   3.638   1.168   6.637 -1.0206  0.2845  1.2053
  170SAPS   H8Y19315   3.501   1.043   6.646  0.2792 -0.1206 -0.4993
  170SAPS   C3919316   3.460   1.191   6.516  0.3057 -0.0990 -1.1332
  170SAPS   H9X19317   3.497   1.226   6.417  1.0589 -0.1650 -0.8769
  170SAPS   H9Y19318   3.437   1.275   6.584  1.3474  1.5728 -2.7719
  170SAPS  C31019319   3.327   1.122   6.488  0.4436  0.5471  0.4910
  170SAPS  H10X19320   3.291   1.085   6.587  0.0443  1.0156  0.5248
  170SAPS  H10Y19321   3.345   1.041   6.415  1.0816  2.1718 -1.2327
  170SAPS  C31119322   3.217   1.211   6.437  0.7618  0.0289  0.4033
  170SAPS  H11X19323   3.262   1.267   6.351  0.5827  0.7744  0.7835
  170SAPS  H11Y19324   3.186   1.299   6.498  2.8226  1.1219 -0.0319
  170SAPS  C31219325   3.090   1.133   6.383 -0.2551  0.5526  0.3136
  170SAPS  H12X19326   2.990   1.179   6.398 -1.7836 -2.0876 -1.0166
  170SAPS  H12Y19327   3.089   1.049   6.455  0.4198  1.0712  0.9411
  170SAPS  C31319328   3.117   1.082   6.240  0.2878  0.3515 -0.2602
  170SAPS  H13X19329   3.036   1.014   6.206 -1.7869  1.4067  2.2096
  170SAPS  H13Y19330   3.212   1.024   6.242  1.1137  1.6714 -0.0912
  170SAPS  C31419331   3.114   1.200   6.138  0.3183 -0.8454  0.6708
  170SAPS  H14X19332   3.200   1.258   6.176 -1.4513  1.2768  1.7045
  170SAPS  H14Y19333   3.021   1.259   6.154  0.3798  1.1453 -4.4830
  170SAPS  C31519334   3.128   1.167   5.989  0.2627 -0.5276  0.2790
  170SAPS  H15X19335   3.048   1.096   5.960 -0.4710  0.5411 -0.4040
  170SAPS  H15Y19336   3.223   1.110   5.976  0.5882  0.2310 -0.8487
  170SAPS  C31619337   3.130   1.296   5.905  0.1188 -0.0638 -0.3048
  170SAPS  H16X19338   3.229   1.345   5.903  0.7930 -1.4161 -1.3494
  170SAPS  H16Y19339   3.052   1.369   5.937  0.3126 -0.2619  0.6332
  170SAPS  C31719340   3.098   1.269   5.757  0.2270  0.5722 -0.5336
  170SAPS  H17X19341   2.999   1.218   5.754 -0.8837  2.4971  1.1313
  170SAPS  H17Y19342   3.172   1.198   5.714 -1.0936 -2.1310  1.3279
  170SAPS  C31819343   3.099   1.393   5.664  0.1835  0.8585 -0.1017
  170SAPS  H18X19344   3.028   1.472   5.698 -1.5091 -0.9692  0.7749
  170SAPS  H18Y19345   3.074   1.354   5.563 -0.1343  0.7106  0.0330
  170SAPS  H18Z19346   3.205   1.426   5.660  1.8733 -3.6637  1.4242
  171SAPS     N19347   2.581   1.051   7.451  0.0833  0.7869  0.2474
  171SAPS   HN119348   2.574   1.120   7.374  1.5321 -1.6548 -2.2704
  171SAPS   HN219349   2.606   0.963   7.401  0.4550  2.0129 -1.8440
  171SAPS   HN319350   2.493   1.031   7.502  1.4455 -2.5832  1.6105
  171SAPS   C1219351   2.666   1.095   7.559  0.0575  0.1883 -0.1682
  171SAPS  H12A19352   2.713   1.188   7.534 -0.0246  0.3359  0.2203
  171SAPS   C1319353   2.587   1.116   7.691 -0.4409 -0.1526  0.1702
  171SAPS  O13A19354   2.469   1.068   7.694 -0.0388 -0.3928 -0.3586
  171SAPS  O13B19355   2.652   1.147   7.791  0.1965 -0.4419 -0.6323
  171SAPS   C1119356   2.771   0.986   7.584 -0.5801 -0.2785  0.3971
  171SAPS  H11A19357   2.720   0.888   7.581 -0.4118 -0.4284  1.8700
  171SAPS  H11B19358   2.815   1.006   7.684 -1.4873  2.7791  0.3010
  171SAPS     P19359   3.030   1.025   7.495  0.3177  0.0088 -0.2133
  171SAPS   O1319360   3.057   1.129   7.598  0.4298  0.3374 -0.5064
  171SAPS   O1419361   3.109   0.898   7.506 -0.5997  0.0425  0.4720
  171SAPS   O1219362   2.878   0.988   7.486 -0.6213  0.3115  0.0826
  171SAPS   O1119363   3.049   1.086   7.359  0.0763 -0.2939 -0.5600
  171SAPS    C119364   2.966   1.191   7.315 -0.5588 -0.7531  0.8604
  171SAPS    HA19365   2.859   1.164   7.300  0.3110 -3.0661 -2.1325
  171SAPS    HB19366   2.972   1.279   7.383  0.1240 -0.9338  1.0447
  171SAPS    C219367   3.008   1.215   7.168  0.1473  0.4168  0.1168
  171SAPS    HS19368   2.938   1.293   7.133 -0.8132  0.5257  2.1375
  171SAPS   O2119369   2.994   1.094   7.098 -0.1348 -0.3177  0.4491
  171SAPS   C2119370   2.948   1.098   6.974  0.5631  0.8832 -0.9397
  171SAPS   O2219371   2.920   1.196   6.911 -0.1355  0.0010  0.4642
  171SAPS   C2219372   2.931   0.961   6.916  0.3884  0.1159 -0.5424
  171SAPS   H2R19373   3.004   0.961   6.832 -0.3033 -0.6002 -1.1661
  171SAPS   H2S19374   2.962   0.887   6.992 -0.1707  2.7152  2.4212
  171SAPS    C319375   3.151   1.271   7.138  0.0763  0.5164 -0.2762
  171SAPS    HX19376   3.229   1.195   7.160  1.8660  2.3888  0.2008
  171SAPS    HY19377   3.163   1.359   7.206  0.6018  0.2019  0.0433
  171SAPS   O3119378   3.167   1.325   7.004  0.3064  0.0211  0.8585
  171SAPS   C3119379   3.114   1.439   6.982 -0.1354  0.3796 -0.4378
  171SAPS   O3219380   3.062   1.512   7.066 -0.5761 -0.5168  0.1225
  171SAPS   C3219381   3.143   1.486   6.835  0.2569  0.4064 -0.1679
  171SAPS   H2X19382   3.062   1.451   6.768 -0.7554  1.6419  0.3688
  171SAPS   H2Y19383   3.240   1.442   6.802  1.8250  2.4118  1.4577
  171SAPS   C2319384   2.781   0.931   6.862  0.7669 -0.8432  0.4405
  171SAPS   H3R19385   2.757   1.012   6.790  0.2102 -1.5099 -0.1371
  171SAPS   H3S19386   2.710   0.930   6.948  0.0994  0.4942 -0.0586
  171SAPS   C2419387   2.770   0.801   6.779 -0.3077 -0.3962 -0.0699
  171SAPS   H4R19388   2.797   0.820   6.673  0.1759  1.4284  0.3305
  171SAPS   H4S19389   2.664   0.770   6.778  0.1462 -2.1413  0.8974
  171SAPS   C2519390   2.861   0.688   6.831 -0.3555 -0.1177 -0.3682
  171SAPS   H5R19391   2.838   0.670   6.937  0.1503  1.2568 -0.0086
  171SAPS   C2619392   2.970   0.623   6.780  0.4235 -0.1977 -0.3070
  171SAPS   H6R19393   3.028   0.557   6.846  0.5970  0.3957  0.1473
  171SAPS   C2719394   3.031   0.658   6.644  0.4621 -0.2089  0.5606
  171SAPS   H7R19395   2.973   0.734   6.587  0.8579 -0.1818  0.1903
  171SAPS   H7S19396   3.037   0.569   6.578  1.1552  1.1919 -1.3506
  171SAPS   C2819397   3.166   0.723   6.651 -0.5110 -0.0055 -0.4734
  171SAPS   H8R19398   3.190   0.774   6.745  2.1920 -0.4552 -0.8325
  171SAPS   C2919399   3.256   0.757   6.556  0.5360  0.3051 -0.5666
  171SAPS   H9R19400   3.356   0.790   6.586  0.5261 -0.7639  0.7562
  171SAPS  C21019401   3.253   0.711   6.411  0.1143  0.0644  0.1680
  171SAPS  H10R19402   3.260   0.798   6.342  0.9848 -0.5664 -0.5653
  171SAPS  H10S19403   3.152   0.673   6.385 -0.0255  1.1736 -1.0111
  171SAPS  C21119404   3.360   0.613   6.373  0.8708  0.6438 -0.7084
  171SAPS  H11R19405   3.420   0.574   6.457 -0.5410  0.7480  0.3774
  171SAPS  C21219406   3.380   0.568   6.246 -0.3861  0.5641  0.1867
  171SAPS  H12R19407   3.444   0.480   6.231  0.7111  1.2438  0.7784
  171SAPS  C21319408   3.319   0.615   6.119  0.2731  0.2897  0.0157
  171SAPS  H13R19409   3.376   0.571   6.035  0.0379 -0.2971  0.1601
  171SAPS  H13S19410   3.338   0.725   6.118 -2.2009  0.7875  0.0005
  171SAPS  C21419411   3.172   0.599   6.103 -0.7050  0.0610 -0.4468
  171SAPS  H14R19412   3.143   0.497   6.134 -0.3936  0.3415  0.8289
  171SAPS  C21519413   3.087   0.682   6.049  0.7414  0.5461  1.0025
  171SAPS  H15R19414   2.980   0.654   6.045  1.1818 -1.2055  0.5097
  171SAPS  C21619415   3.116   0.798   5.969  0.4305 -0.3466 -0.0222
  171SAPS  H16R19416   3.220   0.831   5.987  0.0394  0.7481  0.3087
  171SAPS  H16S19417   3.046   0.877   6.004 -2.2548 -1.7736 -1.7565
  171SAPS  C21719418   3.090   0.774   5.824  0.2095 -0.3071  0.8630
  171SAPS  H17R19419   2.996   0.719   5.803  0.8674 -0.6887 -1.3721
  171SAPS  H17S19420   3.173   0.710   5.787  0.4714  1.4632 -1.8619
  171SAPS  C21819421   3.067   0.900   5.739 -0.1422 -0.2507  0.3007
  171SAPS  H18R19422   3.156   0.964   5.757  0.3607 -1.1583  1.0896
  171SAPS  H18S19423   2.974   0.949   5.777  1.8350  1.3157  3.5070
  171SAPS  C21919424   3.045   0.866   5.589 -0.0272 -0.3150 -0.6081
  171SAPS  H19R19425   3.014   0.956   5.531 -1.0931  0.1725  0.6554
  171SAPS  H19S19426   2.953   0.804   5.591 -1.1707  1.3111 -0.1822
  171SAPS  C22019427   3.161   0.794   5.526 -0.3805 -0.5139 -0.2287
  171SAPS  H20R19428   3.146   0.792   5.416  0.2651 -2.2175 -0.3206
  171SAPS  H20S19429   3.173   0.689   5.561 -0.1339 -0.8420 -1.2565
  171SAPS  H20T19430   3.259   0.842   5.548 -1.3187  2.1667 -1.5288
  171SAPS   C3319431   3.141   1.634   6.806 -0.5521 -0.5561 -0.5382
  171SAPS   H3X19432   3.220   1.670   6.875  0.0024 -0.6324 -1.1191
  171SAPS   H3Y19433   3.045   1.668   6.850  0.1449 -0.5207  1.0270
  171SAPS   C3419434   3.171   1.675   6.661 -0.7221  0.6482 -0.4292
  171SAPS   H4X19435   3.260   1.616   6.630 -0.2990 -0.5770  2.7130
  171SAPS   H4Y19436   3.194   1.783   6.662 -0.7957  0.6715  1.3124
  171SAPS   C3519437   3.053   1.652   6.561 -0.0264  0.0858 -0.2918
  171SAPS   H5X19438   2.966   1.706   6.603 -2.1161 -1.4362 -2.3901
  171SAPS   H5Y19439   3.034   1.544   6.546 -0.9724  0.1496  0.3603
  171SAPS   C3619440   3.087   1.715   6.422  0.3978 -0.2573 -0.7200
  171SAPS   H6X19441   3.176   1.663   6.380 -1.0217 -1.9661 -1.7820
  171SAPS   H6Y19442   3.106   1.825   6.417  0.5199 -0.3188 -1.8240
  171SAPS   C3719443   2.973   1.688   6.323  0.0588  0.8701 -0.3635
  171SAPS   H7X19444   2.887   1.746   6.363  0.5706  1.3020  0.1331
  171SAPS   H7Y19445   2.947   1.580   6.329 -0.2768  0.9387 -0.5911
  171SAPS   C3819446   2.991   1.734   6.182 -0.6034 -0.1383  0.4130
  171SAPS   H8X19447   3.021   1.839   6.164 -3.6729  0.8263  0.3941
  171SAPS   H8Y19448   2.889   1.732   6.138 -0.4586  4.1393 -0.5686
  171SAPS   C3919449   3.088   1.637   6.103 -0.2153  0.1307  0.1106
  171SAPS   H9X19450   3.050   1.535   6.123 -0.1355  0.1915  0.5847
  171SAPS   H9Y19451   3.191   1.662   6.137 -0.0950 -0.1892 -0.0195
  171SAPS  C31019452   3.077   1.656   5.949 -0.3282 -0.7984 -0.0899
  171SAPS  H10X19453   2.978   1.616   5.919 -1.0634  0.9399 -0.0872
  171SAPS  H10Y19454   3.159   1.602   5.897  2.5002  1.2377  1.9575
  171SAPS  C31119455   3.084   1.803   5.905  0.2600 -0.1355  1.1954
  171SAPS  H11X19456   3.173   1.855   5.948 -0.2912  1.6599  0.2926
  171SAPS  H11Y19457   2.998   1.854   5.954 -0.8383 -1.0139  0.2146
  171SAPS  C31219458   3.085   1.835   5.754  0.3717  0.5591  0.2145
  171SAPS  H12X19459   3.141   1.753   5.703 -0.0950  1.1944 -1.4111
  171SAPS  H12Y19460   3.140   1.930   5.737  0.6999 -0.1163 -3.3255
  171SAPS  C31319461   2.949   1.837   5.681 -0.2124 -0.2370 -0.0682
  171SAPS  H13X19462   2.962   1.891   5.585  0.5574  0.7958  0.5994
  171SAPS  H13Y19463   2.891   1.907   5.745  0.8876  0.5370  0.1104
  171SAPS  C31419464   2.880   1.707   5.649  0.6249  0.5929  0.4884
  171SAPS  H14X19465   2.840   1.667   5.744  3.2165 -0.3240  1.2801
  171SAPS  H14Y19466   2.959   1.640   5.608 -2.4181 -1.8961 -1.8294
  171SAPS  C31519467   2.763   1.709   5.544  0.0278 -0.4375  0.2436
  171SAPS  H15X19468   2.792   1.734   5.440 -0.5946  1.3921  0.4550
  171SAPS  H15Y19469   2.698   1.796   5.569 -1.2213 -0.8708 -1.3316
  171SAPS  C31619470   2.673   1.582   5.535 -0.0424 -0.4573 -0.6715
  171SAPS  H16X19471   2.636   1.566   5.638 -0.8335 -0.4380 -0.9425
  171SAPS  H16Y19472   2.741   1.498   5.511 -0.6609 -1.1940  0.1081
  171SAPS  C31719473   2.554   1.594   5.430 -0.1845  0.0016 -0.6602
  171SAPS  H17X19474   2.527   1.492   5.396  2.1141 -1.5770  1.8928
  171SAPS  H17Y19475   2.594   1.646   5.340  1.8645 -3.2710 -1.8062
  171SAPS  C31819476   2.432   1.660   5.492 -0.7810 -0.4021  0.2525
  171SAPS  H18X19477   2.386   1.714   5.407  0.7818  2.9558  1.3949
  171SAPS  H18Y19478   2.471   1.735   5.563 -0.3716  2.0131 -2.3364
  171SAPS  H18Z19479   2.348   1.597   5.530 -0.9959 -0.4728 -0.3241
  172SAPS     N19480   3.697   2.998   7.617  0.5832 -0.1082 -0.2278
  172SAPS   HN119481   3.736   3.094   7.621 -0.9134  0.4865  0.7878
  172SAPS   HN219482   3.734   2.943   7.536  0.8314 -0.9084  0.4219
  172SAPS   HN319483   3.595   3.013   7.603  0.2126  0.1491  2.3024
  172SAPS   C1219484   3.706   2.942   7.756  0.5264 -0.5177 -0.4813
  172SAPS  H12A19485   3.796   2.883   7.768  0.4257 -0.8866 -1.4585
  172SAPS   C1319486   3.714   3.053   7.865  0.8675 -0.0318 -0.2261
  172SAPS  O13A19487   3.722   3.173   7.836 -0.3825 -0.1005 -0.0201
  172SAPS  O13B19488   3.705   3.011   7.986 -0.2924  0.1371  0.1522
  172SAPS   C1119489   3.573   2.860   7.781 -0.3220 -0.2853 -0.0502
  172SAPS  H11A19490   3.489   2.933   7.780  0.7850  1.0150 -0.8491
  172SAPS  H11B19491   3.584   2.829   7.887  0.9018  0.4308  0.0594
  172SAPS     P19492   3.417   2.712   7.624  0.0415  0.2272  0.3969
  172SAPS   O1319493   3.448   2.575   7.580  0.1777 -0.2759  0.0245
  172SAPS   O1419494   3.309   2.732   7.719 -0.0923  0.4269  0.5377
  172SAPS   O1219495   3.551   2.750   7.693 -0.4861 -0.5710  0.1075
  172SAPS   O1119496   3.397   2.804   7.503 -0.6217 -0.4668 -0.2424
  172SAPS    C119497   3.352   2.745   7.377  0.3161 -0.2667  0.3910
  172SAPS    HA19498   3.296   2.649   7.381  0.4280 -0.7077 -3.8813
  172SAPS    HB19499   3.276   2.817   7.339  0.6178  0.9112  1.9258
  172SAPS    C219500   3.467   2.714   7.277 -0.4205  0.3780  0.1356
  172SAPS    HS19501   3.550   2.656   7.324  3.2335  4.4868 -0.5741
  172SAPS   O2119502   3.516   2.841   7.236  0.1170 -0.2729 -0.0959
  172SAPS   C2119503   3.608   2.889   7.312 -0.1137  0.4480  0.1123
  172SAPS   O2219504   3.665   2.834   7.407  0.1845 -0.2511 -0.4013
  172SAPS   C2219505   3.650   3.027   7.256  0.2653 -0.1961  0.3665
  172SAPS   H2R19506   3.605   3.046   7.156  1.2606  2.1754  0.3101
  172SAPS   H2S19507   3.629   3.114   7.322  0.5836  0.7075 -0.6884
  172SAPS    C319508   3.425   2.631   7.154 -0.2456 -0.6570 -0.0652
  172SAPS    HX19509   3.336   2.674   7.104  0.7029  0.8093 -0.5617
  172SAPS    HY19510   3.404   2.530   7.196  1.5342 -1.0895 -0.1318
  172SAPS   O3119511   3.528   2.631   7.050  0.2897  0.7756  0.2749
  172SAPS   C3119512   3.630   2.540   7.074 -0.3129 -0.1362 -0.5443
  172SAPS   O3219513   3.636   2.467   7.173 -0.6734  0.5019  0.3600
  172SAPS   C3219514   3.743   2.559   6.968 -0.1783  0.2966 -0.4135
  172SAPS   H2X19515   3.785   2.661   6.981 -0.6888  0.3645  0.8690
  172SAPS   H2Y19516   3.687   2.562   6.872 -1.5507 -0.2115  0.3517
  172SAPS   C2319517   3.794   3.036   7.213 -0.1979  0.1075  0.2246
  172SAPS   H3R19518   3.865   3.013   7.295 -0.7193 -0.1016  0.6217
  172SAPS   H3S19519   3.815   3.138   7.174  1.0703 -0.1726  0.1316
  172SAPS   C2419520   3.825   2.932   7.100 -0.0299 -0.3010 -0.1526
  172SAPS   H4R19521   3.814   2.833   7.149 -3.0160  1.1372  2.3359
  172SAPS   H4S19522   3.935   2.946   7.086 -0.3180  1.2566 -1.0938
  172SAPS   C2519523   3.744   2.933   6.970  0.2819  0.3256 -0.0419
  172SAPS   H5R19524   3.636   2.919   6.986  0.4126  0.6617  1.2987
  172SAPS   C2619525   3.776   2.974   6.847  0.6234  0.5916 -0.5044
  172SAPS   H6R19526   3.699   2.961   6.770  1.6493 -0.4680 -1.3967
  172SAPS   C2719527   3.917   2.994   6.809 -0.4246  0.3118 -0.3821
  172SAPS   H7R19528   3.953   2.896   6.769 -0.9248 -0.9529  2.0897
  172SAPS   H7S19529   3.987   3.019   6.891 -0.2608  1.3278 -0.8160
  172SAPS   C2819530   3.922   3.113   6.723 -0.6192 -0.6821 -0.1800
  172SAPS   H8R19531   3.933   3.211   6.772  1.2277 -0.9489  0.0048
  172SAPS   C2919532   3.931   3.107   6.589 -0.2297  0.0304  1.0846
  172SAPS   H9R19533   3.929   3.202   6.535 -0.3387 -0.0017  1.0308
  172SAPS  C21019534   3.949   2.983   6.494  0.8187 -0.2228 -0.4525
  172SAPS  H10R19535   3.854   2.970   6.439 -0.9047  0.6571  2.1222
  172SAPS  H10S19536   3.956   2.891   6.556 -2.5570  0.3261  0.9477
  172SAPS  C21119537   4.057   3.002   6.395  0.4863 -0.1532 -0.5364
  172SAPS  H11R19538   4.153   3.006   6.449 -0.9493 -0.1535  2.2240
  172SAPS  C21219539   4.053   3.028   6.263  0.1174  0.1964 -0.7445
  172SAPS  H12R19540   4.144   3.039   6.202  1.4980 -1.0295  1.0050
  172SAPS  C21319541   3.930   3.040   6.185 -0.0603 -0.3740  0.2389
  172SAPS  H13R19542   3.924   3.139   6.136 -1.6329 -0.0682  0.9612
  172SAPS  H13S19543   3.836   3.047   6.244 -0.7109  1.4881 -0.9273
  172SAPS  C21419544   3.903   2.926   6.095 -0.8175 -0.5173  0.4933
  172SAPS  H14R19545   3.901   2.831   6.150 -1.0242  0.1388  1.6391
  172SAPS  C21519546   3.880   2.923   5.962  0.0734 -0.4490 -0.7850
  172SAPS  H15R19547   3.856   2.828   5.913  1.7191 -1.1337 -0.3015
  172SAPS  C21619548   3.849   3.042   5.881  0.7026 -0.0491  0.1356
  172SAPS  H16R19549   3.946   3.094   5.868  0.8331 -0.5799 -1.0675
  172SAPS  H16S19550   3.793   3.119   5.938  0.4202 -0.0654 -0.1161
  172SAPS  C21719551   3.786   3.031   5.743  0.5267 -0.8341 -0.2581
  172SAPS  H17R19552   3.804   3.122   5.681 -0.5152  1.0537  2.0433
  172SAPS  H17S19553   3.676   3.035   5.759  0.7468  1.4181  1.1674
  172SAPS  C21819554   3.837   2.917   5.661  0.6396  0.1764 -0.2935
  172SAPS  H18R19555   3.798   2.820   5.697 -1.4530  1.1442  0.2048
  172SAPS  H18S19556   3.948   2.915   5.672  0.6836  0.6146 -0.6601
  172SAPS  C21919557   3.801   2.932   5.514 -0.3099 -0.4260 -0.3018
  172SAPS  H19R19558   3.835   3.028   5.469 -4.3154  2.0381  1.4688
  172SAPS  H19S19559   3.691   2.924   5.508 -0.3590  0.7670 -1.4812
  172SAPS  C22019560   3.860   2.818   5.430 -0.3437 -0.1069  0.0624
  172SAPS  H20R19561   3.815   2.829   5.329  0.4149  1.1772 -0.1547
  172SAPS  H20S19562   3.834   2.718   5.471 -0.1119 -0.2541 -0.1432
  172SAPS  H20T19563   3.971   2.823   5.427 -0.3252 -0.7157 -0.6590
  172SAPS   C3319564   3.857   2.456   6.978  0.1209  0.1236 -0.3045
  172SAPS   H3X19565   3.828   2.353   6.949  0.0340 -1.8648  5.5113
  172SAPS   H3Y19566   3.888   2.463   7.085 -1.7050  3.2219  0.1573
  172SAPS   C3419567   3.979   2.494   6.890 -0.0232 -0.6134 -0.2929
  172SAPS   H4X19568   4.067   2.427   6.904  1.0136  0.0177 -3.1169
  172SAPS   H4Y19569   4.012   2.597   6.913  1.9375 -0.4304 -3.3724
  172SAPS   C3519570   3.941   2.506   6.745  0.3685 -0.0817  0.0405
  172SAPS   H5X19571   3.862   2.582   6.729  1.8916  1.6904  0.5399
  172SAPS   H5Y19572   3.900   2.409   6.710 -0.1396  0.7671 -1.8372
  172SAPS   C3619573   4.058   2.535   6.655 -0.4946  0.4361 -0.2664
  172SAPS   H6X19574   4.136   2.456   6.664  0.4450  1.3290 -0.4334
  172SAPS   H6Y19575   4.096   2.637   6.677  0.9418 -0.5198  1.9755
  172SAPS   C3719576   4.007   2.544   6.508  0.3742 -0.1230  0.1460
  172SAPS   H7X19577   3.980   2.650   6.493 -0.1434 -0.2381  0.2234
  172SAPS   H7Y19578   3.917   2.479   6.506  0.9610 -0.9760  0.7119
  172SAPS   C3819579   4.098   2.493   6.398 -0.4706  0.4390  0.1102
  172SAPS   H8X19580   4.119   2.388   6.428 -2.3895  0.4696  1.7299
  172SAPS   H8Y19581   4.190   2.556   6.398 -0.1377  0.0937  3.0846
  172SAPS   C3919582   4.027   2.498   6.254  0.1458 -0.5024  0.2864
  172SAPS   H9X19583   4.015   2.607   6.233 -0.2139  0.1162  3.2514
  172SAPS   H9Y19584   3.932   2.440   6.257 -0.9422  1.1378 -0.5848
  172SAPS  C31019585   4.109   2.441   6.141  0.0835  0.0349  0.7405
  172SAPS  H10X19586   4.123   2.330   6.138  0.0425  0.0388 -1.1941
  172SAPS  H10Y19587   4.213   2.479   6.132  0.1889 -0.4599 -0.3889
  172SAPS  C31119588   4.046   2.481   6.008 -0.0765 -0.4771 -0.1606
  172SAPS  H11X19589   4.048   2.592   6.002 -0.1405 -0.5151 -1.1599
  172SAPS  H11Y19590   3.943   2.441   6.000 -0.2321 -0.9469  2.9751
  172SAPS  C31219591   4.121   2.433   5.885  0.4457 -0.3216 -0.1692
  172SAPS  H12X19592   4.118   2.322   5.880  2.6344 -0.4525  0.6603
  172SAPS  H12Y19593   4.224   2.466   5.910 -0.4827  2.3714  0.4976
  172SAPS  C31319594   4.063   2.500   5.759 -0.0420 -0.3837 -0.0495
  172SAPS  H13X19595   4.109   2.599   5.741 -1.0808  0.3319  1.0228
  172SAPS  H13Y19596   3.955   2.524   5.772  0.4983  2.1475  0.2415
  172SAPS  C31419597   4.072   2.413   5.634  1.0132 -0.4835 -0.5276
  172SAPS  H14X19598   3.998   2.447   5.558  0.4405 -0.3877  0.0622
  172SAPS  H14Y19599   4.043   2.309   5.657 -1.2531  0.1333 -0.3429
  172SAPS  C31519600   4.209   2.409   5.571  1.1551 -0.3490 -0.9517
  172SAPS  H15X19601   4.188   2.365   5.471 -0.6940 -1.8097  0.0083
  172SAPS  H15Y19602   4.272   2.332   5.621  0.7170  0.9684  1.8091
  172SAPS  C31619603   4.306   2.531   5.569  0.3402 -0.0503 -0.7332
  172SAPS  H16X19604   4.311   2.568   5.674 -0.6031  1.4787 -1.1843
  172SAPS  H16Y19605   4.402   2.505   5.520  0.9450  0.0921  0.3541
  172SAPS  C31719606   4.244   2.656   5.486 -0.3008  0.3496 -0.0327
  172SAPS  H17X19607   4.150   2.689   5.535 -0.4529  0.2424 -0.2539
  172SAPS  H17Y19608   4.212   2.617   5.387 -1.2628  1.1663 -0.0611
  172SAPS  C31819609   4.330   2.776   5.480 -0.4013 -0.2261 -0.4438
  172SAPS  H18X19610   4.354   2.822   5.578  1.1027 -0.8443 -0.5013
  172SAPS  H18Y19611   4.273   2.855   5.426  0.0017 -0.4207 -1.1711
  172SAPS  H18Z19612   4.428   2.768   5.428  0.1249  0.7531  0.3730
  173SAPS     N19613   0.167   6.555   3.363  0.1219 -0.2932  0.0950
  173SAPS   HN119614   0.139   6.643   3.410 -1.6850 -0.6982 -0.1388
  173SAPS   HN219615   0.168   6.471   3.424 -1.4514 -0.6545 -0.3008
  173SAPS   HN319616   0.268   6.572   3.350  0.0856 -0.6094 -0.6993
  173SAPS   C1219617   0.099   6.532   3.230  0.1750 -0.1625 -0.4931
  173SAPS  H12A19618   0.124   6.614   3.165 -0.3279 -0.4127 -1.0116
  173SAPS   C1319619   0.136   6.396   3.170  0.1225  0.4370 -0.0931
  173SAPS  O13A19620   0.230   6.322   3.215  0.5244  0.0882 -0.3936
  173SAPS  O13B19621   0.074   6.360   3.064 -0.1967 -0.4551 -0.2052
  173SAPS   C1119622  -0.058   6.530   3.258  0.2286  0.0635 -0.0616
  173SAPS  H11A19623  -0.095   6.431   3.292  2.2674 -1.4548 -2.0003
  173SAPS  H11B19624  -0.112   6.543   3.162  0.2254  0.0687 -0.0591
  173SAPS     P19625  -0.210   6.612   3.450  0.2447 -0.1638  0.1413
  173SAPS   O1319626  -0.181   6.697   3.566 -0.4340 -0.0935 -0.3013
  173SAPS   O1419627  -0.349   6.624   3.394 -0.1045 -0.0585  0.3285
  173SAPS   O1219628  -0.096   6.636   3.342  0.3621  0.6215  0.6507
  173SAPS   O1119629  -0.176   6.456   3.494  0.4487 -0.3656  0.8141
  173SAPS    C119630  -0.064   6.408   3.562  0.0557  0.8026  0.3409
  173SAPS    HA19631  -0.007   6.337   3.498  0.9261  1.4611  0.3676
  173SAPS    HB19632   0.004   6.493   3.583  1.0859  0.9657 -2.9914
  173SAPS    C219633  -0.102   6.334   3.686  0.0960 -0.1931 -0.0544
  173SAPS    HS19634  -0.185   6.263   3.664 -0.2272 -0.4950  1.8996
  173SAPS   O2119635  -0.135   6.435   3.787 -0.8286 -1.0029  0.2558
  173SAPS   C2119636  -0.244   6.421   3.864  0.5355  0.5806  0.1669
  173SAPS   O2219637  -0.321   6.327   3.859 -0.0770  0.6510  0.0774
  173SAPS   C2219638  -0.240   6.526   3.966 -0.8452 -0.6000 -0.2224
  173SAPS   H2R19639  -0.141   6.565   3.998 -0.9354 -0.0846 -0.5651
  173SAPS   H2S19640  -0.304   6.612   3.935 -2.8486 -2.6129 -2.0025
  173SAPS    C319641   0.015   6.246   3.738  0.4809 -0.0209 -0.3001
  173SAPS    HX19642   0.106   6.308   3.750  0.1250  0.4636 -0.0211
  173SAPS    HY19643   0.046   6.165   3.669 -1.0325 -1.4219  0.5889
  173SAPS   O3119644  -0.005   6.175   3.867  0.0021  0.5283 -0.0153
  173SAPS   C3119645  -0.099   6.081   3.866  1.0856  0.4841  0.5897
  173SAPS   O3219646  -0.165   6.048   3.766 -0.6033  0.0037  0.0758
  173SAPS   C3219647  -0.114   6.025   4.012 -0.1214  0.0025 -0.0566
  173SAPS   H2X19648  -0.203   6.067   4.063  0.6035  0.2325  1.0585
  173SAPS   H2Y19649  -0.034   6.062   4.080  0.6327 -2.0970  0.2691
  173SAPS   C2319650  -0.284   6.475   4.105 -0.4543  0.8934  0.4548
  173SAPS   H3R19651  -0.204   6.410   4.147 -0.9995  0.0671  0.2458
  173SAPS   H3S19652  -0.379   6.420   4.085 -0.3342  1.5778 -2.3413
  173SAPS   C2419653  -0.309   6.574   4.216  0.0462 -0.7207 -0.5868
  173SAPS   H4R19654  -0.408   6.614   4.185  0.9614  1.6604 -0.6276
  173SAPS   H4S19655  -0.232   6.654   4.216  0.2341 -0.8745  0.8989
  173SAPS   C2519656  -0.329   6.512   4.358  0.4102  0.2752 -0.0563
  173SAPS   H5R19657  -0.402   6.429   4.361  1.3865 -0.8537 -3.4685
  173SAPS   C2619658  -0.255   6.536   4.467 -0.3058  0.5607  0.1739
  173SAPS   H6R19659  -0.276   6.476   4.557  0.6796  1.1948  0.8484
  173SAPS   C2719660  -0.129   6.614   4.474  0.7712 -0.0859  0.4324
  173SAPS   H7R19661  -0.091   6.630   4.371  0.5715 -0.8753  0.2258
  173SAPS   H7S19662  -0.046   6.564   4.530  0.5008 -0.0745  0.8456
  173SAPS   C2819663  -0.152   6.751   4.525  0.5782 -0.2086  0.0172
  173SAPS   H8R19664  -0.218   6.813   4.462 -0.5092 -0.7216  0.6378
  173SAPS   C2919665  -0.115   6.818   4.639  0.2276  0.2767  0.0756
  173SAPS   H9R19666  -0.135   6.926   4.650 -1.2119  0.0322  0.1164
  173SAPS  C21019667  -0.025   6.753   4.738  0.0777 -0.0145 -0.4319
  173SAPS  H10R19668  -0.043   6.643   4.740 -1.9067  0.2612  2.1093
  173SAPS  H10S19669  -0.064   6.768   4.840 -1.0135 -0.1358 -0.8185
  173SAPS  C21119670   0.124   6.797   4.721 -0.3792  0.5202  0.1457
  173SAPS  H11R19671   0.149   6.904   4.717  0.1338  0.5634  2.9582
  173SAPS  C21219672   0.234   6.717   4.707 -0.6599 -0.4752  0.3212
  173SAPS  H12R19673   0.334   6.757   4.685 -0.8030 -0.5712 -0.5234
  173SAPS  C21319674   0.229   6.566   4.714  0.2927  0.2958  0.3181
  173SAPS  H13R19675   0.178   6.528   4.623 -0.1519 -1.0193  1.0900
  173SAPS  H13S19676   0.167   6.536   4.801  0.5343  1.3198  0.8601
  173SAPS  C21419677   0.359   6.492   4.721 -0.2767 -0.3362  0.0316
  173SAPS  H14R19678   0.428   6.510   4.638  0.7922  0.5853  1.0760
  173SAPS  C21519679   0.406   6.405   4.825  0.4502 -0.0486 -0.0142
  173SAPS  H15R19680   0.501   6.349   4.822  0.5663  0.0376  1.3793
  173SAPS  C21619681   0.333   6.361   4.951 -0.1392 -0.5186  0.1401
  173SAPS  H16R19682   0.342   6.251   4.966 -4.0573 -0.8104  1.3644
  173SAPS  H16S19683   0.224   6.377   4.939  0.1013  1.7104  0.6239
  173SAPS  C21719684   0.381   6.433   5.080 -0.5121  1.0138  0.0193
  173SAPS  H17R19685   0.312   6.394   5.158 -1.2857  0.5230 -0.8811
  173SAPS  H17S19686   0.368   6.542   5.062 -0.2695  1.3371  1.6764
  173SAPS  C21819687   0.524   6.383   5.115 -0.2430 -0.2072  0.1154
  173SAPS  H18R19688   0.583   6.474   5.138 -3.5507  2.3278 -0.6467
  173SAPS  H18S19689   0.563   6.323   5.031 -1.1236 -2.0100  0.9405
  173SAPS  C21919690   0.516   6.298   5.235 -0.3149  0.3626 -0.3781
  173SAPS  H19R19691   0.427   6.232   5.221  0.8518 -0.9390 -1.9692
  173SAPS  H19S19692   0.500   6.357   5.328  0.7065 -1.6380  1.1730
  173SAPS  C22019693   0.639   6.213   5.252 -0.1766  0.1064 -0.8392
  173SAPS  H20R19694   0.734   6.263   5.282  1.4279 -1.9520 -2.2129
  173SAPS  H20S19695   0.667   6.174   5.152  2.5500  0.8388 -0.4599
  173SAPS  H20T19696   0.626   6.130   5.325 -1.3889  0.5212 -0.5675
  173SAPS   C3319697  -0.121   5.868   4.024 -0.2696 -0.2102  0.6109
  173SAPS   H3X19698  -0.066   5.825   3.937  1.4127 -1.3307  2.1685
  173SAPS   H3Y19699  -0.224   5.828   4.012 -0.2216 -0.4388  0.9683
  173SAPS   C3419700  -0.064   5.815   4.152 -0.6485 -0.8720  0.2454
  173SAPS   H4X19701   0.041   5.850   4.156 -0.8828 -0.2088  0.6871
  173SAPS   H4Y19702  -0.073   5.704   4.159  0.3381 -0.9982 -0.2560
  173SAPS   C3519703  -0.140   5.886   4.275 -0.2411  1.0548 -0.2026
  173SAPS   H5X19704  -0.248   5.862   4.270 -0.2673 -0.4978  4.0375
  173SAPS   H5Y19705  -0.131   5.995   4.260  2.0931  0.8359 -0.7793
  173SAPS   C3619706  -0.082   5.842   4.413 -0.6356  0.7277 -0.6306
  173SAPS   H6X19707  -0.146   5.892   4.490 -1.1101  0.7235 -1.0158
  173SAPS   H6Y19708   0.015   5.893   4.429 -0.5700  0.6221 -0.6925
  173SAPS   C3719709  -0.080   5.690   4.441  0.1412 -0.3172  0.0932
  173SAPS   H7X19710   0.002   5.640   4.386  0.4125 -0.6155  0.7530
  173SAPS   H7Y19711  -0.178   5.647   4.413  0.3206 -0.9235  0.3854
  173SAPS   C3819712  -0.067   5.674   4.598 -0.1807 -0.3764  0.5051
  173SAPS   H8X19713  -0.150   5.738   4.634 -0.9137 -0.9141 -0.1959
  173SAPS   H8Y19714   0.025   5.715   4.646  0.2543  0.3802 -0.9084
  173SAPS   C3919715  -0.098   5.532   4.649 -0.3284  0.3844 -0.2492
  173SAPS   H9X19716  -0.007   5.469   4.658 -0.3585  0.5069  1.1011
  173SAPS   H9Y19717  -0.165   5.482   4.576 -1.0518  3.1868 -1.6665
  173SAPS  C31019718  -0.167   5.554   4.784 -0.4120 -1.0217 -0.1153
  173SAPS  H10X19719  -0.258   5.615   4.762 -1.4715 -2.2029  0.8818
  173SAPS  H10Y19720  -0.093   5.609   4.846 -1.4517  1.0597 -0.6442
  173SAPS  C31119721  -0.213   5.429   4.850 -0.4933  1.8801  0.3248
  173SAPS  H11X19722  -0.138   5.347   4.850 -3.6820 -1.3175  2.4507
  173SAPS  H11Y19723  -0.292   5.395   4.781  0.9862  1.8595 -1.4590
  173SAPS  C31219724  -0.256   5.442   4.993  0.1885 -1.1301  0.0399
  173SAPS  H12X19725  -0.335   5.519   4.986  0.9777 -0.3267 -0.2474
  173SAPS  H12Y19726  -0.169   5.487   5.045  0.2702  0.8242 -1.6660
  173SAPS  C31319727  -0.309   5.314   5.058 -0.1100  0.4934 -0.2964
  173SAPS  H13X19728  -0.222   5.246   5.046  0.1060  0.7015  0.0606
  173SAPS  H13Y19729  -0.384   5.283   4.983  1.3426  0.7752 -1.9369
  173SAPS  C31419730  -0.351   5.311   5.198  0.2196  0.5077  0.0049
  173SAPS  H14X19731  -0.421   5.226   5.217  0.7189  0.3298  1.1460
  173SAPS  H14Y19732  -0.405   5.402   5.234  1.0284  0.4341  1.4681
  173SAPS  C31519733  -0.229   5.300   5.291 -0.3200  0.7741  0.9252
  173SAPS  H15X19734  -0.144   5.365   5.261  1.0632 -1.6689 -0.8204
  173SAPS  H15Y19735  -0.178   5.206   5.261  1.4677  2.6522 -2.5425
  173SAPS  C31619736  -0.254   5.304   5.440 -0.0557  0.0800  0.2955
  173SAPS  H16X19737  -0.289   5.405   5.470  0.0998  0.6345 -1.2989
  173SAPS  H16Y19738  -0.157   5.283   5.489 -0.5998  0.5789  1.6219
  173SAPS  C31719739  -0.353   5.192   5.478  0.2142 -0.5489 -0.2862
  173SAPS  H17X19740  -0.335   5.103   5.415  1.9954 -0.9864  0.7589
  173SAPS  H17Y19741  -0.458   5.218   5.454  0.4544 -0.1942 -0.9858
  173SAPS  C31819742  -0.338   5.160   5.625 -0.4235 -0.0163 -0.0172
  173SAPS  H18X19743  -0.393   5.067   5.651  2.1774 -2.0026 -1.1716
  173SAPS  H18Y19744  -0.368   5.252   5.681 -0.4012  0.5536 -0.9176
  173SAPS  H18Z19745  -0.231   5.137   5.645  0.5098  1.9531 -2.2816
  174SAPS     N19746   3.572   3.812   3.010  0.0654  0.1121 -0.2378
  174SAPS   HN119747   3.511   3.734   2.981 -2.2952  2.1417 -1.0666
  174SAPS   HN219748   3.671   3.780   3.011 -0.0287 -0.1980  1.3311
  174SAPS   HN319749   3.543   3.830   3.108  1.4263 -0.7047  0.3506
  174SAPS   C1219750   3.545   3.930   2.921 -0.2462  0.3956 -0.2486
  174SAPS  H12A19751   3.618   4.002   2.955  0.5141 -0.5430  0.1240
  174SAPS   C1319752   3.581   3.891   2.770  0.0894  0.3864  1.0489
  174SAPS  O13A19753   3.610   3.773   2.733  0.3587  0.7122  0.4440
  174SAPS  O13B19754   3.599   3.993   2.696 -0.2831  0.0009  0.4809
  174SAPS   C1119755   3.406   4.000   2.932  0.2844  1.0851 -0.2117
  174SAPS  H11A19756   3.323   3.927   2.916  1.1311  0.0704 -0.0772
  174SAPS  H11B19757   3.386   4.075   2.853  0.7801  2.6858  1.1386
  174SAPS     P19758   3.279   4.175   3.077 -0.1479  0.0600  0.0904
  174SAPS   O1319759   3.318   4.281   2.982  0.0144 -0.1363  0.3549
  174SAPS   O1419760   3.143   4.110   3.066 -0.2879  0.1818 -0.0931
  174SAPS   O1219761   3.393   4.060   3.057 -0.1101  0.4207  0.1028
  174SAPS   O1119762   3.309   4.219   3.226 -0.7926 -0.2130 -0.2536
  174SAPS    C119763   3.341   4.113   3.323 -0.3200  0.3898 -0.0078
  174SAPS    HA19764   3.293   4.146   3.418 -1.2506 -2.3993  0.5931
  174SAPS    HB19765   3.303   4.011   3.301 -0.3199  0.0997  1.2291
  174SAPS    C219766   3.491   4.115   3.362 -0.1734  0.5590 -0.3400
  174SAPS    HS19767   3.556   4.090   3.276  1.5462  1.8835  0.4972
  174SAPS   O2119768   3.513   4.007   3.455 -0.5198 -0.5367 -0.4268
  174SAPS   C2119769   3.517   3.886   3.416  0.2601  0.0654  0.1257
  174SAPS   O2219770   3.517   3.842   3.301  0.1455  0.0258  0.0974
  174SAPS   C2219771   3.493   3.802   3.543 -0.3839  0.8049  0.3040
  174SAPS   H2R19772   3.405   3.844   3.596 -1.2810  0.7270 -1.0589
  174SAPS   H2S19773   3.473   3.696   3.518  1.1082  0.7508 -0.7857
  174SAPS    C319774   3.538   4.264   3.402  0.9771 -0.2289 -0.2126
  174SAPS    HX19775   3.487   4.327   3.326 -0.2018 -2.2538 -1.1807
  174SAPS    HY19776   3.647   4.279   3.384  1.2042  0.9892  1.8184
  174SAPS   O3119777   3.513   4.300   3.542 -0.3707 -0.0558  0.1100
  174SAPS   C3119778   3.605   4.252   3.623 -0.4368  0.1677 -0.7048
  174SAPS   O3219779   3.709   4.194   3.598  0.4866 -0.0365  0.2160
  174SAPS   C3219780   3.566   4.280   3.762 -0.2872 -0.5322 -1.5911
  174SAPS   H2X19781   3.467   4.231   3.771 -1.3381  1.5056 -1.6266
  174SAPS   H2Y19782   3.552   4.387   3.787 -0.0583 -0.6294 -1.0185
  174SAPS   C2319783   3.604   3.813   3.645  0.1393  0.2198  0.0613
  174SAPS   H3R19784   3.622   3.921   3.660  0.3101  0.1899  0.0689
  174SAPS   H3S19785   3.694   3.772   3.595 -1.0092 -1.6338 -0.6142
  174SAPS   C2419786   3.566   3.754   3.788 -0.1103 -0.1384 -0.0985
  174SAPS   H4R19787   3.521   3.657   3.760 -0.4932  0.6480 -2.4375
  174SAPS   H4S19788   3.493   3.823   3.837 -0.3234  0.5963 -1.4072
  174SAPS   C2519789   3.695   3.728   3.862 -0.3582 -0.2198 -0.4908
  174SAPS   H5R19790   3.766   3.664   3.808 -1.9626 -2.1969 -0.3485
  174SAPS   C2619791   3.744   3.776   3.975 -0.1703 -0.1395 -0.3036
  174SAPS   H6R19792   3.838   3.739   4.019 -0.9779 -0.0719  1.5892
  174SAPS   C2719793   3.659   3.859   4.066  0.5545 -0.1638  0.2510
  174SAPS   H7R19794   3.594   3.779   4.107 -0.3907 -1.6059 -3.5775
  174SAPS   H7S19795   3.598   3.931   4.007 -0.6778 -1.5777 -0.2678
  174SAPS   C2819796   3.725   3.938   4.180  0.2013  0.0497  0.1310
  174SAPS   H8R19797   3.823   3.978   4.151 -0.1322  0.7981 -0.0111
  174SAPS   C2919798   3.680   3.958   4.310 -0.1207  0.1378  1.0129
  174SAPS   H9R19799   3.759   3.993   4.379  0.8180  0.3987 -0.1704
  174SAPS  C21019800   3.552   3.907   4.373  0.0460 -0.6221 -0.3025
  174SAPS  H10R19801   3.471   3.912   4.297  1.3293 -2.2885 -1.8422
  174SAPS  H10S19802   3.518   3.977   4.453 -0.2037  0.2966 -1.1889
  174SAPS  C21119803   3.564   3.770   4.430  0.8349  0.4744  0.7916
  174SAPS  H11R19804   3.590   3.697   4.352 -0.3999  0.3134  0.5056
  174SAPS  C21219805   3.553   3.727   4.557  0.1226  0.2431  0.2121
  174SAPS  H12R19806   3.561   3.619   4.579 -0.5643  0.1826  0.2013
  174SAPS  C21319807   3.545   3.811   4.682  0.1106 -0.1381  0.0391
  174SAPS  H13R19808   3.596   3.908   4.664 -0.7024  0.5975  1.5238
  174SAPS  H13S19809   3.593   3.762   4.770 -1.1062 -2.6783 -0.6220
  174SAPS  C21419810   3.405   3.843   4.703  0.0890 -0.1229 -0.3315
  174SAPS  H14R19811   3.356   3.891   4.617  1.0043  3.4771  0.9828
  174SAPS  C21519812   3.326   3.817   4.809  0.1862 -0.0472  0.5160
  174SAPS  H15R19813   3.219   3.841   4.806 -0.0073 -0.7614  1.3990
  174SAPS  C21619814   3.368   3.743   4.936  0.0926  0.4257 -0.3104
  174SAPS  H16R19815   3.323   3.797   5.022  0.7492  0.9049 -0.2594
  174SAPS  H16S19816   3.478   3.749   4.951  0.0237 -1.4311  1.4175
  174SAPS  C21719817   3.332   3.588   4.948  0.4716 -0.2579  0.3682
  174SAPS  H17R19818   3.238   3.570   4.891  1.4746 -1.0903 -1.0809
  174SAPS  H17S19819   3.318   3.556   5.053  1.2514  0.1482  0.6038
  174SAPS  C21819820   3.434   3.494   4.887 -0.7674  0.2511  0.0888
  174SAPS  H18R19821   3.535   3.537   4.908 -1.2522  1.1944  0.5608
  174SAPS  H18S19822   3.437   3.498   4.776  0.2557  0.7531  0.1221
  174SAPS  C21919823   3.440   3.347   4.941  0.0135  0.3533  0.0531
  174SAPS  H19R19824   3.494   3.279   4.872 -1.3482  0.1675 -0.8643
  174SAPS  H19S19825   3.339   3.302   4.955  0.4911 -0.0454  2.8121
  174SAPS  C22019826   3.525   3.340   5.076 -0.2322 -0.1053 -0.3538
  174SAPS  H20R19827   3.532   3.232   5.100  0.7833  0.3587  1.7016
  174SAPS  H20S19828   3.454   3.365   5.158 -0.3959 -3.6178  0.7438
  174SAPS  H20T19829   3.627   3.384   5.073  0.8977 -2.4384  1.0841
  174SAPS   C3319830   3.666   4.229   3.876  0.2515 -0.7056 -0.3150
  174SAPS   H3X19831   3.760   4.286   3.859 -0.4342  0.6527  0.2631
  174SAPS   H3Y19832   3.682   4.120   3.860 -2.8780 -1.1020 -1.5144
  174SAPS   C3419833   3.591   4.241   4.005 -0.7319 -0.6889 -0.1871
  174SAPS   H4X19834   3.639   4.169   4.075  3.7817  1.0747 -1.0710
  174SAPS   H4Y19835   3.484   4.215   3.995 -0.3979 -1.1322 -3.4962
  174SAPS   C3519836   3.600   4.385   4.058  0.2095  0.3169 -0.3220
  174SAPS   H5X19837   3.575   4.467   3.987  0.6684  0.3051 -0.5063
  174SAPS   H5Y19838   3.707   4.397   4.086  0.8797 -1.3269 -2.0115
  174SAPS   C3619839   3.512   4.421   4.179 -0.0579 -0.1299  0.5892
  174SAPS   H6X19840   3.408   4.397   4.147  0.5464 -0.5878 -1.1089
  174SAPS   H6Y19841   3.516   4.531   4.192  2.9839  0.1342 -1.5250
  174SAPS   C3719842   3.552   4.355   4.310  0.1788 -0.0114 -0.4479
  174SAPS   H7X19843   3.641   4.409   4.350  0.3464 -0.0544 -0.7595
  174SAPS   H7Y19844   3.587   4.251   4.299  1.7531  0.2008  1.8183
  174SAPS   C3819845   3.439   4.365   4.414  0.2326  1.0804 -0.7709
  174SAPS   H8X19846   3.349   4.309   4.378 -0.1304  0.8783  0.3979
  174SAPS   H8Y19847   3.411   4.468   4.444 -1.1044 -0.7388  5.7718
  174SAPS   C3919848   3.483   4.304   4.549 -0.4403  0.0990  0.9408
  174SAPS   H9X19849   3.582   4.351   4.568 -0.8354  0.7602  1.3972
  174SAPS   H9Y19850   3.508   4.196   4.545  1.3164  0.4884  0.6900
  174SAPS  C31019851   3.366   4.329   4.654 -0.3801 -0.5435  0.7437
  174SAPS  H10X19852   3.286   4.267   4.608  1.5977 -1.4813 -1.7057
  174SAPS  H10Y19853   3.345   4.438   4.653  0.9117 -0.2676 -1.2229
  174SAPS  C31119854   3.384   4.278   4.793 -0.3936  0.1741 -0.5611
  174SAPS  H11X19855   3.451   4.189   4.797  1.1426  1.2938 -0.2515
  174SAPS  H11Y19856   3.286   4.237   4.823  0.0712 -0.8422 -0.3850
  174SAPS  C31219857   3.419   4.403   4.880 -0.1384  0.2274  0.2727
  174SAPS  H12X19858   3.337   4.476   4.888  0.3820  0.6386  2.1999
  174SAPS  H12Y19859   3.504   4.458   4.834 -0.2811  3.1183  3.1510
  174SAPS  C31319860   3.461   4.383   5.025  0.4505 -0.2363 -0.0768
  174SAPS  H13X19861   3.499   4.475   5.073 -0.9024 -0.5860  1.7738
  174SAPS  H13Y19862   3.540   4.306   5.038  0.9556  0.5035  1.3314
  174SAPS  C31419863   3.340   4.326   5.104  0.4026 -0.0860  0.1633
  174SAPS  H14X19864   3.324   4.228   5.054  2.9665 -0.2902 -0.4437
  174SAPS  H14Y19865   3.255   4.396   5.089  0.7387  0.1350 -0.8157
  174SAPS  C31519866   3.356   4.298   5.249 -0.8244  0.2424 -0.1573
  174SAPS  H15X19867   3.279   4.225   5.284  0.0276 -0.6406 -0.0931
  174SAPS  H15Y19868   3.366   4.392   5.308 -2.3818  0.6817 -0.5423
  174SAPS  C31619869   3.483   4.207   5.277 -0.6774  0.6063  0.5114
  174SAPS  H16X19870   3.501   4.199   5.386  1.2086  3.2127  0.4847
  174SAPS  H16Y19871   3.573   4.249   5.227  0.4614 -2.7814 -0.5628
  174SAPS  C31719872   3.467   4.070   5.223 -0.2605  0.6420 -0.5130
  174SAPS  H17X19873   3.470   4.051   5.113 -1.7519 -2.3592 -0.1697
  174SAPS  H17Y19874   3.365   4.030   5.240 -1.6792  2.3189 -3.9971
  174SAPS  C31819875   3.585   3.977   5.270  0.3124 -0.2695 -0.2393
  174SAPS  H18X19876   3.553   3.875   5.238 -2.4894 -0.6975  3.2816
  174SAPS  H18Y19877   3.579   3.983   5.381 -3.4386  1.9064 -0.4177
  174SAPS  H18Z19878   3.685   4.008   5.233 -0.6481  0.0473 -2.7931
  175SAPS     N19879   4.672   1.143   3.191 -0.0769  0.0928  0.1436
  175SAPS   HN119880   4.692   1.053   3.238  0.1016 -0.4825 -0.9956
  175SAPS   HN219881   4.690   1.219   3.259 -0.5534 -0.4646  0.9024
  175SAPS   HN319882   4.571   1.147   3.167 -1.0016 -1.8454  3.2495
  175SAPS   C1219883   4.761   1.153   3.069 -0.4250  0.2013 -0.7187
  175SAPS  H12A19884   4.865   1.157   3.097 -0.5723  1.8632 -0.2799
  175SAPS   C1319885   4.749   1.031   2.969 -0.0727  0.2438 -1.0717
  175SAPS  O13A19886   4.704   0.926   3.021 -0.0971  0.6358  0.1779
  175SAPS  O13B19887   4.831   1.028   2.878 -0.0409 -0.1063  0.6152
  175SAPS   C1119888   4.725   1.282   2.987  1.0837 -0.0959 -1.4657
  175SAPS  H11A19889   4.625   1.274   2.938  0.5947 -1.5108 -0.3111
  175SAPS  H11B19890   4.789   1.284   2.897  0.6787 -1.5963 -1.8177
  175SAPS     P19891   4.608   1.481   3.102  0.3377 -0.1795 -0.0912
  175SAPS   O1319892   4.566   1.557   2.981  0.0135  0.2972  0.0479
  175SAPS   O1419893   4.509   1.386   3.146  0.4847  0.2872  0.2285
  175SAPS   O1219894   4.742   1.401   3.058 -0.2853 -0.7710 -0.4802
  175SAPS   O1119895   4.653   1.577   3.221 -0.0737  0.3236  0.2366
  175SAPS    C119896   4.722   1.703   3.190 -0.2054  0.2458 -0.0064
  175SAPS    HA19897   4.830   1.685   3.170 -0.4144  0.8547 -1.8837
  175SAPS    HB19898   4.698   1.734   3.086 -1.6553 -1.0375 -0.0906
  175SAPS    C219899   4.698   1.819   3.292  0.2112  0.3906  0.7793
  175SAPS    HS19900   4.736   1.908   3.236  1.0014 -1.3635 -1.6433
  175SAPS   O2119901   4.774   1.796   3.411 -0.4141  0.3428 -0.3226
  175SAPS   C2119902   4.849   1.895   3.455 -0.4595 -0.0558 -0.0704
  175SAPS   O2219903   4.866   1.999   3.398  0.7234  0.2457 -0.4609
  175SAPS   C2219904   4.916   1.857   3.591 -0.6430 -0.3383  0.4238
  175SAPS   H2R19905   4.831   1.812   3.647 -1.5726  0.8494 -0.0067
  175SAPS   H2S19906   5.000   1.785   3.575 -2.1192 -2.0444 -0.0512
  175SAPS    C319907   4.549   1.844   3.332 -0.5383 -0.5278 -0.2012
  175SAPS    HX19908   4.502   1.749   3.368  1.4959 -1.8143 -0.7915
  175SAPS    HY19909   4.502   1.891   3.243 -3.2382 -1.0621  0.8233
  175SAPS   O3119910   4.547   1.938   3.440 -1.0599 -0.7687 -0.3312
  175SAPS   C3119911   4.425   1.979   3.480  0.2728 -0.0091  0.1755
  175SAPS   O3219912   4.328   1.917   3.446 -0.0226  0.5461 -0.2870
  175SAPS   C3219913   4.429   2.101   3.572  1.2030 -0.6701  0.6060
  175SAPS   H2X19914   4.402   2.184   3.503 -3.5388 -1.8653  0.6811
  175SAPS   H2Y19915   4.526   2.116   3.625  0.1522 -0.2049  2.4991
  175SAPS   C2319916   4.962   1.982   3.666 -0.5767  0.2683  0.8158
  175SAPS   H3R19917   4.879   2.056   3.666 -0.9710 -0.1666  0.7339
  175SAPS   H3S19918   5.037   2.034   3.604 -2.0615 -1.4763 -2.8060
  175SAPS   C2419919   5.000   1.959   3.816  0.6514 -0.2744  1.0048
  175SAPS   H4R19920   4.919   1.904   3.871  0.2672 -0.2072  0.5094
  175SAPS   H4S19921   4.994   2.064   3.850  0.0810 -0.5376  1.7552
  175SAPS   C2519922   5.139   1.905   3.837 -0.0306  0.0768 -0.6252
  175SAPS   H5R19923   5.192   1.876   3.745 -0.6399  0.8008 -1.2144
  175SAPS   C2619924   5.206   1.907   3.954  0.7218  0.2115 -0.3710
  175SAPS   H6R19925   5.313   1.882   3.947  0.7462  0.7446 -2.4857
  175SAPS   C2719926   5.151   1.974   4.072 -0.0196 -0.0915  0.1412
  175SAPS   H7R19927   5.061   2.036   4.054 -1.1207 -0.8952  2.5571
  175SAPS   H7S19928   5.231   2.047   4.098  3.0114 -2.7775 -0.9996
  175SAPS   C2819929   5.125   1.862   4.178  0.0140  0.0618  0.0149
  175SAPS   H8R19930   5.077   1.772   4.137 -1.1396 -0.1396  1.7489
  175SAPS   C2919931   5.160   1.861   4.308  0.0972 -0.2281  0.4397
  175SAPS   H9R19932   5.133   1.786   4.383 -0.0728  1.4888  2.1661
  175SAPS  C21019933   5.229   1.978   4.367  0.1331  0.0951 -0.3560
  175SAPS  H10R19934   5.274   2.044   4.290 -0.1181  1.0286  0.2767
  175SAPS  H10S19935   5.312   1.946   4.435 -0.2312 -2.0895 -0.8531
  175SAPS  C21119936   5.153   2.078   4.456  0.4968  0.1933 -0.3488
  175SAPS  H11R19937   5.141   2.179   4.414 -1.1531  0.5597  0.8887
  175SAPS  C21219938   5.097   2.057   4.577 -0.1293  0.1162  0.6543
  175SAPS  H12R19939   5.048   2.143   4.625 -0.5137  1.0748 -1.3356
  175SAPS  C21319940   5.085   1.919   4.648 -0.0133  0.1594 -0.1228
  175SAPS  H13R19941   5.066   1.839   4.574  2.6879  0.1115 -0.8567
  175SAPS  H13S19942   5.004   1.927   4.724  0.9334  1.9522  0.7707
  175SAPS  C21419943   5.219   1.892   4.715  0.1600 -0.2861 -0.4426
  175SAPS  H14R19944   5.302   1.871   4.646  1.2467 -2.0044  1.2469
  175SAPS  C21519945   5.239   1.878   4.853  0.6785 -0.7119 -0.0407
  175SAPS  H15R19946   5.338   1.862   4.899 -0.9390 -2.9829  3.0234
  175SAPS  C21619947   5.136   1.905   4.956  0.5836 -0.2737  0.2002
  175SAPS  H16R19948   5.178   1.838   5.035  2.0745  0.0070 -0.3338
  175SAPS  H16S19949   5.040   1.860   4.923  1.1641 -0.5237 -1.1935
  175SAPS  C21719950   5.112   2.049   5.020  0.1730  0.3239 -0.5932
  175SAPS  H17R19951   5.068   2.103   4.934 -2.5373 -1.0861 -0.2113
  175SAPS  H17S19952   5.215   2.076   5.052 -0.3409 -0.9766  2.4850
  175SAPS  C21819953   5.017   2.047   5.148  0.3977 -0.1502 -0.3857
  175SAPS  H18R19954   5.037   2.144   5.197  2.8389 -0.2346 -1.1062
  175SAPS  H18S19955   5.058   1.968   5.216  2.1551 -0.3013 -1.5557
  175SAPS  C21919956   4.871   2.039   5.115  0.3456 -0.5358  0.7986
  175SAPS  H19R19957   4.849   1.944   5.062 -1.5725 -0.3187  1.1096
  175SAPS  H19S19958   4.841   2.121   5.045  0.1736  1.1204  2.7164
  175SAPS  C22019959   4.781   2.045   5.235  0.4283 -0.3938  0.6328
  175SAPS  H20R19960   4.805   1.958   5.299 -0.1777 -0.0941  1.2757
  175SAPS  H20S19961   4.671   2.039   5.216  0.2227  0.6170  1.4086
  175SAPS  H20T19962   4.799   2.132   5.300 -1.6424 -0.0669  0.8501
  175SAPS   C3319963   4.317   2.103   3.673 -0.5619  0.0089  0.4648
  175SAPS   H3X19964   4.334   2.015   3.738  0.5992 -0.5113 -0.5230
  175SAPS   H3Y19965   4.214   2.087   3.633 -1.0217  0.5943  1.3686
  175SAPS   C3419966   4.334   2.216   3.771  0.0970  0.1233 -1.0568
  175SAPS   H4X19967   4.311   2.319   3.736  0.4869  1.0748  1.2731
  175SAPS   H4Y19968   4.439   2.212   3.808 -0.2185 -1.7812 -0.2209
  175SAPS   C3519969   4.237   2.228   3.894 -0.2194  0.8790  0.3303
  175SAPS   H5X19970   4.135   2.255   3.861 -0.0458  1.8444  0.5422
  175SAPS   H5Y19971   4.267   2.313   3.960  2.1309  0.0564  0.4116
  175SAPS   C3619972   4.228   2.102   3.984  0.2734  0.3821  0.8987
  175SAPS   H6X19973   4.334   2.070   3.993  0.3725  1.0005  2.1730
  175SAPS   H6Y19974   4.185   2.030   3.912 -0.4347  1.5715  0.0957
  175SAPS   C3719975   4.154   2.126   4.110 -0.1565  0.2650 -0.5004
  175SAPS   H7X19976   4.046   2.146   4.097 -0.4716 -0.6334  0.5282
  175SAPS   H7Y19977   4.200   2.213   4.161  0.0902 -0.4899  0.6027
  175SAPS   C3819978   4.159   2.009   4.212 -0.0162 -0.1740  0.0147
  175SAPS   H8X19979   4.264   1.974   4.220  0.6351  0.9243 -2.8546
  175SAPS   H8Y19980   4.101   1.920   4.178 -0.1624  0.2477 -0.8421
  175SAPS   C3919981   4.108   2.058   4.344  0.2957 -0.3569 -0.3112
  175SAPS   H9X19982   4.007   2.100   4.323  1.1876  1.6928 -0.7927
  175SAPS   H9Y19983   4.176   2.140   4.377 -0.1531 -0.7389  1.6713
  175SAPS  C31019984   4.101   1.956   4.449 -0.5309 -0.1380 -0.3273
  175SAPS  H10X19985   4.202   1.916   4.475 -0.0781  1.7424  1.0581
  175SAPS  H10Y19986   4.029   1.876   4.423  0.2449 -0.6171 -1.0807
  175SAPS  C31119987   4.043   2.022   4.573  0.4109  0.6706 -0.1069
  175SAPS  H11X19988   3.937   2.049   4.556 -1.1766 -2.5802  3.1311
  175SAPS  H11Y19989   4.103   2.112   4.597  0.8003  0.8150 -1.5128
  175SAPS  C31219990   4.035   1.917   4.687  0.3899  0.5640  0.1962
  175SAPS  H12X19991   4.136   1.883   4.718  1.0943  2.7333  0.4538
  175SAPS  H12Y19992   3.969   1.835   4.651  1.9513 -0.3476 -0.6931
  175SAPS  C31319993   3.965   1.983   4.809 -0.3014 -0.1202 -0.3138
  175SAPS  H13X19994   4.006   2.086   4.815 -0.6699  0.0598 -0.7947
  175SAPS  H13Y19995   4.002   1.934   4.901  1.5768  0.8370 -0.5152
  175SAPS  C31419996   3.815   1.988   4.794 -0.9577 -0.0948 -0.4909
  175SAPS  H14X19997   3.783   1.885   4.770  0.4233 -0.6317 -0.1404
  175SAPS  H14Y19998   3.784   2.056   4.712 -2.3094  1.1066  0.9730
  175SAPS  C31519999   3.738   2.022   4.921 -0.7140 -0.0602 -0.0238
  175SAPS  H15X20000   3.754   2.126   4.954 -2.4353  0.5096 -0.8455
  175SAPS  H15Y20001   3.777   1.957   5.002 -2.9658 -0.8446  0.5136
  175SAPS  C31620002   3.581   2.031   4.894 -0.7704  0.5727  0.0925
  175SAPS  H16X20003   3.561   2.019   4.785  0.4487  1.8608 -0.3113
  175SAPS  H16Y20004   3.548   2.131   4.931  0.6441  1.6729 -1.4531
  175SAPS  C31720005   3.506   1.938   4.985 -0.7640 -0.0449 -0.5602
  175SAPS  H17X20006   3.543   1.963   5.086 -1.5344 -0.5076 -0.1579
  175SAPS  H17Y20007   3.528   1.832   4.959 -1.1377 -0.0266 -0.9728
  175SAPS  C31820008   3.359   1.952   5.000  0.5883 -0.1638  0.7028
  175SAPS  H18X20009   3.313   1.871   5.061  0.2097 -1.0488 -0.7103
  175SAPS  H18Y20010   3.313   1.963   4.900 -2.7112  2.4105  2.2818
  175SAPS  H18Z20011   3.342   2.049   5.050 -0.5011  0.5361 -0.9441
  176SAPS     N20012   4.249   6.933   3.464  0.3562  0.2306 -0.2221
  176SAPS   HN120013   4.173   6.991   3.504 -1.0588 -2.1356  0.8015
  176SAPS   HN220014   4.218   6.834   3.450  0.5635  0.1080  0.1546
  176SAPS   HN320015   4.325   6.930   3.535 -0.2596  1.5758  0.5234
  176SAPS   C1220016   4.313   6.987   3.339 -0.1508  0.0383 -0.1805
  176SAPS  H12A20017   4.402   6.928   3.323  0.6918  1.1556  0.2250
  176SAPS   C1320018   4.235   6.970   3.220  0.2885 -0.1340  0.3145
  176SAPS  O13A20019   4.109   6.964   3.231 -0.3164 -0.1529 -0.1029
  176SAPS  O13B20020   4.282   6.988   3.107 -0.7315 -0.2871  0.0236
  176SAPS   C1120021   4.344   7.140   3.357  0.6334 -0.3966 -0.3279
  176SAPS  H11A20022   4.248   7.195   3.357  0.2958 -0.7368 -3.8007
  176SAPS  H11B20023   4.403   7.171   3.267  1.1860  0.1565  0.2144
  176SAPS     P20024   4.451   7.294   3.527  0.0699 -0.1636  0.5378
  176SAPS   O1320025   4.576   7.287   3.611  0.5938  0.2503  0.0479
  176SAPS   O1420026   4.449   7.393   3.411 -0.6443  0.5108  0.5243
  176SAPS   O1220027   4.423   7.147   3.475 -0.4630 -0.1116 -0.3468
  176SAPS   O1120028   4.323   7.314   3.617  0.0421 -0.9375 -0.1414
  176SAPS    C120029   4.296   7.220   3.727  0.0982 -0.0474  0.2073
  176SAPS    HA20030   4.195   7.180   3.705  0.7838 -3.0300  1.9484
  176SAPS    HB20031   4.361   7.130   3.732 -0.5224 -0.6418 -1.5859
  176SAPS    C220032   4.288   7.290   3.872 -0.1071 -0.4569 -0.0551
  176SAPS    HS20033   4.219   7.234   3.938 -0.6315  1.0191  0.6841
  176SAPS   O2120034   4.242   7.428   3.859  0.3454  0.0164  0.0611
  176SAPS   C2120035   4.113   7.444   3.827 -0.4618 -0.0385 -0.4626
  176SAPS   O2220036   4.032   7.358   3.807  0.0783 -0.3856 -0.3586
  176SAPS   C2220037   4.093   7.591   3.847 -0.3400 -0.0576 -0.3456
  176SAPS   H2R20038   4.190   7.645   3.848  0.2567 -1.0657  1.6557
  176SAPS   H2S20039   4.036   7.623   3.757  0.5045 -0.1220 -0.9126
  176SAPS    C320040   4.422   7.287   3.947 -0.1907  0.4783 -1.0953
  176SAPS    HX20041   4.496   7.344   3.887 -1.9293  0.4859 -3.3453
  176SAPS    HY20042   4.450   7.180   3.947  2.9718  1.1629  0.7596
  176SAPS   O3120043   4.421   7.353   4.080  0.1230 -0.2180  0.3324
  176SAPS   C3120044   4.380   7.275   4.178  0.2236 -0.1276  0.3364
  176SAPS   O3220045   4.328   7.162   4.167 -0.4463 -0.3237  0.5809
  176SAPS   C3220046   4.388   7.362   4.306 -0.4578  0.8236  1.1157
  176SAPS   H2X20047   4.368   7.469   4.284  0.9364  1.2261  1.6615
  176SAPS   H2Y20048   4.494   7.355   4.339  0.3737 -0.6175 -1.6283
  176SAPS   C2320049   3.993   7.621   3.961  0.4804 -0.8080 -0.2818
  176SAPS   H3R20050   3.893   7.584   3.929  0.4008 -1.4181  0.6467
  176SAPS   H3S20051   3.995   7.731   3.980  0.4501 -0.3095 -2.8007
  176SAPS   C2420052   4.020   7.543   4.094 -0.3610  0.7924 -0.2094
  176SAPS   H4R20053   4.128   7.539   4.120 -0.5918 -2.2498  0.7785
  176SAPS   H4S20054   3.995   7.435   4.083  0.4566  0.3170  1.9343
  176SAPS   C2520055   3.931   7.596   4.203  0.1458 -0.6650  0.7946
  176SAPS   H5R20056   3.921   7.706   4.207 -0.1253 -0.6546 -0.0761
  176SAPS   C2620057   3.853   7.527   4.281 -0.4698 -0.1577  0.7098
  176SAPS   H6R20058   3.806   7.576   4.367  0.2924  2.2215 -0.1711
  176SAPS   C2720059   3.843   7.375   4.284 -0.7355  0.1106  0.4357
  176SAPS   H7R20060   3.938   7.325   4.313 -0.2821  0.3133 -0.6391
  176SAPS   H7S20061   3.813   7.349   4.180 -0.3644 -0.2455  0.4142
  176SAPS   C2820062   3.731   7.327   4.366 -0.6573  0.6443  0.6239
  176SAPS   H8R20063   3.641   7.287   4.317  1.3106 -3.1047 -0.3336
  176SAPS   C2920064   3.740   7.317   4.497 -0.3209  0.2121 -0.2794
  176SAPS   H9R20065   3.649   7.274   4.541  0.0339 -0.9334 -0.6093
  176SAPS  C21020066   3.849   7.366   4.586  0.4121  0.4810 -0.2554
  176SAPS  H10R20067   3.921   7.427   4.527 -0.9516  0.3790 -2.1302
  176SAPS  H10S20068   3.912   7.279   4.613  0.1029 -0.3444 -2.0335
  176SAPS  C21120069   3.799   7.415   4.715  0.4354 -0.4038  0.1136
  176SAPS  H11R20070   3.711   7.364   4.755 -0.2129 -0.8166 -1.7193
  176SAPS  C21220071   3.852   7.514   4.786  0.2831 -0.5204 -0.5274
  176SAPS  H12R20072   3.811   7.540   4.884  0.6314 -0.7166 -0.3284
  176SAPS  C21320073   3.959   7.613   4.746 -0.2827 -0.2310  0.0366
  176SAPS  H13R20074   3.939   7.717   4.779 -0.5721  0.2318 -1.5201
  176SAPS  H13S20075   3.944   7.617   4.636  0.3104 -0.7041 -0.0685
  176SAPS  C21420076   4.100   7.568   4.765 -0.9787  0.2241  0.1827
  176SAPS  H14R20077   4.147   7.539   4.670 -0.5589 -2.6252  1.1640
  176SAPS  C21520078   4.161   7.562   4.887  0.7179 -0.0825  0.4313
  176SAPS  H15R20079   4.268   7.539   4.896  1.2380  1.7591 -0.5802
  176SAPS  C21620080   4.101   7.611   5.014 -0.1685 -0.0231 -1.1857
  176SAPS  H16R20081   4.002   7.660   5.002  0.8411  2.5916  0.3861
  176SAPS  H16S20082   4.168   7.684   5.064 -1.7599  0.0793  0.9498
  176SAPS  C21720083   4.075   7.500   5.123 -0.1578 -0.4928 -0.0800
  176SAPS  H17R20084   4.174   7.450   5.133  0.5484  0.3823 -2.1160
  176SAPS  H17S20085   3.994   7.427   5.104 -0.0264 -0.5318 -0.4970
  176SAPS  C21820086   4.054   7.570   5.261 -1.0971 -0.1882  0.3991
  176SAPS  H18R20087   3.961   7.630   5.267 -2.0817 -1.5620 -0.5799
  176SAPS  H18S20088   4.128   7.652   5.272 -0.7445 -0.2076 -1.5722
  176SAPS  C21920089   4.063   7.478   5.388  0.1645 -0.8486  0.2392
  176SAPS  H19R20090   4.163   7.430   5.391 -0.1582 -1.4808  2.1133
  176SAPS  H19S20091   3.986   7.398   5.375 -1.1298  0.4309 -0.2254
  176SAPS  C22020092   4.035   7.549   5.512  0.6959  0.1546 -1.0041
  176SAPS  H20R20093   4.045   7.487   5.604 -1.3271  0.2415 -0.6749
  176SAPS  H20S20094   3.933   7.593   5.517  0.5994 -0.1693  1.6042
  176SAPS  H20T20095   4.097   7.640   5.526  0.2481  0.6191 -1.9367
  176SAPS   C3320096   4.293   7.302   4.412 -0.6498 -0.3348  0.0038
  176SAPS   H3X20097   4.308   7.193   4.428 -2.6997 -1.1444 -2.8013
  176SAPS   H3Y20098   4.190   7.297   4.370 -1.2451  1.6027  1.1131
  176SAPS   C3420099   4.308   7.381   4.545  0.2266  0.4522  0.5513
  176SAPS   H4X20100   4.240   7.349   4.627  0.8820  1.8657  1.6855
  176SAPS   H4Y20101   4.281   7.486   4.522 -1.4225  0.0371  0.4635
  176SAPS   C3520102   4.455   7.384   4.603 -0.0867 -0.0784  0.2709
  176SAPS   H5X20103   4.444   7.446   4.694 -1.2565 -1.5579  1.1914
  176SAPS   H5Y20104   4.511   7.446   4.530 -1.1253 -0.8976 -1.2868
  176SAPS   C3620105   4.519   7.248   4.619 -0.2592  0.4357 -0.6378
  176SAPS   H6X20106   4.545   7.214   4.517 -0.0005  0.2902 -0.5236
  176SAPS   H6Y20107   4.446   7.175   4.661  0.5669 -0.8712 -1.4005
  176SAPS   C3720108   4.643   7.257   4.711 -0.4324  0.2399 -0.1590
  176SAPS   H7X20109   4.688   7.355   4.686  1.6549 -1.4731 -4.0876
  176SAPS   H7Y20110   4.723   7.185   4.686  0.8938  1.4645  0.4526
  176SAPS   C3820111   4.597   7.250   4.858  0.0132 -0.4505 -0.6003
  176SAPS   H8X20112   4.580   7.141   4.877  2.1858 -0.4290  2.1601
  176SAPS   H8Y20113   4.495   7.293   4.872  0.9192  2.1053 -1.3315
  176SAPS   C3920114   4.694   7.292   4.968 -0.1262  0.4036  0.3822
  176SAPS   H9X20115   4.784   7.237   4.932 -0.5526 -1.1474  1.5612
  176SAPS   H9Y20116   4.654   7.248   5.062 -0.3654  0.2163  0.1944
  176SAPS  C31020117   4.722   7.442   4.973 -0.5623  0.0666 -0.3334
  176SAPS  H10X20118   4.628   7.490   5.007 -1.3912 -1.8024  0.1239
  176SAPS  H10Y20119   4.754   7.493   4.879 -0.0901  1.3508  0.5051
  176SAPS  C31120120   4.826   7.465   5.083 -0.7004  0.2662 -0.7713
  176SAPS  H11X20121   4.849   7.574   5.079 -1.8698  0.5328 -0.5279
  176SAPS  H11Y20122   4.919   7.407   5.062 -1.2487 -1.0695  0.3738
  176SAPS  C31220123   4.794   7.409   5.222  0.2109  0.0274  0.5985
  176SAPS  H12X20124   4.885   7.442   5.277 -0.7794  1.6361  1.3172
  176SAPS  H12Y20125   4.791   7.298   5.212 -0.3936  0.2585 -2.6801
  176SAPS  C31320126   4.664   7.470   5.275 -1.0952  0.3218  0.2362
  176SAPS  H13X20127   4.650   7.434   5.379  0.9799  1.0105  0.7800
  176SAPS  H13Y20128   4.570   7.437   5.225 -0.5217 -0.3057 -0.4656
  176SAPS  C31420129   4.648   7.621   5.263  0.7669  0.0721 -0.0037
  176SAPS  H14X20130   4.592   7.645   5.170 -1.0147  0.9344  1.2347
  176SAPS  H14Y20131   4.751   7.658   5.244  1.2561 -0.6893  1.0972
  176SAPS  C31520132   4.582   7.688   5.380  0.1835  0.0310  0.7007
  176SAPS  H15X20133   4.622   7.791   5.383  2.1900 -0.4921 -2.8881
  176SAPS  H15Y20134   4.605   7.636   5.476  1.3122  0.0075  0.4330
  176SAPS  C31620135   4.430   7.705   5.368  0.0528 -0.0393 -0.4447
  176SAPS  H16X20136   4.377   7.607   5.369 -1.7919  0.8289 -3.3005
  176SAPS  H16Y20137   4.399   7.736   5.266  1.5311 -1.2356 -1.2991
  176SAPS  C31720138   4.376   7.797   5.477  0.2659  0.0329  0.7138
  176SAPS  H17X20139   4.446   7.785   5.563 -0.3868  2.0139  1.5707
  176SAPS  H17Y20140   4.277   7.756   5.506 -1.4410  1.3411 -2.6897
  176SAPS  C31820141   4.368   7.945   5.439  0.0997  0.1509  0.1490
  176SAPS  H18X20142   4.300   7.972   5.355 -0.9225 -0.8562  0.6293
  176SAPS  H18Y20143   4.472   7.979   5.421  0.8499 -2.1912 -0.2287
  176SAPS  H18Z20144   4.343   7.996   5.534  2.8960  1.9629  0.0266
  177SAPS     N20145   2.756   5.736   3.836  0.2444 -0.0820 -0.6361
  177SAPS   HN120146   2.836   5.723   3.901 -1.6533 -2.9792  1.3587
  177SAPS   HN220147   2.698   5.818   3.863  1.1375  0.1561  0.6953
  177SAPS   HN320148   2.701   5.651   3.859 -0.8553  0.6242 -0.5884
  177SAPS   C1220149   2.791   5.739   3.696  0.0220  0.8141  0.0526
  177SAPS  H12A20150   2.699   5.701   3.653  1.0226 -3.2908  1.1294
  177SAPS   C1320151   2.800   5.881   3.630 -0.6352  0.2614 -0.1405
  177SAPS  O13A20152   2.786   5.987   3.699  0.5084 -0.3132  0.3707
  177SAPS  O13B20153   2.817   5.884   3.506 -0.0796 -0.1408 -0.0198
  177SAPS   C1120154   2.910   5.644   3.665  0.6661 -0.3808 -0.3460
  177SAPS  H11A20155   3.002   5.701   3.690 -0.1414  0.5158  0.6844
  177SAPS  H11B20156   2.909   5.610   3.559 -1.6202 -1.3650 -0.0800
  177SAPS     P20157   2.986   5.398   3.715 -0.2573  0.5106 -0.3370
  177SAPS   O1320158   2.886   5.309   3.658 -0.0196 -0.5524 -0.4892
  177SAPS   O1420159   3.114   5.426   3.642  0.0454  0.5479 -0.4749
  177SAPS   O1220160   2.913   5.534   3.751  0.1836 -0.4259  0.4608
  177SAPS   O1120161   3.027   5.347   3.864 -0.1520  0.8556  0.4819
  177SAPS    C120162   2.947   5.377   3.975 -0.0390 -0.1632 -0.4256
  177SAPS    HA20163   2.998   5.451   4.039  2.6874 -0.8801 -1.6128
  177SAPS    HB20164   2.853   5.429   3.947  0.9462  0.7290 -2.3256
  177SAPS    C220165   2.913   5.254   4.058  0.1630 -0.0510 -0.3813
  177SAPS    HS20166   3.011   5.214   4.093  3.1188  4.9527 -1.8808
  177SAPS   O2120167   2.843   5.162   3.981  0.2624 -0.0394 -0.2484
  177SAPS   C2120168   2.877   5.031   4.003  0.1530 -0.0293 -0.1178
  177SAPS   O2220169   2.952   4.994   4.093 -0.3823 -0.4801 -0.4432
  177SAPS   C2220170   2.800   4.940   3.905 -0.3032 -0.8998 -0.5698
  177SAPS   H2R20171   2.778   4.995   3.811 -0.1764  3.1996  1.5613
  177SAPS   H2S20172   2.865   4.850   3.899 -0.1822 -0.9191  0.7776
  177SAPS    C320173   2.835   5.287   4.192 -0.3247  0.1410  0.9086
  177SAPS    HX20174   2.737   5.323   4.156  0.0200 -0.5854 -0.8797
  177SAPS    HY20175   2.874   5.380   4.240 -1.1965  0.1263  1.6682
  177SAPS   O3120176   2.828   5.186   4.284  0.1713 -0.6220 -0.0939
  177SAPS   C3120177   2.938   5.169   4.356 -0.0317  0.1470  0.2390
  177SAPS   O3220178   3.035   5.241   4.357  0.2807  0.0845  0.3013
  177SAPS   C3220179   2.922   5.032   4.426  0.3275 -0.3931 -0.1931
  177SAPS   H2X20180   2.901   4.956   4.348 -2.7897  1.6998 -1.6106
  177SAPS   H2Y20181   2.825   5.037   4.481 -0.2631 -0.4207 -1.2120
  177SAPS   C2320182   2.664   4.888   3.960  1.2467  0.0596 -0.3293
  177SAPS   H3R20183   2.639   4.794   3.906  0.1090 -1.3060  2.3573
  177SAPS   H3S20184   2.574   4.951   3.940  1.1324 -0.1667 -0.5359
  177SAPS   C2420185   2.670   4.852   4.107 -0.0644 -0.2559 -0.8512
  177SAPS   H4R20186   2.704   4.942   4.162 -1.2038 -0.3616  0.0705
  177SAPS   H4S20187   2.738   4.768   4.132  1.0272  1.1062  0.9533
  177SAPS   C2520188   2.533   4.818   4.161  0.1396  0.1311 -0.6391
  177SAPS   H5R20189   2.474   4.737   4.116 -1.6548  0.1544  1.4842
  177SAPS   C2620190   2.470   4.882   4.261  1.4130 -0.3589 -0.2264
  177SAPS   H6R20191   2.367   4.855   4.291  1.0161  2.2112  0.9706
  177SAPS   C2720192   2.525   4.995   4.348  0.2904 -0.2045  0.0698
  177SAPS   H7R20193   2.597   5.061   4.296  0.9673  1.3630  2.7922
  177SAPS   H7S20194   2.576   4.940   4.429  0.6135  1.1299  0.8009
  177SAPS   C2820195   2.419   5.085   4.413 -0.8012 -0.0934 -0.1549
  177SAPS   H8R20196   2.343   5.119   4.341 -0.2020  0.6286 -0.4563
  177SAPS   C2920197   2.427   5.135   4.539 -0.2779  1.1339  0.3343
  177SAPS   H9R20198   2.343   5.198   4.570 -0.5106  0.4696  1.1047
  177SAPS  C21020199   2.529   5.105   4.646  0.3260 -0.0433  0.5633
  177SAPS  H10R20200   2.594   5.019   4.618  1.9291  1.1640  0.4305
  177SAPS  H10S20201   2.478   5.080   4.741 -3.5791 -1.0058 -1.5961
  177SAPS  C21120202   2.608   5.231   4.670 -0.0662 -0.8624 -1.0117
  177SAPS  H11R20203   2.641   5.289   4.582 -1.4152  0.5067 -0.6629
  177SAPS  C21220204   2.640   5.293   4.789 -0.2486 -0.0423 -0.3726
  177SAPS  H12R20205   2.700   5.386   4.795 -0.2236 -0.1507  2.6140
  177SAPS  C21320206   2.615   5.248   4.931 -0.5638  0.4212  0.5020
  177SAPS  H13R20207   2.715   5.245   4.978 -0.7125 -3.1895  0.8440
  177SAPS  H13S20208   2.583   5.142   4.943  1.0440  0.0125  1.5057
  177SAPS  C21420209   2.516   5.335   5.011 -0.5595 -0.0440  0.1528
  177SAPS  H14R20210   2.413   5.339   4.972 -1.0548 -2.3520  1.0451
  177SAPS  C21520211   2.551   5.393   5.133  0.2606 -0.5492 -0.1881
  177SAPS  H15R20212   2.478   5.460   5.182  1.7269  1.3691 -0.4909
  177SAPS  C21620213   2.680   5.389   5.216  0.4546  0.1598  0.1392
  177SAPS  H16R20214   2.722   5.480   5.264  1.0745  0.2979 -0.6473
  177SAPS  H16S20215   2.759   5.341   5.154  1.3706 -0.0786  1.4465
  177SAPS  C21720216   2.657   5.290   5.339  0.2614 -0.2074 -0.2526
  177SAPS  H17R20217   2.559   5.306   5.388 -0.8005  0.0531 -2.3162
  177SAPS  H17S20218   2.729   5.316   5.420 -0.5520  0.7311  0.1964
  177SAPS  C21820219   2.667   5.143   5.295 -0.1065  0.8910  0.1225
  177SAPS  H18R20220   2.770   5.111   5.271 -0.7322 -0.9363 -0.3141
  177SAPS  H18S20221   2.613   5.116   5.202 -0.6548 -0.4949  0.8098
  177SAPS  C21920222   2.605   5.044   5.399 -0.1397 -0.2214  0.2320
  177SAPS  H19R20223   2.622   4.937   5.378 -1.2081 -0.7189  1.7026
  177SAPS  H19S20224   2.501   5.069   5.429  1.1966  1.9870  3.6320
  177SAPS  C22020225   2.670   5.053   5.537  0.1934  0.9589  0.4371
  177SAPS  H20R20226   2.763   4.993   5.544 -0.9507 -0.9237  0.0360
  177SAPS  H20S20227   2.612   5.016   5.624 -1.4605 -0.0148 -1.0055
  177SAPS  H20T20228   2.706   5.156   5.560 -0.0641  0.6923  2.1327
  177SAPS   C3320229   3.037   4.986   4.508 -0.3139  0.1632  0.1260
  177SAPS   H3X20230   3.137   5.021   4.474  0.2790 -2.2815 -0.8641
  177SAPS   H3Y20231   3.040   4.875   4.495 -1.6701  0.4171 -3.4493
  177SAPS   C3420232   3.021   5.027   4.655  0.1508  0.4550 -0.6696
  177SAPS   H4X20233   3.086   4.959   4.714 -1.4688  0.2043  0.9131
  177SAPS   H4Y20234   2.915   5.003   4.678  0.8940  0.1997  3.2110
  177SAPS   C3520235   3.049   5.173   4.690 -0.4393  0.8090  0.2861
  177SAPS   H5X20236   2.979   5.242   4.638  1.5659  0.9658 -2.4018
  177SAPS   H5Y20237   3.145   5.193   4.637 -1.9217  1.0500 -2.5296
  177SAPS   C3620238   3.060   5.176   4.842 -0.6622 -0.3964 -0.2317
  177SAPS   H6X20239   3.132   5.098   4.873  1.1664  1.0139 -0.7175
  177SAPS   H6Y20240   2.958   5.149   4.877 -0.7254  0.7074  0.4830
  177SAPS   C3720241   3.106   5.312   4.903 -0.4204 -0.1232 -0.0580
  177SAPS   H7X20242   3.033   5.394   4.887  0.8351  1.0155 -0.1975
  177SAPS   H7Y20243   3.205   5.329   4.854  0.6641 -2.2871  1.2589
  177SAPS   C3820244   3.114   5.313   5.057  0.4841 -0.0522 -0.1816
  177SAPS   H8X20245   3.202   5.254   5.090 -0.2562  0.0656  2.1985
  177SAPS   H8Y20246   3.021   5.266   5.097  0.6460 -0.2713 -0.0630
  177SAPS   C3920247   3.112   5.453   5.118 -0.3064 -0.6335 -0.4464
  177SAPS   H9X20248   3.008   5.492   5.115 -1.5356 -3.3847  1.5531
  177SAPS   H9Y20249   3.175   5.524   5.060  0.8146 -1.7903 -0.6955
  177SAPS  C31020250   3.150   5.458   5.269  0.0183 -0.8381 -0.5405
  177SAPS  H10X20251   3.129   5.564   5.293 -2.8569 -1.3818 -0.2461
  177SAPS  H10Y20252   3.258   5.438   5.287 -0.1025 -1.1751 -0.1604
  177SAPS  C31120253   3.055   5.371   5.350  0.8289 -0.0994 -1.1437
  177SAPS  H11X20254   3.063   5.262   5.330 -1.3193 -0.3240 -1.0146
  177SAPS  H11Y20255   2.950   5.390   5.322  0.4864 -2.4099 -1.6160
  177SAPS  C31220256   3.056   5.394   5.502  1.4212  0.2344  0.8371
  177SAPS  H12X20257   3.160   5.375   5.537  2.1798  1.9083 -0.4199
  177SAPS  H12Y20258   2.994   5.317   5.556 -0.3527  0.0238 -1.3593
  177SAPS  C31320259   3.010   5.536   5.548  0.0950  0.1674 -0.1061
  177SAPS  H13X20260   2.900   5.544   5.544  0.2122  2.1535 -0.0273
  177SAPS  H13Y20261   3.055   5.622   5.494 -2.3070  2.1250  0.8229
  177SAPS  C31420262   3.040   5.554   5.699  0.8043  0.0115  0.2848
  177SAPS  H14X20263   3.146   5.529   5.722  0.1955 -1.1065  2.0211
  177SAPS  H14Y20264   2.981   5.478   5.754  0.7172  0.2099  0.4668
  177SAPS  C31520265   2.999   5.691   5.747 -0.0525 -0.3313  0.3192
  177SAPS  H15X20266   3.071   5.767   5.711  0.0067 -0.8232 -0.6261
  177SAPS  H15Y20267   3.005   5.692   5.858  2.8024 -0.1573  0.2384
  177SAPS  C31620268   2.861   5.725   5.703 -0.2560  0.5248 -0.0437
  177SAPS  H16X20269   2.793   5.639   5.723 -1.4227  1.8151  1.8798
  177SAPS  H16Y20270   2.846   5.727   5.593  1.2727 -1.1107 -0.3254
  177SAPS  C31720271   2.816   5.863   5.756 -0.1796  0.1255  0.4327
  177SAPS  H17X20272   2.888   5.932   5.708  0.9072 -1.3572 -0.1717
  177SAPS  H17Y20273   2.823   5.878   5.866 -1.3385  2.6999  0.2080
  177SAPS  C31820274   2.674   5.886   5.703 -0.3906  0.3683 -0.0099
  177SAPS  H18X20275   2.668   5.870   5.593  1.2704  0.9357 -0.2150
  177SAPS  H18Y20276   2.634   5.987   5.725 -0.8045  0.1100  0.4416
  177SAPS  H18Z20277   2.601   5.813   5.743  0.5074 -0.5811 -0.0663
  178SAPS     N20278   6.234   6.837   3.374  0.6271 -0.1955 -0.0440
  178SAPS   HN120279   6.306   6.814   3.304  0.0991  1.1853 -1.0821
  178SAPS   HN220280   6.280   6.808   3.463  0.2996 -1.2209 -0.1967
  178SAPS   HN320281   6.147   6.780   3.361  2.0486 -2.2274 -1.1968
  178SAPS   C1220282   6.215   6.982   3.378  0.7811  0.1351  0.8509
  178SAPS  H12A20283   6.313   7.026   3.388  1.0305  0.8981 -3.2230
  178SAPS   C1320284   6.171   7.033   3.239 -0.3844 -0.8137 -0.6017
  178SAPS  O13A20285   6.156   6.956   3.140 -0.2257  0.1611  0.2316
  178SAPS  O13B20286   6.182   7.160   3.233  1.0914  0.3782  0.2891
  178SAPS   C1120287   6.112   7.024   3.480  0.5111 -0.3331  0.3539
  178SAPS  H11A20288   6.012   6.992   3.443 -0.1869  0.8425  1.1735
  178SAPS  H11B20289   6.107   7.135   3.481  1.7998 -0.2373 -0.9174
  178SAPS     P20290   6.025   6.921   3.707 -0.0030  0.1079 -0.2758
  178SAPS   O1320291   5.923   7.022   3.709  0.2153  0.2779 -0.1085
  178SAPS   O1420292   5.982   6.783   3.681  0.9504  0.5334  0.3021
  178SAPS   O1220293   6.143   6.971   3.609  0.1402  0.0293 -0.5443
  178SAPS   O1120294   6.095   6.929   3.849  0.7703  0.6439 -0.3814
  178SAPS    C120295   6.151   6.818   3.921  0.1048  0.1351  0.6434
  178SAPS    HA20296   6.084   6.729   3.925  0.8955 -0.4326  1.8880
  178SAPS    HB20297   6.245   6.797   3.867 -0.8844  1.0401 -1.5223
  178SAPS    C220298   6.159   6.855   4.068 -0.2816  0.2735  0.6468
  178SAPS    HS20299   6.238   6.932   4.084  1.5602 -1.5338  0.6176
  178SAPS   O2120300   6.185   6.744   4.149  0.2904  0.0151  0.6052
  178SAPS   C2120301   6.316   6.726   4.159 -0.4828 -0.1426  0.1205
  178SAPS   O2220302   6.409   6.783   4.099 -0.4692 -0.3269 -0.4320
  178SAPS   C2220303   6.341   6.607   4.247 -0.1992 -0.1126 -0.8425
  178SAPS   H2R20304   6.451   6.608   4.264 -0.2183  0.5551 -0.7217
  178SAPS   H2S20305   6.290   6.642   4.339  0.1635  0.4716 -0.8605
  178SAPS    C320306   6.033   6.929   4.131  0.4189  0.1000 -0.1137
  178SAPS    HX20307   5.942   6.908   4.071  1.8656  0.1863 -2.4538
  178SAPS    HY20308   6.026   7.039   4.119 -1.3235 -0.1277 -1.7252
  178SAPS   O3120309   6.004   6.899   4.274  0.0298  0.4731 -0.1834
  178SAPS   C3120310   6.093   6.955   4.366  0.8001  0.7945  0.4085
  178SAPS   O3220311   6.173   7.040   4.340 -0.1867 -0.2582  0.2577
  178SAPS   C3220312   6.070   6.884   4.500  0.0236 -0.0504  0.5252
  178SAPS   H2X20313   6.080   6.774   4.482  1.5616  0.0038  0.8976
  178SAPS   H2Y20314   5.965   6.911   4.522 -1.4685 -1.7260 -3.4894
  178SAPS   C2320315   6.288   6.473   4.187 -0.1599 -0.1770  0.0280
  178SAPS   H3R20316   6.346   6.471   4.092  0.0452  2.4358  0.0449
  178SAPS   H3S20317   6.179   6.475   4.168 -0.4882  1.7342  1.7675
  178SAPS   C2420318   6.333   6.354   4.273 -0.2375 -0.0481  0.3719
  178SAPS   H4R20319   6.435   6.380   4.310 -0.0901 -1.0340  0.6761
  178SAPS   H4S20320   6.332   6.266   4.205 -0.2836  1.9240 -2.3545
  178SAPS   C2520321   6.244   6.332   4.380  0.0647  0.2694 -0.1989
  178SAPS   H5R20322   6.141   6.308   4.351  0.4714 -0.3505 -1.1953
  178SAPS   C2620323   6.269   6.324   4.512  0.0048  0.1551  0.5250
  178SAPS   H6R20324   6.181   6.298   4.573 -0.6821 -2.6735 -1.4605
  178SAPS   C2720325   6.404   6.341   4.577 -0.2753  0.2803 -0.2305
  178SAPS   H7R20326   6.462   6.271   4.513  0.6988 -0.0564  0.9664
  178SAPS   H7S20327   6.408   6.284   4.673 -0.1076  0.0269 -0.3865
  178SAPS   C2820328   6.469   6.475   4.602  0.3042 -0.4036  0.3565
  178SAPS   H8R20329   6.462   6.543   4.516 -3.9649  0.1637  0.9042
  178SAPS   C2920330   6.520   6.524   4.714  0.2643 -0.2360  0.4393
  178SAPS   H9R20331   6.552   6.629   4.719  0.3948 -0.3333  2.3437
  178SAPS  C21020332   6.532   6.449   4.844  0.6175  0.2109 -0.0738
  178SAPS  H10R20333   6.444   6.384   4.866 -1.6720  2.8314 -0.7727
  178SAPS  H10S20334   6.546   6.518   4.930  1.3521 -2.2053  1.8729
  178SAPS  C21120335   6.664   6.379   4.833 -0.0440 -0.2818 -0.2178
  178SAPS  H11R20336   6.662   6.308   4.750 -0.5825 -1.7316  0.9967
  178SAPS  C21220337   6.776   6.379   4.910 -0.5148  0.2294  0.8630
  178SAPS  H12R20338   6.860   6.312   4.886  0.3704  1.2981  0.8872
  178SAPS  C21320339   6.805   6.456   5.033 -0.1447  0.2053 -0.6200
  178SAPS  H13R20340   6.788   6.395   5.124 -0.8343  0.8641 -0.2909
  178SAPS  H13S20341   6.738   6.543   5.053  1.7537  1.5346  0.2565
  178SAPS  C21420342   6.945   6.505   5.035  0.1993 -0.3137  0.1873
  178SAPS  H14R20343   6.967   6.552   4.938 -3.7954 -0.2973 -0.8866
  178SAPS  C21520344   7.046   6.479   5.119 -0.0706 -0.1306 -0.5837
  178SAPS  H15R20345   7.144   6.515   5.083 -1.8299  2.9755 -2.8469
  178SAPS  C21620346   7.036   6.405   5.252  0.1574  0.0099  0.1114
  178SAPS  H16R20347   7.115   6.327   5.245 -2.5374 -2.9368  0.1974
  178SAPS  H16S20348   6.936   6.364   5.278 -0.4911  1.0864 -0.5910
  178SAPS  C21720349   7.071   6.501   5.375 -0.1241  0.6049  1.1337
  178SAPS  H17R20350   7.034   6.437   5.458  2.5630 -0.6813  1.4588
  178SAPS  H17S20351   7.016   6.596   5.361  1.4081  1.1906 -1.7411
  178SAPS  C21820352   7.218   6.527   5.400 -0.1149 -0.3871 -0.7037
  178SAPS  H18R20353   7.265   6.593   5.324 -1.5346  0.8136 -0.5834
  178SAPS  H18S20354   7.262   6.428   5.375  1.9292  0.7548 -1.9151
  178SAPS  C21920355   7.262   6.568   5.537 -0.7413 -0.4974 -0.8323
  178SAPS  H19R20356   7.235   6.488   5.609  2.7837 -0.0731  1.2534
  178SAPS  H19S20357   7.198   6.654   5.566  1.2102  0.1675  1.9360
  178SAPS  C22020358   7.411   6.608   5.558  1.1376 -0.1892 -0.4602
  178SAPS  H20R20359   7.486   6.526   5.560 -1.2671 -2.5453 -1.2005
  178SAPS  H20S20360   7.418   6.664   5.653  1.2570  1.8629 -1.6140
  178SAPS  H20T20361   7.440   6.684   5.482  0.9189  0.4588  0.0932
  178SAPS   C3320362   6.166   6.942   4.603  0.4813 -0.2099  0.0935
  178SAPS   H3X20363   6.167   7.052   4.613  3.0347 -0.1251 -0.6099
  178SAPS   H3Y20364   6.273   6.914   4.605  1.2255  2.4282  1.1211
  178SAPS   C3420365   6.121   6.902   4.748  0.4462  0.0736 -0.1498
  178SAPS   H4X20366   6.011   6.895   4.759  0.1301  0.5386 -2.5593
  178SAPS   H4Y20367   6.175   6.978   4.808 -0.6219 -0.2015  1.2220
  178SAPS   C3520368   6.193   6.768   4.790 -0.4019 -0.1998 -0.0228
  178SAPS   H5X20369   6.251   6.808   4.876 -2.0980 -0.4607  1.3039
  178SAPS   H5Y20370   6.262   6.732   4.711 -2.2307 -2.6912 -0.5988
  178SAPS   C3620371   6.088   6.654   4.822 -0.1158 -0.5025 -0.8465
  178SAPS   H6X20372   6.036   6.621   4.730 -1.4200 -1.1802  0.1075
  178SAPS   H6Y20373   6.025   6.683   4.909  0.0776  1.6700 -1.3699
  178SAPS   C3720374   6.160   6.532   4.883 -0.3919  0.1245  0.5234
  178SAPS   H7X20375   6.229   6.566   4.963  0.1113 -3.1359  1.5959
  178SAPS   H7Y20376   6.228   6.496   4.803 -2.7536  1.1828 -2.1180
  178SAPS   C3820377   6.075   6.416   4.918  0.4394  0.7991 -0.0447
  178SAPS   H8X20378   6.132   6.336   4.868 -0.0273  1.5897 -1.9043
  178SAPS   H8Y20379   5.972   6.414   4.877  0.0192 -4.6469  0.5148
  178SAPS   C3920380   6.085   6.374   5.069 -0.2221  0.0838 -0.2058
  178SAPS   H9X20381   6.190   6.354   5.099  0.0140  2.3169  0.6401
  178SAPS   H9Y20382   6.017   6.287   5.085 -1.0567  0.6575 -0.5396
  178SAPS  C31020383   6.038   6.476   5.164  0.5120 -0.2577 -0.7185
  178SAPS  H10X20384   5.940   6.518   5.133 -0.3078 -1.1005  0.6369
  178SAPS  H10Y20385   6.112   6.559   5.167  0.7976 -0.4930 -1.2018
  178SAPS  C31120386   6.030   6.425   5.311 -0.2313 -0.3269 -0.6129
  178SAPS  H11X20387   6.110   6.357   5.348 -2.4758 -3.1269 -0.6054
  178SAPS  H11Y20388   5.947   6.352   5.307 -2.0568  1.6971 -1.1635
  178SAPS  C31220389   6.004   6.541   5.416  0.5063  0.2113  0.0904
  178SAPS  H12X20390   6.030   6.644   5.385 -1.0667  0.5809 -0.0628
  178SAPS  H12Y20391   6.067   6.511   5.503  0.1678  1.0401  0.6279
  178SAPS  C31320392   5.867   6.534   5.479 -0.4818  0.1344  0.0899
  178SAPS  H13X20393   5.831   6.429   5.471  2.1224 -0.7209 -1.6889
  178SAPS  H13Y20394   5.796   6.585   5.410 -1.4756 -0.1791  0.8630
  178SAPS  C31420395   5.859   6.603   5.613 -0.3497 -0.0812  0.5818
  178SAPS  H14X20396   5.939   6.559   5.676  1.0095  0.8315 -0.4485
  178SAPS  H14Y20397   5.766   6.580   5.669 -0.2376  0.9068  1.2175
  178SAPS  C31520398   5.877   6.752   5.604  0.1993 -0.6790  0.2991
  178SAPS  H15X20399   5.928   6.782   5.510  0.1394 -2.9637 -0.5174
  178SAPS  H15Y20400   5.940   6.784   5.690 -1.1113  2.4961  0.2023
  178SAPS  C31620401   5.751   6.832   5.633 -0.0341  0.4522 -0.0239
  178SAPS  H16X20402   5.697   6.820   5.729 -0.3730  1.2194 -0.1064
  178SAPS  H16Y20403   5.681   6.797   5.554  1.5997 -1.2676 -0.7879
  178SAPS  C31720404   5.769   6.985   5.597  0.3609  0.0234 -0.0363
  178SAPS  H17X20405   5.667   7.029   5.592  0.4606  0.0907 -2.0334
  178SAPS  H17Y20406   5.808   6.992   5.494 -1.4805 -1.8939 -0.9242
  178SAPS  C31820407   5.836   7.069   5.696  0.3514 -0.4101  0.2541
  178SAPS  H18X20408   5.805   7.176   5.690  4.1789  0.9781  1.9415
  178SAPS  H18Y20409   5.942   7.089   5.670 -0.3790  1.8108 -1.3293
  178SAPS  H18Z20410   5.818   7.037   5.801 -1.2615 -1.0102 -0.1814
  179SAPS     N20411   4.432   0.841   2.993  0.2908  0.3104 -0.2471
  179SAPS   HN120412   4.379   0.835   2.904 -0.9244 -1.8412  0.5378
  179SAPS   HN220413   4.379   0.908   3.051 -0.7806  0.5913 -1.5093
  179SAPS   HN320414   4.530   0.874   2.979  0.7271  0.3691  2.3518
  179SAPS   C1220415   4.429   0.705   3.054  0.3219 -0.4071 -0.1810
  179SAPS  H12A20416   4.327   0.670   3.052  0.4983 -1.1197 -3.5929
  179SAPS   C1320417   4.511   0.601   2.977 -0.0551 -0.1907 -0.3754
  179SAPS  O13A20418   4.569   0.639   2.875  0.2041 -0.2372 -0.3571
  179SAPS  O13B20419   4.527   0.486   3.029  0.0356 -0.1206 -0.6729
  179SAPS   C1120420   4.473   0.717   3.205 -0.3358  0.6020  0.3164
  179SAPS  H11A20421   4.567   0.775   3.221  0.8314 -0.9443 -0.6578
  179SAPS  H11B20422   4.508   0.619   3.243 -2.2434  0.7623  2.7116
  179SAPS     P20423   4.362   0.911   3.329  0.1618  0.0723 -0.0216
  179SAPS   O1320424   4.381   0.988   3.202  0.1205 -0.6166 -0.0341
  179SAPS   O1420425   4.241   0.932   3.408  0.4767  0.1833 -0.4748
  179SAPS   O1220426   4.366   0.760   3.285 -0.4779  0.4728 -0.0457
  179SAPS   O1120427   4.494   0.921   3.421 -0.0669 -0.2697  0.1065
  179SAPS    C120428   4.504   0.844   3.541  0.6713  0.3843 -0.5688
  179SAPS    HA20429   4.418   0.774   3.554  1.6669 -0.5651  1.3024
  179SAPS    HB20430   4.573   0.757   3.533 -1.9455 -1.9544  0.5406
  179SAPS    C220431   4.526   0.926   3.674 -1.0419  0.3625  0.9160
  179SAPS    HS20432   4.508   0.858   3.760 -2.5789  1.0311  1.1591
  179SAPS   O2120433   4.434   1.030   3.677 -0.1339 -0.2486 -0.2054
  179SAPS   C2120434   4.315   1.000   3.716 -0.4099  0.1119 -0.1880
  179SAPS   O2220435   4.281   0.892   3.769  0.1641 -0.8097 -0.1043
  179SAPS   C2220436   4.228   1.130   3.687  0.1032 -0.1829  0.3221
  179SAPS   H2R20437   4.285   1.212   3.736  1.5222 -1.5993  1.1090
  179SAPS   H2S20438   4.228   1.146   3.577  1.9064 -1.3585  0.1116
  179SAPS    C320439   4.668   0.977   3.684 -0.3308  0.6048 -0.4624
  179SAPS    HX20440   4.697   1.031   3.592  0.8244  1.3961  0.3410
  179SAPS    HY20441   4.732   0.889   3.704  1.1755  1.1185 -2.6873
  179SAPS   O3120442   4.685   1.066   3.800  0.2118 -0.5221  0.0307
  179SAPS   C3120443   4.759   1.183   3.789  0.4643  0.4925 -0.4276
  179SAPS   O3220444   4.838   1.207   3.697  0.4900  0.0154  0.3082
  179SAPS   C3220445   4.742   1.264   3.922  0.2320  1.0071  0.8594
  179SAPS   H2X20446   4.727   1.190   4.004 -0.5008  0.8829  0.6201
  179SAPS   H2Y20447   4.655   1.330   3.902 -0.1966  0.1141 -0.3172
  179SAPS   C2320448   4.091   1.124   3.744  0.3893 -0.0354 -0.4644
  179SAPS   H3R20449   4.042   1.024   3.751  0.6306 -0.1460 -0.3599
  179SAPS   H3S20450   4.015   1.184   3.689  0.2199  1.9921  1.8520
  179SAPS   C2420451   4.079   1.187   3.892 -0.0510  0.2250 -0.0346
  179SAPS   H4R20452   3.971   1.194   3.917 -0.7297 -0.7330 -2.3555
  179SAPS   H4S20453   4.122   1.288   3.910  0.5999 -0.1190  0.3987
  179SAPS   C2520454   4.149   1.094   3.985  0.2620  0.6307 -0.1350
  179SAPS   H5R20455   4.123   0.988   3.976  0.1594  0.5659  0.7807
  179SAPS   C2620456   4.243   1.121   4.077  0.2751 -0.1974  0.4691
  179SAPS   H6R20457   4.276   1.031   4.132 -0.9352 -1.8269 -1.3495
  179SAPS   C2720458   4.304   1.255   4.106 -0.6873  0.7476  0.1226
  179SAPS   H7R20459   4.231   1.311   4.168 -1.6330 -0.6978  0.3437
  179SAPS   H7S20460   4.306   1.308   4.008 -2.6488  1.1812  0.2729
  179SAPS   C2820461   4.442   1.237   4.162 -0.2547 -0.4422  0.4015
  179SAPS   H8R20462   4.517   1.231   4.081 -0.5849  0.5401  0.0110
  179SAPS   C2920463   4.482   1.225   4.291 -0.1211 -0.2144 -0.2877
  179SAPS   H9R20464   4.587   1.205   4.315 -0.1882 -0.4379 -0.1712
  179SAPS  C21020465   4.388   1.231   4.410 -0.5900 -0.1062  0.5524
  179SAPS  H10R20466   4.342   1.131   4.426  0.5373 -0.8573 -0.7505
  179SAPS  H10S20467   4.310   1.302   4.375  0.8476 -0.0288 -2.8530
  179SAPS  C21120468   4.462   1.288   4.533  0.1725  0.6920  0.2865
  179SAPS  H11R20469   4.564   1.252   4.552 -0.1981  0.8805  3.1796
  179SAPS  C21220470   4.408   1.356   4.635 -0.5392 -0.1861  0.0636
  179SAPS  H12R20471   4.470   1.374   4.724 -0.6463  1.5732 -0.1872
  179SAPS  C21320472   4.268   1.406   4.637 -0.7647  0.2172 -0.0599
  179SAPS  H13R20473   4.191   1.333   4.672 -0.8052  1.4773  2.7943
  179SAPS  H13S20474   4.233   1.440   4.537  1.9718  3.4014 -0.0981
  179SAPS  C21420475   4.255   1.518   4.736 -0.2025 -0.2287 -0.0983
  179SAPS  H14R20476   4.225   1.614   4.689  0.5098  0.2154  0.3435
  179SAPS  C21520477   4.248   1.511   4.879 -0.0035 -0.3400 -0.2591
  179SAPS  H15R20478   4.235   1.605   4.934 -1.0291 -0.9825  0.6282
  179SAPS  C21620479   4.271   1.397   4.972 -0.0435  0.1810  0.0024
  179SAPS  H16R20480   4.316   1.310   4.921  0.2959 -0.2077  0.9467
  179SAPS  H16S20481   4.178   1.361   5.021 -0.3819 -1.1062 -1.5143
  179SAPS  C21720482   4.378   1.431   5.074  0.5723 -0.4424 -0.0545
  179SAPS  H17R20483   4.475   1.449   5.024 -0.6239  2.6081 -1.5114
  179SAPS  H17S20484   4.386   1.335   5.130 -2.4527 -0.1087  1.1622
  179SAPS  C21820485   4.345   1.534   5.186 -0.2090 -0.4955 -0.7305
  179SAPS  H18R20486   4.245   1.516   5.231  0.3056 -1.5431  0.0271
  179SAPS  H18S20487   4.341   1.628   5.128 -1.4091 -0.7249 -1.0682
  179SAPS  C21920488   4.459   1.543   5.288 -0.3890  0.0546 -0.2133
  179SAPS  H19R20489   4.489   1.645   5.321  1.7356 -0.8479  0.8543
  179SAPS  H19S20490   4.546   1.510   5.229  2.4937  3.0471  2.0320
  179SAPS  C22020491   4.438   1.448   5.410 -0.3962  0.2047 -0.1119
  179SAPS  H20R20492   4.414   1.347   5.371 -0.5549  0.5265 -0.8619
  179SAPS  H20S20493   4.363   1.486   5.483 -0.8591  2.4737 -1.6754
  179SAPS  H20T20494   4.532   1.453   5.468 -0.9164  0.2103  0.7441
  179SAPS   C3320495   4.873   1.345   3.945 -0.3848 -0.3195 -0.0614
  179SAPS   H3X20496   4.863   1.436   4.007 -0.8864 -0.5676  0.2293
  179SAPS   H3Y20497   4.917   1.377   3.848 -0.1516 -1.9656 -0.5397
  179SAPS   C3420498   4.970   1.256   4.012  0.1291  0.2202  0.3652
  179SAPS   H4X20499   5.066   1.311   4.000  0.4721 -0.7129 -1.5380
  179SAPS   H4Y20500   4.983   1.156   3.965  1.9305  0.1840  0.8813
  179SAPS   C3520501   4.952   1.238   4.162  0.4463 -0.1685  0.5114
  179SAPS   H5X20502   5.031   1.163   4.186  0.0137 -1.6957 -2.4286
  179SAPS   H5Y20503   4.852   1.195   4.185 -0.7732  0.1663 -3.4413
  179SAPS   C3620504   4.966   1.371   4.236 -0.2893 -0.1929 -0.0657
  179SAPS   H6X20505   4.956   1.339   4.342 -0.0622  0.8493  0.2798
  179SAPS   H6Y20506   4.891   1.452   4.225  0.1500  0.2324  0.0780
  179SAPS   C3720507   5.100   1.441   4.235  0.2745  0.9564  0.1132
  179SAPS   H7X20508   5.108   1.511   4.149  0.5148 -1.4437 -1.9677
  179SAPS   H7Y20509   5.176   1.360   4.228 -0.7416 -0.4048  3.1776
  179SAPS   C3820510   5.133   1.518   4.367  0.0368 -0.2781  0.0467
  179SAPS   H8X20511   5.046   1.587   4.380  0.0006  0.0000 -1.4529
  179SAPS   H8Y20512   5.224   1.578   4.346  1.2084 -2.2450 -0.6988
  179SAPS   C3920513   5.171   1.435   4.493 -0.6179  0.4518 -0.6475
  179SAPS   H9X20514   5.244   1.352   4.476 -1.3874 -0.9305  2.1227
  179SAPS   H9Y20515   5.087   1.368   4.524  1.1596 -1.6654 -0.1423
  179SAPS  C31020516   5.225   1.527   4.610  0.2980 -0.1453  0.5235
  179SAPS  H10X20517   5.146   1.605   4.621  0.6023  0.0791  1.2037
  179SAPS  H10Y20518   5.314   1.588   4.582  0.2137 -0.3219 -0.1316
  179SAPS  C31120519   5.235   1.449   4.740  0.4695 -0.7415  0.8931
  179SAPS  H11X20520   5.329   1.394   4.719  0.1146 -0.7923 -0.7159
  179SAPS  H11Y20521   5.144   1.387   4.755  0.1074 -0.2895  0.6085
  179SAPS  C31220522   5.261   1.535   4.867  0.0806  0.2102  0.6944
  179SAPS  H12X20523   5.175   1.598   4.898  1.2840  0.4909  3.7570
  179SAPS  H12Y20524   5.343   1.607   4.843 -1.3618  0.8617 -3.0756
  179SAPS  C31320525   5.305   1.450   4.987 -0.2039 -0.3035  0.2535
  179SAPS  H13X20526   5.399   1.396   4.961  0.6227  1.4529 -0.5934
  179SAPS  H13Y20527   5.229   1.370   4.995 -1.6228  0.9763  0.1263
  179SAPS  C31420528   5.335   1.529   5.113 -0.0679 -0.3204  0.4198
  179SAPS  H14X20529   5.247   1.595   5.128  0.3679  0.4547 -0.3526
  179SAPS  H14Y20530   5.428   1.584   5.088  0.6530 -1.4543  0.5267
  179SAPS  C31520531   5.371   1.429   5.223 -0.3254 -0.0652 -0.0289
  179SAPS  H15X20532   5.473   1.393   5.195  0.1025  0.7728  0.4314
  179SAPS  H15Y20533   5.295   1.350   5.207  1.1860 -1.6371  0.2521
  179SAPS  C31620534   5.378   1.473   5.368 -0.1915  0.2850  0.1357
  179SAPS  H16X20535   5.447   1.559   5.367 -0.3817  0.4344 -0.2139
  179SAPS  H16Y20536   5.436   1.392   5.418  3.1561 -0.2480 -4.0811
  179SAPS  C31720537   5.250   1.508   5.438  0.1620  0.8109 -0.2137
  179SAPS  H17X20538   5.184   1.558   5.364 -0.0776 -0.0452 -0.5986
  179SAPS  H17Y20539   5.267   1.574   5.525 -0.2307 -0.8324  1.1519
  179SAPS  C31820540   5.170   1.389   5.502  1.1073 -0.4156 -0.2456
  179SAPS  H18X20541   5.221   1.322   5.576 -0.0031 -0.0341  0.8968
  179SAPS  H18Y20542   5.135   1.322   5.421 -0.8498  0.7707 -0.4364
  179SAPS  H18Z20543   5.075   1.428   5.545 -0.2793 -0.6574 -2.8784
  180SAPS     N20544   2.847   1.681   3.024  0.2200 -0.5517  0.4864
  180SAPS   HN120545   2.751   1.651   2.997  1.0377 -0.7609 -2.5475
  180SAPS   HN220546   2.929   1.634   2.980  1.1968  1.8593 -0.4229
  180SAPS   HN320547   2.849   1.667   3.127 -1.0134  0.9877  0.7593
  180SAPS   C1220548   2.859   1.832   3.009 -0.3236  0.2927 -0.2228
  180SAPS  H12A20549   2.965   1.849   3.018 -0.2168  0.0842 -0.9713
  180SAPS   C1320550   2.806   1.896   2.883 -0.3573  0.4241  0.8412
  180SAPS  O13A20551   2.739   1.832   2.796  0.6248 -0.5552  0.1572
  180SAPS  O13B20552   2.827   2.019   2.857 -0.3013  0.2969  0.0326
  180SAPS   C1120553   2.796   1.898   3.135  0.2204  0.8422 -0.6491
  180SAPS  H11A20554   2.689   1.889   3.107  0.6826  0.1395 -2.2922
  180SAPS  H11B20555   2.829   2.005   3.141 -1.1551  1.3129 -1.1128
  180SAPS     P20556   2.745   1.873   3.380  0.0444  0.3448  0.2601
  180SAPS   O1320557   2.710   2.013   3.375  0.3470 -0.6264  0.2297
  180SAPS   O1420558   2.635   1.780   3.387  0.3549 -0.1691  0.3638
  180SAPS   O1220559   2.832   1.829   3.251 -0.1827 -0.0506  0.0987
  180SAPS   O1120560   2.844   1.848   3.494  0.0670  0.1702 -0.1425
  180SAPS    C120561   2.878   1.719   3.545 -0.2939  0.2507  0.2522
  180SAPS    HA20562   2.805   1.640   3.520  2.7720 -3.1880  1.3124
  180SAPS    HB20563   2.975   1.688   3.500  0.0353  1.9099 -0.2533
  180SAPS    C220564   2.893   1.715   3.699 -0.5238  0.1368  0.7487
  180SAPS    HS20565   2.980   1.652   3.727 -0.5097  0.3106  1.0888
  180SAPS   O2120566   2.785   1.655   3.767 -0.1330 -0.0105  0.8534
  180SAPS   C2120567   2.783   1.526   3.774 -0.1799 -0.2181 -0.4630
  180SAPS   O2220568   2.862   1.443   3.732  0.0202  0.1485  0.0407
  180SAPS   C2220569   2.654   1.491   3.841 -0.1194 -0.1901 -0.3049
  180SAPS   H2R20570   2.619   1.583   3.893  0.2272 -0.6880  0.8489
  180SAPS   H2S20571   2.585   1.474   3.756 -0.3693  0.7356 -0.2958
  180SAPS    C320572   2.895   1.860   3.748  0.0132 -0.6108 -0.4132
  180SAPS    HX20573   2.812   1.924   3.712  1.1636  0.1725 -1.7736
  180SAPS    HY20574   2.984   1.906   3.698 -0.4446 -1.9937 -2.6309
  180SAPS   O3120575   2.926   1.867   3.893 -0.6676  0.3432  0.3366
  180SAPS   C3120576   2.811   1.863   3.966 -0.5017 -0.1720  0.7884
  180SAPS   O3220577   2.702   1.875   3.919  0.1251 -0.0826 -0.1419
  180SAPS   C3220578   2.845   1.825   4.111  0.3296  0.3243 -0.6411
  180SAPS   H2X20579   2.923   1.894   4.149 -1.0922  1.3954  0.4766
  180SAPS   H2Y20580   2.882   1.721   4.116  1.8269  0.7540 -2.0526
  180SAPS   C2320581   2.672   1.373   3.942  0.0219 -0.2059 -0.2610
  180SAPS   H3R20582   2.772   1.385   3.990 -0.1700 -1.7903  0.6073
  180SAPS   H3S20583   2.667   1.272   3.898 -0.8077 -0.3986  0.2585
  180SAPS   C2420584   2.578   1.387   4.057 -0.3228 -0.0007  0.1360
  180SAPS   H4R20585   2.476   1.377   4.016 -1.0772  1.9929  1.4267
  180SAPS   H4S20586   2.587   1.484   4.110 -1.2818  0.3870 -0.3978
  180SAPS   C2520587   2.588   1.272   4.162 -0.2191  0.0900 -0.0662
  180SAPS   H5R20588   2.630   1.182   4.115  0.5241 -1.1193  2.7398
  180SAPS   C2620589   2.536   1.263   4.288 -0.1939 -1.0839  0.0988
  180SAPS   H6R20590   2.566   1.169   4.336  0.8472 -0.4804  0.6586
  180SAPS   C2720591   2.469   1.363   4.373 -0.5245  0.5279  0.6940
  180SAPS   H7R20592   2.358   1.361   4.372 -0.5518  0.9347 -0.8755
  180SAPS   H7S20593   2.482   1.466   4.333  0.8800  1.0696  2.4379
  180SAPS   C2820594   2.531   1.359   4.515  0.2386 -0.2448 -0.0305
  180SAPS   H8R20595   2.638   1.336   4.516  0.5014  0.9141  1.1924
  180SAPS   C2920596   2.468   1.357   4.634 -0.7727 -1.1468 -0.0282
  180SAPS   H9R20597   2.541   1.358   4.716 -1.5121  1.0056  0.6727
  180SAPS  C21020598   2.328   1.384   4.670  0.3675 -0.0102 -0.0505
  180SAPS  H10R20599   2.278   1.293   4.710 -0.1535 -0.0093 -0.6676
  180SAPS  H10S20600   2.273   1.423   4.581  1.0871 -0.7296 -0.8288
  180SAPS  C21120601   2.322   1.507   4.765  0.7198  0.4923  0.4353
  180SAPS  H11R20602   2.340   1.604   4.715 -0.9475  0.6557  0.0898
  180SAPS  C21220603   2.320   1.513   4.900 -0.2598 -0.2665  0.1529
  180SAPS  H12R20604   2.323   1.615   4.942  1.9748 -0.7959  1.4300
  180SAPS  C21320605   2.310   1.401   5.005  0.1355  0.2189  1.2165
  180SAPS  H13R20606   2.404   1.405   5.064  1.5322 -0.4430 -0.8633
  180SAPS  H13S20607   2.309   1.298   4.963 -2.4002  0.7870 -0.3350
  180SAPS  C21420608   2.184   1.408   5.101 -0.6243 -0.1816  0.0381
  180SAPS  H14R20609   2.102   1.468   5.058  0.9758  1.7980 -0.3735
  180SAPS  C21520610   2.165   1.350   5.226 -0.6342 -0.6280 -0.0470
  180SAPS  H15R20611   2.071   1.376   5.278 -0.5145 -0.9039  0.3095
  180SAPS  C21620612   2.268   1.274   5.310  0.1810 -1.3736 -0.2358
  180SAPS  H16R20613   2.256   1.295   5.418 -0.0655 -0.3987 -0.4423
  180SAPS  H16S20614   2.370   1.307   5.282  0.2549 -0.7469  0.7395
  180SAPS  C21720615   2.290   1.120   5.279 -0.4222  0.0561  0.6569
  180SAPS  H17R20616   2.373   1.093   5.348  0.6099  1.8240  0.1631
  180SAPS  H17S20617   2.304   1.109   5.169 -1.9364 -0.2144  0.4675
  180SAPS  C21820618   2.167   1.029   5.310 -0.2285  0.3636  0.5312
  180SAPS  H18R20619   2.083   1.057   5.243  0.2440 -1.7393 -1.0381
  180SAPS  H18S20620   2.127   1.035   5.413 -0.4073 -0.5472  0.5228
  180SAPS  C21920621   2.193   0.882   5.286 -0.5192  0.2333 -0.1214
  180SAPS  H19R20622   2.248   0.861   5.192  0.8483 -0.0967  0.7090
  180SAPS  H19S20623   2.099   0.824   5.276 -1.0466  0.5350  2.4402
  180SAPS  C22020624   2.285   0.823   5.396 -0.1038 -0.0013 -0.0984
  180SAPS  H20R20625   2.388   0.865   5.390 -0.0954  0.0912  0.5365
  180SAPS  H20S20626   2.243   0.846   5.496 -0.2388  0.7756 -0.3306
  180SAPS  H20T20627   2.293   0.712   5.392 -0.4604 -0.0177 -0.4099
  180SAPS   C3320628   2.713   1.828   4.202  0.2037  0.3822 -0.1214
  180SAPS   H3X20629   2.638   1.754   4.167  0.9930  0.3605 -1.9040
  180SAPS   H3Y20630   2.657   1.922   4.183 -1.2667 -0.4264  0.0584
  180SAPS   C3420631   2.739   1.826   4.356  0.6660 -0.4920 -0.0548
  180SAPS   H4X20632   2.802   1.913   4.386 -0.9979  0.5525  0.5756
  180SAPS   H4Y20633   2.803   1.738   4.377  0.1430 -1.0709 -0.8551
  180SAPS   C3520634   2.611   1.820   4.451 -0.1641 -1.1156  0.0196
  180SAPS   H5X20635   2.546   1.731   4.439 -2.9412  0.9668 -1.6384
  180SAPS   H5Y20636   2.551   1.911   4.433  2.3470  0.4632 -0.8864
  180SAPS   C3620637   2.655   1.829   4.602 -0.4978 -0.6110 -0.6172
  180SAPS   H6X20638   2.724   1.916   4.606 -1.6961  0.3449  1.1359
  180SAPS   H6Y20639   2.714   1.747   4.647  1.4629 -0.0746 -2.1022
  180SAPS   C3720640   2.531   1.861   4.696 -0.6235 -0.2298  0.1639
  180SAPS   H7X20641   2.470   1.769   4.688  1.3003 -1.4747 -1.1174
  180SAPS   H7Y20642   2.477   1.949   4.653  0.6426  0.8446  0.7205
  180SAPS   C3820643   2.571   1.867   4.842 -0.4098 -0.6914  0.4826
  180SAPS   H8X20644   2.661   1.931   4.845 -0.5397 -0.4932  0.1914
  180SAPS   H8Y20645   2.575   1.766   4.887 -4.0155 -1.8200 -1.3141
  180SAPS   C3920646   2.461   1.926   4.936  0.5815 -0.4634  0.1391
  180SAPS   H9X20647   2.367   1.867   4.929  0.3791 -0.3534  1.5544
  180SAPS   H9Y20648   2.445   2.032   4.907 -0.9975  0.3424  3.4367
  180SAPS  C31020649   2.498   1.920   5.087 -1.3240 -0.1748 -0.0480
  180SAPS  H10X20650   2.595   1.972   5.098 -2.5363  2.2480 -0.1720
  180SAPS  H10Y20651   2.513   1.820   5.133  0.9407  0.0769 -0.1251
  180SAPS  C31120652   2.396   1.990   5.176 -0.5596  0.0611  0.6234
  180SAPS  H11X20653   2.367   2.088   5.132  1.3773 -0.5146 -2.2733
  180SAPS  H11Y20654   2.447   2.021   5.270 -0.6548  1.7214  0.1542
  180SAPS  C31220655   2.269   1.921   5.218  0.9299 -0.2750  0.4790
  180SAPS  H12X20656   2.285   1.820   5.263 -1.7819 -0.6299  0.8109
  180SAPS  H12Y20657   2.220   1.881   5.127 -0.5856 -0.9170  1.5434
  180SAPS  C31320658   2.184   2.007   5.311  0.1702 -0.0780 -0.1318
  180SAPS  H13X20659   2.166   2.107   5.267 -0.7543 -1.3203 -2.7793
  180SAPS  H13Y20660   2.230   2.030   5.410  1.0635  1.0433 -0.7802
  180SAPS  C31420661   2.055   1.945   5.343  0.1121 -0.4287  0.4620
  180SAPS  H14X20662   2.067   1.860   5.413  1.0766 -0.0696  0.7546
  180SAPS  H14Y20663   2.016   1.900   5.250 -1.9796 -0.8063  1.4585
  180SAPS  C31520664   1.949   2.043   5.396 -0.5618 -1.2103 -1.2121
  180SAPS  H15X20665   1.970   2.138   5.342  0.4993 -1.4066 -1.1557
  180SAPS  H15Y20666   1.963   2.064   5.504 -2.1440 -0.2039 -1.1690
  180SAPS  C31620667   1.813   1.978   5.393 -0.3011 -0.7692  0.1282
  180SAPS  H16X20668   1.802   1.894   5.465 -1.3026 -0.8789 -0.1394
  180SAPS  H16Y20669   1.798   1.936   5.291 -0.9634 -2.2993  0.8349
  180SAPS  C31720670   1.695   2.075   5.410  0.3124 -0.1083  0.4807
  180SAPS  H17X20671   1.687   2.134   5.317 -1.7608  1.5656  1.6369
  180SAPS  H17Y20672   1.700   2.137   5.502 -1.3589 -1.0269  1.2581
  180SAPS  C31820673   1.564   2.005   5.415  0.2663  0.4243 -0.1510
  180SAPS  H18X20674   1.551   1.949   5.510 -0.7667  3.2471  1.4925
  180SAPS  H18Y20675   1.556   1.928   5.336  0.8416  0.5611 -0.3498
  180SAPS  H18Z20676   1.473   2.068   5.407  1.3440  2.1540  0.7414
  181POPC     N20677   1.468   4.180   7.441 -0.1356 -0.1076  0.1098
  181POPC   C1220678   1.510   4.265   7.320 -0.7817 -0.2133 -0.1509
  181POPC  H12A20679   1.420   4.264   7.260 -1.6016 -2.4063  0.9827
  181POPC  H12B20680   1.590   4.212   7.273  1.7172  2.6845  0.5313
  181POPC   C1320681   1.326   4.212   7.482  0.1015 -0.4066 -0.6231
  181POPC  H13A20682   1.257   4.178   7.406 -0.4735  1.2923 -0.8954
  181POPC  H13B20683   1.309   4.175   7.582  0.0441 -1.0660 -0.8690
  181POPC  H13C20684   1.300   4.316   7.494 -2.8467 -1.1695  0.3384
  181POPC   C1420685   1.476   4.043   7.395  0.4969  0.2322 -0.1371
  181POPC  H14A20686   1.575   4.026   7.356 -0.0507  0.1428 -1.5464
  181POPC  H14B20687   1.463   3.969   7.472  3.2398 -0.3266 -0.1112
  181POPC  H14C20688   1.409   4.012   7.316  0.7250  1.1716 -0.7229
  181POPC   C1520689   1.552   4.201   7.558 -0.2805 -0.0096  0.9264
  181POPC  H15A20690   1.548   4.305   7.584 -1.6000 -0.1228  1.2567
  181POPC  H15B20691   1.655   4.174   7.542 -1.2374 -2.4286 -2.1726
  181POPC  H15C20692   1.527   4.152   7.652 -1.6024  0.3371  0.7847
  181POPC   C1120693   1.561   4.406   7.348 -0.0493  0.5643  0.1890
  181POPC  H11A20694   1.472   4.454   7.395 -0.4857  0.6080 -0.6736
  181POPC  H11B20695   1.580   4.450   7.248  2.0538 -0.3494  0.1465
  181POPC     P20696   1.817   4.367   7.382 -0.1543  0.2210  0.6463
  181POPC   O1320697   1.814   4.226   7.334  0.3510  0.0772 -0.7686
  181POPC   O1420698   1.908   4.412   7.489 -0.2398  0.6457  0.0484
  181POPC   O1220699   1.676   4.409   7.437 -0.5628 -0.1702 -0.0986
  181POPC   O1120700   1.842   4.461   7.255  0.1583  0.1650  0.2639
  181POPC    C120701   1.805   4.603   7.243 -0.0474  0.2276  0.2076
  181POPC    HA20702   1.827   4.660   7.336 -1.1494  1.4188 -0.2399
  181POPC    HB20703   1.696   4.606   7.222 -0.0051 -2.2944 -0.7157
  181POPC    C220704   1.879   4.671   7.125  0.5418  0.4233  0.3165
  181POPC    HS20705   1.989   4.670   7.141  0.9976 -2.8674 -1.8654
  181POPC   O2120706   1.804   4.798   7.102  0.3492 -0.8828  0.2364
  181POPC   C2120707   1.872   4.914   7.128  0.3040 -0.8657  0.1411
  181POPC   O2220708   1.983   4.924   7.179 -0.8692  0.5039 -0.1831
  181POPC   C2220709   1.796   5.046   7.075 -0.1440  0.5903  0.2357
  181POPC   H2R20710   1.872   5.123   7.100  1.8977 -1.3348  0.2732
  181POPC   H2S20711   1.711   5.065   7.144  0.6366 -0.7116  1.6349
  181POPC    C320712   1.862   4.580   6.996 -0.0265  0.5287  0.2725
  181POPC    HX20713   1.757   4.582   6.961 -0.5721 -1.1708  1.7217
  181POPC    HY20714   1.883   4.473   7.015  0.4537  0.5235 -0.2318
  181POPC   O3120715   1.945   4.637   6.892  0.2501 -0.1395  0.5461
  181POPC   C3120716   1.976   4.553   6.799 -0.6837 -0.1054 -0.1631
  181POPC   O3220717   1.949   4.434   6.800  0.1288  0.0187  0.0987
  181POPC   C3220718   2.065   4.622   6.690  0.5607 -0.0714 -0.3848
  181POPC   H2X20719   2.135   4.694   6.737 -0.2163  0.2840  0.2493
  181POPC   H2Y20720   1.988   4.675   6.630  0.6131 -0.6189 -0.9371
  181POPC   C2320721   1.757   5.046   6.931  0.3930  0.5934  0.0943
  181POPC   H3R20722   1.697   5.135   6.901 -1.2604 -0.3929  0.3096
  181POPC   H3S20723   1.693   4.956   6.918  1.4104  0.0287 -1.2428
  181POPC   C2420724   1.880   5.015   6.838 -0.3845 -0.3625 -0.1880
  181POPC   H4R20725   1.941   4.925   6.863  1.4921  1.2255  1.3488
  181POPC   H4S20726   1.948   5.103   6.842  0.4408 -0.9890 -0.2428
  181POPC   C2520727   1.831   4.992   6.697 -0.1095 -0.5051  0.0198
  181POPC   H5R20728   1.750   4.916   6.704 -1.1455  0.4811 -0.9035
  181POPC   H5S20729   1.916   4.953   6.638  0.0879 -0.7115  0.4377
  181POPC   C2620730   1.782   5.117   6.621 -0.2833 -0.3064 -0.2635
  181POPC   H6R20731   1.871   5.180   6.602  1.4261 -2.4429  0.3750
  181POPC   H6S20732   1.707   5.175   6.680 -1.8886 -2.6232  0.1426
  181POPC   C2720733   1.721   5.065   6.490 -0.0731  0.4871 -0.5264
  181POPC   H7R20734   1.642   4.998   6.530 -0.2541  1.9280  1.7450
  181POPC   H7S20735   1.804   5.012   6.439 -1.1893  0.4802 -2.4128
  181POPC   C2820736   1.649   5.166   6.407 -0.4872 -0.0152  0.5277
  181POPC   H8R20737   1.717   5.253   6.395  0.1985 -0.3468  1.8677
  181POPC   H8S20738   1.564   5.207   6.466  0.0539 -0.1792  1.4333
  181POPC   C2920739   1.600   5.107   6.273 -0.5119  0.2971  0.2394
  181POPC   H9120740   1.518   5.037   6.293 -0.4532 -0.0638 -0.7633
  181POPC  C21020741   1.638   5.129   6.150  0.3495 -0.2264  0.4049
  181POPC  H10120742   1.596   5.060   6.076 -2.0416  1.7746 -0.2545
  181POPC  C21120743   1.752   5.207   6.104  0.1529 -0.0673  0.5155
  181POPC  H11R20744   1.811   5.255   6.186 -0.9247  0.5981  0.9257
  181POPC  H11S20745   1.725   5.295   6.042  3.0010 -0.5743 -1.6051
  181POPC  C21220746   1.856   5.113   6.051 -0.0823  0.4994 -0.6282
  181POPC  H12R20747   1.905   5.058   6.134  0.0490 -0.5489 -1.3772
  181POPC  H12S20748   1.933   5.183   6.012  0.0019  0.6130 -0.2602
  181POPC  C21320749   1.821   5.022   5.933  0.0498 -0.4253  0.4074
  181POPC  H13R20750   1.740   4.949   5.955 -0.9146 -0.1440 -1.9771
  181POPC  H13S20751   1.907   4.964   5.895 -0.9160 -1.4436 -0.2689
  181POPC  C21420752   1.773   5.099   5.805  0.2442  0.1694 -0.5082
  181POPC  H14R20753   1.841   5.182   5.775  1.4776 -1.7457 -3.5179
  181POPC  H14S20754   1.669   5.134   5.824 -0.7740 -2.5041 -0.6747
  181POPC  C21520755   1.753   4.999   5.691 -0.0940 -0.3979 -0.4793
  181POPC  H15R20756   1.669   4.926   5.697  0.5085 -1.3391 -2.6320
  181POPC  H15S20757   1.843   4.938   5.669  0.3709  0.1501 -0.1286
  181POPC  C21620758   1.707   5.065   5.560 -1.0236  0.6220  0.4338
  181POPC  H16R20759   1.767   5.157   5.541 -3.0492  1.3790 -3.2342
  181POPC  H16S20760   1.604   5.108   5.558 -1.1123  0.4111  0.4402
  181POPC  C21720761   1.714   4.961   5.442 -0.3264  0.1695  0.1378
  181POPC  H17R20762   1.637   4.882   5.457  1.1648 -0.8702  3.1737
  181POPC  H17S20763   1.812   4.908   5.447 -0.9070 -1.0067 -0.5301
  181POPC  C21820764   1.705   5.012   5.302 -0.2202  0.7087  0.3333
  181POPC  H18R20765   1.783   5.090   5.288  0.8195 -0.6907 -2.4331
  181POPC  H18S20766   1.602   5.036   5.270 -0.8004 -0.5265  1.2287
  181POPC  H18T20767   1.727   4.929   5.232 -2.8618 -1.8663  2.3413
  181POPC   C3320768   2.150   4.531   6.602 -0.1021 -0.1155 -0.2830
  181POPC   H3X20769   2.080   4.462   6.551 -0.2740  0.6598 -1.1343
  181POPC   H3Y20770   2.224   4.465   6.652  0.5389 -2.0716 -3.5364
  181POPC   C3420771   2.246   4.606   6.502 -1.0329  0.7991 -0.3096
  181POPC   H4X20772   2.338   4.547   6.481 -1.3782  0.9067 -2.2880
  181POPC   H4Y20773   2.261   4.708   6.545  0.3243 -0.1604  1.6144
  181POPC   C3520774   2.186   4.641   6.371 -0.1634 -0.2789  0.6571
  181POPC   H5X20775   2.262   4.695   6.311  0.8530 -2.1874  0.1331
  181POPC   H5Y20776   2.101   4.703   6.406 -0.4236 -0.9908  1.3012
  181POPC   C3620777   2.143   4.521   6.286  0.1427  0.2047 -0.4165
  181POPC   H6X20778   2.082   4.451   6.345  0.3433  0.6431  0.3260
  181POPC   H6Y20779   2.236   4.467   6.258  0.4004  0.2472  0.3356
  181POPC   C3720780   2.064   4.570   6.160 -0.5364 -0.0018 -0.1081
  181POPC   H7X20781   2.003   4.657   6.193  2.3004  1.1580  2.6013
  181POPC   H7Y20782   1.996   4.487   6.130  0.8677 -1.9720  1.8503
  181POPC   C3820783   2.163   4.614   6.051  0.4651  0.0793 -0.1494
  181POPC   H8X20784   2.230   4.529   6.025 -0.6374 -1.2650  1.1828
  181POPC   H8Y20785   2.220   4.698   6.097  1.4231 -0.7562  0.2211
  181POPC   C3920786   2.097   4.678   5.932 -0.1675  0.8204 -0.1185
  181POPC   H9X20787   2.046   4.768   5.972 -2.6150  0.2542 -1.7129
  181POPC   H9Y20788   2.025   4.603   5.894 -0.2689  0.9622 -0.2036
  181POPC  C31020789   2.194   4.711   5.817  0.2110 -0.1310  0.5566
  181POPC  H10X20790   2.259   4.624   5.792 -0.7220 -0.4716 -0.8207
  181POPC  H10Y20791   2.279   4.776   5.845  1.5440  0.4838 -4.0814
  181POPC  C31120792   2.128   4.760   5.688 -0.3692  0.0815 -0.3365
  181POPC  H11X20793   2.058   4.837   5.727 -0.5089 -0.3455  0.2667
  181POPC  H11Y20794   2.064   4.685   5.637  0.8952  0.0450 -1.9495
  181POPC  C31220795   2.236   4.818   5.593 -0.5568 -0.7731 -0.0373
  181POPC  H12X20796   2.296   4.728   5.568 -1.4859 -1.4694  0.1469
  181POPC  H12Y20797   2.297   4.891   5.649 -1.3569  0.2992 -0.5170
  181POPC  C31320798   2.187   4.868   5.463  0.0566  0.1304  0.0518
  181POPC  H13X20799   2.108   4.802   5.422 -1.3889  0.6983  1.7775
  181POPC  H13Y20800   2.268   4.876   5.388  0.2665  1.9628  0.4482
  181POPC  C31420801   2.117   5.003   5.487  0.2827 -0.7086  0.4889
  181POPC  H14X20802   2.033   4.977   5.555  1.5110 -2.4743  1.4026
  181POPC  H14Y20803   2.072   5.035   5.390  0.2249  0.1822  0.8104
  181POPC  C31520804   2.207   5.116   5.538 -0.5703 -0.5859 -0.2358
  181POPC  H15X20805   2.295   5.126   5.472 -2.1895  1.8476 -2.2110
  181POPC  H15Y20806   2.255   5.079   5.631  0.6029 -1.2413 -1.0813
  181POPC  C31620807   2.131   5.247   5.571 -0.3635 -1.0304 -0.4600
  181POPC  H16X20808   2.022   5.233   5.585 -0.4194 -1.1143 -0.9527
  181POPC  H16Y20809   2.141   5.330   5.498  1.5247  1.4818  2.3733
  181POPC  H16Z20810   2.181   5.302   5.654 -0.1901  0.1185 -1.3005
  182POPC     N20811   3.097   4.232   7.753 -0.6160  0.4751 -0.2773
  182POPC   C1220812   3.066   4.079   7.757  0.1221 -0.4946 -0.4198
  182POPC  H12A20813   2.981   4.062   7.692  0.3878  1.9949 -1.5128
  182POPC  H12B20814   3.037   4.051   7.858  0.4022 -0.6749 -0.3882
  182POPC   C1320815   3.091   4.272   7.612  0.3928  0.4739  0.3023
  182POPC  H13A20816   3.104   4.378   7.596  0.5244  0.7655  2.1074
  182POPC  H13B20817   3.166   4.211   7.565 -0.0552 -2.5779  3.1505
  182POPC  H13C20818   2.996   4.239   7.573  0.8291 -1.2739  0.6350
  182POPC   C1420819   2.999   4.311   7.829 -0.1482 -1.1043  0.3383
  182POPC  H14A20820   2.999   4.302   7.937 -1.1481  1.7784  0.6657
  182POPC  H14B20821   3.015   4.416   7.808 -1.3141 -1.4098 -2.4263
  182POPC  H14C20822   2.899   4.287   7.796 -0.7031  1.4614 -0.0689
  182POPC   C1520823   3.234   4.254   7.812 -0.2301 -0.1503  0.4944
  182POPC  H15A20824   3.303   4.186   7.764 -0.6093 -0.5940  0.5678
  182POPC  H15B20825   3.230   4.244   7.920  1.0687  2.9907  0.9349
  182POPC  H15C20826   3.270   4.356   7.805 -2.3414  0.5585 -1.1909
  182POPC   C1120827   3.173   3.988   7.701 -0.1193 -0.5006 -0.0274
  182POPC  H11A20828   3.147   3.886   7.737 -1.6781 -0.0771  0.0764
  182POPC  H11B20829   3.271   4.019   7.744 -0.7175  1.6345 -0.1359
  182POPC     P20830   3.072   3.917   7.476 -0.4288  0.3767 -0.1535
  182POPC   O1320831   3.053   3.994   7.351  0.1531 -0.0636 -0.1214
  182POPC   O1420832   2.948   3.890   7.544 -0.0012 -0.3526 -0.2276
  182POPC   O1220833   3.175   3.983   7.561 -0.0812 -0.0400  0.1311
  182POPC   O1120834   3.142   3.784   7.439  0.3110  0.4368  0.1309
  182POPC    C120835   3.288   3.793   7.412  0.1547 -0.2181  0.2532
  182POPC    HA20836   3.336   3.751   7.503 -2.7807 -0.8602  1.6061
  182POPC    HB20837   3.323   3.896   7.388  0.6034 -0.5629 -0.6059
  182POPC    C220838   3.310   3.708   7.284  0.3627 -0.7095 -0.4629
  182POPC    HS20839   3.326   3.600   7.307 -0.8990 -0.2430  3.4619
  182POPC   O2120840   3.421   3.762   7.212 -0.8820 -0.3195  0.3917
  182POPC   C2120841   3.544   3.739   7.256  0.2124  0.5725 -0.3542
  182POPC   O2220842   3.570   3.686   7.361  0.1500  0.0688 -0.9065
  182POPC   C2220843   3.651   3.776   7.161  0.0217  0.0954  0.3412
  182POPC   H2R20844   3.661   3.693   7.088 -0.9970 -0.5853  0.9461
  182POPC   H2S20845   3.745   3.768   7.220  0.8777 -3.1352 -1.2466
  182POPC    C320846   3.189   3.709   7.185  0.2692 -0.2803  0.3374
  182POPC    HX20847   3.192   3.810   7.141 -0.3998 -0.7958 -0.9300
  182POPC    HY20848   3.089   3.703   7.232 -0.1349  1.4018 -0.2529
  182POPC   O3120849   3.208   3.604   7.087  0.3693 -0.1871  0.1142
  182POPC   C3120850   3.147   3.638   6.972  0.1709  0.2351  0.1989
  182POPC   O3220851   3.087   3.742   6.950 -0.3447 -0.6531 -0.2376
  182POPC   C3220852   3.162   3.525   6.873  0.4137 -0.3597 -0.3362
  182POPC   H2X20853   3.138   3.432   6.929 -1.5466  0.6164  0.5425
  182POPC   H2Y20854   3.270   3.521   6.850  0.9092  0.7826  1.6086
  182POPC   C2320855   3.643   3.914   7.097 -0.1999  0.2823 -0.4031
  182POPC   H3R20856   3.748   3.926   7.062  0.3652 -0.3908  0.9972
  182POPC   H3S20857   3.616   3.987   7.176  1.4228  1.0845 -0.5515
  182POPC   C2420858   3.544   3.919   6.981 -0.2171  0.4075 -0.1611
  182POPC   H4R20859   3.520   4.026   6.965 -2.5150  0.1106  0.9076
  182POPC   H4S20860   3.443   3.883   7.010 -0.5015  0.1325 -1.4443
  182POPC   C2520861   3.585   3.842   6.849  0.1277 -0.0218  0.2737
  182POPC   H5R20862   3.583   3.734   6.874 -0.2117 -0.3038 -0.9128
  182POPC   H5S20863   3.689   3.872   6.827  1.6215 -3.2338  2.2530
  182POPC   C2620864   3.488   3.878   6.734 -0.5855  0.1109 -0.3930
  182POPC   H6R20865   3.483   3.988   6.717  0.1190 -0.2162 -3.1766
  182POPC   H6S20866   3.385   3.862   6.770 -0.2083  2.5182  2.1822
  182POPC   C2720867   3.511   3.809   6.601 -0.2471  0.1830 -0.1481
  182POPC   H7R20868   3.525   3.701   6.620 -0.6606 -0.0073 -0.9083
  182POPC   H7S20869   3.614   3.841   6.574  0.7617 -1.3731  1.5846
  182POPC   C2820870   3.412   3.837   6.491  0.0725  0.3217  0.6705
  182POPC   H8R20871   3.443   3.936   6.451  0.7244  0.2356  0.9475
  182POPC   H8S20872   3.316   3.850   6.546  0.1083  1.2824  0.5282
  182POPC   C2920873   3.412   3.729   6.389  0.6036 -0.1276  0.4341
  182POPC   H9120874   3.396   3.625   6.421 -0.7749 -0.8423 -2.2925
  182POPC  C21020875   3.431   3.750   6.256 -0.3212  0.3326 -0.0069
  182POPC  H10120876   3.441   3.660   6.193  0.2395 -0.0464  0.5965
  182POPC  C21120877   3.478   3.877   6.191 -0.8320 -0.0720  0.2218
  182POPC  H11R20878   3.525   3.950   6.261 -0.2217  1.1988 -1.4284
  182POPC  H11S20879   3.389   3.935   6.156 -0.9518  0.3021  1.1270
  182POPC  C21220880   3.568   3.860   6.068 -0.3254 -0.1013  0.2896
  182POPC  H12R20881   3.508   3.799   5.997 -1.0886 -1.3774  1.9591
  182POPC  H12S20882   3.652   3.792   6.093  0.1301  1.0890  2.1765
  182POPC  C21320883   3.611   3.991   5.997 -0.0163 -0.0813  0.0735
  182POPC  H13R20884   3.672   4.057   6.062  1.6222 -0.3993 -1.0721
  182POPC  H13S20885   3.519   4.045   5.966  1.3158  1.8876 -0.6092
  182POPC  C21420886   3.691   3.960   5.874 -0.5856  0.0712 -0.0231
  182POPC  H14R20887   3.619   3.910   5.805  0.0205 -1.3899  0.3656
  182POPC  H14S20888   3.776   3.892   5.895  0.6150  2.1900  2.4858
  182POPC  C21520889   3.754   4.080   5.805  0.4164  0.0584 -0.7462
  182POPC  H15R20890   3.854   4.094   5.851  1.0107 -1.2196 -1.5713
  182POPC  H15S20891   3.686   4.167   5.808  0.1386 -0.1320 -1.4491
  182POPC  C21620892   3.775   4.049   5.657  0.1250 -0.5416 -0.1337
  182POPC  H16R20893   3.683   4.028   5.600 -0.0777 -1.6418  0.5660
  182POPC  H16S20894   3.850   3.967   5.655  1.3578  0.2839  3.5102
  182POPC  C21720895   3.855   4.161   5.583 -0.1332  0.1730  0.4436
  182POPC  H17R20896   3.893   4.111   5.492  0.1499 -0.0494  0.6852
  182POPC  H17S20897   3.947   4.188   5.639  0.3442  3.8027 -1.7517
  182POPC  C21820898   3.770   4.280   5.537  0.0839 -0.0517 -0.6688
  182POPC  H18R20899   3.837   4.359   5.496  0.1644  0.4718  0.4245
  182POPC  H18S20900   3.715   4.319   5.626  0.7335  0.5777 -0.5351
  182POPC  H18T20901   3.703   4.248   5.454  2.0203 -5.0548 -0.6289
  182POPC   C3320902   3.092   3.561   6.734 -0.1709  0.2993  0.0246
  182POPC   H3X20903   3.145   3.656   6.713  1.8787 -0.9186 -0.6080
  182POPC   H3Y20904   2.986   3.589   6.750 -0.1715 -0.0055  0.5903
  182POPC   C3420905   3.118   3.455   6.621  0.2253 -0.0573  0.1744
  182POPC   H4X20906   3.063   3.361   6.644 -0.1422 -0.3287 -1.6640
  182POPC   H4Y20907   3.222   3.423   6.639 -0.0556 -0.4159  1.2315
  182POPC   C3520908   3.095   3.521   6.483 -1.2746 -0.4767  0.5214
  182POPC   H5X20909   3.167   3.602   6.460  1.5484 -2.9869 -0.0514
  182POPC   H5Y20910   2.996   3.572   6.476 -1.6454 -1.3945 -2.7398
  182POPC   C3620911   3.102   3.411   6.374  0.4829  0.2385  0.0076
  182POPC   H6X20912   3.015   3.343   6.378 -0.3466  1.2446 -0.4986
  182POPC   H6Y20913   3.186   3.346   6.407 -1.0703 -1.4010  0.8482
  182POPC   C3720914   3.092   3.467   6.236 -0.0300 -0.2201  0.1497
  182POPC   H7X20915   3.181   3.526   6.208  1.6217 -1.0831  3.1244
  182POPC   H7Y20916   2.999   3.528   6.239 -0.1187 -0.3639  2.6849
  182POPC   C3820917   3.081   3.357   6.122  0.2720 -0.0312 -0.6553
  182POPC   H8X20918   2.996   3.293   6.153 -1.9017  3.3155  0.7519
  182POPC   H8Y20919   3.180   3.304   6.125  1.4590  2.1439  1.0076
  182POPC   C3920920   3.061   3.410   5.980  0.0964 -0.3009 -0.1539
  182POPC   H9X20921   3.145   3.474   5.945  0.1879 -0.1438  0.3370
  182POPC   H9Y20922   2.969   3.472   5.983 -0.5390 -1.2531  0.6130
  182POPC  C31020923   3.038   3.304   5.875 -0.0599 -0.4258 -0.0336
  182POPC  H10X20924   2.960   3.234   5.911 -0.5594 -0.7571 -1.6523
  182POPC  H10Y20925   3.136   3.263   5.841  1.7814  1.1972  2.9404
  182POPC  C31120926   2.959   3.349   5.744 -0.5573  0.7507  0.2292
  182POPC  H11X20927   3.011   3.440   5.707  1.7700 -1.1660 -1.4773
  182POPC  H11Y20928   2.856   3.368   5.780 -0.4613  2.9693 -0.5157
  182POPC  C31220929   2.961   3.247   5.625 -0.3164  0.5696 -0.4833
  182POPC  H12X20930   2.893   3.164   5.655 -1.4300  1.9215  0.9133
  182POPC  H12Y20931   3.065   3.208   5.615 -0.4224  0.1628 -0.0410
  182POPC  C31320932   2.897   3.313   5.513 -0.0347  0.5357 -0.3873
  182POPC  H13X20933   2.963   3.402   5.511  0.2349  0.3284 -1.0335
  182POPC  H13Y20934   2.789   3.337   5.521 -0.6118 -2.0147  0.6476
  182POPC  C31420935   2.930   3.240   5.378 -0.2175  0.1778 -0.3155
  182POPC  H14X20936   2.870   3.146   5.384  0.9753 -0.6424 -0.9520
  182POPC  H14Y20937   3.033   3.199   5.378 -1.2737 -2.7232 -0.2545
  182POPC  C31520938   2.912   3.328   5.249  0.5296  0.2284 -0.1568
  182POPC  H15X20939   2.969   3.419   5.277 -0.4909  1.0762 -0.7669
  182POPC  H15Y20940   2.803   3.346   5.241  0.2442 -0.7461  1.0387
  182POPC  C31620941   2.956   3.260   5.121 -0.3523 -0.0359 -0.0409
  182POPC  H16X20942   3.067   3.247   5.114 -0.5023 -1.0792 -0.5724
  182POPC  H16Y20943   2.928   3.317   5.030  2.3103 -1.5051 -1.9351
  182POPC  H16Z20944   2.908   3.162   5.103 -0.3386 -0.2820  1.1706
  183POPC     N20945   6.126   2.489   8.007 -0.3225  0.0585  0.6254
  183POPC   C1220946   6.152   2.335   7.991  0.2982 -0.5175  0.1571
  183POPC  H12A20947   6.060   2.283   8.013  0.3485 -0.4648  0.4954
  183POPC  H12B20948   6.220   2.300   8.067 -1.0667  0.6548  1.9975
  183POPC   C1320949   6.258   2.562   8.014  0.1247  0.0023  0.2172
  183POPC  H13A20950   6.309   2.527   8.102 -0.3093 -0.9549  0.1033
  183POPC  H13B20951   6.321   2.534   7.930 -0.1800 -0.0767  0.0112
  183POPC  H13C20952   6.236   2.667   8.024 -1.5040 -0.2895  0.0996
  183POPC   C1420953   6.059   2.558   7.890 -0.2142  0.1428 -0.3691
  183POPC  H14A20954   6.104   2.534   7.795 -0.5356 -1.3600 -0.1756
  183POPC  H14B20955   5.953   2.535   7.886 -0.9068  2.9548 -0.2527
  183POPC  H14C20956   6.071   2.664   7.903 -1.4532  0.2000  0.5214
  183POPC   C1520957   6.051   2.526   8.133  0.4350  0.2525  0.0526
  183POPC  H15A20958   6.031   2.632   8.139 -2.3712 -0.0936 -1.4524
  183POPC  H15B20959   6.107   2.501   8.222 -0.8167  0.8885  1.0580
  183POPC  H15C20960   5.952   2.482   8.139 -0.1222  1.3504 -0.6825
  183POPC   C1120961   6.204   2.270   7.859  0.5154 -1.0000  0.0587
  183POPC  H11A20962   6.114   2.261   7.794 -2.2028 -0.5442  3.5011
  183POPC  H11B20963   6.240   2.170   7.889 -1.5619 -1.8338 -0.0631
  183POPC     P20964   6.416   2.282   7.718  0.1108  0.5689  0.2719
  183POPC   O1320965   6.345   2.181   7.636 -0.4793  0.4533  0.3636
  183POPC   O1420966   6.541   2.242   7.789  0.6744  0.4212  0.1409
  183POPC   O1220967   6.314   2.348   7.815 -0.3054  0.0380 -0.0361
  183POPC   O1120968   6.452   2.406   7.632  0.1818  0.0919  0.4458
  183POPC    C120969   6.546   2.389   7.521 -0.4177 -0.0367 -0.2593
  183POPC    HA20970   6.545   2.290   7.471  0.5385  0.3450 -1.0740
  183POPC    HB20971   6.647   2.399   7.567 -0.3692  0.2155 -0.4165
  183POPC    C220972   6.552   2.520   7.426  0.1595  0.6662 -0.4696
  183POPC    HS20973   6.543   2.600   7.503  0.1530  0.6022 -0.4040
  183POPC   O2120974   6.440   2.522   7.333 -0.2827  0.7285  0.3935
  183POPC   C2120975   6.388   2.643   7.301  0.7234 -0.2660 -1.2793
  183POPC   O2220976   6.448   2.747   7.322  0.6290 -0.2669  0.7508
  183POPC   C2220977   6.254   2.613   7.238 -0.6862  0.3510  1.0390
  183POPC   H2R20978   6.189   2.568   7.317 -0.6335 -1.2337  0.2236
  183POPC   H2S20979   6.269   2.529   7.167  0.1130  0.1629  1.4249
  183POPC    C320980   6.689   2.521   7.352  0.4887 -0.1850 -0.0753
  183POPC    HX20981   6.763   2.557   7.426  0.3624 -1.3324  0.6243
  183POPC    HY20982   6.692   2.594   7.268  0.5859  0.7649  0.7340
  183POPC   O3120983   6.725   2.383   7.305  0.1579  0.3587  0.0281
  183POPC   C3120984   6.839   2.329   7.359 -0.3366 -0.5200  1.0084
  183POPC   O3220985   6.929   2.397   7.407  0.0270 -0.3761 -0.0808
  183POPC   C3220986   6.851   2.181   7.331  0.0172  0.1016  0.0081
  183POPC   H2X20987   6.772   2.119   7.378 -3.3372 -0.3238 -5.2745
  183POPC   H2Y20988   6.949   2.154   7.376  0.4204  3.1362  1.2039
  183POPC   C2320989   6.192   2.743   7.173 -0.2400 -0.2448 -0.5011
  183POPC   H3R20990   6.270   2.781   7.103 -0.4843  0.1393 -0.5680
  183POPC   H3S20991   6.183   2.816   7.257 -0.3460 -0.6337 -0.1714
  183POPC   C2420992   6.053   2.721   7.106 -0.1373 -0.4918 -0.2668
  183POPC   H4R20993   6.031   2.813   7.048 -0.3664 -0.5299 -0.2390
  183POPC   H4S20994   5.982   2.711   7.191 -2.5895  1.3215 -1.9628
  183POPC   C2520995   6.034   2.598   7.023 -0.0941 -0.5515 -0.2675
  183POPC   H5R20996   5.925   2.594   6.999 -0.9947  2.5842  2.4977
  183POPC   H5S20997   6.065   2.508   7.081  1.9208 -1.1712 -2.1630
  183POPC   C2620998   6.128   2.591   6.901 -0.1878  0.2884  0.8903
  183POPC   H6R20999   6.141   2.486   6.868  0.0807  0.1840  1.3257
  183POPC   H6S21000   6.223   2.647   6.913  0.7656 -0.5010 -2.0308
  183POPC   C2721001   6.081   2.670   6.775 -0.6780  0.6509  0.0653
  183POPC   H7R21002   6.078   2.775   6.814  2.0922  0.1013  2.1188
  183POPC   H7S21003   5.977   2.647   6.745 -0.6630  1.6507 -0.8205
  183POPC   C2821004   6.186   2.644   6.665  0.5412  0.8604 -0.1483
  183POPC   H8R21005   6.161   2.545   6.623  2.5174  0.0604  0.4606
  183POPC   H8S21006   6.287   2.643   6.712  1.1316 -1.1105 -1.3286
  183POPC   C2921007   6.195   2.744   6.556 -0.0220  0.6427 -0.0254
  183POPC   H9121008   6.263   2.829   6.570  0.4630  0.7780 -2.6107
  183POPC  C21021009   6.137   2.743   6.432 -0.0616 -0.4823 -0.4972
  183POPC  H10121010   6.159   2.826   6.364 -0.3725  0.0380  0.0344
  183POPC  C21121011   6.045   2.637   6.385 -0.3386 -0.0386  0.6485
  183POPC  H11R21012   5.963   2.687   6.330  2.0763  2.9731 -0.4851
  183POPC  H11S21013   6.013   2.579   6.475  1.5846 -0.3707  1.1475
  183POPC  C21221014   6.104   2.521   6.304 -0.1912 -0.1036 -0.3112
  183POPC  H12R21015   6.020   2.451   6.282 -0.9816  0.4515  0.8432
  183POPC  H12S21016   6.186   2.461   6.349  0.9398  0.0433 -2.1018
  183POPC  C21321017   6.170   2.578   6.181 -0.5839  0.3076 -0.5635
  183POPC  H13R21018   6.260   2.634   6.214 -0.5482 -0.5294  0.8791
  183POPC  H13S21019   6.094   2.642   6.133 -1.2785  0.1187  0.2583
  183POPC  C21421020   6.220   2.474   6.087 -0.1724  0.4525  0.0409
  183POPC  H14R21021   6.142   2.395   6.085  1.5837 -1.3708  0.1813
  183POPC  H14S21022   6.312   2.426   6.129 -0.0356  1.0086  0.3949
  183POPC  C21521023   6.265   2.523   5.951  0.4374 -0.4747 -0.2332
  183POPC  H15R21024   6.343   2.457   5.907  1.9339  0.1483  1.4015
  183POPC  H15S21025   6.323   2.617   5.959  2.0311 -1.3681 -0.8862
  183POPC  C21621026   6.141   2.551   5.863  0.0342 -0.7437 -0.3398
  183POPC  H16R21027   6.171   2.620   5.782 -0.2026 -0.2305  0.0068
  183POPC  H16S21028   6.069   2.614   5.920 -1.2651 -0.2616 -2.4123
  183POPC  C21721029   6.067   2.426   5.809  0.2268 -0.3125  0.1544
  183POPC  H17R21030   5.979   2.447   5.744 -0.7763  1.7538  2.0427
  183POPC  H17S21031   6.029   2.362   5.892  2.4662 -3.1446 -0.8541
  183POPC  C21821032   6.157   2.335   5.729 -0.0378  0.6906 -0.3520
  183POPC  H18R21033   6.104   2.263   5.663  2.5635 -0.5276 -1.2587
  183POPC  H18S21034   6.228   2.280   5.795 -0.9896 -1.0834 -0.7305
  183POPC  H18T21035   6.210   2.406   5.662 -0.7000  0.2318 -1.3880
  183POPC   C3321036   6.858   2.151   7.179  0.2604  0.0255 -0.6929
  183POPC   H3X21037   6.909   2.052   7.173  0.1820 -0.0175 -0.6422
  183POPC   H3Y21038   6.913   2.234   7.130 -1.3269  0.8252 -1.1841
  183POPC   C3421039   6.717   2.149   7.112  0.1762 -0.7134  0.2940
  183POPC   H4X21040   6.693   2.257   7.111  2.6100 -0.1023 -0.9538
  183POPC   H4Y21041   6.659   2.081   7.178 -1.5152  1.5244  1.2124
  183POPC   C3521042   6.721   2.097   6.971  0.3324 -0.2155 -0.4929
  183POPC   H5X21043   6.773   2.178   6.916  0.2614 -1.2662 -2.1805
  183POPC   H5Y21044   6.615   2.090   6.940  0.0517 -0.6762  0.5101
  183POPC   C3621045   6.798   1.964   6.952 -0.1488  0.1733 -0.7504
  183POPC   H6X21046   6.752   1.898   7.028  1.5327  1.1411  1.2172
  183POPC   H6Y21047   6.904   1.992   6.969  0.5046 -0.7767 -2.9794
  183POPC   C3721048   6.791   1.915   6.810 -0.2334 -0.2093  0.5849
  183POPC   H7X21049   6.839   1.815   6.803 -0.9226 -0.5316  0.4271
  183POPC   H7Y21050   6.849   1.978   6.739 -0.4025 -1.6197 -0.8703
  183POPC   C3821051   6.653   1.886   6.752  0.6464 -0.0871 -0.0027
  183POPC   H8X21052   6.594   1.980   6.746  0.4717 -0.2298 -0.5383
  183POPC   H8Y21053   6.593   1.826   6.824  0.6992 -1.3661 -0.9958
  183POPC   C3921054   6.657   1.814   6.616 -0.5333 -0.6309 -0.0884
  183POPC   H9X21055   6.555   1.772   6.603 -1.6756  1.4195  1.6152
  183POPC   H9Y21056   6.721   1.724   6.629  1.4700  0.8334  0.8646
  183POPC  C31021057   6.710   1.901   6.499 -0.1164  0.5757  0.1168
  183POPC  H10X21058   6.813   1.940   6.510  0.5569 -0.4932 -1.8689
  183POPC  H10Y21059   6.637   1.985   6.489 -1.1910 -0.3663 -0.2576
  183POPC  C31121060   6.721   1.817   6.363  0.3078  0.7452 -0.4904
  183POPC  H11X21061   6.632   1.751   6.363 -2.3109  3.8638 -3.4047
  183POPC  H11Y21062   6.809   1.749   6.367 -1.9382 -2.2892  0.2482
  183POPC  C31221063   6.734   1.894   6.233  0.5113 -0.4963  0.1663
  183POPC  H12X21064   6.818   1.966   6.244  1.6811 -1.8658  0.4573
  183POPC  H12Y21065   6.642   1.952   6.209  0.8070  0.5208  1.4024
  183POPC  C31321066   6.748   1.799   6.108  0.3832 -0.6465 -0.0248
  183POPC  H13X21067   6.656   1.742   6.085  0.3463  0.0698 -1.7972
  183POPC  H13Y21068   6.831   1.726   6.117  0.5698 -0.9473 -3.2646
  183POPC  C31421069   6.780   1.874   5.978  0.6710 -0.1548  0.4044
  183POPC  H14X21070   6.883   1.912   5.994  0.2828  1.7403 -1.2077
  183POPC  H14Y21071   6.716   1.965   5.968  0.8191 -0.0834  0.0804
  183POPC  C31521072   6.750   1.789   5.847 -0.1754 -0.0079 -0.2377
  183POPC  H15X21073   6.640   1.775   5.857 -0.0897 -0.6632 -0.1542
  183POPC  H15Y21074   6.801   1.691   5.851 -1.2671 -0.5539  2.2120
  183POPC  C31621075   6.788   1.861   5.720  0.0935 -0.8796  0.2030
  183POPC  H16X21076   6.755   1.966   5.735  3.8643  0.4865 -0.1340
  183POPC  H16Y21077   6.744   1.823   5.625 -1.4861 -1.1948  1.0178
  183POPC  H16Z21078   6.897   1.856   5.704  0.8019  1.4682  3.4717
  184POPC     N21079   5.247   4.386   7.721 -0.0025 -0.4076  0.5153
  184POPC   C1221080   5.311   4.431   7.588 -0.7676  0.2020 -0.1414
  184POPC  H12A21081   5.251   4.402   7.503 -2.0697 -1.8977  1.4101
  184POPC  H12B21082   5.404   4.376   7.583 -1.1805 -0.4440 -1.0270
  184POPC   C1321083   5.133   4.478   7.751 -0.0996  0.8100  0.0591
  184POPC  H13A21084   5.062   4.481   7.670 -1.0645 -3.1096  0.5776
  184POPC  H13B21085   5.090   4.443   7.844 -0.8455  0.2661 -0.4848
  184POPC  H13C21086   5.170   4.579   7.766  1.6512  0.2730 -0.4128
  184POPC   C1421087   5.222   4.244   7.722  0.3033 -0.1789  0.1214
  184POPC  H14A21088   5.174   4.206   7.811 -0.4065 -1.7322 -0.8835
  184POPC  H14B21089   5.161   4.210   7.640  1.6716  1.2364 -1.5583
  184POPC  H14C21090   5.310   4.183   7.708  0.2080  0.0281 -1.5931
  184POPC   C1521091   5.348   4.408   7.830 -0.0141 -0.2318 -0.5633
  184POPC  H15A21092   5.415   4.324   7.839  0.4155  0.2081  0.6361
  184POPC  H15B21093   5.305   4.436   7.925 -1.2730 -1.3583 -0.7703
  184POPC  H15C21094   5.409   4.495   7.814  0.1356  0.2335  2.0882
  184POPC   C1121095   5.340   4.585   7.576 -0.0114  0.6868  0.1717
  184POPC  H11A21096   5.245   4.643   7.575 -0.1730  0.4535 -1.5013
  184POPC  H11B21097   5.403   4.598   7.485  1.9302 -0.6929  1.2497
  184POPC     P21098   5.578   4.624   7.679 -0.1494 -0.0422 -0.2410
  184POPC   O1321099   5.617   4.540   7.565 -0.0575 -0.3635 -0.4190
  184POPC   O1421100   5.615   4.582   7.813 -0.0634  0.0612 -0.1325
  184POPC   O1221101   5.422   4.635   7.684 -0.1537 -0.3364  0.0719
  184POPC   O1121102   5.615   4.776   7.650 -0.1139  0.4375 -0.3986
  184POPC    C121103   5.534   4.888   7.672  0.4012 -0.1779  0.0791
  184POPC    HA21104   5.524   4.913   7.780 -1.2347 -2.2775  0.5127
  184POPC    HB21105   5.430   4.865   7.639 -0.9049  0.7803  3.1141
  184POPC    C221106   5.594   5.008   7.605 -0.3151  0.2251 -0.6727
  184POPC    HS21107   5.533   5.098   7.628  0.0627  0.3048  0.0442
  184POPC   O2121108   5.601   4.981   7.462 -0.3598 -0.0582  0.1315
  184POPC   C2121109   5.483   4.968   7.400 -0.5025 -0.3313  0.0931
  184POPC   O2221110   5.377   5.012   7.441 -0.1929  0.0255 -0.9532
  184POPC   C2221111   5.499   4.893   7.270 -0.1194 -0.5692 -0.4235
  184POPC   H2R21112   5.551   4.803   7.308 -0.8857  0.0468  2.3174
  184POPC   H2S21113   5.566   4.951   7.202 -0.9520  1.1236  0.1565
  184POPC    C321114   5.736   5.047   7.672  0.1610  0.2630  1.1362
  184POPC    HX21115   5.784   4.951   7.700 -1.0352  0.0070  2.4091
  184POPC    HY21116   5.715   5.099   7.768  0.0219  2.8224 -0.1945
  184POPC   O3121117   5.813   5.119   7.579 -0.1581  0.1972  0.5740
  184POPC   C3121118   5.910   5.062   7.505  0.1558 -0.0371 -0.1667
  184POPC   O3221119   5.941   4.944   7.511  0.3536  0.2147  0.8012
  184POPC   C3221120   5.973   5.162   7.418 -0.3513 -0.1472  0.0110
  184POPC   H2X21121   6.052   5.210   7.479  1.2273 -2.8461  0.2364
  184POPC   H2Y21122   5.894   5.231   7.378 -1.7824 -0.9652  1.3080
  184POPC   C2321123   5.361   4.868   7.209 -0.0919  1.0328  0.3407
  184POPC   H3R21124   5.295   4.949   7.171  1.4069  1.9189 -0.4486
  184POPC   H3S21125   5.299   4.812   7.283  0.6844 -2.1412 -1.2281
  184POPC   C2421126   5.372   4.759   7.107  0.6580 -0.3042  0.7038
  184POPC   H4R21127   5.436   4.678   7.147  1.4647  0.7453  1.6313
  184POPC   H4S21128   5.434   4.807   7.028 -0.5477 -2.4318 -1.6661
  184POPC   C2521129   5.238   4.719   7.038 -0.2518  0.1097 -0.8093
  184POPC   H5R21130   5.182   4.811   7.012  0.2652  0.7840  0.3847
  184POPC   H5S21131   5.173   4.676   7.118 -0.9482  1.9657 -0.3232
  184POPC   C2621132   5.241   4.631   6.915  0.3997  0.2488 -0.5589
  184POPC   H6R21133   5.281   4.693   6.832  2.4305 -0.3113 -0.0755
  184POPC   H6S21134   5.139   4.598   6.887  0.3212 -0.3260  0.3851
  184POPC   C2721135   5.330   4.504   6.929 -0.1857 -0.6904 -0.2050
  184POPC   H7R21136   5.272   4.439   6.997  0.0341  1.0987  1.7821
  184POPC   H7S21137   5.427   4.533   6.974 -0.0527 -3.4253  1.4953
  184POPC   C2821138   5.369   4.435   6.799  0.6432  0.4066 -0.1385
  184POPC   H8R21139   5.278   4.380   6.767  0.6922  1.2308 -1.8007
  184POPC   H8S21140   5.446   4.360   6.828 -0.8047 -0.5028  1.5058
  184POPC   C2921141   5.431   4.525   6.690 -0.4685 -0.7760  0.1462
  184POPC   H9121142   5.510   4.594   6.723 -0.3890  1.1233 -3.4558
  184POPC  C21021143   5.399   4.525   6.560 -0.0868  0.1108 -0.0752
  184POPC  H10121144   5.463   4.591   6.498  0.8902  1.1069  1.8989
  184POPC  C21121145   5.291   4.442   6.495  0.3100  0.3354 -0.5056
  184POPC  H11R21146   5.231   4.507   6.429  1.7460  2.1770 -0.0767
  184POPC  H11S21147   5.204   4.423   6.561  0.2748  0.1254 -0.6098
  184POPC  C21221148   5.326   4.311   6.423  0.3914 -0.1910  0.7335
  184POPC  H12R21149   5.357   4.236   6.499  1.7688  1.0981  1.5075
  184POPC  H12S21150   5.403   4.338   6.347 -0.5211  1.2313  0.2806
  184POPC  C21321151   5.211   4.248   6.350 -0.1207 -0.1319  0.0121
  184POPC  H13R21152   5.175   4.317   6.271 -1.0604  0.8813  1.2801
  184POPC  H13S21153   5.129   4.232   6.424  0.9440  1.1817  1.5490
  184POPC  C21421154   5.252   4.112   6.297 -0.4508  0.1931  0.1676
  184POPC  H14R21155   5.167   4.040   6.297 -0.4957  0.2397 -0.8686
  184POPC  H14S21156   5.328   4.062   6.361  1.6520  0.5990 -1.8868
  184POPC  C21521157   5.315   4.120   6.150  0.4731  0.5741  0.5790
  184POPC  H15R21158   5.424   4.137   6.158  0.6176 -0.5869  1.3005
  184POPC  H15S21159   5.272   4.208   6.095 -0.9581 -1.9677 -2.7608
  184POPC  C21621160   5.297   3.994   6.057  0.0900 -0.1192 -0.1230
  184POPC  H16R21161   5.351   4.000   5.961 -0.2359 -2.7076 -0.5582
  184POPC  H16S21162   5.189   3.970   6.051  0.1221  0.0427 -1.4460
  184POPC  C21721163   5.363   3.871   6.128 -0.3129  0.5166  0.0126
  184POPC  H17R21164   5.319   3.850   6.228 -0.3636 -0.4180 -0.2043
  184POPC  H17S21165   5.468   3.894   6.159  0.9383 -3.0275 -1.0906
  184POPC  C21821166   5.354   3.738   6.054  0.1918 -0.6080  0.3245
  184POPC  H18R21167   5.249   3.704   6.047  0.3619 -1.8962  2.7592
  184POPC  H18S21168   5.420   3.665   6.107  1.6013 -0.6101 -1.3388
  184POPC  H18T21169   5.392   3.732   5.950  2.5018  1.2707  0.9562
  184POPC   C3321170   6.044   5.085   7.298  0.2456 -0.0047 -0.9161
  184POPC   H3X21171   6.109   5.010   7.346 -0.4945  1.0446  1.9299
  184POPC   H3Y21172   6.108   5.149   7.233  0.6781 -1.5034 -2.0031
  184POPC   C3421173   5.944   5.022   7.201 -0.5700  0.7458 -0.3849
  184POPC   H4X21174   5.885   5.104   7.153  0.2707  0.9922 -1.0186
  184POPC   H4Y21175   5.863   4.967   7.253  1.4644 -1.5607  0.4992
  184POPC   C3521176   6.004   4.918   7.097 -0.3250 -0.3831 -0.1494
  184POPC   H5X21177   6.038   4.818   7.134  1.0221 -0.6111 -1.8649
  184POPC   H5Y21178   6.103   4.956   7.063  0.7899 -2.7169  0.2670
  184POPC   C3621179   5.904   4.891   6.981  0.9574  0.1945 -0.9228
  184POPC   H6X21180   5.833   4.976   6.977  0.0428 -0.4953 -0.0082
  184POPC   H6Y21181   5.845   4.804   7.019  0.3606  1.0662  0.2201
  184POPC   C3721182   5.959   4.876   6.840 -0.3794 -0.8372  0.4718
  184POPC   H7X21183   6.036   4.796   6.832  0.3044 -0.2331  0.9224
  184POPC   H7Y21184   6.011   4.969   6.810  2.1311 -2.4373 -0.4466
  184POPC   C3821185   5.853   4.834   6.740 -0.6385 -0.2118 -0.4327
  184POPC   H8X21186   5.764   4.898   6.756  0.5616  1.2613  0.6690
  184POPC   H8Y21187   5.826   4.730   6.768 -0.7208  0.0335  0.4257
  184POPC   C3921188   5.896   4.842   6.594 -0.0161  0.7118  0.2073
  184POPC   H9X21189   5.934   4.943   6.568  1.8352  0.2785  1.0820
  184POPC   H9Y21190   5.807   4.820   6.531  0.7265  4.1638 -2.4052
  184POPC  C31021191   5.994   4.736   6.544  0.5095 -0.0307  0.4231
  184POPC  H10X21192   5.956   4.644   6.594 -0.5882  0.5740  0.7193
  184POPC  H10Y21193   6.099   4.740   6.582  2.5976 -3.0056 -4.1042
  184POPC  C31121194   5.994   4.720   6.394 -0.0269 -1.1031  0.6039
  184POPC  H11X21195   5.972   4.820   6.349 -1.0045 -1.5503  0.0576
  184POPC  H11Y21196   5.909   4.653   6.370  0.7004 -2.1758  0.9615
  184POPC  C31221197   6.120   4.669   6.330  0.1531 -0.2805 -0.5446
  184POPC  H12X21198   6.155   4.575   6.377  0.1435  0.2963  0.6563
  184POPC  H12Y21199   6.196   4.748   6.346 -0.2647  0.1705 -0.7513
  184POPC  C31321200   6.087   4.659   6.180 -0.0697  0.6646  0.0297
  184POPC  H13X21201   6.086   4.758   6.128 -1.0104 -0.7615 -2.8941
  184POPC  H13Y21202   5.990   4.607   6.165  0.0854 -0.0891  1.4730
  184POPC  C31421203   6.201   4.590   6.110 -0.1816  0.5873  0.0952
  184POPC  H14X21204   6.297   4.609   6.163 -0.7858  0.3835  1.2760
  184POPC  H14Y21205   6.216   4.618   6.003  1.7301 -3.1323 -0.7942
  184POPC  C31521206   6.185   4.439   6.115  0.1857 -0.2029  0.5338
  184POPC  H15X21207   6.079   4.418   6.140 -0.4942  3.0370  0.7906
  184POPC  H15Y21208   6.259   4.401   6.190  1.5875 -1.3683 -1.3535
  184POPC  C31621209   6.216   4.359   5.987  0.2544  0.3799  0.3549
  184POPC  H16X21210   6.206   4.250   6.005  0.7150  0.3340  0.3578
  184POPC  H16Y21211   6.323   4.382   5.970  0.9065  0.8777  4.2126
  184POPC  H16Z21212   6.150   4.388   5.902  2.1972  0.8034 -1.0760
  185POPC     N21213   6.682   3.864   3.547 -0.3335 -0.0101 -0.2971
  185POPC   C1221214   6.683   3.962   3.430 -0.3489 -1.0129  0.6716
  185POPC  H12A21215   6.623   3.928   3.347 -0.2176  1.2220 -0.4279
  185POPC  H12B21216   6.783   3.966   3.391 -0.5679 -1.0545  0.0981
  185POPC   C1321217   6.714   3.724   3.500 -0.0443 -0.1931  0.2204
  185POPC  H13A21218   6.625   3.675   3.463 -0.2055 -0.7278  1.3102
  185POPC  H13B21219   6.775   3.726   3.410 -1.1711  1.1911 -0.5610
  185POPC  H13C21220   6.761   3.662   3.574 -0.4169 -0.7228  0.0191
  185POPC   C1421221   6.789   3.916   3.639 -0.2853 -0.1748  0.0473
  185POPC  H14A21222   6.798   3.872   3.737  2.5769  1.0789  0.4476
  185POPC  H14B21223   6.888   3.917   3.594 -0.7652 -0.5289 -1.0497
  185POPC  H14C21224   6.771   4.022   3.648  0.5808 -0.1069  1.1821
  185POPC   C1521225   6.556   3.868   3.630 -0.5940 -0.6938  0.2090
  185POPC  H15A21226   6.537   3.974   3.642 -0.8628 -0.4661 -1.7748
  185POPC  H15B21227   6.564   3.806   3.718  0.4239 -0.6696  0.1424
  185POPC  H15C21228   6.485   3.831   3.558  0.8138  0.9203 -2.1582
  185POPC   C1121229   6.637   4.115   3.460  0.7274 -0.8075 -0.2401
  185POPC  H11A21230   6.551   4.109   3.530  1.8146  0.7253  1.3001
  185POPC  H11B21231   6.600   4.154   3.363  0.3272 -0.8644 -0.1104
  185POPC     P21232   6.703   4.335   3.575  0.0332  0.0893  0.0941
  185POPC   O1321233   6.598   4.318   3.676 -0.4004 -0.3848  0.2211
  185POPC   O1421234   6.673   4.419   3.454 -0.3424  0.6496 -0.5648
  185POPC   O1221235   6.739   4.189   3.533 -0.0503 -0.5674 -0.0341
  185POPC   O1121236   6.840   4.393   3.641 -0.8843 -0.0352  0.0750
  185POPC    C121237   6.955   4.309   3.671  0.4066 -0.2300 -0.2141
  185POPC    HA21238   7.050   4.364   3.685  0.0617  0.4402 -0.4881
  185POPC    HB21239   6.973   4.233   3.592 -1.5258 -2.1029  1.0136
  185POPC    C221240   6.931   4.244   3.811 -0.1212 -0.4722  0.5916
  185POPC    HS21241   6.835   4.188   3.815 -0.3898  0.0489  2.6393
  185POPC   O2121242   6.944   4.351   3.903  0.5755 -0.1487 -0.4233
  185POPC   C2121243   6.862   4.336   4.009  0.7200  0.0154 -0.0671
  185POPC   O2221244   6.772   4.250   4.028  0.0748  0.0463 -0.0066
  185POPC   C2221245   6.887   4.446   4.105  0.1394 -0.1066 -0.2017
  185POPC   H2R21246   6.794   4.471   4.162 -0.0728 -0.7245 -0.2730
  185POPC   H2S21247   6.905   4.536   4.043  1.9334 -0.7702 -0.6843
  185POPC    C321248   7.045   4.139   3.833  0.4651  0.0232  0.2399
  185POPC    HX21249   7.137   4.187   3.794  0.4233 -1.6077 -2.0634
  185POPC    HY21250   7.021   4.062   3.756 -1.2917  0.1532  0.6155
  185POPC   O3121251   7.059   4.096   3.964 -0.5486  0.3631 -0.2818
  185POPC   C3121252   6.983   3.998   4.010  0.1948 -0.7260 -0.6594
  185POPC   O3221253   6.904   3.939   3.938  0.8001 -0.5159 -0.3821
  185POPC   C3221254   7.006   3.980   4.158 -0.8764  0.0344  0.3922
  185POPC   H2X21255   6.965   4.061   4.222  0.1206  0.2527  0.7811
  185POPC   H2Y21256   7.115   3.975   4.180 -0.3259  2.2575 -1.5314
  185POPC   C2321257   7.016   4.444   4.200  0.3155 -0.6229  0.1940
  185POPC   H3R21258   7.106   4.455   4.136 -0.9437 -2.7731 -2.1204
  185POPC   H3S21259   7.012   4.342   4.244 -1.8221 -0.9689 -0.6778
  185POPC   C2421260   7.011   4.541   4.314  0.2821 -0.7374  0.2826
  185POPC   H4R21261   6.962   4.629   4.267 -3.7371 -0.9894  3.4190
  185POPC   H4S21262   7.107   4.578   4.356 -0.7820  0.8189  1.4541
  185POPC   C2521263   6.919   4.511   4.433 -0.2125  0.1113 -0.5882
  185POPC   H5R21264   6.821   4.475   4.395 -1.1583  0.7861  1.0953
  185POPC   H5S21265   6.906   4.605   4.491 -0.7488  0.2436 -0.9227
  185POPC   C2621266   6.976   4.404   4.525  0.3660 -0.6218 -0.1425
  185POPC   H6R21267   7.074   4.444   4.560  1.0228  0.6159 -3.0919
  185POPC   H6S21268   6.997   4.311   4.467 -2.0142  0.1371 -2.4000
  185POPC   C2721269   6.881   4.371   4.636 -0.6139 -0.3709 -0.8608
  185POPC   H7R21270   6.794   4.316   4.594 -0.3727 -1.8526  0.4615
  185POPC   H7S21271   6.844   4.464   4.683 -0.1353 -1.3209  1.5770
  185POPC   C2821272   6.958   4.298   4.748 -0.4607  1.1358  0.1168
  185POPC   H8R21273   6.886   4.279   4.831  0.6325  0.4515  0.9398
  185POPC   H8S21274   7.038   4.365   4.786  1.0465 -1.7254  2.4783
  185POPC   C2921275   7.024   4.170   4.713  0.2271  0.1563 -0.6779
  185POPC   H9121276   7.099   4.183   4.633  0.0338  1.0374 -0.7219
  185POPC  C21021277   7.011   4.047   4.770 -0.5676  0.0715  0.1062
  185POPC  H10121278   7.077   3.964   4.740  2.6123  2.3387  0.3203
  185POPC  C21121279   6.920   4.013   4.885  0.4676 -0.0543  0.5788
  185POPC  H11R21280   6.837   3.943   4.859  0.1503 -0.5439  2.6898
  185POPC  H11S21281   6.862   4.097   4.928  0.3199  1.1854 -1.8907
  185POPC  C21221282   6.982   3.940   5.012  0.2168  0.4624 -0.5010
  185POPC  H12R21283   7.072   3.984   5.059 -1.4690  2.0937  1.3854
  185POPC  H12S21284   7.011   3.838   4.980 -0.8172 -0.9311  2.6942
  185POPC  C21321285   6.872   3.916   5.116  0.0272  0.0631 -0.0452
  185POPC  H13R21286   6.791   3.851   5.078 -0.3965  1.2250 -1.2241
  185POPC  H13S21287   6.827   4.012   5.148  0.9923 -0.0406  1.7545
  185POPC  C21421288   6.921   3.843   5.246 -0.6950 -0.3524 -0.1010
  185POPC  H14R21289   7.002   3.907   5.288 -1.4074  0.3183  0.2532
  185POPC  H14S21290   6.965   3.745   5.217  0.8974  1.1969 -3.5779
  185POPC  C21521291   6.820   3.817   5.355  0.3495 -0.6200 -0.1418
  185POPC  H15R21292   6.737   3.758   5.311  0.4312  0.1841 -1.4140
  185POPC  H15S21293   6.775   3.914   5.382 -0.0684 -0.8493 -0.0089
  185POPC  C21621294   6.864   3.749   5.488  0.5669  0.1329 -0.1550
  185POPC  H16R21295   6.788   3.773   5.565 -0.3877 -0.5688 -0.8407
  185POPC  H16S21296   6.961   3.800   5.502  0.6179  0.3165 -1.1230
  185POPC  C21721297   6.886   3.598   5.471  0.1009 -0.3060  0.1593
  185POPC  H17R21298   6.921   3.596   5.365  1.9506 -0.0074  0.7262
  185POPC  H17S21299   6.783   3.556   5.475 -0.6800  1.0152 -2.8344
  185POPC  C21821300   6.973   3.537   5.575 -0.5328 -0.0619 -0.3302
  185POPC  H18R21301   6.916   3.483   5.654  0.6629  0.0766  0.6643
  185POPC  H18S21302   7.042   3.615   5.612 -0.8138  0.4927 -0.9574
  185POPC  H18T21303   7.035   3.459   5.525  0.9307 -0.8040  2.4426
  185POPC   C3321304   6.940   3.849   4.211 -0.3523 -0.4029  0.7494
  185POPC   H3X21305   6.983   3.821   4.309 -0.2716 -0.5886  0.6630
  185POPC   H3Y21306   6.950   3.762   4.142  0.6301  0.5993 -0.4160
  185POPC   C3421307   6.792   3.873   4.240  0.0199  0.4369 -0.4430
  185POPC   H4X21308   6.742   3.919   4.152  0.4774  0.5584 -0.6433
  185POPC   H4Y21309   6.776   3.942   4.325 -1.0045  2.5138 -2.2113
  185POPC   C3521310   6.715   3.738   4.270  0.0518  0.4040 -0.4688
  185POPC   H5X21311   6.718   3.679   4.176  2.0198 -0.2223 -0.0640
  185POPC   H5Y21312   6.612   3.770   4.295 -0.0940 -0.6648  0.3638
  185POPC   C3621313   6.775   3.651   4.378 -0.3528 -0.6630 -0.1375
  185POPC   H6X21314   6.885   3.643   4.361 -0.4864 -0.6667 -1.0784
  185POPC   H6Y21315   6.726   3.553   4.360  0.1120 -0.3654 -3.7615
  185POPC   C3721316   6.752   3.689   4.524  0.3665 -0.3122 -0.4477
  185POPC   H7X21317   6.642   3.691   4.540  0.6584 -0.2801  1.8883
  185POPC   H7Y21318   6.793   3.790   4.547 -0.0900 -0.6296  2.0183
  185POPC   C3821319   6.820   3.597   4.618 -0.1874  1.4969 -1.1015
  185POPC   H8X21320   6.931   3.603   4.615 -0.1526  1.2846 -0.3715
  185POPC   H8Y21321   6.792   3.492   4.595  0.1138  1.1932 -0.1241
  185POPC   C3921322   6.792   3.623   4.774 -0.1900 -0.4211  0.5820
  185POPC   H9X21323   6.682   3.631   4.787 -0.3529  2.6150 -1.4589
  185POPC   H9Y21324   6.820   3.728   4.798  0.6502  0.0575 -2.1784
  185POPC  C31021325   6.853   3.505   4.868  0.0774 -0.0053  0.1628
  185POPC  H10X21326   6.964   3.500   4.870  0.1035  0.7358  1.6707
  185POPC  H10Y21327   6.809   3.413   4.824 -0.3658 -0.0810  0.7547
  185POPC  C31121328   6.805   3.516   5.009  0.1271 -0.0963  0.1269
  185POPC  H11X21329   6.697   3.541   5.006  0.3617  0.9800 -3.1783
  185POPC  H11Y21330   6.871   3.594   5.052 -1.0358  1.7560 -1.3133
  185POPC  C31221331   6.836   3.382   5.090  0.5881 -0.1659 -0.6667
  185POPC  H12X21332   6.775   3.291   5.073  0.1111  0.0679 -0.2358
  185POPC  H12Y21333   6.800   3.408   5.192 -1.8854 -1.6001 -1.0843
  185POPC  C31321334   6.987   3.346   5.096  0.3140  0.6392 -0.4304
  185POPC  H13X21335   7.050   3.432   5.126 -1.2911  1.8805 -0.4816
  185POPC  H13Y21336   7.033   3.314   4.999  0.1293  1.0072 -0.6413
  185POPC  C31421337   7.027   3.226   5.192  0.2598  0.5081  0.1006
  185POPC  H14X21338   6.967   3.135   5.173  0.0372  0.0413  2.6403
  185POPC  H14Y21339   6.988   3.255   5.292 -1.9902  0.6829 -0.7722
  185POPC  C31521340   7.179   3.196   5.195 -0.0987  0.5052 -0.6796
  185POPC  H15X21341   7.210   3.207   5.089 -0.1392 -1.3807 -0.9171
  185POPC  H15Y21342   7.206   3.096   5.235 -0.9263 -0.1493 -1.7286
  185POPC  C31621343   7.252   3.305   5.276 -0.0501  1.3361  0.2583
  185POPC  H16X21344   7.343   3.263   5.324 -0.8423 -1.3406 -0.4091
  185POPC  H16Y21345   7.186   3.353   5.352 -0.0626  0.0555  1.0951
  185POPC  H16Z21346   7.290   3.392   5.219 -0.0363  0.0612 -1.7587
  186POPC     N21347   0.339   0.195   3.526  0.6714  0.3924 -0.3801
  186POPC   C1221348   0.492   0.222   3.536  0.4465  0.2199 -0.5168
  186POPC  H12A21349   0.523   0.185   3.633  0.1848 -0.1327 -0.5683
  186POPC  H12B21350   0.506   0.329   3.536 -3.4750  0.8875  1.6146
  186POPC   C1321351   0.268   0.285   3.620  0.3401 -0.4424  0.3977
  186POPC  H13A21352   0.313   0.382   3.601  1.2697 -0.6667  1.3459
  186POPC  H13B21353   0.161   0.287   3.611  0.0474  1.1690  2.9802
  186POPC  H13C21354   0.289   0.253   3.721 -1.9314  0.1427  1.1183
  186POPC   C1421355   0.281   0.224   3.388  0.1253  0.2774 -0.2963
  186POPC  H14A21356   0.174   0.214   3.378 -0.4922  0.9557  3.9214
  186POPC  H14B21357   0.321   0.322   3.362  0.7235  0.0583 -0.2294
  186POPC  H14C21358   0.329   0.151   3.324 -1.2386 -2.4749  1.6590
  186POPC   C1521359   0.325   0.054   3.559  0.0958 -0.4409  0.2133
  186POPC  H15A21360   0.372  -0.015   3.490  0.6545  0.4551 -0.3148
  186POPC  H15B21361   0.222   0.022   3.561  0.0604 -0.3108  1.8470
  186POPC  H15C21362   0.361   0.042   3.660  0.5930  0.3186  0.1276
  186POPC   C1121363   0.577   0.145   3.429  0.0948  0.2709 -0.4225
  186POPC  H11A21364   0.557   0.037   3.448 -0.2458 -0.1042 -2.5951
  186POPC  H11B21365   0.686   0.158   3.443  0.3544 -1.1457 -0.9465
  186POPC     P21366   0.578   0.295   3.216  0.1884 -0.0968 -0.4155
  186POPC   O1321367   0.454   0.350   3.154 -0.2918  0.3762  0.1944
  186POPC   O1421368   0.687   0.255   3.124 -0.3529  0.1915  1.0629
  186POPC   O1221369   0.543   0.176   3.300  0.6700  0.3054  0.4479
  186POPC   O1121370   0.628   0.404   3.322  0.1563 -0.0555 -0.6670
  186POPC    C121371   0.751   0.471   3.298  0.5625  0.2565  0.0022
  186POPC    HA21372   0.752   0.566   3.355  2.1294  0.1862  0.1221
  186POPC    HB21373   0.763   0.501   3.191  0.3379  0.6130  0.0720
  186POPC    C221374   0.887   0.392   3.320 -0.3097 -0.3525 -0.0970
  186POPC    HS21375   0.900   0.310   3.246 -0.9240 -1.3455  0.8476
  186POPC   O2121376   0.885   0.348   3.462 -0.0946  0.0338 -0.3191
  186POPC   C2121377   0.964   0.251   3.483  0.4987  0.6778 -0.7792
  186POPC   O2221378   1.019   0.180   3.398  0.3462  0.0435 -0.5521
  186POPC   C2221379   0.985   0.235   3.637 -0.3925 -0.7114  0.6295
  186POPC   H2R21380   0.885   0.209   3.678 -1.7487  2.5574 -0.2263
  186POPC   H2S21381   1.010   0.337   3.675  0.7119 -0.7307 -0.0158
  186POPC    C321382   1.011   0.486   3.302  0.2893 -0.1873  0.0661
  186POPC    HX21383   1.002   0.521   3.197 -0.3878 -1.3872 -0.2925
  186POPC    HY21384   1.107   0.430   3.310  0.8639  0.8001  0.2673
  186POPC   O3121385   0.998   0.603   3.397  0.2455 -0.1759  0.0036
  186POPC   C3121386   1.100   0.624   3.484  0.4024  0.3405  0.2349
  186POPC   O3221387   1.202   0.558   3.498 -0.8107  0.0727  1.3026
  186POPC   C3221388   1.040   0.717   3.589  0.2763  0.0441 -0.0064
  186POPC   H2X21389   0.943   0.681   3.627  0.4623 -0.9070 -0.4173
  186POPC   H2Y21390   1.019   0.811   3.533 -0.9894  0.1695  0.6514
  186POPC   C2321391   1.097   0.128   3.672  0.5061  0.4764 -0.3563
  186POPC   H3R21392   1.202   0.155   3.646  1.1380 -1.9186 -0.5148
  186POPC   H3S21393   1.075   0.031   3.623 -1.2490 -0.2804  1.7714
  186POPC   C2421394   1.086   0.097   3.827 -0.3365  0.1314  0.1540
  186POPC   H4R21395   1.151   0.008   3.845 -0.1834  0.1448 -0.3114
  186POPC   H4S21396   0.980   0.071   3.848  0.2687 -1.9063  0.8962
  186POPC   C2521397   1.132   0.216   3.913 -0.1199 -0.0510 -0.4184
  186POPC   H5R21398   1.069   0.304   3.887  1.3530  1.4430  0.8563
  186POPC   H5S21399   1.235   0.233   3.877  0.1497  0.9559  0.7432
  186POPC   C2621400   1.128   0.185   4.063 -0.1303  0.7411 -0.3605
  186POPC   H6R21401   1.184   0.090   4.077 -0.8089  0.0954 -1.7991
  186POPC   H6S21402   1.024   0.180   4.103 -0.7234  1.3016 -1.7631
  186POPC   C2721403   1.198   0.290   4.157 -0.1905 -0.1335  0.4117
  186POPC   H7R21404   1.131   0.377   4.171 -0.2137  0.1930 -1.4902
  186POPC   H7S21405   1.293   0.318   4.106  0.6130 -0.7812  1.4902
  186POPC   C2821406   1.225   0.233   4.294 -0.3021 -0.2867 -0.1341
  186POPC   H8R21407   1.293   0.146   4.279 -0.1970  0.1850 -2.7646
  186POPC   H8S21408   1.134   0.180   4.330 -0.2308  0.8127  1.7978
  186POPC   C2921409   1.274   0.346   4.390  0.8786 -1.1406 -0.0695
  186POPC   H9121410   1.367   0.395   4.357  1.5312 -2.0417  0.3858
  186POPC  C21021411   1.226   0.369   4.514  0.6346 -0.6899 -0.0528
  186POPC  H10121412   1.262   0.460   4.564  0.5428  0.8109 -2.5592
  186POPC  C21121413   1.121   0.286   4.584 -0.0425  0.3654  0.0382
  186POPC  H11R21414   1.158   0.260   4.686 -0.5726  1.2858  0.4896
  186POPC  H11S21415   1.093   0.194   4.529  1.1861  1.6366 -2.9342
  186POPC  C21221416   0.990   0.372   4.604 -0.3319 -0.3904  0.0406
  186POPC  H12R21417   0.956   0.418   4.509 -0.0661  0.4203  0.3347
  186POPC  H12S21418   0.997   0.452   4.681 -2.4337  0.2594 -0.3660
  186POPC  C21321419   0.871   0.291   4.662  0.3805 -0.5913 -0.4251
  186POPC  H13R21420   0.840   0.199   4.607 -1.0104 -0.5413  0.2469
  186POPC  H13S21421   0.780   0.355   4.653  1.5389  1.0683 -0.7475
  186POPC  C21421422   0.888   0.251   4.810 -0.0412 -0.5995 -0.3571
  186POPC  H14R21423   0.907   0.339   4.874  2.3125 -1.6258  0.4866
  186POPC  H14S21424   0.979   0.187   4.817  0.4801 -0.2395 -2.8059
  186POPC  C21521425   0.757   0.188   4.864 -0.3193 -0.2532  0.3122
  186POPC  H15R21426   0.717   0.115   4.790 -2.3950  2.0970 -1.0457
  186POPC  H15S21427   0.683   0.270   4.863  0.3013  0.3313  1.1222
  186POPC  C21621428   0.773   0.130   5.001  0.5812 -0.5816 -0.1988
  186POPC  H16R21429   0.678   0.087   5.039  0.3166  1.5882  1.8131
  186POPC  H16S21430   0.799   0.210   5.073 -2.2162 -0.4778  0.8294
  186POPC  C21721431   0.878   0.019   5.021  0.2202 -0.9188  0.1504
  186POPC  H17R21432   0.975   0.071   5.005 -0.0214 -0.0454  1.3147
  186POPC  H17S21433   0.853  -0.055   4.942 -1.5066 -0.2017 -0.0181
  186POPC  C21821434   0.886  -0.048   5.154 -0.2803 -0.5209  0.4885
  186POPC  H18R21435   0.930   0.030   5.221 -0.3573 -0.5287  0.5488
  186POPC  H18S21436   0.787  -0.076   5.197  0.3751 -2.5149  0.7961
  186POPC  H18T21437   0.952  -0.135   5.139  0.8802  0.7292 -2.4734
  186POPC   C3321438   1.124   0.731   3.715  0.7274  0.4105  0.2332
  186POPC   H3X21439   1.088   0.825   3.762 -1.1539 -1.3805  2.6476
  186POPC   H3Y21440   1.226   0.748   3.675  0.9448 -0.6705  0.2883
  186POPC   C3421441   1.131   0.607   3.806 -0.0126  0.4384 -0.3884
  186POPC   H4X21442   1.238   0.586   3.827 -0.6908 -1.8800  1.0590
  186POPC   H4Y21443   1.104   0.521   3.741  0.2276 -0.6171  0.8824
  186POPC   C3521444   1.049   0.621   3.939  0.2467  0.7445  0.7891
  186POPC   H5X21445   1.098   0.698   4.003 -1.1675  2.5255 -0.1713
  186POPC   H5Y21446   1.043   0.526   3.996 -0.4407  0.9339  1.0358
  186POPC   C3621447   0.900   0.662   3.923  0.2412  0.0231  0.5181
  186POPC   H6X21448   0.842   0.613   3.842 -0.2180  1.1970  0.1175
  186POPC   H6Y21449   0.886   0.770   3.904 -0.3024 -0.1875 -0.3096
  186POPC   C3721450   0.805   0.621   4.039 -0.2302  0.4852 -0.1739
  186POPC   H7X21451   0.813   0.513   4.062  1.2254 -0.0797 -2.9152
  186POPC   H7Y21452   0.698   0.628   4.012 -0.6273 -3.0044  0.0487
  186POPC   C3821453   0.831   0.694   4.166 -0.2817 -0.3036  0.5836
  186POPC   H8X21454   0.835   0.805   4.168 -2.1068 -0.1978  2.9334
  186POPC   H8Y21455   0.935   0.667   4.195  0.2244  1.7023  0.7975
  186POPC   C3921456   0.746   0.650   4.280  0.1325 -0.0789 -0.5354
  186POPC   H9X21457   0.763   0.541   4.290 -1.1728 -0.2363  0.2372
  186POPC   H9Y21458   0.639   0.672   4.256 -0.3007 -0.9736  0.4824
  186POPC  C31021459   0.776   0.715   4.412 -0.7192  0.5433 -1.0630
  186POPC  H10X21460   0.748   0.823   4.411  1.2743  1.1562  0.9333
  186POPC  H10Y21461   0.885   0.722   4.435 -1.1147 -0.9091  1.5199
  186POPC  C31121462   0.707   0.648   4.525  0.0723 -0.2115 -0.7039
  186POPC  H11X21463   0.746   0.544   4.530  0.9637  0.1729  1.4920
  186POPC  H11Y21464   0.596   0.654   4.514  0.3467  1.0296 -3.4018
  186POPC  C31221465   0.746   0.705   4.662  0.0991 -0.1554 -0.2955
  186POPC  H12X21466   0.741   0.816   4.667 -0.0426 -0.0345 -2.4751
  186POPC  H12Y21467   0.853   0.685   4.682  0.2810  0.0671 -1.0123
  186POPC  C31321468   0.664   0.650   4.780 -0.2341 -0.4294  0.4357
  186POPC  H13X21469   0.662   0.540   4.769 -0.7881 -0.5748  1.7650
  186POPC  H13Y21470   0.559   0.686   4.778  0.5376  2.0224  0.2198
  186POPC  C31421471   0.722   0.670   4.922  0.6632  0.0421  0.4506
  186POPC  H14X21472   0.742   0.776   4.944 -2.0749  0.4598  1.3793
  186POPC  H14Y21473   0.819   0.616   4.931  0.2113 -0.8227  0.3354
  186POPC  C31521474   0.625   0.603   5.021 -0.2588  0.1105  0.6438
  186POPC  H15X21475   0.623   0.497   4.988 -0.8784  1.1051 -2.9401
  186POPC  H15Y21476   0.528   0.653   4.999 -1.1919 -2.4635 -1.5069
  186POPC  C31621477   0.667   0.625   5.165 -0.2165  0.0802 -0.1882
  186POPC  H16X21478   0.757   0.562   5.179 -1.3822 -1.6284 -0.0358
  186POPC  H16Y21479   0.587   0.583   5.229  1.1316 -2.7765 -0.2244
  186POPC  H16Z21480   0.685   0.732   5.188 -0.3798  0.2561 -0.8703
  187POPC     N21481   4.753   2.584   2.869 -0.2981 -0.3301  0.3527
  187POPC   C1221482   4.813   2.441   2.864 -0.7332 -0.4539 -0.6609
  187POPC  H12A21483   4.838   2.427   2.760  1.9277  0.3442 -0.2185
  187POPC  H12B21484   4.732   2.375   2.888 -2.1720  1.4008 -0.2228
  187POPC   C1321485   4.765   2.639   3.012  0.1494 -0.6243  0.0893
  187POPC  H13A21486   4.722   2.736   3.028  1.7441  0.1673 -0.2339
  187POPC  H13B21487   4.724   2.567   3.082  1.4373  0.2431  1.8113
  187POPC  H13C21488   4.866   2.655   3.048  0.0407  0.5327 -0.0935
  187POPC   C1421489   4.851   2.664   2.785 -0.5190 -0.2515 -0.3635
  187POPC  H14A21490   4.941   2.673   2.845  0.1026  0.3116 -1.3595
  187POPC  H14B21491   4.870   2.624   2.687 -1.3601  2.8322 -1.9222
  187POPC  H14C21492   4.821   2.768   2.783  1.6596  0.4337 -0.7437
  187POPC   C1521493   4.610   2.593   2.827 -0.0501 -0.4010 -0.1839
  187POPC  H15A21494   4.593   2.534   2.738  1.2582 -0.5456 -0.3517
  187POPC  H15B21495   4.574   2.694   2.820  1.3057  0.4787  3.3016
  187POPC  H15C21496   4.553   2.552   2.910  0.0958 -0.8530 -0.3013
  187POPC   C1121497   4.938   2.400   2.948  0.0476  0.6447 -0.1957
  187POPC  H11A21498   4.950   2.294   2.917  1.4814  0.9511 -0.7570
  187POPC  H11B21499   4.912   2.393   3.056  2.7902  1.8419  0.6212
  187POPC     P21500   5.181   2.460   2.995 -0.0091 -0.1517 -0.1510
  187POPC   O1321501   5.268   2.559   2.935 -0.2160 -0.0084  0.2226
  187POPC   O1421502   5.218   2.314   2.987 -0.2754  0.1282 -0.0213
  187POPC   O1221503   5.049   2.479   2.919  0.3279  0.1699  0.4084
  187POPC   O1121504   5.152   2.498   3.143  0.3153  0.3101  0.1194
  187POPC    C121505   5.124   2.632   3.185  0.1699  0.2880  0.2892
  187POPC    HA21506   5.047   2.637   3.265  0.4432  3.3696  0.4564
  187POPC    HB21507   5.094   2.697   3.101  1.4107 -1.5547 -1.6844
  187POPC    C221508   5.247   2.700   3.242  0.3533  0.4915  0.4965
  187POPC    HS21509   5.321   2.699   3.159  1.2231 -0.2769  1.2585
  187POPC   O2121510   5.287   2.625   3.361 -0.1198  0.2393  0.2605
  187POPC   C2121511   5.372   2.527   3.346  0.3283 -0.0499  0.0352
  187POPC   O2221512   5.434   2.495   3.245  0.2205 -0.5591 -0.0545
  187POPC   C2221513   5.368   2.444   3.468 -0.2005 -0.4067 -0.3329
  187POPC   H2R21514   5.295   2.361   3.463 -2.3708  1.0882  2.8163
  187POPC   H2S21515   5.343   2.518   3.548  1.1310  0.3360 -0.5721
  187POPC    C321516   5.220   2.845   3.282  0.7037 -0.2786  0.2889
  187POPC    HX21517   5.186   2.901   3.192 -2.1921 -0.2362  1.2943
  187POPC    HY21518   5.317   2.888   3.314  0.8885 -0.0952 -0.4974
  187POPC   O3121519   5.117   2.842   3.388 -0.3569 -1.0863  0.4327
  187POPC   C3121520   5.164   2.864   3.504  0.2333  0.6899  0.5679
  187POPC   O3221521   5.279   2.854   3.540 -0.1394 -0.6262  0.1091
  187POPC   C3221522   5.047   2.892   3.601 -0.0120  0.5755  0.3549
  187POPC   H2X21523   4.981   2.803   3.595 -0.6417  0.8277  2.4728
  187POPC   H2Y21524   4.990   2.985   3.579 -1.4246 -0.5039 -0.7488
  187POPC   C2321525   5.509   2.379   3.502 -0.0304 -0.1597 -0.5719
  187POPC   H3R21526   5.579   2.464   3.510 -0.6724  0.5373 -1.9963
  187POPC   H3S21527   5.541   2.321   3.413 -0.3039  0.6301 -1.1982
  187POPC   C2421528   5.511   2.290   3.627  0.3305  1.0640  0.1466
  187POPC   H4R21529   5.607   2.236   3.625  0.6076  1.5151  0.7009
  187POPC   H4S21530   5.429   2.216   3.615 -0.8499  2.3258  0.1523
  187POPC   C2521531   5.487   2.362   3.756 -0.1760  0.1650 -0.3220
  187POPC   H5R21532   5.388   2.410   3.739 -1.8406 -2.2200  1.8719
  187POPC   H5S21533   5.559   2.444   3.773  1.1961 -0.9727 -0.4625
  187POPC   C2621534   5.499   2.277   3.881  0.0352  0.2808 -0.1773
  187POPC   H6R21535   5.604   2.241   3.885 -0.0116  0.2515  1.3459
  187POPC   H6S21536   5.430   2.191   3.876  0.7454 -0.3458  0.5828
  187POPC   C2721537   5.483   2.361   4.014 -0.9623  0.1687 -0.0589
  187POPC   H7R21538   5.386   2.417   4.013 -2.4914 -2.3373 -1.2831
  187POPC   H7S21539   5.569   2.431   4.008 -1.6065  0.9140 -1.0305
  187POPC   C2821540   5.488   2.280   4.145 -0.5214  0.0235 -0.1535
  187POPC   H8R21541   5.405   2.206   4.138 -0.4544 -0.0720  0.0494
  187POPC   H8S21542   5.450   2.350   4.222 -0.9635 -0.1602 -0.1997
  187POPC   C2921543   5.621   2.211   4.174 -0.1183 -0.2401  0.3647
  187POPC   H9121544   5.653   2.124   4.115 -0.4184  0.9586 -1.6566
  187POPC  C21021545   5.700   2.258   4.267  0.4070  0.1170 -0.0357
  187POPC  H10121546   5.794   2.205   4.292 -0.4680 -1.1345  0.6935
  187POPC  C21121547   5.676   2.380   4.354  0.0481 -0.5736  0.7642
  187POPC  H11R21548   5.634   2.466   4.297  1.6304 -1.6000 -2.1641
  187POPC  H11S21549   5.777   2.421   4.376  1.0805 -0.8862 -2.7798
  187POPC  C21221550   5.609   2.358   4.489 -0.2036  0.4799  0.0351
  187POPC  H12R21551   5.614   2.453   4.547 -0.7510  0.3342  0.3195
  187POPC  H12S21552   5.660   2.277   4.545 -0.3282  0.3399 -0.0554
  187POPC  C21321553   5.455   2.328   4.493 -0.0420 -0.0405 -0.7561
  187POPC  H13R21554   5.441   2.227   4.449  0.5752  0.3089 -1.7844
  187POPC  H13S21555   5.397   2.397   4.428  1.3199 -0.8935 -2.9801
  187POPC  C21421556   5.386   2.331   4.635  0.2525  0.2399 -0.0902
  187POPC  H14R21557   5.279   2.319   4.606  0.9723 -1.2853 -2.4261
  187POPC  H14S21558   5.407   2.432   4.674  0.5127  0.3701 -0.5549
  187POPC  C21521559   5.442   2.223   4.729  0.2526  0.9096  0.1063
  187POPC  H15R21560   5.552   2.235   4.734  0.4615 -1.0058  0.9504
  187POPC  H15S21561   5.414   2.128   4.678 -3.0794  1.6262  0.3714
  187POPC  C21621562   5.396   2.231   4.874 -0.2043 -0.5516  0.7616
  187POPC  H16R21563   5.432   2.139   4.925  1.9567  0.4418  1.1549
  187POPC  H16S21564   5.286   2.236   4.861 -0.0380 -1.3873 -1.4782
  187POPC  C21721565   5.459   2.339   4.969  0.3679  0.5415  0.8706
  187POPC  H17R21566   5.394   2.338   5.059  0.6783  2.2366  1.1371
  187POPC  H17S21567   5.450   2.440   4.924  1.5891  0.1710 -0.2818
  187POPC  C21821568   5.606   2.311   4.999 -0.0192 -0.3217  0.0533
  187POPC  H18R21569   5.666   2.396   5.037  2.1016 -0.9307 -1.7533
  187POPC  H18S21570   5.666   2.280   4.911 -0.7807  1.8596 -1.3115
  187POPC  H18T21571   5.614   2.241   5.085  1.0875  1.6839  1.6970
  187POPC   C3321572   5.093   2.902   3.750  0.0210 -0.0001  0.7970
  187POPC   H3X21573   5.149   2.997   3.757  0.4149  0.3948 -4.3569
  187POPC   H3Y21574   5.163   2.817   3.763  0.4009 -0.3499 -2.6853
  187POPC   C3421575   4.970   2.911   3.835 -0.3928  0.7517 -0.4071
  187POPC   H4X21576   4.902   2.831   3.799 -0.1500  0.0578  0.6270
  187POPC   H4Y21577   4.933   3.013   3.812 -2.2386  0.3747  0.7097
  187POPC   C3521578   5.000   2.888   3.978 -0.5529  0.0556  0.3291
  187POPC   H5X21579   5.067   2.970   4.012 -0.6109  0.4383 -0.4567
  187POPC   H5Y21580   5.052   2.792   3.996 -1.9784 -1.1089 -1.4251
  187POPC   C3621581   4.886   2.898   4.077 -0.1113  0.2278 -0.2392
  187POPC   H6X21582   4.815   2.817   4.050 -0.4193 -0.4932  2.4468
  187POPC   H6Y21583   4.835   2.993   4.051 -1.8924 -0.3919  0.8543
  187POPC   C3721584   4.936   2.896   4.219 -0.4807  0.1598 -1.0862
  187POPC   H7X21585   4.984   2.992   4.248  0.1511 -1.0679  2.5287
  187POPC   H7Y21586   5.011   2.815   4.232 -0.5585  0.4454  1.9412
  187POPC   C3821587   4.815   2.880   4.327 -0.7865  0.0581 -0.5448
  187POPC   H8X21588   4.750   2.798   4.291 -1.2196  0.8971 -1.7657
  187POPC   H8Y21589   4.755   2.973   4.313 -1.6137 -0.5525 -1.0850
  187POPC   C3921590   4.860   2.884   4.472 -0.0937  0.2550 -0.5575
  187POPC   H9X21591   4.928   2.971   4.478  1.5609 -0.7591 -3.3375
  187POPC   H9Y21592   4.921   2.793   4.488  0.0496  0.0485 -2.1454
  187POPC  C31021593   4.738   2.897   4.575 -0.7088 -0.5094  0.5796
  187POPC  H10X21594   4.656   2.822   4.568  0.5971 -1.9936  0.7776
  187POPC  H10Y21595   4.686   2.992   4.549 -0.1433 -0.7054 -1.4447
  187POPC  C31121596   4.793   2.893   4.717  1.2278 -0.2097 -0.8504
  187POPC  H11X21597   4.875   2.968   4.714  2.4921 -1.3805  1.5275
  187POPC  H11Y21598   4.836   2.794   4.741  0.2651 -0.1310  1.4564
  187POPC  C31221599   4.683   2.933   4.822 -0.4961 -0.6832 -0.2533
  187POPC  H12X21600   4.595   2.869   4.801 -0.1415 -1.4647  0.6085
  187POPC  H12Y21601   4.664   3.041   4.802 -1.7169 -0.6750  0.8355
  187POPC  C31321602   4.728   2.917   4.968  0.0640  0.5176 -0.8706
  187POPC  H13X21603   4.839   2.912   4.967  0.0657 -0.6347  0.9435
  187POPC  H13Y21604   4.700   2.822   5.019  2.4321  0.2938  0.1528
  187POPC  C31421605   4.697   3.042   5.047 -0.4905 -0.7159  0.6628
  187POPC  H14X21606   4.597   3.077   5.015 -1.0948 -1.9587  1.1489
  187POPC  H14Y21607   4.764   3.131   5.036 -1.5752  0.1461  0.8576
  187POPC  C31521608   4.673   3.012   5.190 -0.2500 -0.4500 -0.4033
  187POPC  H15X21609   4.765   3.008   5.253 -0.3498  0.7721 -0.1502
  187POPC  H15Y21610   4.627   2.912   5.197  1.7965 -1.5424 -1.6733
  187POPC  C31621611   4.569   3.107   5.255 -0.5539 -0.9575  0.7485
  187POPC  H16X21612   4.555   3.070   5.358  0.0707 -3.2465  0.0716
  187POPC  H16Y21613   4.471   3.098   5.204 -0.9828  2.8064  0.5793
  187POPC  H16Z21614   4.593   3.214   5.234 -0.2479 -1.2862 -0.7187
  188POPC     N21615   1.076   4.427   2.983 -0.3667  0.0558  0.2456
  188POPC   C1221616   0.960   4.330   3.000 -0.0378 -0.2556  0.3783
  188POPC  H12A21617   1.002   4.238   3.037  1.2431  0.6060  1.1269
  188POPC  H12B21618   0.928   4.295   2.903 -0.3076  1.1049 -0.0397
  188POPC   C1321619   1.174   4.380   2.876  0.2881 -0.2161  0.0191
  188POPC  H13A21620   1.211   4.285   2.914  1.2123 -0.0660 -0.4822
  188POPC  H13B21621   1.125   4.358   2.783 -0.3671  0.8479  0.0901
  188POPC  H13C21622   1.262   4.441   2.863  0.6256 -0.9478 -1.2405
  188POPC   C1421623   1.018   4.556   2.944 -0.4165  0.2958  0.1228
  188POPC  H14A21624   1.075   4.630   2.998  0.5045 -1.3199  1.4533
  188POPC  H14B21625   1.026   4.563   2.836 -0.8577 -0.9575  0.0019
  188POPC  H14C21626   0.919   4.579   2.979 -0.8211 -0.0597 -0.7435
  188POPC   C1521627   1.149   4.434   3.118  0.1824 -0.3281  0.0393
  188POPC  H15A21628   1.230   4.503   3.100 -1.0076  0.8909 -0.7920
  188POPC  H15B21629   1.185   4.334   3.139  0.8188  0.1019  1.0490
  188POPC  H15C21630   1.088   4.470   3.199  1.3048  0.9315  0.3563
  188POPC   C1121631   0.830   4.367   3.065 -1.4525 -0.2923 -0.0708
  188POPC  H11A21632   0.750   4.298   3.030  0.3040 -1.4083 -2.1319
  188POPC  H11B21633   0.794   4.468   3.038 -0.0727  0.2316 -0.0596
  188POPC     P21634   0.849   4.212   3.279 -0.0908  0.0484  0.1680
  188POPC   O1321635   0.968   4.137   3.236  0.0612  0.5088  0.3323
  188POPC   O1421636   0.719   4.147   3.268 -0.3787 -0.7236  0.4911
  188POPC   O1221637   0.850   4.357   3.208 -0.1408 -0.6388 -0.0285
  188POPC   O1121638   0.862   4.248   3.434 -0.0721 -0.5209 -0.0357
  188POPC    C121639   0.941   4.362   3.465  0.7226 -0.3280  0.6792
  188POPC    HA21640   0.884   4.455   3.444  1.2265  0.1522  1.3999
  188POPC    HB21641   1.027   4.368   3.395  0.9403 -0.5731  0.9189
  188POPC    C221642   0.978   4.375   3.612 -0.2647 -0.0226 -0.1257
  188POPC    HS21643   1.029   4.471   3.634 -0.2741 -0.0033 -0.1890
  188POPC   O2121644   1.070   4.267   3.648  0.8166 -0.3567  0.5523
  188POPC   C2121645   1.188   4.271   3.594  0.4431  0.4861 -1.3059
  188POPC   O2221646   1.233   4.368   3.537  0.3046 -0.0008 -0.2224
  188POPC   C2221647   1.255   4.141   3.612 -0.7619 -0.3890  0.4817
  188POPC   H2R21648   1.293   4.108   3.513  0.4137 -0.0521  0.7995
  188POPC   H2S21649   1.184   4.070   3.659  0.1141 -2.4838 -1.2203
  188POPC    C321650   0.851   4.387   3.709 -0.0375 -0.4096 -0.0953
  188POPC    HX21651   0.788   4.298   3.690 -3.5293  1.9245 -0.3140
  188POPC    HY21652   0.797   4.481   3.684  3.0274  1.4905 -0.1858
  188POPC   O3121653   0.896   4.402   3.845  0.3029  0.0064  0.2376
  188POPC   C3121654   0.819   4.338   3.933 -0.3212 -0.6237  0.2007
  188POPC   O3221655   0.726   4.266   3.902  0.0953 -0.2646 -0.4588
  188POPC   C3221656   0.874   4.375   4.069  0.1450 -0.5389  0.0082
  188POPC   H2X21657   0.854   4.483   4.082  1.0386 -0.4381  0.6283
  188POPC   H2Y21658   0.985   4.367   4.057 -0.0121 -1.2861 -1.1961
  188POPC   C2321659   1.379   4.145   3.709 -0.2044  1.0526  0.0301
  188POPC   H3R21660   1.467   4.194   3.661  1.3213 -0.2251  1.4184
  188POPC   H3S21661   1.414   4.040   3.715  2.6118  1.9681  1.7101
  188POPC   C2421662   1.347   4.194   3.854  0.2168  0.4778 -0.1888
  188POPC   H4R21663   1.239   4.219   3.855  0.3674  1.1907 -0.9322
  188POPC   H4S21664   1.395   4.291   3.875  1.6751 -0.0881 -0.8184
  188POPC   C2521665   1.373   4.098   3.970 -0.2987  0.3061 -0.2051
  188POPC   H5R21666   1.480   4.069   3.960 -0.3382  0.5691 -1.6776
  188POPC   H5S21667   1.320   4.001   3.953  2.0465 -0.6491 -2.7276
  188POPC   C2621668   1.333   4.158   4.108 -0.4428 -0.8401  0.5574
  188POPC   H6R21669   1.223   4.172   4.109 -0.4371 -0.6176  2.9353
  188POPC   H6S21670   1.386   4.255   4.119  1.4715 -1.9524  1.6861
  188POPC   C2721671   1.376   4.064   4.220 -0.3581 -0.4727  0.3791
  188POPC   H7R21672   1.485   4.039   4.215 -0.3974 -0.4518 -1.0897
  188POPC   H7S21673   1.327   3.965   4.209  2.4058 -2.0124  0.7741
  188POPC   C2821674   1.342   4.119   4.357  0.2474 -0.4507  0.3109
  188POPC   H8R21675   1.371   4.225   4.370 -1.2595  0.1082 -0.5894
  188POPC   H8S21676   1.390   4.051   4.430 -0.4926 -0.3645  0.8967
  188POPC   C2921677   1.189   4.124   4.367  0.0113 -0.0063 -0.6942
  188POPC   H9121678   1.129   4.102   4.277 -2.9032  0.5123  0.9978
  188POPC  C21021679   1.118   4.139   4.480 -0.6698 -0.0647  0.9091
  188POPC  H10121680   1.009   4.146   4.478 -0.8117 -1.3161 -2.2284
  188POPC  C21121681   1.179   4.148   4.614 -0.2286  0.0555 -0.7601
  188POPC  H11R21682   1.152   4.246   4.659  0.4251  0.0130 -0.2438
  188POPC  H11S21683   1.290   4.140   4.613 -0.1764  0.7697 -1.3524
  188POPC  C21221684   1.136   4.036   4.716  1.1653 -0.4172  0.5624
  188POPC  H12R21685   1.195   4.036   4.810  0.5534  1.7474  1.0057
  188POPC  H12S21686   1.147   3.936   4.667  1.8942  0.5205 -1.2603
  188POPC  C21321687   0.990   4.045   4.756  0.1996  0.7648 -0.1083
  188POPC  H13R21688   0.929   4.045   4.663  2.0001  1.1239 -1.3495
  188POPC  H13S21689   0.979   4.149   4.792 -0.1302  1.3708 -1.8846
  188POPC  C21421690   0.946   3.936   4.864  1.2838  0.4398  0.0025
  188POPC  H14R21691   1.002   3.930   4.959  0.3279  1.4454  0.6599
  188POPC  H14S21692   0.962   3.840   4.810  1.0660 -0.3322  1.2829
  188POPC  C21521693   0.794   3.943   4.880 -0.3812 -0.4290 -0.3203
  188POPC  H15R21694   0.741   3.942   4.783 -2.4266  0.1027  0.7364
  188POPC  H15S21695   0.771   4.044   4.921  1.7003 -0.2434  0.5630
  188POPC  C21621696   0.742   3.840   4.978  0.3522 -0.2045  0.4549
  188POPC  H16R21697   0.767   3.740   4.936  2.5341 -0.1762  1.5485
  188POPC  H16S21698   0.631   3.845   4.979  0.3227  1.9235 -2.5238
  188POPC  C21721699   0.787   3.874   5.121 -0.1633  0.3629  0.3726
  188POPC  H17R21700   0.799   3.984   5.129  0.3777  0.3897 -0.6586
  188POPC  H17S21701   0.895   3.848   5.133 -0.1904 -0.0967 -0.3106
  188POPC  C21821702   0.714   3.798   5.235 -0.3935  0.4664 -0.2044
  188POPC  H18R21703   0.604   3.811   5.240 -0.6117 -1.1830 -0.0508
  188POPC  H18S21704   0.764   3.819   5.332 -3.1857 -0.9143  1.6520
  188POPC  H18T21705   0.715   3.689   5.217 -1.2348  0.0213  2.0937
  188POPC   C3321706   0.823   4.281   4.179  0.3123  0.6382  0.3297
  188POPC   H3X21707   0.872   4.182   4.169 -1.7206 -0.3253 -0.7290
  188POPC   H3Y21708   0.719   4.257   4.149 -0.1318  0.7966  1.6938
  188POPC   C3421709   0.814   4.336   4.315 -0.7743  0.1916  0.1648
  188POPC   H4X21710   0.750   4.426   4.304 -0.9748 -0.1572 -1.9920
  188POPC   H4Y21711   0.912   4.368   4.357 -0.4817  0.1036 -0.4373
  188POPC   C3521712   0.746   4.232   4.410 -1.4666 -0.1638  0.2888
  188POPC   H5X21713   0.806   4.139   4.405 -1.2493 -0.0003 -0.1940
  188POPC   H5Y21714   0.650   4.194   4.369 -0.4374 -1.9657 -0.5614
  188POPC   C3621715   0.742   4.288   4.552  0.1248 -0.4881 -0.1846
  188POPC   H6X21716   0.845   4.295   4.593 -0.1998  0.9804  0.4583
  188POPC   H6Y21717   0.687   4.207   4.603  1.0628 -0.8686  0.2498
  188POPC   C3721718   0.667   4.420   4.586  0.0885 -0.0647 -0.7715
  188POPC   H7X21719   0.614   4.436   4.489  0.2534 -1.3146 -1.0819
  188POPC   H7Y21720   0.732   4.510   4.585  1.1498 -0.8142 -1.8139
  188POPC   C3821721   0.578   4.421   4.719  0.4421 -0.1816  0.0108
  188POPC   H8X21722   0.507   4.336   4.726 -1.7669  1.5681 -0.0776
  188POPC   H8Y21723   0.509   4.508   4.717 -0.5436 -0.9351  0.6244
  188POPC   C3921724   0.659   4.443   4.843  0.1863 -0.6600  1.0289
  188POPC   H9X21725   0.602   4.497   4.921  0.7375  0.4277  0.7119
  188POPC   H9Y21726   0.738   4.517   4.814 -2.0923  0.7728 -2.2446
  188POPC  C31021727   0.718   4.312   4.894  0.8357  0.5582 -0.0689
  188POPC  H10X21728   0.813   4.290   4.840  1.6083 -1.2133  1.8614
  188POPC  H10Y21729   0.652   4.224   4.881  0.1219  0.9786  0.5853
  188POPC  C31121730   0.763   4.319   5.040 -0.0525  0.1051  0.4922
  188POPC  H11X21731   0.806   4.417   5.072 -0.7291  0.9093 -0.9528
  188POPC  H11Y21732   0.843   4.244   5.056 -0.7043 -0.7076 -0.0051
  188POPC  C31221733   0.639   4.285   5.132  0.4598 -1.3036  0.0807
  188POPC  H12X21734   0.596   4.189   5.098  0.7351 -0.9116 -1.4472
  188POPC  H12Y21735   0.556   4.359   5.133  1.8491  0.3126  0.3951
  188POPC  C31321736   0.677   4.268   5.281 -0.3355  0.1728 -0.0124
  188POPC  H13X21737   0.709   4.370   5.312 -3.2077  1.5669 -1.1490
  188POPC  H13Y21738   0.767   4.204   5.278 -0.0295  0.6405 -1.3889
  188POPC  C31421739   0.585   4.197   5.372  0.1114  0.3023 -0.1041
  188POPC  H14X21740   0.590   4.088   5.351  3.8914  0.3617 -0.2160
  188POPC  H14Y21741   0.479   4.231   5.365 -0.6369 -1.9832 -0.7904
  188POPC  C31521742   0.628   4.211   5.521 -0.3026  0.9311 -0.1503
  188POPC  H15X21743   0.723   4.153   5.530  0.3775  1.4318 -3.0773
  188POPC  H15Y21744   0.556   4.161   5.590  2.1197  0.4900  2.2667
  188POPC  C31621745   0.648   4.358   5.565  0.4538 -0.9544 -0.2784
  188POPC  H16X21746   0.601   4.436   5.501  2.0347  0.1900 -0.0985
  188POPC  H16Y21747   0.755   4.387   5.551  0.9742 -2.3792  0.5686
  188POPC  H16Z21748   0.633   4.379   5.673 -0.5139  1.5661 -0.8367
  189SAPI   C1221749   0.877   4.532   7.490  0.4206  0.5357 -0.0531
  189SAPI    H221750   0.776   4.548   7.533  0.4933  1.2402 -0.1340
  189SAPI    O221751   0.974   4.521   7.585  0.1301 -0.1782 -0.1426
  189SAPI   HO221752   0.982   4.613   7.611 -2.4848 -0.4763  2.1931
  189SAPI   C1321753   0.872   4.408   7.407 -0.2634 -0.3671  0.4987
  189SAPI    H321754   0.797   4.424   7.326  1.3452  1.9144 -0.6420
  189SAPI    O321755   0.834   4.293   7.475 -0.1138  0.6460  0.1361
  189SAPI   HO321756   0.895   4.297   7.550  1.0990 -3.4019 -0.4284
  189SAPI   C1421757   1.010   4.384   7.337  0.2823  0.1184 -0.1419
  189SAPI    H421758   1.070   4.335   7.417  0.8470 -0.4709 -0.9089
  189SAPI    O421759   1.000   4.282   7.235 -0.7357 -0.1247  0.8248
  189SAPI   HO421760   1.045   4.202   7.263  0.2457  0.5203  1.1309
  189SAPI   C1521761   1.079   4.505   7.287 -0.1100  0.7972  0.2661
  189SAPI    H521762   1.074   4.510   7.176  0.4883  1.5491  0.2583
  189SAPI    O521763   1.227   4.488   7.308 -0.4141  0.3202  0.1769
  189SAPI   HO521764   1.264   4.447   7.230 -0.1291  0.2523  0.3460
  189SAPI   C1621765   1.039   4.651   7.328 -0.1127 -0.0974 -0.0831
  189SAPI    H621766   1.114   4.696   7.397  0.3395  1.2148 -1.3835
  189SAPI    O621767   1.034   4.740   7.224 -0.3560  0.0281 -0.0780
  189SAPI   HO621768   1.097   4.805   7.254  0.1810 -2.0030  3.7327
  189SAPI   C1121769   0.905   4.654   7.404  0.3890 -0.9228 -0.0128
  189SAPI    H121770   0.830   4.663   7.321  1.3370  0.0456 -0.7941
  189SAPI     P21771   0.762   4.868   7.495  0.0568 -0.0078  0.4818
  189SAPI   O1321772   0.747   4.953   7.613  0.5644 -0.0455  0.2848
  189SAPI   O1421773   0.644   4.786   7.463  0.4445 -0.1220  0.2983
  189SAPI   O1221774   0.897   4.774   7.489  0.2039 -0.3025  0.4735
  189SAPI   O1121775   0.782   4.962   7.369 -0.0036 -0.0083  0.1089
  189SAPI    C121776   0.864   5.076   7.395 -0.3658  0.0971 -0.4322
  189SAPI    HA21777   0.832   5.140   7.480 -0.5023  2.2067 -1.9768
  189SAPI    HB21778   0.967   5.036   7.407 -0.2222  0.6001  0.0877
  189SAPI    C221779   0.885   5.168   7.271  0.4600  0.7159  0.7877
  189SAPI    HS21780   0.787   5.208   7.238 -0.1884  0.1012  1.8733
  189SAPI   O2121781   0.944   5.083   7.171  0.0515  0.2745  0.9343
  189SAPI   C2121782   0.926   5.129   7.048  0.6257  0.0791 -0.5205
  189SAPI   O2221783   0.856   5.225   7.021 -0.1985  0.3894 -0.1618
  189SAPI   C2221784   1.017   5.055   6.951 -0.1867  0.4870  0.5738
  189SAPI   H2R21785   1.105   5.118   6.925 -0.4840  0.6742  0.0088
  189SAPI   H2S21786   1.060   4.967   7.003  0.3184 -0.3574 -1.1825
  189SAPI    C321787   0.980   5.280   7.315 -0.1269  0.0755 -0.2214
  189SAPI    HX21788   1.069   5.239   7.367 -0.2267  1.1053  0.8008
  189SAPI    HY21789   0.931   5.347   7.389  0.1637 -0.1587  0.1896
  189SAPI   O3121790   1.027   5.358   7.205 -0.7671  0.4994  0.5048
  189SAPI   C3121791   0.956   5.463   7.171  0.0487  0.0849 -0.3905
  189SAPI   O3221792   0.848   5.492   7.218 -1.0619 -0.3210  0.1724
  189SAPI   C3221793   1.028   5.529   7.055 -0.2424  0.0397 -0.1146
  189SAPI   H2X21794   1.065   5.450   6.987 -1.7391 -1.0997  0.3486
  189SAPI   H2Y21795   1.120   5.576   7.095 -1.4027  2.6098 -0.2641
  189SAPI   C2321796   0.944   5.013   6.821 -0.1681 -0.2214  0.3859
  189SAPI   H3R21797   0.903   5.108   6.783  0.6816  0.6546  1.5808
  189SAPI   H3S21798   0.870   4.931   6.835 -2.0469  0.6877 -3.0773
  189SAPI   C2421799   1.039   4.965   6.717 -0.2874  0.2755  0.3530
  189SAPI   H4R21800   1.125   5.034   6.727  0.8796 -1.0107 -0.5445
  189SAPI   H4S21801   0.994   4.978   6.617  1.5608  0.2540 -0.5214
  189SAPI   C2521802   1.065   4.814   6.730 -0.2209  0.4629  0.1301
  189SAPI   H5R21803   1.060   4.778   6.834  0.9075  1.8009  0.6698
  189SAPI   C2621804   1.076   4.723   6.639 -0.2951 -0.3199  0.6262
  189SAPI   H6R21805   1.111   4.621   6.658  2.7375 -0.1419 -2.7965
  189SAPI   C2721806   1.076   4.748   6.489  0.1486  0.1677  0.2576
  189SAPI   H7R21807   1.012   4.833   6.460 -0.4144 -0.0913  0.7124
  189SAPI   H7S21808   1.045   4.660   6.428  1.5256  0.2301 -0.5724
  189SAPI   C2821809   1.211   4.780   6.436 -0.3981 -0.1263  0.2656
  189SAPI   H8R21810   1.262   4.849   6.505  1.5521 -2.3770  1.1829
  189SAPI   C2921811   1.273   4.746   6.318 -0.1578 -0.1111  0.5432
  189SAPI   H9R21812   1.369   4.793   6.289  0.2508 -1.9484 -1.2669
  189SAPI  C21021813   1.205   4.657   6.222 -0.1341  0.5329 -0.3473
  189SAPI  H10R21814   1.113   4.707   6.185 -0.4963  1.5657  1.8137
  189SAPI  H10S21815   1.178   4.561   6.270  0.0496  0.4471 -0.4152
  189SAPI  C21121816   1.278   4.611   6.095 -0.1964 -0.3289  0.3698
  189SAPI  H11R21817   1.350   4.529   6.095 -0.2282 -0.3934 -1.4735
  189SAPI  C21221818   1.256   4.671   5.978 -0.5747 -0.1802 -0.5241
  189SAPI  H12R21819   1.303   4.627   5.888 -1.6469  0.2353 -1.3046
  189SAPI  C21321820   1.178   4.794   5.945  0.0596 -0.1502  0.0075
  189SAPI  H13R21821   1.138   4.857   6.028 -1.6162 -3.3538  1.8249
  189SAPI  H13S21822   1.085   4.753   5.901 -0.6257  0.3953  0.9080
  189SAPI  C21421823   1.254   4.876   5.845  0.5586  0.6037 -0.1309
  189SAPI  H14R21824   1.335   4.937   5.889  0.2382 -0.4569  2.0454
  189SAPI  C21521825   1.233   4.881   5.710  0.0030  0.1145 -0.2851
  189SAPI  H15R21826   1.303   4.944   5.653  0.4208 -1.8098 -2.0040
  189SAPI  C21621827   1.126   4.802   5.639  0.7090 -0.5271  0.0928
  189SAPI  H16R21828   1.027   4.854   5.641  1.1476  0.3835 -1.1499
  189SAPI  H16S21829   1.120   4.704   5.692 -1.7449 -1.5218 -1.7881
  189SAPI  C21721830   1.161   4.759   5.493  0.1809  0.1355  0.9522
  189SAPI  H17R21831   1.069   4.712   5.454  0.8772  1.8820 -3.3191
  189SAPI  H17S21832   1.244   4.687   5.512 -1.4250 -1.5802  1.8794
  189SAPI  C21821833   1.199   4.873   5.391  0.1152  0.2697 -0.6326
  189SAPI  H18R21834   1.308   4.886   5.407  0.1015 -0.6518  0.3194
  189SAPI  H18S21835   1.147   4.967   5.418  0.8286  0.8618 -1.2652
  189SAPI  C21921836   1.179   4.849   5.242 -0.1530 -0.5411 -0.2008
  189SAPI  H19R21837   1.071   4.843   5.216  0.2207  1.5883 -2.7326
  189SAPI  H19S21838   1.221   4.756   5.198 -0.5172 -0.3004 -1.0847
  189SAPI  C22021839   1.239   4.969   5.171 -0.2580  0.1824 -0.3234
  189SAPI  H20R21840   1.346   4.967   5.202 -0.9304 -2.7112  2.4108
  189SAPI  H20S21841   1.193   5.069   5.188 -0.5187  0.8821 -4.2516
  189SAPI  H20T21842   1.246   4.958   5.061  3.4998  0.1951 -0.2026
  189SAPI   C3321843   0.956   5.632   6.965  0.0508 -0.1260  0.1959
  189SAPI   H3X21844   1.024   5.692   6.901 -1.8365  1.3922 -0.4635
  189SAPI   H3Y21845   0.890   5.701   7.021 -1.8910 -3.2725  2.0744
  189SAPI   C3421846   0.872   5.555   6.860 -0.0696  0.1060  0.3424
  189SAPI   H4X21847   0.825   5.637   6.801  1.2129  1.0657  0.6018
  189SAPI   H4Y21848   0.802   5.481   6.904 -0.5906  0.6576  0.4456
  189SAPI   C3521849   0.948   5.470   6.755 -0.4647  0.5057  0.0758
  189SAPI   H5X21850   1.002   5.389   6.808 -1.5817 -0.2231  0.1506
  189SAPI   H5Y21851   1.029   5.535   6.717  0.3775 -0.2964  0.4632
  189SAPI   C3621852   0.857   5.401   6.650 -0.0362 -0.6312 -0.3323
  189SAPI   H6X21853   0.789   5.479   6.611  0.2536 -0.7543 -1.1011
  189SAPI   H6Y21854   0.785   5.336   6.703 -1.2092  0.5059 -0.4899
  189SAPI   C3721855   0.936   5.316   6.550 -1.1265 -0.4201  0.1991
  189SAPI   H7X21856   0.987   5.229   6.596  0.2696 -0.6271 -1.6130
  189SAPI   H7Y21857   1.017   5.383   6.512 -1.4802  0.4626  0.9607
  189SAPI   C3821858   0.859   5.261   6.426 -0.4480 -0.0395  0.1950
  189SAPI   H8X21859   0.775   5.197   6.459 -1.4661  1.0813 -0.1631
  189SAPI   H8Y21860   0.929   5.206   6.359 -1.1267 -0.0377 -0.5272
  189SAPI   C3921861   0.780   5.370   6.342  0.8203  0.0056  0.5959
  189SAPI   H9X21862   0.840   5.463   6.334  0.6777  0.0940  0.5684
  189SAPI   H9Y21863   0.691   5.381   6.406 -0.1842 -0.0609 -0.7476
  189SAPI  C31021864   0.732   5.312   6.201  0.6611 -1.0801 -0.1759
  189SAPI  H10X21865   0.665   5.224   6.219 -0.7534  0.3219  1.8744
  189SAPI  H10Y21866   0.816   5.275   6.139  0.8172 -0.5874 -0.2620
  189SAPI  C31121867   0.662   5.422   6.116  0.5988  0.0535  0.1282
  189SAPI  H11X21868   0.587   5.472   6.182  0.4044 -1.5107  1.1430
  189SAPI  H11Y21869   0.611   5.375   6.029  0.7520  1.1756 -0.5891
  189SAPI  C31221870   0.743   5.538   6.064  0.2543 -0.1192  0.2929
  189SAPI  H12X21871   0.809   5.572   6.147  0.6944 -1.5304  0.5474
  189SAPI  H12Y21872   0.693   5.627   6.020  0.5958  0.3923  0.9258
  189SAPI  C31321873   0.833   5.504   5.943  0.8083 -0.0288 -0.1703
  189SAPI  H13X21874   0.754   5.494   5.866 -0.0148  1.9952  0.3374
  189SAPI  H13Y21875   0.899   5.415   5.954  3.1243  1.4355 -1.2756
  189SAPI  C31421876   0.923   5.622   5.902 -0.3965  0.0002  0.4401
  189SAPI  H14X21877   0.998   5.650   5.979 -1.2519  0.2879  1.1708
  189SAPI  H14Y21878   0.854   5.708   5.894 -0.5151 -0.1137  0.2171
  189SAPI  C31521879   0.990   5.598   5.765 -0.5864 -0.3842  1.6966
  189SAPI  H15X21880   0.907   5.582   5.693 -0.6355  0.9839  1.4063
  189SAPI  H15Y21881   1.050   5.505   5.770  1.4530  0.9025  2.5006
  189SAPI  C31621882   1.079   5.714   5.711  0.0770 -0.4253 -0.7063
  189SAPI  H16X21883   1.030   5.813   5.715 -1.7095 -1.2492 -0.9820
  189SAPI  H16Y21884   1.091   5.688   5.603  0.6871 -1.4077 -0.4123
  189SAPI  C31721885   1.214   5.717   5.780 -0.0624  0.4158 -0.1284
  189SAPI  H17X21886   1.257   5.622   5.819  1.8468  2.0230  2.0121
  189SAPI  H17Y21887   1.193   5.762   5.880 -1.7719 -3.2665  1.3545
  189SAPI  C31821888   1.326   5.783   5.702  0.3148  0.3756  0.5730
  189SAPI  H18X21889   1.404   5.812   5.776  0.9738 -0.6715  0.3193
  189SAPI  H18Y21890   1.287   5.876   5.655 -2.6338 -1.2061 -0.3463
  189SAPI  H18Z21891   1.372   5.726   5.618 -0.8772  0.3075 -0.0478
  190SAPI   C1221892   6.132   3.606   7.810  0.3075  0.1575 -0.2253
  190SAPI    H221893   6.110   3.711   7.780 -0.2576 -0.2319 -1.2390
  190SAPI    O221894   6.174   3.605   7.947  0.4665  0.0825  0.7644
  190SAPI   HO221895   6.185   3.694   7.980  0.7007 -0.5697  2.5393
  190SAPI   C1321896   6.006   3.527   7.790  0.0043  0.0720  0.0322
  190SAPI    H321897   5.978   3.538   7.683 -1.0664  1.7884  0.4619
  190SAPI    O321898   5.900   3.586   7.863  0.3600  0.2835  0.0820
  190SAPI   HO321899   5.878   3.528   7.936  0.9873 -0.5998 -0.4099
  190SAPI   C1421900   6.029   3.379   7.818  0.3407 -0.3463  0.2664
  190SAPI    H421901   6.057   3.363   7.924 -0.9531 -2.9669  0.2979
  190SAPI    O421902   5.911   3.301   7.800 -0.0798  0.2175 -0.4065
  190SAPI   HO421903   5.924   3.231   7.864 -0.7484  1.3808  1.0764
  190SAPI   C1521904   6.148   3.317   7.743 -0.5856 -0.3174  0.5798
  190SAPI    H521905   6.107   3.310   7.640 -2.5738  1.8647  1.1306
  190SAPI    O521906   6.171   3.191   7.799  0.0152  0.1949 -0.2132
  190SAPI   HO521907   6.232   3.136   7.749  0.0688  0.9367 -0.9919
  190SAPI   C1621908   6.272   3.407   7.739 -0.2099 -0.2839  0.1515
  190SAPI    H621909   6.324   3.389   7.836  1.3972 -1.9857 -0.9541
  190SAPI    O621910   6.373   3.364   7.644  0.4126  0.0566 -0.1118
  190SAPI   HO621911   6.455   3.402   7.676  0.2482  0.3358 -0.0224
  190SAPI   C1121912   6.245   3.553   7.729  0.1967 -0.5101  0.7363
  190SAPI    H121913   6.216   3.585   7.627  1.5460 -0.0176  0.4816
  190SAPI     P21914   6.407   3.768   7.723  0.3336  0.2552  0.0527
  190SAPI   O1321915   6.546   3.785   7.767  0.1257  0.1721  0.1579
  190SAPI   O1421916   6.315   3.866   7.787 -0.0448  1.0977 -0.0951
  190SAPI   O1221917   6.368   3.617   7.752 -0.5797  0.1762  0.2446
  190SAPI   O1121918   6.399   3.788   7.566  0.2675  0.6575 -0.3779
  190SAPI    C121919   6.467   3.693   7.483 -0.2644 -0.0741  0.2832
  190SAPI    HA21920   6.518   3.609   7.535 -1.1925  0.6986  2.5528
  190SAPI    HB21921   6.388   3.660   7.412 -1.4483  2.0837  0.5087
  190SAPI    C221922   6.576   3.775   7.397  0.4091 -0.0936  0.1795
  190SAPI    HS21923   6.634   3.828   7.475  0.0469 -1.1307  1.1869
  190SAPI   O2121924   6.497   3.855   7.297 -0.0686 -0.6333  0.1232
  190SAPI   C2121925   6.544   3.970   7.272  1.4636 -0.0675 -0.2756
  190SAPI   O2221926   6.623   4.036   7.339  0.1858 -0.4310 -0.1829
  190SAPI   C2221927   6.481   4.032   7.149  0.4291 -0.2413  0.8085
  190SAPI   H2R21928   6.372   4.015   7.160  0.3576  0.0585  0.5602
  190SAPI   H2S21929   6.493   4.142   7.149 -0.8219 -0.0641  2.5599
  190SAPI    C321930   6.670   3.675   7.319 -0.6121 -0.7554  0.0281
  190SAPI    HX21931   6.737   3.620   7.389  0.6781 -0.8244 -1.2040
  190SAPI    HY21932   6.742   3.736   7.260  1.4638 -2.8226  0.2511
  190SAPI   O3121933   6.602   3.580   7.241 -0.4299 -0.4893  0.6850
  190SAPI   C3121934   6.608   3.587   7.112  0.3705  0.5295 -0.2855
  190SAPI   O3221935   6.682   3.659   7.046  0.1084  0.2614 -0.0043
  190SAPI   C3221936   6.485   3.509   7.058  0.3211  0.6038 -0.7457
  190SAPI   H2X21937   6.396   3.541   7.116  0.5609 -0.3847  0.2185
  190SAPI   H2Y21938   6.504   3.404   7.092  0.8837  0.8331 -0.3387
  190SAPI   C2321939   6.524   3.957   7.020  0.0150  0.0857  0.4889
  190SAPI   H3R21940   6.508   3.848   7.031 -0.8819  0.2665  1.2059
  190SAPI   H3S21941   6.633   3.965   7.003  0.1813 -1.5174  0.6955
  190SAPI   C2421942   6.437   3.993   6.896 -0.2047 -0.1805  0.7468
  190SAPI   H4R21943   6.426   4.103   6.889  1.8191  0.1590  2.0569
  190SAPI   H4S21944   6.335   3.959   6.922 -0.7639  1.3174  0.6030
  190SAPI   C2521945   6.480   3.919   6.765  0.5090 -0.5794 -0.3959
  190SAPI   H5R21946   6.550   3.835   6.777  1.5281  0.3570  0.4167
  190SAPI   C2621947   6.442   3.964   6.647 -0.2023 -0.2831  0.3852
  190SAPI   H6R21948   6.475   3.909   6.558 -0.6130  0.9756 -0.5809
  190SAPI   C2721949   6.356   4.080   6.615 -0.3056  0.5052  0.4000
  190SAPI   H7R21950   6.423   4.165   6.591  2.3343 -1.1544  1.4470
  190SAPI   H7S21951   6.294   4.102   6.705 -0.0968 -1.5548  1.1108
  190SAPI   C2821952   6.259   4.050   6.500 -0.7084  1.1038  0.5927
  190SAPI   H8R21953   6.172   3.995   6.539 -1.1852  1.2943 -0.1837
  190SAPI   C2921954   6.278   4.063   6.367 -0.5494  0.3959 -0.4148
  190SAPI   H9R21955   6.195   4.043   6.298 -0.2914  1.1688 -0.9699
  190SAPI  C21021956   6.398   4.127   6.301 -0.5443  0.0135 -0.5748
  190SAPI  H10R21957   6.443   4.197   6.375 -1.4190  0.1276 -0.1392
  190SAPI  H10S21958   6.372   4.191   6.213 -1.2988  0.6461  0.0921
  190SAPI  C21121959   6.513   4.030   6.263  1.2105  0.2454 -0.0818
  190SAPI  H11R21960   6.605   4.028   6.323 -0.0510 -1.4822  1.9256
  190SAPI  C21221961   6.505   3.937   6.169  0.4363 -0.2214 -0.1712
  190SAPI  H12R21962   6.593   3.875   6.149  0.4923  0.1752 -1.1861
  190SAPI  C21321963   6.388   3.920   6.080 -0.3774 -0.4108  0.0178
  190SAPI  H13R21964   6.331   4.014   6.063 -0.4916 -0.4120  0.3891
  190SAPI  H13S21965   6.307   3.852   6.113  2.5779 -3.6195  1.2098
  190SAPI  C21421966   6.421   3.855   5.949  0.3436 -0.0411  1.4235
  190SAPI  H14R21967   6.429   3.745   5.955 -0.8345 -0.1556  1.1819
  190SAPI  C21521968   6.435   3.915   5.830  0.2424 -0.5358  0.0506
  190SAPI  H15R21969   6.455   3.851   5.743 -3.0650 -1.3728 -0.2523
  190SAPI  C21621970   6.421   4.063   5.819  0.2990 -0.4748 -0.9440
  190SAPI  H16R21971   6.453   4.110   5.914  3.5191 -2.5611 -0.8197
  190SAPI  H16S21972   6.319   4.098   5.792  0.6560  0.7690 -0.7516
  190SAPI  C21721973   6.519   4.136   5.718 -0.2825  0.4423 -0.2325
  190SAPI  H17R21974   6.501   4.090   5.618 -0.2464  1.2567 -0.6165
  190SAPI  H17S21975   6.623   4.115   5.750  0.4438 -0.0260 -2.6837
  190SAPI  C21821976   6.502   4.287   5.705  0.4506  0.5231 -0.2238
  190SAPI  H18R21977   6.506   4.334   5.806 -1.4876  0.3957 -0.0462
  190SAPI  H18S21978   6.405   4.324   5.666  0.3389 -0.6234 -1.0719
  190SAPI  C21921979   6.606   4.349   5.611 -0.7239 -0.3038  0.4592
  190SAPI  H19R21980   6.702   4.319   5.657 -0.7044 -2.3664 -0.7676
  190SAPI  H19S21981   6.601   4.460   5.620 -0.4743 -0.4537  3.0876
  190SAPI  C22021982   6.598   4.314   5.462  0.2287 -0.2936  0.2020
  190SAPI  H20R21983   6.500   4.302   5.412 -0.0843 -0.2383  0.7888
  190SAPI  H20S21984   6.661   4.224   5.444 -1.2474 -1.6072  1.2829
  190SAPI  H20T21985   6.662   4.391   5.415 -0.5812 -0.0419 -0.5132
  190SAPI   C3321986   6.456   3.503   6.904  0.1685 -0.9537 -0.0807
  190SAPI   H3X21987   6.420   3.606   6.884  3.5015  0.5262  0.9126
  190SAPI   H3Y21988   6.375   3.428   6.887 -0.0757 -0.4606 -1.1835
  190SAPI   C3421989   6.577   3.464   6.826 -0.6250  0.2810  0.6495
  190SAPI   H4X21990   6.617   3.367   6.864 -1.8870 -0.6632 -0.3282
  190SAPI   H4Y21991   6.667   3.522   6.853  1.2183 -2.4851  0.7897
  190SAPI   C3521992   6.561   3.447   6.669 -0.2864  0.7548  0.5174
  190SAPI   H5X21993   6.477   3.381   6.639 -0.1630  1.6167 -1.9669
  190SAPI   H5Y21994   6.649   3.402   6.618 -1.5858  0.4896 -1.6312
  190SAPI   C3621995   6.530   3.584   6.604  0.3237 -0.0170 -0.0084
  190SAPI   H6X21996   6.619   3.649   6.614  1.4489 -1.4832 -0.2045
  190SAPI   H6Y21997   6.442   3.633   6.651  1.3053 -0.2225  2.1623
  190SAPI   C3721998   6.511   3.578   6.450  0.1566  0.2591  0.6498
  190SAPI   H7X21999   6.510   3.682   6.412  2.7023  0.4249  0.9020
  190SAPI   H7Y22000   6.410   3.533   6.436  0.7782 -1.4958  1.4318
  190SAPI   C3822001   6.610   3.510   6.354 -0.0401  0.5058  0.3254
  190SAPI   H8X22002   6.607   3.402   6.379 -0.9596  0.2798 -0.6983
  190SAPI   H8Y22003   6.710   3.542   6.390  0.4976  1.2974 -1.7668
  190SAPI   C3922004   6.587   3.541   6.210 -0.4099 -0.3201  0.1291
  190SAPI   H9X22005   6.595   3.652   6.204 -4.0642  0.2031  1.9850
  190SAPI   H9Y22006   6.483   3.524   6.177 -0.7969  1.3931  0.3830
  190SAPI  C31022007   6.690   3.468   6.111  0.1557 -0.4003  0.5741
  190SAPI  H10X22008   6.669   3.361   6.094  2.2599 -0.8118  0.1936
  190SAPI  H10Y22009   6.787   3.475   6.166  0.3618  0.5442  0.1168
  190SAPI  C31122010   6.699   3.543   5.983  0.1030 -0.2533  0.5788
  190SAPI  H11X22011   6.793   3.519   5.927 -0.0509  2.4739 -0.9976
  190SAPI  H11Y22012   6.686   3.651   6.001  0.4254 -0.2637  0.8794
  190SAPI  C31222013   6.597   3.483   5.885 -0.1080  0.4502  0.1851
  190SAPI  H12X22014   6.497   3.487   5.933 -0.7930  0.0087 -1.1580
  190SAPI  H12Y22015   6.628   3.377   5.873  1.1248  0.6983  0.9211
  190SAPI  C31322016   6.592   3.564   5.760 -0.6742  0.4380  0.6626
  190SAPI  H13X22017   6.689   3.590   5.713 -1.6925  0.2876 -1.7097
  190SAPI  H13Y22018   6.542   3.662   5.777 -1.4530 -0.0327  1.1586
  190SAPI  C31422019   6.516   3.503   5.635 -0.2008  0.5820  0.0196
  190SAPI  H14X22020   6.429   3.451   5.680 -0.7837  1.0115 -0.5802
  190SAPI  H14Y22021   6.572   3.426   5.578 -2.7877  1.0924 -3.5492
  190SAPI  C31522022   6.469   3.608   5.535  0.2309 -0.6031 -0.3793
  190SAPI  H15X22023   6.550   3.668   5.489 -1.4054 -0.6421 -3.5669
  190SAPI  H15Y22024   6.404   3.676   5.595  3.3974  0.1805  2.4631
  190SAPI  C31622025   6.390   3.540   5.423  0.7100 -0.4207 -0.1779
  190SAPI  H16X22026   6.330   3.617   5.369  1.7240  0.1963 -0.4699
  190SAPI  H16Y22027   6.327   3.464   5.473  0.2288  0.7293  1.0273
  190SAPI  C31722028   6.495   3.479   5.328  0.1762  0.0314  0.0693
  190SAPI  H17X22029   6.547   3.383   5.348  0.0105 -0.6024 -2.2007
  190SAPI  H17Y22030   6.565   3.563   5.309 -1.2228  1.4861  1.1683
  190SAPI  C31822031   6.434   3.446   5.194 -0.1499 -0.0096  0.3671
  190SAPI  H18X22032   6.384   3.532   5.144  0.8324 -0.1816 -0.9663
  190SAPI  H18Y22033   6.361   3.364   5.211 -0.1438  0.1440  1.1637
  190SAPI  H18Z22034   6.503   3.396   5.123 -1.6547 -0.3157 -0.9231
  191SAPI   C1222035   2.471   0.010   3.399 -0.2124 -0.1710  0.5038
  191SAPI    H222036   2.401  -0.069   3.434 -0.4133  0.6214  1.9974
  191SAPI    O222037   2.540  -0.052   3.288  0.5856 -0.3947 -0.2888
  191SAPI   HO222038   2.538  -0.147   3.295  0.0357 -0.3154  0.9938
  191SAPI   C1322039   2.391   0.129   3.365 -0.2309  0.4903 -0.1109
  191SAPI    H322040   2.351   0.168   3.461 -0.5944 -1.8539  0.7418
  191SAPI    O322041   2.288   0.098   3.269 -0.2617 -0.5073 -0.2774
  191SAPI   HO322042   2.301   0.004   3.255  0.1390 -0.6585  0.9684
  191SAPI   C1422043   2.492   0.230   3.311  0.2318  0.9187  0.2135
  191SAPI    H422044   2.510   0.198   3.207 -0.5643  1.2119 -0.0259
  191SAPI    O422045   2.430   0.360   3.305  0.3998 -0.0556 -0.2111
  191SAPI   HO422046   2.403   0.379   3.215  0.8090  2.8401  0.2117
  191SAPI   C1522047   2.635   0.240   3.368  0.6937 -0.3590  0.0242
  191SAPI    H522048   2.626   0.314   3.451  1.7219 -1.9517  1.6316
  191SAPI    O522049   2.730   0.283   3.272  0.1824  0.2435 -0.0573
  191SAPI   HO522050   2.802   0.219   3.278 -1.7602 -1.9729  1.6789
  191SAPI   C1622051   2.679   0.123   3.456 -0.3558  0.3189  0.5633
  191SAPI    H622052   2.733   0.048   3.394  2.0174  1.8906  0.6138
  191SAPI    O622053   2.775   0.161   3.556  0.2321 -0.0208 -0.0374
  191SAPI   HO622054   2.842   0.092   3.554  0.0888 -0.1698 -1.6306
  191SAPI   C1122055   2.565   0.049   3.518  0.2121 -0.3783  0.3292
  191SAPI    H122056   2.512   0.115   3.590  0.3531  1.8417 -1.4551
  191SAPI     P22057   2.549  -0.163   3.687 -0.1690 -0.0567 -0.0638
  191SAPI   O1322058   2.607  -0.299   3.674 -0.2674 -0.5597 -0.2254
  191SAPI   O1422059   2.398  -0.145   3.684 -0.3657  0.5074 -0.1739
  191SAPI   O1222060   2.616  -0.073   3.570  0.1909  0.3343 -1.0103
  191SAPI   O1122061   2.609  -0.103   3.816 -0.1865 -0.1508 -0.6641
  191SAPI    C122062   2.600   0.034   3.863  0.4544  0.4290  0.4064
  191SAPI    HA22063   2.547   0.103   3.793  0.0011  1.0404  1.3345
  191SAPI    HB22064   2.551   0.029   3.962  2.3335 -1.8658  1.3184
  191SAPI    C222065   2.744   0.086   3.899  0.0445 -0.6050  0.3190
  191SAPI    HS22066   2.813   0.071   3.813 -0.2979  0.0491 -0.0745
  191SAPI   O2122067   2.791   0.022   4.016  0.4867  0.3118 -0.1223
  191SAPI   C2122068   2.853  -0.093   3.994 -0.3217  0.2872  0.0977
  191SAPI   O2222069   2.905  -0.124   3.893  0.5338  0.7557  0.2830
  191SAPI   C2222070   2.836  -0.181   4.123 -0.0504  0.6058 -0.0230
  191SAPI   H2R22071   2.870  -0.119   4.209 -0.7797 -0.4264  1.0517
  191SAPI   H2S22072   2.726  -0.196   4.131 -0.0211 -0.8663 -1.8160
  191SAPI    C322073   2.732   0.237   3.919  0.1393 -0.4507 -0.6888
  191SAPI    HX22074   2.685   0.296   3.837  1.3138  0.8577 -0.4690
  191SAPI    HY22075   2.834   0.280   3.911  0.1475 -0.7785 -3.4991
  191SAPI   O3122076   2.651   0.277   4.038 -0.2335  0.0321 -0.5883
  191SAPI   C3122077   2.719   0.307   4.155 -0.0070 -0.4107 -0.3251
  191SAPI   O3222078   2.839   0.292   4.158 -0.2813 -0.6726 -1.1376
  191SAPI   C3222079   2.623   0.353   4.270  0.9218 -0.2016 -0.7743
  191SAPI   H2X22080   2.551   0.270   4.285  0.0299  0.4456 -1.3334
  191SAPI   H2Y22081   2.567   0.442   4.235  2.9993  0.5306 -2.4975
  191SAPI   C2322082   2.913  -0.318   4.116 -0.0640  0.0423  0.5062
  191SAPI   H3R22083   3.004  -0.300   4.056  1.2850 -1.6287  1.9638
  191SAPI   H3S22084   2.844  -0.385   4.060  1.2842 -0.5607 -0.4758
  191SAPI   C2422085   2.935  -0.380   4.253 -0.5277  0.0375  0.4107
  191SAPI   H4R22086   2.945  -0.490   4.250 -1.0171 -0.0009 -1.9217
  191SAPI   H4S22087   2.841  -0.359   4.308  0.4052 -1.1937  2.5605
  191SAPI   C2522088   3.058  -0.320   4.313  0.5850 -0.5906  0.3241
  191SAPI   H5R22089   3.149  -0.324   4.251 -0.8353 -1.3263 -1.8009
  191SAPI   C2622090   3.077  -0.281   4.438 -0.2621 -0.7737 -0.3015
  191SAPI   H6R22091   3.172  -0.239   4.475 -1.0655 -0.3114  1.3569
  191SAPI   C2722092   2.975  -0.271   4.542 -0.1814 -0.0310 -0.2859
  191SAPI   H7R22093   3.007  -0.293   4.646  0.3362 -0.1251 -0.4641
  191SAPI   H7S22094   2.902  -0.353   4.525  3.1648 -3.4241  0.3425
  191SAPI   C2822095   2.901  -0.140   4.541  0.6066 -0.1872 -0.0395
  191SAPI   H8R22096   2.870  -0.109   4.440 -1.3053 -2.0363 -0.0928
  191SAPI   C2922097   2.856  -0.064   4.640  0.0847 -0.7523 -0.4895
  191SAPI   H9R22098   2.790   0.017   4.609 -2.9513 -1.7763  2.6064
  191SAPI  C21022099   2.869  -0.090   4.787  0.4706  0.6011  0.4330
  191SAPI  H10R22100   2.871  -0.201   4.798  0.9653  0.5436 -0.1711
  191SAPI  H10S22101   2.774  -0.047   4.824  0.0777 -1.3027  1.7618
  191SAPI  C21122102   2.989  -0.032   4.854 -0.0997 -0.4231 -0.3082
  191SAPI  H11R22103   3.034   0.050   4.795 -1.9995  0.3298 -0.7857
  191SAPI  C21222104   3.034  -0.052   4.978  0.2070  0.2948 -0.4878
  191SAPI  H12R22105   3.131  -0.007   5.002  0.1561  0.1333  0.0347
  191SAPI  C21322106   2.965  -0.134   5.083 -0.1105 -0.4289  0.9548
  191SAPI  H13R22107   2.877  -0.188   5.042 -1.2703  1.6222  0.5806
  191SAPI  H13S22108   2.917  -0.078   5.167 -2.1887  0.5938 -0.8237
  191SAPI  C21422109   3.065  -0.230   5.140  0.3967  0.3288 -0.0895
  191SAPI  H14R22110   3.135  -0.279   5.070  0.4217  0.7967 -0.3929
  191SAPI  C21522111   3.071  -0.268   5.267 -0.4078  0.3002 -0.0948
  191SAPI  H15R22112   3.143  -0.344   5.301 -0.8571  0.6110  1.6333
  191SAPI  C21622113   2.986  -0.217   5.381 -0.3545 -0.6757  0.0808
  191SAPI  H16R22114   2.963  -0.291   5.460 -1.0663 -1.1250 -0.5261
  191SAPI  H16S22115   2.886  -0.182   5.347  0.1647  1.3828  0.5307
  191SAPI  C21722116   3.056  -0.088   5.443  0.3500  0.0772 -0.1774
  191SAPI  H17R22117   2.983  -0.058   5.522  1.3184 -0.4553  0.9491
  191SAPI  H17S22118   3.036  -0.001   5.377 -0.5697 -0.1435 -0.2020
  191SAPI  C21822119   3.190  -0.101   5.509  0.4077 -0.2990  0.2151
  191SAPI  H18R22120   3.234   0.001   5.504  1.8364 -0.8243  1.3590
  191SAPI  H18S22121   3.246  -0.169   5.441  0.0103 -0.1778 -0.2446
  191SAPI  C21922122   3.185  -0.143   5.657 -0.0695  0.1469  0.1658
  191SAPI  H19R22123   3.135  -0.241   5.671  1.3093 -0.6897 -0.5522
  191SAPI  H19S22124   3.118  -0.065   5.700 -1.6021  0.5356 -2.7072
  191SAPI  C22022125   3.321  -0.164   5.701  0.6935 -0.2185 -0.4010
  191SAPI  H20R22126   3.380  -0.244   5.652 -0.0745 -0.4438 -0.9815
  191SAPI  H20S22127   3.322  -0.185   5.810 -1.7535 -0.3226 -0.3444
  191SAPI  H20T22128   3.381  -0.070   5.696 -1.3729  1.1465 -1.3378
  191SAPI   C3322129   2.686   0.380   4.413  0.2584 -0.0319 -0.1204
  191SAPI   H3X22130   2.618   0.433   4.483 -0.0132 -1.3737  0.6798
  191SAPI   H3Y22131   2.770   0.451   4.396  1.5917 -1.5303 -0.0798
  191SAPI   C3422132   2.739   0.255   4.492  0.6381  0.4018 -0.1266
  191SAPI   H4X22133   2.813   0.199   4.432  1.7117  1.9861 -0.3517
  191SAPI   H4Y22134   2.659   0.184   4.521 -0.5238  1.6055 -0.2786
  191SAPI   C3522135   2.802   0.299   4.628 -0.1723 -0.2591  0.5047
  191SAPI   H5X22136   2.848   0.400   4.619  0.3288 -0.4471  0.9100
  191SAPI   H5Y22137   2.893   0.242   4.656 -0.1572  0.3567  1.8149
  191SAPI   C3622138   2.715   0.278   4.755  0.5202 -0.4731  0.1562
  191SAPI   H6X22139   2.782   0.227   4.827 -0.6083 -1.5482  0.4849
  191SAPI   H6Y22140   2.640   0.203   4.720 -0.9809  1.1190 -0.2046
  191SAPI   C3722141   2.657   0.406   4.821 -0.6777 -0.8199  0.4865
  191SAPI   H7X22142   2.576   0.443   4.755  1.0880 -0.5649 -1.6233
  191SAPI   H7Y22143   2.739   0.480   4.829 -0.6205 -0.9557  1.2644
  191SAPI   C3822144   2.600   0.379   4.962  0.4985 -0.8898 -0.1753
  191SAPI   H8X22145   2.684   0.332   5.018  1.1984  0.3964 -0.1029
  191SAPI   H8Y22146   2.525   0.298   4.947  1.4456 -1.7087 -0.6162
  191SAPI   C3922147   2.528   0.495   5.035 -0.7952  0.2198 -0.7504
  191SAPI   H9X22148   2.434   0.516   4.979 -1.3233 -0.4196 -0.1164
  191SAPI   H9Y22149   2.589   0.588   5.035 -1.5170  0.7039 -1.2337
  191SAPI  C31022150   2.495   0.470   5.180 -0.7190  0.1087  0.1091
  191SAPI  H10X22151   2.457   0.366   5.177  1.0795 -0.5877  0.1212
  191SAPI  H10Y22152   2.409   0.536   5.204 -0.2277  1.1026 -0.7810
  191SAPI  C31122153   2.614   0.491   5.277  0.2524 -0.8246  0.1762
  191SAPI  H11X22154   2.656   0.594   5.268 -2.6051  0.5323  1.0449
  191SAPI  H11Y22155   2.694   0.418   5.254  0.8675 -0.2368  0.4031
  191SAPI  C31222156   2.559   0.470   5.419  0.4926 -0.4458  0.6269
  191SAPI  H12X22157   2.538   0.363   5.439  0.7132 -0.2140  2.2836
  191SAPI  H12Y22158   2.464   0.527   5.427  0.8390  0.0973  0.9311
  191SAPI  C31322159   2.646   0.519   5.535  0.1333  0.1272 -0.6732
  191SAPI  H13X22160   2.683   0.623   5.520  2.5811 -0.4910  0.5587
  191SAPI  H13Y22161   2.734   0.452   5.529 -1.1278 -1.4903 -1.9076
  191SAPI  C31422162   2.575   0.513   5.664 -0.1091  0.0351  0.3168
  191SAPI  H14X22163   2.545   0.408   5.684  0.7432 -0.3455 -0.3863
  191SAPI  H14Y22164   2.484   0.575   5.647 -0.6654 -1.2635 -1.8051
  191SAPI  C31522165   2.669   0.567   5.774  0.7721 -0.0664  0.4942
  191SAPI  H15X22166   2.732   0.645   5.727 -1.3117  1.8916  0.7736
  191SAPI  H15Y22167   2.743   0.491   5.807 -1.6014 -2.8033 -0.1426
  191SAPI  C31622168   2.589   0.619   5.898 -0.4750 -0.3005 -0.4096
  191SAPI  H16X22169   2.526   0.707   5.871  0.3152 -0.3550 -2.6845
  191SAPI  H16Y22170   2.670   0.643   5.970  1.2091 -3.3175 -1.1253
  191SAPI  C31722171   2.489   0.517   5.965 -0.8713 -0.5159 -0.3718
  191SAPI  H17X22172   2.491   0.555   6.069  2.3114  1.4115 -1.0091
  191SAPI  H17Y22173   2.522   0.411   5.960  0.3796 -0.1279 -0.7681
  191SAPI  C31822174   2.342   0.535   5.913  0.1703  0.7342  0.2166
  191SAPI  H18X22175   2.308   0.641   5.916  3.9614  2.0790  2.2510
  191SAPI  H18Y22176   2.264   0.467   5.953  0.5238 -1.4888 -2.5488
  191SAPI  H18Z22177   2.340   0.503   5.807  1.0189 -0.7694  0.6295
  192SAPI   C1222178   5.528   5.378   3.305  0.2062 -0.0336 -0.0075
  192SAPI    H222179   5.491   5.356   3.407 -0.6387  2.7305  0.3695
  192SAPI    O222180   5.438   5.322   3.214 -0.3124 -0.3345  0.4883
  192SAPI   HO222181   5.383   5.248   3.243 -1.4584 -1.5362 -3.9253
  192SAPI   C1322182   5.544   5.527   3.305  0.2387  0.0661  1.3169
  192SAPI    H322183   5.621   5.566   3.376  1.7929  1.6578 -1.0596
  192SAPI    O322184   5.422   5.593   3.335 -0.3041  0.0421  0.6081
  192SAPI   HO322185   5.360   5.572   3.265  2.2780 -0.2952 -1.7796
  192SAPI   C1422186   5.592   5.566   3.159  0.1028 -0.4219 -0.4142
  192SAPI    H422187   5.513   5.533   3.089 -0.7815  1.8252 -0.5551
  192SAPI    O422188   5.592   5.706   3.140  0.5459  0.2233 -0.2420
  192SAPI   HO422189   5.500   5.734   3.145 -0.2593 -1.8799 -2.0705
  192SAPI   C1522190   5.716   5.487   3.110  0.0905  0.1545  0.0192
  192SAPI    H522191   5.793   5.547   3.163  1.0505  0.5665 -1.7792
  192SAPI    O522192   5.730   5.508   2.968  0.0857  0.0069  0.1958
  192SAPI   HO522193   5.812   5.548   2.939 -0.5898 -0.9031 -3.4430
  192SAPI   C1622194   5.743   5.343   3.160 -0.1382  0.5716 -0.4911
  192SAPI    H622195   5.705   5.281   3.076 -0.6884  1.2874 -0.7751
  192SAPI    O622196   5.885   5.313   3.172  0.3898  0.1221  0.5073
  192SAPI   HO622197   5.893   5.252   3.245  0.3513  0.6706  0.9797
  192SAPI   C1122198   5.667   5.309   3.293 -0.6380 -0.0839 -0.0017
  192SAPI    H122199   5.728   5.355   3.373  0.3216 -2.8042  0.9549
  192SAPI     P22200   5.776   5.100   3.411  0.2884  0.2029 -0.2994
  192SAPI   O1322201   5.903   5.165   3.377  0.4645 -0.4214  0.2113
  192SAPI   O1422202   5.778   4.955   3.400 -0.0755  0.8057 -0.2079
  192SAPI   O1222203   5.663   5.168   3.311  0.0736 -0.4373 -0.4649
  192SAPI   O1122204   5.728   5.149   3.555 -0.4356 -0.4555  0.0963
  192SAPI    C122205   5.642   5.060   3.628 -0.4172 -0.1472 -0.5089
  192SAPI    HA22206   5.552   5.118   3.658 -1.6592 -0.7955 -2.7849
  192SAPI    HB22207   5.594   4.974   3.577  1.5939 -2.3677  1.0821
  192SAPI    C222208   5.707   5.005   3.762  0.5946 -0.2510  0.6956
  192SAPI    HS22209   5.644   4.927   3.811  1.4892  0.6398  3.4271
  192SAPI   O2122210   5.713   5.122   3.852 -0.5267  0.5497 -0.2807
  192SAPI   C2122211   5.602   5.138   3.927 -0.1709 -0.3457  0.0070
  192SAPI   O2222212   5.501   5.075   3.919 -0.3596 -0.1444 -0.0016
  192SAPI   C2222213   5.630   5.242   4.036 -0.4829 -0.4411 -0.1542
  192SAPI   H2R22214   5.740   5.260   4.035 -0.8657  2.3618 -0.4236
  192SAPI   H2S22215   5.571   5.333   4.012  0.0606  0.3036  1.2367
  192SAPI    C322216   5.851   4.942   3.756 -0.3295 -0.1175 -0.1393
  192SAPI    HX22217   5.911   5.023   3.711 -3.0057  1.5202 -0.9718
  192SAPI    HY22218   5.850   4.853   3.689 -1.8183 -1.4866  1.5891
  192SAPI   O3122219   5.903   4.912   3.884  0.1908  0.2588 -0.1837
  192SAPI   C3122220   5.869   4.794   3.934 -0.3663  0.4887  0.1349
  192SAPI   O3222221   5.809   4.707   3.874 -0.1538  0.1391 -0.1825
  192SAPI   C3222222   5.908   4.785   4.083  0.7561  0.1121 -0.2346
  192SAPI   H2X22223   5.887   4.888   4.119 -1.9519  0.0052 -1.2513
  192SAPI   H2Y22224   6.014   4.752   4.089  0.1111 -1.8468  2.0207
  192SAPI   C2322225   5.572   5.187   4.169 -0.7105 -0.4740 -0.2382
  192SAPI   H3R22226   5.466   5.162   4.144 -0.9182  0.2352 -0.0968
  192SAPI   H3S22227   5.564   5.277   4.235 -1.6411  0.1739 -1.1908
  192SAPI   C2422228   5.646   5.062   4.223 -0.6428 -0.2943  0.2450
  192SAPI   H4R22229   5.658   4.975   4.155 -0.1132 -1.0824  1.3143
  192SAPI   H4S22230   5.587   5.020   4.306 -3.3895 -0.1251 -1.5004
  192SAPI   C2522231   5.786   5.103   4.266 -0.8429  0.1192 -0.0256
  192SAPI   H5R22232   5.847   5.162   4.196  0.6661 -0.7155  0.5353
  192SAPI   C2622233   5.842   5.087   4.390  0.1926 -0.1596 -0.1498
  192SAPI   H6R22234   5.944   5.126   4.401  0.1453  0.3700 -1.3424
  192SAPI   C2722235   5.783   5.022   4.516 -0.3485 -0.2406  0.0360
  192SAPI   H7R22236   5.814   4.917   4.537  2.0807  1.0106  3.8794
  192SAPI   H7S22237   5.673   5.019   4.509 -0.3070  0.2528 -1.0865
  192SAPI   C2822238   5.820   5.102   4.635 -0.3577  0.7698 -0.0806
  192SAPI   H8R22239   5.811   5.210   4.619  0.1753  0.7060 -0.8451
  192SAPI   C2922240   5.850   5.054   4.764 -0.1732 -1.0948  0.2942
  192SAPI   H9R22241   5.855   5.134   4.839 -0.7249  0.1585 -0.9536
  192SAPI  C21022242   5.867   4.921   4.824 -0.4685  0.0978  0.1533
  192SAPI  H10R22243   5.852   4.850   4.740 -0.3584  0.9532 -0.5971
  192SAPI  H10S22244   5.794   4.909   4.907 -1.4000 -0.5100 -0.7447
  192SAPI  C21122245   5.999   4.884   4.869 -0.2493 -0.3603 -0.2404
  192SAPI  H11R22246   6.082   4.936   4.818 -0.0840  0.4730  0.8369
  192SAPI  C21222247   6.029   4.801   4.968 -0.3156  0.4634  0.2767
  192SAPI  H12R22248   6.133   4.769   4.981 -0.6010 -0.5201  0.2392
  192SAPI  C21322249   5.929   4.729   5.052  0.6617 -0.3068 -0.0669
  192SAPI  H13R22250   5.878   4.804   5.118 -1.5547 -1.2065 -0.6633
  192SAPI  H13S22251   5.998   4.669   5.115 -1.3043  0.3679  2.9381
  192SAPI  C21422252   5.834   4.634   4.986  0.2801 -0.7975  0.3945
  192SAPI  H14R22253   5.782   4.684   4.902  0.0284 -0.2803  0.8574
  192SAPI  C21522254   5.799   4.509   5.019  0.2796 -0.3458  0.1391
  192SAPI  H15R22255   5.724   4.462   4.954 -1.7009  0.0640  2.0021
  192SAPI  C21622256   5.860   4.428   5.132  0.3730  0.2927  0.4867
  192SAPI  H16R22257   5.784   4.351   5.156 -0.9493  1.0466 -1.1531
  192SAPI  H16S22258   5.891   4.479   5.226 -0.4568 -0.9651  1.4723
  192SAPI  C21722259   5.989   4.355   5.077  0.1586  0.1308  0.4173
  192SAPI  H17R22260   5.973   4.304   4.979  0.8450 -0.4501  0.6013
  192SAPI  H17S22261   6.017   4.279   5.153  2.8327 -0.8352 -1.3965
  192SAPI  C21822262   6.111   4.440   5.065  0.1437 -0.0065  0.2469
  192SAPI  H18R22263   6.111   4.499   5.160 -2.9091 -1.7565  1.4600
  192SAPI  H18S22264   6.084   4.520   4.993 -2.3420 -0.9565  0.0409
  192SAPI  C21922265   6.229   4.355   5.028 -0.0125  0.3482 -0.0566
  192SAPI  H19R22266   6.227   4.320   4.923  2.9279  2.4832 -0.9349
  192SAPI  H19S22267   6.223   4.265   5.093 -3.0539 -0.4352 -1.2644
  192SAPI  C22022268   6.369   4.418   5.045  0.1123 -0.1288  0.1009
  192SAPI  H20R22269   6.374   4.515   4.992 -0.2142  0.1986  0.6502
  192SAPI  H20S22270   6.450   4.348   5.016  1.2295  1.0903  0.1698
  192SAPI  H20T22271   6.367   4.428   5.156 -4.3560 -1.4122  0.3528
  192SAPI   C3322272   5.826   4.683   4.165 -0.2076 -0.0410 -0.1130
  192SAPI   H3X22273   5.849   4.580   4.128  2.1609 -0.1380  1.3861
  192SAPI   H3Y22274   5.720   4.712   4.148 -0.0945  0.2183 -0.3770
  192SAPI   C3422275   5.858   4.684   4.309  0.1842  0.3414  0.0371
  192SAPI   H4X22276   5.778   4.740   4.362 -0.9553 -0.6134 -0.6217
  192SAPI   H4Y22277   5.960   4.724   4.326  0.4737 -0.7062  0.9054
  192SAPI   C3522278   5.858   4.542   4.370 -0.3188  0.2226 -0.5080
  192SAPI   H5X22279   5.950   4.492   4.334 -1.4311 -0.9456 -1.8437
  192SAPI   H5Y22280   5.773   4.486   4.325  1.3534 -1.1622 -2.0900
  192SAPI   C3622281   5.849   4.546   4.525 -0.5245 -0.4674  0.2248
  192SAPI   H6X22282   5.835   4.441   4.559 -2.3846 -0.3985 -0.2002
  192SAPI   H6Y22283   5.760   4.601   4.563 -0.6425 -1.2733  1.1654
  192SAPI   C3722284   5.978   4.609   4.586  0.0443 -0.9023  0.1662
  192SAPI   H7X22285   5.965   4.613   4.696 -0.7667  0.7902  0.0525
  192SAPI   H7Y22286   5.990   4.712   4.545 -1.4119 -0.3902  0.9498
  192SAPI   C3822287   6.101   4.531   4.553 -0.1100 -0.0431  0.5531
  192SAPI   H8X22288   6.123   4.561   4.448  2.7641 -0.1710  1.0535
  192SAPI   H8Y22289   6.074   4.423   4.548 -1.5392  0.3248 -0.6858
  192SAPI   C3922290   6.217   4.564   4.646 -0.5229 -0.7354  0.4117
  192SAPI   H9X22291   6.190   4.546   4.753 -1.7295 -0.2193  0.2061
  192SAPI   H9Y22292   6.228   4.674   4.635 -2.0953 -0.7873 -2.9212
  192SAPI  C31022293   6.353   4.511   4.606 -0.3301  0.6891 -1.0931
  192SAPI  H10X22294   6.358   4.497   4.496 -1.8204 -0.3515 -1.0479
  192SAPI  H10Y22295   6.346   4.411   4.653  1.3742  2.0387  2.3978
  192SAPI  C31122296   6.470   4.581   4.670 -0.0937 -0.6129 -0.2786
  192SAPI  H11X22297   6.556   4.511   4.679 -1.3042 -2.2828 -1.1054
  192SAPI  H11Y22298   6.452   4.602   4.778 -1.7540  0.6875 -0.7680
  192SAPI  C31222299   6.509   4.713   4.598  0.1950  0.4196  0.6723
  192SAPI  H12X22300   6.569   4.783   4.661  1.7891 -0.0486 -0.2807
  192SAPI  H12Y22301   6.412   4.747   4.554  0.6165 -0.6749 -1.2185
  192SAPI  C31322302   6.594   4.680   4.469  0.2303  0.2306 -0.6130
  192SAPI  H13X22303   6.559   4.580   4.436 -3.2474  1.7383 -1.9555
  192SAPI  H13Y22304   6.700   4.676   4.503  0.0257 -0.2840 -0.0282
  192SAPI  C31422305   6.591   4.789   4.364 -0.0293  0.2156  0.5095
  192SAPI  H14X22306   6.571   4.891   4.403 -0.7973 -0.8972  3.2081
  192SAPI  H14Y22307   6.502   4.754   4.307 -0.3111 -2.4513  2.4195
  192SAPI  C31522308   6.712   4.794   4.268  0.3303 -0.5517  0.1414
  192SAPI  H15X22309   6.722   4.693   4.223 -1.6027 -0.4396 -0.6398
  192SAPI  H15Y22310   6.811   4.812   4.315  0.1330  0.8435  0.0666
  192SAPI  C31622311   6.694   4.904   4.161 -0.1611  0.6296 -0.0019
  192SAPI  H16X22312   6.701   5.007   4.203  2.5498  0.9442 -0.9909
  192SAPI  H16Y22313   6.594   4.889   4.115  0.7760 -1.1392 -1.6149
  192SAPI  C31722314   6.804   4.886   4.056 -0.0905  0.5425  0.6165
  192SAPI  H17X22315   6.774   4.947   3.968  1.4941 -0.0038 -0.3345
  192SAPI  H17Y22316   6.804   4.783   4.015 -3.2462  0.5196  0.4307
  192SAPI  C31822317   6.946   4.919   4.105  0.2793  0.0350  0.4420
  192SAPI  H18X22318   6.949   5.027   4.131 -2.0061 -0.1256  1.6945
  192SAPI  H18Y22319   7.012   4.894   4.019  1.5549  0.8286  1.1477
  192SAPI  H18Z22320   6.975   4.863   4.197  0.7869  0.6953  0.6945
  193SOD    SOD22321   3.217   0.814   3.610  0.6773 -0.0440  0.4763
  194SOD    SOD22322   2.256   5.514   3.040  0.3917  0.3633  0.1273
  195SOD    SOD22323   5.975   4.695   2.879  0.2313  0.0522 -0.5475
  196SOD    SOD22324   5.891   0.809   1.346 -0.1038 -0.1323  0.0556
  197SOD    SOD22325   6.120   4.399   7.244 -0.3178  0.4589 -0.1991
  198SOD    SOD22326   2.602   0.962   8.218 -0.1435 -0.2167  0.6649
  199SOD    SOD22327   4.498   1.436   7.751 -0.4236 -0.4009  0.1396
  200SOD    SOD22328   3.515   5.048   0.169 -0.5028  0.1323  0.3071
  201SOD    SOD22329   4.398   6.387   0.502  0.0356 -0.5036  0.1171
  202SOD    SOD22330   1.233   1.719   0.094  0.2403 -0.2556  0.2484
  203SOD    SOD22331   5.110   5.971   8.189 -0.2568 -0.3589  0.0149
  204SOD    SOD22332   0.557   3.262   0.231 -0.2719 -0.1439  0.1791
  205SOD    SOD22333   5.443   5.298   1.701 -0.5597 -0.3691 -0.4615
  206SOD    SOD22334   6.621   6.340   1.970 -0.0442  0.2570 -0.2296
  207SOD    SOD22335   0.744   6.787   1.743 -0.5555 -0.0243 -0.3624
  208SOD    SOD22336   0.599   5.067   0.300  0.2139 -0.0463  0.0237
  209SOD    SOD22337   0.604   6.254   2.854 -0.0052 -0.3135 -0.5976
  210SOD    SOD22338   1.298   0.282   0.120  0.2867  0.9256  0.4120
  211SOD    SOD22339   2.454   6.460   8.029 -0.1288  0.6634 -0.2239
  212SOD    SOD22340   4.587   4.549   0.187 -0.0030  0.4604  0.3148
  213SOD    SOD22341   6.189   1.887   3.346 -0.2084  0.2192  0.1097
  214SOD    SOD22342   3.715   5.095   0.527  0.0321  0.4908 -0.2148
  215SOD    SOD22343   2.760   6.592   3.750 -0.0120  0.4144 -0.2008
  216SOD    SOD22344   3.925   3.129   0.610 -0.1926  0.2735  0.1690
  217SOD    SOD22345   5.173   0.814   2.926  0.4560 -0.7653 -0.5872
  218SOD    SOD22346   4.794   0.146   0.027 -0.2415 -0.2605 -0.8543
  219SOD    SOD22347   1.079   4.405   0.598  0.0284  0.1283  0.2369
  220SOD    SOD22348   0.572   2.551   1.627 -0.0185 -0.9942 -0.1490
  221SOD    SOD22349   6.139   6.205   0.304  0.5483 -0.2143 -0.1411
  222SOD    SOD22350   4.779   6.532   3.022  0.0437  0.4312  0.0381
  223SOD    SOD22351   3.806   2.658   2.764  0.2755 -0.1678  0.9110
  224SOD    SOD22352   4.683   1.839   1.817 -0.2644 -0.0285  0.0241
  225SOD    SOD22353   4.298   2.591   2.402  0.4198 -0.1142  0.3466
  226SOD    SOD22354   6.104   3.329   2.486 -0.1521 -0.0652  0.0222
  227SOD    SOD22355   0.816   3.031   1.837 -0.0151  0.4654 -0.3824
  228SOD    SOD22356   4.765   3.326   8.125 -0.1179 -0.3168 -0.1518
  229SOD    SOD22357   2.639   5.357   2.477 -0.3667 -0.2059  0.1402
  230CLA    CLA22358   2.045   0.139   0.567 -0.2022  0.4456 -0.0483
  231CLA    CLA22359   6.958   5.457   1.157 -0.4093  0.3303 -0.1014
  232CLA    CLA22360   1.489   6.715   0.191  0.3209  0.2698 -0.2748
  233CLA    CLA22361   5.546   2.407   2.559  0.1321  0.2742 -0.2805
  234CLA    CLA22362   2.718   2.187   0.019  0.0572  0.0292  0.2622
  235CLA    CLA22363   1.010   0.107   0.736 -0.0215  0.2640 -0.2438
  236CLA    CLA22364   2.685   1.738   0.846  0.3961  0.2313  0.4507
  237CLA    CLA22365   6.797   0.496   2.884 -0.7093 -0.5589  0.5392
  238CLA    CLA22366   4.180   4.676   2.447 -0.0387 -0.1555 -0.1968
  239CLA    CLA22367   2.253   6.213   0.162 -0.1249  0.5069  0.5736
  240CLA    CLA22368   0.554   3.095   2.197  0.2728 -0.1137  0.3989
  241CLA    CLA22369   3.022   3.785   1.824 -0.1718  0.3521 -0.0058
  242CLA    CLA22370   2.159   4.152   2.354 -0.0416 -0.0360 -0.3118
  243CLA    CLA22371   4.285   5.240   2.542  0.0879 -0.1057  0.1525
  244CLA    CLA22372   6.060   6.841   1.696 -0.2664 -0.4327  0.5344
  245CLA    CLA22373   0.850   1.772   0.891 -0.1927  0.2026  0.0845
  246CLA    CLA22374   0.665   4.485   1.032  0.0226  0.0282 -0.1181
  247TIP3   OH222375   3.071   5.044   0.995 -0.5637 -0.2261  0.4870
  247TIP3    H122376   2.981   5.041   0.962 -0.9295  0.1785  1.4269
  247TIP3    H222377   3.064   5.020   1.088  0.1623  0.8605  0.8419
  248TIP3   OH222378   2.334   0.180   0.384  0.2119  0.2558 -0.6247
  248TIP3    H122379   2.397   0.109   0.399 -0.0894  0.4772  2.3078
  248TIP3    H222380   2.257   0.154   0.436 -0.8526  1.5636 -1.4985
  249TIP3   OH222381   0.089   2.492   2.683 -0.4408  0.3766 -0.7440
  249TIP3    H122382   0.100   2.587   2.679  0.2198  0.3714  0.3706
  249TIP3    H222383   0.018   2.480   2.746  1.5991  0.0998  1.6751
  250TIP3   OH222384   3.776   2.254   7.770 -0.4808  0.6589 -0.5322
  250TIP3    H122385   3.830   2.291   7.839  0.5911  0.3490 -1.1879
  250TIP3    H222386   3.819   2.172   7.746 -0.6028  0.9488 -1.8327
  251TIP3   OH222387   0.331   0.916   2.343  0.1250  0.3495 -0.3305
  251TIP3    H122388   0.341   0.866   2.262 -1.6119 -0.8776  0.1434
  251TIP3    H222389   0.246   0.958   2.335  0.7544  1.7537  0.0843
  252TIP3   OH222390   2.870   3.204   0.119 -0.4961  0.0896  0.1583
  252TIP3    H122391   2.879   3.234   0.210 -0.4407 -1.5282  0.7218
  252TIP3    H222392   2.783   3.164   0.115  0.0564 -1.1586 -0.0584
  253TIP3   OH222393   1.736   6.406   7.920  0.3575 -0.6132 -0.4018
  253TIP3    H122394   1.658   6.436   7.967  0.6111  0.9296 -0.9109
  253TIP3    H222395   1.757   6.477   7.860  2.0429 -1.0775 -0.4226
  254TIP3   OH222396   0.154   0.031   0.325 -0.4711  0.0664  0.4902
  254TIP3    H122397   0.085   0.074   0.274  1.3315  0.2438 -1.9934
  254TIP3    H222398   0.161  -0.057   0.287  1.6038  0.5461 -0.3728
  255TIP3   OH222399   3.600   3.210   2.643 -0.4278  0.1677 -0.7607
  255TIP3    H122400   3.574   3.175   2.728 -0.7519  0.8227 -0.5818
  255TIP3    H222401   3.519   3.243   2.605 -0.1315  0.7337 -0.9112
  256TIP3   OH222402   5.367   5.594   0.764 -0.0585  0.5480 -0.6314
  256TIP3    H122403   5.304   5.634   0.704 -2.3315 -0.5839  0.8188
  256TIP3    H222404   5.314   5.569   0.840  2.6815  2.1366  2.0076
  257TIP3   OH222405   2.734   2.879   2.285 -0.2527 -0.4258  0.5235
  257TIP3    H122406   2.671   2.821   2.244  0.4077 -0.2700 -0.7621
  257TIP3    H222407   2.792   2.820   2.334  0.3514 -0.8627 -0.6842
  258TIP3   OH222408   1.237   2.919   1.762 -0.2159  0.0409 -0.2043
  258TIP3    H122409   1.333   2.920   1.763 -0.1590 -1.7921 -0.5169
  258TIP3    H222410   1.213   2.861   1.834 -1.2133  2.1833  1.3046
  259TIP3   OH222411   5.550   0.336   2.320  0.3274  0.0247 -0.0529
  259TIP3    H122412   5.569   0.244   2.338  1.9067  0.5288  1.0224
  259TIP3    H222413   5.532   0.339   2.225 -0.4635 -1.4703  0.0203
  260TIP3   OH222414   1.789   4.834   7.604  0.1237 -0.0249 -0.6400
  260TIP3    H122415   1.809   4.843   7.697 -1.2286 -1.4965 -0.1632
  260TIP3    H222416   1.712   4.777   7.601  0.5986 -0.6650 -2.6870
  261TIP3   OH222417   2.975   6.793   7.950  0.0766 -0.4198  0.0743
  261TIP3    H122418   2.926   6.874   7.942 -0.5948 -0.9297 -1.3494
  261TIP3    H222419   2.917   6.735   8.001 -0.2619 -0.5993 -0.5032
  262TIP3   OH222420   2.210   4.608   2.295 -0.3124  0.1099 -0.0968
  262TIP3    H122421   2.169   4.669   2.356 -2.3246 -1.9073  0.7240
  262TIP3    H222422   2.187   4.640   2.208 -0.1524  1.2556  0.2722
  263TIP3   OH222423   6.745   6.738   2.287  0.3444  0.0161  0.0521
  263TIP3    H122424   6.766   6.672   2.353 -2.4584  0.4076  1.5234
  263TIP3    H222425   6.772   6.821   2.326  0.4586  0.0728 -0.1470
  264TIP3   OH222426   0.634   6.309   0.722  0.1785  0.2486 -0.2192
  264TIP3    H122427   0.590   6.252   0.658 -1.6949  0.4261  0.8405
  264TIP3    H222428   0.662   6.249   0.791 -0.8012  0.4475  0.3662
  265TIP3   OH222429   3.700   3.769   8.082 -0.1621 -0.0815 -0.1348
  265TIP3    H122430   3.628   3.731   8.133 -0.4276 -0.4696 -0.7766
  265TIP3    H222431   3.779   3.744   8.129 -0.4051 -0.3529  0.1350
  266TIP3   OH222432   1.416   1.779   2.330 -0.2454 -0.6259  0.1127
  266TIP3    H122433   1.344   1.716   2.330 -1.0761  0.3213  0.3820
  266TIP3    H222434   1.425   1.806   2.421  0.0060 -0.2346 -0.0276
  267TIP3   OH222435   4.988   6.572   1.298 -0.0644 -0.7196 -0.1553
  267TIP3    H122436   4.973   6.635   1.368 -1.7990  0.5024 -1.5531
  267TIP3    H222437   4.979   6.487   1.340  3.7348 -0.2556  2.1095
  268TIP3   OH222438   2.890   3.332   2.880  0.0862  0.5306 -0.1054
  268TIP3    H122439   2.851   3.379   2.954  1.6729  0.4145  0.8425
  268TIP3    H222440   2.898   3.398   2.811 -0.5725  0.8659  0.1278
  269TIP3   OH222441   0.782   2.357   2.224  0.0715 -0.2393  0.0355
  269TIP3    H122442   0.869   2.370   2.187 -0.2036 -0.9477 -0.9070
  269TIP3    H222443   0.722   2.383   2.154 -0.4697 -0.8029  0.2739
  270TIP3   OH222444   1.093   2.258   3.712 -0.7220  0.3781  0.4047
  270TIP3    H122445   1.140   2.338   3.691 -1.0533  0.5059  0.1434
  270TIP3    H222446   1.112   2.199   3.639  0.4521 -0.1979  1.1432
  271TIP3   OH222447   3.877   1.773   7.488 -0.3159 -0.0094  0.0719
  271TIP3    H122448   3.971   1.785   7.492 -0.2032 -0.9741  0.6640
  271TIP3    H222449   3.844   1.849   7.440  0.7690  0.2745 -0.2277
  272TIP3   OH222450   0.973   4.586   7.936  0.0665  0.2080  0.0153
  272TIP3    H122451   0.890   4.623   7.905 -0.3494 -0.1672  0.6695
  272TIP3    H222452   0.948   4.510   7.988  0.9354 -1.4181 -1.8434
  273TIP3   OH222453   4.833   1.792   2.853  0.1973 -0.1568  0.2970
  273TIP3    H122454   4.754   1.782   2.799  1.5246  0.0206 -1.7950
  273TIP3    H222455   4.867   1.704   2.862 -0.1418 -0.2178  1.1084
  274TIP3   OH222456   0.676   2.730   4.213 -0.2392  0.2633  0.0075
  274TIP3    H122457   0.675   2.769   4.126 -0.0563 -0.2016 -0.2069
  274TIP3    H222458   0.586   2.736   4.244 -0.4211 -0.0878 -0.4489
  275TIP3   OH222459   5.475   6.987   3.388 -0.0084 -0.6862 -0.0157
  275TIP3    H122460   5.435   6.943   3.463 -0.0307 -1.1165 -0.2764
  275TIP3    H222461   5.477   7.080   3.413 -0.7759 -0.7147  0.1762
  276TIP3   OH222462   2.507   4.486   2.569  0.3892  0.0499 -0.0283
  276TIP3    H122463   2.430   4.433   2.553 -0.7133  2.0466 -1.8304
  276TIP3    H222464   2.581   4.430   2.546 -0.6765 -0.9379 -1.1301
  277TIP3   OH222465   0.940   5.073   1.126 -0.3959  0.8827 -0.2309
  277TIP3    H122466   0.989   5.148   1.092  1.8081 -0.1994  0.3853
  277TIP3    H222467   0.961   5.002   1.066 -1.5592  0.4505 -0.1590
  278TIP3   OH222468   6.882   0.396   3.414  0.1644 -0.0150  0.2659
  278TIP3    H122469   6.803   0.343   3.403  0.0202  0.0684  0.8789
  278TIP3    H222470   6.954   0.334   3.415 -0.1057 -0.3580  2.3658
  279TIP3   OH222471   2.138   5.352   2.517  0.7476  0.0029  0.3565
  279TIP3    H122472   2.142   5.318   2.606 -0.2455 -1.1494 -0.0088
  279TIP3    H222473   2.183   5.286   2.464 -0.3295 -0.2987 -0.2263
  280TIP3   OH222474   5.863   5.804   3.185  0.2234 -0.1206 -0.7760
  280TIP3    H122475   5.843   5.888   3.226  1.4150  1.1525 -2.6471
  280TIP3    H222476   5.778   5.773   3.153 -0.3040  0.1154  0.3253
  281TIP3   OH222477   3.068   1.221   2.535  0.3030  0.2077 -0.4182
  281TIP3    H122478   3.041   1.248   2.622 -0.7840  0.6771 -0.8746
  281TIP3    H222479   3.060   1.125   2.536  0.3348  0.2076  0.0079
  282TIP3   OH222480   2.136   0.482   1.566  0.0519  0.0686 -0.0026
  282TIP3    H122481   2.158   0.467   1.658 -1.2217 -0.5548  0.2169
  282TIP3    H222482   2.059   0.538   1.569 -0.1258 -0.1391 -0.6934
  283TIP3   OH222483   1.941   1.753   1.298 -0.5474  0.1559 -0.2502
  283TIP3    H122484   1.974   1.716   1.380  1.8587 -0.6045 -1.4424
  283TIP3    H222485   1.977   1.841   1.295  0.1078 -0.1223 -0.8560
  284TIP3   OH222486   6.455   0.412   8.162  0.5117 -0.3746  0.5237
  284TIP3    H122487   6.470   0.484   8.101 -0.1439 -1.2136 -0.6797
  284TIP3    H222488   6.414   0.343   8.108  1.1535 -1.6640  1.6129
  285TIP3   OH222489   6.985   6.836   3.804 -0.6717  0.2172  0.4024
  285TIP3    H122490   7.069   6.873   3.775 -1.0265  0.8113  0.1212
  285TIP3    H222491   6.955   6.784   3.730 -1.0035  0.7747  0.1358
  286TIP3   OH222492   4.073   5.222   1.354  0.0807  0.2758  0.4013
  286TIP3    H122493   4.104   5.303   1.316  1.1901  0.2485  1.1826
  286TIP3    H222494   4.032   5.248   1.436  1.9230 -0.0549  1.4859
  287TIP3   OH222495   5.469   5.124   2.616 -0.6168  0.0143 -0.2827
  287TIP3    H122496   5.483   5.186   2.688  1.9300  0.4090 -1.0479
  287TIP3    H222497   5.422   5.051   2.658 -0.7336  0.9705  1.3749
  288TIP3   OH222498   4.047   1.537   7.933  0.5196 -0.2161  0.5479
  288TIP3    H122499   3.978   1.525   7.999  0.5857  1.4461  0.9570
  288TIP3    H222500   3.999   1.548   7.851  0.3257  0.3532  0.7378
  289TIP3   OH222501   5.979   6.337   0.893  0.2296  0.5948 -0.1885
  289TIP3    H122502   5.890   6.316   0.863 -0.0139 -0.1615  1.0053
  289TIP3    H222503   5.968   6.364   0.984  1.4003 -1.2110  0.5360
  290TIP3   OH222504   3.521   6.942   7.633  0.0364 -0.0393 -1.0032
  290TIP3    H122505   3.601   6.903   7.670  0.6116  0.0330 -2.1286
  290TIP3    H222506   3.525   7.034   7.659 -1.4182 -0.6601  1.8282
  291TIP3   OH222507   4.522   6.256   8.190  0.2817  0.1726 -0.2731
  291TIP3    H122508   4.435   6.231   8.158  1.2777 -2.0581 -1.5026
  291TIP3    H222509   4.564   6.173   8.213  1.8123  1.2661  1.0999
  292TIP3   OH222510   6.319   1.753   3.191 -0.5994  0.0711 -0.2208
  292TIP3    H122511   6.325   1.779   3.099 -0.8186  2.8919  0.4545
  292TIP3    H222512   6.380   1.680   3.200 -1.6812 -1.2739 -2.8617
  293TIP3   OH222513   2.451   0.493   8.072 -0.5617  0.2431  0.2470
  293TIP3    H122514   2.464   0.416   8.016  1.2274  1.2619 -0.8094
  293TIP3    H222515   2.427   0.562   8.011 -1.3467  0.7394  1.0998
  294TIP3   OH222516   5.812   5.071   2.656  0.1348 -0.3554 -0.5334
  294TIP3    H122517   5.837   5.116   2.575  0.6253  0.3526  0.0041
  294TIP3    H222518   5.767   5.137   2.708 -1.0940 -1.0740 -0.6278
  295TIP3   OH222519   1.285   6.635   2.355  0.2455 -0.0514  0.0797
  295TIP3    H122520   1.357   6.653   2.294  0.5343 -0.0302  0.4246
  295TIP3    H222521   1.276   6.540   2.355 -0.1718 -0.0187 -0.4700
  296TIP3   OH222522   6.444   0.966   1.021 -0.2014 -0.0901  0.4599
  296TIP3    H122523   6.495   0.920   0.954  0.3235  1.5336 -0.3160
  296TIP3    H222524   6.498   0.963   1.099 -0.5385 -1.4587  0.6673
  297TIP3   OH222525   3.856   6.854   0.416  0.3361  0.0482  0.6240
  297TIP3    H122526   3.817   6.819   0.336 -1.9515  0.7739  1.3458
  297TIP3    H222527   3.873   6.777   0.470  3.7992 -0.6756 -1.2118
  298TIP3   OH222528   6.893   1.053   0.849 -0.0437  0.0700 -0.1228
  298TIP3    H122529   6.875   0.998   0.925 -1.7067  1.4718  0.5433
  298TIP3    H222530   6.938   1.129   0.884  0.9484 -0.1738 -0.8390
  299TIP3   OH222531   0.857   4.075   2.872 -0.0727 -0.2001  0.2593
  299TIP3    H122532   0.882   4.029   2.792 -2.6694 -0.8306 -0.2897
  299TIP3    H222533   0.875   4.013   2.942  1.2218 -0.0527  0.0717
  300TIP3   OH222534   5.969   6.008   3.003  0.4377  0.0518  0.5425
  300TIP3    H122535   5.931   5.923   3.027  0.1134  0.0417  0.0235
  300TIP3    H222536   5.909   6.043   2.937  0.1720  1.0244  1.2709
  301TIP3   OH222537   1.481   6.524   3.109  0.1416 -0.6664  0.0368
  301TIP3    H122538   1.512   6.605   3.070 -0.4553 -0.0638  0.7825
  301TIP3    H222539   1.534   6.515   3.189 -0.1504 -0.7313  0.2253
  302TIP3   OH222540   3.568   4.601   3.357 -0.1264  0.0343 -0.2912
  302TIP3    H122541   3.569   4.695   3.372 -2.7359  0.0219  0.4314
  302TIP3    H222542   3.609   4.563   3.434  0.2937  0.5535 -0.2604
  303TIP3   OH222543   5.564   7.003   0.239 -0.3799 -0.1322 -0.0613
  303TIP3    H122544   5.549   6.975   0.329 -1.4476  1.5307  0.3155
  303TIP3    H222545   5.594   6.924   0.194 -0.8543 -1.2430  1.4957
  304TIP3   OH222546   1.862   2.972   7.633  0.0060  0.0764  0.1020
  304TIP3    H122547   1.916   2.944   7.559 -0.4308 -1.3718  0.2920
  304TIP3    H222548   1.920   3.025   7.687  1.0430 -0.8432 -0.0723
  305TIP3   OH222549   2.235   3.895   7.829 -0.5148 -0.5176  0.0362
  305TIP3    H122550   2.268   3.806   7.844  0.1208 -0.8268 -2.6728
  305TIP3    H222551   2.148   3.881   7.791  1.2113 -0.3391 -4.5243
  306TIP3   OH222552   1.690   2.616   0.612  0.8228  0.1308 -0.4258
  306TIP3    H122553   1.779   2.620   0.579  1.1561 -0.2473  0.3921
  306TIP3    H222554   1.651   2.541   0.567  0.3940  1.2435 -1.9745
  307TIP3   OH222555   2.913   4.699   0.696 -0.0536 -0.4848  0.3646
  307TIP3    H122556   2.916   4.605   0.713  1.9701 -0.4690  0.3052
  307TIP3    H222557   2.975   4.736   0.759  0.0830  0.6708 -0.4329
  308TIP3   OH222558   6.932   1.550   0.978 -0.5333 -0.7781 -0.0582
  308TIP3    H122559   6.886   1.617   1.030 -1.6157 -1.0368 -0.6477
  308TIP3    H222560   7.024   1.560   1.002 -0.8781 -0.1830  1.1083
  309TIP3   OH222561   3.033   4.738   0.241  0.0759  0.3854  0.1172
  309TIP3    H122562   3.123   4.727   0.210  0.4357  3.1479 -0.1392
  309TIP3    H222563   3.039   4.812   0.303 -1.7856 -0.3878  1.3049
  310TIP3   OH222564   2.926   2.850   7.033  0.0570 -0.6004  0.3105
  310TIP3    H122565   2.960   2.811   7.114  0.2461  0.0279  0.5383
  310TIP3    H222566   2.833   2.825   7.032 -0.4423  0.9976  1.7324
  311TIP3   OH222567   1.377   4.819   8.234 -0.3228 -0.0806 -0.1516
  311TIP3    H122568   1.356   4.903   8.195 -0.8957 -1.2530 -2.6060
  311TIP3    H222569   1.369   4.756   8.162  1.3265 -2.0796  1.2496
  312TIP3   OH222570   0.839   1.794   2.094 -0.2413  0.7584 -0.4999
  312TIP3    H122571   0.788   1.850   2.151 -0.6210 -0.3038  0.2313
  312TIP3    H222572   0.929   1.827   2.102 -0.4930  1.4179 -0.3062
  313TIP3   OH222573   4.642   0.068   2.736  0.4168 -0.0002  0.2508
  313TIP3    H122574   4.616   0.046   2.646  1.2016 -2.2508  0.5264
  313TIP3    H222575   4.578   0.134   2.763 -0.3048  0.1672 -1.6847
  314TIP3   OH222576   3.246   1.445   7.477  0.0436  0.3284 -0.0401
  314TIP3    H122577   3.311   1.375   7.474 -1.0231 -0.6687 -2.1136
  314TIP3    H222578   3.261   1.495   7.396 -0.3335  1.4450  0.5629
  315TIP3   OH222579   6.414   6.533   3.804  0.0227 -0.1625 -0.1899
  315TIP3    H122580   6.450   6.468   3.743 -0.3350 -0.5325 -0.0150
  315TIP3    H222581   6.468   6.610   3.792  0.2508 -0.3892 -0.6400
  316TIP3   OH222582   3.428   2.843   0.064  0.1930 -0.3262 -0.1505
  316TIP3    H122583   3.371   2.823   0.138  0.1518 -2.6129 -0.7375
  316TIP3    H222584   3.421   2.938   0.054 -0.7452 -0.1149  1.9872
  317TIP3   OH222585   6.180   5.345   1.411 -0.3875 -0.3869 -0.2969
  317TIP3    H122586   6.108   5.409   1.408 -1.0586 -1.1363 -0.5917
  317TIP3    H222587   6.219   5.349   1.323 -0.4676 -0.4224 -0.3344
  318TIP3   OH222588   1.108   1.933   0.141  0.2874 -0.3687  0.1253
  318TIP3    H122589   1.111   2.011   0.196  0.5459 -0.5716  0.3993
  318TIP3    H222590   1.027   1.943   0.091  0.3490  0.1043  0.1126
  319TIP3   OH222591   6.497   0.921   8.172 -0.2844 -0.0433  0.0822
  319TIP3    H122592   6.419   0.866   8.179 -1.0676  0.9497 -0.6242
  319TIP3    H222593   6.464   1.010   8.175  0.7992  0.3969 -0.5453
  320TIP3   OH222594   6.109   5.510   8.021  0.1764  0.2961  0.3578
  320TIP3    H122595   6.166   5.510   7.943  0.9363 -1.4765  0.8647
  320TIP3    H222596   6.145   5.577   8.077  1.0317  0.0324  0.1372
  321TIP3   OH222597   5.108   4.414   3.084  0.4847  0.0048  0.4008
  321TIP3    H122598   5.028   4.433   3.132 -0.4874 -2.5603 -0.0528
  321TIP3    H222599   5.178   4.451   3.139 -0.9227  1.9734  0.9831
  322TIP3   OH222600   6.007   1.840   3.176 -0.3784 -0.0372 -0.1018
  322TIP3    H122601   5.916   1.832   3.202  0.2370 -0.6434  2.0939
  322TIP3    H222602   6.006   1.898   3.099 -2.5246  0.4708  0.2644
  323TIP3   OH222603   3.777   4.237   0.602 -0.3530 -0.7651 -0.0110
  323TIP3    H122604   3.699   4.187   0.627 -1.2178 -0.2163 -1.4675
  323TIP3    H222605   3.846   4.205   0.660 -0.7515 -4.0098 -1.1182
  324TIP3   OH222606   5.055   6.772   1.091  0.5062 -0.4387  0.8804
  324TIP3    H122607   5.131   6.812   1.132  0.1567 -0.2058  1.3097
  324TIP3    H222608   5.023   6.709   1.156 -0.8602  0.8995  1.5735
  325TIP3   OH222609   0.924   6.729   3.763  0.3818  0.1666 -0.0450
  325TIP3    H122610   1.010   6.763   3.791  0.2366  1.0499 -0.6254
  325TIP3    H222611   0.906   6.776   3.681 -0.7428  0.1286  0.1728
  326TIP3   OH222612   6.780   5.357   1.794  0.0114  0.0712 -0.3195
  326TIP3    H122613   6.704   5.382   1.741 -0.9739 -0.8735  0.5960
  326TIP3    H222614   6.851   5.348   1.731 -0.5110  1.3803 -1.1527
  327TIP3   OH222615   2.678   4.705   0.215 -0.4613  0.9110 -0.1969
  327TIP3    H122616   2.738   4.760   0.164  1.0385 -0.0111  0.5162
  327TIP3    H222617   2.708   4.714   0.305 -1.9500  1.0862  0.2966
  328TIP3   OH222618   4.884   6.326   8.277  0.1776  0.3215 -0.1749
  328TIP3    H122619   4.957   6.349   8.220  0.7044  3.6742  1.6111
  328TIP3    H222620   4.919   6.261   8.337  0.6556 -0.5953 -1.4192
  329TIP3   OH222621   3.299   4.278   0.157 -0.1012  0.0458  0.5494
  329TIP3    H122622   3.392   4.258   0.144 -0.0485  0.7046 -0.1776
  329TIP3    H222623   3.286   4.360   0.109 -1.0279  0.0280  0.7648
  330TIP3   OH222624   2.247   6.507   8.094 -0.4502 -0.5068 -0.4015
  330TIP3    H122625   2.193   6.459   8.156 -1.7740  0.8903 -0.4098
  330TIP3    H222626   2.188   6.531   8.023  0.1946  0.9370 -0.4936
  331TIP3   OH222627   0.054   7.051   0.564 -0.0178  0.0601  0.4540
  331TIP3    H122628   0.098   6.980   0.612 -0.8712 -0.4793  0.4486
  331TIP3    H222629   0.110   7.066   0.488  0.8973  0.3418  1.1619
  332TIP3   OH222630   3.456   4.593   2.652  0.4255 -0.4629  0.9424
  332TIP3    H122631   3.518   4.621   2.719  1.0928  1.4230 -0.3684
  332TIP3    H222632   3.510   4.571   2.576 -0.3836 -1.2963  0.5859
  333TIP3   OH222633   4.592   2.314   7.385  0.3512 -0.6079  0.2421
  333TIP3    H122634   4.528   2.258   7.340 -0.3944 -0.7348  1.3947
  333TIP3    H222635   4.677   2.280   7.358 -0.0655 -0.7749 -0.9245
  334TIP3   OH222636   6.418   5.683   7.946 -0.1335 -0.1273 -1.1525
  334TIP3    H122637   6.366   5.622   7.894 -0.0041  0.0556 -1.5002
  334TIP3    H222638   6.444   5.752   7.884 -3.2612  2.2598 -0.0751
  335TIP3   OH222639   4.239   2.252   1.276  0.3759  0.2878  0.0323
  335TIP3    H122640   4.333   2.258   1.295  0.4221  2.1235 -0.6153
  335TIP3    H222641   4.203   2.335   1.309 -1.1387 -0.6562  0.8447
  336TIP3   OH222642   3.530   6.257   7.679  0.0234  0.0773  0.0428
  336TIP3    H122643   3.485   6.316   7.740 -0.7359 -2.4926  2.1439
  336TIP3    H222644   3.498   6.283   7.593 -1.0277  2.0548  0.9508
  337TIP3   OH222645   0.706   3.480   2.855  0.0385 -0.1695 -0.3133
  337TIP3    H122646   0.727   3.441   2.940 -1.1380  0.4877  0.2976
  337TIP3    H222647   0.617   3.450   2.836 -0.0379  0.4094 -0.8954
  338TIP3   OH222648   5.188   4.082   0.097 -0.5072  0.0433  0.4312
  338TIP3    H122649   5.174   4.028   0.019 -2.1639 -0.5997  1.1383
  338TIP3    H222650   5.283   4.089   0.104 -0.2467  2.0706 -2.9502
  339TIP3   OH222651   0.069   4.399   0.788  0.0446  0.0125  0.1007
  339TIP3    H122652   0.018   4.449   0.852 -1.5778  0.4905 -1.5112
  339TIP3    H222653   0.047   4.308   0.806 -2.1213  0.2391 -1.0881
  340TIP3   OH222654   6.598   4.655   7.490 -0.6040 -0.0314  0.1099
  340TIP3    H122655   6.544   4.735   7.488 -0.8404 -0.1353 -3.1955
  340TIP3    H222656   6.659   4.669   7.562 -0.3427  3.3745 -0.6040
  341TIP3   OH222657   4.103   3.794   0.116  0.4630 -0.3648 -0.1506
  341TIP3    H122658   4.161   3.751   0.053 -1.1394 -0.9639 -1.2694
  341TIP3    H222659   4.079   3.876   0.074 -0.2531 -0.5588 -0.1258
  342TIP3   OH222660   7.011   0.629   1.035  0.0938 -0.2307 -1.0843
  342TIP3    H122661   6.963   0.582   1.103 -0.6407 -0.6462 -1.8804
  342TIP3    H222662   6.974   0.717   1.035  1.3820  0.3600  0.3183
  343TIP3   OH222663   1.852   0.701   2.173 -0.2659 -0.2568  0.3286
  343TIP3    H122664   1.873   0.771   2.234 -1.5227 -1.5937  2.4430
  343TIP3    H222665   1.936   0.673   2.138  0.4334  0.9572  0.9931
  344TIP3   OH222666   2.822   6.642   3.188 -0.2511 -0.2658  0.3445
  344TIP3    H122667   2.917   6.636   3.174 -0.2780  0.8569 -0.4996
  344TIP3    H222668   2.814   6.689   3.271 -0.0369  0.4604 -0.0281
  345TIP3   OH222669   3.552   6.277   0.068  0.3324  0.2535  0.6824
  345TIP3    H122670   3.500   6.327   0.005  2.4220 -0.8142 -2.1284
  345TIP3    H222671   3.619   6.338   0.098  0.4961  0.2435  0.3424
  346TIP3   OH222672   0.127   6.110   2.980  0.1301  0.2824  0.3273
  346TIP3    H122673   0.156   6.191   3.023  2.3637 -0.2059 -0.1748
  346TIP3    H222674   0.031   6.114   2.985  0.1023  3.4532 -0.5498
  347TIP3   OH222675   0.595   1.987   3.186  0.5329  0.0866 -0.1311
  347TIP3    H122676   0.562   1.937   3.260  2.6771  0.4815  1.1747
  347TIP3    H222677   0.533   1.970   3.116 -0.6580 -1.6347  1.2601
  348TIP3   OH222678   2.992   3.800   0.880 -0.1161 -0.3753  0.2787
  348TIP3    H122679   3.037   3.729   0.834 -2.0454 -1.5054  0.0460
  348TIP3    H222680   3.051   3.822   0.953  1.1131 -1.3186 -0.4032
  349TIP3   OH222681   0.440   6.334   0.141  0.0914  0.7624  0.1525
  349TIP3    H122682   0.443   6.416   0.192  0.6347  1.5021 -1.0329
  349TIP3    H222683   0.527   6.296   0.152  0.0475  0.6683  0.1768
  350TIP3   OH222684   1.307   6.310   0.262 -0.2411  0.1827  0.1262
  350TIP3    H122685   1.223   6.281   0.299  0.6281 -0.6778  1.5401
  350TIP3    H222686   1.344   6.231   0.222  0.1931  0.3853  0.1237
  351TIP3   OH222687   0.985   5.092   8.026 -0.3449  0.6217  0.4971
  351TIP3    H122688   0.943   5.060   7.946 -0.1351  1.5730 -0.0058
  351TIP3    H222689   1.022   5.013   8.066 -1.3352 -0.0181  0.1980
  352TIP3   OH222690   2.823   6.816   7.333  0.2469  0.0159  0.4217
  352TIP3    H122691   2.795   6.898   7.293  1.7531 -0.4733 -1.7904
  352TIP3    H222692   2.793   6.748   7.273 -0.0625 -0.9883  1.6800
  353TIP3   OH222693   0.341   0.226   2.084 -0.2967  0.1732 -0.2312
  353TIP3    H122694   0.431   0.252   2.103 -0.1689 -1.1339  1.1931
  353TIP3    H222695   0.296   0.233   2.168 -0.5712 -2.7247 -0.0467
  354TIP3   OH222696   6.326   6.320   7.936  0.8621  0.2525 -0.5049
  354TIP3    H122697   6.421   6.324   7.929  0.8136 -0.0869 -1.7769
  354TIP3    H222698   6.295   6.397   7.888  0.4672 -1.9167 -4.1150
  355TIP3   OH222699   1.386   4.788   7.938 -0.5068  0.0750  0.1479
  355TIP3    H122700   1.474   4.767   7.907 -0.3872 -0.5153  0.8514
  355TIP3    H222701   1.351   4.850   7.873  0.1525 -0.2432 -0.5258
  356TIP3   OH222702   1.250   5.860   2.554  0.1715 -0.2301  0.1316
  356TIP3    H122703   1.236   5.765   2.551  0.2595 -0.2339 -0.3069
  356TIP3    H222704   1.322   5.872   2.617 -1.6527 -0.2130  2.3227
  357TIP3   OH222705   3.928   6.866   0.045 -0.1459 -1.0156  0.2293
  357TIP3    H122706   3.978   6.936   0.087 -0.1424 -0.4267 -0.7188
  357TIP3    H222707   3.837   6.886   0.065 -0.2045 -0.2577 -0.7052
  358TIP3   OH222708   5.090   4.011   3.233  0.2426 -0.5475  0.0646
  358TIP3    H122709   5.117   4.037   3.321 -0.6187 -1.9780  0.7827
  358TIP3    H222710   5.017   3.951   3.247 -1.0666  0.5313 -1.6925
  359TIP3   OH222711   6.292   2.605   3.838 -0.6072 -0.3478  0.2476
  359TIP3    H122712   6.259   2.547   3.769  1.2380 -1.0047 -0.1400
  359TIP3    H222713   6.324   2.682   3.792 -1.7811  0.3867  0.6375
  360TIP3   OH222714   6.613   2.470   0.881  0.0624 -0.2868 -0.6598
  360TIP3    H122715   6.650   2.533   0.943 -1.2525 -0.9142  0.8496
  360TIP3    H222716   6.655   2.387   0.904 -0.7417 -0.6056 -0.2766
  361TIP3   OH222717   5.080   0.964   7.790 -0.3042  0.5155 -0.1979
  361TIP3    H122718   5.003   0.907   7.788  0.5719 -0.9301  2.1850
  361TIP3    H222719   5.100   0.972   7.883  1.8309  1.7081 -0.7084
  362TIP3   OH222720   3.576   4.622   0.414 -0.0986  0.1085 -0.7288
  362TIP3    H122721   3.649   4.602   0.355  0.0458  0.5072 -0.6889
  362TIP3    H222722   3.535   4.537   0.432  0.5586 -0.1613 -0.4832
  363TIP3   OH222723   1.514   6.464   8.059  0.2423 -0.3869  0.0636
  363TIP3    H122724   1.534   6.454   8.152 -0.9211  1.4153  0.5591
  363TIP3    H222725   1.420   6.446   8.053  0.4453 -1.2036 -0.9004
  364TIP3   OH222726   5.787   3.139   2.265  0.4243 -0.3261  0.2130
  364TIP3    H122727   5.769   3.085   2.188  1.4746 -0.6902  0.1983
  364TIP3    H222728   5.753   3.225   2.242 -0.5864 -0.7827 -0.0685
  365TIP3   OH222729   6.701   6.430   8.241 -0.2325 -0.4489  0.3402
  365TIP3    H122730   6.779   6.479   8.268 -0.6041 -0.2476  1.0827
  365TIP3    H222731   6.633   6.497   8.230  0.2618 -0.2969 -2.7251
  366TIP3   OH222732   6.844   0.462   2.019 -0.7206  0.7937  0.3188
  366TIP3    H122733   6.898   0.457   1.941 -1.6755 -3.0252 -0.3267
  366TIP3    H222734   6.901   0.498   2.087  1.3667  0.5641 -1.2434
  367TIP3   OH222735   2.788   2.935   1.736 -0.5479 -0.3956  0.0848
  367TIP3    H122736   2.796   3.003   1.669 -2.0918  0.0409  0.3102
  367TIP3    H222737   2.709   2.887   1.712  0.0027 -1.5329  0.4743
  368TIP3   OH222738   1.886   2.100   7.904 -0.5754  0.0157 -0.2305
  368TIP3    H122739   1.906   2.025   7.959 -0.1794  1.0979  1.1548
  368TIP3    H222740   1.812   2.143   7.946 -1.5459 -0.1970 -1.6372
  369TIP3   OH222741   6.874   3.927   8.023 -0.0277 -0.1007  0.4890
  369TIP3    H122742   6.920   4.003   7.987 -0.6473 -0.4151 -1.0903
  369TIP3    H222743   6.781   3.952   8.021 -0.1150 -0.3247  1.4404
  370TIP3   OH222744   3.354   2.936   2.351  0.7763  0.2228 -0.5871
  370TIP3    H122745   3.420   2.964   2.288  1.0747 -1.8568 -1.2855
  370TIP3    H222746   3.396   2.946   2.436  2.4650 -2.0245 -1.0688
  371TIP3   OH222747   0.759   2.420   1.631 -0.0647 -0.1514  0.1776
  371TIP3    H122748   0.765   2.349   1.566 -0.2815  0.5462 -0.6226
  371TIP3    H222749   0.839   2.471   1.617 -1.1265  1.2462 -1.0486
  372TIP3   OH222750   6.888   5.912   2.344 -0.1568  0.4574  0.2367
  372TIP3    H122751   6.939   5.952   2.274 -1.7300  1.3446 -0.4333
  372TIP3    H222752   6.861   5.985   2.400  0.7110 -0.1912  1.5490
  373TIP3   OH222753   0.453   2.381   0.844  0.4648  0.4912  0.2999
  373TIP3    H122754   0.445   2.286   0.857 -0.3654  0.6362  0.9213
  373TIP3    H222755   0.368   2.416   0.872  0.2327  1.2815 -1.3093
  374TIP3   OH222756   0.083   2.125   0.898 -0.0003 -0.2885 -0.1762
  374TIP3    H122757   0.044   2.212   0.910  0.0435 -0.2449 -0.3513
  374TIP3    H222758   0.045   2.072   0.968  0.2524 -0.0321  0.1591
  375TIP3   OH222759   6.450   3.039   2.949 -0.2142 -0.8620 -0.6144
  375TIP3    H122760   6.514   3.101   2.986  1.7762 -1.3475 -2.9420
  375TIP3    H222761   6.384   3.029   3.017  0.2525  2.5040  0.5373
  376TIP3   OH222762   3.157   1.072   1.677 -0.0537 -0.0422 -0.2778
  376TIP3    H122763   3.234   1.058   1.622 -1.0708 -2.3383 -1.2621
  376TIP3    H222764   3.088   1.099   1.616 -0.7281 -0.8267  0.1139
  377TIP3   OH222765   4.468   1.987   2.937 -0.0032  0.2943  0.0212
  377TIP3    H122766   4.449   1.895   2.917  3.8399 -0.4889 -0.8538
  377TIP3    H222767   4.393   2.035   2.902 -1.4028 -2.3796 -0.9306
  378TIP3   OH222768   0.924   4.635   0.934 -0.1311 -0.4313  0.1634
  378TIP3    H122769   0.989   4.586   0.984  0.2470  1.7205  1.9283
  378TIP3    H222770   0.840   4.593   0.956  0.2451 -0.7122  1.0812
  379TIP3   OH222771   0.272   1.002   3.229  0.5322 -0.3358  0.6299
  379TIP3    H122772   0.233   0.956   3.154  0.4831 -1.1129  1.1165
  379TIP3    H222773   0.361   1.022   3.201 -0.1805  1.4807 -0.5037
  380TIP3   OH222774   6.003   4.142   0.946 -0.0624  0.5869  0.1649
  380TIP3    H122775   6.032   4.053   0.967  0.0472  1.1331  2.6020
  380TIP3    H222776   6.080   4.185   0.910 -0.3442 -0.5005 -1.8695
  381TIP3   OH222777   0.350   1.737   2.209  0.0589  0.5259  0.8822
  381TIP3    H122778   0.317   1.648   2.217 -0.9036  0.8759  0.8735
  381TIP3    H222779   0.375   1.762   2.299  5.4032 -1.5784  0.3672
  382TIP3   OH222780   6.815   4.847   7.880  0.2384 -0.1208  0.6746
  382TIP3    H122781   6.888   4.800   7.921  1.0498 -1.2121 -1.7987
  382TIP3    H222782   6.858   4.914   7.826 -0.6273 -0.1287 -0.0434
  383TIP3   OH222783   0.783   5.912   2.330 -0.1807 -0.6108 -0.1785
  383TIP3    H122784   0.868   5.952   2.349 -0.4825 -0.1483  0.2120
  383TIP3    H222785   0.793   5.877   2.241 -0.2816  1.3787 -1.0382
  384TIP3   OH222786   6.645   2.406   2.993 -0.1820  0.2036 -0.0319
  384TIP3    H122787   6.677   2.365   2.913 -0.1963  2.1518 -1.0993
  384TIP3    H222788   6.715   2.392   3.057  0.2211 -0.6015 -0.6213
  385TIP3   OH222789   2.050   1.250   0.115  0.2272  0.9646  0.3571
  385TIP3    H122790   2.105   1.294   0.050  2.6245 -0.0315  1.6023
  385TIP3    H222791   2.100   1.173   0.142 -2.6550 -1.1541  0.1935
  386TIP3   OH222792   2.069   6.363   8.250 -0.0059 -0.3950  0.3049
  386TIP3    H122793   1.978   6.349   8.276  0.1983 -3.1087 -0.1062
  386TIP3    H222794   2.119   6.303   8.306  1.4141  0.3103 -0.1609
  387TIP3   OH222795   3.584   6.289   1.730  0.1460  0.0410  0.2826
  387TIP3    H122796   3.545   6.329   1.808 -0.1893 -0.6556  0.4788
  387TIP3    H222797   3.530   6.211   1.714  1.4361 -0.9369  0.5493
  388TIP3   OH222798   2.548   1.368   1.585 -0.0734 -0.1026 -0.3757
  388TIP3    H122799   2.500   1.417   1.652 -1.9844 -1.1353 -0.8941
  388TIP3    H222800   2.610   1.314   1.634  2.6952  3.2301  0.1838
  389TIP3   OH222801   4.932   2.799   2.485 -0.5838 -0.2826 -0.1483
  389TIP3    H122802   4.944   2.850   2.566  0.5350  1.5464 -1.3849
  389TIP3    H222803   4.999   2.731   2.490 -0.5068 -0.1688  0.4594
  390TIP3   OH222804   0.032   1.080   8.097 -0.1795  0.3365  0.3896
  390TIP3    H122805  -0.021   1.050   8.172 -1.0597  0.2833 -0.2375
  390TIP3    H222806   0.052   1.000   8.049  0.0418  0.4188  0.3438
  391TIP3   OH222807   1.221   6.690   7.533 -0.4139 -0.0927 -0.4591
  391TIP3    H122808   1.151   6.678   7.597  0.2862 -1.9421  0.0125
  391TIP3    H222809   1.255   6.778   7.552 -1.6405  0.2656  0.2392
  392TIP3   OH222810   3.668   4.755   2.760  0.4237 -0.0201 -0.8613
  392TIP3    H122811   3.762   4.765   2.745  0.6766 -2.1596 -0.9999
  392TIP3    H222812   3.643   4.833   2.810  2.3650  0.3253 -0.3634
  393TIP3   OH222813   6.917   4.214   1.181  0.5029  0.4934  0.3732
  393TIP3    H122814   6.908   4.228   1.087 -1.1394 -1.2403  0.1950
  393TIP3    H222815   6.827   4.220   1.214  1.1000  1.4705  1.9199
  394TIP3   OH222816   0.580   1.474   2.810  0.8765  0.2207 -0.2305
  394TIP3    H122817   0.605   1.419   2.735 -0.4486 -0.4250 -0.2299
  394TIP3    H222818   0.597   1.418   2.886 -0.1741 -0.0944 -0.2122
  395TIP3   OH222819   4.108   1.892   0.860  0.4056 -0.2895 -0.1742
  395TIP3    H122820   4.126   1.976   0.902 -0.8910  0.1949 -0.5347
  395TIP3    H222821   4.023   1.866   0.895  0.1032 -0.7172 -1.1966
  396TIP3   OH222822   0.063   0.161   2.442  0.3332  0.3824  0.2485
  396TIP3    H122823   0.072   0.194   2.531 -1.1764 -1.2935  1.0907
  396TIP3    H222824   0.133   0.097   2.432 -0.2077 -0.3012  0.6994
  397TIP3   OH222825   0.245   0.247   1.389  0.2757  0.5246 -0.0101
  397TIP3    H122826   0.297   0.265   1.310  0.4173 -3.3194 -0.9812
  397TIP3    H222827   0.170   0.198   1.357 -1.8897  2.3936  1.8895
  398TIP3   OH222828   0.094   1.138   1.590 -0.2066  0.2776 -0.5694
  398TIP3    H122829   0.027   1.135   1.659 -1.1367 -0.3003 -1.4776
  398TIP3    H222830   0.088   1.053   1.546  1.7006 -0.1161 -0.1646
  399TIP3   OH222831   1.473   2.509   1.064  0.0061 -0.2190 -0.0154
  399TIP3    H122832   1.426   2.494   0.983 -1.1538 -0.2103  0.6264
  399TIP3    H222833   1.405   2.503   1.132  0.9843 -0.4516  0.9609
  400TIP3   OH222834   5.827   5.816   3.909 -0.7016  0.6825 -0.4529
  400TIP3    H122835   5.847   5.750   3.842 -0.7721  0.7061 -0.4967
  400TIP3    H222836   5.793   5.765   3.983 -0.3173  0.6234 -0.3112
  401TIP3   OH222837   4.128   4.726   1.000  0.0989 -0.6548 -0.6317
  401TIP3    H122838   4.076   4.705   1.077  0.4439 -0.8239 -0.4450
  401TIP3    H222839   4.070   4.707   0.926 -0.6905  0.7006 -0.4113
  402TIP3   OH222840   6.250   3.105   1.377 -0.0082  0.7592 -0.0408
  402TIP3    H122841   6.215   3.015   1.376  0.6210  0.4969  0.6273
  402TIP3    H222842   6.173   3.160   1.392 -0.2186  0.2133  1.0457
  403TIP3   OH222843   2.326   1.688   8.217  0.5062  0.3162 -0.5767
  403TIP3    H122844   2.395   1.656   8.158 -0.6329  0.9099 -2.2799
  403TIP3    H222845   2.245   1.659   8.176 -0.4147  2.5558 -0.4447
  404TIP3   OH222846   2.507   3.404   0.900 -0.3406 -0.0876 -0.1029
  404TIP3    H122847   2.507   3.394   0.995  1.9251 -1.5545 -0.1648
  404TIP3    H222848   2.486   3.317   0.867 -2.3447  0.6887 -1.0052
  405TIP3   OH222849   1.797   3.381   1.378 -0.1831  0.5475  0.3749
  405TIP3    H122850   1.879   3.331   1.380 -1.6551 -2.0832  0.3350
  405TIP3    H222851   1.777   3.396   1.471 -0.6852 -0.7039  0.4861
  406TIP3   OH222852   5.044   1.127   0.766  0.8459 -0.0728  0.0977
  406TIP3    H122853   5.080   1.061   0.706 -0.6164 -1.1441  0.3431
  406TIP3    H222854   4.977   1.080   0.816 -0.6209  1.7111 -0.0734
  407TIP3   OH222855   6.965   0.191   0.622  0.0961  0.7108 -0.7804
  407TIP3    H122856   7.009   0.108   0.600 -0.5663  0.0857  0.2054
  407TIP3    H222857   6.925   0.219   0.540 -1.4654 -1.0533 -0.6729
  408TIP3   OH222858   4.744   1.278   3.448  0.1081 -0.0928 -0.2325
  408TIP3    H122859   4.790   1.355   3.415 -0.6048  0.6276  0.4287
  408TIP3    H222860   4.803   1.241   3.514  0.1676  0.2470 -0.0972
  409TIP3   OH222861   5.670   1.944   1.341 -0.1857 -0.2301 -0.1818
  409TIP3    H122862   5.615   1.998   1.285 -0.9296 -1.9319 -1.1858
  409TIP3    H222863   5.726   1.896   1.280 -0.2441 -1.3123  0.5787
  410TIP3   OH222864   1.630   1.016   7.983 -0.4893  0.2023 -0.3676
  410TIP3    H122865   1.707   0.980   7.939  0.3043  0.3561  0.8594
  410TIP3    H222866   1.665   1.083   8.042 -1.1780 -1.7431  2.4344
  411TIP3   OH222867   1.143   2.743   1.957 -0.1823  0.1929  0.1723
  411TIP3    H122868   1.054   2.774   1.977 -0.0243  1.3264 -0.7684
  411TIP3    H222869   1.134   2.648   1.949 -1.3176  0.2951  0.0407
  412TIP3   OH222870   3.043   2.527   1.459  0.5921  0.2646 -0.7707
  412TIP3    H122871   3.036   2.550   1.366 -0.3596  0.8187 -0.5768
  412TIP3    H222872   3.127   2.563   1.486  0.8216  0.2114 -1.3854
  413TIP3   OH222873   6.652   6.075   2.653 -0.0642  0.3344 -0.2131
  413TIP3    H122874   6.642   5.982   2.632 -0.6436 -0.0629  1.6222
  413TIP3    H222875   6.736   6.099   2.615  0.3169 -1.0675 -0.3287
  414TIP3   OH222876   2.409   2.878   0.728  0.2759 -0.1962 -0.0165
  414TIP3    H122877   2.332   2.868   0.672 -0.0745 -0.4311  0.5016
  414TIP3    H222878   2.483   2.862   0.670 -0.0269  0.7366 -0.6907
  415TIP3   OH222879   6.340   3.174   1.766  0.4030 -0.3051 -0.1656
  415TIP3    H122880   6.417   3.126   1.735  0.0127 -1.9321  1.2302
  415TIP3    H222881   6.371   3.224   1.841  0.4555  0.4088 -0.6517
  416TIP3   OH222882   1.058   0.281   2.644 -0.4038 -0.0029  0.5447
  416TIP3    H122883   1.028   0.209   2.589 -0.9079 -0.1938  1.0583
  416TIP3    H222884   1.076   0.352   2.583  2.4793 -1.2808 -0.2803
  417TIP3   OH222885   0.452   2.835   1.457  0.0285  0.3019  0.4458
  417TIP3    H122886   0.456   2.889   1.377  1.2126  0.5182  0.6210
  417TIP3    H222887   0.423   2.895   1.525 -1.0126  0.1108  0.1763
  418TIP3   OH222888   6.861   6.719   2.585 -0.4722 -0.4201 -0.2547
  418TIP3    H122889   6.881   6.809   2.560  0.3213 -0.1644  1.2198
  418TIP3    H222890   6.888   6.712   2.676 -0.4992 -2.1630 -0.3380
  419TIP3   OH222891   2.532   2.488   2.168  0.3240 -0.8758 -0.0687
  419TIP3    H122892   2.609   2.442   2.136 -0.3414 -0.7964 -1.8789
  419TIP3    H222893   2.458   2.440   2.132 -0.4773  3.0550 -4.6814
  420TIP3   OH222894   6.583   2.414   1.825  0.2429  0.3696 -0.1184
  420TIP3    H122895   6.642   2.346   1.793 -0.5282 -0.4115  0.0786
  420TIP3    H222896   6.628   2.450   1.902  0.2153 -0.6311  0.3888
  421TIP3   OH222897   1.142   1.110   2.978  0.0731  0.0136 -0.9842
  421TIP3    H122898   1.103   1.068   3.055 -1.6674 -0.8106 -2.2355
  421TIP3    H222899   1.199   1.042   2.941  1.0687  0.4792 -0.3459
  422TIP3   OH222900   0.323   0.346   7.544  0.4352  0.0989 -0.0213
  422TIP3    H122901   0.276   0.394   7.612  2.0345  1.1355  0.3906
  422TIP3    H222902   0.268   0.355   7.466 -1.1410 -0.6259  0.9541
  423TIP3   OH222903   6.253   1.710   1.751  0.6594 -0.4804  0.9814
  423TIP3    H122904   6.218   1.631   1.791  0.3178 -0.3590  0.9231
  423TIP3    H222905   6.178   1.753   1.711  0.9913 -0.5722  0.2466
  424TIP3   OH222906   3.404   1.985   2.626  0.2660 -0.5947  0.3733
  424TIP3    H122907   3.416   2.063   2.679  1.7140 -0.7011  0.2532
  424TIP3    H222908   3.486   1.976   2.577 -0.2145 -1.6841 -0.2843
  425TIP3   OH222909   1.127   1.323   2.221  0.0330 -0.6257 -0.0312
  425TIP3    H122910   1.118   1.393   2.286  1.2487  1.0902 -1.5951
  425TIP3    H222911   1.204   1.274   2.250  1.6606  1.2009 -0.9875
  426TIP3   OH222912   3.610   5.378   2.165 -0.2085  0.1939  0.1480
  426TIP3    H122913   3.657   5.319   2.225  1.2353  0.4809 -0.6764
  426TIP3    H222914   3.563   5.319   2.106  0.4466 -0.1312 -0.0583
  427TIP3   OH222915   3.906   1.026   0.549 -0.0030 -0.6119  0.2002
  427TIP3    H122916   3.830   0.970   0.565 -0.2087 -0.0160  1.4884
  427TIP3    H222917   3.880   1.079   0.474 -2.0228  1.4119  2.1452
  428TIP3   OH222918   5.932   5.838   0.149  0.2186 -0.0085 -0.1372
  428TIP3    H122919   5.944   5.798   0.234 -2.3828 -0.1114  0.2478
  428TIP3    H222920   6.016   5.827   0.105  0.8471 -2.1795  1.4673
  429TIP3   OH222921   3.655   6.054   0.777 -0.2354 -0.0465 -0.5457
  429TIP3    H122922   3.607   6.135   0.799 -0.1660 -0.2102  0.2426
  429TIP3    H222923   3.587   5.987   0.770 -0.3087  0.1107 -1.3591
  430TIP3   OH222924   4.365   5.631   0.376  0.0058 -0.5354  0.2197
  430TIP3    H122925   4.433   5.656   0.314  0.0336 -0.3984  0.3041
  430TIP3    H222926   4.299   5.586   0.323 -0.2695  0.1299 -0.0175
  431TIP3   OH222927   0.572   0.361   0.803  0.0362 -0.0775  0.7977
  431TIP3    H122928   0.576   0.383   0.896 -0.8722 -0.5123  0.9490
  431TIP3    H222929   0.662   0.369   0.773  0.0730  1.8932  1.2844
  432TIP3   OH222930   0.209   1.409   1.160  0.3600 -0.4372  0.1476
  432TIP3    H122931   0.234   1.361   1.239  1.3075 -0.1022  0.0677
  432TIP3    H222932   0.126   1.451   1.182 -0.8184 -2.5683  0.0227
  433TIP3   OH222933   6.475   6.920   3.871 -0.4559 -0.5728  0.2313
  433TIP3    H122934   6.568   6.901   3.885 -0.0949  1.1083  0.2475
  433TIP3    H222935   6.431   6.874   3.942  0.6688  1.0978  2.1212
  434TIP3   OH222936   4.668   0.461   0.561  0.7484  0.7489  0.4261
  434TIP3    H122937   4.751   0.415   0.548  0.3811  0.4622 -1.1454
  434TIP3    H222938   4.671   0.533   0.498  0.1556  1.2593  0.9655
  435TIP3   OH222939   1.902   3.575   3.020  0.2049  0.2539 -0.1618
  435TIP3    H122940   1.882   3.485   3.046  2.6753  0.1978  1.8431
  435TIP3    H222941   1.955   3.566   2.941 -0.6788  0.0621 -0.7541
  436TIP3   OH222942   2.688   0.153   2.924  0.5417  0.2512 -0.1477
  436TIP3    H122943   2.712   0.189   2.838 -0.6032  1.6568  0.0731
  436TIP3    H222944   2.714   0.221   2.986 -1.5698  0.7319  0.2947
  437TIP3   OH222945   2.179   0.787   2.391 -0.0058  0.2315 -0.0472
  437TIP3    H122946   2.179   0.773   2.486 -0.0023 -0.7464 -0.1798
  437TIP3    H222947   2.268   0.764   2.364  0.4475  1.9366 -0.1071
  438TIP3   OH222948   4.239   2.797   0.083  0.1719 -0.3742 -0.1914
  438TIP3    H122949   4.282   2.835   0.005 -0.7120  0.7316 -0.1615
  438TIP3    H222950   4.150   2.832   0.080 -0.3000 -1.4931  0.5415
  439TIP3   OH222951   3.275   2.614   1.611 -0.4015 -0.1882 -0.1458
  439TIP3    H122952   3.320   2.553   1.671 -0.6493  1.0725  1.3699
  439TIP3    H222953   3.346   2.654   1.561 -0.0136  0.0451  0.5696
  440TIP3   OH222954   3.396   0.835   6.989  0.0797  0.3317 -0.4318
  440TIP3    H122955   3.321   0.880   7.028  0.6137 -1.2920  2.7888
  440TIP3    H222956   3.375   0.742   6.997  2.4149 -0.1694  0.6023
  441TIP3   OH222957   6.915   5.705   0.227  0.3445 -0.0087  0.2620
  441TIP3    H122958   6.871   5.756   0.159 -0.3636 -1.9117 -0.8038
  441TIP3    H222959   6.935   5.768   0.296 -1.1324  1.5476 -0.6496
  442TIP3   OH222960   3.700   3.072   1.364 -0.0761 -0.0321  0.1885
  442TIP3    H122961   3.711   3.022   1.283 -1.4596  0.5239 -0.3763
  442TIP3    H222962   3.774   3.132   1.365  0.5896 -0.8272 -0.0633
  443TIP3   OH222963   6.246   3.474   2.568 -0.7220 -0.0823  0.2105
  443TIP3    H122964   6.342   3.474   2.571 -0.7227 -0.8538  0.7654
  443TIP3    H222965   6.220   3.536   2.636 -0.5973 -1.6901  1.8291
  444TIP3   OH222966   0.450   4.514   1.522 -0.2368 -0.4636 -0.0798
  444TIP3    H122967   0.388   4.544   1.455 -2.4327  0.9350  2.3375
  444TIP3    H222968   0.514   4.585   1.528 -0.8650  0.0963  0.2277
  445TIP3   OH222969   0.955   4.261   1.929  0.0494  0.3657  0.1042
  445TIP3    H122970   0.992   4.206   1.999 -0.6911 -0.3008 -0.0090
  445TIP3    H222971   1.028   4.277   1.870  0.0218 -1.5692 -0.5145
  446TIP3   OH222972   6.542   0.516   2.245  0.1704 -0.2213  0.0271
  446TIP3    H122973   6.535   0.556   2.332  1.5791 -1.6265  0.8395
  446TIP3    H222974   6.613   0.564   2.202  0.8743 -0.8496  0.4577
  447TIP3   OH222975   1.542   2.888   0.886  0.2898 -0.5535 -0.1906
  447TIP3    H122976   1.498   2.810   0.853  1.3449 -1.7553  1.0979
  447TIP3    H222977   1.635   2.873   0.867  0.6188 -0.0940  0.9483
  448TIP3   OH222978   0.536   2.440   7.855 -0.2840 -0.0647  0.3955
  448TIP3    H122979   0.628   2.459   7.834 -1.3487  4.0324 -1.6459
  448TIP3    H222980   0.504   2.391   7.780 -0.4275  1.0946 -0.3146
  449TIP3   OH222981   0.353   3.685   2.786  0.6036  0.0600 -0.2833
  449TIP3    H122982   0.296   3.632   2.731  1.2216  0.3613 -1.2486
  449TIP3    H222983   0.429   3.704   2.731  1.4606  0.0058  0.8244
  450TIP3   OH222984   4.316   6.657   1.211 -0.2920  1.1213  0.1010
  450TIP3    H122985   4.372   6.716   1.160  2.0063 -0.3577  0.7726
  450TIP3    H222986   4.337   6.678   1.302  1.7456 -1.6212  0.3798
  451TIP3   OH222987   6.788   6.142   0.390  0.1331  0.8087  0.0052
  451TIP3    H122988   6.723   6.074   0.370  0.3877 -0.0897  1.9337
  451TIP3    H222989   6.866   6.116   0.342  0.3123 -0.4686  0.9411
  452TIP3   OH222990   4.968   4.626   2.063  0.7424 -0.0036  0.1880
  452TIP3    H122991   5.055   4.592   2.084  0.2352  0.0452  2.6485
  452TIP3    H222992   4.956   4.700   2.122 -0.2417  1.2448 -1.4723
  453TIP3   OH222993   4.099   0.792   3.039  0.0360  0.3031  0.0105
  453TIP3    H122994   4.125   0.700   3.040 -1.8694 -0.3185 -1.1929
  453TIP3    H222995   4.071   0.810   3.129  1.5644  0.0970  0.5501
  454TIP3   OH222996   5.013   2.943   0.137 -0.4981 -0.4280 -0.0556
  454TIP3    H122997   5.086   2.947   0.075  0.4348  0.6948  1.0524
  454TIP3    H222998   5.047   2.893   0.211 -1.1311 -0.6122  0.1160
  455TIP3   OH222999   0.940   3.222   7.688  1.0944  0.0494  0.1769
  455TIP3    H123000   0.960   3.279   7.614  0.4161  1.5389  1.0848
  455TIP3    H223001   0.900   3.145   7.649  2.4779 -0.0588 -1.1294
  456TIP3   OH223002   0.783   0.723   0.156 -0.1393 -0.0938  0.0659
  456TIP3    H123003   0.704   0.669   0.154  0.6109 -1.2197  0.0619
  456TIP3    H223004   0.855   0.660   0.162  0.7893  0.8901 -0.4406
  457TIP3   OH223005   5.044   3.225   1.917 -0.3265 -0.4667 -0.3823
  457TIP3    H123006   5.130   3.241   1.878 -0.9380  2.8801 -0.5755
  457TIP3    H223007   4.981   3.260   1.854 -1.8794 -2.2212  0.0736
  458TIP3   OH223008   1.069   4.293   2.578 -0.1059 -0.0400  0.2999
  458TIP3    H123009   1.062   4.383   2.546 -0.5251 -0.3159 -0.4013
  458TIP3    H223010   0.979   4.260   2.577  0.0679 -0.5294  0.3666
  459TIP3   OH223011   5.678   0.541   1.654  0.4468  0.2777 -0.9966
  459TIP3    H123012   5.600   0.501   1.616  0.5369  0.7150 -1.6583
  459TIP3    H223013   5.655   0.633   1.665  0.2574  0.0792  0.4716
  460TIP3   OH223014   0.036   5.023   7.991 -0.1294 -0.3040  0.0616
  460TIP3    H123015   0.016   5.003   7.900 -1.8822  2.3063 -0.2649
  460TIP3    H223016  -0.014   4.959   8.042 -1.1442 -0.2425 -0.8365
  461TIP3   OH223017   2.616   2.083   1.565  0.2384 -0.4212 -0.1671
  461TIP3    H123018   2.554   2.091   1.492 -0.1220  0.2154  0.2015
  461TIP3    H223019   2.682   2.022   1.533 -1.6950 -2.8673  0.1832
  462TIP3   OH223020   3.454   1.709   2.373  0.5449  0.5085  0.1176
  462TIP3    H123021   3.430   1.772   2.305  1.0029 -0.2767 -0.7880
  462TIP3    H223022   3.463   1.625   2.327  1.6556  0.1127  1.0117
  463TIP3   OH223023   5.690   3.439   8.042 -0.2346  0.1360  0.4363
  463TIP3    H123024   5.719   3.348   8.045  1.4617  0.5376 -1.2441
  463TIP3    H223025   5.701   3.471   8.131  0.2347 -1.0080  0.8012
  464TIP3   OH223026   4.964   1.251   7.822 -0.0501  0.2286 -0.0170
  464TIP3    H123027   4.978   1.316   7.753  0.0424 -0.6940 -0.8966
  464TIP3    H223028   5.044   1.197   7.821  0.9014  1.4786  2.2816
  465TIP3   OH223029   4.315   3.777   7.640 -0.2907 -0.0252  0.1777
  465TIP3    H123030   4.228   3.740   7.622 -0.0507 -0.0286 -1.0591
  465TIP3    H223031   4.313   3.863   7.598 -0.2069  0.6323  1.4574
  466TIP3   OH223032   0.536   0.933   1.014  0.4957 -0.4334  0.4150
  466TIP3    H123033   0.505   0.990   1.085 -0.4871 -0.6768  0.2048
  466TIP3    H223034   0.578   0.860   1.059 -2.1366 -1.7835  0.9230
  467TIP3   OH223035   4.177   5.275   0.054  0.2463 -0.1215  0.1688
  467TIP3    H123036   4.170   5.264  -0.041 -0.7250  1.5897 -0.0007
  467TIP3    H223037   4.208   5.365   0.065 -1.3448  0.3027  1.4751
  468TIP3   OH223038   4.486   6.043   2.039 -0.0807 -0.2899 -0.6017
  468TIP3    H123039   4.419   6.108   2.060 -0.7810 -1.1127 -0.2129
  468TIP3    H223040   4.483   5.981   2.112  0.9055 -0.4928 -0.7278
  469TIP3   OH223041   2.501   3.886   1.480  0.0454  0.2509 -0.9300
  469TIP3    H123042   2.576   3.936   1.450  0.5482 -0.1662 -0.3799
  469TIP3    H223043   2.440   3.951   1.515  0.6713  0.4883 -0.2645
  470TIP3   OH223044   5.843   2.303   3.076 -0.0146  0.0313 -0.5290
  470TIP3    H123045   5.806   2.358   3.145 -0.0210 -0.8286  0.1730
  470TIP3    H223046   5.778   2.234   3.064  0.3758 -0.2900 -0.8033
  471TIP3   OH223047   6.318   0.669   2.018  0.3247  0.0222 -0.2479
  471TIP3    H123048   6.347   0.759   2.029  2.7604 -0.8569  1.4812
  471TIP3    H223049   6.284   0.644   2.104 -1.8124 -0.2932 -1.1281
  472TIP3   OH223050   5.336   6.632   0.980  0.1962  0.0075  0.3285
  472TIP3    H123051   5.259   6.678   0.947 -0.1932 -2.1771 -2.1277
  472TIP3    H223052   5.302   6.551   1.018  1.2260 -1.4628 -1.6742
  473TIP3   OH223053   5.342   5.124   1.819  0.2227  0.0092 -0.5681
  473TIP3    H123054   5.298   5.053   1.772 -1.8162  1.3011 -0.7536
  473TIP3    H223055   5.347   5.094   1.910 -2.4851  0.3342 -0.2144
  474TIP3   OH223056   0.293   5.618   0.287  0.4794 -0.0814  0.4808
  474TIP3    H123057   0.373   5.668   0.303  0.5186  0.1643 -0.4018
  474TIP3    H223058   0.285   5.561   0.363 -0.1271  1.9548  2.0397
  475TIP3   OH223059   4.871   5.677   3.298  0.1881  0.1671 -0.1908
  475TIP3    H123060   4.834   5.589   3.302 -1.8107  0.7426 -2.7807
  475TIP3    H223061   4.813   5.730   3.353  0.0198  0.2224 -0.4160
  476TIP3   OH223062   2.527   5.772   2.147 -0.6357  0.5146 -0.3668
  476TIP3    H123063   2.593   5.840   2.161 -0.0836  0.0202 -0.5141
  476TIP3    H223064   2.516   5.731   2.233 -0.3693  0.2654 -0.4477
  477TIP3   OH223065   3.033   5.318   0.286 -0.2360  0.2296 -0.0929
  477TIP3    H123066   3.072   5.337   0.372  0.1746 -1.4217  0.1041
  477TIP3    H223067   2.938   5.322   0.303 -0.1690  1.1690  0.1317
  478TIP3   OH223068   0.449   3.102   3.092  0.3289  0.2608  0.1882
  478TIP3    H123069   0.537   3.111   3.055  0.9215 -0.2019  1.4276
  478TIP3    H223070   0.396   3.067   3.020  2.1840 -4.0399  0.5878
  479TIP3   OH223071   1.491   0.517   7.614  0.6361 -0.5296  0.4338
  479TIP3    H123072   1.470   0.597   7.661  0.8401 -1.5619  2.4284
  479TIP3    H223073   1.549   0.469   7.674  1.3195 -1.7272 -1.1099
  480TIP3   OH223074   2.886   0.578   7.972 -0.3199  0.3380  0.4181
  480TIP3    H123075   2.925   0.521   7.906 -1.4289  0.4707 -0.3846
  480TIP3    H223076   2.848   0.518   8.036 -0.6888  0.1840  0.0570
  481TIP3   OH223077   4.202   6.157   0.154 -0.0137 -0.2103 -0.1371
  481TIP3    H123078   4.121   6.187   0.196 -0.6522 -1.4068 -0.4590
  481TIP3    H223079   4.223   6.225   0.090 -1.9713 -0.8248 -1.5521
  482TIP3   OH223080   3.100   2.972   1.361 -0.5319  0.0936  0.0270
  482TIP3    H123081   3.035   2.913   1.322 -1.5330 -0.0473  1.8051
  482TIP3    H223082   3.060   3.058   1.355 -0.3063  0.1938 -0.0408
  483TIP3   OH223083   5.462   0.078   1.598  0.1847 -0.1439 -0.6681
  483TIP3    H123084   5.423   0.123   1.523  1.5199  0.3522 -1.0941
  483TIP3    H223085   5.391   0.024   1.634 -0.6850  0.2105 -1.8136
  484TIP3   OH223086   2.571   2.535   2.555 -0.2374  0.0348  0.4387
  484TIP3    H123087   2.503   2.533   2.488 -0.7694 -1.4172  0.9877
  484TIP3    H223088   2.526   2.561   2.635  0.0258 -0.0748  0.6262
  485TIP3   OH223089   7.019   0.498   0.075  0.0667 -0.2330  0.3713
  485TIP3    H123090   7.032   0.535   0.163 -2.1382 -0.9061  1.0303
  485TIP3    H223091   7.038   0.571   0.016 -1.0149  1.0521  1.5248
  486TIP3   OH223092   0.562   0.149   1.225  0.6850 -0.2589 -0.3941
  486TIP3    H123093   0.640   0.144   1.281 -0.3231 -0.5160  1.0694
  486TIP3    H223094   0.512   0.070   1.247  0.9030 -1.1271 -2.7496
  487TIP3   OH223095   2.281   5.149   0.349 -0.1975  0.4372  0.6683
  487TIP3    H123096   2.289   5.202   0.270 -0.8226 -0.3609  0.0539
  487TIP3    H223097   2.340   5.075   0.335 -1.1196 -0.2672  0.4769
  488TIP3   OH223098   3.821   3.422   0.383  0.1624  0.4941 -0.5184
  488TIP3    H123099   3.829   3.327   0.378 -0.0920  0.4323  0.1646
  488TIP3    H223100   3.889   3.455   0.324  0.7030 -0.1024 -0.2364
  489TIP3   OH223101   3.355   3.448   0.411  0.0779 -0.0028  0.1919
  489TIP3    H123102   3.354   3.353   0.421  1.1395 -0.1021 -0.4988
  489TIP3    H223103   3.426   3.477   0.468  0.7036  0.2216 -0.6831
  490TIP3   OH223104   1.579   1.344   1.315 -0.0529  0.3118  0.1518
  490TIP3    H123105   1.583   1.257   1.275 -0.0952  0.3714  0.0174
  490TIP3    H223106   1.492   1.377   1.292  0.0910  0.5294 -0.0923
  491TIP3   OH223107   2.661   5.741   1.306 -0.0985  0.3649  0.0493
  491TIP3    H123108   2.658   5.806   1.376 -0.6889  0.4665 -0.0663
  491TIP3    H223109   2.581   5.755   1.256 -1.5572 -2.0744  1.4804
  492TIP3   OH223110   1.191   0.426   2.876 -0.6644 -0.1109  0.1922
  492TIP3    H123111   1.137   0.385   2.809 -0.1208 -0.4180 -0.0653
  492TIP3    H223112   1.190   0.519   2.855  0.8183 -0.3713 -1.2271
  493TIP3   OH223113   2.689   4.750   2.898  0.1347  0.3617  0.1236
  493TIP3    H123114   2.712   4.710   2.982 -1.5768  0.3816  0.6455
  493TIP3    H223115   2.658   4.838   2.920 -1.3976 -0.0197 -0.3691
  494TIP3   OH223116   4.228   2.158   2.295 -0.2079  0.1013 -0.2118
  494TIP3    H123117   4.291   2.116   2.354 -0.4279 -0.4659 -0.3789
  494TIP3    H223118   4.144   2.117   2.315 -0.3153  0.0252 -0.7993
  495TIP3   OH223119   5.843   1.094   3.488  0.4609  0.7441  0.1944
  495TIP3    H123120   5.838   1.000   3.473  0.0309  0.8449 -0.3129
  495TIP3    H223121   5.933   1.109   3.517  0.2099  0.0183  1.4193
  496TIP3   OH223122   5.529   6.459   0.586 -0.2225  0.1785 -0.2867
  496TIP3    H123123   5.568   6.430   0.669 -0.0651 -2.6219 -1.2333
  496TIP3    H223124   5.456   6.515   0.612  2.1235  2.6224  1.6165
  497TIP3   OH223125   1.900   3.249   2.684  0.4262 -0.1905  0.6689
  497TIP3    H123126   1.876   3.247   2.776 -0.3088 -1.1359  0.4642
  497TIP3    H223127   1.842   3.315   2.645 -0.9539 -1.4742  0.4469
  498TIP3   OH223128   0.381   5.261   1.988 -0.1814 -0.5297 -0.6868
  498TIP3    H123129   0.356   5.280   2.079 -0.5060 -0.5398 -0.7734
  498TIP3    H223130   0.474   5.284   1.984 -0.0824 -0.8506 -0.2649
  499TIP3   OH223131   2.958   6.553   1.995  0.3023  0.0156  0.2072
  499TIP3    H123132   2.886   6.577   1.935 -0.2311 -0.6781  0.5543
  499TIP3    H223133   3.001   6.636   2.014 -0.6316  0.5028  0.2720
  500TIP3   OH223134   0.525   6.193   1.973 -0.4146 -0.2172 -0.4560
  500TIP3    H123135   0.552   6.228   2.057  1.1654 -1.6495 -0.3282
  500TIP3    H223136   0.431   6.176   1.983 -0.7153  1.6370  0.2525
  501TIP3   OH223137   0.851   5.314   1.592  0.3940 -0.0534 -0.0074
  501TIP3    H123138   0.780   5.260   1.626 -1.6021  0.5739 -2.8136
  501TIP3    H223139   0.910   5.252   1.548  0.1260 -0.3370  0.0308
  502TIP3   OH223140   6.608   3.087   2.227 -0.4376  0.1085  0.6366
  502TIP3    H123141   6.679   3.031   2.258 -0.3717  0.4744  1.1475
  502TIP3    H223142   6.646   3.174   2.223 -1.0872  0.4484  1.6811
  503TIP3   OH223143   5.157   6.105   0.797 -0.3323 -0.6271  0.2402
  503TIP3    H123144   5.200   6.174   0.746 -0.0058 -1.3008 -0.4139
  503TIP3    H223145   5.086   6.074   0.740 -0.3692 -0.9503  0.4628
  504TIP3   OH223146   5.846   6.044   1.614  0.0222  0.4878  0.3872
  504TIP3    H123147   5.823   5.988   1.689 -0.5226 -1.1139 -0.9088
  504TIP3    H223148   5.926   6.088   1.641 -0.3966  0.2977  2.0808
  505TIP3   OH223149   1.909   0.392   0.145 -0.5698 -0.0301 -0.3433
  505TIP3    H123150   1.902   0.413   0.052 -0.1947  0.0218 -0.3603
  505TIP3    H223151   2.003   0.387   0.162 -0.6408 -0.7393 -0.1251
  506TIP3   OH223152   3.105   6.641   3.163  0.8801  0.5574  0.1237
  506TIP3    H123153   3.200   6.644   3.167  0.8763  0.2054  0.5226
  506TIP3    H223154   3.086   6.579   3.093  0.9378  0.9815 -0.2782
  507TIP3   OH223155   6.983   4.548   3.477 -0.2191 -0.2272  0.3189
  507TIP3    H123156   7.000   4.599   3.556  1.2548 -0.2367  0.0300
  507TIP3    H223157   6.913   4.487   3.502 -0.8026  0.7552  1.1601
  508TIP3   OH223158   0.350   4.635   2.687  0.0201  0.1504  0.4053
  508TIP3    H123159   0.340   4.629   2.592 -0.2695  2.2156  0.2600
  508TIP3    H223160   0.263   4.657   2.719 -0.3741 -2.4547  1.4406
  509TIP3   OH223161   3.988   1.688   1.214 -0.4587  0.1140 -0.3333
  509TIP3    H123162   4.042   1.764   1.234 -0.9367  0.1383  0.9505
  509TIP3    H223163   4.050   1.623   1.181  0.1264  0.6726 -0.3553
  510TIP3   OH223164   1.838   5.269   7.622  0.9772 -0.5057  0.4707
  510TIP3    H123165   1.808   5.353   7.587 -0.1828 -1.1108 -0.0726
  510TIP3    H223166   1.818   5.206   7.553 -0.1736 -1.5476  1.6803
  511TIP3   OH223167   3.518   4.696   1.970  0.4246  0.6305  0.1472
  511TIP3    H123168   3.505   4.618   2.024  0.4060  0.0106 -0.7259
  511TIP3    H223169   3.608   4.689   1.940  0.9354  1.7759  1.3142
  512TIP3   OH223170   1.267   5.845   0.803 -0.1156  0.3888 -0.1596
  512TIP3    H123171   1.266   5.811   0.892 -0.9269  0.6541 -0.0540
  512TIP3    H223172   1.343   5.902   0.799 -0.5025  0.9784  0.6089
  513TIP3   OH223173   2.678   4.501   8.087  0.4873 -0.2746 -0.1963
  513TIP3    H123174   2.636   4.570   8.139  2.4983  0.2912  0.7750
  513TIP3    H223175   2.658   4.524   7.996  1.0613  1.6019  0.1015
  514TIP3   OH223176   0.173   3.652   1.178 -0.0259 -0.7115 -0.4108
  514TIP3    H123177   0.127   3.699   1.247  0.5565 -1.0646  0.2256
  514TIP3    H223178   0.106   3.598   1.137 -0.4798 -0.1239 -0.4650
  515TIP3   OH223179   3.618   3.519   0.537 -0.4572  0.0336  0.9632
  515TIP3    H123180   3.689   3.474   0.493  0.5998  0.4364  2.1933
  515TIP3    H223181   3.621   3.487   0.627  0.3879  2.5202  1.9187
  516TIP3   OH223182   3.344   3.323   8.158 -0.0363  0.0825 -0.2646
  516TIP3    H123183   3.361   3.411   8.122 -0.6189  0.2685 -0.0979
  516TIP3    H223184   3.423   3.274   8.138 -0.9992 -0.3939 -3.5148
  517TIP3   OH223185   0.437   6.239   3.048 -0.0727 -0.3592 -0.3714
  517TIP3    H123186   0.453   6.145   3.056 -0.6804 -0.5738 -1.4594
  517TIP3    H223187   0.358   6.254   3.100  0.9256 -0.1401  1.1338
  518TIP3   OH223188   0.486   5.228   0.707  0.0702  0.1596  0.6864
  518TIP3    H123189   0.407   5.176   0.726  0.7904 -0.7839  1.1999
  518TIP3    H223190   0.468   5.314   0.745 -1.1598  0.3168 -0.1974
  519TIP3   OH223191   4.788   4.608   0.702 -0.2641 -0.8766 -0.1608
  519TIP3    H123192   4.860   4.629   0.642  0.6249 -1.9316  0.5015
  519TIP3    H223193   4.816   4.641   0.787 -1.9823  1.5706 -0.4373
  520TIP3   OH223194   6.449   2.831   0.121  0.0906  0.5234 -0.1087
  520TIP3    H123195   6.417   2.824   0.031  3.4347  0.8300 -1.4731
  520TIP3    H223196   6.417   2.917   0.150 -1.6435  0.1169 -0.6732
  521TIP3   OH223197   1.893   1.511   1.183 -0.2237 -0.0804 -0.2176
  521TIP3    H123198   1.910   1.476   1.270 -1.3351 -0.2746 -0.0652
  521TIP3    H223199   1.918   1.603   1.189 -1.0604  0.1084  0.5568
  522TIP3   OH223200   3.785   5.100   0.743 -0.7060  0.6026  0.5516
  522TIP3    H123201   3.742   5.176   0.780 -0.6389  1.0792 -0.3187
  522TIP3    H223202   3.806   5.045   0.818 -2.0866  0.7357  1.0672
  523TIP3   OH223203   6.359   6.708   2.508 -0.2652  0.2926  0.2741
  523TIP3    H123204   6.357   6.712   2.604 -1.7352  2.0254  0.2218
  523TIP3    H223205   6.448   6.681   2.487 -0.1653 -1.0327  2.1222
  524TIP3   OH223206   3.361   6.792   7.841 -0.0080  0.2713 -0.2625
  524TIP3    H123207   3.400   6.864   7.791  0.6394 -0.3803 -0.7119
  524TIP3    H223208   3.319   6.737   7.776  1.9044 -1.2560 -0.2831
  525TIP3   OH223209   1.993   6.114   2.952 -0.0528  0.1074 -0.3410
  525TIP3    H123210   2.003   6.105   2.858  0.6955  2.4290 -0.5387
  525TIP3    H223211   2.083   6.117   2.986 -0.3108 -0.2335  0.4096
  526TIP3   OH223212   0.128   5.398   0.968 -0.8379  0.3848  0.3142
  526TIP3    H123213   0.154   5.490   0.967 -0.8313  0.4008  1.1672
  526TIP3    H223214   0.033   5.399   0.978 -0.8829  0.2985 -0.0862
  527TIP3   OH223215   3.853   0.397   1.318  0.6074 -0.3981 -0.3173
  527TIP3    H123216   3.907   0.426   1.245 -1.2663 -0.7898 -1.9391
  527TIP3    H223217   3.891   0.441   1.395  1.7153  1.2704 -1.7398
  528TIP3   OH223218   2.025   6.392   7.228 -0.1480 -0.2649  0.0940
  528TIP3    H123219   1.953   6.354   7.278  0.6010 -1.5166  0.2726
  528TIP3    H223220   2.099   6.393   7.289  0.3323 -0.2648 -0.4766
  529TIP3   OH223221   3.379   6.137   1.638 -0.4272 -1.2049 -0.0408
  529TIP3    H123222   3.373   6.116   1.544 -1.5468 -0.7817 -0.0738
  529TIP3    H223223   3.314   6.080   1.679  0.1292 -1.4585  0.5045
  530TIP3   OH223224   1.777   4.373   2.760  0.4894  0.3349 -0.3283
  530TIP3    H123225   1.840   4.389   2.690  2.7045 -0.7882  1.2793
  530TIP3    H223226   1.810   4.422   2.835  3.0280 -4.5780  2.3268
  531TIP3   OH223227   5.519   5.076   0.266 -0.5215  0.4104 -0.0256
  531TIP3    H123228   5.437   5.049   0.226  0.4360 -1.8907 -0.5894
  531TIP3    H223229   5.586   5.052   0.202  0.8052 -0.5266  1.6291
  532TIP3   OH223230   1.724   1.498   0.833 -0.0709  0.1003  0.4055
  532TIP3    H123231   1.754   1.574   0.883  0.8614  0.3064 -0.4514
  532TIP3    H223232   1.791   1.432   0.848  0.4259  0.2971 -0.8888
  533TIP3   OH223233   5.978   2.408   2.154 -0.0185  0.2701 -0.3069
  533TIP3    H123234   5.912   2.356   2.108  0.7059 -1.5009  0.5386
  533TIP3    H223235   5.935   2.434   2.235  0.0157 -0.1203 -0.1590
  534TIP3   OH223236   1.086   4.512   0.361 -0.0672 -0.2219  0.4146
  534TIP3    H123237   1.092   4.428   0.317  0.5860  0.1850 -0.3056
  534TIP3    H223238   1.172   4.552   0.348 -0.6521  0.9347 -0.0546
  535TIP3   OH223239   0.059   5.520   0.174  0.1900 -0.7590 -0.1927
  535TIP3    H123240  -0.006   5.579   0.211 -0.9679 -0.8983 -1.8895
  535TIP3    H223241   0.143   5.552   0.208 -0.2340  2.5822 -1.8159
  536TIP3   OH223242   6.494   5.540   0.849 -0.0888 -0.5555 -0.0516
  536TIP3    H123243   6.437   5.476   0.891 -0.1284 -0.9824 -0.7366
  536TIP3    H223244   6.560   5.488   0.804  1.1044 -0.0503  1.0673
  537TIP3   OH223245   2.022   0.366   2.259  0.6984 -0.4735 -0.5415
  537TIP3    H123246   2.090   0.360   2.325  0.3625 -1.6796 -0.2873
  537TIP3    H223247   2.062   0.418   2.189  1.8056 -0.9719 -0.3082
  538TIP3   OH223248   5.446   3.295   0.283  0.9224  0.3873  0.4026
  538TIP3    H123249   5.439   3.309   0.377  1.1828 -0.2519  0.5236
  538TIP3    H223250   5.368   3.244   0.261  0.6616  0.8729  0.2057
  539TIP3   OH223251   5.784   6.049   0.076  0.5802 -0.4445  0.6370
  539TIP3    H123252   5.818   5.966   0.109 -0.2980 -0.7606  0.7621
  539TIP3    H223253   5.709   6.025   0.022  1.1195  0.1722 -0.4284
  540TIP3   OH223254   3.777   2.703   2.254  0.2768  0.2416 -0.2924
  540TIP3    H123255   3.776   2.689   2.159  1.8363 -0.6357 -0.1961
  540TIP3    H223256   3.867   2.726   2.275  0.0339  0.0717  1.0431
  541TIP3   OH223257   1.578   6.646   1.253 -0.4947 -0.2063  0.1977
  541TIP3    H123258   1.609   6.669   1.341  1.9664 -0.1031 -0.6081
  541TIP3    H223259   1.507   6.708   1.236 -0.2136  0.5771  1.6590
  542TIP3   OH223260   5.879   5.639   2.686 -0.2572  0.9258 -0.2696
  542TIP3    H123261   5.962   5.646   2.734 -0.6695 -0.3646  0.6958
  542TIP3    H223262   5.833   5.720   2.708  0.8256  1.7869 -1.0378
  543TIP3   OH223263   1.677   1.981   0.677 -0.1814  0.1493  0.5126
  543TIP3    H123264   1.660   1.889   0.655  1.8848 -0.1028 -0.2617
  543TIP3    H223265   1.719   1.978   0.763 -0.6886  0.4322  0.7738
  544TIP3   OH223266   4.547   3.421   2.042 -0.1994  0.0864  0.1943
  544TIP3    H123267   4.543   3.507   2.084  0.3849  1.0544 -1.6355
  544TIP3    H223268   4.470   3.374   2.076 -1.4700  1.9283  0.0077
  545TIP3   OH223269   1.297   0.269   1.060  0.6712  0.0521 -0.4471
  545TIP3    H123270   1.297   0.336   0.992 -1.0491 -0.1079 -0.6604
  545TIP3    H223271   1.303   0.186   1.012  1.6125 -0.0018 -0.2551
  546TIP3   OH223272   0.846   7.037   3.570 -0.0428  0.3852 -0.3248
  546TIP3    H123273   0.917   7.069   3.626 -0.9398  2.6550 -0.3749
  546TIP3    H223274   0.767   7.045   3.624 -0.2823 -2.8759  0.0299
  547TIP3   OH223275   6.308   1.345   0.297  0.0546  0.7546 -0.2780
  547TIP3    H123276   6.279   1.339   0.206  1.8986 -1.3422 -0.8181
  547TIP3    H223277   6.392   1.392   0.292  0.3241  0.3404  0.2887
  548TIP3   OH223278   0.038   0.888   3.528 -0.0436  0.2157  0.4217
  548TIP3    H123279  -0.029   0.924   3.586  0.5067  1.0170  0.5836
  548TIP3    H223280   0.112   0.948   3.537  1.2537 -1.4409  1.3630
  549TIP3   OH223281   3.426   0.772   2.635  0.7360 -0.4410  0.2020
  549TIP3    H123282   3.413   0.700   2.573 -1.6377  0.0547  0.0184
  549TIP3    H223283   3.338   0.793   2.666  1.6822  0.3876  2.5840
  550TIP3   OH223284   5.423   5.304   2.856  0.3235 -0.2972  0.9392
  550TIP3    H123285   5.410   5.379   2.914  0.5812  1.6772 -1.3922
  550TIP3    H223286   5.335   5.267   2.843  0.0872  0.0410  1.5661
  551TIP3   OH223287   0.725   5.140   7.993 -0.1452  0.2583 -0.4796
  551TIP3    H123288   0.672   5.164   8.069  0.1239 -0.0678 -0.1851
  551TIP3    H223289   0.809   5.111   8.030  0.5289  1.5057 -0.9831
  552TIP3   OH223290   2.438   4.822   7.355  0.1901  0.2951  0.9847
  552TIP3    H123291   2.429   4.728   7.374  1.8895 -0.4835 -1.5319
  552TIP3    H223292   2.349   4.850   7.334 -0.1478 -1.0855  0.4491
  553TIP3   OH223293   3.625   0.248   8.219  0.2327 -0.6446 -0.1229
  553TIP3    H123294   3.563   0.253   8.146  0.9039 -0.5183 -0.6969
  553TIP3    H223295   3.585   0.301   8.288 -0.8360 -1.4874 -0.0682
  554TIP3   OH223296   6.400   6.742   3.562 -0.1509 -0.0118 -0.2474
  554TIP3    H123297   6.463   6.772   3.627  0.7169 -0.2164 -0.9690
  554TIP3    H223298   6.439   6.662   3.526 -0.6720  0.0306 -0.9277
  555TIP3   OH223299   6.616   4.087   0.300 -0.3471  0.4826 -0.3476
  555TIP3    H123300   6.676   4.022   0.263 -0.8921 -0.2069 -0.0344
  555TIP3    H223301   6.608   4.154   0.231  1.5135  1.0885 -0.0427
  556TIP3   OH223302   3.564   2.015   7.935  0.3200 -0.0442  0.0303
  556TIP3    H123303   3.621   2.031   7.859  0.8011 -2.0707 -0.0703
  556TIP3    H223304   3.617   2.042   8.010  0.6575 -0.0624 -0.1977
  557TIP3   OH223305   0.484   1.724   2.707  0.5855 -0.1430  0.0051
  557TIP3    H123306   0.508   1.640   2.746  2.1412  0.0384 -0.4746
  557TIP3    H223307   0.392   1.736   2.731  0.0556 -2.3834 -0.6574
  558TIP3   OH223308   2.212   0.671   3.193 -0.3873  0.0219  0.3510
  558TIP3    H123309   2.238   0.754   3.232 -0.1721 -1.1349  2.9431
  558TIP3    H223310   2.287   0.613   3.210 -0.3035 -0.5950 -1.8836
  559TIP3   OH223311   0.574   4.851   8.100  0.4363 -0.6268  0.5460
  559TIP3    H123312   0.629   4.837   8.177 -1.8759 -0.6157  2.3139
  559TIP3    H223313   0.590   4.774   8.045  1.1634 -1.3075  1.6686
  560TIP3   OH223314   4.608   6.431   7.900 -0.7270 -0.4443  0.0703
  560TIP3    H123315   4.558   6.359   7.864 -0.3055 -0.2066 -1.0365
  560TIP3    H223316   4.699   6.405   7.890 -0.4859  0.9255 -1.9727
  561TIP3   OH223317   6.769   3.654   2.511 -0.6558 -0.0457 -0.0415
  561TIP3    H123318   6.801   3.727   2.564  0.4678 -0.7011  0.2255
  561TIP3    H223319   6.797   3.675   2.422  2.1545 -1.3683  0.3946
  562TIP3   OH223320   2.047   1.248   2.057 -0.2851 -0.4543 -0.6048
  562TIP3    H123321   2.135   1.219   2.080 -0.1216  0.1875 -0.4077
  562TIP3    H223322   1.989   1.185   2.099  0.0602 -0.4144 -0.0625
  563TIP3   OH223323   5.509   2.329   0.368 -0.4108 -0.1726 -0.2927
  563TIP3    H123324   5.580   2.307   0.307  0.7723  0.8647  0.6565
  563TIP3    H223325   5.493   2.422   0.353  1.9608  0.9317  2.9044
  564TIP3   OH223326   2.324   1.009   0.412 -0.0602 -0.3561 -0.7487
  564TIP3    H123327   2.379   0.988   0.488 -2.4489  0.1818  1.2470
  564TIP3    H223328   2.343   1.101   0.394 -0.3523 -0.1379  0.0063
  565TIP3   OH223329   2.397   0.703   1.741 -0.2669 -0.5566  0.2994
  565TIP3    H123330   2.316   0.714   1.691  0.3624 -0.1134 -0.6343
  565TIP3    H223331   2.466   0.736   1.684  0.7129 -1.9035  0.6630
  566TIP3   OH223332   4.009   5.794   2.179  0.2935  0.0027  0.0354
  566TIP3    H123333   3.972   5.881   2.171 -1.3986 -0.6102  0.7055
  566TIP3    H223334   3.947   5.737   2.135  0.1406 -1.1377  1.6125
  567TIP3   OH223335   2.499   5.900   0.352  0.0793 -0.3549  0.3579
  567TIP3    H123336   2.487   5.929   0.443 -0.6675 -1.3962  0.6156
  567TIP3    H223337   2.410   5.890   0.318  0.3448  0.8524 -0.7916
  568TIP3   OH223338   0.084   5.794   7.445  0.1907  0.2581  0.6182
  568TIP3    H123339   0.127   5.775   7.361 -1.3928 -0.6326 -0.0395
  568TIP3    H223340   0.134   5.867   7.482  1.8762 -0.3450 -0.3643
  569TIP3   OH223341   6.962   0.645   8.107 -0.4998  0.4103  0.1158
  569TIP3    H123342   6.885   0.700   8.122 -0.9659 -0.0333 -0.5966
  569TIP3    H223343   6.989   0.665   8.018 -0.3681 -0.1312  0.0295
  570TIP3   OH223344   3.591   3.185   8.158 -0.2468  0.8279  0.5802
  570TIP3    H123345   3.630   3.114   8.108 -0.6371  0.2991  1.0245
  570TIP3    H223346   3.601   3.159   8.250 -1.8444  0.5535  0.7020
  571TIP3   OH223347   4.979   6.268   1.758 -0.3142  0.6117  0.4589
  571TIP3    H123348   4.891   6.233   1.749  0.2924 -1.2028  1.1063
  571TIP3    H223349   5.028   6.229   1.685  0.1808  0.8767  0.6446
  572TIP3   OH223350   1.952   3.570   1.121 -0.2198 -0.3779  0.5369
  572TIP3    H123351   1.888   3.599   1.055 -0.0600 -0.7245  0.2250
  572TIP3    H223352   1.906   3.580   1.205 -0.7532 -0.8006  0.3025
  573TIP3   OH223353   3.126   5.544   1.606 -0.1987  0.0953 -0.7496
  573TIP3    H123354   3.088   5.466   1.646  1.8881 -0.3224  0.5611
  573TIP3    H223355   3.105   5.615   1.667 -1.6494  0.5358 -1.6877
  574TIP3   OH223356   6.521   4.492   7.290 -0.1025 -0.2368  0.4874
  574TIP3    H123357   6.547   4.544   7.366 -0.4322 -0.1288  0.5280
  574TIP3    H223358   6.502   4.558   7.222 -1.0247 -0.2812  0.6955
  575TIP3   OH223359   0.058   3.602   0.857  0.2445  0.0850  0.3652
  575TIP3    H123360   0.099   3.542   0.795 -0.1777 -0.8746  0.9918
  575TIP3    H223361   0.016   3.545   0.922 -2.0575  0.9924 -0.2296
  576TIP3   OH223362   2.752   6.652   2.854  0.2681  0.1081 -0.3480
  576TIP3    H123363   2.815   6.627   2.787 -1.5356 -0.1259 -2.0535
  576TIP3    H223364   2.738   6.572   2.905  2.4603  0.5693  1.0778
  577TIP3   OH223365   6.831   4.296   1.635 -0.1041  0.1124  0.0295
  577TIP3    H123366   6.887   4.359   1.590 -0.3165  0.1425 -0.1929
  577TIP3    H223367   6.892   4.242   1.686  0.2793 -0.7345 -1.2677
  578TIP3   OH223368   3.030   3.492   1.135 -0.1503 -0.0593  0.4920
  578TIP3    H123369   3.087   3.515   1.062 -0.8680 -1.5220 -0.5778
  578TIP3    H223370   3.020   3.574   1.184 -1.0256  1.4434 -2.0069
  579TIP3   OH223371   4.372   5.937   0.226  0.0158  0.2445 -0.2660
  579TIP3    H123372   4.443   5.966   0.283 -1.7405 -0.9894  2.8016
  579TIP3    H223373   4.325   6.017   0.202  1.0571  0.8340 -0.3795
  580TIP3   OH223374   6.145   4.043   0.449  0.2688 -0.6191  0.4817
  580TIP3    H123375   6.087   4.041   0.373 -0.3425 -0.2746  0.9336
  580TIP3    H223376   6.156   3.951   0.473  0.9051 -0.7673 -0.3497
  581TIP3   OH223377   2.454   4.847   0.619  0.2388 -0.3117 -0.0952
  581TIP3    H123378   2.361   4.852   0.641  0.0693 -1.5432 -0.4704
  581TIP3    H223379   2.482   4.761   0.650  0.7378 -0.8277 -1.8272
  582TIP3   OH223380   1.998   6.664   0.380  0.4059  0.3864  0.1689
  582TIP3    H123381   1.919   6.632   0.336  0.7357  2.1187 -1.8374
  582TIP3    H223382   1.968   6.740   0.429  0.7492  0.8267 -0.2989
  583TIP3   OH223383   0.497   6.741   0.702  0.2689 -0.1358  0.2683
  583TIP3    H123384   0.512   6.757   0.795 -1.4174  3.2197  0.0878
  583TIP3    H223385   0.579   6.769   0.660  0.2751  0.3270  0.5840
  584TIP3   OH223386   3.687   3.954   7.472  0.3224 -0.3330  0.0358
  584TIP3    H123387   3.596   3.982   7.484  0.2063  0.4064 -2.0793
  584TIP3    H223388   3.681   3.859   7.461 -0.2486 -0.2562 -0.4039
  585TIP3   OH223389   2.375   6.813   7.849  1.0803  0.1693 -0.6264
  585TIP3    H123390   2.390   6.872   7.923  1.9131  0.4299 -0.9911
  585TIP3    H223391   2.290   6.841   7.814  0.6149 -0.0463  0.3012
  586TIP3   OH223392   4.693   0.493   1.465 -0.1015  0.2670  0.5514
  586TIP3    H123393   4.739   0.577   1.462  0.7330 -0.1972 -2.0961
  586TIP3    H223394   4.602   0.517   1.485  0.4480  1.5834  1.6661
  587TIP3   OH223395   0.823   0.411   2.323 -0.3581 -0.0478  0.3540
  587TIP3    H123396   0.804   0.490   2.373 -0.3734  0.4836 -0.4725
  587TIP3    H223397   0.882   0.440   2.254 -0.8114 -0.6515 -0.3009
  588TIP3   OH223398   6.323   3.117   8.146 -0.0983 -0.1651 -0.3240
  588TIP3    H123399   6.348   3.209   8.142  0.2705 -0.1953  1.0759
  588TIP3    H223400   6.232   3.116   8.115 -0.1294  0.6750 -0.2810
  589TIP3   OH223401   6.227   2.478   0.153  0.2690 -0.3467 -0.0526
  589TIP3    H123402   6.247   2.527   0.233 -0.2269  1.0431 -0.7486
  589TIP3    H223403   6.309   2.480   0.103 -0.2962  1.7096 -1.0299
  590TIP3   OH223404   5.554   3.059   2.416  0.0694  0.2218  0.2726
  590TIP3    H123405   5.641   3.098   2.411  0.0512  0.2376  0.0883
  590TIP3    H223406   5.495   3.132   2.431  0.1780  0.1212  1.2731
  591TIP3   OH223407   4.226   2.501   2.905 -0.3670 -0.0747  0.3331
  591TIP3    H123408   4.221   2.588   2.945 -1.4079 -0.5998  1.3829
  591TIP3    H223409   4.295   2.456   2.955  0.9811  0.4813 -0.9439
  592TIP3   OH223410   6.037   5.604   1.278 -0.2749  0.1964  0.1501
  592TIP3    H123411   6.088   5.629   1.202  1.8612  1.4451  1.8781
  592TIP3    H223412   6.081   5.647   1.352 -1.3618 -2.0909  2.2835
  593TIP3   OH223413   5.567   1.572   0.993  0.6522 -0.1455 -0.1921
  593TIP3    H123414   5.495   1.566   1.054 -0.8866 -1.0369 -1.9885
  593TIP3    H223415   5.608   1.485   0.994  1.1918  0.1081  0.2155
  594TIP3   OH223416   3.318   5.166   3.330 -0.6049  0.0900  0.1295
  594TIP3    H123417   3.340   5.176   3.422 -1.4579  1.3366  0.2288
  594TIP3    H223418   3.394   5.123   3.291  0.3049  0.7031  1.1695
  595TIP3   OH223419   2.667   5.699   2.832  0.6365  0.1774 -0.4263
  595TIP3    H123420   2.614   5.769   2.871  2.1500 -0.7480  3.8638
  595TIP3    H223421   2.757   5.732   2.837  1.0947 -0.9306 -1.1368
  596TIP3   OH223422   2.750   1.748   1.254  0.2364  0.3741  0.0993
  596TIP3    H123423   2.720   1.680   1.314  1.6519 -0.4364 -0.0571
  596TIP3    H223424   2.834   1.715   1.221  0.3798  1.6584 -0.8968
  597TIP3   OH223425   3.439   4.277   1.190  0.5641 -0.0295 -0.6905
  597TIP3    H123426   3.455   4.254   1.098 -1.9190  1.8194 -1.7024
  597TIP3    H223427   3.356   4.233   1.212 -0.5595  2.1104 -0.4327
  598TIP3   OH223428   6.501   5.471   0.209  0.5284 -0.5385 -0.2482
  598TIP3    H123429   6.485   5.377   0.217  0.1787 -0.6030 -1.4773
  598TIP3    H223430   6.597   5.480   0.211  0.5718 -0.9540 -0.4307
  599TIP3   OH223431   0.990   2.501   0.577  0.7244 -0.4492 -0.0226
  599TIP3    H123432   0.997   2.493   0.672  0.0251 -1.1222 -0.0160
  599TIP3    H223433   1.066   2.454   0.542  0.3736 -1.1884  0.1879
  600TIP3   OH223434   1.407   3.619   7.017 -0.0708 -0.2565 -0.6904
  600TIP3    H123435   1.411   3.714   7.005 -0.4429 -0.2968 -1.1720
  600TIP3    H223436   1.490   3.596   7.059 -0.1641  0.3371 -0.1769
  601TIP3   OH223437   6.616   6.320   2.451  0.1337  0.1030 -0.6468
  601TIP3    H123438   6.690   6.259   2.446 -1.0366 -1.3599 -0.8029
  601TIP3    H223439   6.538   6.264   2.448 -0.9905  1.5503  0.2270
  602TIP3   OH223440   5.727   7.039   7.218  0.0563 -0.2198  0.2147
  602TIP3    H123441   5.793   7.093   7.175  0.0786  0.0527  0.5810
  602TIP3    H223442   5.768   7.015   7.302  1.8333 -4.3100 -1.5576
  603TIP3   OH223443   6.494   3.702   2.996  0.3700 -0.4972 -0.1940
  603TIP3    H123444   6.517   3.673   2.908  2.0387  0.4595 -0.1220
  603TIP3    H223445   6.508   3.797   2.994 -1.4634 -0.1588  0.5693
  604TIP3   OH223446   0.661   4.678   1.916  0.3135  0.2122 -0.1750
  604TIP3    H123447   0.696   4.689   2.004 -1.2726 -2.7665  0.9910
  604TIP3    H223448   0.730   4.632   1.868  0.2395 -0.4682  0.3495
  605TIP3   OH223449   0.152   0.031   2.787 -0.2673 -0.2681  0.1580
  605TIP3    H123450   0.227  -0.022   2.759 -0.4033 -1.2563  1.5587
  605TIP3    H223451   0.189   0.093   2.850 -0.7377 -1.4065  1.6080
  606TIP3   OH223452   1.283   2.660   3.905 -0.1639  0.3411  0.0843
  606TIP3    H123453   1.371   2.638   3.874 -0.4963  1.1851 -1.6236
  606TIP3    H223454   1.226   2.635   3.832 -1.1137  1.5077  0.4012
  607TIP3   OH223455   2.086   1.939   3.055  0.0774  0.1767  0.1945
  607TIP3    H123456   2.024   1.978   3.116 -1.4106  1.9685 -2.2579
  607TIP3    H223457   2.030   1.900   2.987  1.6144  0.3477 -1.2308
  608TIP3   OH223458   7.028   1.417   2.025  0.3241 -0.2591 -0.2138
  608TIP3    H123459   7.099   1.472   1.992 -0.8218  1.2758 -0.2333
  608TIP3    H223460   6.957   1.478   2.044 -0.4963 -1.5721  1.2128
  609TIP3   OH223461   2.829   5.479   2.440 -0.0834  0.4550  0.4403
  609TIP3    H123462   2.904   5.423   2.418  0.0217  0.1534  1.5071
  609TIP3    H223463   2.867   5.554   2.485 -0.2873  1.1077 -0.4376
  610TIP3   OH223464   2.688   5.212   0.790 -0.0774  0.5999 -0.6396
  610TIP3    H123465   2.629   5.241   0.720 -0.8810 -1.5803 -0.9435
  610TIP3    H223466   2.653   5.127   0.817  3.1495 -1.0419 -1.1333
  611TIP3   OH223467   6.397   7.038   0.600  0.1219  0.4742 -0.1714
  611TIP3    H123468   6.417   7.036   0.693  0.8293 -1.5973 -0.3241
  611TIP3    H223469   6.474   6.999   0.558 -1.0750 -0.6455 -1.4200
  612TIP3   OH223470   5.665   2.765   1.230 -0.5752 -0.1918  0.3784
  612TIP3    H123471   5.680   2.728   1.143 -0.3486 -0.3727  0.4953
  612TIP3    H223472   5.622   2.695   1.279  1.3234 -0.9137  1.1104
  613TIP3   OH223473   5.335   5.358   2.180  0.4662 -0.5041  0.6276
  613TIP3    H123474   5.351   5.367   2.274  1.0011 -0.9767  0.5864
  613TIP3    H223475   5.331   5.448   2.147  0.0572 -0.3328  1.1343
  614TIP3   OH223476   3.932   1.334   3.290  0.4238 -0.6759 -0.5258
  614TIP3    H123477   3.969   1.250   3.319  0.3994 -0.0964  1.2523
  614TIP3    H223478   3.954   1.396   3.359  0.1730  0.7463 -1.6705
  615TIP3   OH223479   3.309   0.064   2.095  0.5037  0.2669 -0.1884
  615TIP3    H123480   3.374   0.032   2.032 -0.0583 -2.3635  0.4576
  615TIP3    H223481   3.296  -0.009   2.155 -1.3827  1.5470  1.0588
  616TIP3   OH223482   4.263   6.537   3.093  0.1218 -0.0743 -0.2259
  616TIP3    H123483   4.337   6.591   3.068 -1.1438  2.7187  1.5495
  616TIP3    H223484   4.196   6.599   3.122 -1.8492 -2.5699  1.0262
  617TIP3   OH223485   2.530   4.070   8.172 -0.2021  0.9163 -0.0989
  617TIP3    H123486   2.578   4.128   8.114  0.9507  0.3358  0.2479
  617TIP3    H223487   2.467   4.025   8.115 -0.9499  2.3063 -0.4046
  618TIP3   OH223488   6.027   3.275   1.475  0.0862 -0.3398  0.0223
  618TIP3    H123489   6.012   3.230   1.559 -1.0330  0.5609  0.3346
  618TIP3    H223490   5.960   3.344   1.473  0.8878  0.4385 -1.0575
  619TIP3   OH223491   2.046   5.407   3.053 -0.2995 -0.5157  0.2758
  619TIP3    H123492   2.058   5.314   3.035  0.3843 -0.5283  0.7899
  619TIP3    H223493   1.969   5.411   3.110 -1.5554 -0.5966 -1.3220
  620TIP3   OH223494   1.132   0.463   2.448 -0.3744 -0.0285 -0.0292
  620TIP3    H123495   1.115   0.556   2.436 -0.7445 -0.0142  0.5364
  620TIP3    H223496   1.092   0.421   2.372  2.4137  0.4758 -1.9332
  621TIP3   OH223497   5.498   2.703   1.769  0.1987 -0.0497  0.2968
  621TIP3    H123498   5.485   2.650   1.691  1.2618  0.0966 -0.0011
  621TIP3    H223499   5.412   2.710   1.808 -0.5860  0.7778 -1.4504
  622TIP3   OH223500   3.252   1.638   0.618  0.2863 -0.1116 -0.1169
  622TIP3    H123501   3.222   1.700   0.552  2.6217 -0.9751 -2.1727
  622TIP3    H223502   3.289   1.693   0.687 -2.9899  0.8402  1.0220
  623TIP3   OH223503   0.176   2.767   2.531  0.4019 -0.0679 -0.3377
  623TIP3    H123504   0.243   2.832   2.510 -0.1034  0.6035  0.0979
  623TIP3    H223505   0.155   2.727   2.446  1.4300 -0.3721 -0.4593
  624TIP3   OH223506   4.499   5.953   2.906 -0.7251  0.3262 -0.0386
  624TIP3    H123507   4.568   5.974   2.970 -0.7792  1.6562 -0.3863
  624TIP3    H223508   4.498   5.857   2.904  0.1626  0.2598  0.9956
  625TIP3   OH223509   1.618   5.328   7.822  0.2058  0.3374 -0.4390
  625TIP3    H123510   1.597   5.378   7.744  0.0769 -2.1044 -2.0561
  625TIP3    H223511   1.714   5.327   7.824  0.2181 -0.3077 -1.0710
  626TIP3   OH223512   0.031   1.608   2.852 -0.1007  0.0821  0.1512
  626TIP3    H123513   0.085   1.562   2.915 -1.3073 -0.2299  0.9992
  626TIP3    H223514  -0.016   1.538   2.806 -1.3227  0.3957  0.8756
  627TIP3   OH223515   6.633   4.609   2.276  0.6157 -0.9332  0.9073
  627TIP3    H123516   6.572   4.573   2.213 -0.2978  0.5178  0.9077
  627TIP3    H223517   6.703   4.647   2.223  0.4065 -0.6884  0.8038
  628TIP3   OH223518   2.444   4.612   0.373  0.0802  0.0138  0.2268
  628TIP3    H123519   2.480   4.686   0.422  0.1761  0.5368 -0.6103
  628TIP3    H223520   2.507   4.597   0.303  1.5167 -2.6523  1.9200
  629TIP3   OH223521   3.584   0.831   1.657 -0.7255 -0.7243  0.0403
  629TIP3    H123522   3.560   0.806   1.746 -2.8118 -1.4962 -0.6618
  629TIP3    H223523   3.639   0.760   1.625 -0.3702 -0.6799  0.5527
  630TIP3   OH223524   2.983   3.851   2.127  0.1011  0.1472 -0.1043
  630TIP3    H123525   2.987   3.837   2.032 -0.0301 -1.1360  0.0667
  630TIP3    H223526   2.948   3.940   2.136  0.3236  0.3756 -1.2494
  631TIP3   OH223527   5.685   5.298   2.729 -0.0352 -0.5482 -0.1340
  631TIP3    H123528   5.750   5.365   2.751  1.6216 -2.1799  0.1745
  631TIP3    H223529   5.612   5.313   2.789  0.6161  0.5142  0.4104
  632TIP3   OH223530   3.647   0.088   0.574  0.4684  0.6571  0.3295
  632TIP3    H123531   3.679   0.003   0.605 -0.6960  0.6683  1.6576
  632TIP3    H223532   3.727   0.136   0.551  1.1390 -0.8424 -0.6494
  633TIP3   OH223533   6.963   3.524   1.058 -0.4227 -0.1979  0.6703
  633TIP3    H123534   6.915   3.534   1.140 -1.9206 -0.2920 -0.1452
  633TIP3    H223535   6.908   3.568   0.993  0.8206  0.0334 -0.2534
  634TIP3   OH223536   0.204   2.958   8.264 -0.2520 -0.0590  0.2337
  634TIP3    H123537   0.227   2.870   8.235  1.3090 -0.1616  1.6346
  634TIP3    H223538   0.121   2.947   8.311 -0.5253 -0.6166 -0.3685
  635TIP3   OH223539   3.785   6.258   1.988 -0.5097 -0.2266  0.2575
  635TIP3    H123540   3.849   6.328   2.000 -1.2622  0.5690 -0.2750
  635TIP3    H223541   3.703   6.303   1.967 -0.7647 -1.2846 -1.1965
  636TIP3   OH223542   1.690   4.844   1.616 -0.0921  0.0305 -0.7453
  636TIP3    H123543   1.723   4.846   1.706  0.4619  0.4233 -0.9512
  636TIP3    H223544   1.631   4.768   1.613  0.3261 -0.3181 -0.2096
  637TIP3   OH223545   2.375   2.240   0.786  0.0154  0.1806  0.2361
  637TIP3    H123546   2.397   2.333   0.790 -0.2405  0.2805 -0.5432
  637TIP3    H223547   2.425   2.207   0.711  0.0234 -0.2950  0.4448
  638TIP3   OH223548   5.035   3.600   0.154  0.4385  0.1937 -0.2225
  638TIP3    H123549   5.016   3.552   0.235  0.2123  1.4301  0.4742
  638TIP3    H223550   5.064   3.686   0.183 -0.6637  1.0179 -1.4659
  639TIP3   OH223551   4.987   4.471   2.474 -0.2243  0.5600  0.1907
  639TIP3    H123552   4.914   4.432   2.425 -0.3386  0.6976  0.2503
  639TIP3    H223553   5.054   4.488   2.407 -0.1915  0.3078  0.1571
  640TIP3   OH223554   1.211   4.522   7.829  0.2988 -0.0569  0.5471
  640TIP3    H123555   1.272   4.582   7.871 -1.2117  2.2216 -0.2900
  640TIP3    H223556   1.126   4.544   7.866 -0.3844 -1.3415 -0.1751
  641TIP3   OH223557   0.143   0.402   0.449  0.3959  0.0610 -0.6655
  641TIP3    H123558   0.191   0.479   0.418  2.1668 -0.6971  0.0338
  641TIP3    H223559   0.094   0.372   0.373  2.2155  0.0295 -1.9031
  642TIP3   OH223560   1.447   5.872   3.501  0.0215  0.1907 -0.5238
  642TIP3    H123561   1.463   5.778   3.509  1.9646  0.4280 -1.1871
  642TIP3    H223562   1.353   5.879   3.483 -0.1340 -1.6257 -0.5530
  643TIP3   OH223563   0.552   3.815   1.100  0.9853 -0.1055  0.6734
  643TIP3    H123564   0.485   3.776   1.044 -0.0416 -0.0025  1.7980
  643TIP3    H223565   0.624   3.834   1.040 -0.6572  1.4581 -0.9555
  644TIP3   OH223566   4.093   0.776   1.810  0.0325  0.0726 -0.2147
  644TIP3    H123567   4.133   0.690   1.800 -1.4629 -0.7104  0.0952
  644TIP3    H223568   3.999   0.759   1.802 -0.5027  1.2246  2.4836
  645TIP3   OH223569   0.646   5.321   2.027  0.2224  0.5200  0.6476
  645TIP3    H123570   0.713   5.381   2.059  0.8608 -0.2690  0.8389
  645TIP3    H223571   0.684   5.234   2.042 -1.0787  0.0405  1.2931
  646TIP3   OH223572   1.053   3.024   2.255  0.3081  0.4669  0.2546
  646TIP3    H123573   1.145   3.012   2.231  0.1465  1.1424 -0.7947
  646TIP3    H223574   1.047   3.116   2.282  0.0420  0.2831  0.8380
  647TIP3   OH223575   2.099   0.619   7.956 -0.1662 -0.6476  0.4867
  647TIP3    H123576   2.067   0.698   7.913  1.3828  0.3571  1.0633
  647TIP3    H223577   2.087   0.636   8.050 -2.3144 -2.2715  0.5949
  648TIP3   OH223578   4.313   1.637   2.914 -0.3307  0.6711  0.2316
  648TIP3    H123579   4.251   1.569   2.940  0.1610 -0.3777 -1.2092
  648TIP3    H223580   4.398   1.592   2.911  0.0427  1.4031 -0.5569
  649TIP3   OH223581   5.330   5.320   2.464 -0.3288  0.0144  0.3055
  649TIP3    H123582   5.285   5.390   2.512  1.9130 -0.2152  3.0458
  649TIP3    H223583   5.335   5.248   2.527 -0.4163 -1.7359 -1.6065
  650TIP3   OH223584   6.308   0.862   7.850  0.4842  0.1193  0.4326
  650TIP3    H123585   6.227   0.905   7.879  0.0354  1.5082 -2.5507
  650TIP3    H223586   6.286   0.769   7.846  0.0998  0.0481  2.7258
  651TIP3   OH223587   3.683   1.793   8.261 -0.0699 -0.6586  0.4925
  651TIP3    H123588   3.768   1.800   8.216 -0.0062  1.5000  0.8688
  651TIP3    H223589   3.628   1.743   8.200  1.5035 -2.3539  0.3618
  652TIP3   OH223590   6.416   3.950   0.759 -0.5269 -0.0313  0.2093
  652TIP3    H123591   6.374   3.872   0.722  0.6434 -0.4551 -0.2469
  652TIP3    H223592   6.504   3.950   0.722 -0.4141  1.3514  0.4414
  653TIP3   OH223593   2.762   2.601   2.345 -0.1986  0.1597  0.1994
  653TIP3    H123594   2.684   2.554   2.315  0.4732 -1.9081  1.4804
  653TIP3    H223595   2.756   2.599   2.441  1.4452 -0.1025  0.3233
  654TIP3   OH223596   3.378   7.055   0.142  0.2198  0.0561 -0.3565
  654TIP3    H123597   3.464   7.088   0.116 -0.2946  2.0232  0.2387
  654TIP3    H223598   3.318   7.128   0.124 -0.8906 -0.2554  1.7395
  655TIP3   OH223599   2.234   6.420   3.332  0.5077  1.0380  0.3828
  655TIP3    H123600   2.218   6.326   3.324 -1.3053  1.3049  0.4596
  655TIP3    H223601   2.289   6.442   3.257  0.6836 -0.0236  0.1900
  656TIP3   OH223602   3.251   1.802   8.091  0.1233 -0.1554  0.2865
  656TIP3    H123603   3.220   1.848   8.168  0.3667  0.1409  0.2092
  656TIP3    H223604   3.196   1.833   8.020  0.5305  0.2983  0.1664
  657TIP3   OH223605   3.165   6.871   7.248 -0.1544  0.0335  0.6530
  657TIP3    H123606   3.153   6.826   7.331  1.2046 -0.0267  0.8391
  657TIP3    H223607   3.238   6.931   7.263  1.6843 -1.6351 -1.1105
  658TIP3   OH223608   4.613   5.419   2.587  0.5055  0.3274  0.0106
  658TIP3    H123609   4.522   5.393   2.601  0.4038  1.3408  1.3528
  658TIP3    H223610   4.659   5.392   2.666  0.9811  1.5584  0.1714
  659TIP3   OH223611   2.858   2.025   0.824  0.4269 -0.2790 -0.1820
  659TIP3    H123612   2.878   2.039   0.916 -0.1538  2.2865 -0.3575
  659TIP3    H223613   2.792   1.956   0.824  1.3477 -1.2164  1.1871
  660TIP3   OH223614   1.583   1.527   1.077  0.5034  0.2951 -0.0130
  660TIP3    H123615   1.664   1.493   1.038  0.0505 -0.8865  0.0257
  660TIP3    H223616   1.549   1.453   1.128 -0.4196  0.8897  0.2528
  661TIP3   OH223617   0.560   1.459   1.402 -0.1942  0.0515  0.2700
  661TIP3    H123618   0.475   1.471   1.444 -0.1827  0.9110  0.0804
  661TIP3    H223619   0.540   1.428   1.314 -0.2791 -0.3950  0.4451
  662TIP3   OH223620   6.251   3.352   0.262 -0.2995  0.0693  0.2509
  662TIP3    H123621   6.252   3.444   0.287 -0.7599 -0.2846  1.6589
  662TIP3    H223622   6.198   3.309   0.330 -1.2960 -1.0124 -1.1476
  663TIP3   OH223623   2.176   0.079   2.049 -0.2621  0.0593  0.1371
  663TIP3    H123624   2.205   0.104   1.961 -1.3216  0.0511 -0.2354
  663TIP3    H223625   2.225   0.136   2.108 -0.0767  0.5713 -0.5040
  664TIP3   OH223626   6.693   4.619   1.683  0.3406  0.5616  0.0054
  664TIP3    H123627   6.704   4.714   1.677 -0.4196  0.7683  1.3729
  664TIP3    H223628   6.731   4.585   1.603  1.0710  1.9891 -0.2838
  665TIP3   OH223629   2.364   5.642   7.995 -0.4539 -0.0127  0.0391
  665TIP3    H123630   2.404   5.584   7.930  0.7036  0.2859  0.4636
  665TIP3    H223631   2.273   5.651   7.966 -0.6056 -1.8373 -0.1740
  666TIP3   OH223632   2.566   2.466   0.209 -0.0859 -0.2423 -0.2287
  666TIP3    H123633   2.566   2.535   0.276 -1.5728 -0.9308  0.5205
  666TIP3    H223634   2.612   2.506   0.134  0.1475  1.1239  0.5971
  667TIP3   OH223635   5.354   6.987   0.829 -0.0919  0.0972 -0.2369
  667TIP3    H123636   5.430   7.005   0.773  0.6899  0.0261  0.7659
  667TIP3    H223637   5.316   7.073   0.845  1.1340  0.4506  1.0731
  668TIP3   OH223638   1.021   6.879   0.840 -0.1848  0.0455 -0.5135
  668TIP3    H123639   1.045   6.956   0.790 -2.7002  1.6825  0.5995
  668TIP3    H223640   0.934   6.855   0.807 -1.1638  0.1452  1.7805
  669TIP3   OH223641   1.412   0.432   2.462  0.0934  0.2699  0.0557
  669TIP3    H123642   1.413   0.446   2.368  0.7864 -1.3660 -0.2103
  669TIP3    H223643   1.320   0.437   2.487 -0.3718 -1.6775 -1.1197
  670TIP3   OH223644   6.079   3.627   2.966  0.0610 -0.4001  0.0305
  670TIP3    H123645   6.044   3.713   2.990  0.3899  1.2678 -4.4172
  670TIP3    H223646   6.155   3.615   3.022  0.2694  2.4781  0.5041
  671TIP3   OH223647   0.681   0.627   7.910  0.1646 -0.1336  0.0398
  671TIP3    H123648   0.686   0.570   7.986 -1.0162  1.3523  1.2864
  671TIP3    H223649   0.736   0.702   7.931 -0.8784  0.7104 -0.1739
  672TIP3   OH223650   1.315   5.793   8.087  0.2017 -0.1485  0.1005
  672TIP3    H123651   1.357   5.746   8.015 -0.7801 -0.6815 -0.1532
  672TIP3    H223652   1.241   5.737   8.112 -0.7445  1.0411  0.0747
  673TIP3   OH223653   2.735   6.258   3.251 -0.1950 -0.1401 -0.1771
  673TIP3    H123654   2.721   6.168   3.278 -0.1270 -0.3660 -0.8976
  673TIP3    H223655   2.807   6.289   3.307 -0.3992 -0.4388  0.2557
  674TIP3   OH223656   4.360   4.878   1.425  0.1973 -0.4995 -0.0546
  674TIP3    H123657   4.392   4.818   1.358 -0.3997 -2.3243  1.2113
  674TIP3    H223658   4.265   4.876   1.416  0.1761  0.3535 -0.0662
  675TIP3   OH223659   5.974   0.100   7.916 -0.1577 -0.2409 -0.2211
  675TIP3    H123660   5.921   0.165   7.870  0.2878  0.9038  0.8503
  675TIP3    H223661   5.989   0.032   7.850  0.3631  1.2851 -1.7748
  676TIP3   OH223662   3.795   0.167   3.884  0.0302  0.2601 -0.4299
  676TIP3    H123663   3.884   0.199   3.870 -0.4127  0.8804 -2.2599
  676TIP3    H223664   3.802   0.072   3.878  0.5014  0.3310 -1.2200
  677TIP3   OH223665   0.818   1.864   0.609  0.2700 -0.2115  0.7755
  677TIP3    H123666   0.905   1.844   0.574  0.4099 -0.9492  1.5046
  677TIP3    H223667   0.814   1.815   0.691 -1.1009 -0.7483  0.4147
  678TIP3   OH223668   0.631   4.234   2.738 -0.1920 -0.2984 -0.5746
  678TIP3    H123669   0.692   4.189   2.797  0.5311  2.9901  1.4731
  678TIP3    H223670   0.564   4.169   2.719  1.4855 -2.6432  0.9526
  679TIP3   OH223671   6.532   0.318   0.537  0.0101 -0.1156 -1.0099
  679TIP3    H123672   6.565   0.324   0.627  0.5825 -1.9714 -1.0485
  679TIP3    H223673   6.482   0.399   0.524 -0.5950 -0.0696  1.1860
  680TIP3   OH223674   2.800   6.608   1.797 -0.3891  0.3450  0.2751
  680TIP3    H123675   2.712   6.613   1.760 -0.0665 -0.1134 -0.5803
  680TIP3    H223676   2.855   6.583   1.723  0.5052  0.8949  0.7429
  681TIP3   OH223677   5.465   2.337   2.149  0.5893  0.6124  0.7350
  681TIP3    H123678   5.549   2.384   2.152  1.3331 -0.6169  0.1497
  681TIP3    H223679   5.404   2.400   2.113  1.6831  0.9955 -0.5459
  682TIP3   OH223680   6.295   1.423   1.554 -0.4231  0.2228  0.2737
  682TIP3    H123681   6.220   1.452   1.606  0.2864 -0.1502  1.5541
  682TIP3    H223682   6.275   1.332   1.532 -0.7394  0.3901 -0.1371
  683TIP3   OH223683   6.628   4.916   8.269 -0.0202 -0.5004  0.3468
  683TIP3    H123684   6.534   4.933   8.277  0.0739 -0.1040  0.6423
  683TIP3    H223685   6.663   4.995   8.226  0.0986 -0.8777 -0.2628
  684TIP3   OH223686   2.277   5.235   2.328  0.1232  0.2178  0.3820
  684TIP3    H123687   2.232   5.249   2.245  1.1148  0.9969 -0.0496
  684TIP3    H223688   2.323   5.152   2.316 -0.6123 -0.2235  0.5660
  685TIP3   OH223689   6.045   0.422   0.688  0.2801 -0.3915  0.1877
  685TIP3    H123690   6.100   0.430   0.610  2.2535  0.1619  1.5590
  685TIP3    H223691   6.007   0.509   0.699  0.3165 -0.3610  0.0725
  686TIP3   OH223692   4.049   4.418   2.219  0.0568 -0.1202 -0.6160
  686TIP3    H123693   4.120   4.390   2.277  1.0265 -0.0698 -1.7313
  686TIP3    H223694   4.094   4.457   2.144 -1.1986  2.9305  0.0722
  687TIP3   OH223695   4.904   5.254   1.311 -0.1217  0.0287 -0.0068
  687TIP3    H123696   4.928   5.332   1.261  1.2675 -0.8507 -0.7617
  687TIP3    H223697   4.847   5.204   1.252  0.6101 -0.4723 -0.2999
  688TIP3   OH223698   4.524   2.059   2.115 -0.6338 -0.6651  0.0992
  688TIP3    H123699   4.435   2.032   2.138 -0.4319 -0.3162  1.3371
  688TIP3    H223700   4.576   1.979   2.121 -0.5990 -0.5952  0.8181
  689TIP3   OH223701   2.205   0.009   2.854 -0.4838 -0.1375  0.6029
  689TIP3    H123702   2.140  -0.007   2.786 -0.7778  4.1620 -0.4363
  689TIP3    H223703   2.282   0.041   2.806 -0.3578  2.0696  2.0937
  690TIP3   OH223704   2.978   4.943   8.129  0.4417 -0.4629  0.7185
  690TIP3    H123705   3.065   4.926   8.092 -0.3605 -2.6681 -0.3395
  690TIP3    H223706   2.918   4.924   8.057 -0.9879 -0.4346  1.8668
  691TIP3   OH223707   5.464   2.201   0.611 -0.5219 -0.4967 -0.1393
  691TIP3    H123708   5.476   2.276   0.554 -0.0115  0.3122  0.9944
  691TIP3    H223709   5.522   2.134   0.575 -0.5136 -0.1422 -0.7966
  692TIP3   OH223710   5.207   2.386   0.498 -0.3098  0.8598 -0.3787
  692TIP3    H123711   5.243   2.323   0.436 -0.5642  0.3200  0.0091
  692TIP3    H223712   5.271   2.390   0.569 -0.3594  0.9253 -0.3365
  693TIP3   OH223713   2.379   4.277   0.588 -0.3359  0.0284 -0.0924
  693TIP3    H123714   2.427   4.262   0.506 -1.3518 -3.4303 -0.2113
  693TIP3    H223715   2.287   4.274   0.562 -0.6666 -1.0889  1.1145
  694TIP3   OH223716   6.330   0.819   0.358  0.4706 -0.1711 -0.5690
  694TIP3    H123717   6.248   0.805   0.405  1.8667 -2.9578  1.3509
  694TIP3    H223718   6.318   0.903   0.312 -2.6574  0.5050  1.1985
  695TIP3   OH223719   2.616   1.269   0.887  0.0852  0.7888  0.0758
  695TIP3    H123720   2.697   1.248   0.934 -0.1860  2.7187  1.5281
  695TIP3    H223721   2.547   1.231   0.941 -0.1013  1.0565  0.0280
  696TIP3   OH223722   0.305   5.294   2.259  0.1491 -0.4470  0.4105
  696TIP3    H123723   0.260   5.209   2.256  0.3114 -0.5099 -0.9235
  696TIP3    H223724   0.354   5.292   2.342  0.7549 -1.9833  0.0659
  697TIP3   OH223725   3.068   6.491   2.942 -0.3986 -0.0334  0.0337
  697TIP3    H123726   3.066   6.562   2.877  2.8516 -0.1572 -0.3984
  697TIP3    H223727   3.025   6.417   2.898 -0.5554  0.6343 -0.9661
  698TIP3   OH223728   0.471   7.060   3.109 -0.0001  0.4306  0.0591
  698TIP3    H123729   0.380   7.090   3.108 -2.5179 -5.2961  3.2801
  698TIP3    H223730   0.509   7.101   3.187 -1.5059 -0.4372  1.3147
  699TIP3   OH223731   7.028   4.824   2.689  0.1822 -0.2007  0.3944
  699TIP3    H123732   7.050   4.772   2.611  0.1824 -0.0704  0.3067
  699TIP3    H223733   6.949   4.784   2.723  0.5894 -0.7169  0.7501
  700TIP3   OH223734   0.858   4.674   0.474 -0.1347  0.3450  0.6044
  700TIP3    H123735   0.813   4.593   0.497 -1.2780  0.9619  0.5845
  700TIP3    H223736   0.936   4.645   0.426  0.2216 -0.7820  1.8149
  701TIP3   OH223737   5.345   1.839   3.182 -0.0552  0.2713  0.0830
  701TIP3    H123738   5.347   1.933   3.166  1.6735 -0.0358 -1.9432
  701TIP3    H223739   5.272   1.826   3.242 -2.3045  2.5855 -1.9222
  702TIP3   OH223740   2.092   1.272   3.016  0.1264 -0.0271 -0.0046
  702TIP3    H123741   2.123   1.263   3.106 -1.0127 -0.9068  0.3297
  702TIP3    H223742   2.144   1.343   2.979  0.9208  0.0442  1.2069
  703TIP3   OH223743   5.670   6.692   1.416  0.0989  0.1576 -0.0765
  703TIP3    H123744   5.765   6.702   1.418  0.0315  1.1697  2.6499
  703TIP3    H223745   5.653   6.613   1.467 -0.5443  0.7570  0.6676
  704TIP3   OH223746   5.459   0.950   1.924  0.0775 -0.2693 -0.1017
  704TIP3    H123747   5.553   0.967   1.936  0.1625 -0.2467 -0.7627
  704TIP3    H223748   5.452   0.854   1.931  0.2275 -0.3151 -0.5504
  705TIP3   OH223749   1.368   5.440   0.994 -0.5963 -0.6145  0.4493
  705TIP3    H123750   1.433   5.375   1.023 -1.5823 -2.0386 -0.4139
  705TIP3    H223751   1.358   5.498   1.070  2.5712  0.4559  0.1991
  706TIP3   OH223752   6.045   2.676   2.620 -0.1396 -0.2533  0.3675
  706TIP3    H123753   6.066   2.744   2.556 -1.5966 -0.6356 -0.5617
  706TIP3    H223754   5.953   2.689   2.639  0.0485 -0.7321  1.7216
  707TIP3   OH223755   0.654   3.601   8.015 -0.4702  0.2455  0.4198
  707TIP3    H123756   0.584   3.654   8.052 -1.0750 -1.3394  1.6283
  707TIP3    H223757   0.621   3.511   8.016  0.6907 -0.2608 -1.1634
  708TIP3   OH223758   0.828   3.833   2.472  0.3600 -0.1697  0.0457
  708TIP3    H123759   0.750   3.850   2.419  0.6114 -1.2397 -0.7242
  708TIP3    H223760   0.898   3.881   2.428  0.1501  0.8028  0.7454
  709TIP3   OH223761   1.461   3.262   3.189 -0.2148 -0.4975 -0.2203
  709TIP3    H123762   1.462   3.357   3.176 -1.0734 -0.4646 -0.1092
  709TIP3    H223763   1.379   3.246   3.236  0.5925 -1.1398  1.0022
  710TIP3   OH223764   1.797   6.291   3.129  0.5646  0.5996  0.0631
  710TIP3    H123765   1.767   6.203   3.153  0.8108  0.6449  0.5686
  710TIP3    H223766   1.883   6.298   3.170 -0.5397  2.0450  2.3861
  711TIP3   OH223767   6.313   3.413   7.386  0.1556  0.0344  0.0067
  711TIP3    H123768   6.378   3.354   7.349  1.4986  0.5403  1.4205
  711TIP3    H223769   6.331   3.412   7.480 -1.6456  0.5112  0.3908
  712TIP3   OH223770   2.370   3.001   2.289 -0.3740 -0.5150 -0.4207
  712TIP3    H123771   2.379   3.023   2.382  0.9697  1.1497 -0.8814
  712TIP3    H223772   2.410   2.915   2.281  1.0679  0.0480  0.3069
  713TIP3   OH223773   2.437   5.739   0.932 -0.4444 -0.2512 -0.5104
  713TIP3    H123774   2.526   5.720   0.902 -1.0156  0.3041 -2.7931
  713TIP3    H223775   2.386   5.661   0.909 -0.8294  0.0322 -0.6456
  714TIP3   OH223776   2.574   2.965   3.414 -0.1967  0.4627  0.3151
  714TIP3    H123777   2.612   2.910   3.346 -1.2704  0.9450 -0.6921
  714TIP3    H223778   2.504   2.911   3.452 -0.6183  0.7701 -0.0220
  715TIP3   OH223779   6.096   3.353   0.730 -0.1362 -0.0557  0.1389
  715TIP3    H123780   6.099   3.444   0.757  1.3290 -0.0444  0.0096
  715TIP3    H223781   6.002   3.334   0.719 -0.4146  1.8942 -1.3776
  716TIP3   OH223782   1.785   6.312   2.673 -0.2816 -0.0401  0.0131
  716TIP3    H123783   1.803   6.225   2.637  0.8491 -0.3536  1.2455
  716TIP3    H223784   1.869   6.356   2.672 -0.4924  0.4065  1.0303
  717TIP3   OH223785   2.874   1.052   3.093  0.3801 -0.1139 -0.1081
  717TIP3    H123786   2.955   1.000   3.099  0.6375  0.4146  1.3791
  717TIP3    H223787   2.902   1.141   3.113 -0.5461  0.1033  0.2344
  718TIP3   OH223788   7.006   0.269   2.888  0.2673 -0.4550 -0.0249
  718TIP3    H123789   7.064   0.263   2.964  0.9373  1.5110 -0.3188
  718TIP3    H223790   6.952   0.346   2.905  0.4070 -0.0014 -1.4941
  719TIP3   OH223791   5.492   4.973   8.125  0.1120  0.6317  0.1111
  719TIP3    H123792   5.537   5.055   8.146 -0.2256  1.4204 -2.0037
  719TIP3    H223793   5.551   4.928   8.065 -0.1942 -0.1607  0.4012
  720TIP3   OH223794   1.051   2.563   1.386 -0.1600  0.1139  0.0075
  720TIP3    H123795   0.996   2.539   1.312 -0.6855 -0.6321  0.6228
  720TIP3    H223796   1.000   2.537   1.463 -0.3147  2.2778  0.7017
  721TIP3   OH223797   4.006   6.785   0.844 -0.6166  0.0014  0.3850
  721TIP3    H123798   3.949   6.785   0.921  1.1377  0.6958  1.7488
  721TIP3    H223799   3.962   6.843   0.782 -0.6061  1.8909  2.0458
  722TIP3   OH223800   6.831   2.662   1.280 -0.0719  0.6271 -0.1806
  722TIP3    H123801   6.796   2.718   1.349 -1.3340 -0.0260 -0.2643
  722TIP3    H223802   6.841   2.576   1.321 -1.5974  0.0227 -0.9659
  723TIP3   OH223803   5.590   3.586   1.806  0.1279 -0.5898 -0.7073
  723TIP3    H123804   5.629   3.623   1.726  1.9042  0.8023  0.7227
  723TIP3    H223805   5.521   3.648   1.830  0.4699 -0.3012 -0.4604
  724TIP3   OH223806   0.987   6.567   8.097 -0.6636 -0.0596 -0.1766
  724TIP3    H123807   0.919   6.633   8.084 -2.0758 -0.9461  1.9916
  724TIP3    H223808   1.023   6.586   8.184 -0.4714 -1.5756  0.1043
  725TIP3   OH223809   0.413   3.198   1.894 -0.2644  0.1762  0.3069
  725TIP3    H123810   0.437   3.171   1.805 -0.2604  2.0290 -0.2897
  725TIP3    H223811   0.496   3.209   1.939  0.0646  3.7716 -0.9040
  726TIP3   OH223812   3.339   0.184   8.066  0.2205 -0.0776  0.2435
  726TIP3    H123813   3.243   0.177   8.066  0.2251 -0.5895  1.7970
  726TIP3    H223814   3.356   0.267   8.111  0.5041  1.0979 -1.9067
  727TIP3   OH223815   4.949   3.764   3.269 -0.2832 -0.4947  0.2433
  727TIP3    H123816   4.866   3.748   3.314 -1.1341  0.1299 -1.0237
  727TIP3    H223817   4.934   3.735   3.179  1.3374 -1.6248  0.3037
  728TIP3   OH223818   6.500   3.761   0.531 -1.0539 -0.0373 -0.0727
  728TIP3    H123819   6.531   3.850   0.547 -0.9747 -0.0397 -0.2101
  728TIP3    H223820   6.575   3.717   0.491 -1.3514  0.0569 -0.7538
  729TIP3   OH223821   4.866   4.871   0.169  0.2658 -0.2808  0.4447
  729TIP3    H123822   4.880   4.945   0.110 -2.3631 -2.0674 -2.7743
  729TIP3    H223823   4.951   4.829   0.176  1.3027  1.6977  0.4911
  730TIP3   OH223824   4.961   6.778   2.533  1.1611 -0.5556  0.3663
  730TIP3    H123825   4.941   6.811   2.620  0.7909  0.0899  0.0457
  730TIP3    H223826   5.056   6.778   2.528  1.1744  0.4106  0.4080
  731TIP3   OH223827   1.004   3.413   0.829  0.4144  0.6157  0.8139
  731TIP3    H123828   1.076   3.435   0.889  0.7936  0.2522  0.4920
  731TIP3    H223829   1.032   3.447   0.744  0.3315  0.2307  0.6292
  732TIP3   OH223830   3.660   3.857   7.823 -0.3763 -0.6273  0.1764
  732TIP3    H123831   3.683   3.837   7.914 -1.7458 -2.7787  0.1194
  732TIP3    H223832   3.735   3.827   7.772  0.3532  0.4968  0.5566
  733TIP3   OH223833   1.537   5.597   0.277 -0.4277 -0.3581  0.4772
  733TIP3    H123834   1.490   5.596   0.361  0.2775 -0.5003  0.8820
  733TIP3    H223835   1.515   5.514   0.236 -1.5091  0.1018  0.0970
  734TIP3   OH223836   4.568   2.470   0.608 -0.3558 -0.1407 -0.2507
  734TIP3    H123837   4.658   2.456   0.636  0.3254  1.1112 -1.7027
  734TIP3    H223838   4.570   2.552   0.559 -2.3606  0.1057 -0.0211
  735TIP3   OH223839   3.424   2.995   0.579  0.6309  0.1699 -0.5320
  735TIP3    H123840   3.472   2.951   0.509  0.1441  2.5501 -2.4982
  735TIP3    H223841   3.451   3.086   0.572 -0.3397  0.6841  1.6809
  736TIP3   OH223842   1.048   1.590   0.018 -0.3299 -0.7257  0.0567
  736TIP3    H123843   0.981   1.589   0.086 -0.0819 -1.8868  0.3065
  736TIP3    H223844   1.006   1.632  -0.058 -0.3589  1.3434  1.1405
  737TIP3   OH223845   6.634   2.676   1.084 -0.1377  0.7381 -0.2332
  737TIP3    H123846   6.670   2.759   1.053 -1.0747  0.7840 -1.2396
  737TIP3    H223847   6.667   2.668   1.174  0.7142  1.7410 -0.4374
  738TIP3   OH223848   6.782   4.797   1.367 -0.5916  0.8607 -0.0707
  738TIP3    H123849   6.871   4.785   1.332  1.3342  0.0129  4.4722
  738TIP3    H223850   6.734   4.720   1.335  1.7700 -1.2545  1.1321
  739TIP3   OH223851   2.722   6.570   2.206 -1.3229 -0.1523 -0.7593
  739TIP3    H123852   2.791   6.545   2.145 -0.9457 -1.2538  0.0672
  739TIP3    H223853   2.721   6.665   2.204 -0.0153 -0.1206 -1.0595
  740TIP3   OH223854   3.074   3.772   0.258  0.2082  0.3470 -0.3386
  740TIP3    H123855   2.999   3.768   0.317  0.1380 -0.1618 -0.4611
  740TIP3    H223856   3.089   3.866   0.246  0.6730  0.4582  1.0351
  741TIP3   OH223857   0.724   2.052   0.915 -0.5093 -0.2204 -0.1667
  741TIP3    H123858   0.765   1.966   0.914 -0.0147 -0.0175  1.1793
  741TIP3    H223859   0.630   2.034   0.912 -0.4071 -0.7941 -0.0345
  742TIP3   OH223860   2.430   2.639   0.492  0.3739 -0.4246  0.1920
  742TIP3    H123861   2.335   2.651   0.494  0.4967  0.5745  1.2290
  742TIP3    H223862   2.447   2.601   0.406 -0.8686  0.2801 -0.4000
  743TIP3   OH223863   4.214   0.207   0.697 -0.1587  0.0556  0.4467
  743TIP3    H123864   4.257   0.141   0.751 -0.6112  0.3507  1.1816
  743TIP3    H223865   4.142   0.160   0.655  0.8288 -0.4324 -0.7659
  744TIP3   OH223866   5.686   4.815   2.709  0.0423  0.1875 -0.0445
  744TIP3    H123867   5.734   4.768   2.640  1.1499  0.5448  0.4487
  744TIP3    H223868   5.718   4.905   2.704  0.2351  0.1937  1.0037
  745TIP3   OH223869   1.480   2.242   7.061 -0.6932  0.5847 -0.6135
  745TIP3    H123870   1.575   2.238   7.046 -0.5838  0.9331 -0.0492
  745TIP3    H223871   1.471   2.241   7.156 -1.3971 -2.9541 -0.5803
  746TIP3   OH223872   1.151   3.205   0.478  0.4630  0.3122 -0.0676
  746TIP3    H123873   1.102   3.123   0.467 -0.9580  1.1560 -0.3266
  746TIP3    H223874   1.241   3.182   0.458  0.3546 -1.5208  1.2814
  747TIP3   OH223875   1.218   2.061   1.168 -0.1449 -0.0165 -0.3739
  747TIP3    H123876   1.179   1.975   1.151 -0.5642  0.2300 -0.6641
  747TIP3    H223877   1.302   2.041   1.210  0.6435 -0.6437 -2.1298
  748TIP3   OH223878   0.976   1.808   2.435 -0.0212 -0.2015 -0.2796
  748TIP3    H123879   1.025   1.756   2.371 -2.1512  0.3750 -2.5302
  748TIP3    H223880   0.889   1.767   2.436 -1.5335  2.6789 -1.5279
  749TIP3   OH223881   3.297   3.590   2.144  0.3411 -0.1579  0.0907
  749TIP3    H123882   3.236   3.618   2.075  1.7483  0.2131 -1.0665
  749TIP3    H223883   3.242   3.552   2.211 -1.2257  0.8438 -0.5725
  750TIP3   OH223884   0.084   5.424   0.669 -0.2838 -0.5275 -0.1180
  750TIP3    H123885  -0.010   5.408   0.668 -0.2232 -0.8740 -0.2510
  750TIP3    H223886   0.112   5.394   0.756 -0.1343 -1.3683 -0.4483
  751TIP3   OH223887   6.804   4.373   7.717  0.5078  0.5731 -0.8042
  751TIP3    H123888   6.755   4.357   7.636  0.8167  1.6862 -1.2374
  751TIP3    H223889   6.768   4.455   7.750  1.0392  0.6124 -0.3125
  752TIP3   OH223890   5.395   4.099   2.364  0.1721  0.5217  0.5174
  752TIP3    H123891   5.430   4.128   2.280  0.9380  1.7909  1.2456
  752TIP3    H223892   5.380   4.005   2.353 -0.2514  0.7678 -1.1939
  753TIP3   OH223893   1.191   4.622   0.638  0.7929  0.5757 -0.2583
  753TIP3    H123894   1.145   4.704   0.655  1.3406  1.0958 -1.2150
  753TIP3    H223895   1.230   4.599   0.722 -2.7459 -0.9334  1.1696
  754TIP3   OH223896   3.884   3.389   1.050 -0.4889  0.4146 -0.1859
  754TIP3    H123897   3.790   3.404   1.059 -0.5365 -0.5935  1.5063
  754TIP3    H223898   3.922   3.476   1.036 -1.5527  0.9712  0.3304
  755TIP3   OH223899   0.384   0.586   3.729  0.7090  0.2629 -0.0298
  755TIP3    H123900   0.313   0.641   3.763  0.6502  0.9117 -1.1366
  755TIP3    H223901   0.397   0.519   3.796  0.2426  1.1687  0.9995
  756TIP3   OH223902   5.500   1.442   1.474 -0.0490 -0.1564 -0.1525
  756TIP3    H123903   5.543   1.381   1.534  0.8141 -1.1297 -1.6733
  756TIP3    H223904   5.550   1.523   1.481  0.6592 -0.5777 -0.2735
  757TIP3   OH223905   3.407   1.802   1.324 -0.5259  0.2343  0.5214
  757TIP3    H123906   3.483   1.821   1.378 -0.8061  0.7390  0.7397
  757TIP3    H223907   3.382   1.713   1.349 -0.1292  0.1353  0.5838
  758TIP3   OH223908   1.762   2.260   7.250 -0.5883 -0.7545  0.4823
  758TIP3    H123909   1.856   2.248   7.234 -0.4910  1.2119 -0.6504
  758TIP3    H223910   1.749   2.354   7.248 -2.7341 -1.0245 -0.1469
  759TIP3   OH223911   2.691   4.951   2.425 -0.3595  0.0692 -0.2544
  759TIP3    H123912   2.660   4.923   2.339 -0.8725 -2.1389  0.5939
  759TIP3    H223913   2.632   4.907   2.487  1.3840 -0.2080  1.2742
  760TIP3   OH223914   6.999   2.585   3.342  0.1978 -0.4134  0.0260
  760TIP3    H123915   6.938   2.654   3.367  0.3432  0.8460 -2.7098
  760TIP3    H223916   7.056   2.574   3.418 -1.5682  0.4569  1.5565
  761TIP3   OH223917   0.766   1.355   7.730  0.2173 -0.5797 -0.6452
  761TIP3    H123918   0.673   1.335   7.733  0.4035 -1.4725 -0.0482
  761TIP3    H223919   0.782   1.388   7.642 -0.3506 -2.0868 -1.3386
  762TIP3   OH223920   1.598   1.306   7.327  0.0602  0.1798 -0.6451
  762TIP3    H123921   1.515   1.288   7.283  0.4949 -5.3778  0.0317
  762TIP3    H223922   1.664   1.286   7.261  0.8577  1.3452 -0.2157
  763TIP3   OH223923   3.503   4.391   1.974 -0.5440  0.1391 -0.2882
  763TIP3    H123924   3.503   4.377   2.068 -3.6814 -0.2759 -0.2647
  763TIP3    H223925   3.413   4.377   1.946 -0.2371  2.4349 -3.0340
  764TIP3   OH223926   4.278   5.016   3.225  0.5907 -0.1191  0.2098
  764TIP3    H123927   4.312   5.021   3.315  0.7219 -0.4979  0.1839
  764TIP3    H223928   4.205   5.078   3.224  0.3924 -0.3324  0.6716
  765TIP3   OH223929   6.404   0.072   2.942 -0.3890  0.1032  0.0668
  765TIP3    H123930   6.416   0.017   2.865 -0.9516  0.7587 -0.5104
  765TIP3    H223931   6.377   0.012   3.011 -0.1830 -0.4515 -0.3279
  766TIP3   OH223932   5.072   4.628   0.917  0.0839  0.1061 -0.0881
  766TIP3    H123933   5.097   4.695   0.853 -0.7498  1.7188  1.2043
  766TIP3    H223934   4.981   4.648   0.937 -0.1742 -1.4298  0.3504
  767TIP3   OH223935   2.822   6.518   3.544  0.0276  0.3537  0.3351
  767TIP3    H123936   2.816   6.424   3.525  1.0591  0.4969 -0.8601
  767TIP3    H223937   2.771   6.560   3.475 -0.1996  0.7002  0.7054
  768TIP3   OH223938   4.940   1.090   2.402 -0.2669  0.2849 -0.3590
  768TIP3    H123939   4.853   1.095   2.442 -0.7852 -1.6993 -1.1467
  768TIP3    H223940   4.927   1.118   2.312 -0.4740 -1.5426 -0.9412
  769TIP3   OH223941   6.294   3.632   0.370 -0.2977  0.1975 -0.1251
  769TIP3    H123942   6.210   3.648   0.412 -0.5927  2.2328 -1.3368
  769TIP3    H223943   6.359   3.659   0.435 -0.5548 -1.2549  0.7625
  770TIP3   OH223944   3.701   6.817   1.958 -0.2631 -0.4822  0.1551
  770TIP3    H123945   3.774   6.848   2.012  0.7539 -0.6287 -1.1205
  770TIP3    H223946   3.661   6.748   2.011 -1.3746  1.5449  2.2032
  771TIP3   OH223947   4.875   4.379   1.218 -0.3442 -0.0933 -0.0890
  771TIP3    H123948   4.851   4.456   1.270 -0.2669  0.3261 -0.6596
  771TIP3    H223949   4.971   4.379   1.219 -0.3313  0.2340 -0.6720
  772TIP3   OH223950   5.298   5.357   1.539  0.3402 -0.1444 -0.5737
  772TIP3    H123951   5.257   5.442   1.524  0.0954 -0.1316  0.1646
  772TIP3    H223952   5.234   5.293   1.506  0.3992 -0.0622 -0.8549
  773TIP3   OH223953   1.637   4.136   8.105  0.6008 -0.4757  0.0268
  773TIP3    H123954   1.698   4.210   8.111  1.0252 -0.7071 -1.2897
  773TIP3    H223955   1.649   4.089   8.187 -1.0383  1.9056  1.8177
  774TIP3   OH223956   1.271   4.705   0.209 -0.0352 -0.5512 -0.0129
  774TIP3    H123957   1.312   4.768   0.150 -0.1675  1.3799  1.8480
  774TIP3    H223958   1.345   4.657   0.247  0.2210 -0.0482  0.1329
  775TIP3   OH223959   5.716   2.689   0.972 -0.0744  0.3560 -0.1975
  775TIP3    H123960   5.697   2.735   0.890  0.1717 -1.1350 -1.1174
  775TIP3    H223961   5.705   2.596   0.951 -1.8492  0.0115  1.9616
  776TIP3   OH223962   6.451   1.444   1.945 -0.3262 -0.4353 -0.2953
  776TIP3    H123963   6.474   1.387   1.871  2.3287 -0.0312  0.0931
  776TIP3    H223964   6.491   1.528   1.923  0.8142 -0.3944  1.6839
  777TIP3   OH223965   1.093   1.698   2.198 -0.3107  0.4642 -0.1420
  777TIP3    H123966   1.086   1.630   2.131 -0.8796 -1.1693  1.4813
  777TIP3    H223967   1.148   1.765   2.158  0.8141 -1.2304 -1.6050
  778TIP3   OH223968   5.787   5.729   7.409 -0.0900 -0.1738 -0.1155
  778TIP3    H123969   5.836   5.706   7.330 -0.4938  1.0013 -0.7370
  778TIP3    H223970   5.695   5.727   7.382 -0.4783 -2.5763  1.0941
  779TIP3   OH223971   6.968   6.096   1.868 -0.3560  0.1211  0.2790
  779TIP3    H123972   6.986   6.190   1.877  0.5892 -0.0599  0.4426
  779TIP3    H223973   7.008   6.072   1.785  3.5787 -1.0008  2.2290
  780TIP3   OH223974   6.523   6.989   2.545  0.2726 -0.2082  0.4074
  780TIP3    H123975   6.516   7.035   2.461 -0.3626 -2.0242 -0.5831
  780TIP3    H223976   6.447   7.020   2.595  0.3012  0.4169  0.0854
  781TIP3   OH223977   2.220   1.476   1.628 -0.4926 -0.2227  0.3569
  781TIP3    H123978   2.272   1.428   1.564  0.2379  0.9149  0.0615
  781TIP3    H223979   2.217   1.419   1.705 -0.1621 -0.9798 -0.1805
  782TIP3   OH223980   2.766   2.304   2.046  0.0084 -0.2423  0.3081
  782TIP3    H123981   2.855   2.292   2.012 -0.2044 -0.1095 -0.3253
  782TIP3    H223982   2.710   2.283   1.971 -0.4820  0.0313  0.5944
  783TIP3   OH223983   0.240   2.581   1.634  0.5463  0.2563  0.0259
  783TIP3    H123984   0.264   2.489   1.640  1.0155  0.4165  0.5804
  783TIP3    H223985   0.252   2.602   1.541  0.8891 -0.1152 -0.0170
  784TIP3   OH223986   5.820   4.441   1.376 -0.5186 -0.2109  0.6008
  784TIP3    H123987   5.770   4.489   1.441  0.1834  1.5542 -0.1031
  784TIP3    H223988   5.911   4.469   1.391 -0.6362  3.0288 -3.2252
  785TIP3   OH223989   2.355   2.048   8.210 -0.1194 -0.2168 -0.0955
  785TIP3    H123990   2.406   2.128   8.212  0.1689 -0.4016  0.0583
  785TIP3    H223991   2.327   2.034   8.301 -0.6959  0.0404 -0.2260
  786TIP3   OH223992   4.471   4.886   2.643 -0.4557 -0.0393 -0.4457
  786TIP3    H123993   4.536   4.940   2.688 -1.1588 -0.4209  1.0624
  786TIP3    H223994   4.469   4.922   2.554  1.6198  0.1418 -0.4768
  787TIP3   OH223995   5.960   4.924   1.057 -0.4496  0.2478 -0.7802
  787TIP3    H123996   5.937   4.876   0.978  1.2695 -0.2815 -0.9993
  787TIP3    H223997   5.997   4.858   1.116  0.4223  1.0122 -0.4398
  788TIP3   OH223998   3.382   5.846   7.811  0.4312  0.2233 -0.0362
  788TIP3    H123999   3.431   5.884   7.737  0.3200 -1.0056 -0.7722
  788TIP3    H224000   3.417   5.758   7.820  0.9371  0.5903  1.8755
  789TIP3   OH224001   2.013   6.139   0.562 -0.4596 -0.0822  0.1127
  789TIP3    H124002   1.938   6.102   0.515  0.7152  0.2850 -2.2142
  789TIP3    H224003   2.016   6.090   0.644 -1.0902 -2.6920 -1.2809
  790TIP3   OH224004   4.450   5.652   1.954 -0.2624  0.5781 -0.1546
  790TIP3    H124005   4.497   5.621   2.031  0.7981 -0.5435 -1.2127
  790TIP3    H224006   4.499   5.616   1.880 -1.5504  1.1959 -1.3457
  791TIP3   OH224007   0.590   4.508   2.749 -0.2857 -0.2478  0.3708
  791TIP3    H124008   0.500   4.538   2.741 -0.9241 -1.1257  3.2207
  791TIP3    H224009   0.584   4.413   2.756  0.9151 -0.3546  0.2619
  792TIP3   OH224010   3.634   2.213   7.467  0.0642  0.3047 -0.1466
  792TIP3    H124011   3.626   2.189   7.374  1.6028  1.8462 -0.7220
  792TIP3    H224012   3.724   2.242   7.477 -0.6328  2.1509  1.3435
  793TIP3   OH224013   6.934   3.699   1.622 -0.1663  0.5870  0.3052
  793TIP3    H124014   6.971   3.620   1.583 -0.6945  1.2237 -1.5688
  793TIP3    H224015   6.865   3.667   1.679  0.5539 -0.3672  0.6786
  794TIP3   OH224016   3.143   2.274   8.213 -0.4462  0.9184 -0.9805
  794TIP3    H124017   3.172   2.238   8.296 -2.0371  0.9075 -0.4008
  794TIP3    H224018   3.100   2.200   8.169 -1.5791  1.4742 -0.8315
  795TIP3   OH224019   4.735   3.220   2.006  0.4145 -0.4948  0.2994
  795TIP3    H124020   4.684   3.296   2.032 -1.3395 -1.3805 -0.3634
  795TIP3    H224021   4.783   3.247   1.928  0.4612  0.1568  0.5532
  796TIP3   OH224022   0.918   6.002   1.263  0.2154 -0.3430 -0.5860
  796TIP3    H124023   0.966   5.926   1.232 -0.3197 -1.4099  1.0515
  796TIP3    H224024   0.833   5.967   1.290  0.3772  0.5689  1.3202
  797TIP3   OH224025   0.679   6.971   1.865 -0.0373 -0.2595 -0.8130
  797TIP3    H124026   0.608   6.952   1.926 -0.9505  2.0117 -1.0694
  797TIP3    H224027   0.651   7.049   1.818  0.6003 -1.8869 -4.2496
  798TIP3   OH224028   5.675   6.487   2.246  0.2259 -0.4979  0.3752
  798TIP3    H124029   5.657   6.576   2.277 -1.9424 -0.4224 -0.8830
  798TIP3    H224030   5.770   6.481   2.245  0.5889  2.8079 -2.0400
  799TIP3   OH224031   1.964   0.664   3.080  0.4429 -0.1452  0.2870
  799TIP3    H124032   1.966   0.570   3.064  0.5163 -0.3015  1.1944
  799TIP3    H224033   2.045   0.682   3.128  1.1630  0.6280 -1.1192
  800TIP3   OH224034   6.977   6.436   0.212 -0.0820  0.0931 -1.1611
  800TIP3    H124035   6.890   6.404   0.236  0.0568 -0.0313 -0.8118
  800TIP3    H224036   6.967   6.467   0.122 -0.1024 -1.3820 -1.6924
  801TIP3   OH224037   6.884   6.439   0.813 -0.0902  0.1041 -0.2736
  801TIP3    H124038   6.846   6.470   0.895  0.2462 -2.6428  1.0353
  801TIP3    H224039   6.976   6.467   0.818 -0.0974  0.0547  0.2447
  802TIP3   OH224040   2.221   2.264   8.030  0.2952  0.4565  0.4258
  802TIP3    H124041   2.312   2.260   8.057  0.3549 -2.6572  0.1655
  802TIP3    H224042   2.199   2.173   8.007 -2.4919  1.3214 -0.7664
  803TIP3   OH224043   3.813   3.306   0.042  0.0051  0.1183  0.0048
  803TIP3    H124044   3.736   3.334   0.090 -0.4504  0.3273 -0.8209
  803TIP3    H224045   3.791   3.323  -0.050  1.6273  1.7467 -0.1585
  804TIP3   OH224046   3.793   5.690   2.060 -0.1492  0.4859  0.6477
  804TIP3    H124047   3.781   5.756   1.991 -0.0756  1.5374  1.6066
  804TIP3    H224048   3.704   5.675   2.094 -0.4750 -1.4351 -0.8759
  805TIP3   OH224049   1.953   6.229   1.476  0.2417  0.1806 -0.1740
  805TIP3    H124050   1.884   6.231   1.410  0.9105 -0.0210 -0.9008
  805TIP3    H224051   1.977   6.321   1.488 -0.7513  0.3354  0.7448
  806TIP3   OH224052   3.278   1.615   7.236  0.8582 -0.4511  0.5824
  806TIP3    H124053   3.207   1.592   7.176  1.3849  0.4796 -0.4187
  806TIP3    H224054   3.358   1.587   7.192  1.3342  1.1822  0.3572
  807TIP3   OH224055   1.756   3.133   0.686  1.1589 -0.3691 -0.2003
  807TIP3    H124056   1.818   3.159   0.618 -1.1235 -1.3775 -2.8992
  807TIP3    H224057   1.782   3.044   0.710  0.9200 -0.7182 -1.1774
  808TIP3   OH224058   5.945   4.793   0.529 -0.5907 -0.0973 -0.3206
  808TIP3    H124059   5.958   4.846   0.451 -0.1233 -0.3292 -0.4044
  808TIP3    H224060   5.951   4.703   0.498  0.9215 -0.1969  0.1813
  809TIP3   OH224061   1.429   0.369   7.140  0.6544  0.2730  0.2242
  809TIP3    H124062   1.438   0.286   7.187  0.1659 -0.1661 -0.4385
  809TIP3    H224063   1.427   0.436   7.208 -1.0476 -0.4239  0.9021
  810TIP3   OH224064   1.137   4.675   1.842  0.3117  0.4740  0.6823
  810TIP3    H124065   1.187   4.632   1.912 -0.3628 -1.4024  0.0650
  810TIP3    H224066   1.080   4.607   1.808  0.5115  1.3727 -1.6370
  811TIP3   OH224067   5.989   1.758   1.657 -0.2488  0.3669 -0.5799
  811TIP3    H124068   5.927   1.831   1.663 -0.2646  0.2801  0.5353
  811TIP3    H224069   5.935   1.683   1.630 -0.9569 -0.0439  1.7909
  812TIP3   OH224070   5.639   4.503   2.816  0.0953 -0.3184  0.6023
  812TIP3    H124071   5.638   4.475   2.724 -2.9063  0.4242  0.3062
  812TIP3    H224072   5.661   4.424   2.865  0.7941 -0.9576 -0.6966
  813TIP3   OH224073   4.491   5.243   1.201 -0.6260  0.6022 -0.6441
  813TIP3    H124074   4.478   5.229   1.295  0.5107  0.0731 -0.5508
  813TIP3    H224075   4.471   5.336   1.188 -2.8506  0.2425 -0.2790
  814TIP3   OH224076   1.326   1.948   2.888 -0.1471  0.2924 -0.1071
  814TIP3    H124077   1.233   1.950   2.910  0.0998  1.8583  0.9855
  814TIP3    H224078   1.370   1.970   2.970  1.0899  1.2408 -0.9817
  815TIP3   OH224079   3.236   1.433   2.489  0.0633  0.1718  0.2175
  815TIP3    H124080   3.193   1.476   2.414 -0.7223 -1.3957 -0.2807
  815TIP3    H224081   3.177   1.361   2.511  2.1268 -1.6916 -0.0774
  816TIP3   OH224082   3.864   1.126   2.636  0.1017  0.6314  0.1752
  816TIP3    H124083   3.828   1.062   2.697 -0.3769  1.7819  1.1468
  816TIP3    H224084   3.787   1.176   2.606 -0.1516 -1.6196 -3.5889
  817TIP3   OH224085   4.138   3.996   2.521 -0.3423 -0.2467 -0.2156
  817TIP3    H124086   4.156   3.934   2.450 -1.1913 -1.7419  0.8276
  817TIP3    H224087   4.053   3.969   2.555  0.1278  0.3391  1.4885
  818TIP3   OH224088   0.222   2.392   0.195  0.2628 -0.0177 -1.2569
  818TIP3    H124089   0.225   2.487   0.180  0.3688  0.1407 -0.3174
  818TIP3    H224090   0.294   2.376   0.256  0.3571 -0.7348 -1.5567
  819TIP3   OH224091   6.348   5.434   1.211  0.8740 -0.0368 -0.3586
  819TIP3    H124092   6.309   5.508   1.165 -1.1394 -0.2551  0.8824
  819TIP3    H224093   6.439   5.433   1.180  0.6754  2.2171 -1.2856
  820TIP3   OH224094   4.489   4.466   2.241  0.0497 -0.0843  0.4555
  820TIP3    H124095   4.502   4.560   2.233  0.7969 -0.1825  0.4227
  820TIP3    H224096   4.446   4.455   2.325 -0.3218  0.3052  0.3227
  821TIP3   OH224097   5.022   2.396   2.112  0.5215  0.7531  0.6472
  821TIP3    H124098   4.984   2.342   2.042  1.3166 -0.7462  1.3165
  821TIP3    H224099   4.993   2.485   2.092  1.6090  0.5735 -2.2372
  822TIP3   OH224100   0.342   4.657   0.132  0.1692 -0.1944  0.1950
  822TIP3    H124101   0.294   4.668   0.214  0.7699 -2.5294  0.9200
  822TIP3    H224102   0.290   4.594   0.082 -0.1316  1.1098 -1.2391
  823TIP3   OH224103   3.025   0.309   1.088  0.0474  0.6305 -0.5422
  823TIP3    H124104   3.019   0.216   1.067 -0.5153  0.3444  0.8228
  823TIP3    H224105   3.118   0.331   1.077 -0.0245  0.2379 -2.1253
  824TIP3   OH224106   4.490   3.472   1.771 -0.1634  0.0288 -0.0626
  824TIP3    H124107   4.501   3.567   1.773 -1.1253  0.1663 -0.7510
  824TIP3    H224108   4.505   3.444   1.861 -1.8938  1.0952  0.6031
  825TIP3   OH224109   6.467   1.728   0.255 -0.6095 -0.1564  0.1256
  825TIP3    H124110   6.494   1.793   0.190 -0.6672 -1.0724 -0.8219
  825TIP3    H224111   6.384   1.762   0.289  0.3454  1.2916  1.1144
  826TIP3   OH224112   0.338   5.939   0.810 -0.1701  0.2085  0.1489
  826TIP3    H124113   0.428   5.966   0.821  0.0224 -0.9043  1.5869
  826TIP3    H224114   0.337   5.892   0.726  0.8951 -0.8717  0.7120
  827TIP3   OH224115   6.112   3.469   2.258 -0.1311 -0.0974 -0.0975
  827TIP3    H124116   6.082   3.448   2.170 -1.6586 -0.5861  0.5186
  827TIP3    H224117   6.062   3.547   2.283 -1.3213 -1.2050  1.1269
  828TIP3   OH224118   4.358   1.623   7.754  0.1832  0.0623 -0.3903
  828TIP3    H124119   4.346   1.678   7.677 -0.8183 -0.7000 -0.7939
  828TIP3    H224120   4.341   1.682   7.828  0.7617  0.6960 -0.7464
  829TIP3   OH224121   5.704   4.156   8.145 -0.3644 -0.0330 -0.1529
  829TIP3    H124122   5.784   4.143   8.197 -0.3281  1.7621  0.2990
  829TIP3    H224123   5.702   4.080   8.087  1.9896  0.1121 -0.5572
  830TIP3   OH224124   4.430   5.300   2.246  0.8015 -0.3855 -0.2089
  830TIP3    H124125   4.382   5.361   2.190  0.0172 -1.1645 -0.4057
  830TIP3    H224126   4.370   5.283   2.319  0.5683 -1.7603 -0.7109
  831TIP3   OH224127   0.849   5.668   0.163 -0.1237 -0.6434 -0.2362
  831TIP3    H124128   0.827   5.755   0.130  2.1590 -0.4145 -1.4204
  831TIP3    H224129   0.766   5.630   0.189 -1.1652  1.9965  0.6289
  832TIP3   OH224130   4.149   1.131   2.681 -0.2972 -0.0503  0.5196
  832TIP3    H124131   4.182   1.220   2.670  0.5704  0.1487  3.7110
  832TIP3    H224132   4.054   1.140   2.674 -0.1050  0.5481 -2.0966
  833TIP3   OH224133   0.288   3.899   7.812  0.4504 -0.1884  0.5275
  833TIP3    H124134   0.229   3.932   7.744  0.9698 -0.4122 -0.0364
  833TIP3    H224135   0.312   3.811   7.783  0.5890 -0.3357  1.0642
  834TIP3   OH224136   3.396   6.570   3.478 -0.2828 -0.6553  0.2035
  834TIP3    H124137   3.487   6.585   3.506 -0.0458  0.3501 -1.0121
  834TIP3    H224138   3.364   6.502   3.537  0.9127 -0.2600  1.3647
  835TIP3   OH224139   0.265   0.642   8.087  0.9046  0.6771 -0.3898
  835TIP3    H124140   0.351   0.676   8.110  1.6055 -0.2932 -1.4904
  835TIP3    H224141   0.277   0.547   8.082 -0.7175  0.2917  1.4576
  836TIP3   OH224142   2.609   4.252   2.197  0.5072  0.3071 -0.1349
  836TIP3    H124143   2.644   4.251   2.286  2.3208  0.8623 -0.7796
  836TIP3    H224144   2.571   4.339   2.186  0.6736  0.3943 -0.0231
  837TIP3   OH224145   1.431   6.679   7.872 -0.1366  0.1810  0.0445
  837TIP3    H124146   1.511   6.696   7.822 -0.6535  2.5448 -0.1064
  837TIP3    H224147   1.458   6.687   7.964  0.1910 -1.1941  0.1006
  838TIP3   OH224148   4.598   0.979   0.994  0.3525 -0.3508  0.2310
  838TIP3    H124149   4.681   1.010   0.958 -0.3198  1.5580  0.1919
  838TIP3    H224150   4.533   1.000   0.926 -0.1291 -2.3016  0.0245
  839TIP3   OH224151   0.058   0.550   0.764  0.2937 -0.1225  0.4420
  839TIP3    H124152   0.149   0.572   0.742  0.0638  1.6326  1.0588
  839TIP3    H224153   0.026   0.627   0.812 -1.0614 -1.3270  1.5519
  840TIP3   OH224154   4.041   6.222   2.955  0.2647  0.7059  0.6457
  840TIP3    H124155   4.013   6.151   3.014 -2.1194  0.5023 -0.5793
  840TIP3    H224156   4.088   6.178   2.885 -2.5786 -0.0522 -0.9639
  841TIP3   OH224157   6.505   1.287   1.713 -0.0955 -0.2787  0.0468
  841TIP3    H124158   6.481   1.358   1.653 -1.9432 -0.7707  0.1338
  841TIP3    H224159   6.599   1.297   1.726  0.0859  0.7572 -1.7346
  842TIP3   OH224160   3.524   6.875   2.685  0.4878 -0.0412  0.5867
  842TIP3    H124161   3.604   6.927   2.679 -1.0059  2.3536  0.1530
  842TIP3    H224162   3.468   6.924   2.745 -1.1236 -0.9797 -0.0861
  843TIP3   OH224163   0.993   5.603   2.340 -0.0856  0.0804 -0.5310
  843TIP3    H124164   1.066   5.608   2.402 -0.3678  0.5976 -0.2376
  843TIP3    H224165   1.005   5.677   2.281 -1.5470  1.4769  0.8333
  844TIP3   OH224166   6.441   5.035   1.560 -0.2337  0.1781 -0.5743
  844TIP3    H124167   6.443   5.130   1.564 -1.3891  0.2563 -1.2939
  844TIP3    H224168   6.415   5.016   1.469  0.1242 -0.8168 -0.4762
  845TIP3   OH224169   5.977   2.267   1.235  0.3764  0.2991 -0.0734
  845TIP3    H124170   5.883   2.249   1.238  0.3952  0.1695 -0.2823
  845TIP3    H224171   5.994   2.317   1.316  0.1267  0.3404 -0.0444
  846TIP3   OH224172   1.506   2.740   1.600 -0.8956 -0.3042  0.2531
  846TIP3    H124173   1.503   2.766   1.692  2.0555 -0.9739  0.6404
  846TIP3    H224174   1.541   2.650   1.602  0.8785  0.2716 -1.5435
  847TIP3   OH224175   1.805   5.231   1.733  0.5841  0.0127 -0.3509
  847TIP3    H124176   1.873   5.176   1.694  1.9771  0.2455  1.6323
  847TIP3    H224177   1.747   5.170   1.777  1.0474 -0.0224  0.2240
  848TIP3   OH224178   3.582   6.668   0.239 -0.4651 -0.1137  0.1588
  848TIP3    H124179   3.534   6.659   0.321  0.7018  0.6484  0.9558
  848TIP3    H224180   3.541   6.742   0.194 -0.1584  0.4281  0.7563
  849TIP3   OH224181   0.499   6.838   0.058  0.1817 -0.5417 -0.2851
  849TIP3    H124182   0.524   6.922   0.097  1.8351 -1.1363  0.0197
  849TIP3    H224183   0.456   6.862  -0.024 -0.6187  0.6339  0.4427
  850TIP3   OH224184   0.134   0.280   0.703  0.8336 -0.0416  0.4351
  850TIP3    H124185   0.114   0.335   0.628  0.4678 -0.1169  0.4779
  850TIP3    H224186   0.057   0.224   0.714  1.1976 -0.5596  0.3921
  851TIP3   OH224187   6.625   6.218   2.883 -0.9095 -0.2034  0.3899
  851TIP3    H124188   6.720   6.225   2.896 -0.9142 -0.7798  0.7384
  851TIP3    H224189   6.615   6.152   2.814 -0.9309  2.0347 -1.9163
  852TIP3   OH224190   6.371   5.114   7.611 -0.1322 -0.5759 -1.1230
  852TIP3    H124191   6.311   5.188   7.623 -0.5762 -1.2642  1.9569
  852TIP3    H224192   6.423   5.136   7.534 -0.1323  3.0497 -0.2434
  853TIP3   OH224193   5.151   3.327   3.222  0.1681  0.7578 -0.1052
  853TIP3    H124194   5.137   3.422   3.222 -0.3323  0.6872  0.1853
  853TIP3    H224195   5.245   3.317   3.209  0.4702  1.3356  1.4536
  854TIP3   OH224196   1.769   5.073   1.483 -0.0058 -0.0732  0.6043
  854TIP3    H124197   1.862   5.050   1.490 -0.3954 -1.7012  0.7858
  854TIP3    H224198   1.726   5.020   1.551 -1.2250 -0.3702 -0.3708
  855TIP3   OH224199   1.487   4.405   2.850  0.0933  0.5303  0.2193
  855TIP3    H124200   1.580   4.394   2.831 -0.0910  0.1205 -0.4707
  855TIP3    H224201   1.484   4.424   2.944  1.0396  2.7733 -0.1479
  856TIP3   OH224202   2.550   4.552   1.189  0.2143 -0.6223 -0.1817
  856TIP3    H124203   2.618   4.588   1.133  0.7464 -1.4376 -0.0666
  856TIP3    H224204   2.508   4.630   1.227 -0.4599 -0.0334 -2.0117
  857TIP3   OH224205   6.538   4.828   0.273  0.2164  0.4970 -0.4529
  857TIP3    H124206   6.559   4.821   0.180 -2.4266 -1.0729 -1.0257
  857TIP3    H224207   6.554   4.920   0.294  1.2492  0.7999 -2.3386
  858TIP3   OH224208   1.832   3.622   6.922  0.0363 -0.0089  0.1576
  858TIP3    H124209   1.827   3.708   6.882  1.1105  0.5101  1.0950
  858TIP3    H224210   1.863   3.565   6.851  0.4925  0.6041 -0.1474
  859TIP3   OH224211   6.192   5.521   2.239  0.0012  0.1253 -0.3081
  859TIP3    H124212   6.272   5.568   2.261  0.4232 -0.3538 -0.7951
  859TIP3    H224213   6.130   5.547   2.308  0.6259  0.3586  0.1821
  860TIP3   OH224214   1.103   0.625   0.393  0.1346 -0.3575  0.5072
  860TIP3    H124215   1.165   0.608   0.463  0.6608 -0.6625 -0.0242
  860TIP3    H224216   1.026   0.574   0.416  0.8477 -1.6534  0.1096
  861TIP3   OH224217   2.874   4.100   2.148  0.0229  0.4636 -0.1815
  861TIP3    H124218   2.916   4.152   2.079 -0.3149  1.9776  0.7029
  861TIP3    H224219   2.781   4.117   2.138 -0.1545 -0.5225 -0.2847
  862TIP3   OH224220   4.836   4.306   2.314 -0.0768  0.5338  0.2488
  862TIP3    H124221   4.765   4.242   2.313  0.9298 -0.6706 -1.7802
  862TIP3    H224222   4.909   4.260   2.358  1.1744 -0.4771 -2.6391
  863TIP3   OH224223   5.753   0.487   0.472  0.4062 -0.0840  0.1260
  863TIP3    H124224   5.746   0.392   0.467  0.8129 -0.2124  1.6863
  863TIP3    H224225   5.705   0.519   0.395 -0.6976 -1.4949  0.2062
  864TIP3   OH224226   2.555   3.202   1.186 -0.3968  0.3985 -0.5965
  864TIP3    H124227   2.515   3.224   1.270 -0.1520  1.5081 -0.7573
  864TIP3    H224228   2.490   3.147   1.143 -0.7007  0.1557  0.1435
  865TIP3   OH224229   2.885   3.499   7.660  0.0934  0.5754  0.4235
  865TIP3    H124230   2.814   3.442   7.631  0.3275  1.4654 -2.1952
  865TIP3    H224231   2.842   3.581   7.685  0.0212  0.3077  1.2036
  866TIP3   OH224232   5.576   4.542   0.838  0.3484 -0.4909  0.3416
  866TIP3    H124233   5.648   4.576   0.784  0.6027 -1.1041  0.2864
  866TIP3    H224234   5.620   4.497   0.910  0.0117 -0.1657  0.7495
  867TIP3   OH224235   4.247   4.620   3.062  0.6344  0.2006  0.4231
  867TIP3    H124236   4.307   4.657   2.998  1.3890 -1.5425  0.0500
  867TIP3    H224237   4.304   4.590   3.133  0.0181  0.1390  0.9014
  868TIP3   OH224238   3.321   4.334   2.390  0.0980  1.2536  0.0524
  868TIP3    H124239   3.351   4.409   2.441  0.5659 -0.8067  3.0379
  868TIP3    H224240   3.225   4.344   2.387  0.2252  2.5256 -0.6397
  869TIP3   OH224241   0.068   1.165   0.361  0.3171 -0.1409 -0.0762
  869TIP3    H124242   0.075   1.079   0.321 -1.6541 -0.0098 -0.8291
  869TIP3    H224243   0.013   1.152   0.439  1.3923  0.1769  0.7690
  870TIP3   OH224244   0.350   1.360   0.588 -0.5265 -0.3439 -0.3735
  870TIP3    H124245   0.384   1.449   0.577 -0.6565  0.0210  1.7291
  870TIP3    H224246   0.256   1.372   0.601 -0.3964 -0.6194  1.0889
  871TIP3   OH224247   4.822   2.765   0.654  0.2106  0.1924 -0.3089
  871TIP3    H124248   4.901   2.792   0.701  0.2298 -1.1826  0.5055
  871TIP3    H224249   4.754   2.762   0.721  0.4793 -2.8599 -0.0304
  872TIP3   OH224250   2.419   3.668   1.316  0.3650  0.3734 -0.0969
  872TIP3    H124251   2.466   3.750   1.304  0.5854  0.3260  0.4110
  872TIP3    H224252   2.432   3.646   1.409 -0.1989  0.0799 -0.0829
  873TIP3   OH224253   4.163   3.875   8.007  0.1490 -0.4386  0.6278
  873TIP3    H124254   4.256   3.896   8.019  0.2927  1.2391 -2.4138
  873TIP3    H224255   4.119   3.920   8.079  1.5708 -0.1452  1.3534
  874TIP3   OH224256   2.189   0.250   0.090 -0.1475  0.3780  0.6009
  874TIP3    H124257   2.252   0.213   0.029 -0.7565  0.7369 -0.2705
  874TIP3    H224258   2.226   0.232   0.177  0.2438 -1.0295  0.1731
  875TIP3   OH224259   6.971   5.033   1.723 -0.6051 -0.1139  0.0617
  875TIP3    H124260   7.035   4.972   1.759 -0.8114  0.7207  1.9204
  875TIP3    H224261   6.892   4.980   1.711 -0.4477 -0.4763  0.5809
  876TIP3   OH224262   1.230   6.580   1.634 -0.1176  0.1530 -0.5474
  876TIP3    H124263   1.257   6.502   1.587  1.2092 -0.2870  0.8677
  876TIP3    H224264   1.198   6.548   1.719  0.3402  1.1136  0.0107
  877TIP3   OH224265   1.966   4.377   0.824  0.2823  0.0479  0.5834
  877TIP3    H124266   2.060   4.382   0.810  0.2376  0.0791  0.3042
  877TIP3    H224267   1.949   4.286   0.849  0.1387 -0.4164 -1.1213
  878TIP3   OH224268   1.003   6.642   1.427  0.2231 -0.1703 -0.6589
  878TIP3    H124269   0.997   6.719   1.370 -0.2864 -0.9781 -1.7211
  878TIP3    H224270   1.078   6.593   1.395  0.5012 -0.1694 -0.0338
  879TIP3   OH224271   5.693   2.138   2.589  0.4523  0.0426 -0.2914
  879TIP3    H124272   5.636   2.061   2.580  0.1438  0.0071  1.6112
  879TIP3    H224273   5.632   2.210   2.607  0.9356  0.1747  0.8557
  880TIP3   OH224274   4.787   0.624   7.732  0.2919  0.0962 -0.7427
  880TIP3    H124275   4.797   0.583   7.646 -1.6905 -1.4725 -0.2852
  880TIP3    H224276   4.699   0.661   7.731  1.0556  2.0380 -0.1398
  881TIP3   OH224277   3.676   1.188   2.408  0.5683 -0.3102  0.2095
  881TIP3    H124278   3.609   1.124   2.433 -0.2546  0.5120  0.1508
  881TIP3    H224279   3.640   1.231   2.330  1.6068 -0.5266 -0.4076
  882TIP3   OH224280   4.392   4.431   2.501  0.2885  0.2934 -0.5591
  882TIP3    H124281   4.340   4.511   2.502  0.0380  0.2784  3.2306
  882TIP3    H224282   4.460   4.446   2.568  0.0273 -2.7097  0.5392
  883TIP3   OH224283   0.872   3.722   8.162  0.2829 -0.0990 -0.3957
  883TIP3    H124284   0.805   3.674   8.115  0.7162 -1.0727 -0.0443
  883TIP3    H224285   0.843   3.721   8.254 -1.1714  2.7950 -0.6937
  884TIP3   OH224286   2.374   2.319   2.453  0.1905 -0.2363 -0.6151
  884TIP3    H124287   2.284   2.318   2.419  0.5240  0.8160 -1.6169
  884TIP3    H224288   2.425   2.271   2.387  0.1336 -2.3512  0.7908
  885TIP3   OH224289   6.538   5.612   2.080 -0.2655 -0.5085  0.3199
  885TIP3    H124290   6.626   5.595   2.048 -0.8447  0.3612 -1.8908
  885TIP3    H224291   6.551   5.644   2.170  1.7764  0.8420 -0.3851
  886TIP3   OH224292   1.154   1.775   3.038 -0.2755 -0.1011 -0.1852
  886TIP3    H124293   1.106   1.858   3.029 -0.9587 -0.5621 -0.9479
  886TIP3    H224294   1.217   1.792   3.108 -1.3630  0.6214  0.6645
  887TIP3   OH224295   6.955   6.615   1.908  0.1117 -0.2543  0.2107
  887TIP3    H124296   6.885   6.668   1.869  0.2831  0.7896  1.2390
  887TIP3    H224297   7.007   6.678   1.958  1.2338 -1.1699  0.2369
  888TIP3   OH224298   4.026   6.809   1.690 -0.1011 -0.2453  0.3450
  888TIP3    H124299   4.113   6.770   1.677 -0.2857 -1.3120  2.0632
  888TIP3    H224300   3.978   6.744   1.740 -2.2299 -0.0668 -1.3319
  889TIP3   OH224301   0.837   1.210   2.521 -0.6665 -0.0897 -0.0007
  889TIP3    H124302   0.781   1.279   2.556 -1.2785  0.1108 -1.3272
  889TIP3    H224303   0.895   1.186   2.594 -2.2868 -0.1177  1.3308
  890TIP3   OH224304   4.549   0.025   0.440 -0.2860  0.3748 -0.5649
  890TIP3    H124305   4.537   0.087   0.512 -0.7559  0.0001 -0.3130
  890TIP3    H224306   4.636  -0.011   0.453  0.1119  1.1928 -0.8833
  891TIP3   OH224307   4.330   3.696   1.910  0.0614  0.4462 -0.5518
  891TIP3    H124308   4.280   3.768   1.873 -1.4203 -0.2324  0.0372
  891TIP3    H224309   4.266   3.626   1.923  1.3739 -0.8516 -0.7441
  892TIP3   OH224310   2.750   6.234   2.128  0.5613  0.0331 -0.2430
  892TIP3    H124311   2.746   6.275   2.041  2.6369 -1.2695 -1.0175
  892TIP3    H224312   2.687   6.162   2.124 -0.3307  0.7869 -0.1668
  893TIP3   OH224313   3.608   3.196   0.902  0.2487 -0.0642  0.0676
  893TIP3    H124314   3.546   3.124   0.901 -0.6600  0.6891  0.4388
  893TIP3    H224315   3.604   3.230   0.992 -0.0805  1.0547 -0.3541
  894TIP3   OH224316   1.885   3.043   2.992  0.0102  0.4047  0.7939
  894TIP3    H124317   1.816   2.998   2.943  1.5801 -0.3576 -0.8044
  894TIP3    H224318   1.939   2.972   3.028  1.2298  0.9784  0.1411
  895TIP3   OH224319   3.466   1.315   2.924 -0.0380  0.1773 -0.3121
  895TIP3    H124320   3.387   1.357   2.959 -0.2814  0.8346 -1.5973
  895TIP3    H224321   3.497   1.260   2.996 -1.2728  0.4370  0.4592
  896TIP3   OH224322   5.753   2.646   0.442  0.1222 -0.6531 -0.0923
  896TIP3    H124323   5.717   2.611   0.360  0.9956 -0.9989 -0.3392
  896TIP3    H224324   5.676   2.669   0.494 -0.4475 -0.2059 -1.1030
  897TIP3   OH224325   6.602   5.980   0.239 -0.7360  0.3840  0.0480
  897TIP3    H124326   6.544   6.049   0.206  0.4175  1.6244  0.4799
  897TIP3    H224327   6.552   5.899   0.229 -2.1781  1.2885 -0.4022
  898TIP3   OH224328   1.703   5.136   2.858 -0.2548 -0.0721 -0.0219
  898TIP3    H124329   1.668   5.097   2.938  0.1025 -0.2404  0.0547
  898TIP3    H224330   1.638   5.114   2.790  0.4524 -1.7395 -0.2027
  899TIP3   OH224331   6.197   3.396   1.670  0.2298  0.1445  0.0377
  899TIP3    H124332   6.262   3.331   1.696 -0.5420 -0.0860  1.5471
  899TIP3    H224333   6.162   3.365   1.587  1.5692 -0.0706 -0.4593
  900TIP3   OH224334   5.024   2.138   0.429  0.4650 -0.4708 -0.6645
  900TIP3    H124335   4.977   2.114   0.348  0.8502 -0.6506 -0.8381
  900TIP3    H224336   5.101   2.186   0.398 -0.4791  1.3496 -0.3019
  901TIP3   OH224337   1.486   4.050   3.402  0.0309 -0.1934  0.5254
  901TIP3    H124338   1.405   4.047   3.352 -0.4924 -0.1080  1.3427
  901TIP3    H224339   1.535   3.973   3.373  0.3486  0.5638 -1.0718
  902TIP3   OH224340   4.727   5.428   1.487 -0.0498  0.5432 -0.5894
  902TIP3    H124341   4.804   5.452   1.539  0.1383 -0.3412 -0.4499
  902TIP3    H224342   4.763   5.377   1.414 -0.4730  0.4605 -0.7407
  903TIP3   OH224343   1.918   5.549   1.007 -0.3056  0.0949  0.0578
  903TIP3    H124344   1.899   5.638   0.976 -0.8469 -0.2310 -0.5606
  903TIP3    H224345   1.872   5.492   0.946 -2.4349 -0.5471  2.1023
  904TIP3   OH224346   6.389   0.444   0.133 -0.1846  0.3641 -0.6405
  904TIP3    H124347   6.415   0.535   0.122  2.1797 -0.1931 -0.2117
  904TIP3    H224348   6.419   0.400   0.054 -0.9065 -0.1314 -0.6518
  905TIP3   OH224349   0.067   6.455   1.584 -0.0025 -0.6628  0.6168
  905TIP3    H124350   0.077   6.533   1.529  0.3516 -0.6647  0.6754
  905TIP3    H224351   0.029   6.489   1.665  1.6215 -0.2792  1.2614
  906TIP3   OH224352   6.219   2.312   0.500  0.0632  0.2230 -0.1606
  906TIP3    H124353   6.158   2.330   0.428  1.0877  0.1599 -1.0756
  906TIP3    H224354   6.293   2.370   0.483  0.2252  0.3651  0.9818
  907TIP3   OH224355   2.811   2.192   1.273  0.5816  0.0375  0.0568
  907TIP3    H124356   2.820   2.254   1.345 -0.8588  0.6344 -0.2513
  907TIP3    H224357   2.795   2.108   1.316 -0.1601  0.3712  0.4320
  908TIP3   OH224358   1.179   4.859   1.022 -0.2586  0.2609  0.2360
  908TIP3    H124359   1.235   4.937   1.023 -1.3705  1.1486 -1.1704
  908TIP3    H224360   1.106   4.884   0.966 -1.6282 -1.1553  1.3090
  909TIP3   OH224361   4.228   1.654   0.920 -0.1774 -0.1583 -0.5779
  909TIP3    H124362   4.177   1.735   0.926 -0.2820 -0.2855  0.3232
  909TIP3    H224363   4.316   1.682   0.894  0.2959  0.4578  1.5327
  910TIP3   OH224364   1.196   5.938   0.362 -0.1955 -0.1885 -0.6156
  910TIP3    H124365   1.247   5.921   0.282 -1.8683 -1.7052 -1.4347
  910TIP3    H224366   1.159   6.025   0.349 -1.1211 -0.7487 -1.9033
  911TIP3   OH224367   3.249   4.771   1.092 -0.5620 -0.1498 -0.2221
  911TIP3    H124368   3.302   4.691   1.093 -0.9097 -0.3821  0.3972
  911TIP3    H224369   3.273   4.817   1.172  0.5496  0.9961 -1.1744
  912TIP3   OH224370   5.990   1.832   0.465  0.2692 -0.3514  0.3554
  912TIP3    H124371   6.006   1.903   0.402  1.8739 -1.1095 -0.1324
  912TIP3    H224372   5.937   1.873   0.533  0.0696  0.9848 -0.5609
  913TIP3   OH224373   3.014   5.082   1.613 -0.4541  0.3432  0.3223
  913TIP3    H124374   3.024   4.994   1.649 -1.2047 -0.0594 -0.4416
  913TIP3    H224375   3.104   5.112   1.599 -0.1990 -0.9250 -0.9030
  914TIP3   OH224376   2.783   2.781   2.970 -0.3971  0.0690 -0.2183
  914TIP3    H124377   2.867   2.736   2.962  0.8415  2.1682  0.1847
  914TIP3    H224378   2.739   2.768   2.886  0.3324 -1.0354 -0.4381
  915TIP3   OH224379   2.445   0.387   3.017 -0.3543 -0.3566 -0.0086
  915TIP3    H124380   2.434   0.471   2.973 -0.8028 -0.2077  0.3884
  915TIP3    H224381   2.374   0.333   2.983 -0.0982 -0.5675 -0.2225
  916TIP3   OH224382   1.215   6.855   3.540 -0.0963  1.4295  0.0986
  916TIP3    H124383   1.254   6.904   3.613 -0.1056  0.0162  1.1146
  916TIP3    H224384   1.290   6.824   3.489  0.1615 -0.5321  1.5450
  917TIP3   OH224385   5.955   1.016   2.390  0.0353  0.0912  0.0048
  917TIP3    H124386   6.035   1.067   2.372 -0.7019  0.6134 -2.0072
  917TIP3    H224387   5.985   0.925   2.394  0.5608  0.1069 -2.3296
  918TIP3   OH224388   6.248   1.863   8.152  0.5321  0.0144 -0.1605
  918TIP3    H124389   6.255   1.857   8.057  1.0451 -0.4763 -0.0953
  918TIP3    H224390   6.219   1.776   8.179  0.7678  0.0396  0.1691
  919TIP3   OH224391   0.420   0.871   1.492 -0.4828  0.2727 -0.1588
  919TIP3    H124392   0.439   0.964   1.484  0.2178 -0.0190 -2.2647
  919TIP3    H224393   0.504   0.827   1.480 -0.4989 -0.6552  2.3234
  920TIP3   OH224394   0.083   4.099   1.358  0.2253 -0.1525  0.1615
  920TIP3    H124395   0.011   4.132   1.305  0.9866 -0.6398 -1.2322
  920TIP3    H224396   0.120   4.177   1.399 -1.1359  0.0887  0.9975
  921TIP3   OH224397   3.216   6.228   7.505  0.2413  0.0214 -0.2835
  921TIP3    H124398   3.229   6.319   7.480 -1.4974  0.4966  0.4422
  921TIP3    H224399   3.136   6.201   7.460 -0.6434 -0.3631  1.4424
  922TIP3   OH224400   5.086   2.177   2.275 -0.3991  1.2890 -0.3493
  922TIP3    H124401   5.012   2.192   2.334  0.1947  1.3114  0.4079
  922TIP3    H224402   5.074   2.240   2.204 -1.4761  0.8270 -0.6006
  923TIP3   OH224403   4.003   5.968   1.597 -0.0998  0.6221  0.2316
  923TIP3    H124404   3.968   5.898   1.542 -0.0377 -1.0404  2.1762
  923TIP3    H224405   3.925   6.014   1.630 -0.1974  0.6653 -0.0602
  924TIP3   OH224406   1.840   1.685   2.651  0.2481 -0.0179  0.3863
  924TIP3    H124407   1.815   1.598   2.618 -0.5507  0.0966  0.6565
  924TIP3    H224408   1.897   1.666   2.726 -0.5270 -0.3364  0.9095
  925TIP3   OH224409   2.982   7.022   3.537 -0.4513  0.1066  0.7591
  925TIP3    H124410   3.053   6.957   3.537 -0.7924 -0.2743  1.1454
  925TIP3    H224411   3.027   7.106   3.534 -0.0098 -0.1466 -0.4336
  926TIP3   OH224412   0.185   2.403   1.300 -0.0704 -0.2701 -0.0723
  926TIP3    H124413   0.206   2.400   1.207 -0.5280 -1.5104 -0.1495
  926TIP3    H224414   0.188   2.496   1.322  2.0506 -0.1043 -0.8434
  927TIP3   OH224415   1.331   3.751   1.998  0.2169  0.3278  0.6181
  927TIP3    H124416   1.239   3.768   2.018  0.8135  2.4524  1.9159
  927TIP3    H224417   1.372   3.837   1.999  1.9352 -0.3666 -1.6822
  928TIP3   OH224418   5.500   4.464   1.982  0.3133 -0.1731  0.0633
  928TIP3    H124419   5.594   4.479   1.968  0.3813 -0.9555 -0.3681
  928TIP3    H224420   5.466   4.439   1.896 -0.3759  0.4683  0.1354
  929TIP3   OH224421   1.937   3.237   1.718  0.2237 -0.6029 -0.1085
  929TIP3    H124422   1.995   3.285   1.778 -0.4185 -1.2424  1.0484
  929TIP3    H224423   1.850   3.275   1.733  0.4298  1.1021 -2.6114
  930TIP3   OH224424   0.106   5.274   7.871 -0.3835  0.0591  0.1947
  930TIP3    H124425   0.071   5.268   7.782  2.6313 -0.8363 -1.0668
  930TIP3    H224426   0.099   5.186   7.906  2.5284 -0.8056 -1.0235
  931TIP3   OH224427   5.278   1.574   1.561  0.3387 -0.3896 -0.4390
  931TIP3    H124428   5.308   1.590   1.651  1.5447  0.0821 -0.9094
  931TIP3    H224429   5.342   1.513   1.525  2.4028  2.5748 -2.2834
  932TIP3   OH224430   0.722   1.210   7.479  0.3939 -0.1563 -0.5981
  932TIP3    H124431   0.772   1.292   7.481 -0.9719  0.7122 -0.6778
  932TIP3    H224432   0.634   1.236   7.451 -0.0572 -1.6704 -0.6883
  933TIP3   OH224433   6.177   4.251   7.677  0.1336 -0.2434 -0.3650
  933TIP3    H124434   6.165   4.319   7.610  1.2370  0.0706 -0.2624
  933TIP3    H224435   6.253   4.201   7.647  1.6591  0.9014  1.4292
  934TIP3   OH224436   2.745   0.444   8.149 -0.0404  0.0524  0.1800
  934TIP3    H124437   2.652   0.424   8.143 -0.1318  0.1608  1.1324
  934TIP3    H224438   2.780   0.380   8.211  0.4882  0.1106 -0.0540
  935TIP3   OH224439   4.412   6.178   7.664  0.1348 -0.2048 -0.1061
  935TIP3    H124440   4.367   6.248   7.617  0.1978  0.9146  1.3907
  935TIP3    H224441   4.342   6.123   7.699  0.0768 -0.7480 -1.0421
  936TIP3   OH224442   1.688   1.005   7.372  0.1371  0.1938 -0.3863
  936TIP3    H124443   1.663   1.047   7.289 -1.4108  0.6462  0.2631
  936TIP3    H224444   1.758   0.945   7.348  0.2316  0.8473 -1.8957
  937TIP3   OH224445   0.472   4.272   8.211  0.0176  0.1362  0.1696
  937TIP3    H124446   0.430   4.222   8.140  1.2072  0.9569 -1.1836
  937TIP3    H224447   0.442   4.362   8.197 -1.2373  0.0285  1.9120
  938TIP3   OH224448   4.428   1.709   8.249  0.2420 -0.2908  0.1304
  938TIP3    H124449   4.375   1.662   8.184 -1.1576  1.7421 -0.2786
  938TIP3    H224450   4.516   1.710   8.211  0.1818 -1.9611 -0.1464
  939TIP3   OH224451   5.975   6.159   1.159 -0.5826  0.3306  0.5682
  939TIP3    H124452   5.984   6.064   1.165  0.8515  0.4405  0.3372
  939TIP3    H224453   5.893   6.172   1.111 -0.5296 -0.7859  0.1517
  940TIP3   OH224454   3.439   1.108   8.194  0.6717  0.3486 -0.1624
  940TIP3    H124455   3.392   1.188   8.168  0.7596  1.1260  1.8880
  940TIP3    H224456   3.376   1.060   8.247  1.0730 -0.2900 -0.2585
  941TIP3   OH224457   2.277   5.755   0.605  0.0689  0.0169 -0.2648
  941TIP3    H124458   2.287   5.722   0.694 -0.5162 -3.0557 -1.2214
  941TIP3    H224459   2.189   5.793   0.603  0.5824  1.3298  0.7594
  942TIP3   OH224460   6.073   2.293   3.215  0.2680 -0.8311  0.3651
  942TIP3    H124461   6.019   2.273   3.139  0.7859 -3.0013  0.5073
  942TIP3    H224462   6.015   2.281   3.290  0.3155 -0.7568  0.4145
  943TIP3   OH224463   3.259   3.120   0.033 -0.2416 -0.6076  0.4408
  943TIP3    H124464   3.309   3.188  -0.012 -0.5470 -1.4077 -1.1969
  943TIP3    H224465   3.272   3.138   0.126  0.4251  1.1209  0.0495
  944TIP3   OH224466   3.177   1.147   3.194  0.2278  0.0105 -0.0620
  944TIP3    H124467   3.271   1.157   3.177  0.4216 -0.2273  0.8109
  944TIP3    H224468   3.151   1.072   3.140  0.6580 -0.2593  0.0934
  945TIP3   OH224469   4.495   2.200   0.597 -0.2182 -0.2530 -0.2841
  945TIP3    H124470   4.540   2.124   0.561  0.6082  0.0558  0.0897
  945TIP3    H224471   4.538   2.275   0.556  2.5982  0.2988  3.1675
  946TIP3   OH224472   4.911   0.317   2.657 -0.4922  0.0066 -0.1211
  946TIP3    H124473   4.939   0.226   2.667  0.3687  0.0543 -1.6589
  946TIP3    H224474   4.879   0.322   2.567  0.0864  1.3536 -0.2833
  947TIP3   OH224475   1.605   5.367   1.591 -0.2866 -0.1169 -0.4823
  947TIP3    H124476   1.677   5.332   1.643  0.9104 -0.1114 -2.0659
  947TIP3    H224477   1.526   5.343   1.640  0.7314 -1.0639  0.7553
  948TIP3   OH224478   3.090   4.943   3.774 -0.4283 -0.0500 -0.4738
  948TIP3    H124479   3.034   4.978   3.705 -1.6168  0.1143  0.5155
  948TIP3    H224480   3.133   4.867   3.735  1.0916  1.5969 -2.2192
  949TIP3   OH224481   2.498   4.433   0.114 -0.1275  0.4522 -0.6640
  949TIP3    H124482   2.449   4.373   0.058 -1.5415  0.7651  0.1675
  949TIP3    H224483   2.517   4.508   0.058 -1.6102  0.8058 -0.7498
  950TIP3   OH224484   3.478   2.237   1.992 -0.2095  0.1694 -0.3868
  950TIP3    H124485   3.395   2.198   1.965  0.2301 -0.9370 -0.2140
  950TIP3    H224486   3.544   2.175   1.962  0.3991 -0.3389  1.8179
  951TIP3   OH224487   2.155   2.472   0.419  0.6477  0.0059  0.0406
  951TIP3    H124488   2.107   2.469   0.336 -0.3631 -1.8508  0.6349
  951TIP3    H224489   2.234   2.421   0.403  0.0550 -1.0589  0.4251
  952TIP3   OH224490   5.614   4.800   2.319 -0.0354 -0.1449  0.1015
  952TIP3    H124491   5.631   4.720   2.270 -1.0317 -1.2237  1.4471
  952TIP3    H224492   5.651   4.784   2.406  1.8053  1.7742 -0.2290
  953TIP3   OH224493   2.887   2.328   7.492  1.0814 -0.2822 -0.1798
  953TIP3    H124494   2.804   2.367   7.520  2.3463  1.9956  0.6856
  953TIP3    H224495   2.870   2.234   7.491 -1.3719  0.0806  0.3815
  954TIP3   OH224496   0.361   0.676   2.582  0.6410  0.2727  0.6604
  954TIP3    H124497   0.300   0.654   2.511 -0.0819 -2.4141  1.9774
  954TIP3    H224498   0.340   0.767   2.604 -0.4541  0.5372 -1.2354
  955TIP3   OH224499   3.080   5.833   7.743 -0.5953 -0.1400 -0.5099
  955TIP3    H124500   3.167   5.874   7.741 -0.0766 -1.0939  1.0483
  955TIP3    H224501   3.034   5.873   7.669  0.7099  1.3864 -0.5716
  956TIP3   OH224502   2.314   2.579   2.385 -0.0719  0.0421  0.2428
  956TIP3    H124503   2.343   2.488   2.385 -4.6159 -1.6634  0.4007
  956TIP3    H224504   2.284   2.594   2.295  1.5511  1.8217 -0.0567
  957TIP3   OH224505   3.220   6.681   3.729 -0.9401 -0.4443 -0.0010
  957TIP3    H124506   3.275   6.623   3.677 -2.1012 -0.2195 -1.5545
  957TIP3    H224507   3.136   6.637   3.734 -1.1601  0.0385  0.8078
  958TIP3   OH224508   4.297   2.483   2.625 -0.1569 -0.3493  0.4755
  958TIP3    H124509   4.278   2.507   2.716  0.2318  2.9846 -0.1725
  958TIP3    H224510   4.275   2.390   2.619  1.9595 -1.3401  4.5318
  959TIP3   OH224511   4.780   4.408   0.964  0.2843 -0.1179  0.4587
  959TIP3    H124512   4.812   4.380   1.050  0.3969 -1.0707  0.1158
  959TIP3    H224513   4.842   4.369   0.902 -1.3961 -1.8424 -0.2122
  960TIP3   OH224514   6.809   2.406   0.643 -0.3329  0.0626  0.3341
  960TIP3    H124515   6.810   2.418   0.548  0.6259  1.2319  0.4573
  960TIP3    H224516   6.805   2.495   0.678 -0.9750 -0.3710  1.3959
  961TIP3   OH224517   6.916   2.669   1.578  0.9556 -0.0117 -0.6173
  961TIP3    H124518   6.927   2.590   1.631  0.3981 -0.7687 -1.5786
  961TIP3    H224519   6.992   2.669   1.520  0.9330  0.1249 -0.6455
  962TIP3   OH224520   4.014   2.902   1.486  0.7379 -0.0174  1.0652
  962TIP3    H124521   4.016   2.880   1.393  4.2190  1.0137  0.7597
  962TIP3    H224522   3.967   2.985   1.489 -0.6273 -0.7333  0.4624
  963TIP3   OH224523   1.498   4.480   3.106  0.3436  0.1984  0.4434
  963TIP3    H124524   1.517   4.570   3.133 -0.8743  0.2434  1.2262
  963TIP3    H224525   1.472   4.435   3.187  1.1402 -0.9249  0.1065
  964TIP3   OH224526   3.616   6.653   1.397 -0.0112  0.1521  0.1622
  964TIP3    H124527   3.682   6.609   1.450 -0.5276  0.4697  1.0936
  964TIP3    H224528   3.607   6.739   1.437 -0.5997  0.3035 -0.2875
  965TIP3   OH224529   3.299   1.607   7.753 -0.2730 -0.3795  0.1110
  965TIP3    H124530   3.372   1.658   7.717  0.2143 -1.0120  0.1803
  965TIP3    H224531   3.298   1.527   7.700  0.7876 -1.5632  1.8171
  966TIP3   OH224532   6.618   0.820   0.490  0.2323 -0.3284 -0.1055
  966TIP3    H124533   6.655   0.905   0.466  0.1903 -0.7932 -2.0070
  966TIP3    H224534   6.609   0.774   0.407 -0.3549 -1.9602  0.8175
  967TIP3   OH224535   2.329   1.205   2.746 -0.0834  0.3180 -0.0822
  967TIP3    H124536   2.268   1.268   2.782 -1.8871 -1.7052  0.6259
  967TIP3    H224537   2.377   1.172   2.822  0.8818  0.8330 -0.4503
  968TIP3   OH224538   3.202   6.921   3.858 -0.1252 -0.0544 -0.0915
  968TIP3    H124539   3.111   6.952   3.852  0.3515  1.1785 -2.1090
  968TIP3    H224540   3.210   6.857   3.787  0.5762 -0.1332  0.0553
  969TIP3   OH224541   2.396   2.034   1.087  0.0860  0.5089  0.1425
  969TIP3    H124542   2.484   2.007   1.113 -0.1653  0.9673  1.5744
  969TIP3    H224543   2.405   2.126   1.060 -0.0733  0.8268  1.1182
  970TIP3   OH224544   6.432   4.878   7.747  0.1716 -0.1702  0.6286
  970TIP3    H124545   6.414   4.970   7.725 -0.7535 -0.3373  0.6779
  970TIP3    H224546   6.514   4.859   7.702  1.2553  1.1649  1.9229
  971TIP3   OH224547   2.242   2.007   7.955  0.3964  0.0077 -0.1808
  971TIP3    H124548   2.258   1.921   7.915 -1.0244 -0.5907  0.4979
  971TIP3    H224549   2.284   2.001   8.041 -0.1969 -0.2209  0.0962
  972TIP3   OH224550   1.016   5.957   2.446  0.2008  0.2305 -0.2598
  972TIP3    H124551   1.099   5.917   2.468  0.7155  0.2469 -1.9855
  972TIP3    H224552   0.970   5.966   2.529  1.0930 -1.6073  0.4747
  973TIP3   OH224553   4.317   0.908   0.492  0.0071 -0.5006  0.2200
  973TIP3    H124554   4.337   0.937   0.403 -0.1082 -1.5634 -0.1684
  973TIP3    H224555   4.354   0.820   0.497  0.3747 -0.2916  1.3680
  974TIP3   OH224556   1.020   4.192   0.614 -0.1633 -0.7455  0.0554
  974TIP3    H124557   0.992   4.172   0.525  0.6370 -0.7681 -0.1952
  974TIP3    H224558   1.057   4.111   0.647 -1.1708 -0.9610  0.7006
  975TIP3   OH224559   2.598   6.157   7.745 -0.5831 -0.2266  0.1204
  975TIP3    H124560   2.559   6.071   7.728  0.3430 -0.8813  1.1880
  975TIP3    H224561   2.650   6.175   7.666  0.8672 -1.6271  0.6939
  976TIP3   OH224562   3.439   5.975   2.965 -0.2093  0.0595 -0.1973
  976TIP3    H124563   3.470   5.947   3.051 -1.1915 -0.1737  0.1035
  976TIP3    H224564   3.513   6.022   2.926  0.3906 -0.2038  0.5974
  977TIP3   OH224565   4.286   4.158   2.656 -0.1908  0.4816 -0.2811
  977TIP3    H124566   4.376   4.170   2.625  0.0838 -1.4100 -0.3035
  977TIP3    H224567   4.259   4.074   2.619 -0.8421 -0.5306  2.3161
  978TIP3   OH224568   0.094   1.894   0.749 -0.5233  0.4027  0.0746
  978TIP3    H124569   0.026   1.869   0.812  2.3334 -0.8240  2.9546
  978TIP3    H224570   0.116   1.985   0.773  0.7574 -0.1549  1.2053
  979TIP3   OH224571   3.764   3.439   1.353 -0.8285  0.0162 -0.1829
  979TIP3    H124572   3.801   3.506   1.411  1.8069  0.3809 -2.1071
  979TIP3    H224573   3.836   3.378   1.338 -1.4745 -0.1997 -2.8356
  980TIP3   OH224574   3.988   1.363   0.508 -0.3919  0.0739 -0.4925
  980TIP3    H124575   4.037   1.313   0.443 -1.3079 -0.5110 -0.7613
  980TIP3    H224576   3.915   1.402   0.459 -0.4145  0.6106 -0.0410
  981TIP3   OH224577   6.131   1.008   8.046  0.0325  0.2390 -0.3865
  981TIP3    H124578   6.205   0.971   8.094 -0.7035 -1.6489 -0.6279
  981TIP3    H224579   6.061   1.012   8.111 -0.4141 -0.5496 -0.7997
  982TIP3   OH224580   3.846   4.017   3.443 -0.5598  0.8335 -0.4687
  982TIP3    H124581   3.777   4.068   3.486 -1.5869 -1.0395  0.2156
  982TIP3    H224582   3.918   4.017   3.505 -1.7195 -1.1365  0.9950
  983TIP3   OH224583   5.253   6.222   2.644 -0.0342 -0.1904 -0.1528
  983TIP3    H124584   5.210   6.196   2.562 -0.6769 -1.3524  0.5265
  983TIP3    H224585   5.264   6.140   2.692 -0.6870  0.5948  1.4087
  984TIP3   OH224586   3.457   6.995   0.999 -0.1578 -0.1883 -0.0843
  984TIP3    H124587   3.377   7.043   0.976 -1.5851 -1.4849  1.8130
  984TIP3    H224588   3.442   6.966   1.089  2.2541 -0.9435  0.1351
  985TIP3   OH224589   2.049   6.627   7.108 -0.4436 -1.1825  0.1611
  985TIP3    H124590   2.035   6.542   7.150  1.9105 -0.8318  1.8207
  985TIP3    H224591   2.130   6.616   7.058 -0.5697 -0.1471 -0.2993
  986TIP3   OH224592   6.655   5.056   1.127 -0.2984  0.4037 -0.2507
  986TIP3    H124593   6.566   5.060   1.092  0.3945  0.9724 -2.0539
  986TIP3    H224594   6.644   5.069   1.221 -2.0969  0.7836 -0.4751
  987TIP3   OH224595   5.447   6.764   1.289  0.0641 -0.1404 -0.2774
  987TIP3    H124596   5.531   6.746   1.331 -1.1577 -1.4293  1.7856
  987TIP3    H224597   5.460   6.735   1.198  1.8370 -0.2673 -0.0322
  988TIP3   OH224598   4.487   0.335   2.233  0.1081  0.0211 -0.4563
  988TIP3    H124599   4.393   0.324   2.239 -0.1712  0.8432 -2.4589
  988TIP3    H224600   4.504   0.420   2.274 -0.4659  1.2225 -2.5553
  989TIP3   OH224601   2.139   5.013   7.607 -0.3058  0.0829  0.1781
  989TIP3    H124602   2.124   4.936   7.662  0.6874 -1.0254 -1.0252
  989TIP3    H224603   2.097   4.991   7.523 -0.4091  1.0531 -0.0356
  990TIP3   OH224604   5.867   4.751   1.820 -0.8950  0.5497  0.0242
  990TIP3    H124605   5.955   4.785   1.837 -0.6795  0.0422 -0.0696
  990TIP3    H224606   5.809   4.819   1.855 -0.4707  0.9239  0.0188
  991TIP3   OH224607   1.628   2.244   1.765 -0.1677 -0.0858 -0.9364
  991TIP3    H124608   1.651   2.199   1.684  2.3772 -0.0067 -0.3633
  991TIP3    H224609   1.641   2.178   1.833  1.6338  0.8877 -0.2740
  992TIP3   OH224610   2.541   3.798   0.025 -0.0189  0.1460  0.3672
  992TIP3    H124611   2.519   3.867  -0.038  0.1239  0.2376  0.4160
  992TIP3    H224612   2.518   3.836   0.110  1.3139  0.6727  0.5300
  993TIP3   OH224613   1.177   3.821   7.710  0.4970  0.6681 -0.3292
  993TIP3    H124614   1.264   3.806   7.673  1.5614  3.6955  0.6984
  993TIP3    H224615   1.122   3.843   7.634 -0.0132 -3.0379 -1.2471
  994TIP3   OH224616   2.861   5.305   1.168  1.0134  0.1168  0.1578
  994TIP3    H124617   2.867   5.400   1.172 -1.0918  0.2680  0.8359
  994TIP3    H224618   2.909   5.275   1.246  0.2448  0.7283  0.8851
  995TIP3   OH224619   5.343   1.441   1.159  0.8381 -0.4203  0.9165
  995TIP3    H124620   5.367   1.494   1.235  0.8693  0.1357  0.5306
  995TIP3    H224621   5.253   1.413   1.176  1.2714 -1.3622  1.7350
  996TIP3   OH224622   5.758   5.869   1.878  0.3415 -0.4793 -0.1005
  996TIP3    H124623   5.847   5.852   1.848  0.8437 -1.1276  1.6253
  996TIP3    H224624   5.766   5.876   1.973 -1.2413  0.8975 -0.0250
  997TIP3   OH224625   4.093   1.281   7.630 -0.2927  0.4658 -0.4168
  997TIP3    H124626   4.117   1.189   7.621 -2.7723 -0.4314  1.0167
  997TIP3    H224627   4.113   1.302   7.721 -0.4566  1.1162 -0.5263
  998TIP3   OH224628   7.024   0.487   1.322 -0.1778  0.5323  0.7444
  998TIP3    H124629   7.062   0.459   1.239  0.4556  1.5887  0.6641
  998TIP3    H224630   7.100   0.505   1.378 -0.5894  0.7000  1.2568
  999TIP3   OH224631   3.186   5.178   2.892  0.1004 -0.4609 -0.4208
  999TIP3    H124632   3.274   5.200   2.862 -1.1272  3.9881 -1.4729
  999TIP3    H224633   3.196   5.164   2.986  1.9204 -0.2787 -0.5425
 1000TIP3   OH224634   5.299   3.516   1.859  1.1278 -0.0948  0.1761
 1000TIP3    H124635   5.350   3.486   1.935 -1.3126 -3.8215  0.6239
 1000TIP3    H224636   5.212   3.534   1.895  0.1825 -1.0029 -1.5482
 1001TIP3   OH224637   2.748   4.911   1.650  0.0299  0.0414  1.0174
 1001TIP3    H124638   2.703   4.962   1.583 -0.1958 -0.1823  0.9966
 1001TIP3    H224639   2.830   4.956   1.664  0.4137 -0.3327  0.0464
 1002TIP3   OH224640   6.497   3.569   1.675 -0.1221 -0.7038  0.1629
 1002TIP3    H124641   6.590   3.552   1.683  0.4074 -0.0534 -3.1143
 1002TIP3    H224642   6.457   3.483   1.663  0.6350 -0.7939 -2.1605
 1003TIP3   OH224643   4.073   3.185   1.029  0.2636  0.1875 -0.0066
 1003TIP3    H124644   4.028   3.259   1.069  1.5510  0.2655  1.3796
 1003TIP3    H224645   4.002   3.129   0.997 -0.7640  1.2166  0.3752
 1004TIP3   OH224646   2.107   3.853   0.774  0.5992 -0.2547 -0.1742
 1004TIP3    H124647   2.201   3.872   0.769  0.2575  2.7423  2.1778
 1004TIP3    H224648   2.101   3.782   0.839  1.2054 -0.1118  0.0454
 1005TIP3   OH224649   6.522   1.238   3.354 -0.2466  0.0193  0.0103
 1005TIP3    H124650   6.608   1.280   3.361 -0.3030  0.6471 -2.3992
 1005TIP3    H224651   6.514   1.213   3.262 -2.0903 -1.3082  0.4647
 1006TIP3   OH224652   1.422   4.583   0.399  0.5707 -0.2508 -0.7806
 1006TIP3    H124653   1.425   4.541   0.485 -0.8441 -0.5189 -0.8353
 1006TIP3    H224654   1.425   4.676   0.418 -1.8418 -0.2205 -0.2473
 1007TIP3   OH224655   2.418   4.419   2.233 -0.3973 -0.0563 -0.1664
 1007TIP3    H124656   2.349   4.483   2.254  0.0611  0.4392 -0.1572
 1007TIP3    H224657   2.373   4.335   2.235 -0.2899 -0.2289  3.8345
 1008TIP3   OH224658   4.510   4.765   3.061  0.2044  0.7004 -0.1502
 1008TIP3    H124659   4.573   4.701   3.027 -0.6502 -1.4868  2.0366
 1008TIP3    H224660   4.528   4.767   3.156 -2.5533  0.4669  0.4530
 1009TIP3   OH224661   5.597   2.899   0.798 -0.3784  0.0270 -0.0747
 1009TIP3    H124662   5.625   2.963   0.733 -0.4469  0.8129  0.6532
 1009TIP3    H224663   5.570   2.952   0.874  0.0055 -0.8771  0.7136
 1010TIP3   OH224664   5.885   2.902   2.622  0.5195 -0.0312  0.0284
 1010TIP3    H124665   5.818   2.969   2.637 -1.0981 -1.5899  0.1144
 1010TIP3    H224666   5.889   2.893   2.526 -0.2776 -0.7646  0.0565
 1011TIP3   OH224667   0.390   0.200   2.406 -0.0537  0.1470  0.7853
 1011TIP3    H124668   0.366   0.116   2.444 -1.1885  0.4225  0.6941
 1011TIP3    H224669   0.486   0.196   2.400 -0.1533 -1.7597 -0.6726
 1012TIP3   OH224670   3.014   6.951   0.776 -0.1032 -0.3201  0.0800
 1012TIP3    H124671   3.009   6.872   0.722  1.2755 -1.0783  1.0118
 1012TIP3    H224672   2.926   6.989   0.771 -0.7633 -1.8545 -0.4831
 1013TIP3   OH224673   5.178   1.405   1.829 -0.2366 -0.1571  0.2844
 1013TIP3    H124674   5.119   1.469   1.869 -0.2262  1.1421 -1.6381
 1013TIP3    H224675   5.257   1.454   1.809 -0.6154 -0.4049 -2.2001
 1014TIP3   OH224676   3.870   0.713   1.958 -0.1976  0.2186 -0.1518
 1014TIP3    H124677   3.830   0.692   2.042 -0.7740  1.3570 -0.1262
 1014TIP3    H224678   3.891   0.806   1.963 -1.0023  0.5091 -1.5588
 1015TIP3   OH224679   4.858   6.794   2.242  0.1409  1.0882 -0.1130
 1015TIP3    H124680   4.913   6.865   2.210  0.5090  1.2778  0.9205
 1015TIP3    H224681   4.863   6.799   2.337  1.3166 -1.1888  0.0228
 1016TIP3   OH224682   3.455   4.102   2.471 -0.2235 -0.0120  0.0645
 1016TIP3    H124683   3.493   4.087   2.558 -0.1409  0.4875  0.1231
 1016TIP3    H224684   3.388   4.169   2.486 -1.6066 -1.3662  0.0753
 1017TIP3   OH224685   2.189   0.262   8.070 -0.2515  0.2052 -0.3192
 1017TIP3    H124686   2.180   0.347   8.027 -2.9357  0.4307  0.4726
 1017TIP3    H224687   2.099   0.231   8.082  0.5695 -2.0317  0.8525
 1018TIP3   OH224688   1.407   5.434   2.377 -0.1630 -0.2462  0.4914
 1018TIP3    H124689   1.501   5.417   2.379  0.2838  1.9118 -0.0723
 1018TIP3    H224690   1.374   5.376   2.307  1.2251  0.9414 -1.2369
 1019TIP3   OH224691   0.445   4.052   2.649  0.0294 -0.4595  0.1840
 1019TIP3    H124692   0.402   4.055   2.563 -2.2547 -0.5361  1.2578
 1019TIP3    H224693   0.374   4.037   2.711  1.5007  0.4188  2.1949
 1020TIP3   OH224694   3.870   7.005   0.747  0.1509 -0.6094  0.6631
 1020TIP3    H124695   3.917   7.036   0.670 -2.3666  2.0238  0.0522
 1020TIP3    H224696   3.894   7.067   0.816 -1.3614  0.0032  0.6682
 1021TIP3   OH224697   1.269   3.226   3.392  0.9341 -0.1234  0.6231
 1021TIP3    H124698   1.280   3.305   3.444 -0.5760  0.7421 -0.2842
 1021TIP3    H224699   1.253   3.157   3.456 -1.5315  1.0184  1.3740
 1022TIP3   OH224700   4.613   0.590   8.023  0.4885  0.4672  0.0428
 1022TIP3    H124701   4.590   0.631   7.940  0.5108 -0.0340 -0.2152
 1022TIP3    H224702   4.703   0.561   8.011  1.0161  1.7171  0.7705
 1023TIP3   OH224703   3.629   5.260   1.263  0.0840 -0.7401 -0.2175
 1023TIP3    H124704   3.649   5.341   1.217 -3.9084 -0.2890 -1.5245
 1023TIP3    H224705   3.679   5.266   1.345  2.1909  1.5806 -1.5407
 1024TIP3   OH224706   6.193   4.834   3.664  0.2372 -0.5477 -0.3074
 1024TIP3    H124707   6.206   4.744   3.692 -0.4014 -0.9617 -1.2804
 1024TIP3    H224708   6.143   4.827   3.583  0.0458  0.6876 -0.3206
 1025TIP3   OH224709   0.812   6.360   7.978  0.2371  0.4161  0.4185
 1025TIP3    H124710   0.728   6.397   8.006  1.0149 -0.0039  3.6679
 1025TIP3    H224711   0.877   6.404   8.032  1.9316 -0.6609 -0.6473
 1026TIP3   OH224712   6.612   0.398   0.257 -0.4436  0.3995 -0.0684
 1026TIP3    H124713   6.613   0.423   0.349  0.6150  1.1053 -0.2476
 1026TIP3    H224714   6.521   0.408   0.229 -0.5398  1.4178  0.5808
 1027TIP3   OH224715   5.487   0.058   2.878 -0.1379  0.5597 -0.2828
 1027TIP3    H124716   5.456   0.148   2.889 -1.3161  0.4081 -1.9951
 1027TIP3    H224717   5.485   0.021   2.966 -1.3256  1.6968  0.2016
 1028TIP3   OH224718   4.006   0.296   1.850  0.1381 -0.7920 -0.2074
 1028TIP3    H124719   3.953   0.375   1.841  0.1609 -0.8665 -1.0592
 1028TIP3    H224720   4.024   0.269   1.760  0.8437 -1.2899  0.0784
 1029TIP3   OH224721   5.462   1.908   1.672 -0.0648 -0.0218  0.0829
 1029TIP3    H124722   5.435   1.822   1.641 -0.3838 -0.6122  1.8762
 1029TIP3    H224723   5.466   1.899   1.767  1.8510  1.4042  0.1913
 1030TIP3   OH224724   7.038   5.558   0.463 -0.0720 -0.0461 -0.3252
 1030TIP3    H124725   7.094   5.544   0.539 -0.0088  0.1096 -0.3435
 1030TIP3    H224726   7.022   5.652   0.462  1.1064  0.1646 -1.3340
 1031TIP3   OH224727   6.007   5.829   1.796  0.0848  0.0592 -0.2857
 1031TIP3    H124728   6.039   5.767   1.730 -3.2739  1.2648 -3.4101
 1031TIP3    H224729   6.072   5.900   1.795  0.9691 -0.7256 -1.0430
 1032TIP3   OH224730   2.785   0.823   1.893  0.2396  0.3048 -0.3464
 1032TIP3    H124731   2.712   0.885   1.900  0.7997  0.8765  0.8230
 1032TIP3    H224732   2.758   0.748   1.947  1.2959  1.3769  1.8304
 1033TIP3   OH224733   3.777   6.434   0.990 -0.1043  0.1058  0.1482
 1033TIP3    H124734   3.702   6.480   1.030 -0.3524 -0.2675  0.1170
 1033TIP3    H224735   3.771   6.345   1.024  0.5790  0.1781  0.4835
 1034TIP3   OH224736   2.041   1.855   7.681 -0.1864 -0.0108 -0.6711
 1034TIP3    H124737   2.115   1.862   7.741 -0.8989 -2.1419  0.5478
 1034TIP3    H224738   2.054   1.772   7.636 -1.6520 -0.2645 -0.6745
 1035TIP3   OH224739   5.008   1.319   0.300 -0.4532  0.2370 -0.2831
 1035TIP3    H124740   4.919   1.297   0.328  0.2869 -1.6302  0.7686
 1035TIP3    H224741   5.065   1.262   0.352  1.3188  0.7377 -1.5696
 1036TIP3   OH224742   6.347   6.956   1.781 -0.3616  0.1769 -0.8519
 1036TIP3    H124743   6.266   6.974   1.734  0.9759  3.1986 -2.3417
 1036TIP3    H224744   6.327   6.975   1.873 -1.7157 -0.7388 -0.9382
 1037TIP3   OH224745   2.824   1.547   7.473 -0.1956 -0.1788 -0.0810
 1037TIP3    H124746   2.878   1.502   7.538  0.0415 -0.5527 -0.5343
 1037TIP3    H224747   2.734   1.526   7.498 -0.0922 -0.8380 -0.2384
 1038TIP3   OH224748   5.307   1.340   0.838 -0.4918 -0.4540 -0.3288
 1038TIP3    H124749   5.239   1.274   0.850 -0.7266 -0.1391  0.1280
 1038TIP3    H224750   5.305   1.391   0.920  0.5868 -0.7057 -0.1364
 1039TIP3   OH224751   1.796   6.664   2.990 -0.0943  0.0531  0.0447
 1039TIP3    H124752   1.710   6.703   3.002  0.7647  1.8713  0.7135
 1039TIP3    H224753   1.807   6.658   2.895  0.0032  2.1945 -0.1196
 1040TIP3   OH224754   3.230   5.047   4.010 -0.4559 -0.2224 -0.2132
 1040TIP3    H124755   3.215   5.063   3.917  1.1503 -0.0527 -0.4711
 1040TIP3    H224756   3.155   4.994   4.038 -0.3597 -1.3025 -1.8696
 1041TIP3   OH224757   3.040   5.892   1.254 -0.3373 -0.0579 -0.2354
 1041TIP3    H124758   3.024   5.853   1.340 -1.6166 -0.9039 -0.8193
 1041TIP3    H224759   3.028   5.986   1.267  0.9645 -0.0039  0.8063
 1042TIP3   OH224760   6.224   4.724   1.745  0.2684 -0.1213  0.3394
 1042TIP3    H124761   6.217   4.727   1.650  0.0176 -1.4962  0.2972
 1042TIP3    H224762   6.191   4.637   1.769  2.5156 -0.7249  1.4749
 1043TIP3   OH224763   1.153   5.480   2.795 -0.2108  0.1802  0.3549
 1043TIP3    H124764   1.221   5.414   2.781  1.0079  1.4445  0.0023
 1043TIP3    H224765   1.108   5.452   2.874  0.2951 -1.0350  0.2374
 1044TIP3   OH224766   6.015   6.752   0.716  0.2184 -0.1709 -0.2776
 1044TIP3    H124767   6.038   6.840   0.688  0.5167 -0.0892  0.2155
 1044TIP3    H224768   5.919   6.754   0.725  0.4017  0.9526  2.4496
 1045TIP3   OH224769   6.721   4.254   7.470 -0.1056  0.7195  0.2009
 1045TIP3    H124770   6.696   4.180   7.414 -0.9674  0.7726  0.4997
 1045TIP3    H224771   6.662   4.324   7.443  0.3695  1.1459  0.2707
 1046TIP3   OH224772   1.272   2.805   3.583  0.2480 -0.2972  0.0672
 1046TIP3    H124773   1.256   2.841   3.496 -0.8064  1.0888  0.7965
 1046TIP3    H224774   1.272   2.881   3.641 -1.2051 -1.3514  1.5591
 1047TIP3   OH224775   6.187   4.489   2.263 -0.1734  0.0802 -0.4664
 1047TIP3    H124776   6.274   4.451   2.262  0.5986  1.7497 -0.0108
 1047TIP3    H224777   6.141   4.446   2.191  1.4451  0.0977 -1.5714
 1048TIP3   OH224778   5.991   1.098   0.193  0.0835  0.4647  0.5680
 1048TIP3    H124779   6.024   1.173   0.144  3.3154 -1.4019 -0.3843
 1048TIP3    H224780   5.941   1.048   0.129 -1.8018  1.5313  1.1250
 1049TIP3   OH224781   4.966   1.915   2.214  0.7163 -0.2357  0.6338
 1049TIP3    H124782   4.971   2.007   2.239  1.0522 -0.2913  0.7820
 1049TIP3    H224783   5.051   1.898   2.173  1.0918 -0.7752  1.6140
 1050TIP3   OH224784   2.888   5.646   3.095  0.0039 -0.0877 -0.3897
 1050TIP3    H124785   2.929   5.688   3.170  0.8998 -1.9387  0.2230
 1050TIP3    H224786   2.880   5.715   3.029  0.3604  1.2641  0.9514
 1051TIP3   OH224787   3.965   5.453   0.339 -0.5186  0.0072 -0.1913
 1051TIP3    H124788   3.888   5.443   0.284  0.0914 -1.8420 -0.8015
 1051TIP3    H224789   3.933   5.440   0.429 -1.3869  2.3004 -0.0987
 1052TIP3   OH224790   1.074   3.815   1.338  0.4522 -0.5267  0.2760
 1052TIP3    H124791   1.095   3.848   1.425  0.7909 -0.2353  0.0901
 1052TIP3    H224792   1.091   3.890   1.280  1.4071 -1.0705 -0.1750
 1053TIP3   OH224793   0.268   0.777   2.978 -0.1777  0.7440 -0.1241
 1053TIP3    H124794   0.216   0.698   2.962 -2.2211  2.2600 -1.7372
 1053TIP3    H224795   0.344   0.747   3.028 -1.5136 -1.9888  0.4696
 1054TIP3   OH224796   6.660   2.560   3.652  0.4376  0.0059  0.3738
 1054TIP3    H124797   6.620   2.644   3.629  0.3312  0.5261  2.2592
 1054TIP3    H224798   6.678   2.518   3.568  0.8471  2.0703 -0.6425
 1055TIP3   OH224799   4.028   1.115   3.406 -0.0372 -0.0691 -0.1752
 1055TIP3    H124800   3.985   1.066   3.476  0.2575  1.5114  1.1777
 1055TIP3    H224801   4.114   1.074   3.398 -0.3999 -0.8353 -0.2638
 1056TIP3   OH224802   1.549   5.696   2.176  0.4262 -0.2974  0.0471
 1056TIP3    H124803   1.549   5.644   2.256  3.1661 -0.1723  0.2110
 1056TIP3    H224804   1.594   5.777   2.199  0.2485  0.2339 -1.3332
 1057TIP3   OH224805   5.783   7.044   8.066  0.4806 -0.0080 -0.1062
 1057TIP3    H124806   5.809   7.097   8.141  1.4837  0.3838 -0.7106
 1057TIP3    H224807   5.820   7.090   7.990 -1.3506  0.1548 -0.9455
 1058TIP3   OH224808   0.317   4.022   2.386  0.1168  0.5029 -0.3324
 1058TIP3    H124809   0.243   3.969   2.357  0.0120  0.2351  0.4117
 1058TIP3    H224810   0.329   4.086   2.316 -0.5200  0.2561 -0.6781
 1059TIP3   OH224811   3.704   4.563   2.471 -0.1412  0.5605  0.5601
 1059TIP3    H124812   3.778   4.622   2.486 -0.1218  0.4801  0.7876
 1059TIP3    H224813   3.743   4.476   2.472 -0.3520  0.4653  1.4854
 1060TIP3   OH224814   2.775   0.657   7.668  0.1531  0.1582 -0.1185
 1060TIP3    H124815   2.704   0.695   7.720  0.7482  0.6594  0.3415
 1060TIP3    H224816   2.752   0.564   7.662 -0.0416  0.1263  0.8667
 1061TIP3   OH224817   6.782   2.490   8.009  0.1559 -0.1345  0.0477
 1061TIP3    H124818   6.755   2.521   8.096 -3.1063  0.3559 -0.9897
 1061TIP3    H224819   6.753   2.399   8.006 -0.1230 -0.0246 -0.6522
 1062TIP3   OH224820   0.560   4.746   1.151 -0.0877 -0.1922  0.4304
 1062TIP3    H124821   0.611   4.775   1.226 -0.2687  1.6636 -0.1257
 1062TIP3    H224822   0.601   4.663   1.126  0.7021 -0.2668  1.8541
 1063TIP3   OH224823   3.604   1.566   7.694 -0.1773 -0.2673  0.0208
 1063TIP3    H124824   3.682   1.564   7.639  0.2637  1.9325  0.4713
 1063TIP3    H224825   3.588   1.659   7.709 -1.2757 -0.7498  2.2010
 1064TIP3   OH224826   2.574   6.617   1.665  0.0956  0.7743  0.0278
 1064TIP3    H124827   2.486   6.610   1.630 -0.1898  1.0322  0.6766
 1064TIP3    H224828   2.621   6.674   1.603 -0.6357  1.9115  0.4829
 1065TIP3   OH224829   0.686   0.438   3.632  0.1724 -0.3699 -0.0298
 1065TIP3    H124830   0.663   0.526   3.601  0.0589 -0.0874  0.8326
 1065TIP3    H224831   0.740   0.401   3.562  1.6233  1.0128  0.3088
 1066TIP3   OH224832   5.951   6.978   7.693  0.4701  0.2390 -0.4255
 1066TIP3    H124833   6.035   6.943   7.667  0.7197  0.6657 -0.2082
 1066TIP3    H224834   5.923   7.033   7.619  1.4335  1.8926  0.3687
 1067TIP3   OH224835   5.638   1.178   3.293  0.2934 -0.2043 -0.1859
 1067TIP3    H124836   5.642   1.273   3.286  0.2035 -0.3225 -2.6361
 1067TIP3    H224837   5.706   1.156   3.357  0.9400  1.4271 -0.2640
 1068TIP3   OH224838   4.080   3.221   8.270 -0.1269  0.1817 -0.1268
 1068TIP3    H124839   4.103   3.263   8.188 -0.3615 -0.2914 -0.4412
 1068TIP3    H224840   3.992   3.251   8.290 -0.1665  0.1000 -0.1786
 1069TIP3   OH224841   3.129   0.602   2.100 -0.2719 -0.1777  0.2952
 1069TIP3    H124842   3.167   0.538   2.040 -1.9284 -0.4283 -0.5193
 1069TIP3    H224843   3.101   0.674   2.044 -0.3015  0.3478  0.9762
 1070TIP3   OH224844   6.058   1.377   1.313 -0.0454 -0.1270 -0.6031
 1070TIP3    H124845   6.098   1.462   1.332 -0.4200 -0.0859  0.0509
 1070TIP3    H224846   6.122   1.313   1.343 -0.1168 -0.0669 -0.3178
 1071TIP3   OH224847   0.816   2.753   0.678 -0.1306  0.1290  0.0674
 1071TIP3    H124848   0.747   2.775   0.616 -1.3043 -2.7212  0.1915
 1071TIP3    H224849   0.863   2.680   0.637  2.0132  1.1165  0.5911
 1072TIP3   OH224850   1.757   1.730   1.621  0.1567 -0.0590  0.6890
 1072TIP3    H124851   1.844   1.705   1.654  0.6298 -0.0967 -0.5361
 1072TIP3    H224852   1.742   1.671   1.547 -1.0051 -0.1750  1.0010
 1073TIP3   OH224853   2.079   2.722   7.842  0.4239 -0.6693  0.2749
 1073TIP3    H124854   1.986   2.700   7.837  0.3900 -0.8915  1.5029
 1073TIP3    H224855   2.104   2.743   7.752 -0.7223 -0.9673 -0.1278
 1074TIP3   OH224856   5.694   3.931   2.947  0.4655 -0.2194 -0.2375
 1074TIP3    H124857   5.639   3.981   2.886 -0.0549  0.3819  0.6970
 1074TIP3    H224858   5.667   3.841   2.936  0.1044 -0.0666 -0.6181
 1075TIP3   OH224859   2.127   1.045   0.791  0.3389  0.0790 -0.0475
 1075TIP3    H124860   2.038   1.029   0.825  0.3030  1.8938  0.8552
 1075TIP3    H224861   2.139   0.978   0.724 -0.9274 -1.5130  1.2146
 1076TIP3   OH224862   2.128   3.068   1.869 -0.9586 -0.2529 -0.2164
 1076TIP3    H124863   2.048   3.029   1.903 -0.5749  1.1723  2.5238
 1076TIP3    H224864   2.119   3.162   1.886  1.5544 -0.1315  0.8893
 1077TIP3   OH224865   3.855   1.476   0.774 -0.1387  0.4303  0.2967
 1077TIP3    H124866   3.882   1.385   0.761 -0.3749  0.4206 -0.1453
 1077TIP3    H224867   3.773   1.470   0.823 -0.2216  0.3984  0.1554
 1078TIP3   OH224868   4.232   2.828   8.041 -0.2388 -0.0688  0.5370
 1078TIP3    H124869   4.214   2.735   8.025  1.5997 -0.2964 -0.5747
 1078TIP3    H224870   4.154   2.874   8.011  0.2117 -1.0407 -2.3707
 1079TIP3   OH224871   1.281   1.384   3.053 -1.0338  0.3045 -0.0544
 1079TIP3    H124872   1.256   1.330   3.129  0.7726 -1.0801 -0.3870
 1079TIP3    H224873   1.359   1.430   3.081 -0.9730  0.6192 -0.7290
 1080TIP3   OH224874   1.189   5.809   0.110  0.8536  0.0700 -0.1443
 1080TIP3    H124875   1.183   5.720   0.076  3.4492  0.6275 -2.4491
 1080TIP3    H224876   1.128   5.860   0.056  1.0440  0.0510 -0.3811
 1081TIP3   OH224877   2.379   1.981   2.531 -0.7132 -0.6164 -0.4455
 1081TIP3    H124878   2.422   1.997   2.448  0.4020  0.0251  0.2274
 1081TIP3    H224879   2.394   2.061   2.582 -4.1613  0.3547 -0.7326
 1082TIP3   OH224880   5.014   0.327   3.859 -0.1194 -0.3779 -0.1092
 1082TIP3    H124881   5.083   0.262   3.847  0.7849  0.6985 -1.0310
 1082TIP3    H224882   5.059   0.411   3.852 -1.2589  0.3599  1.0514
 1083TIP3   OH224883   3.884   6.864   2.147  0.0944 -0.7288 -0.4322
 1083TIP3    H124884   3.929   6.803   2.206  0.5481 -2.5418 -2.5531
 1083TIP3    H224885   3.918   6.950   2.173  0.7300 -1.5025  1.5199
 1084TIP3   OH224886   1.679   1.042   2.602  0.1979 -0.7949 -0.2713
 1084TIP3    H124887   1.739   1.048   2.676  0.1686 -1.6236 -0.1690
 1084TIP3    H224888   1.726   1.084   2.530  0.1447  0.1902  0.2563
 1085TIP3   OH224889   2.972   2.986   1.973 -0.1858  0.5258 -0.1165
 1085TIP3    H124890   2.911   2.956   1.906  0.1991 -1.8717  0.5031
 1085TIP3    H224891   2.923   3.050   2.024 -0.9410  1.3400 -1.7862
 1086TIP3   OH224892   2.163   1.691   3.241 -0.0056 -0.7573  0.3619
 1086TIP3    H124893   2.118   1.669   3.160 -0.1093  0.6372  0.0182
 1086TIP3    H224894   2.196   1.607   3.274 -0.2455 -1.3816 -0.9400
 1087TIP3   OH224895   3.859   4.594   7.407 -0.1255 -0.1052  0.3270
 1087TIP3    H124896   3.811   4.676   7.397  0.5414  0.0714 -1.8008
 1087TIP3    H224897   3.821   4.536   7.342 -0.0498 -1.2420  1.2725
 1088TIP3   OH224898   2.552   6.875   1.227 -0.0322  0.4565 -0.2171
 1088TIP3    H124899   2.642   6.844   1.221  0.0472 -0.2238  2.8131
 1088TIP3    H224900   2.499   6.795   1.229 -0.3178  0.6420  1.7875
 1089TIP3   OH224901   3.220   4.681   2.545 -0.0462 -0.3203 -0.1478
 1089TIP3    H124902   3.230   4.773   2.567  1.8006 -0.0307 -1.8875
 1089TIP3    H224903   3.293   4.638   2.590  0.8595 -0.4308 -1.6350
 1090TIP3   OH224904   2.103   0.626   2.034  0.0993 -0.6038  0.2081
 1090TIP3    H124905   2.058   0.553   1.992  1.0713 -1.6793  0.9843
 1090TIP3    H224906   2.196   0.606   2.025  0.4191  0.9273 -0.2328
 1091TIP3   OH224907   6.562   4.258   0.082 -0.2697  0.0355 -0.2445
 1091TIP3    H124908   6.536   4.347   0.106  1.4102  0.2892  0.7995
 1091TIP3    H224909   6.481   4.208   0.085 -0.8395  0.9624  1.8961
 1092TIP3   OH224910   3.240   0.764   3.337 -0.2003  0.8332  0.6436
 1092TIP3    H124911   3.283   0.681   3.320 -0.6681  0.4109  1.4473
 1092TIP3    H224912   3.307   0.830   3.318 -0.5122  0.4283 -2.1905
 1093TIP3   OH224913   1.732   3.442   1.616  0.5171 -0.1521 -0.3112
 1093TIP3    H124914   1.657   3.412   1.667  0.1540 -0.0649 -0.7928
 1093TIP3    H224915   1.773   3.508   1.671  0.5567 -0.5848  0.1862
 1094TIP3   OH224916   0.604   0.813   2.161 -0.3069  0.3560 -0.0589
 1094TIP3    H124917   0.651   0.863   2.228 -0.4293 -2.5632  2.4207
 1094TIP3    H224918   0.674   0.771   2.110 -0.1719 -0.2869  0.6324
 1095TIP3   OH224919   5.986   5.886   0.846  0.0556  0.0892 -0.0880
 1095TIP3    H124920   6.001   5.963   0.791  0.7721  0.0522  0.0464
 1095TIP3    H224921   5.918   5.914   0.908  1.4078  1.1541  0.9767
 1096TIP3   OH224922   5.388   3.053   1.239  0.6548 -0.0960 -0.2576
 1096TIP3    H124923   5.299   3.041   1.272  0.6318 -2.3801 -0.9825
 1096TIP3    H224924   5.443   3.004   1.299  1.3555  0.6320 -0.2818
 1097TIP3   OH224925   4.356   0.903   2.160  0.3568  0.3113 -0.0772
 1097TIP3    H124926   4.298   0.913   2.236  0.7065  1.2200  0.0782
 1097TIP3    H224927   4.297   0.882   2.087  0.0361 -0.7720  0.4726
 1098TIP3   OH224928   2.828   3.269   0.401  0.1609  0.3463 -0.2061
 1098TIP3    H124929   2.856   3.253   0.492  2.6179  0.8857 -0.7848
 1098TIP3    H224930   2.734   3.255   0.402  0.3590 -1.4279  2.0418
 1099TIP3   OH224931   0.559   5.232   3.408  0.0422  0.1751  0.0255
 1099TIP3    H124932   0.549   5.327   3.418  1.4892  0.3160  0.4377
 1099TIP3    H224933   0.635   5.210   3.462  0.0251 -1.1439 -0.4409
 1100TIP3   OH224934   6.118   4.345   0.354 -0.1430 -0.1819 -0.0721
 1100TIP3    H124935   6.158   4.358   0.440  0.1439  1.9375 -0.4499
 1100TIP3    H224936   6.094   4.253   0.351 -0.1164 -0.3103  2.2573
 1101TIP3   OH224937   0.847   6.456   0.998 -0.2354  0.0742 -0.1007
 1101TIP3    H124938   0.787   6.382   0.988 -0.3355  0.1969 -0.4001
 1101TIP3    H224939   0.907   6.428   1.068  1.0781 -1.1973 -1.6398
 1102TIP3   OH224940   6.617   0.885   0.752  0.2864 -0.0156  0.3509
 1102TIP3    H124941   6.633   0.861   0.661  0.8457 -2.1391  0.9425
 1102TIP3    H224942   6.627   0.980   0.754  1.8499 -0.0843 -1.4933
 1103TIP3   OH224943   6.173   6.080   1.766 -0.0284  0.2529 -0.4730
 1103TIP3    H124944   6.260   6.040   1.753 -0.0421  0.4206 -1.1535
 1103TIP3    H224945   6.170   6.150   1.701 -0.7325  0.1510 -0.5502
 1104TIP3   OH224946   3.160   5.821   0.829 -0.1340  0.4663  0.0736
 1104TIP3    H124947   3.085   5.778   0.870 -0.7740  0.2523 -1.2987
 1104TIP3    H224948   3.151   5.803   0.736  2.2863 -0.5975 -0.0219
 1105TIP3   OH224949   1.958   4.602   0.427  0.2508 -0.0473  0.3169
 1105TIP3    H124950   2.042   4.645   0.441  0.2359 -0.3008  1.2998
 1105TIP3    H224951   1.913   4.656   0.362  0.1312  1.6012  1.6989
 1106TIP3   OH224952   0.267   1.846   0.090  0.2964  0.0063 -0.5462
 1106TIP3    H124953   0.256   1.941   0.084  1.2188  0.0617 -1.9443
 1106TIP3    H224954   0.342   1.834   0.149  0.6108  0.1976 -0.8974
 1107TIP3   OH224955   3.378   5.087   2.086 -0.0738 -0.3682 -0.2785
 1107TIP3    H124956   3.469   5.083   2.117 -0.1865 -1.3210 -0.0328
 1107TIP3    H224957   3.385   5.117   1.995  0.4799 -0.3047 -0.2173
 1108TIP3   OH224958   3.973   1.462   3.525  0.2617  0.0770  0.0781
 1108TIP3    H124959   3.922   1.426   3.598  2.3759 -1.0242  1.1019
 1108TIP3    H224960   4.061   1.471   3.560  1.4567 -0.8975 -2.4578
 1109TIP3   OH224961   1.649   2.687   2.691  0.2115  0.2155 -0.3222
 1109TIP3    H124962   1.657   2.708   2.598 -0.2229  1.2753 -0.1338
 1109TIP3    H224963   1.559   2.656   2.701  0.5529 -0.8592 -0.4170
 1110TIP3   OH224964   3.689   4.966   8.052 -0.2173 -0.1986  0.0907
 1110TIP3    H124965   3.662   5.057   8.046 -1.0749 -0.5017 -1.6172
 1110TIP3    H224966   3.638   4.922   7.983 -4.1762 -3.0644  4.2052
 1111TIP3   OH224967   0.092   6.020   0.919 -0.7658  0.1162 -0.4863
 1111TIP3    H124968   0.174   5.992   0.878  0.1485  2.7284 -0.6337
 1111TIP3    H224969   0.043   6.062   0.849 -1.4339  0.2054  0.0239
 1112TIP3   OH224970   2.141   2.834   0.677  0.6298  0.0682 -0.2327
 1112TIP3    H124971   2.101   2.838   0.764  1.9288 -0.2016  0.3952
 1112TIP3    H224972   2.092   2.765   0.631  1.9561 -2.0917  1.3910
 1113TIP3   OH224973   6.413   6.803   7.871  0.5158 -0.0300  0.0828
 1113TIP3    H124974   6.369   6.864   7.811  0.6113 -1.2374 -1.2613
 1113TIP3    H224975   6.343   6.766   7.924 -0.0481 -1.3100 -1.4724
 1114TIP3   OH224976   6.882   6.027   3.385  0.1721  0.6673 -0.1447
 1114TIP3    H124977   6.961   6.063   3.345  0.3949  0.7275  0.3380
 1114TIP3    H224978   6.914   5.980   3.462 -0.4556  2.5040  1.2896
 1115TIP3   OH224979   3.072   3.982   0.683  0.3100  0.2067 -0.1186
 1115TIP3    H124980   3.061   3.887   0.691  0.8772 -0.0324 -1.7995
 1115TIP3    H224981   3.141   3.992   0.618 -1.1433  1.7882 -1.4949
 1116TIP3   OH224982   1.301   4.411   1.524 -0.9938  0.1604 -0.3541
 1116TIP3    H124983   1.331   4.478   1.462 -0.3653 -0.8038 -1.1262
 1116TIP3    H224984   1.370   4.406   1.590 -0.5561 -0.3993 -0.8389
 1117TIP3   OH224985   1.231   5.072   0.112  0.4267 -0.3621  0.2491
 1117TIP3    H124986   1.321   5.052   0.139  0.8004 -0.2489 -0.8957
 1117TIP3    H224987   1.236   5.086   0.018 -0.8331 -0.5717  0.1344
 1118TIP3   OH224988   0.663   2.698   3.208  0.2022 -0.5486  0.2728
 1118TIP3    H124989   0.611   2.624   3.241  0.2682 -0.6271  0.1985
 1118TIP3    H224990   0.634   2.710   3.118 -0.2561 -0.0879  0.4722
 1119TIP3   OH224991   2.533   6.342   0.412  0.4153  0.2600 -0.0841
 1119TIP3    H124992   2.449   6.302   0.435  1.2501 -3.0998 -2.1208
 1119TIP3    H224993   2.597   6.291   0.460  1.4763  0.0038 -1.6893
 1120TIP3   OH224994   2.874   4.142   3.010 -0.1883 -0.1258 -0.5030
 1120TIP3    H124995   2.834   4.228   3.028  0.6893  0.1504  0.1531
 1120TIP3    H224996   2.968   4.159   3.008  0.2712 -1.5428  2.6062
 1121TIP3   OH224997   5.248   1.579   0.672  0.3769 -0.0776  0.2461
 1121TIP3    H124998   5.261   1.497   0.720  0.5406 -0.4861 -0.4767
 1121TIP3    H224999   5.328   1.629   0.689  1.2608 -0.9817 -1.0538
 1122TIP3   OH225000   4.558   6.507   0.623  0.3355 -0.1461 -0.2037
 1122TIP3    H125001   4.644   6.503   0.581 -0.1912 -0.6351 -1.2772
 1122TIP3    H225002   4.552   6.596   0.657  0.8370  0.2282 -1.0664
 1123TIP3   OH225003   3.501   5.048   0.594 -0.1731  0.2617 -0.3830
 1123TIP3    H125004   3.439   5.119   0.604 -0.5021 -0.0103 -0.4707
 1123TIP3    H225005   3.488   4.994   0.673 -1.8095 -1.1457 -1.5379
 1124TIP3   OH225006   1.152   0.741   2.306 -0.4262 -0.1206  0.1981
 1124TIP3    H125007   1.165   0.833   2.328  0.4175  0.0271 -0.8440
 1124TIP3    H225008   1.231   0.716   2.256 -0.7300 -1.3441  0.2846
 1125TIP3   OH225009   0.021   6.525   2.472 -0.6079  0.4653 -0.0057
 1125TIP3    H125010   0.074   6.456   2.512 -2.5789 -1.2027 -0.0957
 1125TIP3    H225011  -0.004   6.582   2.545 -1.1501 -0.4497  0.5384
 1126TIP3   OH225012   6.775   3.277   0.522  0.8221 -0.0582  0.1198
 1126TIP3    H125013   6.748   3.186   0.518  1.0104 -0.1158  0.1467
 1126TIP3    H225014   6.832   3.289   0.446  3.5081 -0.8588  1.8448
 1127TIP3   OH225015   3.816   2.275   8.245 -0.1537 -0.0653 -0.0472
 1127TIP3    H125016   3.788   2.240   8.161 -3.0215  2.7912 -0.4763
 1127TIP3    H225017   3.832   2.368   8.228  1.1090  0.2024  2.1949
 1128TIP3   OH225018   2.033   5.210   2.129 -0.0165 -0.1770 -0.0824
 1128TIP3    H125019   1.970   5.185   2.196 -1.2272 -0.9604 -1.4528
 1128TIP3    H225020   2.005   5.297   2.101  0.1101 -0.1166 -0.0232
 1129TIP3   OH225021   2.945   2.031   0.161 -0.5636 -0.1910 -0.2127
 1129TIP3    H125022   2.879   1.972   0.199 -0.8465  0.5970  0.5581
 1129TIP3    H225023   2.894   2.091   0.107 -0.5699  0.7474  0.7959
 1130TIP3   OH225024   1.391   2.582   2.605 -0.3274  0.4258 -0.1958
 1130TIP3    H125025   1.361   2.516   2.668  0.7643  1.3445  1.3484
 1130TIP3    H225026   1.450   2.534   2.547 -0.6037 -0.2364  0.0555
 1131TIP3   OH225027   2.937   4.979   2.106 -0.0536 -0.3862  0.6726
 1131TIP3    H125028   3.023   5.021   2.103  0.7451 -1.9886 -0.9042
 1131TIP3    H225029   2.955   4.889   2.133 -0.8552 -1.4192 -1.8704
 1132TIP3   OH225030   3.827   4.513   0.574  0.2977 -0.2746 -0.4374
 1132TIP3    H125031   3.784   4.429   0.585  0.5778 -0.6017 -1.6377
 1132TIP3    H225032   3.794   4.567   0.646  0.3408 -1.4821  0.5208
 1133TIP3   OH225033   3.046   2.153   1.720  0.1037 -0.5710 -0.4207
 1133TIP3    H125034   3.006   2.068   1.740  1.0744 -0.9439 -0.0118
 1133TIP3    H225035   3.021   2.170   1.629 -0.0972 -1.2936 -0.5069
 1134TIP3   OH225036   2.376   3.878   0.767 -0.5018  0.2167 -0.4459
 1134TIP3    H125037   2.444   3.811   0.765 -2.5098 -1.9795  0.6120
 1134TIP3    H225038   2.416   3.951   0.814  1.3602 -0.6610 -0.5663
 1135TIP3   OH225039   0.662   5.750   2.563  0.1569  0.2396 -0.4368
 1135TIP3    H125040   0.711   5.784   2.488  2.9754  1.8729  1.9482
 1135TIP3    H225041   0.599   5.819   2.584 -0.0872  0.1292 -0.7955
 1136TIP3   OH225042   5.191   2.780   2.165  0.2759  0.3728 -1.1428
 1136TIP3    H125043   5.177   2.846   2.233  1.3674 -0.1922 -0.3408
 1136TIP3    H225044   5.162   2.698   2.205  2.3599 -0.2231 -0.7475
 1137TIP3   OH225045   2.845   4.291   7.392  0.4781  0.5798  0.0923
 1137TIP3    H125046   2.864   4.294   7.298  0.4138  2.5535  0.1142
 1137TIP3    H225047   2.877   4.375   7.425  0.0695  0.0968  1.7643
 1138TIP3   OH225048   1.129   1.557   1.941  0.2662  0.2214 -0.0118
 1138TIP3    H125049   1.153   1.609   1.865 -1.1843 -0.3012 -0.8710
 1138TIP3    H225050   1.213   1.533   1.981  1.0084  1.6931 -0.6048
 1139TIP3   OH225051   5.274   5.181   7.641  0.0434  0.8193 -0.1114
 1139TIP3    H125052   5.360   5.209   7.672  0.6711 -2.3966  1.5777
 1139TIP3    H225053   5.292   5.139   7.557  0.1293  0.2618  0.1807
 1140TIP3   OH225054   6.905   5.839   0.470  0.0108 -0.3467  0.5846
 1140TIP3    H125055   6.918   5.918   0.523 -1.1159  0.6541 -0.5427
 1140TIP3    H225056   6.851   5.782   0.525  1.5279 -0.7195  1.7390
 1141TIP3   OH225057   0.502   4.919   0.131  0.3873 -0.0494 -0.1925
 1141TIP3    H125058   0.452   4.851   0.175  0.9149 -0.1595  0.2467
 1141TIP3    H225059   0.467   4.921   0.042  0.6468 -1.1893 -0.3327
 1142TIP3   OH225060   5.013   6.853   0.590 -0.3001 -0.1431 -0.3887
 1142TIP3    H125061   5.040   6.844   0.681 -0.8665  1.7153  0.0136
 1142TIP3    H225062   4.931   6.902   0.595 -0.2206  0.1825 -1.8987
 1143TIP3   OH225063   5.973   0.140   2.482 -0.1604 -0.2246  0.2743
 1143TIP3    H125064   5.974   0.044   2.485 -0.4484 -0.2093  1.0763
 1143TIP3    H225065   5.978   0.167   2.574 -0.7038  0.5140  0.0974
 1144TIP3   OH225066   4.037   2.973   8.239  0.1888 -0.2177  0.3704
 1144TIP3    H125067   4.066   3.061   8.260  1.4259 -0.0827 -1.5758
 1144TIP3    H225068   4.007   2.978   8.148 -0.0891 -1.7080  0.3449
 1145TIP3   OH225069   6.245   2.044   2.973  0.2662 -0.3380 -0.3844
 1145TIP3    H125070   6.270   2.090   3.053  1.5479  1.1651 -1.5829
 1145TIP3    H225071   6.150   2.054   2.969  0.1853 -0.4307  0.9251
 1146TIP3   OH225072   5.668   5.604   2.507 -0.2300 -0.2011 -0.1037
 1146TIP3    H125073   5.729   5.575   2.576 -0.6670  0.5426  0.6144
 1146TIP3    H225074   5.661   5.529   2.448  0.4664 -0.7128  0.4444
 1147TIP3   OH225075   1.751   6.612   2.708  0.3947 -0.3971 -0.3223
 1147TIP3    H125076   1.709   6.527   2.720  1.6353 -0.9276  0.4815
 1147TIP3    H225077   1.807   6.601   2.631  0.4016 -0.2432 -0.3390
 1148TIP3   OH225078   4.269   3.547   7.808  0.3841 -0.0884 -0.5960
 1148TIP3    H125079   4.189   3.579   7.849  0.0073 -0.4936 -1.0073
 1148TIP3    H225080   4.318   3.626   7.787 -0.9968  0.3178 -2.5401
 1149TIP3   OH225081   0.428   6.190   7.271  0.0215  0.3107  0.1713
 1149TIP3    H125082   0.455   6.127   7.205  0.1113  0.1452  0.3658
 1149TIP3    H225083   0.465   6.273   7.241 -1.1821  0.5311 -0.7651
 1150TIP3   OH225084   5.685   4.266   0.331 -0.0434  0.1663 -0.0193
 1150TIP3    H125085   5.669   4.314   0.413 -0.4087  1.7844 -0.9871
 1150TIP3    H225086   5.613   4.293   0.274  1.7818  1.4026 -1.8556
 1151TIP3   OH225087   4.341   6.702   1.517 -0.5530  0.1635 -0.3817
 1151TIP3    H125088   4.336   6.701   1.612 -0.9922  2.2247 -0.3458
 1151TIP3    H225089   4.386   6.620   1.495 -2.6603 -1.5854  1.4088
 1152TIP3   OH225090   2.744   4.103   2.716  0.1826  0.2300  0.2126
 1152TIP3    H125091   2.806   4.140   2.780 -0.3963  3.1013 -0.7238
 1152TIP3    H225092   2.676   4.063   2.769 -0.2117  2.4151  1.4836
 1153TIP3   OH225093   5.714   4.564   2.189  0.0728  0.4794  0.0703
 1153TIP3    H125094   5.669   4.482   2.208 -1.4847  1.4068  0.4711
 1153TIP3    H225095   5.776   4.541   2.119 -0.1456 -1.0753  0.3485
 1154TIP3   OH225096   1.950   2.985   1.364  0.0158  0.1699 -0.2230
 1154TIP3    H125097   2.024   2.944   1.408  0.5480  1.3307  0.0245
 1154TIP3    H225098   1.874   2.936   1.394  0.5958 -0.4716  0.2277
 1155TIP3   OH225099   3.256   5.993   3.893  0.2405 -0.5944 -0.0880
 1155TIP3    H125100   3.327   5.960   3.838 -0.1504 -1.9088  0.1426
 1155TIP3    H225101   3.204   6.049   3.836  1.2875  0.1421 -0.3332
 1156TIP3   OH225102   1.595   1.616   2.180 -0.6463  0.7799 -0.1703
 1156TIP3    H125103   1.535   1.685   2.209  0.2137  0.4881  2.5628
 1156TIP3    H225104   1.681   1.657   2.181 -0.5287  0.7003 -2.3555
 1157TIP3   OH225105   6.896   4.958   2.334  0.1532 -0.2234 -0.3103
 1157TIP3    H125106   6.974   4.984   2.383  0.1528 -2.2858  0.8777
 1157TIP3    H225107   6.879   5.032   2.276  2.2671  0.7906  0.2633
 1158TIP3   OH225108   1.780   1.185   0.088 -0.0074  0.0053 -0.4582
 1158TIP3    H125109   1.863   1.227   0.109 -0.8466  1.9202 -0.8012
 1158TIP3    H225110   1.717   1.222   0.149 -1.0429  0.2682 -1.6315
 1159TIP3   OH225111   5.254   6.402   1.104  0.2025  0.0806  0.4440
 1159TIP3    H125112   5.304   6.385   1.183  0.2615 -1.6088  0.0784
 1159TIP3    H225113   5.198   6.325   1.093  1.0776 -0.3242 -1.7815
 1160TIP3   OH225114   5.099   2.539   1.368  0.3580  0.4953 -0.3447
 1160TIP3    H125115   5.050   2.547   1.450  1.3300 -0.3017  0.3564
 1160TIP3    H225116   5.163   2.610   1.371  0.7115  0.1782 -0.1602
 1161TIP3   OH225117   3.274   6.096   3.351 -0.1422 -0.7217 -0.6940
 1161TIP3    H125118   3.189   6.126   3.318 -1.4130 -2.0135  1.1962
 1161TIP3    H225119   3.253   6.021   3.407  1.7905  1.4020  3.2572
 1162TIP3   OH225120   4.349   4.595   0.067  0.1333 -0.5983 -0.5053
 1162TIP3    H125121   4.282   4.664   0.065  0.7715  0.0563  0.1392
 1162TIP3    H225122   4.368   4.578  -0.025  0.0803  0.1964 -0.6717
 1163TIP3   OH225123   2.750   5.310   0.264 -0.1936  0.5199 -0.1075
 1163TIP3    H125124   2.725   5.218   0.254 -1.6456  0.9504 -0.7132
 1163TIP3    H225125   2.757   5.343   0.174 -0.6836  1.2373  0.1011
 1164TIP3   OH225126   1.287   1.472   2.532 -0.1588 -0.0200  0.0408
 1164TIP3    H125127   1.260   1.450   2.621 -1.3164  1.9343  0.2231
 1164TIP3    H225128   1.206   1.494   2.487  0.6148  1.1617 -0.8434
 1165TIP3   OH225129   3.534   4.261   8.055 -0.0600  0.4739  0.1355
 1165TIP3    H125130   3.513   4.174   8.023 -0.5477  0.9704 -0.9828
 1165TIP3    H225131   3.520   4.318   7.979 -0.8708  1.6772  1.1396
 1166TIP3   OH225132   3.206   0.800   1.755 -0.2418 -0.4302 -0.0179
 1166TIP3    H125133   3.196   0.891   1.725 -0.3771 -0.6666 -0.7162
 1166TIP3    H225134   3.142   0.792   1.825 -0.1811  0.0352  0.0991
 1167TIP3   OH225135   2.512   1.856   3.721  0.2433 -0.1730 -0.2935
 1167TIP3    H125136   2.576   1.846   3.792  0.0924  0.2799 -0.0875
 1167TIP3    H225137   2.547   1.928   3.668 -0.7946  1.0340  0.6089
 1168TIP3   OH225138   4.399   6.155   2.340 -0.3856 -0.5520 -0.2000
 1168TIP3    H125139   4.487   6.134   2.371 -0.0735  0.6800 -0.2077
 1168TIP3    H225140   4.369   6.074   2.299  1.3894 -0.5389 -1.6799
 1169TIP3   OH225141   5.714   0.696   0.940 -0.2063  0.0352  0.1905
 1169TIP3    H125142   5.723   0.791   0.929  0.2963  0.0588  0.7272
 1169TIP3    H225143   5.800   0.668   0.970  0.3602 -0.9373 -2.1467
 1170TIP3   OH225144   3.560   5.547   1.862  0.1009  0.0157  0.3081
 1170TIP3    H125145   3.542   5.623   1.917 -1.4359 -0.7262  0.8965
 1170TIP3    H225146   3.540   5.472   1.918  2.4404 -0.8716  0.0298
 1171TIP3   OH225147   1.581   0.739   7.472 -0.3945 -0.7774 -0.2749
 1171TIP3    H125148   1.598   0.831   7.453  2.2825 -1.0614  0.3796
 1171TIP3    H225149   1.498   0.739   7.520 -0.6878  1.2289 -0.7403
 1172TIP3   OH225150   6.398   0.438   2.879  0.2193  0.3116 -0.5869
 1172TIP3    H125151   6.305   0.426   2.858  0.5133 -0.8100 -1.4011
 1172TIP3    H225152   6.443   0.416   2.797  1.2349 -0.0111  0.0418
 1173TIP3   OH225153   0.344   4.538   1.237 -0.2464  0.0222 -0.8081
 1173TIP3    H125154   0.405   4.465   1.248 -0.6277 -0.0122  1.6627
 1173TIP3    H225155   0.384   4.594   1.171  0.6768 -1.7747 -1.8372
 1174TIP3   OH225156   2.004   3.317   1.022 -0.1728 -0.0743 -0.0695
 1174TIP3    H125157   1.965   3.240   1.062 -0.6011 -0.1306 -0.5845
 1174TIP3    H225158   1.964   3.391   1.069 -1.4876 -0.1096 -1.0855
 1175TIP3   OH225159   4.294   3.585   7.313  0.3664 -0.0763  0.1140
 1175TIP3    H125160   4.225   3.622   7.258  0.2470  0.0945  0.3764
 1175TIP3    H225161   4.248   3.523   7.370  0.4382 -0.0165  0.2376
 1176TIP3   OH225162   3.992   6.375   0.635  0.4650  0.0441 -0.1769
 1176TIP3    H125163   4.011   6.369   0.729 -0.9787 -0.1260  0.1247
 1176TIP3    H225164   3.996   6.285   0.603  1.0249  0.1096 -0.3002
 1177TIP3   OH225165   0.150   2.171   2.257 -0.6318 -0.1620 -0.5077
 1177TIP3    H125166   0.165   2.244   2.318 -0.5500  0.6250 -1.4363
 1177TIP3    H225167   0.147   2.213   2.171 -0.1038 -1.3239 -1.1155
 1178TIP3   OH225168   3.955   1.951   2.702  0.0008  0.3046  0.1864
 1178TIP3    H125169   3.861   1.961   2.687 -0.1463 -1.1524  0.0086
 1178TIP3    H225170   3.975   1.862   2.672  1.9356  1.4100 -2.2015
 1179TIP3   OH225171   1.862   3.747   0.365  0.2726 -0.5658  0.0165
 1179TIP3    H125172   1.777   3.710   0.340  0.9472 -1.7756 -0.5667
 1179TIP3    H225173   1.922   3.718   0.296  1.4620 -0.9448  1.1654
 1180TIP3   OH225174   1.943   4.099   6.960  0.0280  0.2950  0.0951
 1180TIP3    H125175   1.968   4.014   6.997 -0.2557  0.4350  0.6109
 1180TIP3    H225176   2.026   4.145   6.950  0.3316 -0.4980 -1.3694
 1181TIP3   OH225177   0.700   0.054   0.653  0.5794 -0.7153 -0.1843
 1181TIP3    H125178   0.789   0.079   0.680  0.3475  0.9225 -0.8221
 1181TIP3    H225179   0.662   0.013   0.731  1.6567 -0.8169  0.3096
 1182TIP3   OH225180   0.148   6.869   0.196  0.2519 -0.6020 -0.1757
 1182TIP3    H125181   0.096   6.807   0.246  0.7045  0.2068  1.3573
 1182TIP3    H225182   0.198   6.815   0.134 -0.0867 -1.6634  0.4589
 1183TIP3   OH225183   4.557   3.257   0.992 -0.3256  0.2707  0.1475
 1183TIP3    H125184   4.491   3.224   0.930  0.2364 -0.2973 -0.1642
 1183TIP3    H225185   4.509   3.316   1.049 -1.0110  0.2282 -0.3725
 1184TIP3   OH225186   1.223   5.858   7.782 -0.3306  0.1275  0.0878
 1184TIP3    H125187   1.227   5.762   7.778 -0.2872  0.0576  1.4839
 1184TIP3    H225188   1.313   5.887   7.769 -0.0745 -0.1086  1.2205
 1185TIP3   OH225189   1.546   5.722   2.870 -0.6862  0.2013 -0.1240
 1185TIP3    H125190   1.599   5.801   2.855 -1.0294  0.4481 -0.0464
 1185TIP3    H225191   1.579   5.687   2.953 -1.4711  1.0459  0.5682
 1186TIP3   OH225192   1.209   4.822   1.457 -0.1505 -0.4011  0.0480
 1186TIP3    H125193   1.212   4.781   1.371  0.7040 -0.4830  0.1139
 1186TIP3    H225194   1.175   4.754   1.515 -0.0555 -0.5715 -0.0944
 1187TIP3   OH225195   4.290   4.682   0.738  0.4564 -0.2138  0.7643
 1187TIP3    H125196   4.383   4.696   0.724  0.5456 -0.7466  0.7706
 1187TIP3    H225197   4.286   4.600   0.789 -0.1201 -1.9043 -1.7987
 1188TIP3   OH225198   4.011   3.296   2.068  0.0609 -0.1152  0.1267
 1188TIP3    H125199   3.959   3.229   2.113 -0.0129  0.1555  0.4477
 1188TIP3    H225200   4.099   3.286   2.106  0.3298 -0.7785 -0.6349
 1189TIP3   OH225201   4.959   3.960   2.793 -0.1885 -0.2099 -0.1950
 1189TIP3    H125202   4.934   4.052   2.783  0.2455 -0.0315  0.3365
 1189TIP3    H225203   5.000   3.937   2.709  0.9583  0.4910  0.1437
 1190TIP3   OH225204   6.571   3.928   1.058 -0.4631  0.1150  0.1030
 1190TIP3    H125205   6.495   3.961   1.011 -0.0955 -0.6802 -1.0890
 1190TIP3    H225206   6.585   3.841   1.021 -0.1668 -0.5491  1.7050
 1191TIP3   OH225207   4.851   0.400   0.853 -0.2666 -0.1302 -0.4392
 1191TIP3    H125208   4.851   0.306   0.872  0.7672 -0.4382 -1.8195
 1191TIP3    H225209   4.843   0.406   0.758  0.3365  1.1621 -0.4345
 1192TIP3   OH225210   2.283   6.199   2.659  0.0058 -0.2896  0.2777
 1192TIP3    H125211   2.308   6.200   2.751  1.0330 -0.2474  0.0095
 1192TIP3    H225212   2.348   6.255   2.616 -1.2291  0.7396 -0.2893
 1193TIP3   OH225213   4.806   4.486   0.258 -0.0205 -0.2083 -0.1130
 1193TIP3    H125214   4.874   4.419   0.257 -1.0601 -1.3484  1.5097
 1193TIP3    H225215   4.798   4.511   0.350 -0.8737  0.8821 -0.4574
 1194TIP3   OH225216   6.424   6.167   3.117 -0.3097 -0.3761  0.3043
 1194TIP3    H125217   6.362   6.143   3.048  0.5805 -2.0956  0.0456
 1194TIP3    H225218   6.497   6.108   3.105  1.8396  2.1480  0.0555
 1195TIP3   OH225219   5.270   0.898   0.208  0.0305 -0.3013 -0.0576
 1195TIP3    H125220   5.341   0.961   0.195  0.8874 -0.3256  3.4646
 1195TIP3    H225221   5.195   0.938   0.165  1.4128  1.3027 -1.1363
 1196TIP3   OH225222   6.257   4.354   7.933  0.3961 -0.4704 -0.1347
 1196TIP3    H125223   6.234   4.324   7.845 -0.0942 -1.9341  0.4482
 1196TIP3    H225224   6.214   4.291   7.991  0.4546  0.6453  1.1645
 1197TIP3   OH225225   6.731   5.641   3.593  0.2772 -0.4415 -0.2751
 1197TIP3    H125226   6.741   5.546   3.598 -1.6569 -0.6496  0.6958
 1197TIP3    H225227   6.642   5.657   3.623  0.5045  1.6827 -0.5868
 1198TIP3   OH225228   2.760   1.128   2.858 -0.1824 -0.4158 -0.6308
 1198TIP3    H125229   2.822   1.119   2.930 -1.3077  2.1030  0.7778
 1198TIP3    H225230   2.773   1.217   2.826 -1.9570 -0.3801 -1.3804
 1199TIP3   OH225231   6.710   1.287   2.032 -0.3152  0.0313 -0.1668
 1199TIP3    H125232   6.645   1.266   2.098 -3.4305  0.0717 -2.9310
 1199TIP3    H225233   6.728   1.381   2.045 -1.0356  0.0887  0.4950
 1200TIP3   OH225234   1.928   5.580   2.842 -0.0876  0.0221 -0.1527
 1200TIP3    H125235   1.858   5.540   2.894  0.0612 -0.2054 -0.1242
 1200TIP3    H225236   2.008   5.557   2.888  0.3065 -2.4106 -1.8053
 1201TIP3   OH225237   3.579   5.061   1.555 -0.1285 -0.2632  0.1167
 1201TIP3    H125238   3.540   5.022   1.633 -0.5251  1.0935  0.6274
 1201TIP3    H225239   3.520   5.036   1.484  0.1605 -1.3972  0.2652
 1202TIP3   OH225240   0.995   1.404   7.890 -0.3174 -0.2450  0.2485
 1202TIP3    H125241   0.907   1.388   7.858 -0.1416 -2.1691  0.5860
 1202TIP3    H225242   1.033   1.316   7.902  1.4586  0.5123  0.5962
 1203TIP3   OH225243   2.380   7.066   1.070  0.4338 -0.0067 -0.2822
 1203TIP3    H125244   2.470   7.033   1.071  0.4634  0.0590 -0.6116
 1203TIP3    H225245   2.391   7.161   1.062  0.3442  0.0577  0.3075
 1204TIP3   OH225246   1.885   5.881   3.049  0.8292 -0.0790  0.1479
 1204TIP3    H125247   1.909   5.911   2.961  0.1389  0.9038  0.2769
 1204TIP3    H225248   1.833   5.952   3.085 -0.4352 -1.2358  0.6794
 1205TIP3   OH225249   6.485   0.148   3.258 -0.2309  0.1868 -0.1119
 1205TIP3    H125250   6.392   0.142   3.237 -0.2155 -0.1427 -0.0924
 1205TIP3    H225251   6.516   0.222   3.207 -0.6240  0.6644  0.3345
 1206TIP3   OH225252   3.511   1.833   7.742  0.4015 -0.1590 -0.4062
 1206TIP3    H125253   3.501   1.908   7.802  0.0029 -0.6858  0.1987
 1206TIP3    H225254   3.432   1.834   7.689 -0.1998 -0.8727  0.4429
 1207TIP3   OH225255   1.765   4.213   6.775  0.0649 -0.0334 -0.2160
 1207TIP3    H125256   1.821   4.176   6.843  1.8451 -1.2326 -2.1910
 1207TIP3    H225257   1.824   4.267   6.723 -1.5641  2.0770 -0.0280
 1208TIP3   OH225258   1.716   2.394   0.464 -0.1554  0.4939 -0.5418
 1208TIP3    H125259   1.644   2.336   0.440  1.0768 -0.6458 -1.6294
 1208TIP3    H225260   1.750   2.426   0.381  0.7982  0.7529 -0.0656
 1209TIP3   OH225261   1.504   0.884   2.220  0.0036  0.0193 -0.0991
 1209TIP3    H125262   1.533   0.939   2.147  1.5731  1.3858  1.4824
 1209TIP3    H225263   1.525   0.795   2.191  1.0861  0.5684 -1.1263
 1210TIP3   OH225264   6.096   4.609   7.326  0.3776  0.0797  0.0679
 1210TIP3    H125265   6.011   4.615   7.282 -0.4801 -1.9570  1.2576
 1210TIP3    H225266   6.084   4.656   7.408  0.2340 -0.5397  0.4129
 1211TIP3   OH225267   1.998   7.027   1.131  0.6750  0.0805 -0.5979
 1211TIP3    H125268   2.061   7.055   1.198  1.4655 -0.4197 -1.1090
 1211TIP3    H225269   2.041   6.952   1.089  0.9507  1.3881 -2.7794
 1212TIP3   OH225270   4.781   4.850   2.804 -0.9867  0.5376 -0.0321
 1212TIP3    H125271   4.861   4.898   2.779 -0.4155  0.1794  1.0446
 1212TIP3    H225272   4.767   4.788   2.732  1.0203 -0.9482  0.7585
 1213TIP3   OH225273   5.523   1.365   8.257 -0.5610  0.1943  0.2603
 1213TIP3    H125274   5.551   1.450   8.224 -1.5054  0.0058 -1.1058
 1213TIP3    H225275   5.600   1.329   8.301  0.7766  0.4878 -1.7232
 1214TIP3   OH225276   3.026   2.200   7.853  0.5119 -0.2607  0.1013
 1214TIP3    H125277   2.986   2.160   7.930 -2.4393 -0.2153 -1.2623
 1214TIP3    H225278   3.027   2.294   7.871 -1.8152 -0.0614 -0.5008
 1215TIP3   OH225279   1.059   2.571   1.070  0.2411 -0.2183  0.5559
 1215TIP3    H125280   1.032   2.541   0.983  0.9399 -1.5638  0.7684
 1215TIP3    H225281   1.135   2.627   1.055  0.7062 -0.8989  0.3171
 1216TIP3   OH225282   5.924   5.070   0.401 -0.1213 -0.1223 -0.3674
 1216TIP3    H125283   5.930   5.137   0.469  0.9477 -0.2312 -0.3250
 1216TIP3    H225284   5.874   5.111   0.331  0.5938  0.7754 -0.3817
 1217TIP3   OH225285   1.961   4.779   7.814 -0.0613 -0.1717 -0.1619
 1217TIP3    H125286   1.929   4.689   7.815  0.6261 -0.5130 -2.5552
 1217TIP3    H225287   1.937   4.814   7.900  0.7437 -2.9872  1.3572
 1218TIP3   OH225288   1.335   1.657   7.664  0.1387 -0.4527 -0.1961
 1218TIP3    H125289   1.327   1.658   7.569  0.7010 -0.4916 -0.2489
 1218TIP3    H225290   1.307   1.744   7.691  0.6073 -0.2129 -0.4589
 1219TIP3   OH225291   5.596   2.507   3.021 -0.2871 -0.0137 -0.2008
 1219TIP3    H125292   5.580   2.427   2.970 -0.0263 -0.0724 -0.1922
 1219TIP3    H225293   5.542   2.497   3.099 -0.3527 -0.1254 -0.2606
 1220TIP3   OH225294   2.615   1.028   1.987  0.4044  0.6373 -0.0410
 1220TIP3    H125295   2.526   1.005   2.013  0.6007  0.2110  0.2748
 1220TIP3    H225296   2.607   1.052   1.895  0.1694 -0.7274 -0.4088
 1221TIP3   OH225297   1.596   1.694   0.610 -0.5230 -0.3053  0.1225
 1221TIP3    H125298   1.523   1.668   0.553 -0.2576  0.3772 -0.5442
 1221TIP3    H225299   1.667   1.635   0.587 -0.7527 -0.7585  0.5448
 1222TIP3   OH225300   4.150   6.277   7.925 -0.2011 -0.3810  0.1587
 1222TIP3    H125301   4.227   6.323   7.891  0.1531 -1.1116 -0.0338
 1222TIP3    H225302   4.115   6.229   7.849  0.8281 -2.3557  0.8815
 1223TIP3   OH225303   5.068   0.569   1.757  0.4141 -0.0957  0.0195
 1223TIP3    H125304   5.018   0.606   1.830 -1.5746 -0.8048 -0.9127
 1223TIP3    H225305   5.007   0.508   1.715  1.4859  0.3256 -2.2598
 1224TIP3   OH225306   0.083   5.690   2.250 -0.3263  0.3008 -0.0261
 1224TIP3    H125307   0.022   5.622   2.219  0.0397  0.2257 -0.5929
 1224TIP3    H225308   0.170   5.656   2.229 -0.1602  1.1950 -0.8256
 1225TIP3   OH225309   5.955   0.803   3.442  0.0258 -0.6033 -0.2935
 1225TIP3    H125310   5.865   0.772   3.448  0.0279 -0.6893 -0.6901
 1225TIP3    H225311   5.996   0.746   3.377  0.5216 -0.9404  0.2971
 1226TIP3   OH225312   5.981   6.910   2.370 -0.5592  0.3713  0.1073
 1226TIP3    H125313   5.901   6.887   2.418 -0.7914  0.4627 -0.2307
 1226TIP3    H225314   5.961   6.887   2.279  0.1797 -0.5962  0.1737
 1227TIP3   OH225315   0.172   5.388   7.546 -0.3656 -0.3158  0.3734
 1227TIP3    H125316   0.134   5.303   7.568  0.7411 -1.0008 -0.2722
 1227TIP3    H225317   0.110   5.452   7.581  0.2793 -1.3156  3.7315
 1228TIP3   OH225318   2.835   4.917   1.133 -0.7008  0.1619  0.1439
 1228TIP3    H125319   2.825   4.891   1.224 -0.0875  3.3537  1.2183
 1228TIP3    H225320   2.759   4.971   1.114 -1.3733 -1.2934 -1.6349
 1229TIP3   OH225321   6.885   2.909   2.859  0.0961  0.0257 -0.2211
 1229TIP3    H125322   6.932   2.915   2.775  0.3660  0.8158 -0.0212
 1229TIP3    H225323   6.825   2.836   2.847 -1.2360  1.3063 -1.7866
 1230TIP3   OH225324   7.023   5.041   2.888 -0.0921 -0.1802  0.3648
 1230TIP3    H125325   6.959   5.021   2.957 -0.9901  1.0059 -0.0935
 1230TIP3    H225326   7.013   4.969   2.826 -0.6336 -0.2812  0.5569
 1231TIP3   OH225327   2.219   5.588   0.855  0.5923 -0.8957 -0.1360
 1231TIP3    H125328   2.124   5.591   0.864  0.4593 -3.0337 -0.2651
 1231TIP3    H225329   2.246   5.512   0.906  2.3597  0.1351  0.5690
 1232TIP3   OH225330   0.379   2.336   0.402  0.9328  0.4297 -0.2376
 1232TIP3    H125331   0.326   2.274   0.451  1.1894  2.3864  2.7350
 1232TIP3    H225332   0.468   2.325   0.437  0.8891  2.7570  0.8070
 1233TIP3   OH225333   6.019   6.049   2.305 -0.0484 -0.1832  0.1208
 1233TIP3    H125334   6.091   6.043   2.243  1.7350 -1.4312  2.1636
 1233TIP3    H225335   6.041   6.123   2.362  0.2273 -1.1960  1.3967
 1234TIP3   OH225336   2.257   0.011   1.784 -0.4594 -0.0959 -0.5452
 1234TIP3    H125337   2.214   0.038   1.704 -1.4895  0.4022  0.1545
 1234TIP3    H225338   2.351   0.021   1.766 -0.5654 -1.7993 -2.3002
 1235TIP3   OH225339   6.383   3.325   0.697  0.1407 -0.3348  0.4555
 1235TIP3    H125340   6.292   3.347   0.678  0.1156 -1.1337 -0.4205
 1235TIP3    H225341   6.425   3.321   0.611  1.1193  0.4544  0.8643
 1236TIP3   OH225342   0.279   3.574   2.230  0.5556 -0.3565 -0.3136
 1236TIP3    H125343   0.250   3.599   2.142 -3.0089  1.2352  1.1095
 1236TIP3    H225344   0.341   3.503   2.215  0.3866  0.0669 -4.1010
 1237TIP3   OH225345   5.674   0.763   2.787 -0.4716  0.8114 -0.0478
 1237TIP3    H125346   5.620   0.684   2.778  1.1970 -0.5099  1.0724
 1237TIP3    H225347   5.690   0.791   2.697 -1.9875  0.5530 -0.4349
 1238TIP3   OH225348   3.362   0.807   7.562  0.2097 -0.1435  0.6813
 1238TIP3    H125349   3.278   0.834   7.525  0.6632  0.0433 -0.2562
 1238TIP3    H225350   3.396   0.886   7.604 -0.9125 -0.6987  2.7182
 1239TIP3   OH225351   3.870   6.409   1.351 -0.7222  0.2404 -0.2248
 1239TIP3    H125352   3.960   6.382   1.366 -0.4865  1.3186  0.3856
 1239TIP3    H225353   3.844   6.454   1.431 -2.3803 -1.5018  0.2722
 1240TIP3   OH225354   0.256   2.961   3.373 -0.2394 -0.2479 -0.4645
 1240TIP3    H125355   0.210   2.966   3.457  1.3455  2.1148  0.3617
 1240TIP3    H225356   0.186   2.964   3.308 -1.3912  1.1982  0.7527
 1241TIP3   OH225357   2.859   1.433   0.757  0.0656  0.1479  0.5849
 1241TIP3    H125358   2.834   1.495   0.825 -0.7811 -0.2782  0.6784
 1241TIP3    H225359   2.955   1.436   0.756  0.0379  1.9331  0.1130
 1242TIP3   OH225360   4.758   2.324   1.750  0.3919  0.1929  0.5780
 1242TIP3    H125361   4.684   2.380   1.729  0.6151  0.7565  1.2864
 1242TIP3    H225362   4.821   2.341   1.681 -0.0760 -0.1880  0.0469
 1243TIP3   OH225363   1.262   5.594   0.351  0.2978  0.6736 -0.0207
 1243TIP3    H125364   1.243   5.513   0.303  0.5119  0.7149 -0.1770
 1243TIP3    H225365   1.182   5.646   0.342  0.1973  0.5225 -0.0082
 1244TIP3   OH225366   2.840   5.411   0.914 -0.2864  0.6707  0.6779
 1244TIP3    H125367   2.764   5.362   0.882 -1.3365  1.0135  2.4930
 1244TIP3    H225368   2.860   5.369   0.998  1.3065  0.8483  0.4062
 1245TIP3   OH225369   6.275   2.083   3.260 -0.0472 -0.3467 -0.3370
 1245TIP3    H125370   6.198   2.140   3.253  0.5297  0.5416  0.3858
 1245TIP3    H225371   6.325   2.118   3.333  1.9264  0.1595 -1.8343
 1246TIP3   OH225372   0.646   6.987   7.560 -0.1986 -0.1712 -0.1592
 1246TIP3    H125373   0.589   6.922   7.599 -1.9239  0.1470 -2.0067
 1246TIP3    H225374   0.599   7.070   7.570 -0.1294  0.0895 -1.7708
 1247TIP3   OH225375   1.670   6.167   2.460 -0.2655  0.5034  0.3507
 1247TIP3    H125376   1.749   6.218   2.441 -0.8061  1.5565  0.8421
 1247TIP3    H225377   1.626   6.158   2.376  0.4416 -0.2065  0.0505
 1248TIP3   OH225378   1.278   3.688   0.637  0.2901  0.3097  0.3356
 1248TIP3    H125379   1.264   3.594   0.650 -0.5084  0.5919  1.6579
 1248TIP3    H225380   1.350   3.692   0.573 -0.0122 -1.1831 -0.1533
 1249TIP3   OH225381   2.017   4.642   8.134  0.2374 -0.0274  0.7925
 1249TIP3    H125382   2.029   4.661   8.227  0.5684 -1.3512  1.0538
 1249TIP3    H225383   2.060   4.557   8.122  0.0591  0.0513 -0.5373
 1250TIP3   OH225384   4.185   3.941   1.813 -0.1216 -0.1767  0.5437
 1250TIP3    H125385   4.259   4.001   1.805 -0.2365  0.1953  1.9817
 1250TIP3    H225386   4.113   3.995   1.846 -0.2791 -1.0239  1.6841
 1251TIP3   OH225387   0.391   3.348   2.168  0.6968  0.6748 -0.4469
 1251TIP3    H125388   0.416   3.256   2.166 -0.0114  0.4269  0.7782
 1251TIP3    H225389   0.472   3.395   2.146  1.1220 -0.2235 -0.8688
 1252TIP3   OH225390   3.917   4.112   1.870 -0.2332  0.0539  0.5805
 1252TIP3    H125391   3.877   4.152   1.947  1.7169  0.6447  1.3591
 1252TIP3    H225392   3.850   4.118   1.801 -0.9255  2.3259  1.3791
 1253TIP3   OH225393   2.485   0.474   1.611 -0.2567  0.0111  0.2949
 1253TIP3    H125394   2.431   0.545   1.646 -1.0374  0.0996 -1.0299
 1253TIP3    H225395   2.470   0.476   1.517 -0.5227 -2.0813  0.2393
 1254TIP3   OH225396   2.705   1.007   8.004  0.6582  0.4368 -0.2784
 1254TIP3    H125397   2.677   1.032   7.916 -0.6386  1.3399  0.3544
 1254TIP3    H225398   2.771   1.072   8.028  1.9082 -0.5052 -0.9941
 1255TIP3   OH225399   5.375   6.888   2.059  0.3604  0.6387  0.0312
 1255TIP3    H125400   5.354   6.852   1.972 -0.0896  0.6984  0.1162
 1255TIP3    H225401   5.457   6.936   2.045  1.9024 -1.7477  0.2463
 1256TIP3   OH225402   2.505   6.119   1.954  0.5011  0.4179  0.0290
 1256TIP3    H125403   2.560   6.157   1.885 -1.2569  0.7008 -1.2714
 1256TIP3    H225404   2.506   6.025   1.936 -0.1190  0.5113 -0.5371
 1257TIP3   OH225405   0.017   3.287   2.048  0.1637 -0.0094 -0.2096
 1257TIP3    H125406   0.076   3.336   1.990  1.0533  0.0838  0.7411
 1257TIP3    H225407   0.074   3.224   2.092 -0.3781  0.3285  1.0164
 1258TIP3   OH225408   1.490   1.790   1.725 -0.6132 -0.4669 -1.0354
 1258TIP3    H125409   1.583   1.769   1.717 -0.7052 -1.8047  0.8142
 1258TIP3    H225410   1.457   1.784   1.636  1.3222  1.5767 -2.0003
 1259TIP3   OH225411   2.472   2.645   1.817  0.1071 -0.4679 -0.4247
 1259TIP3    H125412   2.427   2.662   1.900  1.3354 -0.8560  0.3385
 1259TIP3    H225413   2.472   2.730   1.773  0.5991  0.0608  0.5572
 1260TIP3   OH225414   6.138   5.090   0.088 -0.2889 -0.5298  0.2900
 1260TIP3    H125415   6.137   5.155   0.159  0.1611 -0.5874  0.3539
 1260TIP3    H225416   6.105   5.010   0.129  2.8770 -1.4551  1.3542
 1261TIP3   OH225417   6.156   2.594   0.710 -0.5524 -0.2413  0.1472
 1261TIP3    H125418   6.149   2.584   0.805 -0.8384 -1.6454 -0.0070
 1261TIP3    H225419   6.213   2.522   0.682  0.4467  0.8059 -0.6391
 1262TIP3   OH225420   2.991   4.540   2.488 -0.1985 -0.0841 -0.3149
 1262TIP3    H125421   2.951   4.567   2.570  0.3822 -0.4435  0.0934
 1262TIP3    H225422   3.085   4.545   2.504 -0.0482  1.4488 -1.4906
 1263TIP3   OH225423   5.713   4.422   0.584 -0.3756  0.2064 -0.1863
 1263TIP3    H125424   5.653   4.494   0.601 -1.6911 -0.1174 -2.9330
 1263TIP3    H225425   5.781   4.459   0.528  2.5807  0.7334  3.3738
 1264TIP3   OH225426   1.278   3.449   0.191  0.6626 -0.5803  0.0385
 1264TIP3    H125427   1.328   3.414   0.265 -1.3843 -1.8014  0.9363
 1264TIP3    H225428   1.276   3.544   0.206  2.8852 -0.4511 -0.2109
 1265TIP3   OH225429   5.594   5.455   1.102 -0.2256 -0.2009 -0.2734
 1265TIP3    H125430   5.656   5.383   1.094  0.0670 -0.1118  1.0048
 1265TIP3    H225431   5.612   5.512   1.027  1.0837 -0.2889 -0.0368
 1266TIP3   OH225432   5.694   2.218   1.197 -1.0448  0.2519  0.8409
 1266TIP3    H125433   5.634   2.271   1.249 -0.3391  1.0459  0.8749
 1266TIP3    H225434   5.670   2.236   1.106 -1.1126  0.2697  0.8626
 1267TIP3   OH225435   5.095   5.235   1.760  0.5576  0.1475  0.3742
 1267TIP3    H125436   5.008   5.227   1.799  0.0151  1.1065 -0.6062
 1267TIP3    H225437   5.149   5.173   1.810 -0.1919  0.9993  2.3569
 1268TIP3   OH225438   6.642   6.704   3.716  0.2706 -0.4932  0.3543
 1268TIP3    H125439   6.722   6.693   3.664  0.3509 -1.0108  0.5805
 1268TIP3    H225440   6.669   6.756   3.791  0.1830  0.1502 -0.0494
 1269TIP3   OH225441   4.026   4.730   2.169 -0.2075  0.0254 -0.1110
 1269TIP3    H125442   4.030   4.650   2.116 -1.7197 -1.6273  2.1077
 1269TIP3    H225443   4.095   4.719   2.235 -0.4809  0.5158  0.2632
 1270TIP3   OH225444   2.256   6.048   3.038  0.1999  0.2073 -0.3395
 1270TIP3    H125445   2.326   6.113   3.040  2.0883 -1.7204 -0.4282
 1270TIP3    H225446   2.239   6.029   3.131  0.2070  0.2614 -0.3273
 1271TIP3   OH225447   5.484   6.449   1.570  0.5567  0.3798  0.4468
 1271TIP3    H125448   5.470   6.379   1.634 -1.8597  0.3390 -0.0148
 1271TIP3    H225449   5.506   6.526   1.622  1.8057 -0.3536  1.0581
 1272TIP3   OH225450   6.083   1.300   8.001 -0.2729  0.3122  0.1380
 1272TIP3    H125451   6.171   1.337   8.010  0.2203 -0.7954  0.0382
 1272TIP3    H225452   6.097   1.206   7.995 -1.5886 -0.0871  2.0925
 1273TIP3   OH225453   4.980   0.993   0.146 -0.3673  0.0233  0.1981
 1273TIP3    H125454   4.958   0.972   0.055  3.4098 -1.2405 -0.5988
 1273TIP3    H225455   4.985   1.088   0.148 -1.0623  0.0995 -0.7217
 1274TIP3   OH225456   0.594   1.933   2.879  0.4766  0.1031  0.1271
 1274TIP3    H125457   0.627   1.983   2.804  0.7752  0.6372  0.6003
 1274TIP3    H225458   0.514   1.892   2.847 -0.5166  1.9699  0.0811
 1275TIP3   OH225459   0.117   6.423   8.242  0.1609  0.5708  0.4905
 1275TIP3    H125460   0.125   6.369   8.321 -0.9214 -0.0189  0.2104
 1275TIP3    H225461   0.203   6.416   8.200  0.0701 -0.9196  0.4891
 1276TIP3   OH225462   4.710   3.796   3.431 -0.0699 -0.4090 -0.0004
 1276TIP3    H125463   4.637   3.750   3.472 -1.0228  1.1011  0.0851
 1276TIP3    H225464   4.754   3.841   3.503  0.0475 -0.1337 -0.2406
 1277TIP3   OH225465   2.851   4.426   0.775  0.1023  0.3309 -0.8153
 1277TIP3    H125466   2.880   4.344   0.737 -1.3756 -0.4837 -0.3021
 1277TIP3    H225467   2.755   4.420   0.775 -0.0309  1.8842 -0.4068
 1278TIP3   OH225468   5.638   4.500   7.281 -0.5146  0.1572 -0.3239
 1278TIP3    H125469   5.613   4.525   7.370 -0.4812  1.6482 -0.6965
 1278TIP3    H225470   5.580   4.427   7.259  0.9774 -1.7616  1.6838
 1279TIP3   OH225471   0.996   3.593   2.926  0.0430  0.6942 -0.3306
 1279TIP3    H125472   0.964   3.676   2.890 -1.0425  0.3009 -0.3240
 1279TIP3    H225473   0.947   3.581   3.007 -0.5312 -0.3836 -0.7950
 1280TIP3   OH225474   1.143   4.999   3.468  0.5116  0.3469  0.4349
 1280TIP3    H125475   1.048   5.002   3.478  0.4312  1.1861 -0.4607
 1280TIP3    H225476   1.174   4.953   3.547 -0.4893  1.6323  1.6245
 1281TIP3   OH225477   2.672   3.056   7.970  0.7297  0.0105 -0.0261
 1281TIP3    H125478   2.712   3.007   8.041 -0.9355 -0.1001  0.8808
 1281TIP3    H225479   2.681   2.999   7.893  1.3400 -0.4622  0.3900
 1282TIP3   OH225480   6.590   1.756   0.843  0.8528  0.3916  0.7832
 1282TIP3    H125481   6.667   1.762   0.899  1.9847  0.0583 -0.6780
 1282TIP3    H225482   6.524   1.810   0.886  1.5238 -0.2151  2.6497
 1283TIP3   OH225483   4.978   3.275   0.205  0.5646  0.2839  0.0186
 1283TIP3    H125484   4.974   3.331   0.283  2.5964  0.3208  0.1562
 1283TIP3    H225485   4.905   3.304   0.151  0.2640  1.5816  1.0570
 1284TIP3   OH225486   6.520   6.315   3.690 -0.1778  0.1228  0.2587
 1284TIP3    H125487   6.593   6.279   3.740  2.7637  3.8872 -0.9215
 1284TIP3    H225488   6.550   6.315   3.600 -3.5853 -2.3125 -1.0879
 1285TIP3   OH225489   1.380   3.094   2.465 -0.5858  0.0018  0.1226
 1285TIP3    H125490   1.352   3.079   2.555  0.2014  0.1065  0.3904
 1285TIP3    H225491   1.326   3.167   2.434  0.0549  0.8303  0.9434
 1286TIP3   OH225492   5.645   6.852   8.261  0.0417 -0.1343  0.1977
 1286TIP3    H125493   5.729   6.808   8.271  0.3418  0.0863 -1.2044
 1286TIP3    H225494   5.667   6.944   8.249 -0.5027  0.1884  1.4761
 1287TIP3   OH225495   5.026   0.830   1.508 -0.5913  0.5264 -0.0341
 1287TIP3    H125496   4.985   0.915   1.523 -0.3791  0.9520 -1.6737
 1287TIP3    H225497   5.115   0.851   1.480  0.3219 -0.3428  2.0032
 1288TIP3   OH225498   2.328   3.496   1.887  0.3719  0.1394 -0.1016
 1288TIP3    H125499   2.404   3.452   1.926  0.0742 -1.3876 -1.1622
 1288TIP3    H225500   2.329   3.584   1.926  0.7308 -0.9106  2.4920
 1289TIP3   OH225501   1.673   2.064   2.196 -0.5007 -0.2540 -0.6945
 1289TIP3    H125502   1.680   2.063   2.291  1.1893  3.0119 -0.6304
 1289TIP3    H225503   1.719   1.985   2.168  0.0365 -0.6591  1.1766
 1290TIP3   OH225504   1.004   1.056   3.401 -0.7267 -0.1559  0.4571
 1290TIP3    H125505   1.094   1.027   3.385 -0.6340 -0.3991  1.3163
 1290TIP3    H225506   1.005   1.086   3.492 -1.1420  1.3614 -0.0215
 1291TIP3   OH225507   5.551   0.826   7.647  1.0052 -0.0428  0.2530
 1291TIP3    H125508   5.464   0.866   7.645  1.0970  0.2060  0.9443
 1291TIP3    H225509   5.602   0.883   7.705  1.8325  0.2199 -0.7016
 1292TIP3   OH225510   0.010   6.718   2.793  0.1589 -0.4457 -0.2173
 1292TIP3    H125511  -0.015   6.785   2.728  1.3264 -2.4856 -2.9535
 1292TIP3    H225512   0.071   6.764   2.851 -1.2504  1.5953 -0.2514
 1293TIP3   OH225513   5.900   0.650   0.634  0.2603  0.0847  0.4586
 1293TIP3    H125514   5.835   0.718   0.650  0.1476 -0.0068  0.3920
 1293TIP3    H225515   5.857   0.589   0.574  1.4336  1.5603 -2.0405
 1294TIP3   OH225516   5.487   4.486   1.657  0.1354  0.5548 -0.4076
 1294TIP3    H125517   5.411   4.519   1.609 -0.7827 -0.4207  0.3270
 1294TIP3    H225518   5.486   4.392   1.644  1.4537  0.5606 -0.6891
 1295TIP3   OH225519   4.080   5.714   0.215  0.4610  0.3324  0.2641
 1295TIP3    H125520   4.045   5.625   0.215 -1.0110  0.8611 -1.5765
 1295TIP3    H225521   4.018   5.764   0.267 -0.5988  0.9172 -1.5099
 1296TIP3   OH225522   0.460   3.788   3.032 -0.6293  0.8454  0.2592
 1296TIP3    H125523   0.457   3.764   2.940  2.2882  1.0270  0.0215
 1296TIP3    H225524   0.461   3.704   3.078  0.8133  0.6393 -0.0904
 1297TIP3   OH225525   4.031   3.875   2.079  0.1178  0.6114 -0.0033
 1297TIP3    H125526   4.070   3.961   2.064  0.4428  0.6360  0.9088
 1297TIP3    H225527   3.937   3.892   2.087  0.2734  1.0410  1.1587
 1298TIP3   OH225528   4.938   2.312   7.848  0.1849  0.4109  0.2246
 1298TIP3    H125529   5.029   2.301   7.875  0.0091  1.7124  1.4654
 1298TIP3    H225530   4.887   2.262   7.911 -0.0099  0.3813  0.0459
 1299TIP3   OH225531   4.854   3.551   2.884  0.5574 -0.3499 -0.4742
 1299TIP3    H125532   4.792   3.538   2.956  0.0530 -1.3412 -1.0689
 1299TIP3    H225533   4.892   3.638   2.900 -2.1833  1.0536 -1.0003
 1300TIP3   OH225534   3.376   4.705   0.225 -0.1581 -0.4532 -0.1111
 1300TIP3    H125535   3.406   4.678   0.138 -0.1632  0.6687 -0.4788
 1300TIP3    H225536   3.446   4.677   0.284  0.5843  0.1622 -0.6798
 1301TIP3   OH225537   5.026   6.872   0.036  0.4875  0.1853  0.2943
 1301TIP3    H125538   4.962   6.801   0.045 -0.9626  1.5301  1.0209
 1301TIP3    H225539   5.074   6.872   0.118 -0.1969  0.6594  0.7069
 1302TIP3   OH225540   0.057   6.116   3.308 -0.0077  0.0701  0.4906
 1302TIP3    H125541   0.121   6.185   3.287  0.5235 -1.1039 -2.2303
 1302TIP3    H225542   0.111   6.040   3.332 -0.3965 -0.5237 -0.4507
 1303TIP3   OH225543   0.744   2.734   7.653 -0.3320  0.8282  0.0385
 1303TIP3    H125544   0.713   2.710   7.566 -0.9941  1.1904  0.1691
 1303TIP3    H225545   0.786   2.655   7.686 -0.7919  0.4357 -0.2956
 1304TIP3   OH225546   1.170   2.961   3.847  0.3144  0.4049 -0.2246
 1304TIP3    H125547   1.164   3.038   3.904 -2.9441 -0.5518  0.9682
 1304TIP3    H225548   1.249   2.915   3.878  0.7447  1.8328  0.9257
 1305TIP3   OH225549   0.602   6.837   1.532  0.0913  0.0314 -0.0049
 1305TIP3    H125550   0.585   6.930   1.517  0.4680  0.1199  0.1138
 1305TIP3    H225551   0.624   6.802   1.445  1.3112  0.3432  0.1642
 1306TIP3   OH225552   1.838   0.002   2.916 -0.1781 -0.0108 -0.0674
 1306TIP3    H125553   1.888   0.020   2.836  0.6253  0.0389  0.4369
 1306TIP3    H225554   1.802  -0.085   2.903  1.0361 -0.5477  0.0441
 1307TIP3   OH225555   3.741   5.211   2.362 -0.2453 -0.2280 -0.2339
 1307TIP3    H125556   3.835   5.223   2.374 -0.2308  2.2766 -1.9420
 1307TIP3    H225557   3.732   5.124   2.323  1.1740 -1.0786  1.2413
 1308TIP3   OH225558   0.217   2.661   7.532 -0.3450 -0.5638  0.1513
 1308TIP3    H125559   0.262   2.707   7.461 -1.5646  0.9544  0.3215
 1308TIP3    H225560   0.183   2.581   7.491  0.3652 -0.5149 -0.5611
 1309TIP3   OH225561   1.448   5.316   2.912  0.1655 -0.0894  0.3389
 1309TIP3    H125562   1.407   5.235   2.883  1.2186 -0.4638 -0.1668
 1309TIP3    H225563   1.463   5.302   3.006  0.9599 -0.7797  0.1281
 1310TIP3   OH225564   0.022   0.099   1.226 -0.6487 -0.1525 -0.3589
 1310TIP3    H125565  -0.000   0.186   1.193 -2.5510 -0.5029 -0.1034
 1310TIP3    H225566  -0.026   0.039   1.171  0.6452 -1.0794 -0.5264
 1311TIP3   OH225567   4.987   0.053   2.730  0.0126 -0.9047 -0.3484
 1311TIP3    H125568   5.073   0.041   2.770 -0.9400 -0.2298  2.0235
 1311TIP3    H225569   4.936  -0.022   2.759 -0.3596 -1.0546 -1.3502
 1312TIP3   OH225570   5.031   6.225   7.683 -0.0550 -0.1003  0.1571
 1312TIP3    H125571   5.050   6.314   7.653 -0.3980  0.0847  0.4863
 1312TIP3    H225572   5.112   6.196   7.724  0.5019 -0.4384 -1.1224
 1313TIP3   OH225573   1.368   4.863   2.334 -0.0883  0.0375  0.2247
 1313TIP3    H125574   1.428   4.808   2.386  1.1538  0.8910 -0.2501
 1313TIP3    H225575   1.307   4.898   2.399 -0.9743 -1.9434  0.5239
 1314TIP3   OH225576   0.256   2.548   3.408 -0.4234  0.1785  0.2563
 1314TIP3    H125577   0.201   2.598   3.469 -0.5827  0.1354  0.1485
 1314TIP3    H225578   0.313   2.495   3.465  0.1029  0.8579  0.3751
 1315TIP3   OH225579   4.270   2.445   0.117 -0.1358 -0.3719  0.0154
 1315TIP3    H125580   4.364   2.428   0.109 -0.3603 -1.9901  0.3886
 1315TIP3    H225581   4.247   2.410   0.203 -1.0174  0.3930  0.1060
 1316TIP3   OH225582   1.279   6.297   1.888  0.1081  0.0340  0.2233
 1316TIP3    H125583   1.308   6.214   1.926 -0.1571 -0.3803 -0.4507
 1316TIP3    H225584   1.331   6.306   1.808  0.1642  0.5432  0.3125
 1317TIP3   OH225585   6.712   3.362   2.193 -0.2545 -0.5213  0.5417
 1317TIP3    H125586   6.793   3.402   2.223 -0.6318 -0.1516  1.1018
 1317TIP3    H225587   6.710   3.379   2.099  0.1293 -0.1905  0.5903
 1318TIP3   OH225588   6.085   3.149   2.639  0.1974 -0.1116 -0.3654
 1318TIP3    H125589   6.162   3.101   2.668 -0.6648 -0.6467  1.1655
 1318TIP3    H225590   6.027   3.082   2.604 -0.8305 -0.2011  1.3746
 1319TIP3   OH225591   0.659   3.133   7.805  0.4101 -0.4374  0.2724
 1319TIP3    H125592   0.650   3.227   7.818 -2.0070 -0.6167  0.4085
 1319TIP3    H225593   0.729   3.124   7.741  1.6376  1.3449  1.2656
 1320TIP3   OH225594   4.763   4.937   0.804 -0.1277 -0.0725  0.2526
 1320TIP3    H125595   4.741   4.933   0.897 -0.0864 -1.4416  0.2177
 1320TIP3    H225596   4.858   4.949   0.803 -0.3976  3.0083  0.3703
 1321TIP3   OH225597   2.855   1.025   2.133 -0.0558  0.4771  0.0181
 1321TIP3    H125598   2.839   1.058   2.222 -4.7454 -1.1792  0.0468
 1321TIP3    H225599   2.772   1.037   2.087  1.6984 -0.2665 -3.7049
 1322TIP3   OH225600   0.028   1.766   1.452 -0.6843  0.5033  0.0206
 1322TIP3    H125601   0.068   1.795   1.534  0.1979  1.2813 -0.6668
 1322TIP3    H225602  -0.028   1.839   1.426 -3.2980 -0.8493  1.3608
 1323TIP3   OH225603   5.256   6.975   1.684  0.0587 -0.2696  0.3872
 1323TIP3    H125604   5.235   6.892   1.727  0.8864 -0.7431 -0.1179
 1323TIP3    H225605   5.234   7.041   1.749  3.5042 -1.0355  2.5701
 1324TIP3   OH225606   0.258   5.846   3.333 -0.1371  0.4606 -0.4646
 1324TIP3    H125607   0.318   5.860   3.407  0.3463 -1.0318 -0.5316
 1324TIP3    H225608   0.313   5.858   3.255  1.1753 -4.2155 -0.5889
 1325TIP3   OH225609   1.520   4.723   3.251 -0.2433  0.3116 -0.0189
 1325TIP3    H125610   1.462   4.708   3.326 -0.3852  2.2520  0.2918
 1325TIP3    H225611   1.606   4.740   3.290  0.1060 -0.4843 -0.4030
 1326TIP3   OH225612   5.450   5.468   3.807  0.0444 -0.4904  0.5187
 1326TIP3    H125613   5.440   5.556   3.844  1.8918  0.6171 -1.4232
 1326TIP3    H225614   5.368   5.453   3.760  0.0574  0.6015  0.1157
 1327TIP3   OH225615   5.438   2.635   2.734 -0.0958 -0.1186 -0.0061
 1327TIP3    H125616   5.394   2.611   2.816  1.2798 -0.9801  0.5115
 1327TIP3    H225617   5.448   2.552   2.687 -0.5192  0.3152 -0.8976
 1328TIP3   OH225618   0.733   2.886   2.713 -0.0452  0.3989  0.2410
 1328TIP3    H125619   0.826   2.864   2.720 -0.1812 -0.9419 -1.4236
 1328TIP3    H225620   0.730   2.981   2.716  1.5995  0.5616 -1.6334
 1329TIP3   OH225621   6.796   5.875   1.318 -0.3146  0.2600 -0.1011
 1329TIP3    H125622   6.762   5.903   1.233 -1.1421 -1.1392 -0.2491
 1329TIP3    H225623   6.840   5.792   1.299 -0.4026  0.0022  0.8175
 1330TIP3   OH225624   1.019   4.445   2.232 -0.1060 -0.2480 -0.2147
 1330TIP3    H125625   0.937   4.466   2.187  1.2905  3.1267 -1.5118
 1330TIP3    H225626   1.026   4.512   2.300  1.4551 -0.6325  0.0258
 1331TIP3   OH225627   3.785   2.687   0.817 -0.3606  0.1497  0.6867
 1331TIP3    H125628   3.720   2.643   0.873  0.5664  0.0204  1.6923
 1331TIP3    H225629   3.741   2.696   0.732 -1.8686  0.4934  1.4648
 1332TIP3   OH225630   3.137   3.689   0.644 -0.6097 -0.4728 -0.2086
 1332TIP3    H125631   3.221   3.707   0.601 -0.0234 -0.2217  1.0018
 1332TIP3    H225632   3.086   3.643   0.577  0.1398  0.1989 -1.2822
 1333TIP3   OH225633   5.784   1.335   1.332  0.1382  0.2960 -0.3338
 1333TIP3    H125634   5.749   1.285   1.259 -0.0681  1.3879 -0.9959
 1333TIP3    H225635   5.875   1.354   1.308  0.1570  0.4075 -0.1789
 1334TIP3   OH225636   4.349   6.360   2.842  0.2176 -0.0492 -0.1254
 1334TIP3    H125637   4.404   6.287   2.815  0.5658  0.7037 -1.5500
 1334TIP3    H225638   4.405   6.413   2.899  0.0382 -0.7512  0.7158
 1335TIP3   OH225639   3.882   1.582   7.188 -0.3856  0.5726  0.0477
 1335TIP3    H125640   3.800   1.548   7.224 -0.8922  0.3858 -1.2446
 1335TIP3    H225641   3.871   1.677   7.190 -1.3565  0.5348 -1.6628
 1336TIP3   OH225642   6.476   5.145   2.462  0.1211  0.4254 -0.2884
 1336TIP3    H125643   6.559   5.178   2.497  0.7499 -0.4020 -0.9483
 1336TIP3    H225644   6.410   5.208   2.492  0.8757  0.6808  0.8795
 1337TIP3   OH225645   0.552   6.653   1.792  0.5263  0.6606 -0.6867
 1337TIP3    H125646   0.566   6.630   1.884  1.5341  1.2817 -0.6698
 1337TIP3    H225647   0.457   6.648   1.780  0.3151  1.3231  0.5954
 1338TIP3   OH225648   4.716   1.560   3.644  0.3159  0.0390  0.6951
 1338TIP3    H125649   4.734   1.467   3.629  3.6816  0.3927  1.6550
 1338TIP3    H225650   4.752   1.603   3.566  2.5236  0.7033  1.9819
 1339TIP3   OH225651   2.615   6.503   3.901 -0.4991 -0.2662 -0.3232
 1339TIP3    H125652   2.523   6.516   3.920 -0.3908 -0.4080  0.3170
 1339TIP3    H225653   2.624   6.408   3.888 -0.7104 -0.1036 -1.8792
 1340TIP3   OH225654   4.943   5.270   2.040  0.1516  0.3508 -0.0255
 1340TIP3    H125655   4.962   5.178   2.060 -1.9938 -0.7282 -2.3306
 1340TIP3    H225656   4.853   5.282   2.071  1.0269  2.3154  1.9549
 1341TIP3   OH225657   6.585   5.242   0.872  0.1053  0.2152  0.3768
 1341TIP3    H125658   6.660   5.267   0.926 -0.6922 -0.0595  1.6482
 1341TIP3    H225659   6.623   5.183   0.806  0.9233 -0.3913  1.3513
 1342TIP3   OH225660   5.630   4.239   2.943  0.0893  0.1892 -0.0211
 1342TIP3    H125661   5.655   4.279   3.026  1.1471 -1.0358  0.2748
 1342TIP3    H225662   5.539   4.267   2.930  0.7782  2.6661  0.1335
 1343TIP3   OH225663   4.961   5.251   0.715 -0.0768  0.4346  0.5580
 1343TIP3    H125664   5.051   5.264   0.744 -0.2180 -0.0410  1.2176
 1343TIP3    H225665   4.968   5.194   0.638  0.1324 -0.2346  1.0697
 1344TIP3   OH225666   1.520   2.713   8.177 -0.3964 -0.2403  0.1837
 1344TIP3    H125667   1.596   2.742   8.126 -0.7311  2.2107  0.9405
 1344TIP3    H225668   1.557   2.659   8.247  0.8571  1.6855  1.1156
 1345TIP3   OH225669   1.721   6.103   1.232 -0.4925 -0.5855  0.6369
 1345TIP3    H125670   1.751   6.012   1.228 -0.1989 -0.4515 -2.1876
 1345TIP3    H225671   1.670   6.115   1.152  0.1183  1.9496  0.5576
 1346TIP3   OH225672   1.996   2.131   2.213  0.1860 -0.2465 -0.5264
 1346TIP3    H125673   1.918   2.083   2.240  0.2769  0.1638  0.5118
 1346TIP3    H225674   2.013   2.101   2.124 -1.0799 -0.4421 -0.7241
 1347TIP3   OH225675   1.793   0.203   3.101 -0.0238  0.0788  0.2422
 1347TIP3    H125676   1.782   0.159   3.185  0.3764  0.0630  0.2878
 1347TIP3    H225677   1.828   0.135   3.043 -3.8582 -1.0775 -1.0387
 1348TIP3   OH225678   1.003   5.865   8.201  0.3075 -0.1099  0.4714
 1348TIP3    H125679   1.000   5.903   8.114  1.0432 -0.7137  0.1673
 1348TIP3    H225680   0.967   5.776   8.191 -1.1800  0.3796  1.1252
 1349TIP3   OH225681   2.666   6.328   2.746 -0.3269 -1.1091 -0.2349
 1349TIP3    H125682   2.628   6.343   2.660 -1.3306 -2.1935 -0.0132
 1349TIP3    H225683   2.730   6.258   2.733 -1.7644 -2.5768  0.1541
 1350TIP3   OH225684   2.570   0.717   0.601  0.1420  0.3044  0.0656
 1350TIP3    H125685   2.665   0.703   0.601  0.3443  1.4682  1.3131
 1350TIP3    H225686   2.534   0.634   0.633  0.7808  0.0721  0.2061
 1351TIP3   OH225687   3.727   1.342   2.080  0.2431 -0.3242  0.0289
 1351TIP3    H125688   3.706   1.343   1.987  0.0369  0.5407  0.0741
 1351TIP3    H225689   3.813   1.300   2.085 -0.3943 -1.7307 -0.3870
 1352TIP3   OH225690   0.088   4.881   3.260 -1.0402  0.1628 -0.0286
 1352TIP3    H125691   0.109   4.914   3.347  0.3525  0.6840 -0.5363
 1352TIP3    H225692   0.123   4.948   3.200  2.0268 -2.1786 -1.1118
 1353TIP3   OH225693   2.596   3.820   1.107 -0.2131 -0.2670 -0.6380
 1353TIP3    H125694   2.568   3.905   1.072  1.2363  0.1307 -0.9289
 1353TIP3    H225695   2.672   3.841   1.161 -0.0317 -1.3424 -0.4613
 1354TIP3   OH225696   4.389   3.796   1.472 -0.3349 -0.1080  0.4844
 1354TIP3    H125697   4.485   3.797   1.480 -0.2587 -0.2889 -0.2827
 1354TIP3    H225698   4.361   3.880   1.508  0.4313  1.6097 -2.5905
 1355TIP3   OH225699   4.610   5.783   1.366  0.2458  0.0488  0.7705
 1355TIP3    H125700   4.668   5.827   1.304 -0.2504  1.4428  1.2532
 1355TIP3    H225701   4.634   5.691   1.360  0.3312  0.1550 -1.3702
 1356TIP3   OH225702   3.076   2.088   2.838 -0.0814 -0.1483 -0.0451
 1356TIP3    H125703   2.992   2.091   2.885 -0.0312 -4.0046  0.5901
 1356TIP3    H225704   3.141   2.110   2.904 -0.3653 -0.6068  0.3962
 1357TIP3   OH225705   5.727   0.978   0.804  0.8860  0.2706  0.1680
 1357TIP3    H125706   5.822   0.988   0.802  1.0243 -1.0151 -0.8419
 1357TIP3    H225707   5.695   1.028   0.729  0.9362 -0.6889 -0.5115
 1358TIP3   OH225708   2.057   6.760   2.480  0.3536 -0.5942 -0.2602
 1358TIP3    H125709   1.998   6.690   2.508 -1.2761  0.9675  0.4003
 1358TIP3    H225710   2.037   6.772   2.387  0.2451 -0.6511 -0.2449
 1359TIP3   OH225711   1.996   1.443   1.438  0.4337 -0.0753 -0.3403
 1359TIP3    H125712   1.990   1.466   1.531 -1.8194  2.3142 -0.9875
 1359TIP3    H225713   2.091   1.435   1.422  0.9829  1.6123  1.6723
 1360TIP3   OH225714   3.327   3.545   7.783  0.8144  0.9826  0.2637
 1360TIP3    H125715   3.288   3.572   7.700  3.3760  1.5765 -0.8619
 1360TIP3    H225716   3.397   3.484   7.758 -1.2988 -2.6439  2.3797
 1361TIP3   OH225717   6.389   4.034   1.452  0.0905  0.0113  0.0650
 1361TIP3    H125718   6.409   4.103   1.388 -0.0463  0.2948  0.3255
 1361TIP3    H225719   6.474   3.999   1.476  0.1937  0.3557  0.2187
 1362TIP3   OH225720   2.934   2.018   1.106 -0.4082  0.0325  0.3508
 1362TIP3    H125721   2.868   2.070   1.151 -0.0049  0.8060  0.0645
 1362TIP3    H225722   3.009   2.017   1.165 -1.1284 -2.0503  1.3296
 1363TIP3   OH225723   0.960   2.406   3.915 -0.0717 -0.2333  0.2880
 1363TIP3    H125724   1.006   2.369   3.840 -0.7154  0.7286 -0.6029
 1363TIP3    H225725   0.981   2.499   3.913 -0.7133 -0.0643  0.8562
 1364TIP3   OH225726   5.443   1.056   1.083 -0.3302  0.2640 -0.2197
 1364TIP3    H125727   5.464   0.967   1.053 -0.7930  0.1727 -0.2904
 1364TIP3    H225728   5.357   1.074   1.045 -1.0450  0.0528  1.2153
 1365TIP3   OH225729   1.163   2.918   0.809  0.2678 -0.1318 -0.3064
 1365TIP3    H125730   1.093   2.977   0.782 -0.0159 -0.5874 -0.5920
 1365TIP3    H225731   1.200   2.886   0.726  1.2851  0.6462 -0.1686
 1366TIP3   OH225732   1.905   5.762   0.824 -0.0005  0.5296  0.6712
 1366TIP3    H125733   1.852   5.841   0.837 -1.9750 -0.2112 -2.0406
 1366TIP3    H225734   1.936   5.769   0.734  1.3834 -0.9193  1.0015
 1367TIP3   OH225735   6.409   3.912   0.280  0.2481  0.5145  0.4113
 1367TIP3    H125736   6.497   3.950   0.277  0.6633 -0.2132  1.9669
 1367TIP3    H225737   6.407   3.864   0.363 -0.7975 -1.5029 -0.7030
 1368TIP3   OH225738   0.631   0.246   0.421 -0.4247 -0.2378  0.2045
 1368TIP3    H125739   0.537   0.259   0.426 -0.4392 -0.2306 -0.0791
 1368TIP3    H225740   0.657   0.220   0.509 -0.8339 -1.2465  0.0308
 1369TIP3   OH225741   5.123   6.157   1.110 -0.0364  0.2112 -0.3000
 1369TIP3    H125742   5.079   6.078   1.142  0.4702  0.2119  0.4215
 1369TIP3    H225743   5.114   6.153   1.015 -1.2776  0.0333 -0.1848
 1370TIP3   OH225744   2.523   5.234   2.635  0.1994 -0.6398  0.2947
 1370TIP3    H125745   2.455   5.167   2.643  0.7414 -1.1056  1.1831
 1370TIP3    H225746   2.549   5.253   2.726  0.7228  0.0881  0.0064
 1371TIP3   OH225747   2.389   2.342   0.362  0.1042 -0.0440 -0.0518
 1371TIP3    H125748   2.444   2.266   0.379  0.8034  0.5896  0.5718
 1371TIP3    H225749   2.444   2.401   0.310  0.0706  0.6463  0.6700
 1372TIP3   OH225750   2.657   6.291   7.973  0.0189 -0.2254 -0.7153
 1372TIP3    H125751   2.653   6.252   7.886  0.4056  0.2801 -0.9613
 1372TIP3    H225752   2.701   6.225   8.027  1.1610  0.0704 -1.2535
 1373TIP3   OH225753   5.747   3.114   1.978 -0.0082 -0.5230 -0.2996
 1373TIP3    H125754   5.656   3.108   2.007  0.3687  1.2673  1.5030
 1373TIP3    H225755   5.745   3.172   1.902 -0.3323  0.0688  0.1496
 1374TIP3   OH225756   6.226   6.081   7.862  0.5133 -0.4397 -0.0028
 1374TIP3    H125757   6.196   6.093   7.772 -2.4166 -1.0458  0.7723
 1374TIP3    H225758   6.268   6.163   7.885 -1.2807  0.8440 -1.0500
 1375TIP3   OH225759   3.435   1.441   2.669  0.4856 -0.3899 -0.0175
 1375TIP3    H125760   3.446   1.394   2.752 -0.6451 -1.0737 -0.2396
 1375TIP3    H225761   3.365   1.395   2.624  0.2013  0.7614 -0.8022
 1376TIP3   OH225762   6.252   1.163   1.466  0.4198 -0.2613 -0.0582
 1376TIP3    H125763   6.290   1.118   1.541  1.0375 -0.0737 -0.2504
 1376TIP3    H225764   6.273   1.107   1.391  0.0272 -0.3239 -0.1209
 1377TIP3   OH225765   5.939   3.054   0.586 -0.4383  0.0442 -1.0430
 1377TIP3    H125766   5.844   3.063   0.572 -0.3956 -0.1302 -1.4480
 1377TIP3    H225767   5.955   2.960   0.582 -0.4165 -0.0242  0.1703
 1378TIP3   OH225768   3.617   3.940   1.906 -0.1521  0.1845  0.2081
 1378TIP3    H125769   3.529   3.945   1.945  0.2572  0.7063  1.0947
 1378TIP3    H225770   3.624   4.019   1.852 -0.2780  0.0669  0.0177
 1379TIP3   OH225771   2.430   4.000   2.385 -0.1600 -0.1738  0.6227
 1379TIP3    H125772   2.366   4.066   2.359  2.1043  1.2039 -1.9878
 1379TIP3    H225773   2.418   3.990   2.479 -2.5943  1.7230  0.5987
 1380TIP3   OH225774   6.457   6.369   0.501  0.4104  0.4440  0.6324
 1380TIP3    H125775   6.529   6.361   0.563  0.5640 -2.5596  0.1855
 1380TIP3    H225776   6.401   6.293   0.518 -1.6114  1.6017 -0.3781
 1381TIP3   OH225777   2.181   3.251   1.242  0.1671  0.5769 -0.0101
 1381TIP3    H125778   2.108   3.262   1.181  0.0517  0.6701  0.1471
 1381TIP3    H225779   2.143   3.264   1.328  0.0877 -0.7447  0.1623
 1382TIP3   OH225780   3.728   3.401   8.062  0.0613  0.0595  0.0656
 1382TIP3    H125781   3.729   3.423   7.969  1.1968 -0.5909 -0.0900
 1382TIP3    H225782   3.676   3.321   8.067 -0.6139  0.4904  0.0989
 1383TIP3   OH225783   0.888   0.715   0.909  0.6742  0.1946 -0.0968
 1383TIP3    H125784   0.859   0.761   0.831  0.4546  1.0518  0.4742
 1383TIP3    H225785   0.957   0.656   0.878  1.6051  1.5535 -0.7386
 1384TIP3   OH225786   2.773   0.276   7.820  0.4080  0.1974  0.2356
 1384TIP3    H125787   2.699   0.324   7.782  0.3667  1.8556  2.2345
 1384TIP3    H225788   2.850   0.313   7.778  0.2458  0.4890  0.1911
 1385TIP3   OH225789   3.302   6.610   7.105  0.4505  0.5460  0.7865
 1385TIP3    H125790   3.377   6.660   7.137  1.3735  0.0403 -0.4950
 1385TIP3    H225791   3.228   6.641   7.157  1.6578  0.5527  2.5836
 1386TIP3   OH225792   6.122   5.095   2.999  0.2100  0.1833  0.4522
 1386TIP3    H125793   6.106   5.151   2.924  0.8112  1.0854  0.9743
 1386TIP3    H225794   6.205   5.051   2.979  0.6012  0.7575  0.7557
 1387TIP3   OH225795   2.982   0.600   1.442  0.2008  0.1770  0.5484
 1387TIP3    H125796   2.927   0.606   1.365  1.2558  0.6863 -0.1891
 1387TIP3    H225797   2.942   0.660   1.505 -0.4514  0.0335  0.2746
 1388TIP3   OH225798   3.750   0.172   7.496 -0.4380  0.0816 -0.0177
 1388TIP3    H125799   3.711   0.145   7.413 -0.5222 -0.4506  0.1917
 1388TIP3    H225800   3.797   0.094   7.527  0.6861  0.6577 -0.2017
 1389TIP3   OH225801   3.964   2.219   2.645  0.2391 -0.0426  0.0704
 1389TIP3    H125802   3.966   2.127   2.673 -0.0955  0.8071  3.3404
 1389TIP3    H225803   4.055   2.248   2.655  0.1359  0.2593  0.1237
 1390TIP3   OH225804   3.912   5.699   1.102  0.2908 -0.2225  0.3186
 1390TIP3    H125805   3.998   5.737   1.115  0.4237 -0.5716  0.4759
 1390TIP3    H225806   3.853   5.774   1.093  0.4131  0.0206  1.4883
 1391TIP3   OH225807   6.723   2.231   1.719  0.2146 -0.3093 -0.3168
 1391TIP3    H125808   6.707   2.206   1.628  0.8848 -1.1554 -0.2230
 1391TIP3    H225809   6.726   2.147   1.766 -2.5563  0.1653  0.9405
 1392TIP3   OH225810   4.048   7.061   2.593  0.1375 -0.5138  0.1417
 1392TIP3    H125811   4.017   7.092   2.678  0.6652  1.6499 -0.3942
 1392TIP3    H225812   4.086   6.976   2.611  0.1047 -0.1685  2.0545
 1393TIP3   OH225813   5.857   1.871   2.068  0.1582  0.2019 -0.5505
 1393TIP3    H125814   5.843   1.927   2.144  1.1372 -0.6576  0.2938
 1393TIP3    H225815   5.814   1.917   1.996 -0.5283  1.1800  0.4543
 1394TIP3   OH225816   3.952   1.841   8.187 -0.3876  0.0426 -0.2050
 1394TIP3    H125817   3.988   1.890   8.113 -0.3089 -0.7294 -0.6943
 1394TIP3    H225818   4.029   1.813   8.236 -0.3548 -0.7696 -0.7044
 1395TIP3   OH225819   1.783   6.053   0.491  0.1513  0.5722 -0.4941
 1395TIP3    H125820   1.750   5.971   0.453  0.8193  0.0335  0.0708
 1395TIP3    H225821   1.735   6.121   0.444  0.8941 -0.0594 -2.3097
 1396TIP3   OH225822   1.933   5.627   1.517  0.3175 -0.0242 -0.1073
 1396TIP3    H125823   2.002   5.573   1.556  0.2657 -0.1852 -0.2345
 1396TIP3    H225824   1.949   5.620   1.422  1.3948  1.5931 -0.1020
 1397TIP3   OH225825   1.800   0.792   2.914 -0.2253  0.1445 -0.3408
 1397TIP3    H125826   1.872   0.772   2.974  1.2509  1.5209 -1.5473
 1397TIP3    H225827   1.786   0.712   2.864  1.9537  0.3995 -1.5002
 1398TIP3   OH225828   6.105   1.164   3.349 -0.3268 -0.2402  0.0568
 1398TIP3    H125829   6.157   1.112   3.287  2.1017  1.7032  0.2968
 1398TIP3    H225830   6.137   1.137   3.435  0.6263  1.2383  0.1934
 1399TIP3   OH225831   1.961   2.641   0.567 -0.6198  0.3700 -0.2615
 1399TIP3    H125832   1.964   2.582   0.642 -1.2228  0.4003 -0.2029
 1399TIP3    H225833   2.008   2.594   0.498  1.6397  1.1544  0.6482
 1400TIP3   OH225834   0.012   1.686   0.549  0.1543  0.0191 -0.1885
 1400TIP3    H125835   0.085   1.722   0.599  0.2893  1.2086 -1.1942
 1400TIP3    H225836  -0.060   1.746   0.566 -0.5489 -0.9946  0.5790
 1401TIP3   OH225837   1.677   6.171   1.832 -0.1652 -0.4461 -0.0731
 1401TIP3    H125838   1.602   6.219   1.797 -0.8428  0.8942  2.8554
 1401TIP3    H225839   1.640   6.092   1.871 -0.0968  0.1019  1.1688
 1402TIP3   OH225840   0.211   0.210   1.842  0.2850 -0.2624 -0.0397
 1402TIP3    H125841   0.251   0.198   1.928 -0.5025  0.6493  0.4704
 1402TIP3    H225842   0.120   0.181   1.852  0.5091 -1.3283 -0.9054
 1403TIP3   OH225843   3.088   5.029   1.308  0.4884  0.3581  0.3378
 1403TIP3    H125844   3.022   4.993   1.367 -0.5774 -1.4807 -1.8060
 1403TIP3    H225845   3.102   5.118   1.338 -0.0974 -0.4379  3.2220
 1404TIP3   OH225846   2.058   5.856   1.764 -0.1274 -0.2496  0.2311
 1404TIP3    H125847   2.078   5.763   1.756  0.2425 -0.1404 -0.1519
 1404TIP3    H225848   2.013   5.878   1.682  2.2019  0.5095 -0.9131
 1405TIP3   OH225849   3.703   1.855   2.234  0.0188 -0.1189 -0.0854
 1405TIP3    H125850   3.769   1.887   2.172  2.0730 -1.4986  1.2705
 1405TIP3    H225851   3.662   1.781   2.189  1.9061 -1.4899  0.3289
 1406TIP3   OH225852   3.469   4.613   1.121 -0.0995  0.1906 -0.4500
 1406TIP3    H125853   3.470   4.519   1.135  0.7024  0.1891 -0.4380
 1406TIP3    H225854   3.550   4.644   1.163 -0.6718  0.9661  0.1063
 1407TIP3   OH225855   4.168   5.813   1.094 -0.5094  0.0462 -0.1567
 1407TIP3    H125856   4.204   5.780   1.012  2.7895  0.6388  0.8695
 1407TIP3    H225857   4.158   5.907   1.079 -3.5145 -0.3044 -0.9588
 1408TIP3   OH225858   0.964   3.855   7.530 -0.0506 -0.0205  0.0934
 1408TIP3    H125859   1.038   3.846   7.470 -0.6734  0.0727 -0.7055
 1408TIP3    H225860   0.920   3.770   7.525  0.4984 -0.4012  1.2683
 1409TIP3   OH225861   2.834   4.044   0.940  0.5296  0.2447 -1.1539
 1409TIP3    H125862   2.887   4.061   1.017 -0.3466  0.3912 -0.5742
 1409TIP3    H225863   2.882   3.976   0.892 -0.1393 -1.6773  0.7729
 1410TIP3   OH225864   0.693   3.010   1.629 -0.7859  0.2930  0.2183
 1410TIP3    H125865   0.743   3.006   1.548 -0.4842  0.2157  0.4062
 1410TIP3    H225866   0.619   3.068   1.609  1.0122  3.0222  0.7980
 1411TIP3   OH225867   6.398   7.048   3.658  0.1102  0.1258  0.2011
 1411TIP3    H125868   6.437   7.002   3.731 -0.7525 -0.5235  0.2643
 1411TIP3    H225869   6.307   7.020   3.657  0.1724 -0.1196 -1.3118
 1412TIP3   OH225870   5.673   4.495   8.051 -0.6855  0.0862 -0.3689
 1412TIP3    H125871   5.638   4.522   7.966 -0.1661 -0.8422 -0.8786
 1412TIP3    H225872   5.755   4.544   8.060 -0.8593  0.3681 -0.2816
 1413TIP3   OH225873   0.015   6.675   0.325  0.7811 -0.0868  0.7944
 1413TIP3    H125874  -0.032   6.600   0.287  1.3066  0.1262 -0.3441
 1413TIP3    H225875   0.036   6.647   0.414 -1.2013 -0.2983  1.2376
 1414TIP3   OH225876   4.361   4.910   1.726  0.1961 -0.0505 -0.3328
 1414TIP3    H125877   4.371   5.000   1.758  1.3945  0.3915 -1.8243
 1414TIP3    H225878   4.268   4.892   1.736  0.0316  1.1030  0.6053
 1415TIP3   OH225879   0.656   0.024   8.157 -0.1769 -0.2625  0.0598
 1415TIP3    H125880   0.746   0.055   8.163  0.5180 -2.2856  0.9018
 1415TIP3    H225881   0.627   0.019   8.248 -0.8539 -0.4422 -0.1605
 1416TIP3   OH225882   0.877   5.456   2.116  0.2688  0.4417  0.1404
 1416TIP3    H125883   0.954   5.450   2.059  0.9052 -0.2297  1.0443
 1416TIP3    H225884   0.912   5.484   2.201 -0.2800 -1.2295  0.9542
 1417TIP3   OH225885   4.409   2.329   1.018  0.2081  0.3167  0.6058
 1417TIP3    H125886   4.319   2.309   0.993  0.6051  0.5992 -1.1927
 1417TIP3    H225887   4.404   2.416   1.058 -0.2998  0.3854  0.4030
 1418TIP3   OH225888   3.141   5.581   7.789 -0.3437  0.0740 -0.3959
 1418TIP3    H125889   3.145   5.672   7.818  0.5511 -0.6480  1.9947
 1418TIP3    H225890   3.226   5.566   7.747  0.0268  0.0224  0.3504
 1419TIP3   OH225891   4.540   3.328   1.408 -0.4612  0.4851 -0.1927
 1419TIP3    H125892   4.503   3.357   1.325  1.8201  0.0233 -1.4703
 1419TIP3    H225893   4.517   3.235   1.413 -0.6788  0.5351 -0.2694
 1420TIP3   OH225894   2.933   6.592   2.481 -0.1862 -0.4362 -0.1172
 1420TIP3    H125895   2.839   6.580   2.491 -0.2453 -1.6132 -1.6643
 1420TIP3    H225896   2.970   6.504   2.489  0.4810 -0.3649 -1.9035
 1421TIP3   OH225897   1.458   0.616   3.431  1.0246  0.3035  0.2392
 1421TIP3    H125898   1.369   0.592   3.459  1.1602 -0.2297  0.2175
 1421TIP3    H225899   1.461   0.711   3.442 -0.0381  0.5327 -1.1143
 1422TIP3   OH225900   3.487   5.881   2.688  0.0248 -0.4427 -0.6027
 1422TIP3    H125901   3.482   5.883   2.784  0.4755 -1.9499 -0.5304
 1422TIP3    H225902   3.531   5.799   2.668 -2.3379 -1.4149 -2.2003
 1423TIP3   OH225903   6.758   3.469   1.716  0.2163 -0.7985 -0.4498
 1423TIP3    H125904   6.783   3.429   1.800  0.0399 -1.6228 -0.7831
 1423TIP3    H225905   6.753   3.396   1.655  1.4896 -0.0713 -1.4836
 1424TIP3   OH225906   6.299   6.342   2.313  0.2840 -0.2196  0.3954
 1424TIP3    H125907   6.243   6.418   2.333  0.1731  0.1641 -1.2428
 1424TIP3    H225908   6.324   6.307   2.399 -1.4082  0.3831  1.1699
 1425TIP3   OH225909   3.252   4.752   1.890 -0.4530 -0.1625  0.1850
 1425TIP3    H125910   3.338   4.721   1.917 -0.7037 -0.9363  0.1186
 1425TIP3    H225911   3.218   4.800   1.966 -0.2297 -0.3986  0.4329
 1426TIP3   OH225912   2.269   5.969   0.866  0.3004  0.2009  0.2859
 1426TIP3    H125913   2.294   6.002   0.953 -1.4808 -1.8914  1.6958
 1426TIP3    H225914   2.299   5.879   0.866 -1.0274 -0.2601 -0.6871
 1427TIP3   OH225915   0.080   0.563   3.200 -0.0759 -0.0601  0.0111
 1427TIP3    H125916   0.149   0.545   3.136  1.1010  1.6179  0.7206
 1427TIP3    H225917   0.128   0.578   3.282 -1.3810  0.1207  0.7569
 1428TIP3   OH225918   0.359   3.099   0.177  0.9529  0.0943 -0.0730
 1428TIP3    H125919   0.325   3.188   0.171  1.9752  0.6133  1.2874
 1428TIP3    H225920   0.317   3.052   0.105 -2.5455  0.7002  1.3503
 1429TIP3   OH225921   3.726   4.250   2.759  0.2912 -0.5073  0.0731
 1429TIP3    H125922   3.784   4.174   2.750  0.9673  0.0495 -0.4884
 1429TIP3    H225923   3.660   4.239   2.691  0.7533 -0.2927 -0.4190
 1430TIP3   OH225924   4.855   6.697   3.178  0.0271  0.3545  0.5100
 1430TIP3    H125925   4.837   6.749   3.256  1.1470 -0.5391  1.4161
 1430TIP3    H225926   4.940   6.729   3.147  0.2676 -0.2588  0.5153
 1431TIP3   OH225927   2.372   5.886   2.825 -0.2590  0.4798  0.4910
 1431TIP3    H125928   2.318   5.933   2.889  1.3272 -0.3750  2.5605
 1431TIP3    H225929   2.319   5.811   2.800 -1.6701  1.7990 -0.7372
 1432TIP3   OH225930   0.750   2.449   8.173 -0.0910 -0.0817  0.6796
 1432TIP3    H125931   0.808   2.496   8.114 -0.8285 -0.8690 -0.7132
 1432TIP3    H225932   0.711   2.517   8.228 -1.6776  1.1204 -1.7447
 1433TIP3   OH225933   0.886   4.254   1.577 -0.3863  0.4464 -0.5401
 1433TIP3    H125934   0.807   4.216   1.614  0.3752 -0.9876 -0.3086
 1433TIP3    H225935   0.878   4.239   1.483 -0.0522 -0.3870 -0.4415
 1434TIP3   OH225936   2.414   5.018   1.248  0.0014 -0.5575 -0.6363
 1434TIP3    H125937   2.481   5.051   1.188 -0.6299 -1.1822 -1.6973
 1434TIP3    H225938   2.453   4.937   1.284 -0.6464 -1.6200 -2.2104
 1435TIP3   OH225939   1.649   3.146   2.467 -0.9696  0.5173 -0.4005
 1435TIP3    H125940   1.674   3.221   2.521  0.3985  0.5602 -1.0350
 1435TIP3    H225941   1.555   3.137   2.480 -0.6338  0.1497  2.4438
 1436TIP3   OH225942   4.208   4.251   2.383  0.3020 -0.0192 -0.1413
 1436TIP3    H125943   4.267   4.303   2.437  2.1988 -0.3191 -1.8215
 1436TIP3    H225944   4.182   4.177   2.438 -0.7224  1.5071  1.5382
 1437TIP3   OH225945   0.799   5.752   2.885 -0.2887  0.5286  0.2036
 1437TIP3    H125946   0.867   5.799   2.837  0.0937 -0.5233 -0.3091
 1437TIP3    H225947   0.771   5.682   2.826 -0.4642 -0.2221  1.1455
 1438TIP3   OH225948   6.266   5.824   3.020 -0.2361  0.6047 -0.4182
 1438TIP3    H125949   6.249   5.906   2.973 -0.0644  1.4478  0.9161
 1438TIP3    H225950   6.297   5.853   3.106  1.8064 -0.8791 -0.6071
 1439TIP3   OH225951   5.194   0.343   0.597 -0.0311 -0.2997  0.2463
 1439TIP3    H125952   5.248   0.278   0.642 -0.6795 -0.4156  0.8783
 1439TIP3    H225953   5.246   0.424   0.602  0.7312 -0.7391 -0.4590
 1440TIP3   OH225954   1.867   1.162   2.880 -0.3900  0.6919  0.5300
 1440TIP3    H125955   1.934   1.204   2.933 -1.5221  1.2442  1.5480
 1440TIP3    H225956   1.784   1.194   2.915 -1.1900  0.7078 -1.2683
 1441TIP3   OH225957   4.632   0.259   8.155  0.4507 -0.5748  1.0642
 1441TIP3    H125958   4.594   0.260   8.067  1.1160 -1.6160  0.7392
 1441TIP3    H225959   4.581   0.323   8.204 -1.2092 -1.3493  0.4374
 1442TIP3   OH225960   6.123   0.262   8.097  0.8646 -0.1511  0.8426
 1442TIP3    H125961   6.207   0.242   8.056  1.4030  1.1486  1.2797
 1442TIP3    H225962   6.058   0.222   8.039  1.7892 -1.8396  0.9010
 1443TIP3   OH225963   1.846   4.860   2.120 -0.0606  0.1744  0.3177
 1443TIP3    H125964   1.859   4.765   2.124  0.7937  0.2128 -0.9858
 1443TIP3    H225965   1.779   4.878   2.185  0.7991 -1.1365  1.6222
 1444TIP3   OH225966   2.162   0.683   0.384 -0.7153 -0.3017  0.0358
 1444TIP3    H125967   2.130   0.613   0.441 -1.8252 -0.7656 -1.1079
 1444TIP3    H225968   2.162   0.761   0.440  1.8254 -1.3781  1.7452
 1445TIP3   OH225969   3.107   2.536   7.743 -0.1502 -0.3663  0.0217
 1445TIP3    H125970   3.123   2.504   7.831  0.0005  0.6658  0.3870
 1445TIP3    H225971   3.187   2.584   7.719  0.2739 -1.5815 -1.1342
 1446TIP3   OH225972   4.330   6.471   7.881  0.1858 -0.3927  0.0662
 1446TIP3    H125973   4.296   6.551   7.840  1.4115 -0.3442 -0.9228
 1446TIP3    H225974   4.422   6.491   7.900  0.2392 -1.2327  0.7439
 1447TIP3   OH225975   5.251   4.202   0.924 -0.5990 -0.2661 -0.0786
 1447TIP3    H125976   5.223   4.133   0.863 -0.5597 -2.2511  2.0108
 1447TIP3    H225977   5.342   4.180   0.945 -0.3214  0.9161  0.0343
 1448TIP3   OH225978   3.601   6.308   3.810 -0.4271 -0.2899 -0.8443
 1448TIP3    H125979   3.574   6.382   3.865 -0.1573 -0.6333 -0.2516
 1448TIP3    H225980   3.666   6.261   3.862  2.3288  1.2111 -2.6724
 1449TIP3   OH225981   2.649   5.740   0.207 -0.0010  0.1562 -0.5716
 1449TIP3    H125982   2.597   5.706   0.135 -0.8625  1.3090 -0.5363
 1449TIP3    H225983   2.589   5.799   0.254  0.9348  0.4619  0.2899
 1450TIP3   OH225984   2.535   1.607   1.112 -0.2700  0.7043  0.0782
 1450TIP3    H125985   2.448   1.571   1.094 -0.8018  1.0740  1.7237
 1450TIP3    H225986   2.573   1.622   1.026 -2.3743  1.8078 -0.7271
 1451TIP3   OH225987   0.610   2.747   2.941  0.4207  0.1733 -0.5977
 1451TIP3    H125988   0.660   2.807   2.887  0.5741  0.3886 -0.2187
 1451TIP3    H225989   0.526   2.738   2.896  0.5961  0.2460 -0.9403
 1452TIP3   OH225990   4.847   2.233   3.259 -0.0613  0.3758  0.0098
 1452TIP3    H125991   4.859   2.163   3.323  0.8020 -0.2562 -0.8085
 1452TIP3    H225992   4.793   2.194   3.190  1.5800 -0.0221 -1.1470
 1453TIP3   OH225993   3.439   5.852   0.755  0.2806 -0.0388 -0.3170
 1453TIP3    H125994   3.416   5.795   0.682  0.8162  0.1430 -0.6385
 1453TIP3    H225995   3.357   5.895   0.779  0.0872 -0.1472 -0.7728
 1454TIP3   OH225996   4.942   5.818   3.085  0.3840  0.0800 -0.2167
 1454TIP3    H125997   4.927   5.748   3.149  1.4816 -0.8116 -0.8850
 1454TIP3    H225998   5.016   5.867   3.120  0.3486  0.2074 -0.3178
 1455TIP3   OH225999   2.329   2.871   1.973  0.2302  0.2842  0.3438
 1455TIP3    H126000   2.236   2.849   1.963  0.4954 -0.7764  0.0602
 1455TIP3    H226001   2.335   2.962   1.947 -0.1621 -0.5653 -3.2140
 1456TIP3   OH226002   4.701   1.568   2.117  0.6555  0.4799  0.2362
 1456TIP3    H126003   4.756   1.506   2.068  0.7306  0.9082 -0.2263
 1456TIP3    H226004   4.692   1.529   2.204 -0.5889 -0.9918 -0.4956
 1457TIP3   OH226005   2.817   1.683   1.575  0.0810 -0.0760 -0.0113
 1457TIP3    H126006   2.767   1.722   1.646 -0.6465 -0.4361 -0.3060
 1457TIP3    H226007   2.753   1.630   1.527  0.4919  0.3712 -1.0900
 1458TIP3   OH226008   2.347   4.457   1.377 -0.1906  0.9324 -0.0094
 1458TIP3    H126009   2.300   4.374   1.374 -0.9429  1.1731  2.4907
 1458TIP3    H226010   2.425   4.439   1.430  1.1047  1.2220 -1.7253
 1459TIP3   OH226011   3.300   5.265   1.193  0.3865  0.1122 -0.2918
 1459TIP3    H126012   3.218   5.280   1.241  0.2660  0.2946 -0.5558
 1459TIP3    H226013   3.364   5.244   1.261 -0.6049 -3.4416 -0.2539
 1460TIP3   OH226014   3.745   4.564   8.055 -0.2987 -0.1674 -0.5311
 1460TIP3    H126015   3.676   4.548   8.120 -1.3260 -0.6118 -1.6969
 1460TIP3    H226016   3.825   4.531   8.097 -0.3937  2.1108  1.6254
 1461TIP3   OH226017   5.180   2.353   7.948 -0.2468 -0.5230 -0.2583
 1461TIP3    H126018   5.257   2.403   7.922 -0.3127  0.1982  0.8809
 1461TIP3    H226019   5.214   2.282   8.002 -0.2668 -1.0011 -0.8648
 1462TIP3   OH226020   6.530   1.863   8.277 -0.3332 -1.1164 -0.1170
 1462TIP3    H126021   6.438   1.885   8.266 -0.2948  0.2153  1.7533
 1462TIP3    H226022   6.576   1.947   8.274  0.4665 -1.4254  1.7313
 1463TIP3   OH226023   1.000   5.002   2.999 -0.0461  0.4028  0.2105
 1463TIP3    H126024   1.023   5.092   2.977  0.5212  0.1596 -0.2385
 1463TIP3    H226025   0.960   5.007   3.086  0.0925  1.0690  0.2371
 1464TIP3   OH226026   3.569   2.234   0.240  0.0144 -0.0056  0.5240
 1464TIP3    H126027   3.503   2.270   0.180  1.7467  0.3905 -1.2427
 1464TIP3    H226028   3.543   2.142   0.251  0.9658 -0.8274 -2.9439
 1465TIP3   OH226029   3.198   5.471   3.375 -0.3722 -0.3871  0.1079
 1465TIP3    H126030   3.132   5.470   3.444 -0.3614 -0.8851  0.1165
 1465TIP3    H226031   3.147   5.465   3.294 -0.4259  0.8633  0.0240
 1466TIP3   OH226032   1.680   5.420   2.286  0.4997 -0.0098  0.6856
 1466TIP3    H126033   1.673   5.364   2.209  0.7439  0.6136  0.2007
 1466TIP3    H226034   1.773   5.441   2.293  0.3901  0.4713  0.7575
 1467TIP3   OH226035   0.288   3.375   1.329 -0.2809  0.2611 -0.5641
 1467TIP3    H126036   0.370   3.411   1.295  1.4663 -2.0110  0.9366
 1467TIP3    H226037   0.289   3.397   1.422 -0.5704 -1.0908 -0.2182
 1468TIP3   OH226038   1.631   4.802   0.527 -0.1812 -0.2845  0.1793
 1468TIP3    H126039   1.550   4.843   0.495 -0.1821 -1.6323 -1.7014
 1468TIP3    H226040   1.689   4.802   0.452  0.8420 -1.1935  0.9414
 1469TIP3   OH226041   4.562   6.488   1.380  0.4634  0.0310  0.0206
 1469TIP3    H126042   4.622   6.554   1.414 -0.1827  1.4983 -1.5959
 1469TIP3    H226043   4.551   6.426   1.453 -0.1112  2.4962  2.1547
 1470TIP3   OH226044   3.338   5.066   1.003 -0.3060  0.1780  0.0352
 1470TIP3    H126045   3.338   5.143   1.059 -1.5969 -0.7652  1.4073
 1470TIP3    H226046   3.246   5.038   0.999 -0.0924 -0.4679 -1.6280
 1471TIP3   OH226047   3.814   3.927   3.187  0.0850  0.3681 -0.6220
 1471TIP3    H126048   3.905   3.904   3.168 -0.0546 -1.4089  0.5547
 1471TIP3    H226049   3.815   3.957   3.278 -0.4741  0.5132 -0.6589
 1472TIP3   OH226050   0.767   5.265   2.882  0.0834  0.3207  0.4494
 1472TIP3    H126051   0.708   5.209   2.831  0.3786  0.1988  0.2426
 1472TIP3    H226052   0.760   5.232   2.971  0.5976 -0.3426  0.2557
 1473TIP3   OH226053   2.557   3.989   3.154  0.0101 -0.3814  0.1220
 1473TIP3    H126054   2.628   3.933   3.184  0.8999  0.3469 -0.5754
 1473TIP3    H226055   2.589   4.027   3.072 -1.0135  0.2960  0.0129
 1474TIP3   OH226056   3.934   6.277   0.242  0.1031 -0.0329  0.1605
 1474TIP3    H126057   3.929   6.255   0.335  1.3095 -0.1614  0.2151
 1474TIP3    H226058   3.844   6.296   0.217 -0.0780  1.4257  1.7011
 1475TIP3   OH226059   6.622   2.734   2.393 -0.2817 -0.0310 -0.1599
 1475TIP3    H126060   6.681   2.783   2.450 -1.8105 -0.2619  1.7245
 1475TIP3    H226061   6.553   2.796   2.371 -1.5775 -0.9093  1.2331
 1476TIP3   OH226062   4.462   1.973   1.200 -0.2069 -0.1791  0.0776
 1476TIP3    H126063   4.460   2.055   1.250 -0.5798  0.0231 -0.2611
 1476TIP3    H226064   4.555   1.958   1.182 -0.2320  1.2800 -1.6176
 1477TIP3   OH226065   1.665   3.246   7.765  0.1844 -0.1741 -0.2542
 1477TIP3    H126066   1.628   3.325   7.805 -0.5142 -1.0560  0.9074
 1477TIP3    H226067   1.631   3.246   7.676  1.2612  1.5089 -0.7076
 1478TIP3   OH226068   0.908   1.865   2.701 -0.2602 -0.1974 -0.3893
 1478TIP3    H126069   0.950   1.838   2.619 -0.2004 -1.9934  0.1813
 1478TIP3    H226070   0.878   1.783   2.740 -2.0239  0.7953  0.4683
 1479TIP3   OH226071   1.717   2.680   2.411  0.0375 -0.4820 -0.1160
 1479TIP3    H126072   1.742   2.588   2.414 -0.6033 -0.6270  1.1933
 1479TIP3    H226073   1.631   2.681   2.370  1.4284 -0.1055 -3.3249
 1480TIP3   OH226074   5.683   4.888   1.205  0.0023 -0.0533  0.3511
 1480TIP3    H126075   5.683   4.920   1.115 -0.2437  0.5147  0.5451
 1480TIP3    H226076   5.608   4.932   1.246 -0.7262 -1.3468  0.4707
 1481TIP3   OH226077   4.343   1.579   2.451  0.1354  0.1483 -0.1473
 1481TIP3    H126078   4.422   1.526   2.436 -0.4384 -0.8821  0.3631
 1481TIP3    H226079   4.373   1.650   2.508  0.4675 -0.9577  1.1326
 1482TIP3   OH226080   2.993   4.874   2.891 -0.1177 -0.0585  0.1382
 1482TIP3    H126081   3.010   4.957   2.846 -1.4315  1.2494  1.8867
 1482TIP3    H226082   2.923   4.833   2.841  0.7461 -0.2899 -0.9121
 1483TIP3   OH226083   1.937   6.925   0.479  0.2554 -0.0343 -0.2856
 1483TIP3    H126084   1.947   6.878   0.562  0.8799 -1.3373 -1.0690
 1483TIP3    H226085   1.956   7.016   0.502 -0.3836 -0.2313  1.1538
 1484TIP3   OH226086   0.705   2.840   3.950  0.3510 -0.6839 -0.2666
 1484TIP3    H126087   0.792   2.845   3.910  0.6881 -0.8379  0.4343
 1484TIP3    H226088   0.644   2.841   3.876  0.8798  1.0151 -0.7126
 1485TIP3   OH226089   0.583   5.288   8.194  0.3146 -0.2002 -0.0741
 1485TIP3    H126090   0.531   5.278   8.114  0.3058 -1.0997  0.0354
 1485TIP3    H226091   0.532   5.349   8.247 -1.2254 -1.8453  0.4797
 1486TIP3   OH226092   2.065   1.007   1.782  0.3862 -0.0713  0.2974
 1486TIP3    H126093   2.074   0.987   1.875  2.0363  0.5962  0.3301
 1486TIP3    H226094   1.982   0.968   1.757  0.2628 -0.9267  1.8721
 1487TIP3   OH226095   6.392   6.666   1.828  0.6054 -0.4666 -0.6670
 1487TIP3    H126096   6.438   6.749   1.834  1.4800 -1.0469  1.3023
 1487TIP3    H226097   6.329   6.678   1.756  1.1496  1.6439 -0.8341
 1488TIP3   OH226098   4.078   3.637   1.659 -0.6524  0.8957  0.0441
 1488TIP3    H126099   3.995   3.616   1.616 -1.0640 -0.8247  1.5381
 1488TIP3    H226100   4.055   3.702   1.725 -0.8518  0.4304  0.4475
 1489TIP3   OH226101   5.298   5.987   2.791 -0.1390 -0.2871 -0.0127
 1489TIP3    H126102   5.388   5.975   2.822  0.3620 -1.0825 -1.6775
 1489TIP3    H226103   5.260   5.900   2.791 -0.3965 -0.1818 -0.8094
 1490TIP3   OH226104   6.066   2.820   8.146  0.2452 -0.7562 -0.5159
 1490TIP3    H126105   6.157   2.799   8.170 -0.4736 -2.6809  0.8583
 1490TIP3    H226106   6.069   2.910   8.114  2.4604 -0.4086  0.4926
 1491TIP3   OH226107   2.743   2.570   0.017  0.2499 -0.7321 -0.1902
 1491TIP3    H126108   2.736   2.628  -0.059  2.4194 -0.9142 -0.5952
 1491TIP3    H226109   2.719   2.483  -0.016  0.7804 -0.7371 -0.5556
 1492TIP3   OH226110   5.069   5.827   2.750 -0.4341  0.1133 -0.1945
 1492TIP3    H126111   5.061   5.741   2.792  0.0021 -0.9999 -2.2733
 1492TIP3    H226112   5.025   5.886   2.810 -2.2654 -1.8250  0.5111
 1493TIP3   OH226113   3.078   3.280   1.280 -0.2575 -0.4464  0.3038
 1493TIP3    H126114   3.078   3.365   1.235 -1.0904 -0.8562 -0.5035
 1493TIP3    H226115   3.051   3.301   1.370  0.8910  0.3091  0.4857
 1494TIP3   OH226116   4.606   4.883   1.610 -0.6902  0.0179 -0.0258
 1494TIP3    H126117   4.512   4.895   1.623 -1.1091 -0.3968 -2.2117
 1494TIP3    H226118   4.631   4.954   1.550  0.4087  0.1464  0.5622
 1495TIP3   OH226119   1.888   2.196   1.274  0.3082  0.8949  0.2711
 1495TIP3    H126120   1.855   2.278   1.236  2.8757  1.3144 -1.2555
 1495TIP3    H226121   1.836   2.185   1.354 -3.8768  1.1030 -2.1079
 1496TIP3   OH226122   7.068   1.460   1.713 -0.6610  1.0454  0.0649
 1496TIP3    H126123   6.974   1.444   1.719 -0.3212 -1.0396  0.4920
 1496TIP3    H226124   7.109   1.384   1.754  1.2379  1.2320 -1.3123
 1497TIP3   OH226125   6.591   0.916   1.835  0.0236 -0.3703  0.1073
 1497TIP3    H126126   6.547   0.916   1.920 -0.4221 -0.9686 -0.1127
 1497TIP3    H226127   6.635   0.831   1.832  0.1438 -0.2967 -0.2099
 1498TIP3   OH226128   1.524   4.370   1.692 -0.1659  0.1705  0.3111
 1498TIP3    H126129   1.514   4.319   1.773 -0.2608 -0.0143  0.1827
 1498TIP3    H226130   1.608   4.341   1.656 -1.6222 -2.2625 -1.4192
 1499TIP3   OH226131   6.908   3.599   1.994 -0.5010  0.1734  0.3333
 1499TIP3    H126132   6.848   3.645   1.935 -2.0831 -0.3392  1.4743
 1499TIP3    H226133   6.896   3.507   1.973  0.5982  0.1102 -0.0577
 1500TIP3   OH226134   5.655   2.486   1.870 -0.8067  0.9258  0.2620
 1500TIP3    H126135   5.585   2.540   1.833 -0.2009  1.0002 -0.8284
 1500TIP3    H226136   5.723   2.548   1.895 -0.9718  0.8248  0.9845
 1501TIP3   OH226137   1.340   2.106   2.653 -0.9065  0.2548  0.4695
 1501TIP3    H126138   1.325   2.199   2.669 -0.8138  0.4496 -0.5191
 1501TIP3    H226139   1.311   2.063   2.734 -2.6504  0.9794  0.2887
 1502TIP3   OH226140   3.087   3.496   0.436  0.0378 -0.3124  0.2826
 1502TIP3    H126141   3.176   3.476   0.407  0.2131 -1.5478  1.5705
 1502TIP3    H226142   3.033   3.476   0.360  0.8341  0.3421 -0.4809
 1503TIP3   OH226143   4.692   2.726   0.402 -0.0681  0.0331 -0.4292
 1503TIP3    H126144   4.721   2.760   0.487  1.7834  1.1195 -1.4398
 1503TIP3    H226145   4.689   2.802   0.345  1.5282 -1.0400 -2.0711
 1504TIP3   OH226146   2.510   1.591   1.737  0.1408  0.3181  0.3247
 1504TIP3    H126147   2.535   1.683   1.730 -0.3002  0.4534  0.4694
 1504TIP3    H226148   2.503   1.575   1.831 -0.1880  0.2538  0.2928
 1505TIP3   OH226149   2.320   1.857   0.913 -0.7571 -0.2452  0.0006
 1505TIP3    H126150   2.348   1.925   0.975 -0.3205  0.2522 -0.7247
 1505TIP3    H226151   2.394   1.796   0.909 -0.3601  0.2574 -0.7625
 1506TIP3   OH226152   3.233   7.056   3.028 -0.3470  0.2474 -0.2538
 1506TIP3    H126153   3.156   7.007   3.058 -2.5938  2.2402 -2.4002
 1506TIP3    H226154   3.252   7.116   3.100 -0.5336 -0.5003  0.4407
 1507TIP3   OH226155   3.922   3.666   0.494  0.4353 -0.1376 -0.7935
 1507TIP3    H126156   3.991   3.701   0.438 -0.1775  0.7045 -1.0427
 1507TIP3    H226157   3.885   3.593   0.444 -0.4416  0.9173 -1.7525
 1508TIP3   OH226158   6.054   4.977   0.694 -0.3530 -0.5387 -0.5687
 1508TIP3    H126159   6.029   4.901   0.642 -0.3201 -1.6331  0.9506
 1508TIP3    H226160   6.135   4.950   0.737  1.2822  1.4155 -2.1706
 1509TIP3   OH226161   6.629   6.830   1.558  0.0807 -0.0060  0.2475
 1509TIP3    H126162   6.636   6.900   1.623  1.1930  1.4387 -1.3390
 1509TIP3    H226163   6.697   6.850   1.494 -1.4569 -0.8852 -1.7867
 1510TIP3   OH226164   0.779   0.547   1.730 -0.2438 -0.6769 -0.3201
 1510TIP3    H126165   0.718   0.490   1.683  1.5943 -1.5460 -1.7641
 1510TIP3    H226166   0.840   0.578   1.663  0.0186  1.4174  0.7936
 1511TIP3   OH226167   6.810   2.820   8.269  0.0027 -0.2061 -0.1064
 1511TIP3    H126168   6.861   2.894   8.301 -1.4164  0.2804  1.1448
 1511TIP3    H226169   6.736   2.861   8.223 -1.0358 -0.8112  0.9833
 1512TIP3   OH226170   1.214   3.739   2.591 -0.1255  0.2467  0.4612
 1512TIP3    H126171   1.221   3.834   2.586 -0.2869  0.2485  0.2227
 1512TIP3    H226172   1.269   3.714   2.666  1.1312  0.3992 -0.3675
 1513TIP3   OH226173   2.576   1.210   8.203  0.4461 -0.1616  0.0594
 1513TIP3    H126174   2.545   1.245   8.120 -0.2041 -0.4306  0.1803
 1513TIP3    H226175   2.567   1.283   8.264 -1.4792 -0.6518  0.4468
 1514TIP3   OH226176   5.620   5.230   2.140  0.8917  0.2337  0.1201
 1514TIP3    H126177   5.529   5.204   2.126  0.2404  2.0581  0.6451
 1514TIP3    H226178   5.636   5.215   2.233  0.6358  1.2353  0.3418
 1515TIP3   OH226179   0.841   2.687   2.474  0.4883 -0.0534 -0.3417
 1515TIP3    H126180   0.820   2.765   2.422  1.0080 -0.8488 -1.7837
 1515TIP3    H226181   0.891   2.721   2.548  0.6592  0.9903 -0.9165
 1516TIP3   OH226182   3.586   3.528   0.213  0.1522 -0.3418  0.1451
 1516TIP3    H126183   3.569   3.608   0.262 -2.0413 -0.7528  0.1614
 1516TIP3    H226184   3.517   3.468   0.241  1.6924 -2.2178  0.0575
 1517TIP3   OH226185   0.136   2.423   2.408 -0.6252 -0.6618  0.0291
 1517TIP3    H126186   0.208   2.479   2.380  0.1078 -1.2071  0.7799
 1517TIP3    H226187   0.139   2.426   2.504 -1.5593 -0.7457  0.0678
 1518TIP3   OH226188   3.396   4.954   0.344 -0.4020  0.0354 -0.1079
 1518TIP3    H126189   3.407   4.945   0.439 -0.8296 -0.1837 -0.0772
 1518TIP3    H226190   3.376   4.866   0.313 -3.8638  0.6086  0.0964
 1519TIP3   OH226191   4.060   2.732   2.736  0.7302 -0.1546 -0.1071
 1519TIP3    H126192   4.065   2.723   2.831  0.4288  3.1391  0.3336
 1519TIP3    H226193   4.089   2.822   2.719 -1.3699  0.1068 -2.9133
 1520TIP3   OH226194   0.160   4.636   0.992 -0.0025  0.4019  0.0687
 1520TIP3    H126195   0.193   4.553   1.027  1.9165 -0.2677 -2.9616
 1520TIP3    H226196   0.218   4.702   1.029  0.0813  0.1130  0.4677
 1521TIP3   OH226197   3.029   4.533   1.919  0.0824  0.1204 -0.5016
 1521TIP3    H126198   2.972   4.598   1.879 -0.6324  0.7261  1.3640
 1521TIP3    H226199   3.101   4.584   1.955  0.7918 -0.4223 -1.1230
 1522TIP3   OH226200   4.511   0.313   2.840 -0.2372 -0.2974 -0.5261
 1522TIP3    H126201   4.521   0.390   2.895 -0.8754 -0.7443  0.2383
 1522TIP3    H226202   4.443   0.261   2.883 -1.7455 -0.0391 -2.4100
 1523TIP3   OH226203   5.715   1.206   0.311  0.5285 -0.3606  0.0119
 1523TIP3    H126204   5.779   1.277   0.305  0.5394 -0.4746 -1.6835
 1523TIP3    H226205   5.703   1.178   0.221  0.5452 -2.5386  0.6389
 1524TIP3   OH226206   3.740   4.584   7.779  0.1476  0.3303  0.2255
 1524TIP3    H126207   3.769   4.669   7.744  1.3637 -0.4987 -0.9037
 1524TIP3    H226208   3.749   4.593   7.874  0.7671  1.2836  0.0965
 1525TIP3   OH226209   6.390   6.409   8.268  0.3042 -0.6075 -0.4501
 1525TIP3    H126210   6.416   6.461   8.344  0.5256 -1.6739  0.2317
 1525TIP3    H226211   6.297   6.427   8.257  0.4421  0.1533 -0.4131
 1526TIP3   OH226212   1.656   3.828   2.065  0.1340  0.2844  0.5089
 1526TIP3    H126213   1.632   3.791   1.980 -1.0337  0.1685  0.8753
 1526TIP3    H226214   1.743   3.791   2.083 -0.8975 -2.2022  0.7727
 1527TIP3   OH226215   2.076   4.905   8.057  0.2700  0.0447 -1.0152
 1527TIP3    H126216   1.992   4.947   8.075  0.7629  1.4327 -1.8037
 1527TIP3    H226217   2.063   4.814   8.083 -0.0025  1.1251  3.5179
 1528TIP3   OH226218   0.592   4.368   7.868 -0.4345 -0.0524  0.5314
 1528TIP3    H126219   0.591   4.352   7.774  1.1626  0.2088  0.4410
 1528TIP3    H226220   0.510   4.331   7.900 -0.5406 -1.0345 -0.8207
 1529TIP3   OH226221   6.140   2.250   2.641 -0.0343  0.2329 -0.4072
 1529TIP3    H126222   6.049   2.272   2.624  0.0098 -0.6408 -1.9568
 1529TIP3    H226223   6.154   2.166   2.597  1.5508  0.4217 -0.3545
 1530TIP3   OH226224   3.672   2.057   1.915 -0.0782 -0.4925  0.1030
 1530TIP3    H126225   3.646   1.977   1.869  0.2812 -0.3310 -0.3932
 1530TIP3    H226226   3.727   2.027   1.987 -0.2647 -0.7177  0.1527
 1531TIP3   OH226227   1.264   5.488   2.073  0.0911 -0.0136 -0.4950
 1531TIP3    H126228   1.248   5.579   2.048  0.6105 -0.1233 -1.2569
 1531TIP3    H226229   1.349   5.466   2.033  0.5615 -0.4548  0.6937
 1532TIP3   OH226230   1.398   4.510   1.168 -0.4490 -0.3986 -0.2021
 1532TIP3    H126231   1.366   4.577   1.108  2.2621 -1.0726 -2.6312
 1532TIP3    H226232   1.478   4.546   1.205 -0.5487 -1.1473  0.7950
 1533TIP3   OH226233   3.089   0.116   2.413 -0.3037 -0.3528  0.6995
 1533TIP3    H126234   3.010   0.106   2.360 -1.4335 -0.1604  2.2739
 1533TIP3    H226235   3.144   0.042   2.387 -0.9189 -0.4214 -0.5275
 1534TIP3   OH226236   5.911   4.616   8.015  0.1006 -0.1435 -0.3924
 1534TIP3    H126237   5.961   4.577   7.944  0.7433 -1.0679  0.5400
 1534TIP3    H226238   5.959   4.696   8.037 -0.0052  0.0550 -0.8804
 1535TIP3   OH226239   5.422   2.256   0.878  0.1262  0.1013 -0.1715
 1535TIP3    H126240   5.327   2.259   0.885  0.0831  1.3321 -1.0683
 1535TIP3    H226241   5.440   2.222   0.791  0.5270 -0.2958  0.0559
 1536TIP3   OH226242   3.835   3.257   0.782  0.0887  0.4254  0.1672
 1536TIP3    H126243   3.873   3.324   0.840  0.7129  1.2447 -1.1540
 1536TIP3    H226244   3.748   3.241   0.819 -0.2506  2.2866  0.2830
 1537TIP3   OH226245   0.254   3.955   0.202 -0.1319  0.4533 -0.2331
 1537TIP3    H126246   0.188   3.889   0.223 -1.4590  2.2018  1.5147
 1537TIP3    H226247   0.323   3.942   0.267 -0.4613  0.8556  0.2025
 1538TIP3   OH226248   6.599   3.628   2.244 -0.2307 -0.2683 -0.4668
 1538TIP3    H126249   6.639   3.715   2.241 -1.8212  0.5380  0.2153
 1538TIP3    H226250   6.673   3.568   2.246  0.9213  1.0764 -0.6233
 1539TIP3   OH226251   0.090   5.894   7.763  0.2009  0.3670  0.8152
 1539TIP3    H126252   0.174   5.867   7.725  1.1065 -1.2959  3.6807
 1539TIP3    H226253   0.087   5.989   7.749  0.9451  0.0768 -2.1671
 1540TIP3   OH226254   0.834   4.169   2.200  0.8043 -0.5087  0.1578
 1540TIP3    H126255   0.873   4.090   2.162 -0.2507 -1.1102  0.3075
 1540TIP3    H226256   0.877   4.179   2.285  0.7021 -1.1161  0.2839
 1541TIP3   OH226257   3.801   2.582   1.356  0.1643  0.4663  0.5014
 1541TIP3    H126258   3.856   2.649   1.315  0.5632  0.0478  0.3405
 1541TIP3    H226259   3.761   2.535   1.283  0.0013  0.4346  0.6098
 1542TIP3   OH226260   2.761   4.703   0.464  0.1770 -0.0769 -0.0788
 1542TIP3    H126261   2.844   4.689   0.510 -1.1399 -1.3033  2.0858
 1542TIP3    H226262   2.707   4.751   0.526 -1.2450 -0.6513 -0.8238
 1543TIP3   OH226263   5.589   3.621   2.480  0.2601 -0.0939  0.1447
 1543TIP3    H126264   5.669   3.671   2.465  0.1600  0.0637  0.1336
 1543TIP3    H226265   5.585   3.612   2.576  0.5322 -0.4981  0.1202
 1544TIP3   OH226266   5.899   2.854   2.332  0.2001  0.2393  0.6030
 1544TIP3    H126267   5.815   2.852   2.286  0.1205 -2.4517  0.6936
 1544TIP3    H226268   5.958   2.804   2.276  1.8085  2.1218  0.5185
 1545TIP3   OH226269   2.982   0.906   0.565 -0.9305  0.1704 -0.1347
 1545TIP3    H126270   3.010   0.935   0.652 -0.7993 -2.3201  0.7357
 1545TIP3    H226271   3.039   0.953   0.505  0.5204  0.3012  1.2694
 1546TIP3   OH226272   4.793   4.530   2.976 -0.2356 -0.2960  0.4370
 1546TIP3    H126273   4.864   4.562   2.919 -1.2249 -0.0115 -0.6834
 1546TIP3    H226274   4.831   4.530   3.063  0.7758  1.0307  0.0387
 1547TIP3   OH226275   3.826   4.852   0.255  0.4805 -0.1676 -0.6258
 1547TIP3    H126276   3.896   4.907   0.221  0.4868  1.1727  1.3861
 1547TIP3    H226277   3.766   4.841   0.181  0.5076  2.5668 -1.1701
 1548TIP3   OH226278   6.285   0.035   1.104 -0.2410  0.3398  0.2129
 1548TIP3    H126279   6.335   0.117   1.105 -0.0944  0.2457  0.8290
 1548TIP3    H226280   6.229   0.039   1.181  0.8870 -0.8193  1.1384
 1549TIP3   OH226281   5.848   4.870   2.159  0.1678  0.1886 -0.1980
 1549TIP3    H126282   5.781   4.833   2.216  0.0464  0.4511 -0.1692
 1549TIP3    H226283   5.799   4.900   2.082  0.1518  1.0288  0.1296
 1550TIP3   OH226284   4.601   2.156   3.105  0.1174 -0.7205 -0.2823
 1550TIP3    H126285   4.552   2.086   3.062  1.4147 -0.7362 -1.8340
 1550TIP3    H226286   4.543   2.232   3.101 -0.3094 -1.0635 -0.8881
 1551TIP3   OH226287   5.016   3.077   0.962  0.0391  0.0144  0.0721
 1551TIP3    H126288   5.026   3.148   1.025 -1.3029  0.3978 -0.1062
 1551TIP3    H226289   4.922   3.076   0.942  0.1005 -1.5434 -0.2481
 1552TIP3   OH226290   6.673   6.046   7.604  0.2051  0.2502 -0.3942
 1552TIP3    H126291   6.634   6.123   7.645  1.1004 -1.7612  5.1027
 1552TIP3    H226292   6.766   6.067   7.596  0.3473  0.0368  0.5429
 1553TIP3   OH226293   2.349   4.298   1.778  0.4292 -0.0137 -0.1922
 1553TIP3    H126294   2.297   4.244   1.718  0.8835 -0.8071  0.1106
 1553TIP3    H226295   2.364   4.242   1.854 -0.3224  1.0579  0.7710
 1554TIP3   OH226296   0.301   2.073   0.537 -0.1478  0.0849  0.3118
 1554TIP3    H126297   0.362   2.049   0.607 -0.0469 -0.5419  0.0092
 1554TIP3    H226298   0.230   2.119   0.583 -0.5085 -1.0640  0.9507
 1555TIP3   OH226299   3.547   3.942   0.091  0.3231 -0.0732  0.1460
 1555TIP3    H126300   3.598   3.881   0.037  3.3990 -0.3750  3.0076
 1555TIP3    H226301   3.478   3.887   0.130  0.1630 -0.5993 -0.8399
 1556TIP3   OH226302   2.722   0.910   7.265 -0.2277  0.7779 -0.3201
 1556TIP3    H126303   2.731   0.817   7.245  0.0810  0.5972  0.6396
 1556TIP3    H226304   2.810   0.940   7.285 -0.4212  1.1250  0.0384
 1557TIP3   OH226305   0.100   6.311   1.181 -0.4671 -0.0781 -0.4334
 1557TIP3    H126306   0.123   6.353   1.098  1.0415 -2.2149 -1.1937
 1557TIP3    H226307   0.067   6.225   1.155 -1.6189 -0.1460  1.1389
 1558TIP3   OH226308   6.762   0.705   1.838 -0.2374 -1.4534  0.0180
 1558TIP3    H126309   6.786   0.614   1.821  1.7663 -1.0275  0.3112
 1558TIP3    H226310   6.843   0.746   1.868 -1.3369  0.1905  0.9005
 1559TIP3   OH226311   6.959   2.096   2.333 -0.0266  0.1434  0.5644
 1559TIP3    H126312   7.045   2.132   2.314 -0.2790  0.2635 -0.4192
 1559TIP3    H226313   6.902   2.135   2.267 -0.6104 -0.8309  0.4740
 1560TIP3   OH226314   2.682   6.431   2.447  0.6872 -0.4763  0.2411
 1560TIP3    H126315   2.654   6.507   2.499 -1.6104 -1.1471  0.0927
 1560TIP3    H226316   2.721   6.470   2.368 -2.1908  0.6861 -0.7605
 1561TIP3   OH226317   3.089   0.890   3.121  0.4685  0.5360 -0.0268
 1561TIP3    H126318   3.097   0.828   3.048  0.7847  0.8740 -0.2832
 1561TIP3    H226319   3.146   0.854   3.189 -1.8681 -1.2572  1.1257
 1562TIP3   OH226320   5.828   2.930   3.218  0.0637 -0.2721  0.0721
 1562TIP3    H126321   5.919   2.927   3.188 -0.7552 -0.4327 -2.6440
 1562TIP3    H226322   5.812   3.023   3.236  0.3425 -0.0199 -0.9313
 1563TIP3   OH226323   3.209   2.490   0.161  0.4132 -0.5840  0.8593
 1563TIP3    H126324   3.142   2.437   0.117  0.6704 -0.0960 -0.1653
 1563TIP3    H226325   3.201   2.467   0.253 -1.3671 -0.3305  0.8061
 1564TIP3   OH226326   5.401   2.125   1.956  0.1159 -0.1781 -0.5087
 1564TIP3    H126327   5.407   2.188   2.028  1.7358 -1.5281  0.6273
 1564TIP3    H226328   5.443   2.046   1.991 -2.7037 -2.2438 -1.5009
 1565TIP3   OH226329   5.660   4.296   3.207  0.6549 -0.0036  0.2163
 1565TIP3    H126330   5.694   4.362   3.268  1.2605  0.8173 -0.9842
 1565TIP3    H226331   5.571   4.279   3.239  0.9244  0.4554  1.2772
 1566TIP3   OH226332   0.189   6.669   7.992 -0.1941  0.3833  0.1646
 1566TIP3    H126333   0.226   6.726   7.925  1.8469 -0.8812  0.1142
 1566TIP3    H226334   0.166   6.588   7.946  0.0522 -0.0314  0.7415
 1567TIP3   OH226335   2.920   0.259   8.238 -0.1459 -0.3930  0.0245
 1567TIP3    H126336   2.969   0.311   8.175  0.4623 -0.7174  0.2214
 1567TIP3    H226337   2.987   0.207   8.283 -0.7305 -1.3325 -0.1617
 1568TIP3   OH226338   2.345   5.171   1.959 -0.1704 -0.4838  0.0002
 1568TIP3    H126339   2.318   5.237   1.896  2.6712  0.2385 -0.5900
 1568TIP3    H226340   2.341   5.088   1.911 -0.0967 -0.2333 -0.4364
 1569TIP3   OH226341   4.987   2.939   2.727 -0.4033 -0.0622  0.1236
 1569TIP3    H126342   5.066   2.896   2.760  0.4473  0.4783 -1.1522
 1569TIP3    H226343   4.957   2.994   2.800 -0.2002 -1.0258  0.9615
 1570TIP3   OH226344   1.274   3.390   1.593 -0.3491 -0.1847  0.2481
 1570TIP3    H126345   1.327   3.324   1.638 -1.0248  0.4055  2.0142
 1570TIP3    H226346   1.311   3.474   1.621 -0.6259  0.2016 -0.5261
 1571TIP3   OH226347   6.398   2.139   0.745  0.6604  0.2129 -0.0089
 1571TIP3    H126348   6.381   2.217   0.692  0.2976 -0.3687 -0.7662
 1571TIP3    H226349   6.368   2.066   0.691  0.5609 -0.4238  0.8838
 1572TIP3   OH226350   0.371   6.406   2.360  1.0943  0.1588  0.0182
 1572TIP3    H126351   0.327   6.479   2.317 -0.4534  0.5866  2.1446
 1572TIP3    H226352   0.366   6.427   2.453  2.5922 -1.6166  0.5494
 1573TIP3   OH226353   0.637   5.617   0.597 -0.1341 -0.2809 -0.5384
 1573TIP3    H126354   0.659   5.556   0.526  2.2042 -1.6970  1.2356
 1573TIP3    H226355   0.676   5.700   0.570  0.7110 -0.7916 -0.9410
 1574TIP3   OH226356   1.929   2.660   1.343  0.0206 -0.3294  0.3265
 1574TIP3    H126357   1.922   2.606   1.421 -1.7254 -1.9642 -0.8781
 1574TIP3    H226358   2.024   2.673   1.331  0.3618 -0.9835  2.0355
 1575TIP3   OH226359   0.868   5.983   1.584  0.7518 -0.4205  0.1323
 1575TIP3    H126360   0.924   5.930   1.528  0.2609 -0.7734 -0.0302
 1575TIP3    H226361   0.807   6.026   1.524  1.5293  0.8182  0.1991
 1576TIP3   OH226362   1.664   1.994   0.192 -0.1353  0.0926 -0.1243
 1576TIP3    H126363   1.716   2.055   0.140 -1.5650 -0.3303 -2.1921
 1576TIP3    H226364   1.632   2.046   0.266  0.1819  1.3365 -0.8423
 1577TIP3   OH226365   4.204   5.326   0.330  0.0053 -0.3203  0.0586
 1577TIP3    H126366   4.205   5.307   0.236 -0.8427  0.9287 -0.2371
 1577TIP3    H226367   4.116   5.360   0.347 -0.0349 -1.0347  1.4215
 1578TIP3   OH226368   0.843   1.002   1.654 -0.0694  0.0077  0.3458
 1578TIP3    H126369   0.788   1.012   1.576 -1.2959 -1.8823  0.8897
 1578TIP3    H226370   0.903   1.076   1.651 -1.7913  1.4399 -0.9928
 1579TIP3   OH226371   0.039   1.174   3.025  0.4808  0.0507 -0.0586
 1579TIP3    H126372  -0.056   1.185   3.022  0.3974 -0.7721 -1.0163
 1579TIP3    H226373   0.061   1.185   3.118 -0.2631  2.2439 -0.0946
 1580TIP3   OH226374   3.000   5.750   3.326  0.0896 -0.6700  0.1412
 1580TIP3    H126375   3.094   5.769   3.323 -0.2988  1.2782 -0.6843
 1580TIP3    H226376   2.970   5.787   3.409 -0.4996  1.6993 -1.0567
 1581TIP3   OH226377   3.407   5.264   7.357 -0.5467 -0.1178 -0.2908
 1581TIP3    H126378   3.378   5.173   7.366 -0.7477 -0.0046  0.2021
 1581TIP3    H226379   3.381   5.289   7.268 -2.0625  0.0205  0.1709
 1582TIP3   OH226380   4.818   2.091   0.253 -0.1255  0.3098  0.7488
 1582TIP3    H126381   4.749   2.069   0.316 -1.3344 -1.5662 -1.1268
 1582TIP3    H226382   4.778   2.156   0.196 -0.3972 -0.7761 -0.3378
 1583TIP3   OH226383   6.707   0.593   0.631 -0.0202  0.2528  0.0128
 1583TIP3    H126384   6.712   0.671   0.576  0.9508 -0.4804 -0.9990
 1583TIP3    H226385   6.780   0.539   0.602 -1.3606 -1.5757 -0.1647
 1584TIP3   OH226386   0.542   2.103   7.842 -0.2014  0.0678  0.1021
 1584TIP3    H126387   0.577   2.142   7.922  0.2996 -0.8390  0.3300
 1584TIP3    H226388   0.524   2.178   7.785  2.3487  0.5770 -0.1230
 1585TIP3   OH226389   4.745   3.694   0.054 -0.2679 -0.1519 -0.5168
 1585TIP3    H126390   4.744   3.601   0.029 -0.2320  0.0784 -1.4309
 1585TIP3    H226391   4.653   3.716   0.069 -0.2388 -0.4278  0.0548
 1586TIP3   OH226392   2.875   1.293   0.089 -0.2886 -0.0379  0.2602
 1586TIP3    H126393   2.949   1.352   0.099 -1.1134  1.2570 -0.8503
 1586TIP3    H226394   2.890   1.250   0.005 -0.8073  0.2854 -0.0072
 1587TIP3   OH226395   3.500   4.867   2.548  0.3709 -0.4065  0.2897
 1587TIP3    H126396   3.492   4.883   2.453 -0.1125  0.8297  0.5186
 1587TIP3    H226397   3.563   4.795   2.555  0.8605 -0.1259 -0.9492
 1588TIP3   OH226398   4.046   3.672   1.051 -0.0229  1.2055 -0.4407
 1588TIP3    H126399   4.103   3.641   0.981 -0.7483 -1.6297  0.1105
 1588TIP3    H226400   4.099   3.735   1.099  1.3340  1.3540 -2.0495
 1589TIP3   OH226401   0.208   5.163   0.883 -0.3277 -0.0156  0.6465
 1589TIP3    H126402   0.185   5.247   0.921 -2.3281  0.1982 -0.8630
 1589TIP3    H226403   0.124   5.117   0.873  0.2920 -0.8345 -1.5397
 1590TIP3   OH226404   6.054   7.005   7.196  0.1816 -0.5088 -0.1160
 1590TIP3    H126405   5.991   6.949   7.240  0.0109  0.2665  0.6526
 1590TIP3    H226406   6.022   7.094   7.211  0.5724 -0.1930 -1.1123
 1591TIP3   OH226407   2.016   4.763   1.619  0.0310 -0.0064 -0.4548
 1591TIP3    H126408   1.985   4.698   1.683 -2.2306  3.1783  1.9813
 1591TIP3    H226409   2.090   4.719   1.576 -2.3091 -4.7789 -0.2998
 1592TIP3   OH226410   3.547   3.744   2.102 -0.4446 -0.3060  0.5000
 1592TIP3    H126411   3.474   3.683   2.106  0.8734 -1.9453  0.6594
 1592TIP3    H226412   3.590   3.725   2.018  0.5422 -0.2784  0.9867
 1593TIP3   OH226413   1.286   2.995   4.272  0.0036  0.1871 -0.1309
 1593TIP3    H126414   1.278   2.947   4.354 -0.2809  0.7334  0.1628
 1593TIP3    H226415   1.243   2.939   4.207 -0.4658  0.1171  0.2387
 1594TIP3   OH226416   1.584   2.481   7.718 -0.1699 -0.1409 -0.6009
 1594TIP3    H126417   1.530   2.536   7.662  1.5938  3.4811  0.9498
 1594TIP3    H226418   1.539   2.482   7.803  1.6601  2.1697  0.4534
 1595TIP3   OH226419   1.604   1.504   1.903 -0.8697 -0.1099 -0.0828
 1595TIP3    H126420   1.651   1.508   1.986 -1.0537  0.1884  0.0104
 1595TIP3    H226421   1.523   1.553   1.920  0.6214  3.1558 -1.4616
 1596TIP3   OH226422   2.352   5.017   2.667 -0.1597 -0.5189 -1.2060
 1596TIP3    H126423   2.353   4.952   2.737  1.4687  0.7320  0.0323
 1596TIP3    H226424   2.263   5.051   2.666 -0.7424 -1.9791 -1.1538
 1597TIP3   OH226425   3.185   4.041   1.904 -0.5198  0.1452 -0.5046
 1597TIP3    H126426   3.120   3.973   1.886 -1.7509  0.6536  1.6756
 1597TIP3    H226427   3.236   4.008   1.977  0.9709  0.2476 -1.4672
 1598TIP3   OH226428   1.623   4.316   2.453 -0.1153 -0.3449 -0.2161
 1598TIP3    H126429   1.692   4.274   2.402  1.3223  0.2397  1.1595
 1598TIP3    H226430   1.635   4.410   2.437  0.4719 -0.1322  1.2230
 1599TIP3   OH226431   1.328   6.189   2.502  0.3160  0.0135 -0.3691
 1599TIP3    H126432   1.371   6.235   2.574 -3.5106  0.5166  1.8308
 1599TIP3    H226433   1.355   6.098   2.513 -2.6923 -0.6535  4.1176
 1600TIP3   OH226434   0.764   2.370   0.268  0.3822 -0.1587  0.6942
 1600TIP3    H126435   0.688   2.325   0.231 -1.3370  1.2133  2.3335
 1600TIP3    H226436   0.746   2.372   0.362  1.4991  1.8818  0.9140
 1601TIP3   OH226437   3.211   6.843   3.511  0.0136 -0.3641 -0.0962
 1601TIP3    H126438   3.234   6.764   3.560 -3.6529 -0.3204  1.9855
 1601TIP3    H226439   3.232   6.822   3.420  1.2469 -2.8264  0.6816
 1602TIP3   OH226440   1.668   6.884   7.283 -0.0673 -0.2140  0.1168
 1602TIP3    H126441   1.713   6.967   7.298 -1.3821  0.3568  1.1788
 1602TIP3    H226442   1.592   6.888   7.341 -2.0061 -0.7150 -2.2312
 1603TIP3   OH226443   3.259   6.944   2.271 -0.1747  0.8033  0.0931
 1603TIP3    H126444   3.187   6.886   2.295 -1.0220  0.9925 -1.8043
 1603TIP3    H226445   3.337   6.903   2.309 -1.2324  0.5440  2.1029
 1604TIP3   OH226446   1.691   1.068   0.934  0.3671  0.1698  0.1956
 1604TIP3    H126447   1.699   0.986   0.983 -1.3068  1.5113  2.9073
 1604TIP3    H226448   1.767   1.119   0.960  0.7776 -0.0403 -0.5675
 1605TIP3   OH226449   6.993   5.899   2.748  0.4425  0.0718  0.8170
 1605TIP3    H126450   7.035   5.867   2.668 -1.2005 -0.2821  0.0414
 1605TIP3    H226451   6.980   5.821   2.802 -0.6138 -0.0824  0.3584
 1606TIP3   OH226452   1.581   4.092   2.107  0.4788  0.6100 -0.1636
 1606TIP3    H126453   1.675   4.086   2.088  0.8261  2.5486  0.6042
 1606TIP3    H226454   1.553   4.002   2.122  2.7247  0.1408  1.8184
 1607TIP3   OH226455   6.537   2.148   0.196 -0.3900 -0.3519  0.1531
 1607TIP3    H126456   6.607   2.139   0.260 -0.1977  0.0327 -0.0015
 1607TIP3    H226457   6.580   2.136   0.112 -0.4273  0.3085  0.0347
 1608TIP3   OH226458   2.800   2.622   1.702  0.1033  0.1758 -0.0222
 1608TIP3    H126459   2.771   2.710   1.725 -0.0814 -0.0529  0.6589
 1608TIP3    H226460   2.887   2.615   1.741  0.2101  0.1330 -0.2664
 1609TIP3   OH226461   3.112   6.205   0.414  0.7883 -0.6311 -0.0822
 1609TIP3    H126462   3.196   6.246   0.395 -0.9056  4.7088  2.0324
 1609TIP3    H226463   3.120   6.174   0.504  0.4096  0.3433  0.2982
 1610TIP3   OH226464   4.649   5.994   8.269 -0.1274  0.4445  0.1229
 1610TIP3    H126465   4.736   5.991   8.230  0.0386 -0.0340  0.5230
 1610TIP3    H226466   4.604   5.917   8.233  0.0842 -0.1017  0.9912
 1611TIP3   OH226467   6.007   1.804   2.709  0.0128  0.0311 -0.5326
 1611TIP3    H126468   5.918   1.768   2.713 -0.7280  1.6994 -1.2105
 1611TIP3    H226469   6.022   1.842   2.795 -0.5985  1.1964 -0.9200
 1612TIP3   OH226470   5.206   3.167   0.765 -0.2828  0.1186  0.3357
 1612TIP3    H126471   5.132   3.205   0.719  0.3709  1.0028 -0.0186
 1612TIP3    H226472   5.167   3.120   0.839 -1.3181 -1.0388 -0.8974
 1613TIP3   OH226473   1.722   1.928   1.450 -0.2922 -0.0502  0.5088
 1613TIP3    H126474   1.674   1.879   1.383 -0.5198 -0.6174  1.0832
 1613TIP3    H226475   1.747   1.862   1.514  1.7032  0.1374 -0.0127
 1614TIP3   OH226476   5.972   3.995   2.577  0.7133  0.5411  0.3724
 1614TIP3    H126477   5.893   4.027   2.620 -0.4052 -0.8569 -0.5345
 1614TIP3    H226478   6.025   4.073   2.563 -0.2589  1.4391  1.5010
 1615TIP3   OH226479   5.895   3.384   2.554  0.5303 -0.0515 -0.0268
 1615TIP3    H126480   5.899   3.459   2.613  1.2986 -1.4669  1.8204
 1615TIP3    H226481   5.802   3.363   2.549  0.4004  0.4408  0.1981
 1616TIP3   OH226482   2.533   0.107   0.632 -0.1309  0.5010 -0.4718
 1616TIP3    H126483   2.497   0.028   0.591 -2.3261 -0.2679  2.6473
 1616TIP3    H226484   2.461   0.142   0.684  1.9474  2.3794  1.3046
 1617TIP3   OH226485   5.264   3.599   7.289  0.0426 -0.2181  0.2274
 1617TIP3    H126486   5.284   3.684   7.328  0.1869 -0.0711 -0.1651
 1617TIP3    H226487   5.345   3.574   7.244  0.6264 -1.4040  1.8381
 1618TIP3   OH226488   1.053   5.953   0.591 -0.2981  0.2137 -0.1966
 1618TIP3    H126489   1.114   5.954   0.665 -1.6791 -1.9581  1.0996
 1618TIP3    H226490   1.109   5.939   0.514  0.9429 -0.7838  0.8329
 1619TIP3   OH226491   1.899   0.165   8.100  0.3865  0.3703 -0.1378
 1619TIP3    H126492   1.861   0.253   8.101 -0.4623  0.0167 -0.3766
 1619TIP3    H226493   1.913   0.144   8.192  1.6228  1.1769 -0.1171
 1620TIP3   OH226494   1.765   2.292   2.006 -0.0426 -0.1828 -0.4467
 1620TIP3    H126495   1.781   2.199   2.022  3.3499  0.2515 -0.6019
 1620TIP3    H226496   1.770   2.302   1.911  0.1988  0.2422 -0.3926
 1621TIP3   OH226497   2.973   6.470   0.728  0.4273 -0.5813 -0.4177
 1621TIP3    H126498   2.918   6.437   0.799  1.1793 -1.7743 -0.3726
 1621TIP3    H226499   3.045   6.408   0.722  1.8617  1.0248 -0.3835
 1622TIP3   OH226500   0.537   5.189   1.216 -0.6179  1.1279  0.4239
 1622TIP3    H126501   0.454   5.154   1.184  0.6232 -0.1743 -1.5999
 1622TIP3    H226502   0.570   5.242   1.144 -0.1783  2.5539  1.6287
 1623TIP3   OH226503   1.360   4.123   8.170 -0.4512  0.5344  0.1713
 1623TIP3    H126504   1.317   4.103   8.086 -0.4597 -0.0975  0.3166
 1623TIP3    H226505   1.451   4.139   8.146 -0.1682 -0.9209  0.1644
 1624TIP3   OH226506   0.815   6.710   0.987 -0.0126 -0.7864 -0.4385
 1624TIP3    H126507   0.822   6.622   1.023 -0.6271 -0.3326  0.8528
 1624TIP3    H226508   0.903   6.747   0.998 -0.5217 -0.1439  2.0867
 1625TIP3   OH226509   6.517   6.179   0.074 -0.1088  0.0177  0.0496
 1625TIP3    H126510   6.483   6.245   0.013  3.6354  1.8720 -0.3208
 1625TIP3    H226511   6.526   6.100   0.021 -0.9484  0.3358 -0.5969
 1626TIP3   OH226512   5.839   5.203   2.416  0.5871  0.2226  0.4792
 1626TIP3    H126513   5.896   5.237   2.346 -0.1864 -0.6599 -0.6122
 1626TIP3    H226514   5.759   5.254   2.408  1.0261  1.1656  1.7406
 1627TIP3   OH226515   1.364   1.231   2.799  0.4147 -0.0229 -0.0240
 1627TIP3    H126516   1.368   1.253   2.892  1.1633 -0.3046  0.0164
 1627TIP3    H226517   1.273   1.246   2.775 -0.1676 -1.4303  1.1318
 1628TIP3   OH226518   2.929   5.809   2.870  0.6462 -0.9806 -0.0608
 1628TIP3    H126519   3.022   5.786   2.870  0.7420 -0.8304 -2.2042
 1628TIP3    H226520   2.927   5.898   2.835 -0.3061 -0.9854 -0.0371
 1629TIP3   OH226521   6.136   6.985   0.578 -0.4951  0.5986 -0.8098
 1629TIP3    H126522   6.136   6.936   0.496  2.4480 -1.5753  0.3324
 1629TIP3    H226523   6.224   7.021   0.585 -1.9488  4.7223 -0.6400
 1630TIP3   OH226524   6.154   5.115   1.034  0.6763  0.0628 -0.4706
 1630TIP3    H126525   6.125   5.188   1.089 -0.7546 -2.4574  2.4679
 1630TIP3    H226526   6.073   5.076   1.002  1.3345 -1.0111 -0.8665
 1631TIP3   OH226527   3.870   2.102   1.154 -0.1201  0.4015 -0.3989
 1631TIP3    H126528   3.954   2.096   1.109  0.2441  1.0956  0.1743
 1631TIP3    H226529   3.885   2.060   1.239 -0.0517  1.4042  0.1044
 1632TIP3   OH226530   3.738   6.494   1.588  0.1271  0.1060  0.0795
 1632TIP3    H126531   3.773   6.552   1.655  2.1316  0.0818 -0.8655
 1632TIP3    H226532   3.686   6.430   1.637  0.3457  0.9283  1.4465
 1633TIP3   OH226533   1.297   2.837   2.877 -0.0772 -0.2610 -0.4673
 1633TIP3    H126534   1.241   2.835   2.955  1.9604  1.0499  1.1540
 1633TIP3    H226535   1.329   2.927   2.874  5.3045 -1.7282  1.3812
 1634TIP3   OH226536   0.594   4.881   0.921 -0.0506  0.2249 -0.4993
 1634TIP3    H126537   0.507   4.922   0.923  1.2521  3.2246  0.5627
 1634TIP3    H226538   0.596   4.826   0.999 -0.3896  1.6253  0.5344
 1635TIP3   OH226539   4.457   1.357   7.532  0.0827 -0.2960 -0.2187
 1635TIP3    H126540   4.518   1.377   7.460 -2.5378  2.2534 -1.9779
 1635TIP3    H226541   4.402   1.288   7.497 -0.0522 -0.3405  0.0848
 1636TIP3   OH226542   0.213   6.717   2.534 -0.2742 -0.1972 -0.0008
 1636TIP3    H126543   0.175   6.731   2.448 -0.2003  0.9187  0.1304
 1636TIP3    H226544   0.272   6.642   2.523 -1.1355 -0.7996 -0.6260
 1637TIP3   OH226545   6.104   5.493   0.524  0.0189 -0.5979 -0.0877
 1637TIP3    H126546   6.099   5.569   0.581 -1.9438  0.1312 -1.1587
 1637TIP3    H226547   6.157   5.430   0.573 -0.5454  0.4585  1.9816
 1638TIP3   OH226548   1.018   0.045   2.439 -0.1774 -0.1048  0.0328
 1638TIP3    H126549   1.105   0.053   2.399  0.1711  0.7545  0.9071
 1638TIP3    H226550   0.961   0.016   2.368  0.9733 -1.4955 -0.3745
 1639TIP3   OH226551   1.630   2.629   2.004  0.1336  0.3217  0.1584
 1639TIP3    H126552   1.622   2.552   2.059  1.3954  1.0384  1.3869
 1639TIP3    H226553   1.550   2.679   2.021 -0.7252 -0.7125 -0.7023
 1640TIP3   OH226554   1.573   6.238   7.323  1.0720 -0.3851  0.1090
 1640TIP3    H126555   1.573   6.162   7.266 -0.5115 -1.4704  1.4611
 1640TIP3    H226556   1.622   6.210   7.401  0.3421 -0.1045  0.6874
 1641TIP3   OH226557   1.747   0.556   2.812 -0.5412 -0.5370  0.0309
 1641TIP3    H126558   1.656   0.547   2.784 -0.7843 -0.1270  0.6544
 1641TIP3    H226559   1.789   0.474   2.785 -1.3005 -1.0946  0.5076
 1642TIP3   OH226560   2.011   0.976   0.359 -0.0800 -0.9060  0.3925
 1642TIP3    H126561   2.097   0.970   0.400 -1.0322 -2.3771  2.3407
 1642TIP3    H226562   1.966   1.044   0.408  0.3577  0.8495 -1.5154
 1643TIP3   OH226563   4.528   1.183   0.569 -0.1505 -0.6802  0.5328
 1643TIP3    H126564   4.503   1.114   0.631 -1.4947  0.3896  1.2207
 1643TIP3    H226565   4.445   1.216   0.534  0.2805  2.0219  1.8142
 1644TIP3   OH226566   1.778   5.152   0.585 -0.0125 -0.7210  0.0197
 1644TIP3    H126567   1.854   5.101   0.559 -1.2720 -2.4090 -0.5495
 1644TIP3    H226568   1.780   5.150   0.681  0.4533 -1.0519  0.0059
 1645TIP3   OH226569   1.156   1.076   1.777  0.0260 -0.2727  0.4919
 1645TIP3    H126570   1.136   1.123   1.858 -0.9865 -0.5743  0.4329
 1645TIP3    H226571   1.180   1.145   1.715 -0.0397  0.0363  0.8075
 1646TIP3   OH226572   0.718   3.079   0.199  0.3110  0.1311 -0.0238
 1646TIP3    H126573   0.685   3.043   0.117  1.7239 -1.5696  0.0898
 1646TIP3    H226574   0.770   3.008   0.237 -0.0767  0.9681  2.2177
 1647TIP3   OH226575   6.810   0.066   0.847  0.0052  0.0955  0.0588
 1647TIP3    H126576   6.764  -0.001   0.795 -0.0537 -0.6739  1.0776
 1647TIP3    H226577   6.879   0.098   0.789 -2.1045  1.6957 -1.7384
 1648TIP3   OH226578   1.589   1.328   1.700 -0.1247  0.3207 -0.5173
 1648TIP3    H126579   1.582   1.385   1.776  1.6692 -0.3927  0.2151
 1648TIP3    H226580   1.681   1.303   1.696 -0.6055 -1.4553 -1.6132
 1649TIP3   OH226581   6.110   0.800   1.320  0.0071 -0.3568  0.1997
 1649TIP3    H126582   6.131   0.863   1.251  1.7770 -1.5536 -0.4026
 1649TIP3    H226583   6.194   0.782   1.363 -0.1703 -3.2091 -0.4524
 1650TIP3   OH226584   5.271   6.961   1.405 -0.1073  0.0849  0.4733
 1650TIP3    H126585   5.291   6.961   1.498 -0.6412  1.9822  0.6361
 1650TIP3    H226586   5.262   6.868   1.382 -1.0912 -0.3995  2.5518
 1651TIP3   OH226587   6.633   5.251   2.148  0.4166  0.0982 -1.0368
 1651TIP3    H126588   6.632   5.308   2.071 -1.1391 -0.4113 -1.4175
 1651TIP3    H226589   6.563   5.285   2.204  1.9300  0.8560  0.4806
 1652TIP3   OH226590   1.311   4.030   1.228  0.1002  0.2047 -0.0435
 1652TIP3    H126591   1.337   4.055   1.317  2.0312  0.5547 -0.6755
 1652TIP3    H226592   1.365   3.954   1.208 -1.9072 -1.2833 -0.1491
 1653TIP3   OH226593   5.180   2.553   2.297 -0.1378  0.2090 -0.3722
 1653TIP3    H126594   5.150   2.497   2.224  2.2084 -0.3351 -1.0146
 1653TIP3    H226595   5.175   2.496   2.374 -0.9051  0.1921 -0.4304
 1654TIP3   OH226596   4.996   6.323   2.722  0.4173 -0.1049  0.4832
 1654TIP3    H126597   5.083   6.301   2.756  0.4432  0.1383  0.5767
 1654TIP3    H226598   5.001   6.418   2.705  0.4924 -0.2636 -0.4408
 1655TIP3   OH226599   1.082   2.199   7.249  0.0727 -0.3657  0.0818
 1655TIP3    H126600   1.021   2.203   7.175 -1.3739 -0.3800  1.2200
 1655TIP3    H226601   1.156   2.148   7.217 -0.4872 -0.3213 -1.3630
 1656TIP3   OH226602   4.202   4.992   2.390  0.1523 -0.1363  0.4864
 1656TIP3    H126603   4.191   4.899   2.407  0.4839 -0.2179  0.2716
 1656TIP3    H226604   4.234   5.028   2.473 -0.2310 -0.1654  0.6483
 1657TIP3   OH226605   2.838   4.806   1.374  0.0121  0.6854 -0.1990
 1657TIP3    H126606   2.841   4.711   1.372 -1.6838  0.5332  1.8033
 1657TIP3    H226607   2.852   4.829   1.465  2.1782  2.4991 -0.9074
 1658TIP3   OH226608   4.131   4.183   0.323  0.2618 -0.8365 -0.2050
 1658TIP3    H126609   4.151   4.218   0.410 -0.8153 -0.7659  0.0253
 1658TIP3    H226610   4.215   4.152   0.290  1.1492  1.2712 -0.1190
 1659TIP3   OH226611   1.660   1.248   8.138  0.1960 -0.2259  0.1466
 1659TIP3    H126612   1.715   1.324   8.119  1.6544 -1.0087  1.0743
 1659TIP3    H226613   1.692   1.216   8.222 -1.4580 -0.9406  0.5467
 1660TIP3   OH226614   5.327   0.895   2.712  0.3033  0.3364 -0.0146
 1660TIP3    H126615   5.329   0.799   2.711  0.3689  0.3150  1.0368
 1660TIP3    H226616   5.268   0.918   2.641  0.2182 -0.4863 -0.2265
 1661TIP3   OH226617   2.641   4.237   1.887 -0.0222  0.3550 -0.2862
 1661TIP3    H126618   2.620   4.320   1.931  0.8743  0.1871  0.4823
 1661TIP3    H226619   2.604   4.170   1.944  1.5994  0.1092  0.5251
 1662TIP3   OH226620   2.159   5.904   3.240 -0.3518 -0.1782 -0.7407
 1662TIP3    H126621   2.064   5.914   3.228 -0.5843 -2.3201 -1.1955
 1662TIP3    H226622   2.167   5.834   3.305  0.9276  0.4554 -0.1973
 1663TIP3   OH226623   0.203   0.880   7.989 -0.0985  0.5314  0.4331
 1663TIP3    H126624   0.231   0.795   8.022  0.8397  1.4972  2.2969
 1663TIP3    H226625   0.279   0.914   7.941 -0.4375  0.3938 -0.2252
 1664TIP3   OH226626   3.563   1.477   8.135  0.5430 -0.0727 -0.0134
 1664TIP3    H126627   3.479   1.431   8.133  0.7416 -0.7168  2.6842
 1664TIP3    H226628   3.555   1.545   8.068 -2.1781 -0.0597  0.2302
 1665TIP3   OH226629   3.783   6.088   1.710  0.0206 -0.0967 -0.2859
 1665TIP3    H126630   3.723   6.107   1.638 -0.3149  1.1109  0.2831
 1665TIP3    H226631   3.746   6.134   1.785  1.0613 -0.2522  0.3444
 1666TIP3   OH226632   6.814   0.704   2.606  0.3708  0.4542  0.5074
 1666TIP3    H126633   6.903   0.689   2.574  0.2525 -0.0504  0.4116
 1666TIP3    H226634   6.811   0.663   2.692  0.5975  1.5503  1.0481
 1667TIP3   OH226635   3.576   5.594   2.338 -0.1408 -0.4540  0.1777
 1667TIP3    H126636   3.640   5.664   2.330 -2.1406  1.6861  1.6814
 1667TIP3    H226637   3.601   5.530   2.271  1.9872  1.4823 -0.9934
 1668TIP3   OH226638   2.694   2.467   0.583 -0.1512 -0.2389  0.1605
 1668TIP3    H126639   2.720   2.375   0.578 -0.2316 -0.2916  0.6479
 1668TIP3    H226640   2.609   2.465   0.626  0.4835  0.1607  1.4864
 1669TIP3   OH226641   6.549   2.500   3.909 -0.1946 -0.3406  0.2911
 1669TIP3    H126642   6.561   2.507   3.815  0.6680 -3.0932  0.1259
 1669TIP3    H226643   6.462   2.537   3.925 -0.8690 -0.9313 -1.7604
 1670TIP3   OH226644   1.332   2.261   3.426 -0.7065 -0.6754  0.5242
 1670TIP3    H126645   1.306   2.353   3.420  0.0196 -0.3967  1.4619
 1670TIP3    H226646   1.380   2.245   3.345 -3.1721 -1.0411 -0.9715
 1671TIP3   OH226647   0.489   1.796   3.393  0.3473  0.3533 -0.5061
 1671TIP3    H126648   0.431   1.837   3.457  0.8979  1.3498 -0.6184
 1671TIP3    H226649   0.527   1.721   3.439 -1.2201 -0.4898 -0.5264
 1672TIP3   OH226650   0.561   0.451   1.580 -0.5387  0.0971 -0.1265
 1672TIP3    H126651   0.491   0.386   1.591  0.1517 -0.5474  0.6280
 1672TIP3    H226652   0.558   0.474   1.487  0.0609 -2.0295 -0.7343
 1673TIP3   OH226653   7.067   6.221   1.471 -0.3927  0.0740 -0.4059
 1673TIP3    H126654   7.143   6.246   1.418  0.7508 -1.8264  0.2622
 1673TIP3    H226655   7.056   6.294   1.532  1.3561  0.0882 -0.0544
 1674TIP3   OH226656   5.032   3.031   1.604 -0.2390 -0.3424  0.1732
 1674TIP3    H126657   5.022   3.104   1.542  1.8418  0.9782  1.2735
 1674TIP3    H226658   4.979   2.961   1.567 -0.9311  1.1523 -1.8599
 1675TIP3   OH226659   0.452   6.591   0.226 -0.0142 -0.7841 -0.1525
 1675TIP3    H126660   0.440   6.640   0.144 -1.8772 -0.8535  0.0496
 1675TIP3    H226661   0.512   6.646   0.277  1.2521 -0.7849 -1.5774
 1676TIP3   OH226662   3.256   5.523   1.095  0.1741 -0.1857 -0.2159
 1676TIP3    H126663   3.203   5.562   1.165  0.7068  0.2143 -0.0311
 1676TIP3    H226664   3.266   5.431   1.121  1.2916  0.1966  0.8256
 1677TIP3   OH226665   0.992   3.286   2.453 -0.5881 -0.3728  0.2924
 1677TIP3    H126666   0.899   3.266   2.462 -0.1248 -2.9043  0.2495
 1677TIP3    H226667   1.018   3.319   2.539 -1.1585 -1.4196  0.8890
 1678TIP3   OH226668   4.836   2.976   2.049  0.0887  0.9026  0.2687
 1678TIP3    H126669   4.801   3.065   2.048 -1.4555  0.3468 -1.8805
 1678TIP3    H226670   4.796   2.936   2.126 -1.8941  1.1223 -0.5967
 1679TIP3   OH226671   3.443   3.331   2.059 -0.0605 -0.2160  0.4626
 1679TIP3    H126672   3.379   3.365   2.121 -1.0309  1.0955 -1.1721
 1679TIP3    H226673   3.396   3.263   2.011 -0.0648  0.3632 -0.3687
 1680TIP3   OH226674   0.610   5.617   0.890 -0.2033  0.7082 -0.0419
 1680TIP3    H126675   0.620   5.645   0.799 -0.6496 -0.5208 -0.5031
 1680TIP3    H226676   0.530   5.658   0.920 -0.8329 -0.0083 -0.6926
 1681TIP3   OH226677   0.723   1.537   7.081 -0.2471  0.5291  0.8256
 1681TIP3    H126678   0.815   1.544   7.056 -0.2073 -0.3336  0.7184
 1681TIP3    H226679   0.721   1.557   7.174  0.2231 -0.6739  1.0986
 1682TIP3   OH226680   1.588   0.237   6.936  0.1550 -0.1886 -0.3271
 1682TIP3    H126681   1.652   0.186   6.987 -0.0664  0.7625  0.9421
 1682TIP3    H226682   1.533   0.278   7.002 -0.0682  1.1989 -1.3410
 1683TIP3   OH226683   0.210   3.271   3.643 -0.4779  0.0137  0.9257
 1683TIP3    H126684   0.193   3.360   3.612  1.0445 -0.7777 -2.6558
 1683TIP3    H226685   0.149   3.216   3.594 -0.2258 -1.1222  1.8202
 1684TIP3   OH226686   6.188   3.787   0.709  0.0898  0.2716 -0.0120
 1684TIP3    H126687   6.101   3.826   0.706 -0.1687 -0.1735  1.0904
 1684TIP3    H226688   6.189   3.723   0.638  0.0057  1.2267 -0.8888
 1685TIP3   OH226689   5.379   1.251   0.361 -0.6111 -0.2507 -0.1849
 1685TIP3    H126690   5.304   1.206   0.399 -0.9096 -1.1068 -1.6691
 1685TIP3    H226691   5.417   1.186   0.302  0.0007  0.8881 -1.0813
 1686TIP3   OH226692   6.732   1.476   1.563  0.4015  0.3734 -0.1845
 1686TIP3    H126693   6.750   1.565   1.594  1.2272 -0.1888  1.0274
 1686TIP3    H226694   6.746   1.480   1.468  1.8273  1.2281  0.0258
 1687TIP3   OH226695   2.894   3.891   7.947 -0.3170  0.0163 -0.4138
 1687TIP3    H126696   2.962   3.871   8.012 -0.9155  1.0259  0.5666
 1687TIP3    H226697   2.812   3.890   7.997 -0.8620  0.2351 -1.2755
 1688TIP3   OH226698   1.491   4.359   7.916 -0.4461 -0.3666  0.7013
 1688TIP3    H126699   1.468   4.403   7.998 -1.8760 -1.6701  1.0460
 1688TIP3    H226700   1.417   4.301   7.899 -0.0436 -0.3163 -1.3912
 1689TIP3   OH226701   2.521   4.296   7.242  0.3095 -0.1162 -0.8720
 1689TIP3    H126702   2.451   4.249   7.195 -2.9196  0.4881  2.8090
 1689TIP3    H226703   2.500   4.389   7.230  0.6438  0.0896  0.0455
 1690TIP3   OH226704   4.941   2.297   0.098 -0.4857  0.0712 -0.5150
 1690TIP3    H126705   4.878   2.369   0.107 -0.6155 -0.2638  1.8771
 1690TIP3    H226706   5.024   2.334   0.130 -0.5928 -0.8502  0.9129
 1691TIP3   OH226707   2.050   1.315   0.591 -0.4331 -0.1544  0.2140
 1691TIP3    H126708   2.143   1.337   0.599 -0.0687 -0.5958 -2.0870
 1691TIP3    H226709   2.007   1.398   0.571 -0.6270  0.1251  1.7128
 1692TIP3   OH226710   3.525   0.061   3.121 -0.0869 -0.1240 -0.7491
 1692TIP3    H126711   3.508  -0.009   3.184 -0.2737  0.6142  0.0271
 1692TIP3    H226712   3.607   0.035   3.078  0.4614 -0.2440  0.3416
 1693TIP3   OH226713   5.145   0.596   3.035 -0.6483 -0.0903 -0.2984
 1693TIP3    H126714   5.215   0.545   2.994 -0.0094  1.3811 -1.1081
 1693TIP3    H226715   5.122   0.546   3.113  1.9622 -0.1884  0.5180
 1694TIP3   OH226716   1.194   2.532   3.657 -0.0751 -0.3535 -0.5405
 1694TIP3    H126717   1.231   2.616   3.631  0.7450 -1.1854 -2.2363
 1694TIP3    H226718   1.113   2.525   3.606 -0.7104 -0.1209  0.4264
 1695TIP3   OH226719   3.332   5.688   2.462 -0.0412  0.3787  0.0263
 1695TIP3    H126720   3.284   5.624   2.514  0.3396 -0.5195 -0.7013
 1695TIP3    H226721   3.424   5.663   2.471  0.2144  1.4845  0.6026
 1696TIP3   OH226722   5.860   5.856   2.438  0.2679 -0.1316  0.2094
 1696TIP3    H126723   5.792   5.898   2.490  0.9991  0.2358  0.8749
 1696TIP3    H226724   5.909   5.928   2.399  0.5920 -0.3903  0.1360
 1697TIP3   OH226725   6.761   4.913   0.475  0.5876  0.4327 -0.0059
 1697TIP3    H126726   6.727   4.824   0.462  1.0361  0.1121  0.8915
 1697TIP3    H226727   6.725   4.963   0.402 -0.3837 -0.2823 -0.0476
 1698TIP3   OH226728   3.479   5.545   3.329  0.1225 -0.2167 -0.0092
 1698TIP3    H126729   3.535   5.468   3.341 -1.6980 -1.5820  0.1265
 1698TIP3    H226730   3.392   5.516   3.356 -0.9076  1.4831 -1.3025
 1699TIP3   OH226731   3.460   3.589   2.870  0.0433 -0.6128 -0.1395
 1699TIP3    H126732   3.491   3.654   2.806 -0.5410  1.5190  1.6208
 1699TIP3    H226733   3.380   3.554   2.832  0.3905 -0.3535 -1.1445
 1700TIP3   OH226734   1.384   1.525   7.335 -0.4881 -0.2421 -0.7241
 1700TIP3    H126735   1.412   1.545   7.245 -0.8292  0.9405 -0.5973
 1700TIP3    H226736   1.341   1.606   7.364  0.9638 -0.0385  1.0486
 1701TIP3   OH226737   6.689   2.637   2.123 -0.5880 -0.1295 -0.1513
 1701TIP3    H126738   6.617   2.573   2.122  0.3348 -1.3271  2.5136
 1701TIP3    H226739   6.670   2.693   2.199  0.5012  0.5370 -0.3528
 1702TIP3   OH226740   4.083   4.636   3.566  0.1150  1.0054  0.1988
 1702TIP3    H126741   4.161   4.678   3.529 -0.6713  1.2729 -1.2516
 1702TIP3    H226742   4.053   4.577   3.497 -0.7523  0.6165  0.8894
 1703TIP3   OH226743   0.521   0.246   8.106 -0.1901  0.3423  0.5145
 1703TIP3    H126744   0.552   0.159   8.128 -2.5468 -0.8139 -0.3032
 1703TIP3    H226745   0.531   0.251   8.011  0.1003  1.0468  0.5786
 1704TIP3   OH226746   5.389   0.525   0.544 -0.1393  0.0737 -0.4345
 1704TIP3    H126747   5.387   0.579   0.466  0.9794  0.0930 -0.4656
 1704TIP3    H226748   5.475   0.542   0.583  0.5555 -2.1749 -0.8235
 1705TIP3   OH226749   1.990   6.073   2.663  0.0608  0.2737 -0.0524
 1705TIP3    H126750   1.946   5.990   2.644 -1.5617  0.4371  2.4762
 1705TIP3    H226751   2.080   6.059   2.636 -0.4539 -1.8530 -0.8813
 1706TIP3   OH226752   5.871   7.000   0.666 -0.4975  0.0529 -0.1750
 1706TIP3    H126753   5.934   7.061   0.627  0.2193 -0.0518  0.7876
 1706TIP3    H226754   5.897   6.994   0.758  0.6526 -3.1468 -0.5835
 1707TIP3   OH226755   2.253   0.083   3.694 -0.1446 -0.3647 -0.0557
 1707TIP3    H126756   2.315   0.010   3.684 -0.0496 -0.1584 -1.0766
 1707TIP3    H226757   2.175   0.043   3.732 -0.4132 -1.1792 -1.4005
 1708TIP3   OH226758   5.791   6.830   0.454 -0.6020  0.1207 -0.0651
 1708TIP3    H126759   5.705   6.870   0.442 -0.3853  0.4100 -0.6671
 1708TIP3    H226760   5.823   6.869   0.536 -0.1221  1.7000 -0.9646
 1709TIP3   OH226761   7.026   5.469   3.268 -0.2321  0.0554 -0.4052
 1709TIP3    H126762   7.051   5.560   3.286 -1.4550 -0.3193  4.7381
 1709TIP3    H226763   6.935   5.463   3.296  0.4144 -3.1251  1.5396
 1710TIP3   OH226764   2.662   0.291   2.405 -0.5036 -0.2693 -0.0485
 1710TIP3    H126765   2.654   0.369   2.460 -2.9752 -0.3723 -0.1823
 1710TIP3    H226766   2.688   0.222   2.465 -2.4907 -0.2232  0.9332
 1711TIP3   OH226767   5.440   4.782   0.825  0.1685 -0.1748 -0.2536
 1711TIP3    H126768   5.421   4.805   0.916 -1.3857 -1.5501 -0.1898
 1711TIP3    H226769   5.482   4.697   0.830  1.5030  0.4241 -0.7628
 1712TIP3   OH226770   4.227   5.775   0.817  0.3147  0.9472 -0.4074
 1712TIP3    H126771   4.152   5.828   0.792  0.1799 -0.5212 -3.6529
 1712TIP3    H226772   4.303   5.830   0.799  0.0866  1.2988 -0.2961
 1713TIP3   OH226773   6.414   0.771   2.633  0.2256 -0.0680 -0.4031
 1713TIP3    H126774   6.492   0.773   2.689 -0.7976  2.1095  1.0792
 1713TIP3    H226775   6.345   0.737   2.689  0.0968 -2.3680 -1.8195
 1714TIP3   OH226776   6.191   1.228   2.372 -0.2075  0.0979 -0.1175
 1714TIP3    H126777   6.276   1.200   2.405 -1.2781 -0.4991  2.3286
 1714TIP3    H226778   6.207   1.315   2.336  1.4859 -0.1374 -0.0278
 1715TIP3   OH226779   1.505   6.287   3.522  0.4737 -0.3636  0.3153
 1715TIP3    H126780   1.444   6.237   3.577 -0.2787  1.7827  1.5317
 1715TIP3    H226781   1.576   6.311   3.581  1.5419 -1.1153 -0.6064
 1716TIP3   OH226782   4.674   6.446   2.842 -0.0639  0.9995 -0.6804
 1716TIP3    H126783   4.669   6.494   2.760 -0.5636  0.2760 -1.0799
 1716TIP3    H226784   4.637   6.360   2.823  1.8926  0.0065 -0.2959
 1717TIP3   OH226785   2.111   3.377   0.743  0.9560 -0.5040  0.0054
 1717TIP3    H126786   2.152   3.462   0.755  0.4469 -0.2499 -0.0185
 1717TIP3    H226787   2.103   3.341   0.831 -0.7193  0.3828  0.2717
 1718TIP3   OH226788   4.618   4.411   0.667 -0.4391 -0.2040  0.5362
 1718TIP3    H126789   4.674   4.487   0.653 -0.1282 -0.6614 -0.9425
 1718TIP3    H226790   4.680   4.338   0.677 -0.7365 -0.6599 -0.7719
 1719TIP3   OH226791   4.471   1.112   1.989  0.2648 -0.8260 -0.3952
 1719TIP3    H126792   4.416   1.035   2.000 -0.1313 -0.7159 -1.5619
 1719TIP3    H226793   4.561   1.077   1.987  0.0942 -1.2465 -0.8117
 1720TIP3   OH226794   5.422   4.756   2.625 -0.1140 -0.2808  0.3804
 1720TIP3    H126795   5.375   4.678   2.654 -0.6166  0.0628  0.5002
 1720TIP3    H226796   5.500   4.758   2.680  0.3210 -1.1440 -0.1821
 1721TIP3   OH226797   3.275   5.897   1.120  0.3870 -0.4444  0.0727
 1721TIP3    H126798   3.246   5.892   1.029  0.9341 -1.0671 -0.0758
 1721TIP3    H226799   3.198   5.872   1.171 -0.3376  1.2533 -0.1339
 1722TIP3   OH226800   4.734   5.177   1.088 -0.0046 -0.3814 -0.0269
 1722TIP3    H126801   4.714   5.088   1.060  1.0722 -0.2885 -1.1827
 1722TIP3    H226802   4.653   5.209   1.128 -0.9886 -1.2105 -1.2975
 1723TIP3   OH226803   0.731   4.135   1.835 -0.2528  0.0502 -0.0314
 1723TIP3    H126804   0.688   4.215   1.806 -1.8246 -0.1834  1.4858
 1723TIP3    H226805   0.814   4.164   1.872 -0.8797  1.0262  0.6604
 1724TIP3   OH226806   5.662   5.500   0.827 -0.0986  0.3917  0.7730
 1724TIP3    H126807   5.572   5.512   0.799 -0.3039 -1.2050  0.6511
 1724TIP3    H226808   5.713   5.560   0.773 -0.7163 -1.1576 -1.6556
 1725TIP3   OH226809   1.185   6.714   1.020  0.5623 -0.1498 -0.4305
 1725TIP3    H126810   1.143   6.767   0.953 -0.5299  0.8691  1.0292
 1725TIP3    H226811   1.246   6.658   0.971 -0.2751  0.4839 -2.2670
 1726TIP3   OH226812   6.838   1.599   2.099 -0.2550  0.0481  0.2073
 1726TIP3    H126813   6.769   1.635   2.155  1.1623  0.0546  2.0839
 1726TIP3    H226814   6.878   1.675   2.057 -0.1006  0.2566  0.7211
 1727TIP3   OH226815   3.574   5.888   8.277  0.0981 -0.4576 -0.4241
 1727TIP3    H126816   3.651   5.941   8.255  0.8983 -0.6626  1.5984
 1727TIP3    H226817   3.584   5.870   8.371 -1.6496 -1.7761 -0.4394
 1728TIP3   OH226818   5.751   0.330   2.515  0.3543  0.1639 -0.1936
 1728TIP3    H126819   5.746   0.235   2.531 -0.1629  0.3843  1.0536
 1728TIP3    H226820   5.684   0.347   2.450 -0.7832 -0.0888  0.8757
 1729TIP3   OH226821   3.713   4.498   0.170  0.1123  0.8564  0.2387
 1729TIP3    H126822   3.683   4.410   0.194 -2.0175  1.5850  0.4321
 1729TIP3    H226823   3.796   4.509   0.217  0.1836 -0.8581  0.5783
 1730TIP3   OH226824   2.930   6.686   1.132  0.4432  0.0234 -0.1661
 1730TIP3    H126825   2.903   6.685   1.040 -0.3099  0.7290  0.0336
 1730TIP3    H226826   2.892   6.767   1.167  2.4636  0.8528  0.2524
 1731TIP3   OH226827   0.510   0.694   8.193 -0.8582  0.6153 -1.3840
 1731TIP3    H126828   0.572   0.623   8.176 -0.4707  0.5689  0.1059
 1731TIP3    H226829   0.565   0.771   8.205 -1.0108  0.4525  0.5811
 1732TIP3   OH226830   1.590   6.428   2.434  0.1806 -0.1837 -0.0920
 1732TIP3    H126831   1.536   6.451   2.510  2.0410  0.4506  1.1177
 1732TIP3    H226832   1.629   6.344   2.457  1.9688  0.7288  0.4059
 1733TIP3   OH226833   3.379   3.736   0.541  0.4153  0.1747  0.4627
 1733TIP3    H126834   3.461   3.691   0.562  0.4967  0.3146  0.4470
 1733TIP3    H226835   3.390   3.823   0.579  0.7312  0.5654 -0.5127
 1734TIP3   OH226836   1.294   0.233   0.342 -0.4697 -0.5362 -0.3356
 1734TIP3    H126837   1.263   0.290   0.412 -0.8975 -0.8379 -0.2768
 1734TIP3    H226838   1.264   0.146   0.366 -0.6154 -0.6461 -0.8852
 1735TIP3   OH226839   5.999   4.839   3.062  0.1806 -0.4557 -0.0579
 1735TIP3    H126840   6.042   4.923   3.043  0.1337 -0.0253  1.5800
 1735TIP3    H226841   6.034   4.813   3.147 -1.8440 -0.6894  0.7718
 1736TIP3   OH226842   2.576   0.374   1.337 -0.3344  0.2750 -0.4099
 1736TIP3    H126843   2.525   0.362   1.257 -1.1579  0.6775  0.0486
 1736TIP3    H226844   2.591   0.285   1.369  0.0772  0.1061 -1.0536
 1737TIP3   OH226845   6.754   3.726   0.942  0.3354  0.0982  0.0526
 1737TIP3    H126846   6.794   3.758   1.022  1.8162 -0.4672 -0.4138
 1737TIP3    H226847   6.799   3.773   0.872  0.4282 -0.7931 -0.5068
 1738TIP3   OH226848   5.048   2.835   0.816  0.3171 -0.6730  0.0022
 1738TIP3    H126849   5.079   2.784   0.891  0.5611 -0.2887  0.1655
 1738TIP3    H226850   5.030   2.922   0.852 -1.1210 -0.9261 -0.0464
 1739TIP3   OH226851   3.088   1.291   3.757 -0.1159 -0.1061  0.1530
 1739TIP3    H126852   3.030   1.367   3.744 -1.2299 -1.0195 -0.5034
 1739TIP3    H226853   3.106   1.260   3.668  0.2846 -0.6282  0.4129
 1740TIP3   OH226854   7.019   2.987   0.416 -0.1911 -0.2974 -0.1756
 1740TIP3    H126855   6.969   2.905   0.414  0.5435 -0.7520 -0.8328
 1740TIP3    H226856   6.999   3.025   0.501 -0.5042 -1.2038  0.1751
 1741TIP3   OH226857   2.890   1.265   1.721 -0.0265 -0.3059 -0.3500
 1741TIP3    H126858   2.885   1.257   1.626  1.4924  0.6763 -0.5503
 1741TIP3    H226859   2.941   1.188   1.749  1.8673  0.7520 -0.6764
 1742TIP3   OH226860   3.925   1.587   0.108  0.2702  0.2268 -0.2562
 1742TIP3    H126861   3.930   1.604   0.202  2.0355  1.5360 -0.5359
 1742TIP3    H226862   3.980   1.655   0.069 -1.3498  0.4276 -2.3441
 1743TIP3   OH226863   2.179   3.788   1.212 -0.0330  0.3193  0.2904
 1743TIP3    H126864   2.266   3.755   1.189 -0.6093 -0.8281 -0.3622
 1743TIP3    H226865   2.119   3.718   1.185 -1.1293  0.9142  1.1031
 1744TIP3   OH226866   1.868   1.111   0.575  0.3097 -0.1166  0.3099
 1744TIP3    H126867   1.787   1.160   0.558 -0.2252 -1.3825 -0.9949
 1744TIP3    H226868   1.932   1.178   0.600 -0.6438  1.1302 -0.4515
 1745TIP3   OH226869   1.006   3.122   1.954  0.1464  0.4742  0.1252
 1745TIP3    H126870   1.101   3.115   1.950  0.1885  1.3834 -2.7951
 1745TIP3    H226871   0.990   3.207   1.995  0.6511  0.8962 -0.5301
 1746TIP3   OH226872   6.349   5.863   0.412  0.0700 -0.0154  0.0067
 1746TIP3    H126873   6.368   5.796   0.345 -0.5943 -0.8562  0.6413
 1746TIP3    H226874   6.257   5.849   0.434  0.0634  0.7971  0.5122
 1747TIP3   OH226875   0.972   4.413   0.103  0.0687  0.1000  0.2571
 1747TIP3    H126876   0.878   4.397   0.104  0.1466 -0.3694  0.1138
 1747TIP3    H226877   1.011   4.329   0.079  0.6534 -0.3506  2.5160
 1748TIP3   OH226878   4.152   3.077   0.656  0.4564  0.0931 -0.0690
 1748TIP3    H126879   4.240   3.092   0.622  0.2887  1.7046  0.1356
 1748TIP3    H226880   4.133   2.986   0.634  1.8642 -0.0488 -0.8040
 1749TIP3   OH226881   1.998   5.031   1.708  0.1682  0.3095  0.0194
 1749TIP3    H126882   1.977   4.945   1.672  2.3631 -0.8435  1.3115
 1749TIP3    H226883   2.027   5.013   1.797  0.6945  2.3952  0.3108
 1750TIP3   OH226884   0.213   6.892   3.766  0.2489 -0.1945  0.1994
 1750TIP3    H126885   0.190   6.983   3.781 -1.8779 -0.8469  1.3486
 1750TIP3    H226886   0.276   6.871   3.836 -0.5047 -0.0199  0.9504
 1751TIP3   OH226887   6.633   4.134   1.230  0.2708 -0.2832 -0.3691
 1751TIP3    H126888   6.545   4.174   1.234  0.4479  0.1054 -0.2981
 1751TIP3    H226889   6.619   4.050   1.188 -0.5599 -1.4151  2.0014
 1752TIP3   OH226890   3.325   4.415   8.119 -0.2317  0.4638 -0.3239
 1752TIP3    H126891   3.356   4.480   8.057 -1.5900 -1.0510 -2.7481
 1752TIP3    H226892   3.386   4.341   8.109 -1.1437 -0.2483 -0.7908
 1753TIP3   OH226893   1.900   3.907   1.131  0.1235 -0.6991  0.0013
 1753TIP3    H126894   1.886   3.816   1.106 -1.1262 -0.8611  1.2216
 1753TIP3    H226895   1.994   3.911   1.150  0.5220 -1.3051 -1.6003
 1754TIP3   OH226896   2.971   0.501   0.471  0.4211  0.1514  0.3335
 1754TIP3    H126897   2.967   0.547   0.387 -0.7982  0.6988  0.6653
 1754TIP3    H226898   2.913   0.426   0.461  0.3036  0.1923  0.6762
 1755TIP3   OH226899   0.513   2.098   2.468 -0.5271 -0.1646 -0.3062
 1755TIP3    H126900   0.428   2.099   2.512  0.5262 -0.1389  1.8436
 1755TIP3    H226901   0.574   2.064   2.533  0.9575 -1.2319 -2.1459
 1756TIP3   OH226902   1.649   1.281   0.522  0.1843 -0.3367  0.5010
 1756TIP3    H126903   1.610   1.257   0.438  0.3729  0.2513  0.2409
 1756TIP3    H226904   1.579   1.328   0.569  0.5013  0.5323  0.1192
 1757TIP3   OH226905   1.836   2.379   0.974 -0.5155  0.2138  0.5183
 1757TIP3    H126906   1.819   2.286   0.982  0.4462  0.0313  0.5193
 1757TIP3    H226907   1.787   2.419   1.046 -1.6910 -0.1762 -0.0327
 1758TIP3   OH226908   2.215   5.721   2.631 -0.3455 -0.1040  0.1473
 1758TIP3    H126909   2.182   5.696   2.545  0.1378  1.3139 -0.4834
 1758TIP3    H226910   2.245   5.811   2.620  2.2092 -0.7504  1.1048
 1759TIP3   OH226911   1.350   1.944   7.680 -0.4793  0.2523 -0.3751
 1759TIP3    H126912   1.439   1.974   7.697 -0.3378  1.5987 -3.0555
 1759TIP3    H226913   1.312   2.012   7.624 -2.5716 -1.2274 -0.8710
 1760TIP3   OH226914   3.663   3.049   0.137  0.4728  0.3092  0.1397
 1760TIP3    H126915   3.610   3.003   0.203 -0.9159  0.9591 -0.4700
 1760TIP3    H226916   3.708   2.980   0.090 -0.8724 -0.3979 -0.1667
 1761TIP3   OH226917   5.075   3.640   0.651 -0.1169 -0.4713  0.1628
 1761TIP3    H126918   4.999   3.672   0.699 -0.4385 -0.5857 -0.2651
 1761TIP3    H226919   5.111   3.571   0.707 -0.3336 -0.4234  0.3638
 1762TIP3   OH226920   1.466   1.045   1.368  0.7780 -0.3645  0.0737
 1762TIP3    H126921   1.459   1.059   1.463  0.5463 -1.2733  0.1958
 1762TIP3    H226922   1.377   1.021   1.342  0.4699  1.3738 -0.6428
 1763TIP3   OH226923   1.837   0.338   2.680 -0.0362 -0.1836  0.0014
 1763TIP3    H126924   1.838   0.244   2.661 -0.4424 -0.0765 -0.5943
 1763TIP3    H226925   1.814   0.379   2.596 -1.4116  0.3470  0.6095
 1764TIP3   OH226926   0.913   6.746   2.351  0.6106  0.2225 -0.1313
 1764TIP3    H126927   0.925   6.687   2.425 -1.2303 -0.1417 -0.0786
 1764TIP3    H226928   0.932   6.692   2.274 -0.1120 -0.1727 -0.0386
 1765TIP3   OH226929   0.841   3.629   0.133  0.1700 -0.3317  0.1280
 1765TIP3    H126930   0.831   3.537   0.108 -0.2962  0.2441 -1.9787
 1765TIP3    H226931   0.761   3.649   0.181  0.3755 -1.0739  0.7995
 1766TIP3   OH226932   0.554   1.152   2.142  0.3938 -0.4345  0.1078
 1766TIP3    H126933   0.508   1.095   2.080  0.6912  0.0949 -0.6220
 1766TIP3    H226934   0.645   1.152   2.112  0.5965 -0.3633  0.7010
 1767TIP3   OH226935   4.412   5.030   3.453 -0.3159 -0.6217 -0.0279
 1767TIP3    H126936   4.454   5.096   3.398 -2.2619  0.1989 -0.6286
 1767TIP3    H226937   4.481   4.999   3.511  1.0775  0.6531 -0.9412
 1768TIP3   OH226938   0.066   4.445   7.795 -0.2746  0.3190  0.2215
 1768TIP3    H126939   0.028   4.524   7.756 -0.6471  0.0231 -0.0143
 1768TIP3    H226940   0.011   4.427   7.871 -2.9030 -2.1322 -2.0305
 1769TIP3   OH226941   4.801   0.728   1.559  0.5950  0.2871  0.8999
 1769TIP3    H126942   4.892   0.735   1.532  1.2742 -2.7684  2.0137
 1769TIP3    H226943   4.802   0.742   1.654 -0.1733  0.7467  0.8477
 1770TIP3   OH226944   5.707   1.976   0.253  0.1091 -0.2616  0.3643
 1770TIP3    H126945   5.644   1.952   0.321 -2.2636 -0.1693 -1.6416
 1770TIP3    H226946   5.735   2.064   0.276 -0.5434 -0.2793  1.2944
 1771TIP3   OH226947   5.055   0.255   1.087  0.5224  0.0397  0.6480
 1771TIP3    H126948   5.001   0.290   1.157 -0.8121 -0.4966 -0.0818
 1771TIP3    H226949   5.063   0.162   1.106  0.0107 -0.1439  0.0253
 1772TIP3   OH226950   1.778   0.005   2.521  0.0269  0.2541  0.4836
 1772TIP3    H126951   1.741  -0.074   2.481  0.2048  0.8381 -0.8893
 1772TIP3    H226952   1.702   0.061   2.537 -0.3696 -0.9860  3.4414
 1773TIP3   OH226953   2.965   0.102   3.226  0.0439  0.5946 -0.2232
 1773TIP3    H126954   2.967   0.016   3.184 -1.0545  0.2322  0.4159
 1773TIP3    H226955   3.043   0.104   3.281 -0.8550 -0.7971  1.2094
 1774TIP3   OH226956   0.249   6.121   7.752 -0.1570 -0.2792 -0.5726
 1774TIP3    H126957   0.207   6.189   7.700  0.9537  0.9523  0.0704
 1774TIP3    H226958   0.320   6.089   7.696 -0.3350 -0.5195 -0.6613
 1775TIP3   OH226959   0.774   0.821   0.666  0.3185 -0.0190 -0.4909
 1775TIP3    H126960   0.754   0.880   0.594 -2.6818  1.8723  1.6549
 1775TIP3    H226961   0.698   0.763   0.671  0.6937 -0.4332  0.8143
 1776TIP3   OH226962   6.408   2.807   2.580 -0.0790  0.4659 -0.0761
 1776TIP3    H126963   6.338   2.795   2.516 -0.1813  0.0488  0.1132
 1776TIP3    H226964   6.456   2.724   2.581  0.7148  0.9015 -0.5509
 1777TIP3   OH226965   3.163   2.931   0.616  0.1828  0.4389 -0.5875
 1777TIP3    H126966   3.247   2.978   0.618 -0.3884  1.5060 -0.7134
 1777TIP3    H226967   3.119   2.965   0.538  0.2530 -1.2611 -1.4171
 1778TIP3   OH226968   6.229   6.906   2.887 -0.4464  0.5281  0.2532
 1778TIP3    H126969   6.173   6.913   2.964 -1.3146 -1.6419 -0.1112
 1778TIP3    H226970   6.219   6.816   2.858  1.2206  0.8078 -1.3960
 1779TIP3   OH226971   0.005   0.949   2.690 -0.5951  0.3338 -0.4083
 1779TIP3    H126972   0.001   0.913   2.601  1.0567  1.4153 -0.9621
 1779TIP3    H226973  -0.010   1.043   2.678 -2.2570  0.2556  0.7170
 1780TIP3   OH226974   6.865   2.369   0.373  0.5018  0.0915  0.1602
 1780TIP3    H126975   6.884   2.366   0.279  0.6919 -0.2062  0.2056
 1780TIP3    H226976   6.872   2.278   0.401 -1.0575 -0.0512  0.1812
 1781TIP3   OH226977   5.295   2.733   1.349 -0.2149 -0.1727  0.3454
 1781TIP3    H126978   5.333   2.817   1.373  0.0772 -0.2164  0.0306
 1781TIP3    H226979   5.368   2.671   1.353 -0.4047 -0.3901  0.4630
 1782TIP3   OH226980   4.864   1.579   0.795  0.7078 -0.2896  0.1552
 1782TIP3    H126981   4.919   1.604   0.721  1.2297  0.3414  0.7509
 1782TIP3    H226982   4.829   1.493   0.770  2.3527 -0.9394 -0.0174
 1783TIP3   OH226983   3.911   3.608   0.184  0.5726 -0.3428 -0.6869
 1783TIP3    H126984   3.824   3.645   0.201 -0.1440 -1.1687 -2.2924
 1783TIP3    H226985   3.969   3.683   0.180 -0.0468  0.2174  0.5411
 1784TIP3   OH226986   0.254   1.462   1.915  0.4969  0.1989 -0.1818
 1784TIP3    H126987   0.277   1.382   1.867 -1.2921 -1.4296  1.4736
 1784TIP3    H226988   0.284   1.445   2.004  1.1157  1.9008 -0.0433
 1785TIP3   OH226989   2.586   1.042   2.309  0.1502  0.2179 -0.3261
 1785TIP3    H126990   2.572   1.050   2.403  1.1018 -0.1213 -0.1459
 1785TIP3    H226991   2.643   1.116   2.287 -0.8371  0.8577 -0.8194
 1786TIP3   OH226992   7.000   0.682   0.318 -0.8132  0.2319  0.3301
 1786TIP3    H126993   6.990   0.629   0.397 -2.4186  0.0147  0.0140
 1786TIP3    H226994   6.910   0.701   0.291 -0.3159 -0.1832 -1.7623
 1787TIP3   OH226995   3.135   2.211   0.811 -0.2551  0.0823 -0.5457
 1787TIP3    H126996   3.095   2.298   0.802  2.0349  1.2744  0.1355
 1787TIP3    H226997   3.148   2.200   0.905  1.6518  0.0951 -0.7727
 1788TIP3   OH226998   6.280   2.516   2.612 -0.1746  0.0424  0.2973
 1788TIP3    H126999   6.234   2.432   2.624 -0.6121 -0.1006 -1.9850
 1788TIP3    H227000   6.210   2.579   2.594  0.2586  0.6013  0.5706
 1789TIP3   OH227001   5.999   5.441   2.941 -0.1847 -0.1342  0.0319
 1789TIP3    H127002   6.062   5.373   2.916 -0.9943 -0.7489 -0.3796
 1789TIP3    H227003   5.970   5.414   3.029  1.2681  1.0062  0.9043
 1790TIP3   OH227004   6.000   0.045   2.965  0.6661  0.5551 -0.5244
 1790TIP3    H127005   6.065   0.016   3.029 -0.4919 -0.5402  0.1998
 1790TIP3    H227006   5.916   0.025   3.006 -0.1243  0.9734 -1.8806
 1791TIP3   OH227007   6.870   5.360   3.059  0.1116  0.5152 -0.3253
 1791TIP3    H127008   6.843   5.272   3.035 -1.0003  0.8493 -0.3634
 1791TIP3    H227009   6.910   5.351   3.146  0.6573 -0.1144 -0.6326
 1792TIP3   OH227010   2.866   0.471   1.845  0.3191 -0.5078 -0.6686
 1792TIP3    H127011   2.951   0.463   1.802 -0.5023 -0.3981 -2.4013
 1792TIP3    H227012   2.807   0.502   1.776 -1.0907 -0.3764  0.5437
 1793TIP3   OH227013   5.233   0.665   0.083  0.5599 -0.0195 -0.0408
 1793TIP3    H127014   5.235   0.749   0.129 -1.8791 -0.1162  0.3642
 1793TIP3    H227015   5.321   0.656   0.045  0.6542  3.1090 -0.8210
 1794TIP3   OH227016   2.762   0.597   3.877  0.4537  0.3164  0.1857
 1794TIP3    H127017   2.727   0.649   3.805 -0.5291  0.1592  0.5280
 1794TIP3    H227018   2.771   0.509   3.842 -1.3748 -0.0845  0.6227
 1795TIP3   OH227019   2.852   4.707   2.663 -0.2534  0.2558 -0.0737
 1795TIP3    H127020   2.805   4.722   2.581  0.6241 -0.3491 -0.7120
 1795TIP3    H227021   2.784   4.707   2.730 -0.9926  0.7352 -0.8013
 1796TIP3   OH227022   3.117   5.152   3.151  0.3043  0.9459 -0.4248
 1796TIP3    H127023   3.080   5.240   3.159  0.2131  0.8539  0.2037
 1796TIP3    H227024   3.190   5.151   3.213 -1.9484 -0.5907  2.4112
 1797TIP3   OH227025   1.999   0.394   2.990 -0.0346 -0.2113  0.1934
 1797TIP3    H127026   1.928   0.338   3.021 -0.8556 -0.3747 -1.8277
 1797TIP3    H227027   2.079   0.342   3.005 -0.5598 -0.9722  0.4240
 1798TIP3   OH227028   5.650   5.749   1.456 -0.1526  0.0595 -0.3052
 1798TIP3    H127029   5.647   5.828   1.402 -1.2886 -0.2523 -0.7242
 1798TIP3    H227030   5.569   5.753   1.507 -0.0750 -0.7028 -0.1187
 1799TIP3   OH227031   2.079   0.541   7.504  0.1404 -0.5341 -0.4636
 1799TIP3    H127032   2.119   0.507   7.424  1.6691 -0.3190  0.1744
 1799TIP3    H227033   2.127   0.621   7.523  0.7351 -1.2867  1.3901
 1800TIP3   OH227034   6.210   1.013   1.167 -0.0658  0.1057 -0.1992
 1800TIP3    H127035   6.296   1.028   1.128 -0.1940  2.3425  0.1937
 1800TIP3    H227036   6.148   1.033   1.097 -0.2692 -0.6488 -0.2364
 1801TIP3   OH227037   5.207   3.860   0.532 -0.2395  0.5889  0.2129
 1801TIP3    H127038   5.158   3.795   0.584  1.7981 -0.5029  0.8683
 1801TIP3    H227039   5.175   3.847   0.443 -1.3304  0.0963  0.6516
 1802TIP3   OH227040   6.376   5.390   2.043  0.0197  0.1048  0.2358
 1802TIP3    H127041   6.426   5.471   2.029  0.3947 -0.3119 -1.0227
 1802TIP3    H227042   6.327   5.406   2.123  0.6848  1.2810  0.4426
 1803TIP3   OH227043   4.367   6.872   1.972  0.1740 -0.0717 -0.3821
 1803TIP3    H127044   4.288   6.910   2.012  1.5498  1.7888  0.7120
 1803TIP3    H227045   4.420   6.843   2.047  0.2907 -1.9657 -1.1223
 1804TIP3   OH227046   3.557   2.169   6.928  0.0431 -0.4910 -0.1970
 1804TIP3    H127047   3.637   2.128   6.895 -0.5681 -0.3823 -1.9576
 1804TIP3    H227048   3.500   2.175   6.851 -1.5564 -0.3074  0.9502
 1805TIP3   OH227049   4.227   4.214   8.211 -0.3292  0.2562  0.3167
 1805TIP3    H127050   4.201   4.239   8.300 -1.9258 -1.8729  0.5560
 1805TIP3    H227051   4.190   4.282   8.156  1.6604  2.2404  1.2813
 1806TIP3   OH227052   3.451   6.309   1.151 -0.4247 -0.3326 -0.0225
 1806TIP3    H127053   3.470   6.402   1.137  0.7353 -0.0787  2.6529
 1806TIP3    H227054   3.476   6.293   1.242  3.4549 -4.2483 -1.4212
 1807TIP3   OH227055   5.895   7.054   1.516 -0.1316 -0.1144 -0.2186
 1807TIP3    H127056   5.940   6.985   1.566  0.2767 -0.3804 -0.9305
 1807TIP3    H227057   5.846   7.006   1.449 -1.4632  0.1784  0.5206
 1808TIP3   OH227058   5.995   0.438   2.465  0.2308 -0.1644 -0.8517
 1808TIP3    H127059   5.904   0.410   2.474  0.3936 -0.2706  0.7140
 1808TIP3    H227060   6.046   0.357   2.474  0.4841 -0.1517 -2.0247
 1809TIP3   OH227061   3.924   6.007   7.749 -0.5449 -0.0014 -0.5898
 1809TIP3    H127062   3.997   5.949   7.768 -1.2748 -0.1667  2.0775
 1809TIP3    H227063   3.965   6.091   7.729  0.3969 -0.4720 -0.6886
 1810TIP3   OH227064   0.477   6.941   1.280  0.1072  0.3492  0.3046
 1810TIP3    H127065   0.402   6.895   1.242 -0.2496  1.3582 -0.2453
 1810TIP3    H227066   0.440   6.990   1.354  0.3215  0.4190  0.3671
 1811TIP3   OH227067   6.366   1.763   2.927  0.3776 -0.7369 -0.5029
 1811TIP3    H127068   6.289   1.726   2.885 -0.1855  1.3544 -1.4183
 1811TIP3    H227069   6.438   1.743   2.867  0.1338 -0.5969 -0.8425
 1812TIP3   OH227070   6.876   5.652   8.105  0.0604 -0.0169 -0.1700
 1812TIP3    H127071   6.787   5.636   8.135 -0.1053 -1.1771 -1.2253
 1812TIP3    H227072   6.925   5.575   8.132  1.2643  1.4303  2.1359
 1813TIP3   OH227073   2.850   2.321   1.528  0.2928  0.3165 -0.4433
 1813TIP3    H127074   2.779   2.333   1.591  2.1738 -0.8596  2.0689
 1813TIP3    H227075   2.901   2.402   1.533  0.5807  0.1257 -0.2671
 1814TIP3   OH227076   3.776   5.430   0.143 -0.1739  0.4406  0.2968
 1814TIP3    H127077   3.816   5.501   0.093 -1.0914  0.8053  0.0460
 1814TIP3    H227078   3.682   5.450   0.140 -0.3991 -0.5354  0.6127
 1815TIP3   OH227079   2.016   5.070   0.152 -0.0192  0.3226  0.4663
 1815TIP3    H127080   1.975   5.102   0.072  0.7775  0.9201  0.2866
 1815TIP3    H227081   2.085   5.133   0.171  0.7778 -0.6257  0.7983
 1816TIP3   OH227082   3.530   0.694   1.271 -0.4919  0.3450  0.6848
 1816TIP3    H127083   3.478   0.696   1.351 -2.2572  0.2400 -0.4212
 1816TIP3    H227084   3.518   0.605   1.237  0.9178  0.1235  0.6911
 1817TIP3   OH227085   0.312   0.509   1.170 -0.2097 -0.3888  0.1826
 1817TIP3    H127086   0.243   0.538   1.110  1.0448  0.5049 -0.8878
 1817TIP3    H227087   0.392   0.516   1.119  0.9047  0.2795  1.9451
 1818TIP3   OH227088   3.748   0.086   7.249 -0.1206  0.4991 -0.4352
 1818TIP3    H127089   3.825   0.050   7.205  0.1760  0.6138 -0.0294
 1818TIP3    H227090   3.674   0.040   7.211  0.3154 -1.3621  0.8524
 1819TIP3   OH227091   1.418   5.755   0.552 -0.0453  0.2063 -0.0624
 1819TIP3    H127092   1.365   5.712   0.486  0.6483 -1.4649  0.4217
 1819TIP3    H227093   1.356   5.779   0.621 -0.2778 -1.2765  0.2741
 1820TIP3   OH227094   4.249   0.652   0.345 -0.0805  0.1320 -0.3470
 1820TIP3    H127095   4.172   0.705   0.365 -0.2664 -0.1210 -0.3907
 1820TIP3    H227096   4.283   0.688   0.263 -0.8094 -0.4802 -0.9291
 1821TIP3   OH227097   3.939   1.243   7.408 -0.1999 -0.2463  0.4681
 1821TIP3    H127098   3.998   1.261   7.480  0.8648  1.0997 -0.6662
 1821TIP3    H227099   3.910   1.330   7.378 -0.0349 -0.7068 -1.1627
 1822TIP3   OH227100   3.379   0.673   8.219  0.3502 -0.0268 -0.0867
 1822TIP3    H127101   3.296   0.719   8.216 -0.0633 -0.7927 -0.8622
 1822TIP3    H227102   3.434   0.719   8.155 -0.7560 -1.8279 -2.4949
 1823TIP3   OH227103   1.313   3.024   2.194 -0.7345  0.3917 -0.5322
 1823TIP3    H127104   1.304   3.097   2.132  1.9975 -0.7545 -2.5068
 1823TIP3    H227105   1.364   3.061   2.266 -0.1641  0.6842 -1.0729
 1824TIP3   OH227106   1.038   2.005   2.940 -0.0828 -0.0500 -0.1917
 1824TIP3    H127107   0.985   1.974   2.867 -0.4846  0.0749  0.0441
 1824TIP3    H227108   1.040   2.100   2.929 -2.3823  0.2758  1.4196
 1825TIP3   OH227109   4.972   4.985   1.529 -0.2016 -0.1570 -0.1493
 1825TIP3    H127110   4.964   4.895   1.560  0.5156  0.5189  2.2068
 1825TIP3    H227111   4.934   5.038   1.599  2.6071  1.5648  0.2235
 1826TIP3   OH227112   4.120   5.605   3.634 -0.0998  0.9520 -0.6504
 1826TIP3    H127113   4.056   5.563   3.576 -0.7110  1.3694 -0.2935
 1826TIP3    H227114   4.189   5.539   3.645 -1.6002 -0.4580  0.8439
 1827TIP3   OH227115   2.534   7.023   3.003  0.0356 -0.0925  0.2367
 1827TIP3    H127116   2.500   7.034   3.092 -0.0318 -0.1043  0.2117
 1827TIP3    H227117   2.600   7.092   2.995 -0.2022  0.1292  0.1746
 1828TIP3   OH227118   5.077   5.317   0.368  0.3086 -0.0358 -0.0151
 1828TIP3    H127119   5.037   5.231   0.359 -1.1287  0.6186 -0.0603
 1828TIP3    H227120   5.029   5.373   0.307 -1.8409  1.8186  3.1497
 1829TIP3   OH227121   5.756   4.500   1.918  0.0861 -0.0716  0.2623
 1829TIP3    H127122   5.838   4.455   1.937  0.9350  0.5843 -1.6374
 1829TIP3    H227123   5.780   4.571   1.858 -1.8062  0.4198  0.0096
 1830TIP3   OH227124   1.184   3.748   3.090 -0.6123  0.2528  0.6581
 1830TIP3    H127125   1.236   3.828   3.084  0.3368 -0.1828  2.3556
 1830TIP3    H227126   1.198   3.704   3.007  0.5467  0.8609  0.5060
 1831TIP3   OH227127   4.134   6.918   0.360  0.0100  0.3920  0.1728
 1831TIP3    H127128   4.048   6.877   0.367  0.7994 -1.1855  1.1921
 1831TIP3    H227129   4.121   6.990   0.299 -2.1856  0.6322  0.8427
 1832TIP3   OH227130   5.599   2.204   0.115 -0.1204  0.6326 -0.1484
 1832TIP3    H127131   5.574   2.113   0.101 -2.3664  1.1409  0.1305
 1832TIP3    H227132   5.562   2.252   0.041  1.5479  1.2915 -0.6171
 1833TIP3   OH227133   0.477   2.001   0.716  0.2879  0.6421 -0.4353
 1833TIP3    H127134   0.493   1.907   0.724 -0.4787  0.6274  1.6065
 1833TIP3    H227135   0.552   2.034   0.667  1.3549 -0.8353  0.1322
 1834TIP3   OH227136   1.370   6.951   2.262  0.1604 -0.1513  0.5138
 1834TIP3    H127137   1.446   6.896   2.281  2.3190  2.2919 -0.3155
 1834TIP3    H227138   1.343   6.984   2.348  0.5969 -0.3918  0.7524
 1835TIP3   OH227139   2.450   5.334   0.684  0.5471  0.0884 -0.4288
 1835TIP3    H127140   2.363   5.335   0.642 -0.5381  0.7866  1.6899
 1835TIP3    H227141   2.482   5.423   0.673  0.9335 -0.1137 -1.0180
 1836TIP3   OH227142   6.002   6.218   0.100 -0.1446  0.8331  0.1276
 1836TIP3    H127143   5.922   6.174   0.072  0.2223  0.9467 -1.1718
 1836TIP3    H227144   6.049   6.236   0.019  1.7362 -0.2219  0.9264
 1837TIP3   OH227145   3.926   6.222   8.085  0.1151 -0.1991  0.4252
 1837TIP3    H127146   3.930   6.140   8.035  0.4037 -1.0807  1.8259
 1837TIP3    H227147   4.007   6.268   8.062  0.1093 -0.4639 -0.1282
 1838TIP3   OH227148   5.435   0.796   2.956 -0.0223  0.2520  0.8043
 1838TIP3    H127149   5.498   0.806   2.884  0.8041  1.1512  1.6176
 1838TIP3    H227150   5.480   0.739   3.018  0.0753  1.0215  1.4608
 1839TIP3   OH227151   4.506   7.064   0.746 -0.2114  0.3317 -0.4738
 1839TIP3    H127152   4.491   7.134   0.683  0.1711  0.7154 -0.1472
 1839TIP3    H227153   4.419   7.035   0.771 -0.3977 -0.9963 -2.4429
 1840TIP3   OH227154   6.139   0.638   3.251  0.5662 -0.3276 -0.0513
 1840TIP3    H127155   6.191   0.559   3.263  0.2890 -0.3507  1.1032
 1840TIP3    H227156   6.197   0.698   3.204  0.5322 -1.4407 -1.5532
 1841TIP3   OH227157   4.036   1.266   0.980  0.2716  0.1287 -0.0115
 1841TIP3    H127158   3.957   1.313   1.008 -0.4410 -0.6185 -0.7201
 1841TIP3    H227159   4.027   1.258   0.885  1.0916 -0.1691 -0.0718
 1842TIP3   OH227160   6.797   2.828   1.964  0.1858  0.1965  0.0099
 1842TIP3    H127161   6.742   2.756   1.996 -0.7120  1.7894  2.2660
 1842TIP3    H227162   6.838   2.863   2.043  0.9076  1.9301 -1.0888
 1843TIP3   OH227163   2.074   5.014   2.645  0.2348 -0.7444  0.0508
 1843TIP3    H127164   2.004   4.949   2.635  0.7890 -1.5053  0.9767
 1843TIP3    H227165   2.048   5.065   2.723 -0.8603  1.0482 -1.3808
 1844TIP3   OH227166   6.247   2.690   0.330 -0.6040 -0.4998 -0.1697
 1844TIP3    H127167   6.272   2.718   0.241  0.1066 -1.0438 -0.1498
 1844TIP3    H227168   6.208   2.768   0.369  0.7138  0.2775 -0.3456
 1845TIP3   OH227169   4.222   0.134   2.443  0.4073  0.6883  0.0734
 1845TIP3    H127170   4.161   0.089   2.501 -0.4301  1.0819 -0.4939
 1845TIP3    H227171   4.236   0.220   2.484 -0.1981  0.9731 -0.2967
 1846TIP3   OH227172   3.979   6.736   1.158  0.2811  0.6213 -0.0215
 1846TIP3    H127173   3.972   6.738   1.253 -0.1598 -0.3438 -0.0180
 1846TIP3    H227174   4.005   6.646   1.138  3.9785  1.6591 -0.6173
 1847TIP3   OH227175   2.147   4.693   2.043 -0.2221 -0.3702 -0.3471
 1847TIP3    H127176   2.100   4.617   2.008 -1.1661  0.2823 -0.5373
 1847TIP3    H227177   2.108   4.768   1.999 -0.3298  0.3503  0.9125
 1848TIP3   OH227178   6.857   2.178   2.870 -0.2657 -0.2532  0.0936
 1848TIP3    H127179   6.894   2.243   2.810 -0.0350 -1.3185 -0.9582
 1848TIP3    H227180   6.911   2.100   2.857 -1.1263 -0.9564  0.6248
 1849TIP3   OH227181   1.548   0.219   1.322 -0.0018 -0.2692  0.4943
 1849TIP3    H127182   1.640   0.200   1.339  0.2559 -0.2885 -0.8031
 1849TIP3    H227183   1.521   0.151   1.260 -0.6550  0.2235  0.2325
 1850TIP3   OH227184   4.578   2.901   0.173  0.3647  1.0311 -0.0671
 1850TIP3    H127185   4.524   2.877   0.097 -0.4463  0.8042  0.5736
 1850TIP3    H227186   4.666   2.908   0.137 -0.0491  1.2086 -1.0926
 1851TIP3   OH227187   3.597   3.810   1.666 -0.2963  0.2925 -0.0185
 1851TIP3    H127188   3.508   3.809   1.629  0.0200  0.9872 -0.8230
 1851TIP3    H227189   3.586   3.841   1.756 -0.8528  0.4915 -0.1531
 1852TIP3   OH227190   2.372   6.608   2.446 -0.5444  0.0497  0.1481
 1852TIP3    H127191   2.315   6.675   2.482 -0.7597  0.6537 -1.2357
 1852TIP3    H227192   2.359   6.614   2.351  0.7890 -0.7243 -0.1157
 1853TIP3   OH227193   0.134   4.743   0.583  0.3903 -0.0658 -0.2786
 1853TIP3    H127194   0.189   4.733   0.505 -0.6632  0.0072 -1.0599
 1853TIP3    H227195   0.183   4.702   0.653  0.5540 -1.7930 -1.3589
 1854TIP3   OH227196   2.022   6.578   3.838 -0.1227  0.4597  0.5190
 1854TIP3    H127197   2.081   6.653   3.846 -2.2922  2.2658  0.6929
 1854TIP3    H227198   1.956   6.606   3.774 -0.4424 -1.7107 -0.1781
 1855TIP3   OH227199   6.965   3.451   2.249 -0.0029 -0.7072  0.6638
 1855TIP3    H127200   7.022   3.405   2.188 -0.1097  0.3446 -0.2538
 1855TIP3    H227201   7.021   3.471   2.324  0.8172  0.1737 -0.1548
 1856TIP3   OH227202   2.355   1.421   2.292 -0.1742  0.4981 -0.2549
 1856TIP3    H127203   2.377   1.389   2.380 -2.1028 -2.1982 -0.6379
 1856TIP3    H227204   2.319   1.509   2.308  1.2009  0.8431  1.3800
 1857TIP3   OH227205   3.042   4.955   0.400 -0.1570  0.4342 -0.8984
 1857TIP3    H127206   3.084   4.948   0.486  0.5923  1.2119 -1.1851
 1857TIP3    H227207   2.965   5.009   0.415 -0.5910 -0.2683 -0.5341
 1858TIP3   OH227208   5.523   6.900   0.471 -0.1362 -0.3014 -0.5866
 1858TIP3    H127209   5.520   6.968   0.539 -2.2586  1.1255 -1.9759
 1858TIP3    H227210   5.465   6.831   0.504 -0.4920  0.0084 -0.5519
 1859TIP3   OH227211   3.433   5.803   0.486  0.3051  0.4028  0.5255
 1859TIP3    H127212   3.432   5.741   0.413  2.1445  0.8962  0.0367
 1859TIP3    H227213   3.517   5.848   0.479  0.1925  1.0339  2.4918
 1860TIP3   OH227214   6.406   5.773   1.897 -0.2071  0.5896 -0.6669
 1860TIP3    H127215   6.439   5.714   1.965 -0.4883  0.8576 -0.2936
 1860TIP3    H227216   6.366   5.845   1.945  1.3622  1.8110 -1.0813
 1861TIP3   OH227217   5.218   5.048   1.068 -0.3046 -0.2719 -0.4702
 1861TIP3    H127218   5.151   4.991   1.106  0.4833 -0.2709  1.0228
 1861TIP3    H227219   5.244   5.005   0.987  1.0491 -2.7137  1.1135
 1862TIP3   OH227220   1.374   0.453   1.321  0.0669  1.0036 -0.5599
 1862TIP3    H127221   1.388   0.483   1.231  1.8470  3.4969  0.4342
 1862TIP3    H227222   1.421   0.370   1.326 -1.9774 -0.3880 -2.4616
 1863TIP3   OH227223   4.190   2.988   2.879 -0.4282 -0.0251  0.4952
 1863TIP3    H127224   4.206   3.073   2.922  0.6411  0.5083 -0.8630
 1863TIP3    H227225   4.118   3.005   2.819 -0.1806 -0.0534  0.1865
 1864TIP3   OH227226   6.025   1.508   2.095  0.2874 -0.2449 -0.0297
 1864TIP3    H127227   5.978   1.463   2.165 -0.2717 -2.2542 -1.6098
 1864TIP3    H227228   6.062   1.586   2.138 -1.8947 -0.1763  1.9691
 1865TIP3   OH227229   1.640   5.049   1.847  0.5390  0.2525 -0.6789
 1865TIP3    H127230   1.550   5.070   1.821  0.3792  0.4274 -0.0007
 1865TIP3    H227231   1.635   4.960   1.881  0.0723  1.1569  1.8441
 1866TIP3   OH227232   0.932   3.529   7.576  0.5541 -0.1125  0.0051
 1866TIP3    H127233   0.891   3.522   7.662  0.3616  1.8541  0.1166
 1866TIP3    H227234   0.878   3.473   7.519  0.2752 -0.8780  1.0029
 1867TIP3   OH227235   3.991   6.716   2.551 -0.1010  0.2525 -0.4220
 1867TIP3    H127236   4.032   6.741   2.633  0.3775  0.9990 -0.8782
 1867TIP3    H227237   3.897   6.727   2.566 -0.1025 -0.6874  0.3658
 1868TIP3   OH227238   0.189   4.445   2.887  0.6485  0.1372  1.0206
 1868TIP3    H127239   0.270   4.396   2.902  1.4721  0.7043 -1.2434
 1868TIP3    H227240   0.137   4.390   2.828  0.0139  0.4355  1.2839
 1869TIP3   OH227241   4.260   2.229   2.614 -0.0366 -0.3899 -0.0533
 1869TIP3    H127242   4.297   2.172   2.546 -0.1173 -0.3898 -0.0967
 1869TIP3    H227243   4.267   2.178   2.695  1.5596  0.2122  0.2348
 1870TIP3   OH227244   0.256   0.626   0.349  0.1324 -0.6600  0.1661
 1870TIP3    H127245   0.285   0.697   0.405  1.5697 -0.6634 -0.5258
 1870TIP3    H227246   0.247   0.665   0.262  1.3012 -1.3789 -0.2998
 1871TIP3   OH227247   4.623   2.221   2.311 -0.3566  0.0005  0.0336
 1871TIP3    H127248   4.546   2.268   2.343 -1.0264 -0.5338 -0.7635
 1871TIP3    H227249   4.588   2.156   2.250  0.6630 -0.7488  0.2276
 1872TIP3   OH227250   3.191   6.378   1.091  0.1811  0.0167 -0.0531
 1872TIP3    H127251   3.224   6.456   1.046 -0.9294  0.3020 -0.3860
 1872TIP3    H227252   3.270   6.334   1.122  1.0020 -0.1051 -2.1527
 1873TIP3   OH227253   5.797   5.922   2.153  0.0726  0.3051  0.0328
 1873TIP3    H127254   5.872   5.954   2.203 -0.9160  1.5532  0.7709
 1873TIP3    H227255   5.732   5.900   2.220 -0.5837  0.1885 -0.6332
 1874TIP3   OH227256   1.357   3.492   3.498 -0.2636 -0.0698  0.2274
 1874TIP3    H127257   1.311   3.576   3.492 -1.1835 -0.3769  2.2075
 1874TIP3    H227258   1.449   3.516   3.502 -0.5631  0.9563  1.9156
 1875TIP3   OH227259   4.457   3.705   8.137  0.3572 -0.3471  0.0614
 1875TIP3    H127260   4.376   3.668   8.171 -0.0054 -1.0266 -1.4732
 1875TIP3    H227261   4.439   3.798   8.128 -0.3224 -0.5192 -0.4247
 1876TIP3   OH227262   2.001   4.288   0.272  0.2965  0.3367  0.5035
 1876TIP3    H127263   2.070   4.354   0.266 -0.8647  1.5076 -0.7607
 1876TIP3    H227264   2.010   4.236   0.192 -1.2498  1.5699 -0.5542
 1877TIP3   OH227265   2.466   6.876   2.255  0.5194 -0.3771 -0.1757
 1877TIP3    H127266   2.442   6.885   2.347 -0.3527 -0.8268 -0.3516
 1877TIP3    H227267   2.396   6.823   2.217  0.5541  0.3030 -1.2246
 1878TIP3   OH227268   4.485   3.894   2.528  0.4281 -0.6000  0.5577
 1878TIP3    H127269   4.416   3.828   2.515 -0.7033  0.6298  0.1329
 1878TIP3    H227270   4.506   3.924   2.439  0.0922  0.4442  0.8201
 1879TIP3   OH227271   2.310   2.815   7.989 -0.6594  0.8821 -0.0951
 1879TIP3    H127272   2.345   2.736   8.031  1.0540  0.1702 -2.6596
 1879TIP3    H227273   2.236   2.784   7.938 -1.7939  1.4863  1.1297
 1880TIP3   OH227274   4.163   6.584   2.096 -0.3172  0.3927 -0.3925
 1880TIP3    H127275   4.162   6.637   2.176 -0.3527  0.7528 -0.6280
 1880TIP3    H227276   4.256   6.563   2.083 -0.2829  0.5371 -0.3867
 1881TIP3   OH227277   1.522   2.270   0.334  0.5479  0.2509  0.0311
 1881TIP3    H127278   1.520   2.278   0.239  0.3648  0.3267  0.0412
 1881TIP3    H227279   1.443   2.221   0.356 -0.0847  1.3273  0.2474
 1882TIP3   OH227280   6.819   4.297   8.038  0.1242  0.1363 -0.6389
 1882TIP3    H127281   6.885   4.366   8.043  0.4329 -0.2520  1.8736
 1882TIP3    H227282   6.736   4.344   8.038  0.3156  0.5646 -2.3006
 1883TIP3   OH227283   0.130   2.495   3.187 -0.5305 -0.8340 -0.1763
 1883TIP3    H127284   0.048   2.538   3.213  0.4500  2.4126 -1.9023
 1883TIP3    H227285   0.194   2.521   3.253 -0.7094 -3.2805  1.1093
 1884TIP3   OH227286   3.608   3.657   1.259  0.2342 -0.6900 -0.6431
 1884TIP3    H127287   3.659   3.576   1.269  2.1278  0.5303  0.2659
 1884TIP3    H227288   3.527   3.641   1.308  1.8728 -1.0587  2.1919
 1885TIP3   OH227289   3.930   3.865   7.403 -0.2080  0.0908  0.0141
 1885TIP3    H127290   3.847   3.910   7.415 -0.3520  0.2853 -1.4770
 1885TIP3    H227291   3.997   3.933   7.417 -0.3665  0.3634 -0.5303
 1886TIP3   OH227292   2.727   6.136   1.185  0.4193  0.0766 -0.4292
 1886TIP3    H127293   2.725   6.080   1.106 -0.1093  0.8112 -0.9456
 1886TIP3    H227294   2.771   6.216   1.156  0.7968  0.1001  0.2015
 1887TIP3   OH227295   3.292   2.894   1.717  0.4743  0.1071  0.0945
 1887TIP3    H127296   3.354   2.823   1.697  1.0957  0.2638  1.4059
 1887TIP3    H227297   3.257   2.871   1.803 -2.5957 -0.8649 -1.2755
 1888TIP3   OH227298   2.615   4.920   0.880 -0.0777  0.2495  0.2197
 1888TIP3    H127299   2.604   4.875   0.796  0.6307 -1.3389  0.9386
 1888TIP3    H227300   2.528   4.919   0.919 -0.3506  0.7426 -0.3493
 1889TIP3   OH227301   0.632   2.510   0.721 -0.1526  0.0272 -0.2196
 1889TIP3    H127302   0.582   2.589   0.699 -0.8470 -0.7628 -1.6086
 1889TIP3    H227303   0.566   2.446   0.747 -0.0338 -1.2825 -2.8410
 1890TIP3   OH227304   5.905   6.585   3.024 -0.7354  0.1987  0.2299
 1890TIP3    H127305   5.892   6.680   3.029  1.1431  0.4557  1.3808
 1890TIP3    H227306   5.998   6.573   3.040 -1.1653 -1.9271  1.6062
 1891TIP3   OH227307   3.025   0.711   3.686 -0.8767 -0.0026  0.3847
 1891TIP3    H127308   2.957   0.747   3.742 -1.1478 -0.7345  0.5404
 1891TIP3    H227309   3.065   0.641   3.739 -1.4305 -0.9983 -0.4676
 1892TIP3   OH227310   0.470   5.025   2.142  0.2265 -0.4925  0.0742
 1892TIP3    H127311   0.565   5.029   2.149  0.2580 -0.1964 -0.5368
 1892TIP3    H227312   0.449   5.063   2.057 -0.3369 -1.9759 -0.4755
 1893TIP3   OH227313   6.708   0.290   2.271 -0.4546  0.7200 -0.5167
 1893TIP3    H127314   6.664   0.371   2.244  0.3936  2.0009  1.6751
 1893TIP3    H227315   6.781   0.319   2.325  0.1625 -1.5259 -0.0391
 1894TIP3   OH227316   5.064   6.616   2.082  0.6324 -0.3334  0.6238
 1894TIP3    H127317   5.003   6.680   2.118 -0.5867 -0.8623 -0.4051
 1894TIP3    H227318   5.145   6.629   2.132 -0.0564  0.9432  1.4757
 1895TIP3   OH227319   6.735   0.694   2.199 -0.5641  0.1493  0.5712
 1895TIP3    H127320   6.747   0.786   2.224 -0.2687 -0.1798  1.6858
 1895TIP3    H227321   6.820   0.653   2.218 -0.5468 -0.2636 -0.3637
 1896TIP3   OH227322   2.193   3.528   7.638  0.5160  0.3448  0.1017
 1896TIP3    H127323   2.127   3.578   7.686  0.6142  0.3579  0.2232
 1896TIP3    H227324   2.222   3.461   7.699 -0.1017 -0.2949 -0.2880
 1897TIP3   OH227325   3.452   4.025   7.974  0.3004  0.1926  0.4625
 1897TIP3    H127326   3.492   3.942   7.948  0.7093 -0.2319  2.2748
 1897TIP3    H227327   3.359   4.004   7.987  0.1511  0.3404 -0.2975
 1898TIP3   OH227328   1.271   3.305   7.772  0.3136  0.7690  0.1352
 1898TIP3    H127329   1.179   3.330   7.786 -0.0978  0.1930 -1.3429
 1898TIP3    H227330   1.295   3.257   7.851 -0.3806  1.6542  0.9114
 1899TIP3   OH227331   4.359   0.485   8.020 -0.2614  0.2439  0.7641
 1899TIP3    H127332   4.338   0.427   7.947 -0.5155 -1.8124  2.3834
 1899TIP3    H227333   4.454   0.498   8.015 -0.3775  0.8133 -0.3607
 1900TIP3   OH227334   3.011   3.363   8.231 -0.1942  0.0733 -0.2510
 1900TIP3    H127335   2.964   3.303   8.288  0.6087 -0.1713  0.1675
 1900TIP3    H227336   3.103   3.341   8.243  0.1114  1.2773 -0.2025
 1901TIP3   OH227337   1.522   2.759   1.195  0.2408  0.6576 -0.5898
 1901TIP3    H127338   1.617   2.769   1.187  0.4982  0.1057  1.2295
 1901TIP3    H227339   1.498   2.700   1.124  1.1621  1.1901 -1.3819
 1902TIP3   OH227340   1.585   4.047   7.839 -0.4714  0.1325 -0.3250
 1902TIP3    H127341   1.579   4.101   7.918 -0.9529  0.8182 -0.8171
 1902TIP3    H227342   1.638   3.972   7.865 -2.4254 -0.8031  1.3009
 1903TIP3   OH227343   3.896   0.968   2.064  0.0927  0.1568  0.7209
 1903TIP3    H127344   3.911   1.061   2.052 -0.2065  0.3340  1.6124
 1903TIP3    H227345   3.940   0.947   2.147 -0.7206 -0.2702  1.0559
 1904TIP3   OH227346   1.346   6.620   0.487  0.3599  0.0425  0.0833
 1904TIP3    H127347   1.335   6.583   0.399 -0.0636 -1.1643  0.6295
 1904TIP3    H227348   1.432   6.663   0.484  0.6987 -0.6494 -0.6896
 1905TIP3   OH227349   0.173   2.778   0.742 -0.2908  0.0906  0.2686
 1905TIP3    H127350   0.171   2.767   0.647  0.0886 -3.6361  0.5617
 1905TIP3    H227351   0.245   2.839   0.757  0.0919  0.2243 -1.7958
 1906TIP3   OH227352   3.411   6.881   0.745 -0.3836  0.1253  0.2810
 1906TIP3    H127353   3.408   6.929   0.828 -1.0251  1.7102 -0.6136
 1906TIP3    H227354   3.369   6.939   0.682 -1.1330 -1.6057 -0.8968
 1907TIP3   OH227355   5.289   1.291   2.253 -0.6157  0.1368  0.1232
 1907TIP3    H127356   5.367   1.324   2.209  0.6637 -0.7397  1.6193
 1907TIP3    H227357   5.274   1.205   2.214 -2.8671  1.5699 -2.4836
 1908TIP3   OH227358   5.991   0.725   2.500  0.4009 -0.4304 -0.1053
 1908TIP3    H127359   6.061   0.748   2.561  0.7437 -0.4380 -0.4966
 1908TIP3    H227360   6.004   0.632   2.483 -0.5478 -0.7719  0.9064
 1909TIP3   OH227361   3.034   3.882   3.183  0.1816  0.8404 -0.4821
 1909TIP3    H127362   3.054   3.960   3.131 -0.2265  1.0018 -0.3975
 1909TIP3    H227363   3.120   3.842   3.200  0.4912  1.7936  0.2879
 1910TIP3   OH227364   3.963   0.707   8.268  0.6632 -0.3209 -0.0851
 1910TIP3    H127365   3.869   0.690   8.279  0.9196 -1.2784  0.7894
 1910TIP3    H227366   3.974   0.722   8.174 -0.4157  0.1688 -0.1487
 1911TIP3   OH227367   0.485   1.617   0.500 -0.7873  0.1661 -1.0090
 1911TIP3    H127368   0.570   1.578   0.478 -0.7866  1.0210 -2.6911
 1911TIP3    H227369   0.506   1.684   0.565 -0.4131 -0.6914 -0.2173
 1912TIP3   OH227370   5.475   3.071   7.600 -0.6582  0.2921  0.1448
 1912TIP3    H127371   5.519   3.072   7.685  0.6796  1.3815 -0.5157
 1912TIP3    H227372   5.442   2.982   7.590  2.2703 -0.9041  0.2986
 1913TIP3   OH227373   2.671   2.777   8.114  0.2808 -0.1036  0.3445
 1913TIP3    H127374   2.712   2.842   8.171  0.1457  0.7548 -0.5042
 1913TIP3    H227375   2.737   2.761   8.046 -0.4913  0.7677 -0.6412
 1914TIP3   OH227376   5.501   0.544   2.807  0.1892  0.1611 -0.2301
 1914TIP3    H127377   5.479   0.459   2.769  2.3684 -0.5150 -0.1145
 1914TIP3    H227378   5.569   0.525   2.871  0.6323  1.9707 -0.1100
 1915TIP3   OH227379   4.991   3.816   8.206 -0.4150  0.1079 -0.5173
 1915TIP3    H127380   5.045   3.740   8.186 -0.9371  0.0998 -1.9883
 1915TIP3    H227381   4.922   3.782   8.264 -0.6927 -0.5775 -1.2253
 1916TIP3   OH227382   6.910   5.720   7.831  0.3001 -0.4861 -0.1959
 1916TIP3    H127383   6.901   5.696   7.923  1.2719 -2.6496 -0.5771
 1916TIP3    H227384   6.997   5.760   7.825  1.4041 -2.7590 -0.5190
 1917TIP3   OH227385   6.981   2.337   0.117 -0.0734  1.0295  0.0231
 1917TIP3    H127386   6.980   2.421   0.069 -3.2487  0.2312 -1.5887
 1917TIP3    H227387   7.071   2.329   0.149  1.2521  3.4773 -2.6052
 1918TIP3   OH227388   2.910   4.290   1.935  0.6344 -0.3978 -0.3027
 1918TIP3    H127389   2.943   4.380   1.930 -0.9176  0.6397  3.6821
 1918TIP3    H227390   2.842   4.286   1.868  0.3347  1.6341 -0.1889
 1919TIP3   OH227391   2.248   4.188   1.508  0.2682  0.0294  0.4706
 1919TIP3    H127392   2.234   4.096   1.489  0.6214 -0.0753  0.7047
 1919TIP3    H227393   2.162   4.221   1.534  0.0157 -0.0885 -0.1953
 1920TIP3   OH227394   0.564   2.580   2.114 -0.4388  0.3982  0.0203
 1920TIP3    H127395   0.511   2.651   2.149 -3.9064 -1.5380 -0.8481
 1920TIP3    H227396   0.564   2.514   2.182 -0.7801 -0.3769 -0.7118
 1921TIP3   OH227397   6.351   3.719   2.353 -0.4483  0.3677 -0.3207
 1921TIP3    H127398   6.352   3.710   2.449  1.3323  2.7488 -0.0134
 1921TIP3    H227399   6.421   3.661   2.323 -0.5202  0.1722 -0.1142
 1922TIP3   OH227400   4.916   0.359   0.009 -0.3016  0.4128  0.8796
 1922TIP3    H127401   4.875   0.445   0.015 -1.8524 -0.2619  0.6736
 1922TIP3    H227402   4.999   0.374  -0.035 -1.4548  1.5457 -1.0739
 1923TIP3   OH227403   0.565   3.534   1.165 -0.0158  0.0224  0.3004
 1923TIP3    H127404   0.504   3.576   1.103  2.3765  0.1350 -2.1583
 1923TIP3    H227405   0.618   3.606   1.199 -0.2894 -0.2521  1.3591
 1924TIP3   OH227406   0.763   0.048   2.282  0.1367  0.1532 -0.1304
 1924TIP3    H127407   0.820   0.112   2.240  0.1851  2.1711  2.7113
 1924TIP3    H227408   0.733   0.092   2.362 -2.1174 -2.3756  0.5547
 1925TIP3   OH227409   2.350   0.599   1.993 -0.2422  0.2821 -0.2768
 1925TIP3    H127410   2.358   0.633   1.904  0.9934  0.0308 -0.2752
 1925TIP3    H227411   2.434   0.619   2.034  0.9719 -3.4201 -0.5453
 1926TIP3   OH227412   3.246   5.612   8.197 -0.0364  0.3129 -0.0932
 1926TIP3    H127413   3.169   5.642   8.245 -1.1792 -1.7963 -0.4911
 1926TIP3    H227414   3.309   5.589   8.266 -1.1798 -1.4447  0.4425
 1927TIP3   OH227415   3.449   1.889   1.731  0.1356 -0.2609 -0.2061
 1927TIP3    H127416   3.393   1.960   1.762 -0.8665 -1.0746 -0.1310
 1927TIP3    H227417   3.398   1.809   1.746  1.2030 -0.9972 -0.3835
 1928TIP3   OH227418   2.800   1.485   1.107 -0.1171 -0.3288 -0.0725
 1928TIP3    H127419   2.827   1.560   1.055  0.5790  1.7210  3.0058
 1928TIP3    H227420   2.706   1.499   1.123  0.5378  1.6094  2.8323
 1929TIP3   OH227421   6.855   3.757   2.249 -0.2465 -0.0217 -0.5196
 1929TIP3    H127422   6.903   3.835   2.221 -0.3386  0.4931  0.6690
 1929TIP3    H227423   6.886   3.687   2.191  1.4866  0.4305 -0.1986
 1930TIP3   OH227424   0.487   3.708   8.207  0.4401  0.1273 -0.4168
 1930TIP3    H127425   0.435   3.787   8.190  1.1181  0.2561 -2.0276
 1930TIP3    H227426   0.428   3.652   8.257 -0.1341  1.5460  0.5771
 1931TIP3   OH227427   5.843   1.353   2.625 -0.4577  0.4035  0.1634
 1931TIP3    H127428   5.802   1.266   2.618 -2.2364  0.8944  3.0665
 1931TIP3    H227429   5.797   1.406   2.560 -2.5112  0.1909  1.3482
 1932TIP3   OH227430   1.418   0.367   1.894 -0.5212 -0.2665  0.2408
 1932TIP3    H127431   1.412   0.398   1.804 -0.6688  2.1600  1.0113
 1932TIP3    H227432   1.512   0.370   1.914 -0.6636  1.3622  0.8100
 1933TIP3   OH227433   4.085   0.280   7.582  1.2666  0.0839  0.1208
 1933TIP3    H127434   4.014   0.339   7.557 -0.2089 -0.5103  2.6010
 1933TIP3    H227435   4.083   0.211   7.516 -1.0352 -0.3466  0.5885
 1934TIP3   OH227436   6.097   5.644   3.221  0.6854  0.6937 -0.0103
 1934TIP3    H127437   6.023   5.695   3.187  0.3503 -1.0018 -2.0262
 1934TIP3    H227438   6.174   5.698   3.204  0.1554  1.4666 -0.0272
 1935TIP3   OH227439   5.950   0.478   0.235  0.6237 -0.3106  0.1009
 1935TIP3    H127440   5.863   0.502   0.267  0.1081  1.4834 -2.3669
 1935TIP3    H227441   5.934   0.406   0.175  0.5390  1.1090 -1.6541
 1936TIP3   OH227442   1.726   0.608   1.153  0.3536 -0.2371 -0.6078
 1936TIP3    H127443   1.701   0.599   1.061  0.6347 -0.5758 -0.6522
 1936TIP3    H227444   1.656   0.661   1.191  0.2838 -0.0135 -1.0354
 1937TIP3   OH227445   0.445   1.158   2.386 -0.1071 -0.0236  0.2905
 1937TIP3    H127446   0.409   1.070   2.380  1.8610 -0.8733  0.1636
 1937TIP3    H227447   0.500   1.167   2.308  1.2161  0.5914  1.2562
 1938TIP3   OH227448   0.204   1.622   2.566 -0.3281 -0.1885  0.2654
 1938TIP3    H127449   0.134   1.660   2.512 -0.0692 -1.5305 -1.0756
 1938TIP3    H227450   0.223   1.690   2.631 -1.2108  1.1742 -0.8277
 1939TIP3   OH227451   5.057   2.941   7.542 -0.6921 -0.0592 -0.0193
 1939TIP3    H127452   5.028   2.865   7.491 -0.9753 -1.5864  2.2856
 1939TIP3    H227453   5.148   2.922   7.563 -0.5635  0.5848  0.0102
 1940TIP3   OH227454   2.798   6.553   8.002 -0.1907 -0.1242  0.6166
 1940TIP3    H127455   2.722   6.591   8.045 -1.0751 -1.0916 -0.0627
 1940TIP3    H227456   2.784   6.458   8.008  0.3823 -0.2936 -0.5404
 1941TIP3   OH227457   5.735   5.840   2.785  0.8063  0.4713 -1.1714
 1941TIP3    H127458   5.733   5.911   2.850 -0.6723 -0.5655 -0.0080
 1941TIP3    H227459   5.691   5.877   2.708  0.6623  1.0409 -0.8282
 1942TIP3   OH227460   2.833   2.250   2.474  0.6046  0.6064  0.3036
 1942TIP3    H127461   2.819   2.239   2.380  1.6235  1.1493  0.0762
 1942TIP3    H227462   2.807   2.166   2.512  1.2883 -0.0248 -0.5892
 1943TIP3   OH227463   1.801   3.290   3.010 -0.2536  0.5590  0.5410
 1943TIP3    H127464   1.709   3.282   2.984 -0.5133  0.3358  1.4807
 1943TIP3    H227465   1.833   3.200   3.012  0.8535  0.7500 -2.6162
 1944TIP3   OH227466   3.372   6.117   0.918 -0.3672 -0.0261  0.1041
 1944TIP3    H127467   3.406   6.150   1.001 -1.6370  1.4173  0.1000
 1944TIP3    H227468   3.280   6.098   0.936 -0.9407  1.3370 -1.2018
 1945TIP3   OH227469   0.037   3.326   8.073  0.3435  0.6603 -0.1488
 1945TIP3    H127470   0.101   3.258   8.053 -0.4202 -0.3148  0.6593
 1945TIP3    H227471  -0.027   3.321   8.002 -1.1031 -1.2420  1.1758
 1946TIP3   OH227472   0.199   1.344   2.296  0.0135  0.0700 -0.1908
 1946TIP3    H127473   0.262   1.302   2.356  1.1514 -0.0014 -1.3833
 1946TIP3    H227474   0.246   1.349   2.213 -1.5881  0.0158 -1.1296
 1947TIP3   OH227475   6.594   3.374   0.064 -0.5148  0.3789 -0.4924
 1947TIP3    H127476   6.533   3.441   0.092 -0.4910  0.1977  0.0090
 1947TIP3    H227477   6.676   3.394   0.110 -0.6139 -0.1977 -0.0411
 1948TIP3   OH227478   3.930   0.322   2.197  0.6643  0.2519  0.0056
 1948TIP3    H127479   3.858   0.368   2.154  1.3231  3.8695  2.2770
 1948TIP3    H227480   3.907   0.321   2.289  3.0112  0.6810  0.6732
 1949TIP3   OH227481   4.705   2.742   0.901  0.2248  0.4112 -0.0365
 1949TIP3    H127482   4.701   2.647   0.910 -1.9768  0.3419 -1.1963
 1949TIP3    H227483   4.672   2.776   0.984 -0.4099  0.1248 -0.1695
 1950TIP3   OH227484   3.856   3.980   2.617 -0.0172  0.3362 -0.0888
 1950TIP3    H127485   3.761   3.987   2.627 -0.3333 -1.0613 -1.6121
 1950TIP3    H227486   3.882   3.910   2.677 -0.3515 -0.9022 -1.3221
 1951TIP3   OH227487   2.287   2.919   0.299  0.1070 -0.0696  0.2999
 1951TIP3    H127488   2.252   2.989   0.245 -0.2658 -0.2219  0.3422
 1951TIP3    H227489   2.224   2.910   0.371  0.9426  0.5962  1.1422
 1952TIP3   OH227490   2.817   2.436   2.671 -0.1975  0.0402 -0.0904
 1952TIP3    H127491   2.843   2.358   2.621  0.7006  0.5675 -0.4680
 1952TIP3    H227492   2.743   2.472   2.622 -0.4990 -0.4626 -0.0150
 1953TIP3   OH227493   6.422   4.862   7.403 -0.2004  0.1927 -0.0893
 1953TIP3    H127494   6.457   4.944   7.435  1.2174  0.0540 -1.1896
 1953TIP3    H227495   6.339   4.851   7.449  0.6894  1.0704  1.8072
 1954TIP3   OH227496   5.165   1.463   2.846 -0.5273  0.3450  0.9712
 1954TIP3    H127497   5.233   1.508   2.895 -0.9890  1.4892  0.5751
 1954TIP3    H227498   5.212   1.397   2.794  0.0915  0.0042  1.9372
 1955TIP3   OH227499   3.314   1.539   1.395 -0.0479  0.0904  0.2934
 1955TIP3    H127500   3.361   1.518   1.314  1.0711  0.5790  0.8023
 1955TIP3    H227501   3.227   1.501   1.382 -0.1211  0.7231 -1.4179
 1956TIP3   OH227502   2.235   1.197   1.100  0.6103 -0.3074  0.0876
 1956TIP3    H127503   2.141   1.206   1.083  0.6098 -0.2554  0.1176
 1956TIP3    H227504   2.277   1.214   1.016  0.5886 -0.4234  0.0517
 1957TIP3   OH227505   4.368   4.730   1.143 -0.1623  0.6410 -0.3385
 1957TIP3    H127506   4.292   4.732   1.085 -0.2568 -0.1806 -0.2544
 1957TIP3    H227507   4.420   4.656   1.112 -0.4866 -0.1555  0.9442
 1958TIP3   OH227508   3.314   3.099   1.945 -0.1361  0.1000 -0.2082
 1958TIP3    H127509   3.269   3.106   1.861 -0.0778  0.9178 -0.1803
 1958TIP3    H227510   3.382   3.033   1.930 -1.9664 -1.9427  0.0451
 1959TIP3   OH227511   0.252   6.091   1.993  0.0468 -0.3302  0.1032
 1959TIP3    H127512   0.225   6.166   2.045 -1.6547 -1.1462  0.4630
 1959TIP3    H227513   0.190   6.089   1.920 -1.4704 -2.6791  1.3349
 1960TIP3   OH227514   0.460   0.949   0.745  0.5689 -0.4907  0.1972
 1960TIP3    H127515   0.524   0.999   0.695  0.2785  0.5175  0.7961
 1960TIP3    H227516   0.500   0.937   0.831  0.3358 -0.6561  0.2848
 1961TIP3   OH227517   0.325   5.622   8.065 -0.3627 -0.3777 -0.4937
 1961TIP3    H127518   0.413   5.661   8.059  0.1204 -1.5297 -1.3195
 1961TIP3    H227519   0.302   5.602   7.974  0.4286 -4.1133 -0.0091
 1962TIP3   OH227520   2.540   4.400   1.548  0.1362  0.0464  0.2082
 1962TIP3    H127521   2.474   4.369   1.609 -0.6235  1.5452  0.1942
 1962TIP3    H227522   2.612   4.337   1.556 -1.1025 -1.3668  0.5354
 1963TIP3   OH227523   4.461   4.583   1.501 -0.0776  0.0919 -0.6261
 1963TIP3    H127524   4.391   4.610   1.560 -1.0967 -0.6108 -1.4798
 1963TIP3    H227525   4.508   4.663   1.481 -2.3162  1.1008 -2.1937
 1964TIP3   OH227526   2.509   6.571   7.839 -0.1675  0.1797  0.2913
 1964TIP3    H127527   2.457   6.650   7.825 -1.6782 -0.6504  0.8963
 1964TIP3    H227528   2.559   6.560   7.758 -0.2413  1.5135  0.0462
 1965TIP3   OH227529   4.910   1.576   1.066  0.4427  0.2021  0.0328
 1965TIP3    H127530   4.828   1.615   1.096  0.1786 -1.0059  0.9699
 1965TIP3    H227531   4.899   1.564   0.972 -1.1338 -1.4518  0.3817
 1966TIP3   OH227532   2.899   0.034   7.944 -0.6471  0.1197 -0.3527
 1966TIP3    H127533   2.977   0.011   7.892  0.5105 -0.3874  1.5319
 1966TIP3    H227534   2.870   0.118   7.906 -1.2599 -1.2795 -3.2922
 1967TIP3   OH227535   4.306   4.871   7.914 -0.4243 -0.2812 -0.7402
 1967TIP3    H127536   4.369   4.816   7.868 -0.1248  0.1284 -0.8284
 1967TIP3    H227537   4.230   4.875   7.855 -0.6974 -1.1019 -0.4540
 1968TIP3   OH227538   2.631   4.108   1.625  0.0392  0.3499 -0.3996
 1968TIP3    H127539   2.607   4.164   1.698  0.0317  2.6082 -2.0261
 1968TIP3    H227540   2.689   4.042   1.663 -1.6236  0.1242  1.9803
 1969TIP3   OH227541   1.768   6.327   7.598 -0.2344  0.4574  0.0553
 1969TIP3    H127542   1.711   6.249   7.597 -0.0811  0.3394 -1.0437
 1969TIP3    H227543   1.708   6.401   7.600 -0.4668  0.3390 -1.4769
 1970TIP3   OH227544   5.705   1.695   1.838 -0.4788  0.0877  0.3233
 1970TIP3    H127545   5.698   1.603   1.811 -0.7325  0.2974 -0.3371
 1970TIP3    H227546   5.789   1.699   1.883  1.6570  0.3736 -3.2548
 1971TIP3   OH227547   6.581   6.810   2.749 -0.1500  0.5888  0.4960
 1971TIP3    H127548   6.608   6.859   2.672  0.6127  0.5406  0.7300
 1971TIP3    H227549   6.662   6.781   2.790 -0.5770 -0.7992  0.4173
 1972TIP3   OH227550   4.560   1.438   0.701 -0.0637 -0.3454 -0.1010
 1972TIP3    H127551   4.561   1.346   0.673  0.2255 -0.1544 -0.7547
 1972TIP3    H227552   4.548   1.435   0.795  0.6108 -1.0776 -0.0293
 1973TIP3   OH227553   4.856   6.296   7.859 -0.2590 -0.0935  0.0452
 1973TIP3    H127554   4.789   6.235   7.831 -1.5971  0.5545  1.6653
 1973TIP3    H227555   4.936   6.268   7.814 -1.1804 -2.0513 -0.4297
 1974TIP3   OH227556   6.029   2.325   0.278  0.4473 -0.1817  0.2139
 1974TIP3    H127557   6.089   2.383   0.230  0.1599  1.4266  1.7048
 1974TIP3    H227558   5.942   2.355   0.251  0.2749  1.0211  1.9870
 1975TIP3   OH227559   4.504   0.027   2.489  0.1657 -0.0958  0.4354
 1975TIP3    H127560   4.427   0.074   2.457 -0.5960 -1.0302  0.8415
 1975TIP3    H227561   4.557   0.010   2.410 -0.1875  0.2957  0.1141
 1976TIP3   OH227562   2.331   5.046   0.840 -0.1756 -0.3587 -0.1481
 1976TIP3    H127563   2.347   5.131   0.799 -1.3116  0.0548  0.2314
 1976TIP3    H227564   2.281   4.997   0.774  0.4472 -0.7221 -0.3530
 1977TIP3   OH227565   0.959   6.192   7.814 -0.2424  0.0493 -0.1540
 1977TIP3    H127566   0.922   6.268   7.859  0.0489  1.2460 -1.8522
 1977TIP3    H227567   0.930   6.201   7.724 -0.5286 -2.1052 -0.3070
 1978TIP3   OH227568   3.153   3.525   0.865 -0.1430  0.2719  0.2574
 1978TIP3    H127569   3.064   3.491   0.858  0.5493 -1.8330  0.7903
 1978TIP3    H227570   3.162   3.585   0.791 -1.8256  0.1275 -0.1017
 1979TIP3   OH227571   4.145   3.786   0.372  0.0161 -0.4476 -0.3962
 1979TIP3    H127572   4.212   3.722   0.350  2.0259  1.3229  0.1722
 1979TIP3    H227573   4.119   3.823   0.288  1.3879  0.3460 -0.5015
 1980TIP3   OH227574   6.726   2.554   8.274  0.2779 -0.4189  0.6951
 1980TIP3    H127575   6.791   2.614   8.310  1.0896 -0.9369  0.1224
 1980TIP3    H227576   6.687   2.511   8.351  1.7580 -1.2860  0.9956
 1981TIP3   OH227577   5.248   3.971   0.784 -0.2836 -0.5182 -0.1229
 1981TIP3    H127578   5.324   3.913   0.792  0.6951  0.7978  0.6284
 1981TIP3    H227579   5.220   3.963   0.693  1.2504 -0.4741 -0.6196
 1982TIP3   OH227580   6.217   1.269   2.080 -0.0580 -0.0560 -0.1453
 1982TIP3    H127581   6.276   1.301   2.012 -0.8608 -2.4767 -2.1478
 1982TIP3    H227582   6.147   1.334   2.084  0.3114  0.4333 -1.2244
 1983TIP3   OH227583   2.854   4.861   0.077  0.4158  0.2806 -0.5074
 1983TIP3    H127584   2.888   4.890  -0.008  2.6764  0.8370  0.4970
 1983TIP3    H227585   2.929   4.818   0.119 -0.5611  0.2600  1.3049
 1984TIP3   OH227586   4.658   0.264   0.181  0.0365 -0.2469 -0.3822
 1984TIP3    H127587   4.667   0.245   0.274 -0.7130 -1.4827 -0.5419
 1984TIP3    H227588   4.637   0.358   0.177  3.9327  0.8465  0.4393
 1985TIP3   OH227589   0.209   5.022   2.242  0.3310 -0.0719 -0.1009
 1985TIP3    H127590   0.173   4.971   2.169  0.7947 -1.1847  0.4294
 1985TIP3    H227591   0.303   5.004   2.241  0.1821 -1.1858  1.5616
 1986TIP3   OH227592   3.071   2.615   1.846 -0.1188  0.8840 -0.0986
 1986TIP3    H127593   3.113   2.648   1.767 -0.2892  1.9743  0.2373
 1986TIP3    H227594   3.121   2.653   1.918 -1.2083  1.6114  0.3041
 1987TIP3   OH227595   2.401   1.916   0.433 -0.0325  0.0303  1.1034
 1987TIP3    H127596   2.379   1.823   0.442 -0.3963  0.0783  0.7761
 1987TIP3    H227597   2.317   1.961   0.443 -0.1181  0.2172 -0.2582
 1988TIP3   OH227598   1.784   3.874   6.868 -0.0392 -0.3690  0.0070
 1988TIP3    H127599   1.709   3.914   6.913 -0.4124 -0.7093 -0.3120
 1988TIP3    H227600   1.781   3.910   6.779  0.1812 -0.3824 -0.0066
 1989TIP3   OH227601   5.124   3.882   2.592 -0.2570  0.3935  0.3350
 1989TIP3    H127602   5.148   3.790   2.580 -3.8768 -0.9328  1.8199
 1989TIP3    H227603   5.189   3.915   2.654  1.3650 -1.0153 -0.5311
 1990TIP3   OH227604   7.059   0.281   0.249  0.0438 -0.2918 -0.2362
 1990TIP3    H127605   6.978   0.288   0.197  0.0964  0.2437 -0.2416
 1990TIP3    H227606   7.122   0.241   0.188  0.4062  1.2814 -0.9396
 1991TIP3   OH227607   2.102   3.270   0.218 -0.2854 -0.3354  0.0444
 1991TIP3    H127608   2.144   3.193   0.181  1.8703  1.2203 -1.0291
 1991TIP3    H227609   2.162   3.300   0.287  0.1124  1.5198 -1.0088
 1992TIP3   OH227610   3.926   6.292   3.726  0.0245 -0.6337  0.3567
 1992TIP3    H127611   4.017   6.319   3.737 -0.1237  1.0829 -1.9778
 1992TIP3    H227612   3.884   6.317   3.809  1.0022  1.8124  0.2054
 1993TIP3   OH227613   6.653   5.780   2.630 -0.1370  0.7964  0.2233
 1993TIP3    H127614   6.717   5.717   2.664  0.3214 -1.2970 -3.8970
 1993TIP3    H227615   6.570   5.731   2.627 -0.1319  0.8303 -1.5387
 1994TIP3   OH227616   0.960   2.949   2.876  0.7233 -0.6597  0.1520
 1994TIP3    H127617   1.041   2.935   2.926  3.2338  2.2970 -2.6373
 1994TIP3    H227618   0.938   3.041   2.891 -2.7059 -1.5163  1.3507
 1995TIP3   OH227619   3.241   0.370   2.007 -0.0462  0.5029 -0.3050
 1995TIP3    H127620   3.302   0.355   2.079 -0.6262 -0.5413 -0.0145
 1995TIP3    H227621   3.285   0.333   1.931 -0.6235 -0.9889  0.0498
 1996TIP3   OH227622   1.530   1.678   2.869 -0.5872  0.0640  0.3849
 1996TIP3    H127623   1.556   1.597   2.826 -0.4031 -0.7663  1.9843
 1996TIP3    H227624   1.551   1.664   2.962 -0.0195  2.1574  0.6319
 1997TIP3   OH227625   4.245   2.784   1.598  0.5000 -0.1263  0.2647
 1997TIP3    H127626   4.165   2.803   1.548  0.6778 -0.2295 -0.0623
 1997TIP3    H227627   4.233   2.830   1.681  0.1857  0.0200  0.1397
 1998TIP3   OH227628   2.567   6.218   3.814 -0.0787  0.3193 -0.5501
 1998TIP3    H127629   2.659   6.198   3.828  0.1495  0.2259 -1.9571
 1998TIP3    H227630   2.549   6.186   3.725 -1.5787 -0.0391 -0.1456
 1999TIP3   OH227631   0.968   4.912   0.869 -0.2027  0.0410 -0.1234
 1999TIP3    H127632   0.970   4.920   0.773  1.2509 -0.2945 -0.1406
 1999TIP3    H227633   0.931   4.825   0.885 -0.4518  0.0985 -0.3716
 2000TIP3   OH227634   1.396   2.031   2.013 -0.3070  0.0374  0.1120
 2000TIP3    H127635   1.344   2.054   2.090 -3.1162 -0.9870 -1.2965
 2000TIP3    H227636   1.485   2.019   2.046 -1.3087  0.0049  3.1158
 2001TIP3   OH227637   0.434   3.151   1.566 -0.1182  0.0157  0.2887
 2001TIP3    H127638   0.393   3.085   1.621 -0.8618 -0.1384 -0.4187
 2001TIP3    H227639   0.373   3.163   1.493  0.6114  0.5464 -0.2620
 2002TIP3   OH227640   5.065   1.721   1.785  0.0359  0.1393 -0.0983
 2002TIP3    H127641   5.145   1.737   1.736  0.2037  1.9564  0.6633
 2002TIP3    H227642   5.092   1.722   1.877 -0.7914  0.4945  0.1566
 2003TIP3   OH227643   3.886   1.463   7.727 -0.6070 -0.0785 -0.5220
 2003TIP3    H127644   3.796   1.453   7.757  0.1122 -3.8126  0.8941
 2003TIP3    H227645   3.886   1.431   7.637 -0.8512  0.9870 -0.9136
 2004TIP3   OH227646   2.435   2.514   0.736  0.3819 -0.0754 -0.2693
 2004TIP3    H127647   2.421   2.562   0.654 -0.4090 -0.4970 -0.3917
 2004TIP3    H227648   2.377   2.556   0.799  0.8724  0.1462  0.0338
 2005TIP3   OH227649   3.687   1.800   3.012  0.5796 -0.2215  0.0652
 2005TIP3    H127650   3.659   1.730   3.070  0.4553  0.8957  1.3993
 2005TIP3    H227651   3.732   1.862   3.069  0.8431  0.7000 -1.1064
 2006TIP3   OH227652   3.994   3.168   0.379 -0.7000 -0.1368 -0.5694
 2006TIP3    H127653   3.951   3.125   0.305 -1.3951  0.0641 -0.2954
 2006TIP3    H227654   4.045   3.239   0.340 -1.3434  0.1902 -0.8357
 2007TIP3   OH227655   6.342   4.647   0.919 -0.4121 -0.2767  1.1373
 2007TIP3    H127656   6.298   4.685   0.843  0.6492 -1.7190 -0.2698
 2007TIP3    H227657   6.416   4.705   0.936  0.8391 -1.2896 -0.5987
 2008TIP3   OH227658   4.575   3.562   0.652  0.4903  0.4445  0.3782
 2008TIP3    H127659   4.514   3.630   0.678  0.4253  0.9955 -1.1087
 2008TIP3    H227660   4.520   3.492   0.617  0.6729  0.8160 -0.6859
 2009TIP3   OH227661   2.474   6.181   3.184  0.2754 -0.1837 -0.0956
 2009TIP3    H127662   2.552   6.236   3.187 -0.6077  1.0691  1.6026
 2009TIP3    H227663   2.469   6.141   3.271 -0.4887 -0.9829 -0.4857
 2010TIP3   OH227664   2.782   5.998   1.409 -0.2866 -0.4282 -0.4317
 2010TIP3    H127665   2.746   6.019   1.323 -0.1578 -0.7117 -0.5557
 2010TIP3    H227666   2.706   5.971   1.460 -0.1834 -1.5678 -0.8586
 2011TIP3   OH227667   6.758   0.459   7.545 -0.1257  0.0811 -0.0627
 2011TIP3    H127668   6.688   0.396   7.527  1.4261 -1.6748 -0.3236
 2011TIP3    H227669   6.838   0.410   7.528  1.2108  2.8269 -2.6165
 2012TIP3   OH227670   6.321   6.341   0.281  0.6682 -0.2262 -0.1482
 2012TIP3    H127671   6.377   6.347   0.359  0.0416 -2.2320  0.5039
 2012TIP3    H227672   6.377   6.299   0.215  0.9457  0.7612 -0.5626
 2013TIP3   OH227673   3.146   0.406   2.836 -0.2252  0.1303  0.4897
 2013TIP3    H127674   3.194   0.356   2.770 -0.4464 -0.9443  1.1342
 2013TIP3    H227675   3.099   0.473   2.785 -0.6767 -0.9016 -0.4818
 2014TIP3   OH227676   0.245   7.033   2.366 -0.2255  0.3700  0.5448
 2014TIP3    H127677   0.190   7.003   2.294 -2.9917  0.7772  2.3271
 2014TIP3    H227678   0.296   6.956   2.390  0.0752 -0.0251 -1.1972
 2015TIP3   OH227679   3.069   2.547   1.176 -0.3064 -0.3897  0.2000
 2015TIP3    H127680   3.075   2.617   1.110 -2.0329 -0.0725  0.3446
 2015TIP3    H227681   3.005   2.486   1.141 -1.2134 -0.2452  1.5527
 2016TIP3   OH227682   0.528   2.827   2.311 -0.0987 -0.0443  0.2640
 2016TIP3    H127683   0.619   2.842   2.335  0.5091  0.4884 -2.0641
 2016TIP3    H227684   0.499   2.911   2.275 -1.3757 -0.3353  0.5544
 2017TIP3   OH227685   4.203   2.638   1.956 -0.6426  0.0949 -0.1227
 2017TIP3    H127686   4.197   2.697   1.880  3.0945  0.1511 -0.5810
 2017TIP3    H227687   4.203   2.550   1.918  0.8765  0.1129 -0.2372
 2018TIP3   OH227688   1.144   4.592   2.509  0.2970  0.9553  0.6283
 2018TIP3    H127689   1.190   4.675   2.520  2.4861  0.2392 -1.9458
 2018TIP3    H227690   1.214   4.526   2.510 -1.4344 -1.0016  3.2312
 2019TIP3   OH227691   2.195   6.874   1.960  0.8375 -0.7654  0.2668
 2019TIP3    H127692   2.243   6.926   1.896  1.9962 -2.2141 -0.0996
 2019TIP3    H227693   2.162   6.938   2.023  1.5980  0.4687 -0.5482
 2020TIP3   OH227694   2.275   5.965   2.530 -0.3943 -0.8882 -0.3010
 2020TIP3    H127695   2.242   5.967   2.440 -0.6924 -0.5501 -0.1874
 2020TIP3    H227696   2.279   6.057   2.556 -0.2010 -0.9789 -0.0083
 2021TIP3   OH227697   2.236   4.436   0.239 -0.0338  0.3441 -0.5055
 2021TIP3    H127698   2.328   4.434   0.210 -0.0768  0.3453 -0.6397
 2021TIP3    H227699   2.240   4.477   0.326  0.3633 -1.5634  0.4320
 2022TIP3   OH227700   2.778   3.518   2.129  0.5232 -0.1003  0.8815
 2022TIP3    H127701   2.861   3.515   2.082  0.3420 -1.3765  0.6255
 2022TIP3    H227702   2.795   3.476   2.213  0.3277  0.3523  1.1554
 2023TIP3   OH227703   2.118   2.270   2.431 -0.2396 -0.1406 -0.8697
 2023TIP3    H127704   2.084   2.219   2.357  1.3101 -1.2326 -0.8667
 2023TIP3    H227705   2.092   2.220   2.509  1.3386 -1.0186 -0.8693
 2024TIP3   OH227706   6.972   4.611   0.559  0.0095 -0.2524  0.0488
 2024TIP3    H127707   7.055   4.660   0.561  0.3228 -0.6154 -1.8019
 2024TIP3    H227708   6.998   4.519   0.566 -0.2100 -0.3717 -0.6171
 2025TIP3   OH227709   4.221   3.072   2.484 -0.3746 -0.4444  0.2759
 2025TIP3    H127710   4.196   3.154   2.528 -0.7015  0.0508 -0.8124
 2025TIP3    H227711   4.295   3.097   2.429 -0.0950 -1.0199  0.3883
 2026TIP3   OH227712   2.643   6.572   0.511 -0.0081 -0.6384  0.0386
 2026TIP3    H127713   2.601   6.488   0.495  0.2136 -0.8998  0.7976
 2026TIP3    H227714   2.734   6.560   0.483 -0.4168 -0.0444 -1.6906
 2027TIP3   OH227715   1.207   0.947   2.010 -0.3857  0.3481  0.6766
 2027TIP3    H127716   1.149   0.934   1.935 -1.0021  1.9344  0.8286
 2027TIP3    H227717   1.265   1.018   1.983 -0.1074  0.4146  1.4244
 2028TIP3   OH227718   2.291   6.780   2.683 -0.1880  0.1214  0.5672
 2028TIP3    H127719   2.215   6.796   2.627 -1.1232 -1.0962  1.4332
 2028TIP3    H227720   2.257   6.725   2.754  1.2485  0.5384  1.6166
 2029TIP3   OH227721   2.001   3.536   2.753  0.2231  0.4631 -0.0660
 2029TIP3    H127722   2.096   3.550   2.753  0.2085  0.6173 -0.8108
 2029TIP3    H227723   1.972   3.570   2.668 -0.7101  1.8095  0.7611
 2030TIP3   OH227724   2.600   0.873   1.596  0.7267  0.7944  1.0309
 2030TIP3    H127725   2.543   0.950   1.587 -2.6511 -1.3703  1.7894
 2030TIP3    H227726   2.617   0.846   1.506  1.1100  1.8574  0.7743
 2031TIP3   OH227727   1.002   5.526   0.588  0.5191  0.3188 -0.5653
 2031TIP3    H127728   0.996   5.603   0.531  0.5926  0.6444 -0.1383
 2031TIP3    H227729   1.080   5.480   0.557 -0.3153 -0.3514 -1.7485
 2032TIP3   OH227730   0.187   2.056   2.892  0.5277  0.1740  0.1520
 2032TIP3    H127731   0.139   2.129   2.931  1.1313  0.4002  0.4794
 2032TIP3    H227732   0.260   2.039   2.952  0.6869 -0.3675 -0.1789
 2033TIP3   OH227733   0.519   5.854   3.482  0.5429 -0.3589 -0.1965
 2033TIP3    H127734   0.543   5.816   3.397 -1.6082 -2.4482  0.0178
 2033TIP3    H227735   0.547   5.788   3.546  0.6147  0.4218  0.5864
 2034TIP3   OH227736   3.523   5.512   1.066 -0.4425 -0.3280 -1.4755
 2034TIP3    H127737   3.551   5.595   1.026  0.8261 -1.0579 -2.1926
 2034TIP3    H227738   3.430   5.524   1.085  0.0710  1.8810  0.0459
 2035TIP3   OH227739   1.724   4.123   7.118  0.0833 -0.1470  0.2373
 2035TIP3    H127740   1.796   4.115   7.054 -0.3986  2.6222 -0.7773
 2035TIP3    H227741   1.768   4.141   7.201  0.6176 -1.3875  0.2543
 2036TIP3   OH227742   3.062   6.091   3.716  0.7732  0.3967  0.0665
 2036TIP3    H127743   3.053   6.180   3.681  0.6480  0.5930  0.5776
 2036TIP3    H227744   2.980   6.048   3.694  1.4841 -0.1493 -1.6773
 2037TIP3   OH227745   0.976   5.132   2.746 -0.2605  0.4165 -0.9413
 2037TIP3    H127746   0.980   5.185   2.666 -0.2538  0.9501 -0.5905
 2037TIP3    H227747   0.914   5.178   2.802 -1.8277 -1.0426 -1.4235
 2038TIP3   OH227748   6.982   4.714   7.550 -0.0253 -0.4304  0.0199
 2038TIP3    H127749   7.032   4.647   7.504 -0.8449 -1.1309  0.1267
 2038TIP3    H227750   7.013   4.797   7.513  1.9529 -0.7622  0.8116
 2039TIP3   OH227751   1.678   0.645   0.731 -0.0538  0.1984 -0.2679
 2039TIP3    H127752   1.691   0.672   0.640  0.2001 -1.3795 -0.7227
 2039TIP3    H227753   1.634   0.561   0.726 -0.0820  0.0971  1.0869
 2040TIP3   OH227754   0.880   2.843   7.858  0.4847  0.1060 -0.1987
 2040TIP3    H127755   0.848   2.860   7.770 -0.4208  0.0469  0.1082
 2040TIP3    H227756   0.829   2.900   7.914  1.4165  0.5216  0.2472
 2041TIP3   OH227757   3.930   1.308   0.200 -0.2311 -0.5153  0.5132
 2041TIP3    H127758   3.944   1.386   0.146  2.2945 -0.0276  1.6890
 2041TIP3    H227759   4.015   1.293   0.241 -1.0566 -3.0633  1.4456
 2042TIP3   OH227760   0.663   4.092   0.520  0.5349 -0.0518  0.1886
 2042TIP3    H127761   0.605   4.145   0.574 -0.5564 -1.7428  0.7586
 2042TIP3    H227762   0.703   4.030   0.581  1.4504 -0.1741 -0.5129
 2043TIP3   OH227763   5.356   3.794   0.068 -0.0466 -0.8827 -0.4849
 2043TIP3    H127764   5.352   3.723   0.132  1.8439 -0.8495 -0.2691
 2043TIP3    H227765   5.386   3.751  -0.012 -0.4874 -0.5935 -0.8054
 2044TIP3   OH227766   6.166   0.374   3.374 -0.3202  0.2240 -0.1542
 2044TIP3    H127767   6.106   0.323   3.320 -1.2240  1.0150  0.0792
 2044TIP3    H227768   6.223   0.309   3.414  0.1833 -0.4121 -1.8074
 2045TIP3   OH227769   0.049   6.609   0.873 -0.1633 -0.0251  0.0832
 2045TIP3    H127770   0.134   6.582   0.907 -0.1816 -0.6704 -0.3712
 2045TIP3    H227771   0.004   6.648   0.948 -0.5507 -2.2169  1.0375
 2046TIP3   OH227772   5.883   0.817   0.295 -0.4855  0.4784  0.1132
 2046TIP3    H127773   5.936   0.855   0.364 -0.8956 -1.2578  1.4628
 2046TIP3    H227774   5.798   0.801   0.335 -0.6920 -0.6961 -0.7220
 2047TIP3   OH227775   5.991   6.477   0.145 -0.0550 -0.0068 -0.4749
 2047TIP3    H127776   5.946   6.475   0.230  1.7434  1.3473  0.5763
 2047TIP3    H227777   6.008   6.385   0.124 -0.3849 -0.3505  0.6954
 2048TIP3   OH227778   5.585   1.855   3.308  0.5994  0.0746 -0.1335
 2048TIP3    H127779   5.633   1.782   3.270  0.9846 -1.2416  2.6568
 2048TIP3    H227780   5.494   1.840   3.284  0.8819 -0.3785 -0.9515
 2049TIP3   OH227781   4.803   6.085   7.529  0.1703  0.8479 -0.3489
 2049TIP3    H127782   4.869   6.151   7.551 -1.1230  2.5226 -1.3057
 2049TIP3    H227783   4.741   6.088   7.602 -1.2437  2.5635 -1.5549
 2050TIP3   OH227784   2.654   3.157   2.373 -0.5356 -0.0920 -0.0482
 2050TIP3    H127785   2.591   3.167   2.444  0.7534 -1.0895  1.2850
 2050TIP3    H227786   2.638   3.068   2.340 -0.3331 -0.0659 -0.2172
 2051TIP3   OH227787   0.816   2.973   1.399 -0.2863 -0.0446  0.0871
 2051TIP3    H127788   0.842   2.885   1.424  0.5109  0.2060  0.1553
 2051TIP3    H227789   0.849   2.983   1.309 -0.8305  0.0011 -0.1128
 2052TIP3   OH227790   4.185   1.423   3.034 -0.1171 -0.0819 -0.1073
 2052TIP3    H127791   4.274   1.401   3.059 -0.3030 -2.0890 -1.0245
 2052TIP3    H227792   4.131   1.354   3.071 -0.8506 -0.8718 -2.4467
 2053TIP3   OH227793   6.280   6.834   1.472 -0.7596  0.5262  0.1849
 2053TIP3    H127794   6.355   6.870   1.520  0.3239 -0.5543 -0.6379
 2053TIP3    H227795   6.210   6.832   1.537  0.0093  1.2490  1.0763
 2054TIP3   OH227796   0.298   1.053   8.216  0.0809 -0.1750 -0.2625
 2054TIP3    H127797   0.274   0.975   8.166 -1.1838  0.4056 -0.5992
 2054TIP3    H227798   0.254   1.125   8.171 -0.6302  0.4487  1.3267
 2055TIP3   OH227799   5.732   3.738   1.632 -0.2159 -0.2250 -0.6518
 2055TIP3    H127800   5.814   3.783   1.650 -0.0621  0.4558 -2.7208
 2055TIP3    H227801   5.750   3.687   1.553 -1.9994  0.6370 -1.6757
 2056TIP3   OH227802   3.925   5.583   2.853  0.0075 -0.0272  0.1238
 2056TIP3    H127803   3.842   5.534   2.852 -0.4733  0.7788 -0.7644
 2056TIP3    H227804   3.926   5.631   2.771  2.4563 -1.7706 -0.9868
 2057TIP3   OH227805   6.059   2.705   2.157 -0.1476 -0.4373 -0.3039
 2057TIP3    H127806   6.040   2.613   2.139 -0.2979 -0.0999 -2.0714
 2057TIP3    H227807   5.991   2.753   2.110  0.2281  0.5997  0.1749
 2058TIP3   OH227808   1.094   2.671   7.142 -0.7094  0.0150  0.3795
 2058TIP3    H127809   1.020   2.669   7.082  0.9569  1.1936 -1.8670
 2058TIP3    H227810   1.145   2.593   7.121 -0.7797 -0.2816  1.2412
 2059TIP3   OH227811   4.662   1.290   1.325  0.1081 -0.0189 -0.9427
 2059TIP3    H127812   4.593   1.251   1.272  0.2876  0.2945 -1.4120
 2059TIP3    H227813   4.653   1.384   1.310 -0.5406  0.1625  0.4476
 2060TIP3   OH227814   6.453   2.508   2.099  0.9086  0.8478  0.0085
 2060TIP3    H127815   6.398   2.569   2.050  0.7724  0.3400 -0.4685
 2060TIP3    H227816   6.416   2.422   2.082  3.0894  0.2236 -2.0572
 2061TIP3   OH227817   2.181   4.274   7.888  0.3862 -0.3035  0.7796
 2061TIP3    H127818   2.263   4.247   7.849  0.2462  1.0797 -0.5517
 2061TIP3    H227819   2.115   4.256   7.821 -0.0798  0.6636  0.9624
 2062TIP3   OH227820   5.437   2.672   1.005 -0.2802 -0.5043  0.0734
 2062TIP3    H127821   5.519   2.717   0.982 -0.4858 -0.1336  0.0493
 2062TIP3    H227822   5.456   2.627   1.087  0.0773 -0.7751 -0.1564
 2063TIP3   OH227823   5.949   6.265   1.884 -0.2487 -0.2550 -0.1294
 2063TIP3    H127824   6.001   6.252   1.804  0.4411 -0.7076  0.3864
 2063TIP3    H227825   6.010   6.306   1.945 -0.6020 -0.4581  0.3599
 2064TIP3   OH227826   5.893   5.246   1.386 -0.2096  0.5965 -0.2348
 2064TIP3    H127827   5.831   5.316   1.405  0.3433  0.4783  2.2961
 2064TIP3    H227828   5.882   5.183   1.457  1.7082 -0.1943 -0.5593
 2065TIP3   OH227829   2.319   6.519   0.170  0.1165 -0.3078  0.2849
 2065TIP3    H127830   2.298   6.426   0.156  0.4739 -0.3932  0.3049
 2065TIP3    H227831   2.414   6.523   0.162  0.2169 -0.1462  1.4656
 2066TIP3   OH227832   4.081   4.457   3.369 -0.9543 -0.5155  0.2919
 2066TIP3    H127833   4.034   4.387   3.324  1.1647 -1.3718 -0.7549
 2066TIP3    H227834   4.170   4.454   3.333 -0.4468  1.9553  1.0836
 2067TIP3   OH227835   6.340   5.338   2.598  0.4353  0.2639 -0.4044
 2067TIP3    H127836   6.385   5.417   2.627 -0.0501  0.0827  0.9216
 2067TIP3    H227837   6.262   5.369   2.553 -0.5739  0.5698  1.4682
 2068TIP3   OH227838   4.481   2.534   1.413  0.0070 -0.1880  0.3365
 2068TIP3    H127839   4.545   2.532   1.342 -1.2556 -0.9087 -0.8310
 2068TIP3    H227840   4.446   2.624   1.411  0.7485  0.1139  0.7752
 2069TIP3   OH227841   0.363   4.433   0.926  0.2580 -0.1038 -0.2098
 2069TIP3    H127842   0.457   4.443   0.940  0.5755 -0.6413 -1.7128
 2069TIP3    H227843   0.338   4.510   0.875 -0.2338  0.2985  0.6224
 2070TIP3   OH227844   5.293   2.033   1.338  0.1760 -0.2568  0.6301
 2070TIP3    H127845   5.217   2.089   1.323 -0.2888 -1.2270 -0.8783
 2070TIP3    H227846   5.262   1.967   1.400  0.0209 -0.2199  0.5929
 2071TIP3   OH227847   6.017   4.893   2.766  0.0519 -1.5053 -0.3028
 2071TIP3    H127848   5.961   4.969   2.751 -0.3371 -1.9083 -0.9568
 2071TIP3    H227849   6.102   4.918   2.730 -0.3032 -1.6777 -1.2915
 2072TIP3   OH227850   1.622   5.861   1.395  0.0631 -0.2602 -0.4406
 2072TIP3    H127851   1.611   5.768   1.375 -2.5468 -0.3615  0.9796
 2072TIP3    H227852   1.533   5.893   1.406  0.9007  1.3273  3.5749
 2073TIP3   OH227853   6.070   4.764   1.520 -0.0462  0.2802  0.0115
 2073TIP3    H127854   5.977   4.776   1.503 -0.4669  1.0578  2.4121
 2073TIP3    H227855   6.107   4.852   1.510 -0.2248  0.6680  2.1761
 2074TIP3   OH227856   1.581   6.769   8.149 -0.5383 -0.3410  0.0101
 2074TIP3    H127857   1.662   6.724   8.174  0.6358  2.1603  1.1858
 2074TIP3    H227858   1.525   6.763   8.227  0.1324  1.1653  0.6578
 2075TIP3   OH227859   5.620   4.953   1.853 -0.4879  0.9021  0.6990
 2075TIP3    H127860   5.602   5.039   1.892 -0.0733  1.7232 -0.8204
 2075TIP3    H227861   5.584   4.960   1.765 -0.7460 -0.6246  0.6715
 2076TIP3   OH227862   2.359   2.391   1.829  0.7997  0.4537  0.1267
 2076TIP3    H127863   2.278   2.353   1.796  2.1076 -1.6210 -0.8352
 2076TIP3    H227864   2.367   2.475   1.783 -1.0124  0.9388  0.6218
 2077TIP3   OH227865   0.359   3.685   2.465  0.3853  0.1612  0.1672
 2077TIP3    H127866   0.273   3.710   2.500 -0.5003 -1.7297 -0.5093
 2077TIP3    H227867   0.343   3.672   2.371  1.1654 -1.1170  0.1921
 2078TIP3   OH227868   1.975   5.719   2.135  0.1129 -0.2719 -0.7535
 2078TIP3    H127869   1.940   5.795   2.088  0.6388 -0.0452 -0.7807
 2078TIP3    H227870   1.921   5.714   2.215 -1.2193 -1.0484 -1.6562
 2079TIP3   OH227871   3.071   4.540   1.332 -0.1807  0.9444  0.5829
 2079TIP3    H127872   3.083   4.558   1.239  0.3661 -0.3184  0.3912
 2079TIP3    H227873   2.976   4.529   1.342 -0.0811 -1.2270 -0.3125
 2080TIP3   OH227874   0.010   2.071   1.732 -0.2141 -0.5341  0.2414
 2080TIP3    H127875   0.096   2.043   1.762  0.5529  1.1594 -0.2608
 2080TIP3    H227876  -0.041   2.083   1.812  0.3157 -0.6277  0.5964
 2081TIP3   OH227877   5.747   2.557   8.230 -0.1282 -0.3885 -0.1523
 2081TIP3    H127878   5.670   2.613   8.239  1.9073  2.8174 -0.7992
 2081TIP3    H227879   5.721   2.490   8.166 -2.0427  1.2763 -1.2332
 2082TIP3   OH227880   0.380   4.160   7.965 -0.5883  0.1589  0.3072
 2082TIP3    H127881   0.339   4.180   7.881 -0.5648 -1.3660 -0.0780
 2082TIP3    H227882   0.335   4.082   7.997 -1.4280  1.3769  2.3090
 2083TIP3   OH227883   5.294   6.302   0.698 -0.0654  0.5584  0.1497
 2083TIP3    H127884   5.382   6.277   0.671 -0.6426 -1.5145  0.0130
 2083TIP3    H227885   5.307   6.372   0.762  1.6542  0.4535 -0.0477
 2084TIP3   OH227886   5.512   4.021   0.102 -0.0629  0.0239  0.4133
 2084TIP3    H127887   5.445   3.955   0.088 -0.1394  0.3766 -1.0948
 2084TIP3    H227888   5.594   3.978   0.078  0.0120  0.1692  0.4047
 2085TIP3   OH227889   6.822   2.808   7.508 -0.0114  0.3202  0.4602
 2085TIP3    H127890   6.731   2.834   7.499 -0.0500 -0.0149 -0.1147
 2085TIP3    H227891   6.872   2.886   7.484 -0.1252 -0.1515 -1.4424
 2086TIP3   OH227892   0.341   0.019   7.892 -0.0791  0.6026 -0.2582
 2086TIP3    H127893   0.282   0.092   7.877  0.3301  0.4358 -3.1972
 2086TIP3    H227894   0.428   0.055   7.874  0.5031  0.2006  1.5506
 2087TIP3   OH227895   6.160   4.430   1.730  0.0741 -0.9437  0.1115
 2087TIP3    H127896   6.246   4.414   1.691  0.2934  0.8485 -0.2171
 2087TIP3    H227897   6.099   4.418   1.658  0.3335  0.6999 -0.4163
 2088TIP3   OH227898   6.620   6.580   1.150 -0.3313  0.0356 -0.0833
 2088TIP3    H127899   6.634   6.636   1.226  0.9355  1.0570 -1.0213
 2088TIP3    H227900   6.525   6.574   1.142 -0.4876  0.3986  1.2132
 2089TIP3   OH227901   5.730   3.416   2.215 -0.8294 -0.0922  0.0278
 2089TIP3    H127902   5.701   3.506   2.223 -0.7613 -0.0126 -0.5582
 2089TIP3    H227903   5.783   3.414   2.135 -1.2493 -0.7506 -0.2501
 2090TIP3   OH227904   2.509   5.317   2.885 -0.3402  0.0875 -0.0129
 2090TIP3    H127905   2.443   5.307   2.954 -1.1901 -1.8268 -1.0404
 2090TIP3    H227906   2.586   5.351   2.931 -1.0073 -0.7045  1.8018
 2091TIP3   OH227907   3.741   2.406   1.870 -0.0313 -0.1289 -0.0423
 2091TIP3    H127908   3.681   2.376   1.802 -0.5056  0.9611 -0.1265
 2091TIP3    H227909   3.688   2.462   1.926  0.7385  0.2786  0.2939
 2092TIP3   OH227910   3.655   5.243   1.856 -0.2965 -0.4884 -0.0219
 2092TIP3    H127911   3.730   5.236   1.916  0.2932 -1.1896 -0.8076
 2092TIP3    H227912   3.656   5.160   1.808  0.9927  1.0889 -3.0004
 2093TIP3   OH227913   2.443   2.081   0.232  0.1162  0.4521  0.2808
 2093TIP3    H127914   2.536   2.102   0.230 -0.0158  1.2926  1.5607
 2093TIP3    H227915   2.437   2.003   0.288  0.2655 -1.1005 -1.7732
 2094TIP3   OH227916   1.071   2.818   1.547 -0.1564  0.2166  0.0322
 2094TIP3    H127917   1.126   2.757   1.499  0.4107  2.3921 -2.3557
 2094TIP3    H227918   1.127   2.853   1.617  0.0319 -0.7411  0.3667
 2095TIP3   OH227919   4.840   3.491   0.774  0.0184 -0.3371  0.0205
 2095TIP3    H127920   4.876   3.416   0.727 -1.2306 -0.8191 -0.2091
 2095TIP3    H227921   4.766   3.521   0.720 -0.2391  0.3129  0.7086
 2096TIP3   OH227922   2.608   2.408   1.334 -0.0882 -0.2611  0.0392
 2096TIP3    H127923   2.564   2.441   1.412 -2.2454 -1.1762 -0.7177
 2096TIP3    H227924   2.667   2.340   1.367  1.1271  1.2475  1.1187
 2097TIP3   OH227925   6.631   2.201   1.083  0.2864  0.0950 -0.2811
 2097TIP3    H127926   6.626   2.146   1.005 -0.0576 -1.9609  1.1216
 2097TIP3    H227927   6.724   2.204   1.104  0.4891  1.4089 -1.2316
 2098TIP3   OH227928   2.804   1.223   2.328  0.4704 -0.5127  0.2439
 2098TIP3    H127929   2.898   1.223   2.348  0.3244 -1.3592  0.9937
 2098TIP3    H227930   2.778   1.315   2.334  1.2558 -0.2751  0.0357
 2099TIP3   OH227931   6.243   2.586   3.352  0.2472 -1.1745  0.2894
 2099TIP3    H127932   6.310   2.532   3.394  1.4009 -1.6514 -1.9928
 2099TIP3    H227933   6.289   2.666   3.328 -0.2273 -1.1373 -0.5154
 2100TIP3   OH227934   0.957   6.355   0.764 -0.3535 -0.3320  0.2257
 2100TIP3    H127935   1.036   6.404   0.743  1.0098 -1.7374  1.7764
 2100TIP3    H227936   0.924   6.395   0.844 -0.2403 -0.8145  0.5173
 2101TIP3   OH227937   2.598   2.456   1.607  0.6049 -0.3533  0.4050
 2101TIP3    H127938   2.514   2.489   1.641  0.2350  2.6131 -2.8063
 2101TIP3    H227939   2.660   2.527   1.623  1.4531 -0.7448 -1.0232
 2102TIP3   OH227940   1.851   3.451   7.868 -0.3231 -0.0674  0.5829
 2102TIP3    H127941   1.872   3.360   7.847 -1.5008 -0.2478  0.0875
 2102TIP3    H227942   1.763   3.448   7.905  0.1642  0.7279  1.8582
 2103TIP3   OH227943   0.874   2.867   2.068 -0.1529  0.3798 -0.2037
 2103TIP3    H127944   0.921   2.935   2.117  1.3352 -0.0890 -0.8934
 2103TIP3    H227945   0.895   2.786   2.115 -0.3405  0.1713 -0.4806
 2104TIP3   OH227946   6.375   4.193   0.475 -0.6111  0.2627  0.0287
 2104TIP3    H127947   6.294   4.142   0.479 -0.8721  0.6929  0.1967
 2104TIP3    H227948   6.435   4.137   0.425 -1.6925  0.8588 -2.0962
 2105TIP3   OH227949   1.369   6.300   0.564 -0.4003  0.2542 -0.0715
 2105TIP3    H127950   1.335   6.310   0.475  0.1265 -0.4937 -0.3655
 2105TIP3    H227951   1.311   6.355   0.617 -0.4293  1.0832 -0.9305
 2106TIP3   OH227952   1.050   0.848   1.565  0.4411  0.1845 -0.7101
 2106TIP3    H127953   1.024   0.756   1.563  1.2387 -0.2197  2.3277
 2106TIP3    H227954   0.986   0.889   1.624  0.5629  1.4060 -1.4058
 2107TIP3   OH227955   4.432   1.997   1.600  0.0131  0.0361 -0.0575
 2107TIP3    H127956   4.478   2.033   1.676 -1.9671  1.3697  0.5637
 2107TIP3    H227957   4.353   2.050   1.592 -0.8612 -1.4329 -1.7972
 2108TIP3   OH227958   2.397   5.051   1.591 -0.0966 -0.5564  0.0505
 2108TIP3    H127959   2.381   5.134   1.637  0.6637 -0.3637 -0.0148
 2108TIP3    H227960   2.399   4.985   1.660  0.0743 -0.4047  0.1946
 2109TIP3   OH227961   1.462   3.861   0.231  0.7610  0.3306  0.1983
 2109TIP3    H127962   1.526   3.855   0.160 -1.0169  0.2211 -1.4927
 2109TIP3    H227963   1.409   3.937   0.209 -0.6200 -0.4424  0.7095
 2110TIP3   OH227964   6.088   0.466   2.725  0.2828 -0.4900  0.2438
 2110TIP3    H127965   6.025   0.452   2.655 -0.5771 -0.3958  0.9824
 2110TIP3    H227966   6.134   0.546   2.700 -2.5618  1.7436  1.5331
 2111TIP3   OH227967   0.558   1.295   2.599  0.0198  0.1492  0.3561
 2111TIP3    H127968   0.590   1.220   2.649 -1.8538 -0.6944  0.3701
 2111TIP3    H227969   0.515   1.257   2.523  1.8442  1.3733 -1.4145
 2112TIP3   OH227970   0.333   6.453   1.755 -0.8130 -0.1862 -0.2286
 2112TIP3    H127971   0.317   6.495   1.671  0.4082 -0.9198 -0.8502
 2112TIP3    H227972   0.354   6.363   1.734  1.5725  0.0817  0.6584
 2113TIP3   OH227973   0.786   5.501   2.771  0.0878 -0.7926  0.5395
 2113TIP3    H127974   0.840   5.463   2.701 -0.9898 -2.3556  0.5083
 2113TIP3    H227975   0.795   5.440   2.844  2.7657  1.7860  2.6043
 2114TIP3   OH227976   5.195   6.102   2.384  0.2187 -0.1014  0.1604
 2114TIP3    H127977   5.278   6.058   2.370  0.0612 -0.3724  0.0761
 2114TIP3    H227978   5.206   6.188   2.343  0.5514 -0.0328  0.3963
 2115TIP3   OH227979   2.085   1.671   0.160  0.0429 -0.0520  0.3782
 2115TIP3    H127980   2.030   1.614   0.106 -1.2841 -0.7060  2.2791
 2115TIP3    H227981   2.024   1.707   0.226  1.6684  0.1369  1.8473
 2116TIP3   OH227982   6.686   0.669   1.280 -0.6864  0.4896  0.2035
 2116TIP3    H127983   6.669   0.738   1.344 -0.1892  0.0025  0.8746
 2116TIP3    H227984   6.700   0.715   1.197  1.6098  1.3453  1.0190
 2117TIP3   OH227985   1.804   0.248   1.670 -0.5789  0.1869  0.1298
 2117TIP3    H127986   1.764   0.223   1.753  0.4078 -0.2242  0.5042
 2117TIP3    H227987   1.820   0.342   1.678  0.4695 -0.0313  0.8564
 2118TIP3   OH227988   2.419   6.459   1.082 -0.2475  0.1594  0.1532
 2118TIP3    H127989   2.422   6.499   0.996  2.9159  1.0248  0.5374
 2118TIP3    H227990   2.357   6.387   1.073  0.9444 -0.6301 -3.2460
 2119TIP3   OH227991   1.111   4.850   0.397 -0.2938 -0.5252  0.2394
 2119TIP3    H127992   1.060   4.901   0.335 -0.3196  0.4845  1.0749
 2119TIP3    H227993   1.172   4.800   0.342  0.3333  1.0574 -0.5745
 2120TIP3   OH227994   5.332   4.481   1.405 -0.2065  0.4133 -0.2158
 2120TIP3    H127995   5.245   4.445   1.422  0.3925 -0.3933  1.4248
 2120TIP3    H227996   5.370   4.422   1.340  0.1130 -0.9371  1.1490
 2121TIP3   OH227997   0.274   5.200   1.555 -0.3564 -0.1353  0.5157
 2121TIP3    H127998   0.237   5.228   1.471  0.5510 -0.8872 -0.1473
 2121TIP3    H227999   0.288   5.282   1.603 -0.0382  0.3820 -0.4311
 2122TIP3   OH228000   1.681   0.266   0.302 -0.1203  0.4532 -0.1563
 2122TIP3    H128001   1.650   0.186   0.258  2.0532 -1.1973  1.0698
 2122TIP3    H228002   1.757   0.293   0.251 -0.0228  0.9219  0.2289
 2123TIP3   OH228003   2.865   6.305   0.089  0.0646 -0.1967 -0.0015
 2123TIP3    H128004   2.841   6.251   0.165 -3.2150 -0.5924 -1.1523
 2123TIP3    H228005   2.810   6.272   0.018  1.3038  1.6873 -1.9577
 2124TIP3   OH228006   2.372   2.967   1.408  0.2292 -0.4941 -0.5332
 2124TIP3    H128007   2.378   3.036   1.474  1.7050  0.1555 -1.2842
 2124TIP3    H228008   2.383   3.013   1.325 -1.7657 -1.2662 -1.2861
 2125TIP3   OH228009   6.246   3.678   2.744 -0.2278 -0.8156 -0.5356
 2125TIP3    H128010   6.208   3.644   2.825  0.2353 -0.4770 -0.1703
 2125TIP3    H228011   6.268   3.769   2.765  2.1910 -1.3898 -0.2159
 2126TIP3   OH228012   4.339   1.443   0.490 -0.5273  0.5723 -0.1479
 2126TIP3    H128013   4.419   1.469   0.537 -0.3753  1.6096 -0.9346
 2126TIP3    H228014   4.268   1.467   0.550 -0.2785 -2.8901  1.7971
 2127TIP3   OH228015   2.098   2.868   2.178  0.3652  0.3416 -0.5039
 2127TIP3    H128016   2.156   2.934   2.217  1.7058 -0.1752 -1.5320
 2127TIP3    H228017   2.146   2.785   2.188 -0.7755 -0.3090 -0.2621
 2128TIP3   OH228018   4.814   0.280   2.369 -0.4313 -0.1074  0.2189
 2128TIP3    H128019   4.867   0.201   2.379  0.8863  0.6770 -0.2498
 2128TIP3    H228020   4.753   0.260   2.298 -1.5378 -1.4023  1.4693
 2129TIP3   OH228021   4.962   3.461   0.404 -0.2727 -0.3628  0.0693
 2129TIP3    H128022   4.874   3.497   0.414 -0.4695 -0.1453 -1.9920
 2129TIP3    H228023   5.016   3.516   0.461 -1.3198  0.0761  0.6744
 2130TIP3   OH228024   5.942   4.240   1.571  0.1361  0.1393 -0.3785
 2130TIP3    H128025   5.954   4.282   1.486  0.6909 -0.2007 -0.4758
 2130TIP3    H228026   6.022   4.188   1.583  0.0630  0.1920  0.3524
 2131TIP3   OH228027   4.275   1.058   0.176  0.2514  0.3302 -0.5885
 2131TIP3    H128028   4.354   1.006   0.178 -0.1269 -0.2954 -1.4129
 2131TIP3    H228029   4.206   0.999   0.205 -0.1835  0.3479 -1.5493
 2132TIP3   OH228030   6.733   5.316   2.458 -0.2686  0.2720  0.4381
 2132TIP3    H128031   6.671   5.382   2.429  0.3587  0.7175  0.0846
 2132TIP3    H228032   6.724   5.245   2.394 -0.6264  0.1988  0.5655
 2133TIP3   OH228033   5.529   3.791   8.100  0.2039  0.0951  0.2903
 2133TIP3    H128034   5.492   3.867   8.055  0.1295  0.2266  0.5709
 2133TIP3    H228035   5.610   3.823   8.139 -0.8405  0.6105  2.1808
 2134TIP3   OH228036   1.803   6.610   0.152 -0.0445  0.2714 -0.1518
 2134TIP3    H128037   1.747   6.682   0.122 -0.3431 -0.3557 -1.1252
 2134TIP3    H228038   1.892   6.642   0.138 -0.1470  0.9920  0.7328
 2135TIP3   OH228039   5.121   2.271   3.282 -0.0307 -0.2312 -0.7400
 2135TIP3    H128040   5.027   2.255   3.281 -0.1692  0.3565  0.8293
 2135TIP3    H228041   5.132   2.350   3.229 -0.4990  0.0637 -0.4040
 2136TIP3   OH228042   3.561   4.231   2.233 -0.7219 -0.4060 -0.1570
 2136TIP3    H128043   3.636   4.217   2.291  0.4212  2.0282 -0.8967
 2136TIP3    H228044   3.487   4.245   2.292  0.1453  0.6791  0.7102
 2137TIP3   OH228045   4.956   4.149   1.555  0.7033  0.2367  0.5609
 2137TIP3    H128046   4.883   4.103   1.596  0.4370  0.1464  0.0077
 2137TIP3    H228047   4.971   4.225   1.610 -1.9959  2.1266 -1.0017
 2138TIP3   OH228048   0.227   4.368   1.761  0.0475  0.0940  0.1514
 2138TIP3    H128049   0.309   4.398   1.799  0.1435  0.0597 -0.0284
 2138TIP3    H228050   0.216   4.279   1.795  0.1102  0.0809  0.1384
 2139TIP3   OH228051   6.954   5.840   3.586 -0.4730 -0.0200 -0.1281
 2139TIP3    H128052   6.916   5.903   3.647  1.1589  0.3128  0.6260
 2139TIP3    H228053   6.887   5.773   3.575 -1.9907  1.4735 -0.3928
 2140TIP3   OH228054   4.171   0.679   2.230  0.2373 -0.5813  0.0669
 2140TIP3    H128055   4.079   0.696   2.251  0.4616  0.0366  0.5801
 2140TIP3    H228056   4.168   0.604   2.171 -0.5278 -1.3889  1.0786
 2141TIP3   OH228057   2.874   1.772   2.143  0.4074  0.6800  0.3319
 2141TIP3    H128058   2.887   1.688   2.099 -0.1961 -0.8588  2.8790
 2141TIP3    H228059   2.780   1.775   2.160  0.2479  2.4201 -0.6160
 2142TIP3   OH228060   0.613   0.310   2.753 -0.0644  0.0040 -0.1447
 2142TIP3    H128061   0.667   0.350   2.821  0.7894 -0.5103 -0.5022
 2142TIP3    H228062   0.609   0.218   2.777  0.8397 -0.3167 -1.1550
 2143TIP3   OH228063   1.162   6.156   1.436  0.3640 -0.1297 -0.1317
 2143TIP3    H128064   1.139   6.107   1.515 -1.4093  2.7930  1.3379
 2143TIP3    H228065   1.217   6.228   1.467  0.5966  0.4240 -1.7341
 2144TIP3   OH228066   5.105   5.451   2.636 -0.0213  0.3007 -0.5987
 2144TIP3    H128067   5.166   5.524   2.626 -0.0746  0.3413 -0.6296
 2144TIP3    H228068   5.019   5.490   2.623  0.0349 -0.1215 -2.5297
 2145TIP3   OH228069   2.497   4.713   1.608  0.2391  0.1490 -0.0088
 2145TIP3    H128070   2.515   4.619   1.610  0.6724  0.2139 -0.7600
 2145TIP3    H228071   2.566   4.752   1.661  0.4525  0.1112 -0.2624
 2146TIP3   OH228072   6.328   4.533   1.401  0.3298  0.0985 -0.0374
 2146TIP3    H128073   6.377   4.608   1.434  1.2973 -0.3807 -0.3490
 2146TIP3    H228074   6.380   4.500   1.328 -0.2198 -0.7159 -0.0827
 2147TIP3   OH228075   2.126   1.730   1.063 -0.1770 -0.6182 -0.1081
 2147TIP3    H128076   2.156   1.800   1.006  0.8318 -1.0664 -0.1492
 2147TIP3    H228077   2.111   1.772   1.148  0.0339 -0.2810 -0.2363
 2148TIP3   OH228078   6.223   6.782   1.195 -0.2297  0.0919 -0.2893
 2148TIP3    H128079   6.274   6.834   1.132  0.0061  2.4315  1.6982
 2148TIP3    H228080   6.249   6.816   1.281 -1.9676 -1.6567  1.0144
 2149TIP3   OH228081   0.587   6.276   7.491 -0.1522  0.1576 -0.4767
 2149TIP3    H128082   0.551   6.236   7.412  1.0642 -0.5200 -0.7107
 2149TIP3    H228083   0.681   6.258   7.487 -0.2001 -0.8250  1.6502
 2150TIP3   OH228084   3.154   0.820   1.146 -0.7764 -0.3175 -0.2318
 2150TIP3    H128085   3.146   0.823   1.050  3.2925 -3.7898 -1.0008
 2150TIP3    H228086   3.116   0.736   1.171 -0.7405  0.0273  1.0425
 2151TIP3   OH228087   2.655   1.821   1.772 -0.3941  0.1532  0.1814
 2151TIP3    H128088   2.635   1.912   1.747  0.7032  0.6430  1.0464
 2151TIP3    H228089   2.656   1.822   1.867 -0.2239 -0.7527  0.1950
 2152TIP3   OH228090   6.554   0.093   1.370 -0.3223  0.3603  0.0441
 2152TIP3    H128091   6.459   0.087   1.378 -0.4294 -1.6121 -1.8237
 2152TIP3    H228092   6.571   0.186   1.357 -1.8827  0.8686  1.2771
 2153TIP3   OH228093   1.169   3.078   3.601  0.6366 -0.4700  0.3979
 2153TIP3    H128094   1.136   3.060   3.689  1.9035 -1.6244  0.6842
 2153TIP3    H228095   1.093   3.067   3.544  0.2810 -2.0546  1.1148
 2154TIP3   OH228096   4.324   3.062   1.133  0.2178 -0.3900  0.1489
 2154TIP3    H128097   4.242   3.107   1.114 -0.7096 -1.7687  0.7291
 2154TIP3    H228098   4.331   3.062   1.228  0.6670 -0.6746  0.1194
 2155TIP3   OH228099   6.027   1.138   2.698 -0.5068  0.2811 -0.5912
 2155TIP3    H128100   5.938   1.104   2.704 -0.1434 -0.5817  0.1173
 2155TIP3    H228101   6.026   1.195   2.621 -1.5325 -0.1190 -0.8853
 2156TIP3   OH228102   6.664   4.040   1.567  0.1552  0.5718 -0.3636
 2156TIP3    H128103   6.600   4.094   1.614  0.7712  1.0395 -0.0544
 2156TIP3    H228104   6.746   4.055   1.613  0.2531 -1.0256  0.0589
 2157TIP3   OH228105   4.193   5.025   0.385 -0.1704 -0.2796 -0.3833
 2157TIP3    H128106   4.245   4.951   0.353  0.0413 -0.1676 -0.3006
 2157TIP3    H228107   4.255   5.098   0.388 -0.5043  0.0321 -0.9692
 2158TIP3   OH228108   1.952   5.455   2.368 -0.2907 -0.2859 -0.0416
 2158TIP3    H128109   2.045   5.435   2.378 -0.0005  1.0869  0.3259
 2158TIP3    H228110   1.917   5.451   2.457 -0.5656 -0.7245 -0.1687
 2159TIP3   OH228111   1.460   2.669   0.761 -0.3418  0.6271  0.0245
 2159TIP3    H128112   1.409   2.589   0.776 -0.7739  0.5609 -1.6137
 2159TIP3    H228113   1.548   2.637   0.737  0.1789  0.7181  1.7172
 2160TIP3   OH228114   1.090   1.196   1.309 -0.4195 -0.2642 -0.1003
 2160TIP3    H128115   1.158   1.128   1.313 -0.2635 -0.2131 -1.3637
 2160TIP3    H228116   1.073   1.207   1.215 -1.9384 -0.0250  0.1774
 2161TIP3   OH228117   6.390   1.475   2.220 -0.0466  0.2324 -0.3793
 2161TIP3    H128118   6.399   1.385   2.254  1.1337  0.4083 -0.1820
 2161TIP3    H228119   6.384   1.464   2.126 -2.3605 -0.1930 -0.2548
 2162TIP3   OH228120   4.241   2.740   2.213  0.0310 -0.5343 -0.1199
 2162TIP3    H128121   4.198   2.702   2.137  1.6456 -2.2712 -0.2379
 2162TIP3    H228122   4.327   2.768   2.181 -0.5311  1.9217  0.3265
 2163TIP3   OH228123   1.756   0.228   0.572 -0.2101  0.4036  0.4697
 2163TIP3    H128124   1.841   0.185   0.563 -0.3716  0.0709  0.5342
 2163TIP3    H228125   1.750   0.285   0.495 -0.8489 -1.1783 -0.7155
 2164TIP3   OH228126   4.762   6.430   3.416  0.2544  0.0249  0.2556
 2164TIP3    H128127   4.857   6.432   3.403  0.3355 -0.6607  0.6977
 2164TIP3    H228128   4.732   6.516   3.386  1.1710  0.7266  1.2511
 2165TIP3   OH228129   0.508   4.258   0.675 -0.1974  0.5299  0.2975
 2165TIP3    H128130   0.430   4.312   0.666 -1.2670 -1.1091 -1.0045
 2165TIP3    H228131   0.515   4.241   0.769 -1.1650  1.0649  0.4766
 2166TIP3   OH228132   1.869   5.989   1.622 -0.2793  0.1916  0.5482
 2166TIP3    H128133   1.845   6.063   1.677 -0.0709 -0.1209  1.0672
 2166TIP3    H228134   1.895   6.028   1.539 -1.1387  0.6327  0.4738
 2167TIP3   OH228135   1.774   2.291   7.625 -0.1603 -0.2625 -0.2024
 2167TIP3    H128136   1.697   2.341   7.654 -0.1131 -0.7824  0.8684
 2167TIP3    H228137   1.837   2.358   7.599 -0.6463  0.1976 -0.2163
 2168TIP3   OH228138   2.041   6.479   1.327  0.8071  0.6699  0.0132
 2168TIP3    H128139   2.017   6.406   1.271 -1.7090  1.0390  0.4682
 2168TIP3    H228140   2.002   6.555   1.285  0.8281  1.2916  1.0808
 2169TIP3   OH228141   1.597   6.210   0.399 -0.0596  0.0461 -0.2325
 2169TIP3    H128142   1.608   6.303   0.384 -1.4284  0.2954  0.1819
 2169TIP3    H228143   1.528   6.204   0.466  2.4679 -1.1430  2.4883
 2170TIP3   OH228144   2.692   2.957   0.611  0.6106 -0.2160  0.4825
 2170TIP3    H128145   2.725   2.876   0.649  2.2340  0.0728 -0.1923
 2170TIP3    H228146   2.721   3.026   0.671  1.4877  0.0647 -0.2303
 2171TIP3   OH228147   1.276   3.086   7.561  0.1159  0.1261 -0.8895
 2171TIP3    H128148   1.255   3.007   7.611  0.4828  0.2271 -0.5690
 2171TIP3    H228149   1.241   3.157   7.614  2.0736  0.3735  0.1422
 2172TIP3   OH228150   4.784   3.432   2.609 -0.6103 -0.1181 -0.3329
 2172TIP3    H128151   4.803   3.419   2.702  1.3770  1.4041 -0.4659
 2172TIP3    H228152   4.758   3.523   2.602  1.6147  0.4916 -1.5400
 2173TIP3   OH228153   6.663   1.191   0.736 -0.5887  0.0829  0.2940
 2173TIP3    H128154   6.756   1.192   0.760 -0.3788 -0.7686 -0.4174
 2173TIP3    H228155   6.638   1.283   0.733 -0.0541  0.2938  1.5560
 2174TIP3   OH228156   4.557   6.201   2.802  0.5296  0.1879  0.2278
 2174TIP3    H128157   4.545   6.117   2.845 -2.2084  0.3336 -0.0392
 2174TIP3    H228158   4.533   6.186   2.711  1.4074  0.9636 -0.1528
 2175TIP3   OH228159   1.167   4.005   2.863 -0.0049  0.2733  0.2947
 2175TIP3    H128160   1.232   4.025   2.930  0.0811  1.8653 -0.2348
 2175TIP3    H228161   1.100   3.954   2.909  0.8537 -0.0692  1.1932
 2176TIP3   OH228162   1.043   1.417   0.626  0.1025  0.7079  0.4272
 2176TIP3    H128163   1.055   1.407   0.532 -2.8379  0.1538  0.0058
 2176TIP3    H228164   1.062   1.509   0.643 -1.4100  1.3710 -1.1594
 2177TIP3   OH228165   1.469   1.415   0.687  0.0157 -0.5726  0.3232
 2177TIP3    H128166   1.545   1.436   0.742 -0.1839  1.3399 -0.0559
 2177TIP3    H228167   1.400   1.393   0.749  0.3512 -0.4327  0.7542
 2178TIP3   OH228168   0.226   3.117   1.397  0.2217 -0.2018  0.3298
 2178TIP3    H128169   0.155   3.053   1.404  1.2867 -1.6141 -1.0002
 2178TIP3    H228170   0.186   3.192   1.353 -0.2496 -1.4161 -1.4515
 2179TIP3   OH228171   0.753   1.644   2.421 -0.0718 -0.3138  0.1426
 2179TIP3    H128172   0.759   1.563   2.370  0.6272 -0.5197  0.5441
 2179TIP3    H228173   0.663   1.644   2.455 -0.7092  0.0805 -1.4777
 2180TIP3   OH228174   1.288   6.741   2.794 -0.4019  0.4528  0.1338
 2180TIP3    H128175   1.220   6.765   2.731  0.6971  0.8369 -0.9240
 2180TIP3    H228176   1.321   6.825   2.827 -0.3577  0.2680  0.5677
 2181TIP3   OH228177   2.580   5.212   7.654 -0.1201 -0.0806 -0.0945
 2181TIP3    H128178   2.595   5.141   7.717  0.4940 -0.8254 -1.0597
 2181TIP3    H228179   2.497   5.191   7.613  0.3870 -0.6256 -0.8639
 2182TIP3   OH228180   0.247   2.899   2.922 -0.2884  0.6898  0.2514
 2182TIP3    H128181   0.255   2.809   2.890  1.5640  0.7218  0.5142
 2182TIP3    H228182   0.162   2.901   2.966 -0.1255 -1.1030  0.7412
 2183TIP3   OH228183   2.464   5.338   1.009  0.7213 -0.2855  0.3979
 2183TIP3    H128184   2.368   5.337   1.011  0.7101 -1.6277 -0.1342
 2183TIP3    H228185   2.486   5.327   0.916  1.3913 -0.2659  0.5510
 2184TIP3   OH228186   0.400   1.053   2.983  0.2278  0.2325 -0.1348
 2184TIP3    H128187   0.369   1.026   2.896  0.9784 -2.8892  0.4583
 2184TIP3    H228188   0.486   1.012   2.992 -0.7944 -1.5479  2.9142
 2185TIP3   OH228189   4.505   6.913   2.780 -0.0431 -0.2117  0.5416
 2185TIP3    H128190   4.567   6.985   2.772 -1.4110  1.5584  3.9172
 2185TIP3    H228191   4.435   6.934   2.718  0.6845  0.0554 -0.2048
 2186TIP3   OH228192   1.419   4.325   3.326  0.1915  0.1612 -0.3717
 2186TIP3    H128193   1.346   4.269   3.301 -0.1922 -0.1784  1.3836
 2186TIP3    H228194   1.478   4.267   3.374 -0.2382  1.2177  1.5373
 2187TIP3   OH228195   1.467   0.416   0.675  0.1423  0.2880  0.5030
 2187TIP3    H128196   1.524   0.402   0.599 -1.2456  0.8605 -0.7033
 2187TIP3    H228197   1.379   0.400   0.641 -0.8262  3.4742  1.1487
 2188TIP3   OH228198   2.312   2.543   8.103 -0.0749  0.6692 -0.5740
 2188TIP3    H128199   2.266   2.465   8.071 -0.7371  1.1621 -0.8529
 2188TIP3    H228200   2.395   2.542   8.056  0.3382 -0.3708  0.1202
 2189TIP3   OH228201   5.819   4.820   1.417  0.0269  0.1317  0.1543
 2189TIP3    H128202   5.787   4.873   1.343  0.9711  0.4294 -0.0547
 2189TIP3    H228203   5.755   4.750   1.425 -0.1902  0.1966 -0.8369
 2190TIP3   OH228204   3.745   6.477   0.098  0.6718  0.1434  0.5569
 2190TIP3    H128205   3.747   6.508   0.008  3.2429  0.7587  0.7617
 2190TIP3    H228206   3.680   6.532   0.141  0.5135  0.8486 -0.5638
 2191TIP3   OH228207   2.131   3.062   7.667 -0.4931  0.0343  0.2672
 2191TIP3    H128208   2.183   3.099   7.596 -0.8776  3.5732  1.6459
 2191TIP3    H228209   2.170   2.976   7.683  2.4480  0.9685 -1.2611
 2192TIP3   OH228210   2.979   4.680   1.076  0.0769 -0.3722  0.2860
 2192TIP3    H128211   3.053   4.727   1.038 -0.7223 -0.3488 -1.3330
 2192TIP3    H228212   2.907   4.744   1.075 -0.1669 -0.6076  1.2065
 2193TIP3   OH228213   4.168   2.910   1.825 -0.4404 -0.0719 -0.2457
 2193TIP3    H128214   4.257   2.940   1.844 -0.2729 -0.1005 -0.9652
 2193TIP3    H228215   4.124   2.910   1.910  0.5013 -0.9092  0.2714
 2194TIP3   OH228216   1.577   4.244   0.852 -0.3591 -0.0592  0.0428
 2194TIP3    H128217   1.545   4.203   0.933  0.5701 -1.7027 -0.3633
 2194TIP3    H228218   1.603   4.332   0.878 -1.2040 -0.1518  1.2706
 2195TIP3   OH228219   2.080   6.405   2.577 -0.2468 -0.7290 -0.2917
 2195TIP3    H128220   2.099   6.438   2.489 -0.4719 -0.8790 -0.3974
 2195TIP3    H228221   2.132   6.325   2.584  0.9077  0.0399  0.2510
 2196TIP3   OH228222   2.676   6.780   0.327 -0.7070  0.4493 -0.4205
 2196TIP3    H128223   2.673   6.702   0.383  1.6133  0.8442  0.3743
 2196TIP3    H228224   2.684   6.746   0.238 -2.2058 -0.1886 -0.3391
 2197TIP3   OH228225   4.265   4.408   1.106 -0.3095 -0.1040 -0.1656
 2197TIP3    H128226   4.237   4.468   1.175 -1.8163 -0.4329 -0.4489
 2197TIP3    H228227   4.360   4.415   1.105 -0.3832  1.3709  0.6070
 2198TIP3   OH228228   7.025   1.446   0.397 -0.7319 -0.6118  0.1097
 2198TIP3    H128229   7.086   1.373   0.407  0.6094  0.6230  1.6766
 2198TIP3    H228230   7.060   1.514   0.456 -4.4611 -0.3427  2.3230
 2199TIP3   OH228231   6.471   5.459   3.146  0.3503 -0.9021  0.8770
 2199TIP3    H128232   6.394   5.473   3.201 -0.5862  0.0705 -0.5974
 2199TIP3    H228233   6.450   5.379   3.097  0.3298 -0.7239  0.5895
 2200TIP3   OH228234   2.420   5.433   4.388  0.1427 -0.0554 -0.3020
 2200TIP3    H128235   2.464   5.471   4.313  2.3821 -1.0860  0.3908
 2200TIP3    H228236   2.454   5.343   4.393 -0.8693 -0.4048  1.2158
 2201TIP3   OH228237   5.031   3.600   1.423 -0.2647 -0.2690  0.0128
 2201TIP3    H128238   4.960   3.568   1.367 -0.5736 -1.3153  0.9743
 2201TIP3    H228239   5.035   3.537   1.495  0.2193  0.9615  1.0922
 2202TIP3   OH228240   2.498   6.669   1.930 -0.5377 -1.1239 -0.3135
 2202TIP3    H128241   2.536   6.645   1.846 -1.1817  0.6537 -1.1564
 2202TIP3    H228242   2.484   6.585   1.975  3.7275 -1.9539 -0.1469
 2203TIP3   OH228243   5.397   1.553   1.801  0.0975 -0.6820 -0.6021
 2203TIP3    H128244   5.410   1.631   1.855 -1.9554 -0.8595  0.2682
 2203TIP3    H228245   5.430   1.481   1.855 -0.1471 -0.6509 -0.4087
 2204TIP3   OH228246   2.056   3.447   8.103 -0.1906 -0.0529  0.1919
 2204TIP3    H128247   2.069   3.466   8.010  0.1373 -1.1250  0.0010
 2204TIP3    H228248   2.107   3.367   8.118 -1.4770 -0.7694  0.9361
 2205TIP3   OH228249   1.464   3.237   1.715  0.9466  0.5568 -0.0520
 2205TIP3    H128250   1.499   3.208   1.631 -1.1122  1.5916 -1.3350
 2205TIP3    H228251   1.541   3.268   1.763  2.0625  0.8255 -1.9176
 2206TIP3   OH228252   6.933   1.374   2.829 -0.2804  0.4881 -0.9045
 2206TIP3    H128253   6.875   1.325   2.887 -1.5356  3.1067  0.2186
 2206TIP3    H228254   6.960   1.311   2.762 -1.5983 -1.7205  0.5413
 2207TIP3   OH228255   4.198   5.696   1.331  0.5703  0.1639  0.7013
 2207TIP3    H128256   4.119   5.646   1.350  0.9761 -0.6204  0.3887
 2207TIP3    H228257   4.183   5.732   1.243  1.8478 -2.7573 -0.8786
 2208TIP3   OH228258   2.094   4.116   8.111 -0.7622  0.0214 -0.0642
 2208TIP3    H128259   2.115   4.167   8.033 -0.4866 -1.7997 -1.2269
 2208TIP3    H228260   2.160   4.142   8.175  0.0965  0.2548 -1.0256
 2209TIP3   OH228261   1.552   0.823   1.240 -0.1834 -0.0720  0.5363
 2209TIP3    H128262   1.470   0.814   1.192  0.4237  1.2513 -0.8099
 2209TIP3    H228263   1.554   0.914   1.269  0.8033 -0.0814  0.5377
 2210TIP3   OH228264   3.377   3.207   1.365  0.3545 -0.0380 -0.0155
 2210TIP3    H128265   3.283   3.199   1.351  0.6528  0.4533 -2.7404
 2210TIP3    H228266   3.390   3.177   1.455 -2.5502  1.1124  0.9079
 2211TIP3   OH228267   6.311   5.318   0.665  0.1029 -0.0953  0.3167
 2211TIP3    H128268   6.286   5.239   0.617 -0.6980 -2.0237  3.6123
 2211TIP3    H228269   6.397   5.298   0.702  0.1478  0.8036  0.7335
 2212TIP3   OH228270   1.505   3.710   0.480  0.1089  0.1016 -0.1502
 2212TIP3    H128271   1.457   3.778   0.433 -1.4863 -0.5469  0.4567
 2212TIP3    H228272   1.546   3.657   0.412 -1.0133  0.0007 -0.7783
 2213TIP3   OH228273   1.607   6.852   2.405  0.0591 -0.5966 -0.4206
 2213TIP3    H128274   1.592   6.844   2.499  1.5348  1.7556  0.0966
 2213TIP3    H228275   1.651   6.771   2.380 -1.9826 -2.0670  0.4757
 2214TIP3   OH228276   3.338   2.680   2.269 -0.2592 -0.0556  0.0796
 2214TIP3    H128277   3.308   2.753   2.322 -0.4841  0.7571 -1.1154
 2214TIP3    H228278   3.261   2.655   2.217  0.0884 -0.4704 -0.2475
 2215TIP3   OH228279   6.578   0.328   3.075  0.0989  0.7286  0.3092
 2215TIP3    H128280   6.523   0.331   2.996  0.5814 -0.0571 -0.0593
 2215TIP3    H228281   6.662   0.363   3.047  1.6710 -3.3732 -0.7007
 2216TIP3   OH228282   4.755   5.438   3.291  0.1017  0.1891  0.2563
 2216TIP3    H128283   4.770   5.352   3.254  0.8790  0.8780 -1.0929
 2216TIP3    H228284   4.699   5.483   3.228  0.0793  0.8287  0.7147
 2217TIP3   OH228285   4.579   4.191   8.084 -0.4909  0.0578  0.5849
 2217TIP3    H128286   4.624   4.218   8.003 -0.5130 -2.1528 -0.2357
 2217TIP3    H228287   4.571   4.272   8.135  1.8142  1.0595 -0.4985
 2218TIP3   OH228288   5.753   2.492   0.687  0.1038 -0.4036 -0.3107
 2218TIP3    H128289   5.843   2.459   0.691  0.9620  1.4795 -1.9186
 2218TIP3    H228290   5.744   2.525   0.597 -2.3853 -0.9797 -0.3478
 2219TIP3   OH228291   0.267   0.700   2.125  0.2556  0.2223  0.2223
 2219TIP3    H128292   0.346   0.653   2.154  0.8460  0.0925 -1.5000
 2219TIP3    H228293   0.282   0.717   2.032 -1.0317  1.6839  0.2490
 2220TIP3   OH228294   0.060   3.200   2.578  0.3212 -0.1634 -0.0934
 2220TIP3    H128295  -0.002   3.271   2.565  0.9270  0.1651 -1.3918
 2220TIP3    H228296   0.080   3.202   2.671  0.6578  1.6536 -0.1704
 2221TIP3   OH228297   5.783   1.064   2.663  0.0145 -0.1327  0.2854
 2221TIP3    H128298   5.699   1.072   2.709 -0.3488  0.7519 -0.5000
 2221TIP3    H228299   5.765   1.002   2.592  0.6798 -1.8113  1.5229
 2222TIP3   OH228300   1.271   4.021   1.919  0.1964  0.3285  0.4851
 2222TIP3    H128301   1.262   4.016   2.014  0.7268  0.7294  0.5648
 2222TIP3    H228302   1.207   3.959   1.885 -0.3669  0.5617  1.0908
 2223TIP3   OH228303   2.855   4.299   1.498  0.0758  0.4656  0.0873
 2223TIP3    H128304   2.790   4.235   1.527 -0.0233 -0.2507 -1.5641
 2223TIP3    H228305   2.937   4.268   1.538  0.1351 -1.0760 -1.0996
 2224TIP3   OH228306   1.779   5.044   7.856  0.9923  0.5434  0.1408
 2224TIP3    H128307   1.707   5.101   7.831 -0.7777 -0.5748  2.3794
 2224TIP3    H228308   1.858   5.092   7.830 -0.4955  2.1459 -1.6707
 2225TIP3   OH228309   4.254   6.201   0.517  0.3424 -0.0211 -0.2148
 2225TIP3    H128310   4.199   6.135   0.475 -0.9397  0.7872  0.1239
 2225TIP3    H228311   4.261   6.172   0.608  1.0952 -0.4886 -0.4066
 2226TIP3   OH228312   3.548   0.296   3.928 -0.1282  0.2415 -0.3914
 2226TIP3    H128313   3.632   0.252   3.919 -1.4606 -2.1558 -2.5609
 2226TIP3    H228314   3.502   0.247   3.996 -0.7180 -0.2120 -1.0977
 2227TIP3   OH228315   3.249   0.858   3.852 -0.3185  0.2604  0.3945
 2227TIP3    H128316   3.294   0.941   3.836  1.2145 -0.5975  0.1137
 2227TIP3    H228317   3.173   0.882   3.906 -1.2754  2.1569 -1.6442
 2228TIP3   OH228318   4.843   3.825   0.981  0.3352 -0.2410 -0.3369
 2228TIP3    H128319   4.853   3.730   0.974 -1.9966 -0.4720 -1.7797
 2228TIP3    H228320   4.885   3.860   0.903 -1.1858 -0.3862 -1.2709
 2229TIP3   OH228321   5.612   4.032   0.544 -0.9559  0.1241 -0.4493
 2229TIP3    H128322   5.638   4.073   0.462  0.5741 -1.9896 -1.0994
 2229TIP3    H228323   5.583   4.105   0.599  2.0568  2.1899 -1.3526
 2230TIP3   OH228324   3.382   1.813   0.813 -0.4742 -0.4684 -0.7187
 2230TIP3    H128325   3.299   1.855   0.836 -0.3051 -0.5438  0.0495
 2230TIP3    H228326   3.429   1.805   0.896  0.5710  0.1414 -1.2291
 2231TIP3   OH228327   0.893   2.810   1.768 -0.7081 -0.0784  0.3149
 2231TIP3    H128328   0.933   2.799   1.681 -3.0085  0.2090 -0.8457
 2231TIP3    H228329   0.894   2.722   1.806  0.1948 -0.2322 -0.0302
 2232TIP3   OH228330   1.789   4.291   7.874 -0.0253  0.1622  0.6488
 2232TIP3    H128331   1.846   4.215   7.874  0.1780  0.3097  0.2258
 2232TIP3    H228332   1.701   4.255   7.888 -0.1672 -0.3633 -1.2500
 2233TIP3   OH228333   1.726   7.020   1.173 -0.5167  0.5983  0.2433
 2233TIP3    H128334   1.819   7.042   1.164 -0.7161  1.2493 -0.3345
 2233TIP3    H228335   1.714   6.941   1.121 -0.1487  0.1161  0.8828
 2234TIP3   OH228336   6.348   5.726   2.364  0.0988  0.2591  0.7666
 2234TIP3    H128337   6.408   5.801   2.367 -0.4305  0.7877 -0.9449
 2234TIP3    H228338   6.273   5.754   2.415 -0.5539  1.3614 -0.7256
 2235TIP3   OH228339   6.304   4.638   2.470 -0.0889 -0.7875  0.2464
 2235TIP3    H128340   6.238   4.695   2.507  2.2402  1.6877  0.9262
 2235TIP3    H228341   6.260   4.594   2.397 -2.3213  1.0806  0.3658
 2236TIP3   OH228342   5.392   3.549   8.082 -0.3644 -0.5084  0.0347
 2236TIP3    H128343   5.455   3.616   8.056  0.1731 -1.7078 -1.9294
 2236TIP3    H228344   5.440   3.496   8.146 -0.0181 -0.3155 -0.0609
 2237TIP3   OH228345   2.479   1.515   8.087  0.0048  0.3475 -0.0273
 2237TIP3    H128346   2.446   1.444   8.142 -1.8788  1.0219 -0.2425
 2237TIP3    H228347   2.546   1.474   8.032  0.0108 -0.9190  0.8822
 2238TIP3   OH228348   1.219   4.267   2.270  0.2918  0.0179 -0.3610
 2238TIP3    H128349   1.199   4.266   2.363 -0.2127 -0.4076 -0.4715
 2238TIP3    H228350   1.158   4.330   2.232 -0.7632 -1.1377 -0.6679
 2239TIP3   OH228351   4.948   1.542   8.217  0.8199  0.4978 -0.2525
 2239TIP3    H128352   5.042   1.560   8.214  0.5364  2.4619  1.0697
 2239TIP3    H228353   4.910   1.599   8.150  0.4003  1.3269  0.6542
 2240TIP3   OH228354   0.252   1.334   1.420  0.2177 -0.2240  0.9944
 2240TIP3    H128355   0.226   1.253   1.463  0.5992 -0.7264  0.2967
 2240TIP3    H228356   0.278   1.392   1.492 -0.8999 -0.4013  1.5576
 2241TIP3   OH228357   3.896   2.126   1.744 -0.4028  0.3364 -0.1312
 2241TIP3    H128358   3.891   2.035   1.773 -0.3536  0.0986 -0.8474
 2241TIP3    H228359   3.844   2.175   1.808  1.0033  0.0676  1.2581
 2242TIP3   OH228360   3.714   6.864   1.544 -0.0148  0.2379 -0.1880
 2242TIP3    H128361   3.745   6.920   1.615 -0.3471  0.6604 -0.3736
 2242TIP3    H228362   3.736   6.911   1.464  0.3628 -0.2387 -0.3753
 2243TIP3   OH228363   6.269   0.285   1.677 -0.2076 -0.3478  0.5046
 2243TIP3    H128364   6.198   0.333   1.635  0.3209 -0.4595 -0.5676
 2243TIP3    H228365   6.283   0.330   1.760 -1.3203 -0.1458  0.5950
 2244TIP3   OH228366   5.749   6.999   3.425 -0.1151 -0.0773 -0.0975
 2244TIP3    H128367   5.655   6.987   3.423 -0.1458  0.2133 -0.9485
 2244TIP3    H228368   5.764   7.061   3.496 -0.6651  0.5804 -0.5373
 2245TIP3   OH228369   6.539   0.508   7.765  0.0256  0.9562 -0.1354
 2245TIP3    H128370   6.543   0.514   7.669 -1.0639  2.3570 -0.1180
 2245TIP3    H228371   6.515   0.417   7.782  1.4230  0.3672 -1.1316
 2246TIP3   OH228372   4.218   5.327   8.076  0.1898 -0.2295  0.3327
 2246TIP3    H128373   4.300   5.373   8.091 -0.3189  0.0104  2.9144
 2246TIP3    H228374   4.206   5.330   7.982  3.3954 -0.7802 -0.2004
 2247TIP3   OH228375   4.271   3.558   1.464  0.2718 -0.1336  0.4522
 2247TIP3    H128376   4.207   3.575   1.533  0.4892  0.8887  0.4215
 2247TIP3    H228377   4.316   3.642   1.452 -0.1921 -0.0947 -1.3492
 2248TIP3   OH228378   4.002   1.183   2.926  0.2936 -0.0584 -0.1286
 2248TIP3    H128379   3.998   1.275   2.900  0.7501 -0.6673 -2.5618
 2248TIP3    H228380   4.089   1.172   2.965 -0.6054  0.9978  2.3654
 2249TIP3   OH228381   1.872   5.787   3.305  0.1765  0.5883 -0.1876
 2249TIP3    H128382   1.797   5.824   3.352  0.3982 -0.3204  0.9419
 2249TIP3    H228383   1.858   5.810   3.214  0.1479  3.1592  0.3913
 2250TIP3   OH228384   5.155   1.904   2.696 -0.8343 -0.1019 -0.2169
 2250TIP3    H128385   5.214   1.830   2.711  1.5166  1.8622  0.8808
 2250TIP3    H228386   5.166   1.925   2.603 -0.5546 -0.3513 -0.2432
 2251TIP3   OH228387   5.791   2.395   0.180 -0.7409 -0.1065 -0.2855
 2251TIP3    H128388   5.766   2.457   0.112 -1.1076  0.6312  0.5083
 2251TIP3    H228389   5.736   2.318   0.164 -1.2058  0.2690 -0.5008
 2252TIP3   OH228390   4.395   1.280   2.641  0.3130  0.3466  0.2615
 2252TIP3    H128391   4.400   1.193   2.602  1.1041  0.4970  0.0016
 2252TIP3    H228392   4.424   1.339   2.571 -1.3049  0.9386  0.0602
 2253TIP3   OH228393   6.086   2.593   1.477  0.1092  0.1889 -0.3848
 2253TIP3    H128394   5.993   2.570   1.470  0.1435  0.0574 -0.4209
 2253TIP3    H228395   6.130   2.510   1.495 -0.0249  0.5813  1.9844
 2254TIP3   OH228396   0.412   6.507   2.625 -0.1639  0.0063  0.5909
 2254TIP3    H128397   0.408   6.590   2.672  0.5653  0.1711  0.3778
 2254TIP3    H228398   0.506   6.491   2.613 -0.2601 -1.2848  1.3957
 2255TIP3   OH228399   5.547   1.708   1.423  0.0047 -0.0496  0.7038
 2255TIP3    H128400   5.472   1.702   1.363 -0.2389 -0.3961  1.0366
 2255TIP3    H228401   5.586   1.793   1.404  0.9404 -0.8479 -1.1159
 2256TIP3   OH228402   0.652   3.868   0.093 -0.2358 -0.2846  0.2781
 2256TIP3    H128403   0.637   3.783   0.052 -0.9191  0.1350 -0.3759
 2256TIP3    H228404   0.565   3.901   0.114 -0.0445  0.6506 -0.3176
 2257TIP3   OH228405   1.227   5.594   2.518  0.0923 -0.3589 -0.2900
 2257TIP3    H128406   1.301   5.560   2.467  0.9135  0.8317  0.0910
 2257TIP3    H228407   1.238   5.555   2.605  0.0223 -0.5038 -0.3439
 2258TIP3   OH228408   0.940   4.812   2.801  0.0100  0.5946  0.2909
 2258TIP3    H128409   0.961   4.884   2.861 -0.0090  1.9106 -1.2188
 2258TIP3    H228410   0.863   4.842   2.753 -0.1695 -0.5686 -0.1755
 2259TIP3   OH228411   5.984   2.268   0.962 -0.2461 -0.7480  0.1024
 2259TIP3    H128412   6.016   2.319   1.037 -1.1898 -1.5162  1.0505
 2259TIP3    H228413   5.972   2.179   0.997 -0.7876 -1.0964 -0.9394
 2260TIP3   OH228414   2.571   4.306   7.515  1.4013  0.6452  0.2000
 2260TIP3    H128415   2.539   4.286   7.427 -1.5267  0.2790  1.2306
 2260TIP3    H228416   2.660   4.271   7.517  1.5621  0.6775 -2.5833
 2261TIP3   OH228417   5.589   1.301   0.693  0.5995 -0.7832  0.3854
 2261TIP3    H128418   5.589   1.211   0.660 -0.6950 -0.2179 -1.2992
 2261TIP3    H228419   5.499   1.315   0.723  0.7317  0.0225  0.4236
 2262TIP3   OH228420   5.062   3.282   1.125 -0.6321  0.5591 -0.5141
 2262TIP3    H128421   5.143   3.327   1.146 -1.9755  2.6394  0.5733
 2262TIP3    H228422   5.007   3.349   1.085 -2.5399 -0.2296  0.6442
 2263TIP3   OH228423   6.479   0.376   1.333  0.1873  0.0809  0.7008
 2263TIP3    H128424   6.459   0.353   1.243  0.7366  1.2106  0.2709
 2263TIP3    H228425   6.570   0.408   1.330  0.4478 -0.4999  1.7677
 2264TIP3   OH228426   3.644   4.438   7.547 -0.2314  0.3182 -0.1408
 2264TIP3    H128427   3.612   4.410   7.461  0.0496 -0.7262  0.0830
 2264TIP3    H228428   3.723   4.490   7.527 -0.3953  0.4212 -0.5280
 2265TIP3   OH228429   1.263   4.308   0.523 -0.2610  0.0724  0.1190
 2265TIP3    H128430   1.341   4.356   0.552 -0.0147 -0.3294  0.1244
 2265TIP3    H228431   1.294   4.254   0.450 -0.4419 -0.3854  0.3761
 2266TIP3   OH228432   3.599   2.192   1.065 -0.3913  0.4332 -0.0447
 2266TIP3    H128433   3.679   2.160   1.107 -1.3717 -3.3224 -0.7043
 2266TIP3    H228434   3.618   2.188   0.971 -0.9672  0.7747 -0.1801
 2267TIP3   OH228435   1.557   2.149   2.495  0.6515  0.1228  0.0082
 2267TIP3    H128436   1.632   2.142   2.554  1.7725  0.3878 -1.3272
 2267TIP3    H228437   1.484   2.111   2.544  1.2739  1.3090  1.9555
 2268TIP3   OH228438   5.716   3.139   3.355 -0.8271  0.6982  0.5654
 2268TIP3    H128439   5.657   3.140   3.430 -1.1346  0.6261  0.3258
 2268TIP3    H228440   5.798   3.175   3.388 -0.7498  0.0407  1.1168
 2269TIP3   OH228441   4.268   1.233   1.745  0.0760  0.2574 -1.1015
 2269TIP3    H128442   4.328   1.269   1.679  0.9535 -0.5929 -0.7811
 2269TIP3    H228443   4.306   1.259   1.829 -0.2146  0.0413 -0.9024
 2270TIP3   OH228444   2.735   3.661   1.800 -0.2562  0.7514  0.3889
 2270TIP3    H128445   2.810   3.691   1.850  0.5454 -0.9489  0.2934
 2270TIP3    H228446   2.750   3.567   1.788 -2.8157  0.1490  1.1047
 2271TIP3   OH228447   3.659   2.166   0.784  0.6857 -0.4762 -0.4126
 2271TIP3    H128448   3.682   2.183   0.693 -0.5959 -1.0230 -0.8632
 2271TIP3    H228449   3.636   2.074   0.786 -0.1732 -0.2626  0.2553
 2272TIP3   OH228450   6.355   0.328   2.232  0.2584 -0.1938 -0.3801
 2272TIP3    H128451   6.381   0.271   2.160 -0.4259  0.2947 -1.0351
 2272TIP3    H228452   6.411   0.405   2.224 -1.0067  0.6626 -1.5233
 2273TIP3   OH228453   6.326   2.330   1.759  0.2580 -0.6635  0.1974
 2273TIP3    H128454   6.387   2.390   1.802  0.5247 -1.6282  1.1877
 2273TIP3    H228455   6.372   2.246   1.756 -0.5034 -1.0749 -0.2802
 2274TIP3   OH228456   3.217   2.288   2.990  0.0033 -0.0531  0.0645
 2274TIP3    H128457   3.259   2.331   3.064  0.3245 -0.8786  0.3738
 2274TIP3    H228458   3.137   2.338   2.975  1.0413  1.5106 -0.4940
 2275TIP3   OH228459   0.491   3.924   0.371  0.5291  0.4554 -0.2204
 2275TIP3    H128460   0.435   3.922   0.449  0.6093 -0.8629 -0.1685
 2275TIP3    H228461   0.578   3.947   0.405  0.0489  2.6158 -0.3145
 2276TIP3   OH228462   4.476   3.877   7.388 -0.3942 -0.1570 -0.6074
 2276TIP3    H128463   4.425   3.896   7.309 -1.7800 -0.4681  0.1799
 2276TIP3    H228464   4.430   3.924   7.458  1.8755  1.6814 -0.2318
 2277TIP3   OH228465   6.739   1.086   0.419 -0.0598 -0.2462 -0.2978
 2277TIP3    H128466   6.817   1.094   0.473  0.3519  0.1771 -0.9400
 2277TIP3    H228467   6.728   1.173   0.380 -0.5712 -0.4386 -0.5957
 2278TIP3   OH228468   6.796   0.705   7.713  0.7383  0.8170 -0.7365
 2278TIP3    H128469   6.743   0.644   7.662  2.1925 -1.2529  0.0937
 2278TIP3    H228470   6.732   0.759   7.760 -0.6444 -1.2867 -0.0939
 2279TIP3   OH228471   0.230   4.351   1.505  0.1059  0.0312  0.4598
 2279TIP3    H128472   0.215   4.335   1.598 -0.2062  0.2971  0.4543
 2279TIP3    H228473   0.270   4.438   1.501  1.4348 -0.5577  0.4545
 2280TIP3   OH228474   2.873   5.665   1.678 -0.6819  0.2701  0.1278
 2280TIP3    H128475   2.803   5.608   1.645 -0.4806  0.2227 -0.2238
 2280TIP3    H228476   2.913   5.615   1.749  0.4718 -0.6993 -1.1499
 2281TIP3   OH228477   2.064   0.944   2.052 -0.0080  0.5937  0.4006
 2281TIP3    H128478   2.072   0.849   2.041  1.0292  0.7886 -0.5923
 2281TIP3    H228479   2.028   0.954   2.141 -1.9826 -0.7684 -0.1686
 2282TIP3   OH228480   4.061   0.878   0.224 -0.3189 -0.2958  0.3014
 2282TIP3    H128481   4.000   0.877   0.297 -2.6955  1.3386 -1.5421
 2282TIP3    H228482   4.024   0.817   0.160  0.2007  0.3898 -0.6844
 2283TIP3   OH228483   4.838   0.668   0.960  1.3934 -0.5293  0.1238
 2283TIP3    H128484   4.847   0.577   0.932  1.0826 -0.9034  1.2212
 2283TIP3    H228485   4.744   0.686   0.954  1.0643 -1.1488  2.4575
 2284TIP3   OH228486   2.469   2.078   3.523  0.6633  0.1157  0.4552
 2284TIP3    H128487   2.553   2.067   3.479  0.1235 -1.0033 -0.3522
 2284TIP3    H228488   2.427   2.150   3.475  1.4843  1.2945  1.4312
 2285TIP3   OH228489   0.782   6.185   2.988 -0.3654  0.1039 -0.1968
 2285TIP3    H128490   0.876   6.192   3.007 -0.4569 -2.4023  1.6207
 2285TIP3    H228491   0.750   6.118   3.048 -3.2955  0.6578 -0.9837
 2286TIP3   OH228492   5.408   1.222   1.308  1.2709  0.5790  0.2131
 2286TIP3    H128493   5.362   1.306   1.313 -1.5905 -0.7097 -1.7797
 2286TIP3    H228494   5.428   1.212   1.215  0.6044 -1.3560  0.2369
 2287TIP3   OH228495   1.372   1.748   1.965  0.2254  0.4254  0.4463
 2287TIP3    H128496   1.395   1.793   1.884 -1.2917 -0.1495 -0.3558
 2287TIP3    H228497   1.359   1.817   2.029  0.6884  0.9335 -0.0011
 2288TIP3   OH228498   4.252   3.958   0.553 -0.1025  0.3006 -0.3219
 2288TIP3    H128499   4.192   4.031   0.540  0.0857  0.4631 -0.2681
 2288TIP3    H228500   4.214   3.887   0.501  0.1277  0.6609 -1.0022
 2289TIP3   OH228501   6.853   1.071   7.750  0.2619 -0.4094 -0.6198
 2289TIP3    H128502   6.943   1.078   7.717  0.8728 -1.5476  0.6886
 2289TIP3    H228503   6.836   0.977   7.754 -0.6909 -0.2296 -0.0820
 2290TIP3   OH228504   1.218   0.926   0.045 -0.0651  0.1059  0.4011
 2290TIP3    H128505   1.171   0.869  -0.016  1.0450  1.5511 -1.9291
 2290TIP3    H228506   1.197   1.015   0.017  0.9608  0.8197  1.7631
 2291TIP3   OH228507   0.585   2.457   2.716 -0.4319  0.0980  0.1059
 2291TIP3    H128508   0.559   2.537   2.671  0.1252 -0.5541 -1.4669
 2291TIP3    H228509   0.671   2.436   2.679 -1.4599 -2.3339 -1.0963
 2292TIP3   OH228510   6.552   4.826   0.895  0.4859  0.4624  0.4559
 2292TIP3    H128511   6.615   4.886   0.855 -0.9226  0.6442 -1.6619
 2292TIP3    H228512   6.489   4.884   0.939  0.9509  0.3542  1.2768
 2293TIP3   OH228513   1.687   4.820   3.016  0.2764 -0.2484 -0.2243
 2293TIP3    H128514   1.637   4.776   3.085  0.3470  0.2990  0.1817
 2293TIP3    H228515   1.716   4.902   3.056  2.9084 -1.2615  0.1264
 2294TIP3   OH228516   0.056   2.143   1.274 -0.2388  0.3549  0.3764
 2294TIP3    H128517   0.091   2.227   1.302 -1.0427  0.5230  0.9145
 2294TIP3    H228518   0.019   2.104   1.353  0.4575 -0.6824  0.2157
 2295TIP3   OH228519   1.385   4.105   1.509 -0.5735  0.4628 -0.4104
 2295TIP3    H128520   1.373   4.198   1.529  0.7839  0.2592  1.6866
 2295TIP3    H228521   1.312   4.061   1.552  0.8460  0.2906  2.0534
 2296TIP3   OH228522   6.518   4.086   1.863  0.2680  0.0593  0.4968
 2296TIP3    H128523   6.490   4.104   1.953  0.4278  2.7008  0.0929
 2296TIP3    H228524   6.481   4.000   1.843  0.5616 -0.7992  3.1877
 2297TIP3   OH228525   3.267   1.210   2.255  0.0081 -0.4030 -0.5970
 2297TIP3    H128526   3.238   1.301   2.265 -1.0320 -0.7151 -0.5706
 2297TIP3    H228527   3.360   1.216   2.235 -0.1140  0.6842 -0.9150
 2298TIP3   OH228528   2.869   5.488   1.906 -0.3022 -0.2029  0.4728
 2298TIP3    H128529   2.786   5.441   1.897 -0.9443  1.1749 -1.3314
 2298TIP3    H228530   2.867   5.523   1.995 -0.6984 -1.8605  1.1643
 2299TIP3   OH228531   2.795   5.165   2.931 -0.2988 -0.5090 -0.2216
 2299TIP3    H128532   2.764   5.233   2.991  1.0173  0.0687 -0.1583
 2299TIP3    H228533   2.721   5.105   2.923 -1.0648  0.2688  0.6971
 2300TIP3   OH228534   6.231   5.100   1.769 -0.2718 -0.0214  0.1545
 2300TIP3    H128535   6.302   5.079   1.829 -1.8526 -1.6198  1.5585
 2300TIP3    H228536   6.256   5.058   1.686  1.0999  0.7265  0.1700
 2301TIP3   OH228537   6.928   5.130   1.404 -0.2043 -0.7225 -0.5830
 2301TIP3    H128538   6.943   5.050   1.354 -0.3312  0.2226 -2.2187
 2301TIP3    H228539   6.841   5.160   1.377  0.3528  0.6169 -0.9907
 2302TIP3   OH228540   2.183   6.804   3.801  0.0321  0.0339  0.0704
 2302TIP3    H128541   2.245   6.842   3.739 -1.0165  1.8020  0.0420
 2302TIP3    H228542   2.112   6.868   3.807 -0.6548 -0.8160  1.9241
 2303TIP3   OH228543   6.535   6.374   0.972 -0.1720 -0.2879 -0.8099
 2303TIP3    H128544   6.586   6.444   1.013 -1.2689  0.1594 -0.1616
 2303TIP3    H228545   6.445   6.407   0.971 -0.2970 -0.5174 -3.1005
 2304TIP3   OH228546   4.135   6.060   0.974 -0.0686 -0.5524  0.1075
 2304TIP3    H128547   4.139   6.156   0.971  2.3424 -0.6196 -1.5010
 2304TIP3    H228548   4.061   6.037   0.917  0.0349  0.3385 -0.4036
 2305TIP3   OH228549   4.052   5.484   1.486 -0.4312  0.5669 -0.4577
 2305TIP3    H128550   4.146   5.496   1.493  0.3757 -4.5251  1.6548
 2305TIP3    H228551   4.015   5.535   1.558  0.3084  3.8401 -2.1879
 2306TIP3   OH228552   5.100   3.392   2.575 -0.0270  0.0246  0.2612
 2306TIP3    H128553   5.113   3.483   2.548 -2.7103  0.7665  1.1454
 2306TIP3    H228554   5.074   3.346   2.495  1.6529 -0.1074 -0.2543
 2307TIP3   OH228555   3.617   3.478   1.934 -0.5459  0.4215 -0.3555
 2307TIP3    H128556   3.546   3.439   1.985 -1.1862 -2.6164 -3.2075
 2307TIP3    H228557   3.693   3.474   1.993 -1.8884  0.2304  1.4649
 2308TIP3   OH228558   6.422   0.266   1.064 -0.3921  0.2731  0.4568
 2308TIP3    H128559   6.401   0.313   0.983 -1.9602 -0.1571  0.5741
 2308TIP3    H228560   6.517   0.264   1.066 -0.2721 -0.7892 -2.0364
 2309TIP3   OH228561   6.194   3.309   2.850  0.2945 -0.4435  0.1941
 2309TIP3    H128562   6.139   3.298   2.772  0.1724  2.2363 -0.1861
 2309TIP3    H228563   6.283   3.314   2.816  0.4388 -1.2025  0.4448
 2310TIP3   OH228564   2.015   4.980   0.480 -0.0241  0.3462  0.3357
 2310TIP3    H128565   1.960   4.956   0.406 -1.5325 -0.5281  1.6712
 2310TIP3    H228566   2.084   5.035   0.443 -1.2005  0.6081 -1.5653
 2311TIP3   OH228567   6.996   7.025   2.915  0.1497  0.5522 -0.5265
 2311TIP3    H128568   7.077   7.031   2.865 -0.2271  0.1082 -1.2018
 2311TIP3    H228569   6.936   7.085   2.870 -0.1328  0.2883 -0.5068
 2312TIP3   OH228570   6.933   1.696   0.235  0.4937 -0.2227  0.2009
 2312TIP3    H128571   6.998   1.697   0.165 -0.0294 -0.3957 -0.2911
 2312TIP3    H228572   6.965   1.631   0.297  0.9763 -0.0469  0.1346
 2313TIP3   OH228573   0.566   2.449   3.079  0.4239  0.0966  0.6497
 2313TIP3    H128574   0.620   2.480   3.007  1.3019  1.3150  1.8087
 2313TIP3    H228575   0.477   2.476   3.056  0.6303  0.1058 -0.1539
 2314TIP3   OH228576   0.960   3.890   0.563 -0.4150  0.4668  0.1305
 2314TIP3    H128577   1.037   3.843   0.532  0.5218  1.0599  1.4945
 2314TIP3    H228578   0.921   3.927   0.483  1.2590  0.9958 -0.4829
 2315TIP3   OH228579   6.560   4.383   7.922  0.0580 -0.0168  0.5396
 2315TIP3    H128580   6.473   4.364   7.956 -0.0215 -0.8175 -0.0663
 2315TIP3    H228581   6.588   4.301   7.880  0.0407  0.9665 -1.5088
 2316TIP3   OH228582   0.815   1.560   1.116 -0.1328  0.5573  0.3241
 2316TIP3    H128583   0.794   1.608   1.196 -3.2833  0.0600 -0.0702
 2316TIP3    H228584   0.840   1.628   1.053  0.7436  1.1051  1.2348
 2317TIP3   OH228585   5.616   1.211   1.630  0.1901 -0.1079  0.2177
 2317TIP3    H128586   5.585   1.152   1.562 -0.8351  0.4159  0.2176
 2317TIP3    H228587   5.710   1.194   1.635  0.2673 -0.2573 -1.2378
 2318TIP3   OH228588   1.402   3.451   2.578  0.2993  0.4259  0.2658
 2318TIP3    H128589   1.355   3.432   2.497  2.0521  1.2282 -1.0292
 2318TIP3    H228590   1.346   3.513   2.624 -0.5682  0.2529 -0.5263
 2319TIP3   OH228591   4.729   6.905   1.073 -0.2667  0.3604  0.0215
 2319TIP3    H128592   4.662   6.965   1.041  1.4820  0.6150 -3.6090
 2319TIP3    H228593   4.691   6.818   1.060  0.0516  0.4916 -2.2609
 2320TIP3   OH228594   2.645   5.061   1.441 -0.0509 -0.1359 -0.2948
 2320TIP3    H128595   2.654   5.147   1.399  2.3672 -0.0484  0.2659
 2320TIP3    H228596   2.552   5.055   1.464 -0.4409  1.9380 -1.1261
 2321TIP3   OH228597   0.233   3.152   8.048 -0.4422 -0.5364 -0.2064
 2321TIP3    H128598   0.197   3.091   8.112  0.2059 -0.8455 -0.1272
 2321TIP3    H228599   0.328   3.145   8.059 -0.3605  0.7473  0.0393
 2322TIP3   OH228600   3.877   4.341   2.469 -0.1467  0.0528 -0.2558
 2322TIP3    H128601   3.856   4.255   2.432 -0.8135 -1.1087  2.5965
 2322TIP3    H228602   3.971   4.336   2.488 -0.6163 -1.0735  2.1403
 2323TIP3   OH228603   4.602   5.879   0.445 -0.0818 -0.1394  0.3893
 2323TIP3    H128604   4.625   5.787   0.457 -1.7120 -1.0169 -2.2782
 2323TIP3    H228605   4.540   5.898   0.515 -0.6866 -1.4731  0.2441
 2324TIP3   OH228606   1.833   4.574   2.058 -0.3368 -0.3145  0.5654
 2324TIP3    H128607   1.895   4.502   2.072 -0.4798 -0.4868  0.3222
 2324TIP3    H228608   1.757   4.532   2.017 -0.1604  0.0826 -0.1800
 2325TIP3   OH228609   3.212   6.905   8.035  0.4130 -0.5770 -0.1247
 2325TIP3    H128610   3.139   6.859   7.994  1.5949 -3.4471  0.7933
 2325TIP3    H228611   3.290   6.862   8.001  1.6115  0.5487  1.0706
 2326TIP3   OH228612   4.465   0.523   0.912  0.3150  0.3665 -0.0728
 2326TIP3    H128613   4.498   0.459   0.975  0.6014  2.0312  1.5478
 2326TIP3    H228614   4.430   0.470   0.840 -0.6916 -1.6699  1.7982
 2327TIP3   OH228615   3.701   4.998   1.159  0.1059 -0.0411  0.7266
 2327TIP3    H128616   3.788   5.032   1.139 -0.8993  1.7582 -1.0284
 2327TIP3    H228617   3.657   5.072   1.202 -1.2499 -0.0580 -0.5510
 2328TIP3   OH228618   3.430   5.862   3.730 -0.3027  0.2338 -0.5716
 2328TIP3    H128619   3.505   5.841   3.674  1.2182  1.5203  0.8816
 2328TIP3    H228620   3.367   5.792   3.713  1.1396 -0.7965 -1.9702
 2329TIP3   OH228621   0.857   2.036   0.051 -0.7734 -0.4960  0.6553
 2329TIP3    H128622   0.778   2.073   0.012 -0.2006  0.6719  0.5624
 2329TIP3    H228623   0.836   2.028   0.144 -0.8043  0.4128  0.7415
 2330TIP3   OH228624   4.123   2.476   7.795 -0.0101 -0.5076  0.2125
 2330TIP3    H128625   4.119   2.571   7.791  0.9331 -0.4429  0.7192
 2330TIP3    H228626   4.130   2.449   7.703 -0.9051 -0.1347  0.0199
 2331TIP3   OH228627   0.234   4.598   2.147 -0.0512  0.2008  0.4210
 2331TIP3    H128628   0.144   4.568   2.156 -0.6301  2.3697  3.9898
 2331TIP3    H228629   0.226   4.687   2.113  0.7742  0.1985  0.2009
 2332TIP3   OH228630   3.138   6.068   2.080 -0.0157  0.0818 -0.0372
 2332TIP3    H128631   3.167   6.045   2.168 -0.7327 -1.2023 -0.1020
 2332TIP3    H228632   3.138   6.163   2.078  1.7562  0.1298  0.7559
 2333TIP3   OH228633   1.344   2.839   1.379  0.3058  0.3569 -0.2958
 2333TIP3    H128634   1.353   2.806   1.469 -0.9260  2.6243  0.7306
 2333TIP3    H228635   1.420   2.803   1.333  1.1201 -0.6561  1.7142
 2334TIP3   OH228636   2.975   5.099   2.735 -0.2253 -0.5844  0.4919
 2334TIP3    H128637   2.899   5.141   2.776  0.0312  0.5335 -0.1321
 2334TIP3    H228638   3.048   5.122   2.792 -0.0266  0.1508 -0.0399
 2335TIP3   OH228639   6.800   5.528   2.672  0.5921 -0.8842  0.9634
 2335TIP3    H128640   6.781   5.460   2.607  0.3400  0.7768 -0.8248
 2335TIP3    H228641   6.895   5.533   2.675  0.6276 -1.8563  1.7341
 2336TIP3   OH228642   6.449   0.887   2.389  0.1585 -0.2948 -0.1827
 2336TIP3    H128643   6.426   0.860   2.478  0.3144  0.1615 -0.0023
 2336TIP3    H228644   6.542   0.907   2.393  0.9349 -3.1597 -1.1494
 2337TIP3   OH228645   0.354   0.433   2.745  0.1382 -0.1910  0.2777
 2337TIP3    H128646   0.423   0.374   2.715  1.8910  1.5004  0.7702
 2337TIP3    H228647   0.363   0.510   2.689 -1.1382  0.2218  0.6061
 2338TIP3   OH228648   5.852   5.484   8.014 -0.0239  0.0320  0.7941
 2338TIP3    H128649   5.841   5.466   7.921 -1.5670 -0.8551  1.1096
 2338TIP3    H228650   5.946   5.499   8.025  0.4308 -1.5204 -0.6312
 2339TIP3   OH228651   3.015   6.113   0.710  0.4705  0.3582  0.0498
 2339TIP3    H128652   3.056   6.147   0.789  0.1561  0.8441  0.0081
 2339TIP3    H228653   3.054   6.026   0.698  0.0671  0.0194  1.0868
 2340TIP3   OH228654   5.545   6.029   2.340  0.3650 -0.3710 -0.0261
 2340TIP3    H128655   5.542   5.986   2.425  1.7286  0.8098  0.6593
 2340TIP3    H228656   5.567   6.120   2.360 -3.9250  1.1687 -1.2670
 2341TIP3   OH228657   4.563   5.060   1.985 -0.5854 -0.2015  0.2505
 2341TIP3    H128658   4.538   5.086   1.896 -1.1496 -2.5741 -0.3757
 2341TIP3    H228659   4.480   5.055   2.033 -0.2655  1.2624  1.0184
 2342TIP3   OH228660   6.623   3.001   2.741  0.1786  0.2060  0.3264
 2342TIP3    H128661   6.700   2.986   2.797  0.7189  0.1139 -0.4285
 2342TIP3    H228662   6.550   3.005   2.802  0.7650  0.1518  1.0502
 2343TIP3   OH228663   3.284   2.714   0.998  0.0486  0.0568  0.1926
 2343TIP3    H128664   3.308   2.673   0.915 -0.2464  1.2868 -0.5253
 2343TIP3    H228665   3.246   2.798   0.973 -0.5308  0.2222  1.5556
 2344TIP3   OH228666   3.423   5.419   2.782 -0.3158 -0.1656 -0.2409
 2344TIP3    H128667   3.447   5.346   2.840  2.3699  2.0843  1.7815
 2344TIP3    H228668   3.496   5.424   2.719  1.1953  2.4199  1.5066
 2345TIP3   OH228669   3.082   0.832   0.895 -0.0797 -0.0272  0.2280
 2345TIP3    H128670   2.990   0.828   0.921  0.0554  0.3338  0.7878
 2345TIP3    H228671   3.096   0.754   0.841 -0.5831 -0.3527  0.5650
 2346TIP3   OH228672   4.291   2.806   2.556  0.2425 -0.2216  0.1212
 2346TIP3    H128673   4.312   2.810   2.649  1.0280 -0.5052 -0.0314
 2346TIP3    H228674   4.290   2.897   2.527  1.0958 -0.1852  0.1829
 2347TIP3   OH228675   6.661   3.842   3.910  0.1532 -1.0611  0.2121
 2347TIP3    H128676   6.615   3.925   3.900 -1.5738 -1.7007  2.0802
 2347TIP3    H228677   6.750   3.867   3.934 -0.1496  0.2478  0.0617
 2348TIP3   OH228678   2.184   5.268   2.795  0.7140  0.2211  0.3665
 2348TIP3    H128679   2.251   5.202   2.811  1.6678  0.9437 -0.5802
 2348TIP3    H228680   2.111   5.241   2.851  0.1215 -3.0157 -1.6983
 2349TIP3   OH228681   3.805   4.869   1.976  0.6271  0.5651  0.4222
 2349TIP3    H128682   3.795   4.807   1.903 -0.0848  0.6756  0.4140
 2349TIP3    H228683   3.897   4.862   2.002  0.3318 -1.2738  1.1001
 2350TIP3   OH228684   3.414   4.611   7.914 -0.3251 -0.0368  0.3473
 2350TIP3    H128685   3.356   4.649   7.849  2.7388  1.5967 -1.6727
 2350TIP3    H228686   3.468   4.684   7.944 -0.4453 -1.0889  3.5289
 2351TIP3   OH228687   0.267   6.512   1.011  0.2465 -0.5442  0.2223
 2351TIP3    H128688   0.317   6.485   0.934  0.3392 -0.4276  0.2420
 2351TIP3    H228689   0.330   6.512   1.083  0.2333 -0.3386  0.2347
 2352TIP3   OH228690   3.740   5.269   1.532 -0.8696  0.3254 -0.7725
 2352TIP3    H128691   3.678   5.196   1.532 -0.3573 -0.1166 -1.1853
 2352TIP3    H228692   3.688   5.345   1.558 -1.6367  0.0037 -1.3409
 2353TIP3   OH228693   3.781   6.975   2.619 -0.1040 -0.2631  0.1364
 2353TIP3    H128694   3.731   6.998   2.541 -1.4989 -0.2920  0.9893
 2353TIP3    H228695   3.849   7.043   2.625 -2.6519  2.3970  1.2608
 2354TIP3   OH228696   3.973   0.018   2.335  0.1157  0.1761  0.6569
 2354TIP3    H128697   4.021   0.016   2.418 -0.0420 -1.0365  0.7318
 2354TIP3    H228698   3.912   0.091   2.345 -0.4993 -0.4803  1.9743
 2355TIP3   OH228699   5.112   4.333   1.389  0.6827 -0.4794 -0.0333
 2355TIP3    H128700   5.059   4.273   1.442  1.2540  0.1322  1.2985
 2355TIP3    H228701   5.123   4.288   1.305 -2.2734 -0.4426 -0.5501
 2356TIP3   OH228702   5.933   6.547   2.526 -0.6811  0.0899 -0.4311
 2356TIP3    H128703   5.903   6.616   2.467  0.8519  0.4435 -0.8206
 2356TIP3    H228704   5.887   6.566   2.608  1.0994  2.7940  0.0904
 2357TIP3   OH228705   2.241   6.130   1.357  0.6865 -0.1207 -0.6922
 2357TIP3    H128706   2.180   6.073   1.403  1.0212 -0.1872 -0.3223
 2357TIP3    H228707   2.199   6.148   1.273 -0.5470  1.0930  0.1369
 2358TIP3   OH228708   3.687   5.793   3.475  0.2073  0.3871 -0.4043
 2358TIP3    H128709   3.618   5.732   3.446 -0.6439  0.1753  1.8817
 2358TIP3    H228710   3.714   5.760   3.560  1.5659  1.7842 -0.2577
 2359TIP3   OH228711   6.063   3.078   8.044 -0.1284  0.4278  0.8599
 2359TIP3    H128712   5.974   3.061   8.014 -0.0474 -1.4538  1.5273
 2359TIP3    H228713   6.100   3.136   7.978 -2.0539  1.8831  0.9682
 2360TIP3   OH228714   6.276   2.012   1.549 -0.1668 -0.3794 -0.1064
 2360TIP3    H128715   6.181   1.998   1.542 -0.4994  1.3306  0.5377
 2360TIP3    H228716   6.314   1.944   1.494 -1.8062 -0.4637 -1.2029
 2361TIP3   OH228717   6.938   3.672   7.681 -0.4937 -0.1659  0.0437
 2361TIP3    H128718   6.923   3.578   7.670  1.3177 -0.3164 -1.9726
 2361TIP3    H228719   7.020   3.677   7.730 -1.2915  0.4094  1.3473
 2362TIP3   OH228720   1.511   4.746   1.028  0.4157  0.3299  0.0303
 2362TIP3    H128721   1.558   4.822   1.063  1.4008  0.0927 -0.7128
 2362TIP3    H228722   1.547   4.735   0.940 -0.4379 -0.3986 -0.2398
 2363TIP3   OH228723   2.930   6.468   0.440 -0.1588  0.6422  0.5104
 2363TIP3    H128724   2.977   6.387   0.421 -2.9075 -1.1184  0.7476
 2363TIP3    H228725   2.937   6.478   0.535 -3.1487 -1.6982  1.1336
 2364TIP3   OH228726   3.981   0.914   2.836 -0.2317  0.1967  0.4587
 2364TIP3    H128727   4.026   0.866   2.906 -1.2307  0.3211  1.2062
 2364TIP3    H228728   3.998   1.006   2.856 -1.6990  0.2949  1.3882
 2365TIP3   OH228729   3.672   4.747   1.284  0.0504 -0.1370 -0.1113
 2365TIP3    H128730   3.669   4.838   1.256 -1.6491 -0.7806 -2.3255
 2365TIP3    H228731   3.616   4.743   1.361  1.0256  0.8356  0.6834
 2366TIP3   OH228732   1.893   5.458   0.592  0.5223  0.3128  0.5952
 2366TIP3    H128733   1.872   5.433   0.502 -0.9452 -2.0437  1.4949
 2366TIP3    H228734   1.925   5.548   0.585 -2.0598  1.1927 -1.9814
 2367TIP3   OH228735   4.790   2.911   8.259  0.1654  0.3061 -0.0904
 2367TIP3    H128736   4.802   2.961   8.178 -0.1244  0.2267 -0.1849
 2367TIP3    H228737   4.866   2.933   8.312  0.8850 -0.4246 -0.7886
 2368TIP3   OH228738   6.134   6.711   0.425  0.3290 -0.8264 -0.1329
 2368TIP3    H128739   6.139   6.656   0.503  0.4303  0.3746  0.7423
 2368TIP3    H228740   6.224   6.715   0.393  0.3817 -0.9132  0.0001
 2369TIP3   OH228741   4.728   3.984   2.576  0.1816  0.2198 -0.4210
 2369TIP3    H128742   4.635   3.981   2.556 -0.1229  1.6616  0.6460
 2369TIP3    H228743   4.753   3.892   2.587 -0.9168 -0.2328 -1.4453
 2370TIP3   OH228744   2.888   6.474   1.596  0.2310 -0.7678 -0.4362
 2370TIP3    H128745   2.978   6.491   1.570  0.1776 -0.1481 -0.2471
 2370TIP3    H228746   2.862   6.398   1.545  1.0937 -1.3943  0.0385
 2371TIP3   OH228747   5.206   1.510   7.590 -0.1927 -0.2188  0.3600
 2371TIP3    H128748   5.119   1.474   7.573 -0.7197  1.1511  0.0915
 2371TIP3    H228749   5.224   1.487   7.681 -1.3356  0.4774  0.7804
 2372TIP3   OH228750   6.864   5.784   7.445 -0.0701 -0.4044  0.1624
 2372TIP3    H128751   6.937   5.810   7.388 -2.2323 -1.5609 -3.4476
 2372TIP3    H228752   6.891   5.700   7.482  1.9264  0.9850  2.1493
 2373TIP3   OH228753   0.134   5.424   8.121  0.0190 -0.1617  0.2696
 2373TIP3    H128754   0.195   5.498   8.117 -0.4737  0.1892 -1.8371
 2373TIP3    H228755   0.139   5.384   8.034 -1.0174 -1.5543  0.8172
 2374TIP3   OH228756   1.273   0.388   7.964 -0.0309 -0.0620 -0.3758
 2374TIP3    H128757   1.211   0.440   7.913 -1.2996 -0.3455  0.8002
 2374TIP3    H228758   1.359   0.427   7.945 -0.6320  0.7657 -1.5343
 2375TIP3   OH228759   4.767   2.946   7.960  0.4324  0.1408 -0.2341
 2375TIP3    H128760   4.848   2.897   7.947  1.2351 -0.2195  4.3867
 2375TIP3    H228761   4.698   2.879   7.958  0.7284 -0.1690 -0.1939
 2376TIP3   OH228762   0.647   4.677   1.424  0.3534 -0.2545 -0.2931
 2376TIP3    H128763   0.696   4.603   1.388 -0.6946 -1.1726  0.0907
 2376TIP3    H228764   0.713   4.736   1.459  1.2769 -0.4020 -1.7426
 2377TIP3   OH228765   2.182   1.518   1.972 -0.1658  0.1835  0.4222
 2377TIP3    H128766   2.271   1.503   2.005 -0.2844 -0.1714  0.5922
 2377TIP3    H228767   2.137   1.434   1.987 -0.0941 -0.1466 -1.0749
 2378TIP3   OH228768   5.727   4.741   8.242  0.0889  0.1735  0.2521
 2378TIP3    H128769   5.694   4.749   8.153 -0.7186 -0.7962  0.4496
 2378TIP3    H228770   5.778   4.821   8.256  0.0809  0.4175 -1.0076
 2379TIP3   OH228771   0.821   2.297   1.041 -0.7039 -0.4958  0.4860
 2379TIP3    H128772   0.743   2.291   1.096 -2.1738 -1.0289 -1.5556
 2379TIP3    H228773   0.829   2.211   1.001 -0.0447  0.0658 -0.6352
 2380TIP3   OH228774   3.109   3.590   0.066  0.3861 -0.2245 -0.0221
 2380TIP3    H128775   3.074   3.501   0.065 -0.5114  0.1146  0.2670
 2380TIP3    H228776   3.076   3.628   0.148 -1.4867  1.2201 -1.3550
 2381TIP3   OH228777   1.360   5.909   1.496 -0.4953 -0.6524  0.1040
 2381TIP3    H128778   1.276   5.889   1.455 -0.5616 -0.1597 -0.0129
 2381TIP3    H228779   1.338   5.934   1.586 -0.4730 -0.5582  0.0839
 2382TIP3   OH228780   6.593   6.786   2.049 -0.2050 -0.0752  0.4279
 2382TIP3    H128781   6.505   6.785   2.087  0.4677  1.5192  2.2378
 2382TIP3    H228782   6.651   6.771   2.124  1.0963 -0.7839 -0.6805
 2383TIP3   OH228783   2.550   4.308   1.057 -0.6038  0.5545  0.3019
 2383TIP3    H128784   2.547   4.384   1.115 -0.7680  0.5322  0.3225
 2383TIP3    H228785   2.593   4.340   0.978 -0.2072  0.5382  0.5068
 2384TIP3   OH228786   5.614   4.363   2.600 -0.3311  0.3125  0.0127
 2384TIP3    H128787   5.667   4.340   2.524 -1.0023  0.7176 -0.5866
 2384TIP3    H228788   5.573   4.280   2.626 -0.9219  0.3697 -0.7146
 2385TIP3   OH228789   1.226   1.224   0.465  0.4225 -0.3388 -0.1982
 2385TIP3    H128790   1.278   1.144   0.472  0.0656 -0.6204 -0.6615
 2385TIP3    H228791   1.150   1.210   0.521 -0.5480 -1.0758 -1.6233
 2386TIP3   OH228792   1.539   1.412   2.696  0.4443  0.1850 -0.0007
 2386TIP3    H128793   1.471   1.453   2.643  0.3673 -0.4845 -0.4347
 2386TIP3    H228794   1.497   1.334   2.732  0.3667  0.8428  1.3962
 2387TIP3   OH228795   6.173   6.588   2.306  0.2155 -0.0296  0.4330
 2387TIP3    H128796   6.226   6.633   2.240  0.1601 -0.7655 -0.1271
 2387TIP3    H228797   6.190   6.635   2.387  0.7246  0.5385  0.0012
 2388TIP3   OH228798   3.364   4.208   7.376  0.8830 -0.0425  0.0445
 2388TIP3    H128799   3.290   4.210   7.316  1.3422 -0.2289 -0.5334
 2388TIP3    H228800   3.398   4.298   7.376  1.0432 -0.1032 -0.1759
 2389TIP3   OH228801   0.918   0.078   8.172  0.2521  0.1854  0.1994
 2389TIP3    H128802   1.002   0.041   8.145  0.0913 -1.4351  1.7000
 2389TIP3    H228803   0.939   0.166   8.204  1.3087 -0.0396  0.1558
 2390TIP3   OH228804   3.869   1.067   1.128  0.0967 -0.2806 -0.5564
 2390TIP3    H128805   3.785   1.022   1.134 -0.7925  1.2451 -1.0031
 2390TIP3    H228806   3.934   1.000   1.150 -1.2556 -1.3661  0.2714
 2391TIP3   OH228807   4.943   2.434   0.449  0.1315  0.3604 -0.9315
 2391TIP3    H128808   5.017   2.381   0.477 -0.5003 -0.4949 -0.8474
 2391TIP3    H228809   4.882   2.432   0.523 -0.5588 -0.0499 -1.4957
 2392TIP3   OH228810   3.685   2.201   1.372 -0.5890  0.3961 -0.3342
 2392TIP3    H128811   3.637   2.273   1.413 -1.7275  0.7485 -2.1775
 2392TIP3    H228812   3.629   2.125   1.385 -0.0108  0.1004  0.4658
 2393TIP3   OH228813   4.264   4.205   0.761 -0.3493 -0.3123  0.0064
 2393TIP3    H128814   4.279   4.187   0.853 -0.2432 -0.1277  0.0269
 2393TIP3    H228815   4.300   4.129   0.715  2.5393  0.9639 -0.0625
 2394TIP3   OH228816   4.417   2.143   7.275 -0.4271 -0.0439  0.2810
 2394TIP3    H128817   4.343   2.122   7.218 -0.0924 -0.2952 -0.0621
 2394TIP3    H228818   4.380   2.140   7.364 -0.7295 -0.6071  0.1433
 2395TIP3   OH228819   4.793   3.074   1.203  0.3103 -0.3858 -0.2095
 2395TIP3    H128820   4.870   3.039   1.158  0.5349  1.0522 -0.9958
 2395TIP3    H228821   4.828   3.129   1.272 -0.0440 -1.3148  0.7444
 2396TIP3   OH228822   5.971   5.470   7.331 -0.4893 -0.0278  0.2443
 2396TIP3    H128823   5.987   5.497   7.422  1.1820  1.1474 -0.3486
 2396TIP3    H228824   6.056   5.438   7.300 -0.6465  0.9881 -1.3514
 2397TIP3   OH228825   3.708   5.887   7.393 -0.5675 -0.3097  0.0949
 2397TIP3    H128826   3.684   5.913   7.482 -0.3181  0.9630 -0.1950
 2397TIP3    H228827   3.630   5.907   7.341 -0.7937 -1.2594  0.0475
 2398TIP3   OH228828   4.519   3.998   0.899  0.5597  0.2677 -0.6901
 2398TIP3    H128829   4.446   3.976   0.957  0.3851 -0.8248 -1.2896
 2398TIP3    H228830   4.586   4.035   0.957 -0.3009  0.9035 -0.0750
 2399TIP3   OH228831   5.844   4.696   7.466 -0.1958  0.2705 -0.2411
 2399TIP3    H128832   5.754   4.669   7.485 -0.5464  2.1937  1.2001
 2399TIP3    H228833   5.853   4.780   7.511  2.3432  0.1171 -0.3416
 2400TIP3   OH228834   0.268   5.493   7.815  0.3878  0.2370  0.1417
 2400TIP3    H128835   0.263   5.535   7.729  0.1311  0.1826  0.1283
 2400TIP3    H228836   0.202   5.424   7.812 -0.5486  1.0655  0.8273
 2401TIP3   OH228837   2.180   5.903   2.009 -0.3153  0.1303  0.4120
 2401TIP3    H128838   2.086   5.914   2.021 -0.5685 -2.9525  2.1474
 2401TIP3    H228839   2.193   5.906   1.914 -2.4750 -1.3626  0.0174
 2402TIP3   OH228840   4.011   0.845   3.293  0.0289  0.5733 -0.2084
 2402TIP3    H128841   3.944   0.836   3.360  0.2281 -1.7007 -0.2515
 2402TIP3    H228842   4.088   0.877   3.341  0.0338 -0.5759  0.5910
 2403TIP3   OH228843   3.435   3.924   1.272  1.2527  0.0322 -0.1222
 2403TIP3    H128844   3.509   3.947   1.216  0.5169  0.2130 -1.0602
 2403TIP3    H228845   3.359   3.960   1.226  0.5927 -0.0909  0.8549
 2404TIP3   OH228846   1.926   6.890   7.751 -0.6713  0.4616  0.3382
 2404TIP3    H128847   1.920   6.972   7.701 -0.5597  0.8648  0.9795
 2404TIP3    H228848   1.956   6.917   7.838  2.2012 -0.5391 -0.2323
 2405TIP3   OH228849   3.143   2.435   7.989 -0.0164  0.1339  0.0713
 2405TIP3    H128850   3.158   2.349   8.029 -0.0921  0.7684  1.5227
 2405TIP3    H228851   3.106   2.488   8.059 -1.7497  0.8459 -1.3116
 2406TIP3   OH228852   3.628   2.286   8.064 -0.3787 -0.0869  0.2541
 2406TIP3    H128853   3.552   2.318   8.112  0.9326  0.5103  2.0708
 2406TIP3    H228854   3.600   2.284   7.973 -1.8604  2.3026  0.5726
 2407TIP3   OH228855   0.492   0.277   7.854  0.7203 -0.1573 -0.2798
 2407TIP3    H128856   0.575   0.280   7.807  1.2852  0.9855  0.7303
 2407TIP3    H228857   0.433   0.332   7.803  1.3232  1.0673  0.2978
 2408TIP3   OH228858   0.104   3.803   2.596 -0.3074  0.6603  0.4090
 2408TIP3    H128859   0.109   3.846   2.511  0.8339 -1.2706 -0.5632
 2408TIP3    H228860   0.017   3.763   2.598 -0.2052  0.4200  0.0067
 2409TIP3   OH228861   3.836   0.954   7.811  0.0901 -0.3622 -0.0586
 2409TIP3    H128862   3.802   1.040   7.835  2.0572  0.4340  0.0197
 2409TIP3    H228863   3.869   0.964   7.722  1.1170 -0.7732  0.2544
 2410TIP3   OH228864   6.823   1.252   3.075 -0.2479  0.1360 -0.0218
 2410TIP3    H128865   6.792   1.287   3.158 -0.3086  0.8410 -0.3282
 2410TIP3    H228866   6.745   1.215   3.034 -0.0436 -1.0463  0.6271
 2411TIP3   OH228867   1.449   1.824   2.628 -0.0807 -0.4718  0.2766
 2411TIP3    H128868   1.354   1.838   2.630 -0.0855 -0.5785  1.2909
 2411TIP3    H228869   1.472   1.803   2.719  0.7041 -1.9115 -0.2366
 2412TIP3   OH228870   1.750   2.850   8.026 -0.0223 -0.3535 -0.0376
 2412TIP3    H128871   1.739   2.909   8.100 -1.7912 -1.3847  0.5923
 2412TIP3    H228872   1.689   2.882   7.960 -0.5528 -1.1051  0.0772
 2413TIP3   OH228873   2.492   3.573   8.150  0.0418  1.0406  0.5178
 2413TIP3    H128874   2.508   3.648   8.207  2.7104 -1.1460  2.9736
 2413TIP3    H228875   2.573   3.563   8.100  0.0475 -0.5602  0.7707
 2414TIP3   OH228876   0.758   5.083   2.025  0.2868 -0.1458 -0.1865
 2414TIP3    H128877   0.761   5.099   1.931  0.1332 -1.8529 -0.5119
 2414TIP3    H228878   0.823   5.014   2.039 -0.8697 -1.0914  0.6910
 2415TIP3   OH228879   5.707   4.871   7.971 -0.1130 -0.4116  0.6979
 2415TIP3    H128880   5.799   4.893   7.990  0.0625  0.5365 -1.0318
 2415TIP3    H228881   5.711   4.820   7.890 -1.2634  2.6973 -1.5050
 2416TIP3   OH228882   0.073   5.021   2.488 -0.7218  0.5249  0.0776
 2416TIP3    H128883   0.054   4.951   2.550 -0.7709  1.1722  0.8063
 2416TIP3    H228884   0.130   4.981   2.423  1.0464  0.3450  1.6735
 2417TIP3   OH228885   0.547   2.874   7.801 -0.1651 -0.8174  0.1260
 2417TIP3    H128886   0.565   2.966   7.782  0.9240 -1.0144  0.0971
 2417TIP3    H228887   0.619   2.827   7.759 -0.4843 -1.6505  0.4901
 2418TIP3   OH228888   5.886   5.930   1.347  0.9381  0.2732 -0.0578
 2418TIP3    H128889   5.978   5.908   1.360  1.3039  2.1813  1.0643
 2418TIP3    H228890   5.854   5.950   1.435 -1.2189 -2.5587 -0.0898
 2419TIP3   OH228891   2.730   5.846   7.372 -0.1416  0.3152 -0.1104
 2419TIP3    H128892   2.658   5.909   7.380 -0.2337  0.1934  0.0345
 2419TIP3    H228893   2.783   5.879   7.300  0.3422  1.0946  0.5762
 2420TIP3   OH228894   4.934   0.322   0.604  0.2026  0.0502  0.7824
 2420TIP3    H128895   5.028   0.340   0.612  0.0795  1.1893 -0.0837
 2420TIP3    H228896   4.929   0.241   0.554  0.7310  0.1286  0.5971
 2421TIP3   OH228897   0.508   6.052   2.803 -0.1180 -0.5580 -0.6551
 2421TIP3    H128898   0.533   5.965   2.834  0.0555 -0.2620  0.0484
 2421TIP3    H228899   0.421   6.040   2.765 -0.9988 -0.6546  1.2859
 2422TIP3   OH228900   4.634   3.514   8.048 -0.0737  0.4018 -0.6679
 2422TIP3    H128901   4.579   3.576   8.097 -0.3687  1.0952 -1.8437
 2422TIP3    H228902   4.707   3.567   8.016  1.1925 -0.4572  0.6574
 2423TIP3   OH228903   6.674   1.043   2.202 -0.2510 -0.3502 -0.2742
 2423TIP3    H128904   6.745   1.043   2.139 -0.4214 -1.6464 -0.4821
 2423TIP3    H228905   6.711   1.001   2.280 -0.6828 -0.7151 -0.2642
 2424TIP3   OH228906   4.882   0.553   2.318  0.3027  0.1880 -0.0722
 2424TIP3    H128907   4.878   0.460   2.341 -0.6524  0.3512  0.4809
 2424TIP3    H228908   4.966   0.583   2.354  0.1326 -0.2274  0.6977
 2425TIP3   OH228909   4.395   2.606   0.816  0.5511  0.2694  0.0645
 2425TIP3    H128910   4.426   2.664   0.746  0.4657  0.8516  0.5028
 2425TIP3    H228911   4.372   2.665   0.888 -1.1884 -0.1576 -0.0940
 2426TIP3   OH228912   6.197   3.821   7.402 -0.3390  0.4307 -0.1312
 2426TIP3    H128913   6.145   3.742   7.393  0.6272 -0.4473  1.6013
 2426TIP3    H228914   6.277   3.793   7.447  0.6756  2.1308 -0.7499
 2427TIP3   OH228915   0.690   3.379   1.558 -0.6261 -0.2034 -0.5361
 2427TIP3    H128916   0.609   3.351   1.515 -0.1288  0.9534 -2.3374
 2427TIP3    H228917   0.748   3.303   1.551 -1.1123 -0.5944 -0.3970
 2428TIP3   OH228918   6.876   3.904   0.364  0.0481  0.4379  0.3519
 2428TIP3    H128919   6.844   3.837   0.425 -0.1898 -0.7411 -1.0043
 2428TIP3    H228920   6.821   3.893   0.286  0.0819  2.1599  0.0506
 2429TIP3   OH228921   5.227   2.815   2.845  0.7056 -0.3374 -0.0796
 2429TIP3    H128922   5.212   2.774   2.760 -0.7104 -2.4775  1.1018
 2429TIP3    H228923   5.262   2.745   2.900 -0.2599  0.4287  1.6116
 2430TIP3   OH228924   3.048   0.979   3.574 -0.4988 -0.6877 -0.2281
 2430TIP3    H128925   3.049   1.070   3.542  0.7679 -0.9498 -0.9998
 2430TIP3    H228926   2.978   0.977   3.639  1.8614  1.8093  2.6650
 2431TIP3   OH228927   4.281   6.042   3.017  0.4868 -0.2700 -0.2177
 2431TIP3    H128928   4.365   6.000   3.001 -0.3985 -2.5890  0.7820
 2431TIP3    H228929   4.233   6.033   2.935 -0.0539 -2.2177  0.2646
 2432TIP3   OH228930   2.080   6.560   7.875 -0.3495 -0.4879  0.0572
 2432TIP3    H128931   2.130   6.540   7.795  0.2178  0.1002  0.2477
 2432TIP3    H228932   1.992   6.580   7.844 -0.6438 -2.1281 -0.2332
 2433TIP3   OH228933   2.072   0.317   1.241 -0.1460  0.5404 -0.1595
 2433TIP3    H128934   2.156   0.348   1.277 -0.4577  1.9814 -0.5956
 2433TIP3    H228935   2.096   0.266   1.163  0.4399 -1.2561  1.1331
 2434TIP3   OH228936   2.419   4.924   0.335  0.1697 -0.2614 -0.0187
 2434TIP3    H128937   2.488   4.948   0.273 -0.6156 -0.5555 -1.0236
 2434TIP3    H228938   2.467   4.898   0.414  1.1403  2.0531  0.2619
 2435TIP3   OH228939   4.049   3.994   8.220 -0.3870  0.3672 -0.6257
 2435TIP3    H128940   4.086   4.082   8.227 -0.1020  0.1512  0.8709
 2435TIP3    H228941   3.955   4.007   8.227 -0.5469  0.7362 -2.6434
 2436TIP3   OH228942   5.588   3.962   1.668  0.3082 -0.3495 -0.6275
 2436TIP3    H128943   5.623   3.873   1.667  1.2998 -0.0089  0.7834
 2436TIP3    H228944   5.612   3.998   1.582 -0.5815 -1.5823 -1.4296
 2437TIP3   OH228945   3.841   5.249   8.161 -0.3877 -0.5303  0.3278
 2437TIP3    H128946   3.844   5.306   8.084 -2.8440 -1.3050 -0.4329
 2437TIP3    H228947   3.833   5.309   8.235 -0.2650  0.1803 -0.2196
 2438TIP3   OH228948   6.668   2.874   0.819 -0.1799  0.3152  0.0181
 2438TIP3    H128949   6.611   2.948   0.796 -1.4012 -0.3987  0.6873
 2438TIP3    H228950   6.712   2.902   0.899  0.9549  1.1290 -0.8464
 2439TIP3   OH228951   2.692   5.077   1.995 -0.0321  0.0859  0.0980
 2439TIP3    H128952   2.772   5.040   2.032 -0.4716  0.6254  1.6450
 2439TIP3    H228953   2.621   5.042   2.050 -0.6833  1.1094 -0.0611
 2440TIP3   OH228954   1.302   0.642   3.115 -0.0931  0.1127 -0.0717
 2440TIP3    H128955   1.343   0.660   3.030 -0.9240 -0.5032 -0.6213
 2440TIP3    H228956   1.347   0.564   3.147  1.2845  1.2150  0.8036
 2441TIP3   OH228957   4.569   2.764   7.947 -0.3319  0.0551 -0.3548
 2441TIP3    H128958   4.584   2.711   7.869  1.0680 -1.4624  0.8626
 2441TIP3    H228959   4.539   2.701   8.013 -0.8879  1.1875  0.5053
 2442TIP3   OH228960   3.715   6.808   1.007  0.0609  0.7941  0.0919
 2442TIP3    H128961   3.802   6.818   1.045 -0.2347 -0.6703  1.2426
 2442TIP3    H228962   3.681   6.898   1.002  0.9236  1.2230  1.3448
 2443TIP3   OH228963   4.971   4.477   7.378  0.1899 -0.1523 -0.0744
 2443TIP3    H128964   4.894   4.420   7.386  0.4924 -0.6580 -0.7075
 2443TIP3    H228965   4.946   4.557   7.424 -0.9656 -0.0456 -0.8425
 2444TIP3   OH228966   6.511   4.765   2.659  0.1419 -0.3339 -0.1081
 2444TIP3    H128967   6.433   4.729   2.617  2.2576 -1.9821 -3.0200
 2444TIP3    H228968   6.573   4.777   2.587  2.2716  1.8361  1.9241
 2445TIP3   OH228969   0.700   4.439   0.507  0.1160  0.2685 -0.3068
 2445TIP3    H128970   0.623   4.421   0.560  0.8067 -0.9169  0.3237
 2445TIP3    H228971   0.694   4.378   0.433  0.5925 -0.0431 -0.0952
 2446TIP3   OH228972   0.434   0.954   1.996 -0.2169 -0.1526  0.3671
 2446TIP3    H128973   0.480   0.909   2.067 -0.2794 -0.1067  0.4364
 2446TIP3    H228974   0.415   0.885   1.932  2.2093  0.2443 -0.8706
 2447TIP3   OH228975   1.594   0.181   0.897  0.2613 -0.0570 -0.2915
 2447TIP3    H128976   1.526   0.243   0.924 -0.5187 -1.4270  1.0060
 2447TIP3    H228977   1.673   0.210   0.943 -0.3324 -0.5748  1.0898
 2448TIP3   OH228978   2.280   1.698   2.304  0.4898  0.0281 -0.1912
 2448TIP3    H128979   2.227   1.752   2.363  1.9854  0.8389  0.4614
 2448TIP3    H228980   2.291   1.752   2.226  0.6684  0.0060 -0.1805
 2449TIP3   OH228981   1.487   5.112   2.229 -0.1243 -0.4288 -0.1731
 2449TIP3    H128982   1.420   5.181   2.221  0.3937  0.1585  0.3633
 2449TIP3    H228983   1.467   5.070   2.312 -0.6339 -1.1516 -0.6542
 2450TIP3   OH228984   6.714   6.003   7.332  0.4786  0.0714 -0.1146
 2450TIP3    H128985   6.747   5.926   7.378 -1.5392 -0.0368  1.2715
 2450TIP3    H228986   6.684   6.061   7.402 -3.0422 -0.2386 -1.1957
 2451TIP3   OH228987   2.013   4.663   7.504 -0.3963  0.5435  0.4570
 2451TIP3    H128988   1.959   4.731   7.544  0.5893  0.4147  2.0994
 2451TIP3    H228989   1.967   4.581   7.523 -0.4388  0.5701  0.4686
 2452TIP3   OH228990   3.158   6.352   2.085 -0.0606  0.6900 -0.3312
 2452TIP3    H128991   3.236   6.404   2.105 -1.6975  2.2032  2.9251
 2452TIP3    H228992   3.085   6.414   2.094 -1.8710 -1.4128  0.2997
 2453TIP3   OH228993   0.078   5.248   0.300 -0.6261 -0.7306 -0.3519
 2453TIP3    H128994   0.033   5.332   0.298  1.8603  0.7042 -0.3105
 2453TIP3    H228995   0.080   5.219   0.208 -0.8879 -0.4151 -0.4579
 2454TIP3   OH228996   6.770   3.890   7.735  0.0288 -0.1993 -0.2683
 2454TIP3    H128997   6.834   3.820   7.736  1.3023  0.9271 -0.5374
 2454TIP3    H228998   6.686   3.846   7.749  0.5122 -2.0301 -2.5224
 2455TIP3   OH228999   5.190   1.135   1.064  0.2914  0.3788  0.7594
 2455TIP3    H129000   5.156   1.210   1.113 -1.5302 -0.6980  1.2102
 2455TIP3    H229001   5.118   1.108   1.007  0.8805 -1.1018  0.6740
 2456TIP3   OH229002   3.914   3.586   8.190  0.1702 -0.1980  0.0221
 2456TIP3    H129003   3.920   3.597   8.285  1.6460  0.4484 -0.1269
 2456TIP3    H229004   3.865   3.505   8.179 -0.9714  0.2762  1.3109
 2457TIP3   OH229005   4.841   6.639   1.659 -0.0665  0.5806 -0.5767
 2457TIP3    H129006   4.903   6.658   1.729 -0.6295 -0.3943  0.2077
 2457TIP3    H229007   4.765   6.600   1.703 -0.3893 -0.1567 -1.7271
 2458TIP3   OH229008   4.176   0.399   0.914 -0.0230  0.0965  0.2086
 2458TIP3    H129009   4.144   0.482   0.879  0.9608  0.5931  0.4719
 2458TIP3    H229010   4.211   0.352   0.838 -1.8390 -0.7127 -0.1953
 2459TIP3   OH229011   0.228   2.152   7.540  0.5716 -0.5377 -0.5661
 2459TIP3    H129012   0.189   2.134   7.454 -2.1043 -0.3963  0.5231
 2459TIP3    H229013   0.174   2.103   7.602  1.6065  0.4293  1.1833
 2460TIP3   OH229014   4.104   0.652   7.782 -0.1276  0.2463 -0.4881
 2460TIP3    H129015   4.020   0.691   7.755 -1.5158 -0.3849  2.5082
 2460TIP3    H229016   4.117   0.683   7.871  1.4896 -1.7964  0.0451
 2461TIP3   OH229017   4.499   6.753   0.730 -0.1561  0.7585 -0.2047
 2461TIP3    H129018   4.445   6.818   0.684 -2.0463 -1.1985 -0.8870
 2461TIP3    H229019   4.461   6.749   0.818 -0.8268 -0.2454 -0.5276
 2462TIP3   OH229020   2.098   2.017   1.999 -0.1488  0.2012  0.3934
 2462TIP3    H129021   2.177   1.971   2.026 -1.1104 -0.8525  1.5658
 2462TIP3    H229022   2.055   1.959   1.936 -0.1051  0.6640 -0.0711
 2463TIP3   OH229023   4.020   5.092   1.096  0.4444 -0.1618 -0.4578
 2463TIP3    H129024   4.043   5.106   1.188 -2.4224 -1.2092  0.5399
 2463TIP3    H229025   4.002   5.180   1.063 -2.0320  0.0252  1.1288
 2464TIP3   OH229026   5.140   0.513   0.999 -0.3421  0.1602  0.9570
 2464TIP3    H129027   5.126   0.530   0.906  2.0352 -0.2078  0.4600
 2464TIP3    H229028   5.070   0.453   1.024 -1.4979  0.9082 -0.3575
 2465TIP3   OH229029   2.846   5.575   7.279 -0.0982 -0.0498 -0.0137
 2465TIP3    H129030   2.866   5.655   7.230  0.8429 -0.2656 -0.0074
 2465TIP3    H229031   2.770   5.597   7.333 -0.5129  0.5004 -0.8220
 2466TIP3   OH229032   6.494   0.726   0.146  0.0388 -0.3364 -0.0648
 2466TIP3    H129033   6.455   0.769   0.222 -1.3456 -2.6096  0.5981
 2466TIP3    H229034   6.490   0.791   0.076  0.0559  1.3168  1.4227
 2467TIP3   OH229035   0.340   2.362   2.635  0.2870  0.0951 -0.0292
 2467TIP3    H129036   0.411   2.411   2.677 -0.7915  1.3890  0.3568
 2467TIP3    H229037   0.260   2.406   2.664 -0.9567 -3.1322  2.0176
 2468TIP3   OH229038   6.804   5.779   1.932  0.0888  0.0072  0.4975
 2468TIP3    H129039   6.830   5.861   1.973  0.2239  0.5249 -0.5966
 2468TIP3    H229040   6.832   5.787   1.841  0.3200 -1.3516  0.4212
 2469TIP3   OH229041   5.948   6.378   3.701  0.1528  0.0272 -0.2150
 2469TIP3    H129042   6.044   6.375   3.702  0.1397 -0.8148 -0.4521
 2469TIP3    H229043   5.923   6.346   3.787  0.0843  0.5173 -0.0506
 2470TIP3   OH229044   2.251   3.310   7.776 -0.2542 -0.5687 -0.6919
 2470TIP3    H129045   2.313   3.242   7.802  0.4340  0.4382  0.4142
 2470TIP3    H229046   2.165   3.272   7.793  0.1415 -0.7682  1.0731
 2471TIP3   OH229047   2.738   4.460   3.506  0.3814 -0.3560  0.0613
 2471TIP3    H129048   2.740   4.373   3.466  0.1211 -0.0132 -0.7269
 2471TIP3    H229049   2.828   4.491   3.500  0.4951 -0.6171  0.4401
 2472TIP3   OH229050   1.788   0.801   7.170  0.7890 -0.5057 -0.1836
 2472TIP3    H129051   1.721   0.735   7.187  0.8524 -0.5859 -0.2489
 2472TIP3    H229052   1.870   0.759   7.193  0.9297 -0.7872 -1.1469
 2473TIP3   OH229053   0.856   0.920   1.305  0.0508  0.1244  0.3701
 2473TIP3    H129054   0.915   0.971   1.360 -1.4994 -0.2705  2.5239
 2473TIP3    H229055   0.853   0.968   1.222  1.5488  1.3990  0.9971
 2474TIP3   OH229056   3.495   0.223   2.787 -0.3539  0.2208 -0.4598
 2474TIP3    H129057   3.436   0.148   2.786  0.4001 -0.4326 -2.8037
 2474TIP3    H229058   3.478   0.266   2.871 -0.8585 -2.5048  0.9645
 2475TIP3   OH229059   5.762   6.894   2.557 -0.3396  0.1852 -0.9076
 2475TIP3    H129060   5.718   6.977   2.573 -1.0169 -0.5311  1.2755
 2475TIP3    H229061   5.817   6.881   2.634  2.4824  0.2099 -2.7451
 2476TIP3   OH229062   4.766   1.832   2.049  0.1442  0.1739 -0.2167
 2476TIP3    H129063   4.848   1.858   2.091 -0.1739  1.0441 -0.0989
 2476TIP3    H229064   4.751   1.742   2.079  0.4140  0.4402  0.7709
 2477TIP3   OH229065   2.115   5.693   0.261  0.4027 -0.0618  0.0265
 2477TIP3    H129066   2.181   5.762   0.265 -1.4294  1.7514  2.4413
 2477TIP3    H229067   2.041   5.732   0.215  0.4213 -1.5644 -1.3791
 2478TIP3   OH229068   6.347   5.900   3.257 -0.0200  0.0199  0.0862
 2478TIP3    H129069   6.423   5.945   3.295  2.3078 -3.3827 -0.1412
 2478TIP3    H229070   6.312   5.846   3.329 -0.1554 -0.9311 -0.6800
 2479TIP3   OH229071   1.373   3.313   1.134  0.0414 -0.1423  0.0324
 2479TIP3    H129072   1.358   3.269   1.218  0.6631  0.0733  0.2655
 2479TIP3    H229073   1.401   3.244   1.074  1.4008 -0.0384  0.4994
 2480TIP3   OH229074   2.586   1.988   1.998  0.2480  0.4425  0.2011
 2480TIP3    H129075   2.564   2.080   1.988  0.1416  0.7418  2.6479
 2480TIP3    H229076   2.627   1.981   2.084 -0.8562 -1.9555  0.6436
 2481TIP3   OH229077   4.159   4.101   1.481  0.0807  0.3619 -0.8016
 2481TIP3    H129078   4.086   4.162   1.469 -0.6593 -0.2366  0.3636
 2481TIP3    H229079   4.236   4.156   1.493 -0.2683  1.0183 -1.5578
 2482TIP3   OH229080   5.699   6.310   1.059 -0.4771  0.3484 -0.1897
 2482TIP3    H129081   5.641   6.347   1.125 -0.8758 -1.1489  0.3429
 2482TIP3    H229082   5.688   6.215   1.068  1.2462  0.0547 -0.8117
 2483TIP3   OH229083   1.610   4.611   7.588 -0.8795  0.4691 -0.1092
 2483TIP3    H129084   1.518   4.583   7.587 -0.8476  0.3327  0.4118
 2483TIP3    H229085   1.647   4.573   7.508 -1.3352  0.7459 -0.4576
 2484TIP3   OH229086   4.837   0.859   0.669 -0.9948 -0.1425 -0.0791
 2484TIP3    H129087   4.842   0.867   0.574 -0.9128  0.7551 -0.0091
 2484TIP3    H229088   4.762   0.802   0.684  0.3721 -2.2401 -0.7374
 2485TIP3   OH229089   0.490   1.792   0.255  0.3573  0.0779  0.2764
 2485TIP3    H129090   0.437   1.770   0.332 -0.1845  0.2656 -0.0385
 2485TIP3    H229091   0.528   1.708   0.228 -1.0036 -0.3487 -0.4051
 2486TIP3   OH229092   3.727   2.800   8.127  0.0070 -0.4915 -0.2678
 2486TIP3    H129093   3.737   2.872   8.065  1.6066  0.0354  0.5190
 2486TIP3    H229094   3.643   2.816   8.170  1.4479  2.5756  1.8045
 2487TIP3   OH229095   2.642   3.032   2.803 -0.1389  0.2655 -0.1245
 2487TIP3    H129096   2.602   2.948   2.779 -2.4780  1.5442 -1.1329
 2487TIP3    H229097   2.572   3.096   2.788  2.0612  2.6238 -1.0675
 2488TIP3   OH229098   6.824   3.490   0.178  0.4565  0.0891 -0.5127
 2488TIP3    H129099   6.872   3.510   0.098  0.5332 -0.6087 -0.6529
 2488TIP3    H229100   6.887   3.441   0.232 -0.5677 -2.4500 -1.4447
 2489TIP3   OH229101   3.660   2.339   2.580 -0.1169 -0.6723  0.0666
 2489TIP3    H129102   3.737   2.293   2.547  0.6082  0.9514 -0.5772
 2489TIP3    H229103   3.644   2.299   2.666  1.5830 -0.9083  0.3161
 2490TIP3   OH229104   6.045   3.841   1.597 -0.3147  0.1221  0.6411
 2490TIP3    H129105   6.055   3.923   1.549  0.3726  1.5533  3.0657
 2490TIP3    H229106   6.105   3.780   1.553 -0.1216  1.1623 -0.6207
 2491TIP3   OH229107   4.511   0.478   0.057 -0.1613  0.4845  0.8269
 2491TIP3    H129108   4.445   0.467   0.125 -1.9599  2.2971 -0.4598
 2491TIP3    H229109   4.493   0.565   0.020  0.0975 -0.7123 -2.5219
 2492TIP3   OH229110   4.227   1.768   0.523 -0.0545  0.1279 -0.0505
 2492TIP3    H129111   4.159   1.729   0.579  0.5472 -2.5719 -1.0322
 2492TIP3    H229112   4.309   1.738   0.561  0.4835  0.9052 -0.5837
 2493TIP3   OH229113   2.484   1.644   3.566  0.3765 -0.0536 -0.3201
 2493TIP3    H129114   2.485   1.701   3.643 -0.4076 -0.1513 -0.2272
 2493TIP3    H229115   2.531   1.693   3.499  2.8593 -0.7994  0.7789
 2494TIP3   OH229116   3.137   6.116   2.651  0.1490 -0.2337 -0.2052
 2494TIP3    H129117   3.196   6.083   2.583  0.6545 -0.6549  0.4233
 2494TIP3    H229118   3.140   6.049   2.719 -1.3341 -0.4218 -0.3014
 2495TIP3   OH229119   3.714   3.176   0.496 -0.2763  0.4614  0.3759
 2495TIP3    H129120   3.658   3.154   0.421 -0.0101  0.1951  0.2576
 2495TIP3    H229121   3.653   3.206   0.563 -0.4976  1.0029 -0.0521
 2496TIP3   OH229122   4.494   2.932   0.766  0.0540 -0.6873  0.0079
 2496TIP3    H129123   4.458   2.895   0.847 -0.8557 -1.3674 -0.6682
 2496TIP3    H229124   4.465   2.870   0.698  2.0467 -0.9349 -0.6623
 2497TIP3   OH229125   0.904   6.918   7.772 -0.0475 -0.3723  0.0722
 2497TIP3    H129126   0.919   6.828   7.743  0.3356  0.1106 -1.3139
 2497TIP3    H229127   0.840   6.953   7.710 -2.0116 -0.3601  1.9848
 2498TIP3   OH229128   5.713   1.196   1.087 -0.0527  0.1286 -0.0437
 2498TIP3    H129129   5.624   1.183   1.056 -0.8300  3.9081  0.1337
 2498TIP3    H229130   5.767   1.148   1.024 -2.1008 -1.3354 -0.7971
 2499TIP3   OH229131   3.314   2.296   1.028  0.1507  0.2964 -0.3722
 2499TIP3    H129132   3.331   2.371   0.970 -0.9411  0.9860  0.1568
 2499TIP3    H229133   3.400   2.258   1.044  0.6341  0.9675 -1.2921
 2500TIP3   OH229134   6.364   4.090   0.085  0.0219  0.5632  0.0458
 2500TIP3    H129135   6.381   4.032   0.159  2.0919 -0.0270 -0.8018
 2500TIP3    H229136   6.343   4.030   0.013  2.8708  0.6963 -1.0226
 2501TIP3   OH229137   6.429   2.882   2.228 -0.3125  0.2911  0.0078
 2501TIP3    H129138   6.438   2.840   2.142  2.2101 -2.6196  1.4829
 2501TIP3    H229139   6.490   2.956   2.224 -0.2826  0.2411 -0.7257
 2502TIP3   OH229140   3.068   3.923   2.889 -0.1407  0.0192  0.0932
 2502TIP3    H129141   3.051   4.006   2.933  0.0835 -0.8996  1.9779
 2502TIP3    H229142   3.020   3.858   2.939  0.4778 -1.1397 -0.7632
 2503TIP3   OH229143   4.135   3.784   2.315 -0.0046 -0.1137 -0.0480
 2503TIP3    H129144   4.100   3.819   2.233  1.9462  0.2304 -0.7700
 2503TIP3    H229145   4.201   3.720   2.288  1.6167  0.9560  1.2216
 2504TIP3   OH229146   2.166   2.072   0.820  0.0158 -0.1300 -0.1847
 2504TIP3    H129147   2.237   2.134   0.806  0.8416 -0.9318  0.3157
 2504TIP3    H229148   2.208   1.986   0.818 -0.4578 -0.5309  2.6834
 2505TIP3   OH229149   2.704   0.138   0.265 -0.1675  0.0546 -0.0222
 2505TIP3    H129150   2.630   0.098   0.311 -1.5313 -0.5698 -2.5718
 2505TIP3    H229151   2.698   0.103   0.176  2.8709  0.4756 -0.4729
 2506TIP3   OH229152   5.478   2.623   8.266 -0.2957 -0.1177 -0.1049
 2506TIP3    H129153   5.440   2.659   8.186  1.6548  0.6037 -0.7679
 2506TIP3    H229154   5.460   2.529   8.261 -0.3340 -0.0575 -1.3257
 2507TIP3   OH229155   2.546   4.261   0.320  0.4174  0.3761  0.1578
 2507TIP3    H129156   2.571   4.172   0.297 -1.2964 -0.0685 -0.1587
 2507TIP3    H229157   2.528   4.304   0.236 -1.8543 -0.0003  0.3783
 2508TIP3   OH229158   2.814   2.489   3.233 -0.0438  0.6398 -0.9008
 2508TIP3    H129159   2.827   2.409   3.285  1.3109 -0.7136 -3.1593
 2508TIP3    H229160   2.895   2.538   3.246 -0.2003  0.8717 -0.8023
 2509TIP3   OH229161   6.795   0.164   2.764  0.3227  0.3275 -0.2160
 2509TIP3    H129162   6.738   0.240   2.773  1.8571  1.3255  1.9902
 2509TIP3    H229163   6.875   0.187   2.811  1.4073 -2.1428 -0.6352
 2510TIP3   OH229164   1.610   0.654   0.467  0.6855 -0.5041 -0.3313
 2510TIP3    H129165   1.678   0.632   0.404 -0.0841 -2.3480 -0.5796
 2510TIP3    H229166   1.537   0.685   0.414 -0.1759 -2.6080 -0.4777
 2511TIP3   OH229167   2.017   3.240   1.452  0.3131 -0.1054  0.4107
 2511TIP3    H129168   2.023   3.144   1.443 -4.1179 -0.7833  2.2393
 2511TIP3    H229169   2.029   3.256   1.545 -1.1706  0.8207  0.4674
 2512TIP3   OH229170   4.394   5.967   1.378  0.0179 -0.2121 -0.8859
 2512TIP3    H129171   4.341   5.937   1.305  1.0585 -1.2916 -1.2223
 2512TIP3    H229172   4.464   5.902   1.386  0.3245  0.2533  0.6247
 2513TIP3   OH229173   6.796   5.824   1.032  0.5603  0.4824 -0.0062
 2513TIP3    H129174   6.862   5.759   1.007  1.3822  0.8092  1.1734
 2513TIP3    H229175   6.713   5.778   1.025  0.9663 -0.1558 -0.8633
 2514TIP3   OH229176   2.011   4.463   3.056 -0.3915  0.4795 -0.0141
 2514TIP3    H129177   1.963   4.530   3.007 -0.6660  1.0946  1.0775
 2514TIP3    H229178   1.967   4.458   3.140 -0.2869 -0.9958 -0.0134
 2515TIP3   OH229179   1.064   4.181   0.018 -0.5769 -0.3061 -0.2450
 2515TIP3    H129180   0.988   4.129  -0.008 -1.7512  1.0477  0.3323
 2515TIP3    H229181   1.138   4.141  -0.028 -1.4157 -2.4601  0.1908
 2516TIP3   OH229182   0.837   6.602   1.631  0.3232 -0.2533  0.1332
 2516TIP3    H129183   0.793   6.518   1.637 -1.0170  0.4962  1.3833
 2516TIP3    H229184   0.899   6.592   1.558 -1.0261 -1.7514 -0.8710
 2517TIP3   OH229185   2.740   3.436   2.380  0.0725  0.5214 -0.2344
 2517TIP3    H129186   2.703   3.356   2.417  0.4167 -0.5721 -2.1534
 2517TIP3    H229187   2.826   3.444   2.421 -0.4625  0.6507  0.9181
 2518TIP3   OH229188   3.354   4.687   1.533 -0.4276 -0.2711 -0.4442
 2518TIP3    H129189   3.267   4.655   1.555 -0.0435 -0.2972  1.1586
 2518TIP3    H229190   3.397   4.612   1.492 -1.1210 -0.2832 -1.1634
 2519TIP3   OH229191   2.083   6.112   7.178 -0.2836 -0.5509 -0.0707
 2519TIP3    H129192   2.100   6.205   7.160 -0.0126 -0.2459  1.5568
 2519TIP3    H229193   1.993   6.098   7.151 -0.5393  0.3741  0.2623
 2520TIP3   OH229194   4.416   3.808   0.726 -0.1763 -0.4655 -0.1230
 2520TIP3    H129195   4.390   3.876   0.663  1.7986 -1.4729 -2.1590
 2520TIP3    H229196   4.469   3.854   0.790  1.7380 -0.0915 -1.8699
 2521TIP3   OH229197   5.920   5.175   2.005  0.2381 -0.3161  0.1596
 2521TIP3    H129198   5.914   5.245   1.940  1.6971 -1.0036 -0.7607
 2521TIP3    H229199   5.831   5.166   2.039 -0.4643  0.3854 -1.4172
 2522TIP3   OH229200   2.902   2.238   0.636  0.2304 -0.0983 -0.6660
 2522TIP3    H129201   2.889   2.176   0.708  3.1148  1.4209  1.3865
 2522TIP3    H229202   2.957   2.191   0.574 -0.3585 -0.6565 -0.7827
 2523TIP3   OH229203   1.403   0.606   2.237  0.1022  0.3041 -0.0440
 2523TIP3    H129204   1.360   0.587   2.154  0.1213  0.8317 -0.1763
 2523TIP3    H229205   1.494   0.578   2.225 -0.3577 -1.5234  0.4882
 2524TIP3   OH229206   5.332   4.745   8.152  0.1647 -0.1959  0.4639
 2524TIP3    H129207   5.292   4.740   8.065 -2.7825  1.8653  1.5339
 2524TIP3    H229208   5.374   4.831   8.154 -0.2542 -0.0076  1.2430
 2525TIP3   OH229209   2.814   3.049   3.064 -0.4638 -0.8582 -0.4431
 2525TIP3    H129210   2.776   2.962   3.069 -2.8482  0.1378  0.1374
 2525TIP3    H229211   2.771   3.091   2.989 -1.4164  0.6686  0.8777
 2526TIP3   OH229212   3.775   0.349   3.166 -0.4751 -0.1853 -0.2589
 2526TIP3    H129213   3.836   0.295   3.216 -2.0390 -0.3829  1.5789
 2526TIP3    H229214   3.747   0.293   3.094  0.9640 -0.3289 -0.7312
 2527TIP3   OH229215   2.539   6.518   3.611 -0.2187  0.0271 -0.5188
 2527TIP3    H129216   2.524   6.612   3.602  1.7906  0.6040  1.3673
 2527TIP3    H229217   2.463   6.486   3.659 -1.0416  0.6010 -1.3941
 2528TIP3   OH229218   0.738   6.222   2.675  0.5168  0.0977 -0.5107
 2528TIP3    H129219   0.689   6.179   2.605  0.7260 -0.1820 -0.4865
 2528TIP3    H229220   0.820   6.173   2.682  0.8054  0.5697 -0.5513
 2529TIP3   OH229221   3.568   4.074   0.583 -0.0350 -0.4401  0.3388
 2529TIP3    H129222   3.525   4.001   0.628  1.1945 -0.6037  1.2783
 2529TIP3    H229223   3.625   4.032   0.519  0.3494 -0.2851  0.5811
 2530TIP3   OH229224   3.950   3.557   0.745 -0.1320  0.3269 -0.3092
 2530TIP3    H129225   4.026   3.500   0.736  0.8093  1.5322 -0.1967
 2530TIP3    H229226   3.930   3.584   0.656 -1.3149 -1.0791 -0.4987
 2531TIP3   OH229227   4.188   3.252   2.948 -0.4040  0.9699  0.1076
 2531TIP3    H129228   4.110   3.307   2.938 -0.8952  0.4320  0.8861
 2531TIP3    H229229   4.253   3.309   2.987  1.4719  3.0810 -5.1065
 2532TIP3   OH229230   4.989   4.671   8.152 -0.2847  0.1710  0.1420
 2532TIP3    H129231   4.952   4.598   8.102  0.2930 -0.2702  0.3535
 2532TIP3    H229232   4.970   4.749   8.099 -0.4276 -0.1946 -0.3439
 2533TIP3   OH229233   3.307   0.952   2.938  0.1461 -0.6946  0.7890
 2533TIP3    H129234   3.262   1.037   2.931 -2.2704 -1.9240  0.2254
 2533TIP3    H229235   3.290   0.924   3.028 -0.3861 -1.2237  0.5334
 2534TIP3   OH229236   5.049   0.229   1.547 -0.2361 -0.3733  0.9940
 2534TIP3    H129237   5.056   0.148   1.496  1.2143  0.4774 -0.2329
 2534TIP3    H229238   4.956   0.235   1.570 -0.3740 -2.3655  1.1112
 2535TIP3   OH229239   4.663   5.283   2.108  0.1346 -0.1620 -0.7648
 2535TIP3    H129240   4.642   5.211   2.049 -0.9575  0.1804 -0.8188
 2535TIP3    H229241   4.588   5.289   2.167  0.5130  0.5003 -0.3314
 2536TIP3   OH229242   1.322   2.323   6.851  0.2623  0.6239  0.0768
 2536TIP3    H129243   1.252   2.258   6.847  1.3787 -0.5507 -2.0751
 2536TIP3    H229244   1.374   2.295   6.927  0.3049 -0.5772 -0.3656
 2537TIP3   OH229245   4.692   3.781   1.205  0.4019  0.2482 -0.1762
 2537TIP3    H129246   4.747   3.829   1.143  0.8347  0.7790  0.6011
 2537TIP3    H229247   4.705   3.826   1.288 -0.1715 -0.4522  0.3039
 2538TIP3   OH229248   2.934   0.446   2.417 -0.0730  0.2882 -0.0439
 2538TIP3    H129249   2.919   0.353   2.435  0.3989 -0.2435 -2.1536
 2538TIP3    H229250   2.957   0.450   2.324 -1.1478  2.6527 -0.2985
 2539TIP3   OH229251   1.051   6.068   0.881  0.4025 -0.0437  0.0995
 2539TIP3    H129252   1.139   6.065   0.918  1.2140  1.0793 -1.6074
 2539TIP3    H229253   1.032   5.978   0.856  1.8920 -0.0207 -1.2697
 2540TIP3   OH229254   4.507   0.544   2.641 -0.1238 -0.3340 -0.5453
 2540TIP3    H129255   4.520   0.590   2.724 -0.4469 -0.0795 -0.6387
 2540TIP3    H229256   4.498   0.452   2.667  2.6836 -0.6944 -0.5158
 2541TIP3   OH229257   3.262   3.062   0.312 -0.5394  0.2218 -0.0876
 2541TIP3    H129258   3.177   3.068   0.357 -0.3943 -1.3602  0.4569
 2541TIP3    H229259   3.278   2.968   0.304  2.3956  0.3964  2.2003
 2542TIP3   OH229260   1.022   6.202   1.726 -0.3738  0.5553 -0.0796
 2542TIP3    H129261   1.004   6.293   1.746 -2.0072 -0.4724  4.2027
 2542TIP3    H229262   0.940   6.168   1.689  0.2396  0.7188 -1.6963
 2543TIP3   OH229263   2.076   3.546   1.534 -0.0196 -0.4755  0.2801
 2543TIP3    H129264   2.039   3.472   1.485  1.9198 -1.5522  0.3714
 2543TIP3    H229265   2.019   3.620   1.511 -1.9384 -1.9262  0.0857
 2544TIP3   OH229266   3.507   1.019   7.951 -0.4251  0.4584  0.1202
 2544TIP3    H129267   3.475   1.071   8.025  0.5628  1.0002  0.1953
 2544TIP3    H229268   3.596   1.052   7.936  1.2363 -2.7922  1.7088
 2545TIP3   OH229269   4.214   3.574   2.919  0.0664  0.4261 -0.4585
 2545TIP3    H129270   4.192   3.513   2.848  0.0327  1.2068 -1.1411
 2545TIP3    H229271   4.288   3.534   2.964  0.6970  0.3573 -1.5268
 2546TIP3   OH229272   1.854   6.566   3.262 -0.5819  0.1327 -0.3814
 2546TIP3    H129273   1.777   6.513   3.281 -0.6470  0.2820 -0.2222
 2546TIP3    H229274   1.845   6.591   3.170 -0.4434 -0.3049 -0.5143
 2547TIP3   OH229275   6.929   6.044   2.954 -0.2328  0.2095 -0.1660
 2547TIP3    H129276   6.935   6.004   2.868 -1.5815  0.1235 -0.2459
 2547TIP3    H229277   6.883   5.980   3.008  2.1457 -0.4989  1.1431
 2548TIP3   OH229278   5.976   0.078   0.088 -0.0160 -0.3530  0.2088
 2548TIP3    H129279   6.009   0.165   0.067  0.3424 -0.3592  0.7430
 2548TIP3    H229280   6.002   0.063   0.179  1.6567 -1.8145 -0.4644
 2549TIP3   OH229281   3.869   5.621   8.223  0.6863  0.3514  0.1772
 2549TIP3    H129282   3.797   5.629   8.160  0.0834  0.5332  0.8677
 2549TIP3    H229283   3.947   5.610   8.169  0.1168 -0.0575 -0.5888
 2550TIP3   OH229284   2.528   5.854   1.869  0.0647  0.4624  0.2672
 2550TIP3    H129285   2.543   5.794   1.943 -0.8315 -0.1228 -0.0180
 2550TIP3    H229286   2.470   5.806   1.810  0.1841  1.2108 -0.4768
 2551TIP3   OH229287   3.119   3.677   1.522 -0.1457 -0.6880 -0.0149
 2551TIP3    H129288   3.197   3.720   1.557 -0.2015 -0.3094 -0.3474
 2551TIP3    H229289   3.052   3.746   1.521 -0.7439 -1.2340  1.0979
 2552TIP3   OH229290   3.128   0.676   2.925 -0.1853  0.6466  0.4225
 2552TIP3    H129291   3.056   0.705   2.869  1.0107  1.7778 -0.6044
 2552TIP3    H229292   3.120   0.581   2.927 -1.4047  0.7218 -0.0897
 2553TIP3   OH229293   1.962   3.049   0.285  0.5673 -0.0347  0.5699
 2553TIP3    H129294   1.978   3.137   0.319  0.5308  0.1679  0.0755
 2553TIP3    H229295   1.877   3.023   0.323  0.4665  0.2388  0.5311
 2554TIP3   OH229296   0.967   3.149   8.255  0.2150  0.4538  0.1199
 2554TIP3    H129297   1.006   3.061   8.256 -0.4830  0.1246 -0.8453
 2554TIP3    H229298   0.944   3.166   8.347  1.1912  0.0157  0.4615
 2555TIP3   OH229299   5.068   4.865   2.723  0.4503 -0.5693 -0.1312
 2555TIP3    H129300   5.023   4.781   2.728 -1.0600  0.2757  2.5609
 2555TIP3    H229301   5.034   4.907   2.644 -0.2850 -1.6488 -0.4029
 2556TIP3   OH229302   3.488   6.612   0.738  0.7427 -0.0911  0.0169
 2556TIP3    H129303   3.494   6.707   0.738  1.9150 -0.1407 -0.3405
 2556TIP3    H229304   3.577   6.583   0.718  0.2407 -1.2467 -0.6498
 2557TIP3   OH229305   6.143   4.730   2.049 -0.1038  0.1903 -0.2526
 2557TIP3    H129306   6.188   4.763   2.127 -1.4248 -1.2182  1.1932
 2557TIP3    H229307   6.118   4.808   2.000 -4.5318  1.7909  3.7683
 2558TIP3   OH229308   0.085   4.798   0.041  0.4678  0.1704 -0.3761
 2558TIP3    H129309   0.170   4.830   0.010  0.0665  2.0709  0.3422
 2558TIP3    H229310   0.077   4.834   0.129  0.1684 -2.4176  0.7571
 2559TIP3   OH229311   1.857   2.421   2.438  0.3099  0.0831  0.5469
 2559TIP3    H129312   1.952   2.409   2.443  0.4654  0.5546 -0.8047
 2559TIP3    H229313   1.827   2.415   2.528  1.6571  0.1242  1.0166
 2560TIP3   OH229314   5.545   3.471   0.619 -0.1269  0.0462 -0.0281
 2560TIP3    H129315   5.562   3.538   0.685 -2.9514  0.2077  0.6570
 2560TIP3    H229316   5.464   3.499   0.577 -1.4239 -2.9002  0.2906
 2561TIP3   OH229317   2.508   2.164   0.560 -0.1101 -0.4808 -0.5824
 2561TIP3    H129318   2.527   2.085   0.511 -0.1039 -0.1365 -1.1364
 2561TIP3    H229319   2.583   2.222   0.543 -0.0962 -0.3669 -0.1555
 2562TIP3   OH229320   4.254   6.134   1.592 -0.4222  0.1582 -0.1469
 2562TIP3    H129321   4.164   6.107   1.612 -0.4991  0.1502 -0.4963
 2562TIP3    H229322   4.285   6.069   1.529 -0.0087 -0.1042  0.3235
 2563TIP3   OH229323   4.269   6.809   0.072  0.4078  0.2595 -0.1734
 2563TIP3    H129324   4.362   6.807   0.095  0.1800 -0.4247  0.7750
 2563TIP3    H229325   4.252   6.898   0.043  1.7213 -0.0230 -1.9523
 2564TIP3   OH229326   3.252   0.951   0.067 -0.3426 -0.2023  0.0457
 2564TIP3    H129327   3.187   0.882   0.054  0.3442 -0.9197  0.3421
 2564TIP3    H229328   3.237   0.983   0.155  1.5408 -2.4172  1.3102
 2565TIP3   OH229329   6.588   2.437   0.216  0.4644 -0.1068  0.4299
 2565TIP3    H129330   6.580   2.343   0.201  0.1925 -0.0318  0.0690
 2565TIP3    H229331   6.549   2.452   0.302 -0.3286 -0.2032  0.0994
 2566TIP3   OH229332   4.109   2.749   0.589  0.4366 -0.6653 -0.7277
 2566TIP3    H129333   4.038   2.811   0.572  0.7052 -0.4409 -1.0356
 2566TIP3    H229334   4.065   2.664   0.595 -0.1845 -0.2467  1.5386
 2567TIP3   OH229335   3.645   3.038   2.266  0.3014  0.0628  0.1922
 2567TIP3    H129336   3.657   2.948   2.236 -2.0230 -0.2138 -0.0562
 2567TIP3    H229337   3.682   3.092   2.196 -0.7496 -0.6794 -0.9768
 2568TIP3   OH229338   0.401   7.052   1.514 -0.0711  0.3774  0.5824
 2568TIP3    H129339   0.399   7.143   1.544  0.2339  0.0227  1.7046
 2568TIP3    H229340   0.330   7.009   1.562  0.4844 -0.2218  0.8706
 2569TIP3   OH229341   0.954   2.068   1.731 -0.2846 -0.1406 -0.0285
 2569TIP3    H129342   0.988   2.070   1.642  1.1944 -0.8125  0.4975
 2569TIP3    H229343   0.908   1.984   1.737 -3.9196  1.5180 -1.3241
 2570TIP3   OH229344   1.957   4.533   1.788  0.1510 -0.1656 -0.2439
 2570TIP3    H129345   1.908   4.576   1.859  0.9076  1.4647 -0.6715
 2570TIP3    H229346   1.892   4.478   1.745 -1.1498  1.3320 -0.3033
 2571TIP3   OH229347   3.592   6.044   1.396 -0.1057 -0.6226 -0.0192
 2571TIP3    H129348   3.505   6.042   1.356 -0.3215 -2.4562  0.4092
 2571TIP3    H229349   3.624   6.132   1.382 -1.4437 -0.3345 -1.4684
 2572TIP3   OH229350   3.944   1.273   2.340  0.0863  0.2394 -0.3362
 2572TIP3    H129351   3.970   1.321   2.419 -0.8731  4.1575 -2.1500
 2572TIP3    H229352   3.851   1.254   2.353  0.6054 -1.9013  0.6476
 2573TIP3   OH229353   3.856   0.704   2.697  0.2042 -0.2193  0.7675
 2573TIP3    H129354   3.876   0.776   2.758  2.7448 -0.6678  0.5953
 2573TIP3    H229355   3.941   0.682   2.659 -0.9986 -1.3507 -1.4132
 2574TIP3   OH229356   0.732   5.759   1.234 -0.1826 -0.5312 -0.2514
 2574TIP3    H129357   0.775   5.705   1.300  0.6321  0.7495  0.2919
 2574TIP3    H229358   0.641   5.767   1.264  0.1062 -0.2161  0.5460
 2575TIP3   OH229359   3.300   0.542   2.561 -0.4599  0.8830 -0.0753
 2575TIP3    H129360   3.281   0.449   2.564 -0.1901  0.8060 -0.5971
 2575TIP3    H229361   3.218   0.585   2.585 -0.2711  0.4925  1.3164
 2576TIP3   OH229362   1.951   1.926   0.807 -0.0429  0.1816  0.6008
 2576TIP3    H129363   2.003   2.003   0.830  0.3880  0.0079  0.2130
 2576TIP3    H229364   1.990   1.893   0.726 -1.1230  0.3997 -0.0347
 2577TIP3   OH229365   0.625   5.496   2.516 -0.1031 -0.3899  0.0507
 2577TIP3    H129366   0.589   5.492   2.428 -0.5346 -1.4066  0.2607
 2577TIP3    H229367   0.648   5.588   2.529  0.4418 -0.3259 -1.3004
 2578TIP3   OH229368   1.897   5.515   7.860  0.3414 -0.4662 -0.2863
 2578TIP3    H129369   1.811   5.528   7.818  0.2081  0.1451  0.1517
 2578TIP3    H229370   1.933   5.603   7.866  0.2251 -0.4877  1.1483
 2579TIP3   OH229371   0.971   1.099   2.301 -0.1343  0.0373 -0.3142
 2579TIP3    H129372   1.026   1.146   2.238  0.0436  0.4355  0.1301
 2579TIP3    H229373   0.941   1.167   2.362  1.8089 -0.6773  1.5722
 2580TIP3   OH229374   3.554   3.522   1.656 -0.4263  0.3145  0.9620
 2580TIP3    H129375   3.637   3.556   1.622 -0.3796 -0.1471  0.5926
 2580TIP3    H229376   3.570   3.510   1.749  0.0661 -0.1552  0.8265
 2581TIP3   OH229377   6.910   2.135   8.217 -0.4718  0.0954  0.4152
 2581TIP3    H129378   6.999   2.110   8.190 -0.5917 -0.0516  0.1536
 2581TIP3    H229379   6.923   2.210   8.275 -0.1416 -0.2107  0.7457
 2582TIP3   OH229380   6.038   1.328   0.066 -0.2030  0.8779  0.1033
 2582TIP3    H129381   5.994   1.332  -0.019 -0.1752 -0.6934 -0.0199
 2582TIP3    H229382   6.131   1.328   0.044 -0.1975  0.1807  0.0967
 2583TIP3   OH229383   2.673   5.335   3.105  0.2106  0.4350  0.6617
 2583TIP3    H129384   2.728   5.409   3.129  0.0167  0.6523  0.4315
 2583TIP3    H229385   2.636   5.305   3.189  0.4331  0.4807  0.7763
 2584TIP3   OH229386   1.108   3.297   1.414  0.6187 -0.0468 -0.3706
 2584TIP3    H129387   1.174   3.345   1.465  0.8267 -0.0455 -0.6440
 2584TIP3    H229388   1.073   3.361   1.353  0.9574 -0.2671 -0.7947
 2585TIP3   OH229389   4.506   5.248   3.292  0.1581 -0.5311  0.0367
 2585TIP3    H129390   4.432   5.303   3.267 -0.0001 -0.6747  0.1839
 2585TIP3    H229391   4.534   5.207   3.210  0.2559 -0.2612 -0.0679
 2586TIP3   OH229392   6.393   6.275   1.947 -0.4421  0.3725  0.4047
 2586TIP3    H129393   6.299   6.290   1.955 -0.1199  2.5698  0.6358
 2586TIP3    H229394   6.400   6.185   1.915 -2.5390 -0.4364  1.9753
 2587TIP3   OH229395   1.835   3.620   1.797 -0.2698  0.4919  0.4357
 2587TIP3    H129396   1.810   3.655   1.883  0.8980  1.8039  0.2894
 2587TIP3    H229397   1.908   3.676   1.770 -0.2425 -0.2815 -1.1551
 2588TIP3   OH229398   3.393   5.247   0.268  0.2694  0.1730  0.0508
 2588TIP3    H129399   3.369   5.326   0.316  1.8470 -0.3048  1.7667
 2588TIP3    H229400   3.330   5.182   0.296 -0.3582  0.5305 -0.5084
 2589TIP3   OH229401   3.360   4.928   1.411 -0.2087  0.0879 -0.3008
 2589TIP3    H129402   3.339   4.844   1.451 -0.6444  1.0350  1.5274
 2589TIP3    H229403   3.276   4.972   1.401  0.2762  1.8289  2.3527
 2590TIP3   OH229404   1.343   0.106   7.968 -0.0667  0.3458  0.2184
 2590TIP3    H129405   1.324   0.184   7.916  0.3519 -0.0200 -0.4890
 2590TIP3    H229406   1.280   0.040   7.936  0.0874  0.1668  0.2826
 2591TIP3   OH229407   3.086   4.739   2.107 -0.0205  0.0927 -0.1890
 2591TIP3    H129408   3.025   4.673   2.141  0.3666 -0.1934 -0.0346
 2591TIP3    H229409   3.132   4.771   2.184  0.9112 -0.6122 -0.4275
 2592TIP3   OH229410   3.345   3.548   1.371 -0.5088  0.4480  0.0889
 2592TIP3    H129411   3.253   3.567   1.391 -0.1942  1.4621  0.6205
 2592TIP3    H229412   3.372   3.487   1.439 -0.8170  0.0241 -0.1573
 2593TIP3   OH229413   5.169   0.120   3.844 -0.1877  0.0322  0.3496
 2593TIP3    H129414   5.232   0.119   3.772  1.7784  2.4837  1.8428
 2593TIP3    H229415   5.191   0.043   3.897  2.5428  1.4384  1.4794
 2594TIP3   OH229416   6.400   5.028   0.978  0.1792  0.0253 -0.0832
 2594TIP3    H129417   6.309   5.039   1.006  0.6232  1.6332  0.8231
 2594TIP3    H229418   6.417   5.103   0.921  0.8912 -0.3572 -0.3906
 2595TIP3   OH229419   3.444   6.188   3.533 -0.0919 -0.2042  0.0672
 2595TIP3    H129420   3.368   6.182   3.476 -0.0820  1.4628 -0.1617
 2595TIP3    H229421   3.510   6.133   3.492 -1.0913 -1.5353  0.1778
 2596TIP3   OH229422   0.820   3.060   8.046 -0.7501 -0.7115  0.3529
 2596TIP3    H129423   0.779   3.121   7.985  0.1866 -0.0639  0.3606
 2596TIP3    H229424   0.878   3.114   8.099 -0.9100 -1.4008  1.2568
 2597TIP3   OH229425   4.656   2.460   1.208 -0.1089  0.2738  0.0049
 2597TIP3    H129426   4.606   2.489   1.132  0.3079  3.1523  0.7290
 2597TIP3    H229427   4.746   2.485   1.188  0.2889 -0.5316  0.7347
 2598TIP3   OH229428   4.637   6.061   2.431  0.1948 -0.0192  0.1509
 2598TIP3    H129429   4.675   5.999   2.368  0.5469  0.4100 -0.0697
 2598TIP3    H229430   4.712   6.114   2.460 -0.3154  1.2415 -0.7396
 2599TIP3   OH229431   6.646   6.005   0.754  0.2556 -0.1667 -0.2897
 2599TIP3    H129432   6.572   6.058   0.785 -0.2015 -1.0976  0.2555
 2599TIP3    H229433   6.714   6.069   0.734 -0.3775  0.6481  0.0806
 2600TIP3   OH229434   5.853   3.927   8.032  0.3029 -0.2556  0.0701
 2600TIP3    H129435   5.946   3.942   8.014  0.0327 -0.3385 -1.5148
 2600TIP3    H229436   5.815   3.905   7.947 -1.6326  2.1507  0.2002
 2601TIP3   OH229437   3.711   1.212   7.870  0.2115 -0.6067 -0.3976
 2601TIP3    H129438   3.754   1.231   7.954 -1.9933 -0.6115  0.8117
 2601TIP3    H229439   3.629   1.260   7.875  0.8922  1.1254 -3.4928
 2602TIP3   OH229440   2.599   7.003   1.608 -0.0629  0.1053  0.2621
 2602TIP3    H129441   2.599   7.093   1.576 -1.1479  0.0945  0.2194
 2602TIP3    H229442   2.579   6.950   1.531  1.4525 -0.2621  0.0907
 2603TIP3   OH229443   1.631   7.068   0.459  0.6004  0.6819 -0.3006
 2603TIP3    H129444   1.659   7.156   0.483  1.2046  0.7973 -1.3537
 2603TIP3    H229445   1.601   7.077   0.368 -0.1349 -0.0294 -0.1379
 2604TIP3   OH229446   3.079   4.564   1.613 -0.7222 -0.2931 -0.5811
 2604TIP3    H129447   3.082   4.486   1.668  0.8981  0.2272  0.1280
 2604TIP3    H229448   3.082   4.530   1.523  1.5903 -1.0734 -0.2769
 2605TIP3   OH229449   3.365   6.446   2.237  0.2108  0.6812  0.5651
 2605TIP3    H129450   3.388   6.483   2.322  2.4118  0.3249  0.1692
 2605TIP3    H229451   3.397   6.356   2.240 -0.1021  0.5148 -0.4921
 2606TIP3   OH229452   3.481   1.736   1.056  0.0427  0.2254  0.4623
 2606TIP3    H129453   3.575   1.730   1.072  0.0244  0.2165  0.5700
 2606TIP3    H229454   3.446   1.776   1.136 -0.2482 -1.1974  1.0819
 2607TIP3   OH229455   2.637   3.816   7.987 -0.5529 -0.2835  0.1755
 2607TIP3    H129456   2.561   3.866   7.956 -0.0320  0.4994  0.1489
 2607TIP3    H229457   2.636   3.736   7.935 -0.6263  0.2940 -0.7312
 2608TIP3   OH229458   4.535   0.179   1.476 -0.5853  0.2165 -0.0094
 2608TIP3    H129459   4.548   0.215   1.564  1.0421  0.0016 -0.1239
 2608TIP3    H229460   4.535   0.084   1.489  0.1248  0.1752 -0.2919
 2609TIP3   OH229461   0.319   3.933   8.219  0.4435  0.0398  0.4139
 2609TIP3    H129462   0.289   3.969   8.303  2.2346  0.1744  1.0479
 2609TIP3    H229463   0.246   3.948   8.160 -0.8756 -0.0494  1.9382
 2610TIP3   OH229464   6.409   1.039   1.662  0.5160  0.9032 -0.2256
 2610TIP3    H129465   6.434   1.129   1.681  2.0073  0.4713 -0.0330
 2610TIP3    H229466   6.465   0.985   1.719 -2.2248 -0.1141  1.7224
 2611TIP3   OH229467   3.046   5.294   2.432  0.2437  0.3350 -0.7559
 2611TIP3    H129468   3.094   5.263   2.355 -0.6783 -1.7482 -0.5515
 2611TIP3    H229469   2.978   5.229   2.445  0.2957  0.7070  1.7555
 2612TIP3   OH229470   5.544   2.933   0.153  0.1682  0.0167  0.9142
 2612TIP3    H129471   5.528   3.012   0.100  1.7029 -0.6406 -0.6236
 2612TIP3    H229472   5.627   2.899   0.120 -0.2168 -1.9801  1.8796
 2613TIP3   OH229473   5.449   0.153   1.101  0.6825  0.0168 -0.0939
 2613TIP3    H129474   5.499   0.150   1.019  0.1271  1.5140 -0.5130
 2613TIP3    H229475   5.499   0.212   1.157 -0.0572  0.6951 -0.1373
 2614TIP3   OH229476   1.248   2.405   7.156  0.3423 -0.7435  0.0734
 2614TIP3    H129477   1.334   2.377   7.124  0.2408  0.6048 -1.5480
 2614TIP3    H229478   1.200   2.324   7.173  1.3447 -1.5099 -0.6935
 2615TIP3   OH229479   0.646   5.937   1.945 -0.5728 -0.5077 -0.4051
 2615TIP3    H129480   0.730   5.974   1.972  0.7959 -0.8806 -3.6533
 2615TIP3    H229481   0.588   6.013   1.936  0.1788  0.0676 -0.4923
 2616TIP3   OH229482   4.530   0.784   1.204 -0.1576 -0.3031 -0.1856
 2616TIP3    H129483   4.560   0.829   1.125 -0.1944 -0.8123 -0.4904
 2616TIP3    H229484   4.546   0.847   1.274 -0.1456  0.1628 -0.5981
 2617TIP3   OH229485   0.707   4.368   0.063  0.3297  0.1907 -0.1184
 2617TIP3    H129486   0.654   4.317   0.002  0.6574  1.4032 -1.4658
 2617TIP3    H229487   0.698   4.322   0.147 -1.0929 -0.8378 -0.7968
 2618TIP3   OH229488   6.770   1.511   0.501 -1.0397 -0.4877  0.1170
 2618TIP3    H129489   6.832   1.446   0.469 -1.1431 -0.3738 -0.3232
 2618TIP3    H229490   6.763   1.494   0.595 -1.6779 -1.6272 -0.1269
 2619TIP3   OH229491   1.350   2.877   0.604 -0.1645  0.3966 -0.1849
 2619TIP3    H129492   1.328   2.831   0.523 -0.5887 -0.2092  0.2586
 2619TIP3    H229493   1.420   2.825   0.643  0.3714  0.9603 -0.4034
 2620TIP3   OH229494   1.236   2.296   3.045  0.0934 -1.1983  0.9782
 2620TIP3    H129495   1.303   2.264   3.104  0.8976 -1.1844  0.1006
 2620TIP3    H229496   1.156   2.300   3.098  0.7375 -1.4033  1.9782
 2621TIP3   OH229497   1.202   4.030   2.608 -0.6156  0.7746 -0.1969
 2621TIP3    H129498   1.163   3.988   2.685  1.7393  0.1317  0.7262
 2621TIP3    H229499   1.194   4.124   2.627 -0.9252  0.6450  0.3564
 2622TIP3   OH229500   1.253   1.734   7.431  0.1639 -0.1144  0.8163
 2622TIP3    H129501   1.305   1.804   7.391 -0.9361 -0.7272 -1.8530
 2622TIP3    H229502   1.162   1.763   7.422 -0.6749 -3.2122 -3.6327
 2623TIP3   OH229503   3.963   0.045   0.523 -0.2591  0.6070 -0.0922
 2623TIP3    H129504   3.924  -0.017   0.461  0.6908  0.7452 -0.8499
 2623TIP3    H229505   4.048   0.066   0.485  0.1971  0.9663  1.0974
 2624TIP3   OH229506   0.353   6.919   2.698 -0.1485 -0.5410  0.2426
 2624TIP3    H129507   0.427   6.926   2.638 -2.2196  0.9429 -2.3945
 2624TIP3    H229508   0.288   6.868   2.649 -2.5555  2.1059  0.4414
 2625TIP3   OH229509   4.744   6.684   1.423 -0.2596  0.7243 -0.3772
 2625TIP3    H129510   4.784   6.650   1.503 -0.7073  0.1409 -0.3967
 2625TIP3    H229511   4.740   6.778   1.436 -0.7206  0.5922  0.4700
 2626TIP3   OH229512   4.673   1.680   7.414 -0.1475  0.4779 -0.5065
 2626TIP3    H129513   4.637   1.738   7.481 -2.7008 -0.4966 -0.9290
 2626TIP3    H229514   4.767   1.677   7.432 -0.6164  0.9955  2.4195
 2627TIP3   OH229515   4.124   1.960   1.532  0.1080 -0.7574  0.5694
 2627TIP3    H129516   4.141   2.011   1.453  0.5534 -0.5141  0.8174
 2627TIP3    H229517   4.098   1.874   1.499  0.0378 -0.5822  0.1548
 2628TIP3   OH229518   3.088   4.930   3.425  0.2653  0.4841  0.0921
 2628TIP3    H129519   3.122   5.011   3.462  2.5083 -0.0147 -0.6808
 2628TIP3    H229520   3.128   4.861   3.479 -0.4429 -0.1407 -0.1617
 2629TIP3   OH229521   5.970   6.842   0.266 -0.4936 -0.8389 -0.6044
 2629TIP3    H129522   5.883   6.845   0.306 -0.0872  0.8875  0.2566
 2629TIP3    H229523   6.025   6.798   0.331 -0.1743  0.5378  0.1010
 2630TIP3   OH229524   3.615   0.642   0.414 -0.6261  0.2400  0.5233
 2630TIP3    H129525   3.578   0.567   0.461 -0.7875  0.1736  0.2896
 2630TIP3    H229526   3.558   0.654   0.338 -2.1370  2.1574  1.8584
 2631TIP3   OH229527   4.938   4.987   2.519  0.1821 -0.3441 -0.2562
 2631TIP3    H129528   4.960   5.012   2.430  1.0218  0.8629  0.2632
 2631TIP3    H229529   4.903   5.067   2.559  0.5256 -0.6627  0.7102
 2632TIP3   OH229530   4.169   6.961   2.168 -0.5621 -0.2912 -0.2117
 2632TIP3    H129531   4.127   7.023   2.228  0.9399  0.3535  0.2345
 2632TIP3    H229532   4.186   6.884   2.222  0.6512  0.2318  0.1919
 2633TIP3   OH229533   3.715   5.139   0.295 -0.0829  0.1670 -0.1524
 2633TIP3    H129534   3.799   5.108   0.261 -0.3312  1.1201 -1.7736
 2633TIP3    H229535   3.721   5.235   0.289 -1.1647  0.2551 -0.0048
 2634TIP3   OH229536   1.361   6.091   2.845 -0.2235 -0.3120  0.2922
 2634TIP3    H129537   1.407   6.045   2.916  0.0303 -0.0900  0.2734
 2634TIP3    H229538   1.423   6.092   2.773 -0.2267  0.0618  0.2942
 2635TIP3   OH229539   3.170   5.718   3.938  0.5073  0.1828 -0.0638
 2635TIP3    H129540   3.086   5.703   3.982 -0.4761  1.8607 -1.2874
 2635TIP3    H229541   3.192   5.809   3.958  1.3486  0.1724 -0.8755
 2636TIP3   OH229542   3.895   5.233   2.986 -0.3723 -0.3324 -0.2865
 2636TIP3    H129543   3.980   5.225   2.944 -0.0705  1.3056 -0.0587
 2636TIP3    H229544   3.904   5.183   3.067 -0.0071 -1.1066 -0.8008
 2637TIP3   OH229545   4.428   2.899   8.192 -0.6783  0.2667 -0.4068
 2637TIP3    H129546   4.509   2.877   8.146 -1.1740 -0.9813 -0.7176
 2637TIP3    H229547   4.358   2.877   8.130 -1.2916  0.3828  0.2284
 2638TIP3   OH229548   6.805   6.790   0.919  0.6278  0.2034 -0.1541
 2638TIP3    H129549   6.797   6.786   1.014  1.3112 -0.6546 -0.1175
 2638TIP3    H229550   6.841   6.705   0.894 -0.0357  0.2195 -1.2398
 2639TIP3   OH229551   6.456   0.911   2.055 -0.1466 -0.9240  0.5087
 2639TIP3    H129552   6.386   0.976   2.052  0.0148 -0.7460 -1.7614
 2639TIP3    H229553   6.495   0.921   2.141 -0.9447  1.1283  0.6948
 2640TIP3   OH229554   1.865   5.470   1.294  0.6631 -0.1502  0.0207
 2640TIP3    H129555   1.827   5.383   1.280 -0.2627  0.5093 -1.9452
 2640TIP3    H229556   1.884   5.502   1.205 -0.1155  2.1090  0.6022
 2641TIP3   OH229557   5.154   1.907   0.832  0.1805 -0.1271 -0.2066
 2641TIP3    H129558   5.071   1.904   0.785  0.0301  0.0740  0.0448
 2641TIP3    H229559   5.190   1.993   0.810  0.7527 -0.5651 -1.0444
 2642TIP3   OH229560   5.586   5.843   0.345 -0.5564  0.3876  0.1482
 2642TIP3    H129561   5.496   5.853   0.375  0.1668  1.2509  2.1908
 2642TIP3    H229562   5.617   5.763   0.388 -0.1969  0.3551 -0.1643
 2643TIP3   OH229563   6.673   4.221   0.599  0.5870 -0.1138  0.2415
 2643TIP3    H129564   6.609   4.201   0.666 -1.4699  2.3372 -0.8254
 2643TIP3    H229565   6.626   4.210   0.516  1.9827  0.2775 -0.6399
 2644TIP3   OH229566   3.151   7.068   7.828 -0.3772  0.3685 -0.1700
 2644TIP3    H129567   3.216   6.999   7.842 -0.7885 -0.2410 -1.1133
 2644TIP3    H229568   3.203   7.146   7.809  0.1021  0.4976  1.5745
 2645TIP3   OH229569   6.363   4.722   7.160 -0.0258 -0.1282 -0.6703
 2645TIP3    H129570   6.418   4.759   7.229  0.4004 -0.1705 -0.9795
 2645TIP3    H229571   6.277   4.761   7.174  0.2251  0.3845 -0.5184
 2646TIP3   OH229572   7.000   4.443   2.528  0.4462  0.3887  0.0045
 2646TIP3    H129573   7.042   4.405   2.605  0.3983  0.1009 -0.1129
 2646TIP3    H229574   6.940   4.509   2.563  0.1201 -0.0273  0.2355
 2647TIP3   OH229575   1.635   6.480   0.322 -0.3720 -0.1419 -0.7396
 2647TIP3    H129576   1.556   6.534   0.321  0.1857  0.6954 -0.7814
 2647TIP3    H229577   1.687   6.513   0.249 -0.2515 -1.1195 -1.1183
 2648TIP3   OH229578   0.475   6.323   1.429 -0.2918 -0.0725 -0.0309
 2648TIP3    H129579   0.538   6.251   1.438 -0.1870  0.0547  0.2767
 2648TIP3    H229580   0.410   6.306   1.497 -0.1366  0.2534  0.1999
 2649TIP3   OH229581   3.962   0.753   7.272 -0.0908  0.0028  0.2531
 2649TIP3    H129582   3.909   0.710   7.205  1.5512 -0.7500 -0.6289
 2649TIP3    H229583   3.991   0.834   7.231 -0.3018  0.2663  0.6182
 2650TIP3   OH229584   6.781   3.312   2.735 -0.2379  0.3886 -0.1509
 2650TIP3    H129585   6.720   3.299   2.663  0.4867 -2.0294 -0.4145
 2650TIP3    H229586   6.859   3.350   2.694  0.2196 -1.0937 -0.7036
 2651TIP3   OH229587   5.103   3.396   1.627 -0.4413  0.1135 -0.4964
 2651TIP3    H129588   5.177   3.366   1.680 -1.3746 -1.6899 -0.1258
 2651TIP3    H229589   5.079   3.319   1.575 -2.7625  0.2871  0.2279
 2652TIP3   OH229590   4.069   7.029   1.899 -0.5669  0.1711  0.5366
 2652TIP3    H129591   4.098   6.986   1.980  3.3633  0.5323 -0.4705
 2652TIP3    H229592   4.066   6.958   1.835 -1.7495  0.2137  0.5269
 2653TIP3   OH229593   3.710   5.129   7.596  0.3326  0.0765 -0.2324
 2653TIP3    H129594   3.695   5.200   7.533  0.1687  0.1960 -0.0599
 2653TIP3    H229595   3.690   5.168   7.681  1.6008  0.2441  0.0142
 2654TIP3   OH229596   5.798   0.418   7.990 -0.2218 -0.2032 -0.3058
 2654TIP3    H129597   5.812   0.465   7.908 -2.7329  0.5960 -0.3516
 2654TIP3    H229598   5.718   0.368   7.976 -0.1477 -0.8535  1.3455
 2655TIP3   OH229599   6.787   0.871   8.151 -0.7061 -0.1438 -0.1754
 2655TIP3    H129600   6.787   0.938   8.220  1.7083  1.4455 -1.5683
 2655TIP3    H229601   6.694   0.863   8.127 -1.4783  0.1409  2.3401
 2656TIP3   OH229602   4.713   3.775   7.461  0.0257 -0.0538 -0.4098
 2656TIP3    H129603   4.687   3.694   7.505  1.1868  0.5909  1.6276
 2656TIP3    H229604   4.631   3.817   7.437 -0.6399 -0.9831  0.1774
 2657TIP3   OH229605   3.385   6.624   3.205 -0.2177 -0.0956 -0.2304
 2657TIP3    H129606   3.391   6.610   3.299 -1.0706  0.0132 -0.1501
 2657TIP3    H229607   3.434   6.551   3.167 -0.4774 -0.5476  0.2846
 2658TIP3   OH229608   2.498   3.550   2.265  0.3082 -0.6305 -0.3438
 2658TIP3    H129609   2.565   3.501   2.313  1.2243  1.1781  0.3031
 2658TIP3    H229610   2.415   3.514   2.296  0.8727 -3.5190 -1.7654
 2659TIP3   OH229611   1.299   1.887   3.294 -0.4147 -0.0143  0.0427
 2659TIP3    H129612   1.222   1.863   3.346 -1.0628  0.3990 -0.7043
 2659TIP3    H229613   1.306   1.982   3.304  0.0124 -0.0515  0.1176
 2660TIP3   OH229614   3.590   1.101   0.557  0.0607 -0.2262 -0.1364
 2660TIP3    H129615   3.671   1.107   0.507  0.7585  0.1185  0.9933
 2660TIP3    H229616   3.555   1.190   0.558 -0.0891 -0.2840 -0.2321
 2661TIP3   OH229617   1.176   6.540   0.057 -0.7981  0.9477 -0.4268
 2661TIP3    H129618   1.234   6.616   0.051  0.6092 -0.1502 -1.2356
 2661TIP3    H229619   1.225   6.476   0.108 -0.9805 -0.2395 -1.6612
 2662TIP3   OH229620   2.998   5.628   2.606 -0.2041 -0.1493 -0.5044
 2662TIP3    H129621   3.093   5.616   2.604  0.1257  1.8395  0.4665
 2662TIP3    H229622   2.970   5.579   2.684  0.2714  0.5342  0.1135
 2663TIP3   OH229623   5.646   5.605   1.873  0.2700  0.2830 -0.1312
 2663TIP3    H129624   5.700   5.547   1.821  0.3932 -1.4231  1.7477
 2663TIP3    H229625   5.676   5.693   1.851  1.4447 -0.4460 -1.6168
 2664TIP3   OH229626   1.211   2.527   2.246 -0.1357  0.2462 -0.1925
 2664TIP3    H129627   1.280   2.473   2.286 -1.4435 -0.5976  1.0175
 2664TIP3    H229628   1.243   2.617   2.255  0.3095 -0.0348  1.4081
 2665TIP3   OH229629   3.606   2.240   1.694  0.1238  0.1665 -0.2642
 2665TIP3    H129630   3.608   2.174   1.763 -2.1307  1.8705  1.5926
 2665TIP3    H229631   3.530   2.218   1.642  0.3395  0.3422 -0.6554
 2666TIP3   OH229632   5.196   6.435   1.644 -0.1966 -0.5476 -1.0386
 2666TIP3    H129633   5.258   6.455   1.714 -0.1032 -0.6674 -1.0879
 2666TIP3    H229634   5.112   6.427   1.690 -0.2756  0.1548 -1.0419
 2667TIP3   OH229635   4.238   6.572   0.816  0.6584 -0.1564 -0.4400
 2667TIP3    H129636   4.178   6.642   0.843  0.1909 -0.5462 -0.4703
 2667TIP3    H229637   4.243   6.579   0.721 -0.1934 -0.8159 -0.5372
 2668TIP3   OH229638   3.165   5.159   3.580  0.1064  0.1278 -0.1252
 2668TIP3    H129639   3.138   5.246   3.611 -1.1425 -0.3832  0.2707
 2668TIP3    H229640   3.260   5.165   3.572 -0.0864  2.1362 -1.9083
 2669TIP3   OH229641   6.369   1.114   0.798 -0.2838  0.4614 -0.0819
 2669TIP3    H129642   6.410   1.078   0.719  0.0971 -0.5729  0.5622
 2669TIP3    H229643   6.382   1.046   0.864 -1.9108  0.6616  0.4865
 2670TIP3   OH229644   7.023   0.640   7.581  0.1718  0.3343  0.0966
 2670TIP3    H129645   7.077   0.707   7.623 -1.2639  2.0087 -0.6359
 2670TIP3    H229646   6.934   0.662   7.606 -0.3528 -1.2743 -0.2398
 2671TIP3   OH229647   0.785   2.250   1.852  0.7965  0.2806 -0.2372
 2671TIP3    H129648   0.851   2.186   1.827  0.3586  0.1637 -1.1378
 2671TIP3    H229649   0.772   2.303   1.773 -0.9468 -0.3722 -0.4364
 2672TIP3   OH229650   6.258   1.014   2.707  0.4601 -0.0308 -0.4345
 2672TIP3    H129651   6.171   1.051   2.724  0.9030  0.1925  1.5237
 2672TIP3    H229652   6.241   0.922   2.690 -0.1378 -0.0767  0.3467
 2673TIP3   OH229653   0.007   6.800   2.092  0.5337 -0.3811 -0.0956
 2673TIP3    H129654  -0.071   6.832   2.137 -0.7488 -1.7702 -1.2017
 2673TIP3    H229655   0.058   6.879   2.073 -0.7736  0.6084  0.3610
 2674TIP3   OH229656   4.949   6.750   8.001 -0.4539 -0.0750 -0.2505
 2674TIP3    H129657   4.912   6.697   7.930 -2.9696  1.7185 -0.4495
 2674TIP3    H229658   4.911   6.713   8.080  1.3651 -1.2868  0.1188
 2675TIP3   OH229659   2.126   1.835   2.510 -0.0183 -0.1308 -0.4663
 2675TIP3    H129660   2.190   1.899   2.542 -0.5792  0.1662  0.1013
 2675TIP3    H229661   2.108   1.780   2.587  2.8358 -3.0760 -1.6834
 2676TIP3   OH229662   5.854   0.757   2.054  0.4417  0.0737 -0.8318
 2676TIP3    H129663   5.938   0.777   2.096  0.0333 -1.7752  1.0213
 2676TIP3    H229664   5.876   0.692   1.987  0.6944  0.9580 -1.6422
 2677TIP3   OH229665   7.007   4.757   1.023  0.0426 -0.3779  0.2177
 2677TIP3    H129666   6.971   4.800   0.946  1.2840  1.7701  0.7405
 2677TIP3    H229667   7.086   4.713   0.991  0.2695  0.0631  0.1684
 2678TIP3   OH229668   1.760   5.342   3.034 -0.3538  0.1986  0.0762
 2678TIP3    H129669   1.752   5.289   2.954  1.8409 -0.1916  0.0539
 2678TIP3    H229670   1.722   5.288   3.103 -0.2368 -0.4227 -0.3396
 2679TIP3   OH229671   2.488   5.649   3.401  0.2504  0.2306  0.2307
 2679TIP3    H129672   2.392   5.647   3.396  0.2283 -0.5582  0.7370
 2679TIP3    H229673   2.517   5.643   3.310 -0.1756  2.1986 -0.0730
 2680TIP3   OH229674   5.382   4.284   3.337  0.1401 -0.4850  0.2336
 2680TIP3    H129675   5.347   4.249   3.419 -1.7731 -0.0606 -0.3578
 2680TIP3    H229676   5.328   4.361   3.318  0.9657 -0.1989 -1.1006
 2681TIP3   OH229677   6.097   0.047   1.843 -0.1404  0.1354 -0.2014
 2681TIP3    H129678   6.064  -0.038   1.816 -0.9236  0.1609  0.6486
 2681TIP3    H229679   6.137   0.083   1.764  0.2072 -1.0162 -0.5678
 2682TIP3   OH229680   4.983   0.824   2.820  0.2564 -0.1892 -0.3806
 2682TIP3    H129681   4.922   0.883   2.865 -1.8025 -2.1022 -0.5098
 2682TIP3    H229682   4.933   0.744   2.806  2.9958 -2.0985 -0.0122
 2683TIP3   OH229683   4.812   3.326   1.779 -0.3875 -0.0820  0.0495
 2683TIP3    H129684   4.820   3.414   1.815 -0.4463 -0.4656  1.0340
 2683TIP3    H229685   4.877   3.322   1.709 -1.5047  1.2794 -1.1341
 2684TIP3   OH229686   4.906   5.496   8.214 -0.1021  0.6192  0.2687
 2684TIP3    H129687   4.838   5.513   8.149  0.4047 -0.2291 -0.5055
 2684TIP3    H229688   4.988   5.509   8.167  0.2739 -0.1536  0.6880
 2685TIP3   OH229689   2.334   1.772   1.326 -0.2932 -0.2347  0.1836
 2685TIP3    H129690   2.361   1.861   1.346  1.6669 -0.5974 -0.6127
 2685TIP3    H229691   2.411   1.732   1.286 -1.5153 -1.9144 -0.6219
 2686TIP3   OH229692   3.666   5.392   7.813  0.3074  0.4118 -0.2268
 2686TIP3    H129693   3.645   5.315   7.866 -0.1812 -0.7918 -2.0667
 2686TIP3    H229694   3.585   5.413   7.768  0.5541  1.7817 -0.0802
 2687TIP3   OH229695   3.539   4.591   0.006  0.2146 -0.6222  0.2735
 2687TIP3    H129696   3.485   4.526  -0.039  0.4178 -0.5809 -0.0270
 2687TIP3    H229697   3.597   4.539   0.062  0.3101 -0.6975  0.1065
 2688TIP3   OH229698   1.035   5.819   2.164  0.1899 -0.1451 -0.5875
 2688TIP3    H129699   1.000   5.893   2.116 -1.3250 -0.7794 -0.5185
 2688TIP3    H229700   1.071   5.761   2.097 -0.4139 -0.2574 -0.8202
 2689TIP3   OH229701   2.387   4.826   0.988 -0.0131  0.1944  0.4331
 2689TIP3    H129702   2.304   4.806   1.032  0.5520 -0.8481  1.0766
 2689TIP3    H229703   2.369   4.905   0.938 -1.4940 -0.1947  0.2993
 2690TIP3   OH229704   2.416   0.887   0.772 -0.3530 -0.0710  0.1494
 2690TIP3    H129705   2.489   0.949   0.779 -0.5846  0.0943  1.2283
 2690TIP3    H229706   2.442   0.827   0.702  2.2909 -1.9472  2.5690
 2691TIP3   OH229707   5.153   4.928   1.940  0.2867  0.2322 -0.0192
 2691TIP3    H129708   5.063   4.952   1.961  0.3269 -0.5188  1.1274
 2691TIP3    H229709   5.205   4.963   2.012  0.6686 -0.8966  0.2758
 2692TIP3   OH229710   3.061   1.775   1.410 -0.0258  0.0324 -0.1219
 2692TIP3    H129711   3.100   1.732   1.486  0.6537  1.5715  0.4435
 2692TIP3    H229712   3.076   1.714   1.338 -2.0086 -2.1685  1.1841
 2693TIP3   OH229713   3.619   1.270   7.535  0.0830 -0.1336  0.8014
 2693TIP3    H129714   3.550   1.286   7.470  0.9378 -1.9320 -0.6270
 2693TIP3    H229715   3.689   1.331   7.510  0.5436 -1.0506 -0.2274
 2694TIP3   OH229716   1.599   6.487   3.357 -0.4907 -0.1308  0.1833
 2694TIP3    H129717   1.567   6.428   3.426 -1.6380  0.6360  0.3426
 2694TIP3    H229718   1.615   6.570   3.402  1.1438 -0.3068 -0.0358
 2695TIP3   OH229719   5.437   4.595   0.529 -0.4241  0.2661  0.2763
 2695TIP3    H129720   5.442   4.647   0.609 -1.1031  0.6856  0.0545
 2695TIP3    H229721   5.361   4.629   0.483 -0.3265 -0.3000 -0.3214
 2696TIP3   OH229722   4.124   6.280   1.389  0.5552 -0.0388  0.1940
 2696TIP3    H129723   4.156   6.247   1.473  0.0256 -0.5753  0.1882
 2696TIP3    H229724   4.201   6.277   1.332  0.4753 -1.5045  0.1258
 2697TIP3   OH229725   0.707   3.202   1.948 -0.3243  0.1580  0.1809
 2697TIP3    H129726   0.706   3.294   1.925 -4.7388  0.1073 -0.6589
 2697TIP3    H229727   0.691   3.201   2.043  1.8471  0.1561  0.6085
 2698TIP3   OH229728   0.697   3.145   2.984 -0.3319 -0.0954  0.0527
 2698TIP3    H129729   0.708   3.145   2.889  1.3830 -1.2189  0.2112
 2698TIP3    H229730   0.697   3.238   3.008  0.9645  0.1739 -0.8915
 2699TIP3   OH229731   1.261   5.915   2.280 -0.1590  0.5732 -0.2634
 2699TIP3    H129732   1.178   5.874   2.257 -0.4843  1.7608 -1.2548
 2699TIP3    H229733   1.284   5.875   2.364  0.4385 -2.9552 -1.9149
 2700TIP3   OH229734   0.409   6.613   1.512 -0.0061  0.2085  0.3747
 2700TIP3    H129735   0.485   6.554   1.508 -0.0457 -0.0569  2.5601
 2700TIP3    H229736   0.446   6.696   1.542 -0.4367  0.3603  0.4831
 2701TIP3   OH229737   6.276   2.014   2.025  0.3473  0.0963  0.4670
 2701TIP3    H129738   6.296   1.924   2.000  0.0269 -0.0217  0.6395
 2701TIP3    H229739   6.216   2.006   2.099 -0.3658  0.4521 -0.0639
 2702TIP3   OH229740   6.514   1.627   1.771  0.6044 -0.7949  0.1231
 2702TIP3    H129741   6.434   1.675   1.750  0.3505 -0.5291  1.5916
 2702TIP3    H229742   6.584   1.691   1.758  0.7206 -1.3336 -2.2047
 2703TIP3   OH229743   2.279   1.034   2.312 -0.1632  0.3719 -0.3335
 2703TIP3    H129744   2.365   1.014   2.349 -0.7277  0.0526  0.8749
 2703TIP3    H229745   2.223   0.962   2.343 -0.9783  0.8456 -0.6811
 2704TIP3   OH229746   2.273   1.502   1.108  0.6267  0.1650  0.3256
 2704TIP3    H129747   2.250   1.472   1.020  0.8785  0.2959  0.2144
 2704TIP3    H229748   2.219   1.580   1.123  1.7307  1.0814 -0.3394
 2705TIP3   OH229749   4.095   1.823   3.530  0.8486 -0.1401 -0.6245
 2705TIP3    H129750   4.153   1.898   3.519  0.3059  0.4327  0.3421
 2705TIP3    H229751   4.154   1.749   3.541  1.4807  0.6000  1.5894
 2706TIP3   OH229752   5.336   6.562   3.275 -0.0191 -0.1165  0.1418
 2706TIP3    H129753   5.296   6.613   3.345 -1.3354 -0.4153 -0.3594
 2706TIP3    H229754   5.363   6.480   3.316 -0.2474 -0.0490  0.4275
 2707TIP3   OH229755   5.035   0.292   1.867  0.0600  0.8331 -0.4124
 2707TIP3    H129756   5.014   0.356   1.934 -1.4838  0.5220 -0.5483
 2707TIP3    H229757   5.028   0.340   1.784 -0.9367  0.5634 -0.5036
 2708TIP3   OH229758   0.455   0.089   7.610  0.1865 -0.1062 -0.7564
 2708TIP3    H129759   0.393   0.035   7.560 -1.5521  1.3541 -0.2934
 2708TIP3    H229760   0.422   0.178   7.601  0.5011  0.3871  1.9268
 2709TIP3   OH229761   4.834   5.925   0.655 -0.2320  0.2241 -0.3755
 2709TIP3    H129762   4.740   5.928   0.638 -0.2804 -0.9272 -0.3874
 2709TIP3    H229763   4.842   5.873   0.735  0.3901  0.3516 -0.3515
 2710TIP3   OH229764   6.331   0.491   2.544 -0.0156 -0.1819 -0.2426
 2710TIP3    H129765   6.309   0.413   2.492 -1.4445  0.1032 -0.1056
 2710TIP3    H229766   6.418   0.472   2.580 -0.2432 -1.6117 -0.3887
 2711TIP3   OH229767   5.037   2.361   1.625 -0.0234  0.5396  1.2156
 2711TIP3    H129768   5.039   2.456   1.625  2.0166  0.6982 -2.8116
 2711TIP3    H229769   5.121   2.335   1.662  0.9458  0.5287 -0.8618
 2712TIP3   OH229770   4.416   3.917   1.162 -0.5275 -0.3160 -0.6779
 2712TIP3    H129771   4.356   3.859   1.209 -0.7593  0.7376  0.3828
 2712TIP3    H229772   4.492   3.924   1.220 -0.1578 -0.1848 -1.1716
 2713TIP3   OH229773   1.697   3.621   2.823 -0.0966 -0.0264 -0.0068
 2713TIP3    H129774   1.650   3.685   2.877  0.8507  0.1655  0.6300
 2713TIP3    H229775   1.736   3.561   2.887 -0.0408 -0.5711 -0.5510
 2714TIP3   OH229776   0.161   5.100   3.093  0.1249  0.5026 -0.4991
 2714TIP3    H129777   0.244   5.056   3.074  0.3259  0.3012  0.7404
 2714TIP3    H229778   0.104   5.078   3.019  1.1177  0.4840 -1.2642
 2715TIP3   OH229779   6.315   4.330   7.344  0.2343  0.1097  0.9671
 2715TIP3    H129780   6.383   4.396   7.338  1.2694 -1.0566 -1.1486
 2715TIP3    H229781   6.339   4.277   7.420  2.1194 -0.6812 -0.1306
 2716TIP3   OH229782   6.976   6.741   8.004  0.0253 -0.0780 -0.2476
 2716TIP3    H129783   7.056   6.734   7.953  0.0119 -1.2243 -0.1236
 2716TIP3    H229784   6.955   6.835   8.003  0.8974  0.1174 -0.9821
 2717TIP3   OH229785   2.655   4.139   7.066 -0.4872 -0.0813  0.1837
 2717TIP3    H129786   2.615   4.200   7.128 -0.1386 -0.7965  1.1340
 2717TIP3    H229787   2.714   4.086   7.119 -0.3537 -0.8676 -0.7246
 2718TIP3   OH229788   5.052   5.757   1.072 -0.5176  0.6755 -0.4774
 2718TIP3    H129789   5.068   5.683   1.131 -1.6201  1.0277  0.2860
 2718TIP3    H229790   5.139   5.792   1.053  0.1028 -1.1603 -1.3330
 2719TIP3   OH229791   6.649   2.184   2.631 -0.2005 -0.0312 -0.3086
 2719TIP3    H129792   6.696   2.176   2.714  0.3469  0.0589 -0.6081
 2719TIP3    H229793   6.560   2.153   2.651 -0.5840  1.6211  0.7315
 2720TIP3   OH229794   1.606   6.835   2.014 -0.5850  0.3848 -0.2116
 2720TIP3    H129795   1.583   6.866   1.926  0.3974  1.0592 -0.2402
 2720TIP3    H229796   1.655   6.907   2.053  1.3143 -0.9276 -0.0758
 2721TIP3   OH229797   5.452   3.077   1.927 -0.1074 -0.0665  0.5430
 2721TIP3    H129798   5.428   3.009   1.990 -0.8061  0.4327  0.8354
 2721TIP3    H229799   5.451   3.158   1.978 -2.5984  0.6388 -0.4583
 2722TIP3   OH229800   1.028   4.114   1.213  0.2928 -0.1327 -0.2250
 2722TIP3    H129801   1.001   4.113   1.121 -1.4126 -1.9883  0.2315
 2722TIP3    H229802   1.124   4.111   1.209  0.2465 -0.5964 -1.9455
 2723TIP3   OH229803   4.778   5.202   3.137 -0.1885 -0.1634 -0.5402
 2723TIP3    H129804   4.844   5.152   3.185 -0.6347  0.9707  1.3759
 2723TIP3    H229805   4.699   5.148   3.141  0.1271 -0.7013 -1.2664
 2724TIP3   OH229806   4.902   1.975   2.640  0.5025  0.4584 -0.4900
 2724TIP3    H129807   4.877   1.915   2.710 -1.2460  0.7508 -0.8399
 2724TIP3    H229808   4.980   2.019   2.674 -0.5386  0.9049  1.4613
 2725TIP3   OH229809   4.891   7.050   8.169 -0.5758  0.3591  0.0194
 2725TIP3    H129810   4.961   6.991   8.197 -1.3187 -1.4204 -1.6406
 2725TIP3    H229811   4.926   7.093   8.091  0.0541  2.3826  1.3632
 2726TIP3   OH229812   3.895   4.768   2.530 -0.5148  0.6641  0.5684
 2726TIP3    H129813   3.929   4.842   2.581  2.5171 -0.4565  0.3685
 2726TIP3    H229814   3.973   4.719   2.503 -2.2939 -1.5667 -0.9402
 2727TIP3   OH229815   6.757   5.501   3.320 -0.4856  0.1330  0.1697
 2727TIP3    H129816   6.674   5.481   3.277  0.9813 -0.2649 -2.7175
 2727TIP3    H229817   6.752   5.595   3.339 -0.8330  0.5555 -1.8609
 2728TIP3   OH229818   4.624   6.651   1.117  0.2770 -0.1587  0.6263
 2728TIP3    H129819   4.690   6.582   1.113 -1.3821 -1.7671 -0.6832
 2728TIP3    H229820   4.593   6.650   1.208  0.8849 -0.5144  0.8331
 2729TIP3   OH229821   3.214   6.668   0.685 -0.5577 -0.2621  0.6498
 2729TIP3    H129822   3.155   6.703   0.619  0.4411 -0.6448 -0.4743
 2729TIP3    H229823   3.261   6.744   0.718  0.6060 -0.3142 -0.7838
 2730TIP3   OH229824   6.470   3.092   0.785  0.1171  0.2260  0.3258
 2730TIP3    H129825   6.405   3.035   0.742 -0.8135  0.5436  1.2737
 2730TIP3    H229826   6.443   3.181   0.761  0.7807  0.3356 -0.0516
 2731TIP3   OH229827   0.054   1.221   3.594  0.3349 -0.4103  0.2836
 2731TIP3    H129828  -0.022   1.278   3.581  0.5376 -0.2805 -0.3841
 2731TIP3    H229829   0.073   1.226   3.687 -0.3711 -0.3057  0.4262
 2732TIP3   OH229830   5.960   6.200   2.718  0.3554  0.1826 -0.7381
 2732TIP3    H129831   6.002   6.253   2.651 -0.3406  1.1413 -0.4454
 2732TIP3    H229832   5.904   6.262   2.766 -0.4994 -0.8230 -0.3965
 2733TIP3   OH229833   2.300   0.230   0.731 -0.6722  0.1655  0.3713
 2733TIP3    H129834   2.216   0.216   0.686 -2.2581 -0.3195  3.2299
 2733TIP3    H229835   2.286   0.309   0.783  1.3713  1.1853 -0.5180
 2734TIP3   OH229836   3.510   2.354   0.467 -0.8803  0.0286  0.3770
 2734TIP3    H129837   3.538   2.318   0.383 -1.5936  1.0891 -0.3342
 2734TIP3    H229838   3.589   2.351   0.522  0.8342  3.0137 -1.5916
 2735TIP3   OH229839   1.286   3.169   1.970  0.1544 -0.3170  0.0935
 2735TIP3    H129840   1.333   3.126   1.898 -0.1201 -0.6478  0.1090
 2735TIP3    H229841   1.311   3.261   1.964  1.4195 -0.6112  0.5834
 2736TIP3   OH229842   1.588   3.223   7.510 -0.1262 -0.2238  0.3688
 2736TIP3    H129843   1.632   3.139   7.496 -0.5336 -0.5251  0.9062
 2736TIP3    H229844   1.553   3.246   7.424  0.7845 -0.1413  0.0026
 2737TIP3   OH229845   3.436   1.433   3.226  0.4493 -0.1155  0.6577
 2737TIP3    H129846   3.453   1.340   3.210  2.6451  0.5180 -1.3909
 2737TIP3    H229847   3.356   1.452   3.176  1.6593 -0.3545 -1.4998
 2738TIP3   OH229848   0.809   1.765   0.004 -0.1775 -0.6236 -0.0993
 2738TIP3    H129849   0.733   1.796  -0.046 -0.5256  0.2425  0.9284
 2738TIP3    H229850   0.830   1.838   0.062  0.8829 -1.2111  0.2700
 2739TIP3   OH229851   5.263   1.083   2.085 -0.3542  0.6352  0.0207
 2739TIP3    H129852   5.240   0.993   2.108  0.8306  0.0241 -1.0686
 2739TIP3    H229853   5.326   1.074   2.014  0.0530  2.3278  0.1301
 2740TIP3   OH229854   6.836   3.364   1.426  0.3305  0.5068  0.0002
 2740TIP3    H129855   6.799   3.433   1.372 -0.3504 -0.1248 -0.3572
 2740TIP3    H229856   6.931   3.372   1.414  0.2414  1.2019 -0.2501
 2741TIP3   OH229857   2.064   6.251   1.916 -0.1114  0.2331 -0.6998
 2741TIP3    H129858   2.148   6.234   1.959 -0.1596  0.4367 -0.5278
 2741TIP3    H229859   2.077   6.333   1.868 -0.0364 -0.0268 -1.1320
 2742TIP3   OH229860   0.572   4.135   0.911  0.1868  0.2480  0.3462
 2742TIP3    H129861   0.658   4.094   0.900  0.3510  0.4356  0.8764
 2742TIP3    H229862   0.589   4.209   0.969 -0.3244  0.3312  0.3927
 2743TIP3   OH229863   2.843   5.437   8.271 -0.2239  0.5827 -0.2087
 2743TIP3    H129864   2.810   5.517   8.231 -0.6408 -0.0862 -1.2496
 2743TIP3    H229865   2.937   5.452   8.280 -0.0167  0.5700 -1.9638
 2744TIP3   OH229866   4.204   3.550   8.240 -0.5089  0.4079  0.0001
 2744TIP3    H129867   4.111   3.561   8.221 -0.1160  2.3695 -0.9265
 2744TIP3    H229868   4.229   3.472   8.191 -1.7322 -0.4404  0.6467
 2745TIP3   OH229869   6.082   6.127   0.749  0.0554  0.1631  0.3555
 2745TIP3    H129870   6.083   6.155   0.657  1.1546  0.5033  0.4544
 2745TIP3    H229871   6.064   6.206   0.799  0.7452  0.2343  0.4993
 2746TIP3   OH229872   0.566   6.263   2.248 -0.5364  0.0987 -0.2355
 2746TIP3    H129873   0.593   6.199   2.314 -0.6146 -2.3874 -2.4469
 2746TIP3    H229874   0.510   6.324   2.296  0.6880 -0.6150  2.2963
 2747TIP3   OH229875   4.209   1.323   2.231 -0.0170 -0.1570 -0.4843
 2747TIP3    H129876   4.136   1.327   2.293 -0.6541 -0.6752 -1.1921
 2747TIP3    H229877   4.273   1.265   2.273  0.2311  0.7183  0.3775
 2748TIP3   OH229878   0.571   3.794   2.636 -0.8042  0.4590 -0.9167
 2748TIP3    H129879   0.571   3.887   2.661 -1.9457  0.2756 -0.1302
 2748TIP3    H229880   0.501   3.787   2.571 -0.1544  0.2964 -1.6001
 2749TIP3   OH229881   0.565   4.709   0.531  0.3390  0.2485 -0.0076
 2749TIP3    H129882   0.632   4.686   0.596  0.3190  0.4203  0.0740
 2749TIP3    H229883   0.610   4.768   0.470  0.3611  0.0792 -0.1575
 2750TIP3   OH229884   7.028   3.895   7.238 -0.1607 -0.1253 -0.2234
 2750TIP3    H129885   6.957   3.890   7.174  0.4596 -0.9224 -0.8696
 2750TIP3    H229886   6.985   3.880   7.322 -0.7920 -0.3909 -0.5875
 2751TIP3   OH229887   4.421   1.129   2.868  0.1830 -0.5963 -0.0139
 2751TIP3    H129888   4.395   1.054   2.814  3.5137 -1.5613 -0.5052
 2751TIP3    H229889   4.435   1.200   2.806 -1.3858  0.0001  0.2762
 2752TIP3   OH229890   3.793   0.687   7.838  0.3395 -0.6401 -0.2240
 2752TIP3    H129891   3.824   0.776   7.824 -0.1125 -0.3661  0.4611
 2752TIP3    H229892   3.730   0.672   7.768  0.4768 -0.4517 -0.3896
 2753TIP3   OH229893   3.255   4.017   0.503 -0.0872 -0.7758 -0.1199
 2753TIP3    H129894   3.214   4.031   0.418 -1.1395 -0.3276  0.4546
 2753TIP3    H229895   3.322   4.086   0.510 -0.8868  0.0011 -0.0326
 2754TIP3   OH229896   6.431   2.927   0.469  0.6201 -0.7508 -0.5249
 2754TIP3    H129897   6.351   2.958   0.510  0.8981 -0.5155 -0.1534
 2754TIP3    H229898   6.411   2.838   0.440  0.0751 -0.5226 -0.8675
 2755TIP3   OH229899   2.728   4.239   8.094 -0.3656  0.3512  0.7022
 2755TIP3    H129900   2.716   4.242   7.999 -1.9324  1.9258  0.8994
 2755TIP3    H229901   2.738   4.331   8.119 -0.1485 -0.0370  2.0961
 2756TIP3   OH229902   6.911   4.806   0.774 -0.5940  0.1947  0.1827
 2756TIP3    H129903   6.906   4.725   0.724 -0.7478  0.2001  0.1900
 2756TIP3    H229904   6.961   4.865   0.718 -0.1371 -0.0323  0.3483
 2757TIP3   OH229905   2.896   6.057   7.204 -0.3766 -0.1350 -0.4520
 2757TIP3    H129906   2.938   6.119   7.144 -0.4104  0.7846  0.4658
 2757TIP3    H229907   2.914   6.091   7.291 -0.8653 -1.1273  0.0542
 2758TIP3   OH229908   6.295   3.359   1.008 -0.0407  0.4710  0.4702
 2758TIP3    H129909   6.336   3.436   0.968  1.8656  0.7754  2.7915
 2758TIP3    H229910   6.246   3.319   0.936  1.3059  2.2120 -1.5691
 2759TIP3   OH229911   5.865   0.594   1.250 -0.3178  0.0758 -0.2294
 2759TIP3    H129912   5.889   0.507   1.280  0.9077  0.6952  0.6844
 2759TIP3    H229913   5.815   0.579   1.169 -1.0428 -1.4962  0.4637
 2760TIP3   OH229914   1.271   2.852   7.688 -0.1746 -0.4685  0.1028
 2760TIP3    H129915   1.323   2.782   7.648  0.0278  0.6730 -1.7918
 2760TIP3    H229916   1.281   2.839   7.782  2.6149 -1.0137 -0.1561
 2761TIP3   OH229917   2.044   4.408   2.093  0.0620  0.1230  0.2949
 2761TIP3    H129918   2.048   4.358   2.174 -3.1468 -1.0560 -0.1368
 2761TIP3    H229919   2.077   4.348   2.026 -0.7624 -0.2900  0.2428
 2762TIP3   OH229920   1.228   3.487   2.984  0.1062  0.0766  0.1978
 2762TIP3    H129921   1.242   3.477   3.078  0.6304 -1.9988 -0.0571
 2762TIP3    H229922   1.134   3.473   2.972  0.3513 -1.7445  0.2127
 2763TIP3   OH229923   3.308   1.289   1.847 -0.1445  0.5544  0.1648
 2763TIP3    H129924   3.254   1.223   1.802  1.3200 -1.3425  1.0491
 2763TIP3    H229925   3.396   1.251   1.847  0.3713  1.6247  2.4206
 2764TIP3   OH229926   3.635   1.655   1.444 -0.0413 -0.1427  0.1841
 2764TIP3    H129927   3.603   1.574   1.484  2.1284 -0.0068  2.4451
 2764TIP3    H229928   3.643   1.716   1.517 -0.2144  1.6619 -1.2410
 2765TIP3   OH229929   6.190   3.293   3.139  0.7093  0.6226 -0.5248
 2765TIP3    H129930   6.200   3.311   3.046  2.1396 -0.8151 -0.6930
 2765TIP3    H229931   6.222   3.204   3.150 -0.5965  0.2961  1.1632
 2766TIP3   OH229932   0.890   3.356   3.404  0.2302  0.6496  0.4834
 2766TIP3    H129933   0.907   3.383   3.494 -1.8425 -0.3806  1.2580
 2766TIP3    H229934   0.825   3.418   3.372 -1.5004 -0.8847  0.8784
 2767TIP3   OH229935   3.956   5.437   3.505  0.3302 -0.6291 -0.4954
 2767TIP3    H129936   3.866   5.433   3.538  0.0188  0.0401 -1.2248
 2767TIP3    H229937   3.968   5.355   3.458  1.0953 -2.0327  1.9745
 2768TIP3   OH229938   1.684   3.342   0.247 -0.0953  0.2576 -0.1088
 2768TIP3    H129939   1.765   3.338   0.196  0.5235 -1.3819  0.9418
 2768TIP3    H229940   1.625   3.280   0.205  0.7705 -1.8798  1.6624
 2769TIP3   OH229941   4.488   3.574   7.556 -0.4136 -0.1687 -0.0852
 2769TIP3    H129942   4.470   3.577   7.462  0.8713  1.2595 -0.3219
 2769TIP3    H229943   4.422   3.631   7.595 -0.1190  0.2984 -0.2706
 2770TIP3   OH229944   1.342   0.117   8.252 -0.4999 -0.6009  0.2961
 2770TIP3    H129945   1.359   0.120   8.158  0.4331  0.6622  0.4795
 2770TIP3    H229946   1.289   0.038   8.265 -0.3696 -0.9586 -1.2353
 2771TIP3   OH229947   3.370   1.115   3.778  0.2953  0.4551  0.0909
 2771TIP3    H129948   3.461   1.147   3.780  0.5963 -0.3845  0.7149
 2771TIP3    H229949   3.317   1.191   3.800  0.8753  0.8957 -0.0177
 2772TIP3   OH229950   4.458   0.744   1.830  0.0557  0.5814 -0.3044
 2772TIP3    H129951   4.416   0.829   1.821  0.8781  0.9199 -1.0968
 2772TIP3    H229952   4.391   0.681   1.805 -0.6586  0.9585  0.5967
 2773TIP3   OH229953   4.606   3.744   2.149  0.5478 -0.3187  0.8589
 2773TIP3    H129954   4.567   3.746   2.237  1.1638  0.9209  1.1193
 2773TIP3    H229955   4.629   3.835   2.130 -0.4013 -0.4187 -0.9914
 2774TIP3   OH229956   1.681   3.515   7.398  0.3740  1.2082 -0.3774
 2774TIP3    H129957   1.651   3.451   7.462 -1.4383  0.5098 -1.8222
 2774TIP3    H229958   1.686   3.597   7.447  2.6455  0.0485  1.4769
 2775TIP3   OH229959   2.029   1.646   2.870  0.0399  0.5713 -0.6421
 2775TIP3    H129960   1.995   1.641   2.959 -0.4837 -1.0899 -0.8940
 2775TIP3    H229961   2.117   1.683   2.880  1.0420 -1.9623  0.9326
 2776TIP3   OH229962   1.707   0.462   1.431 -0.2615 -0.1275 -0.6357
 2776TIP3    H129963   1.755   0.382   1.408  3.5618  1.5610  0.7120
 2776TIP3    H229964   1.683   0.500   1.347 -0.5862 -1.7763 -1.3332
 2777TIP3   OH229965   3.222   0.257   0.156 -0.2757 -0.1193  0.0475
 2777TIP3    H129966   3.217   0.330   0.217 -0.8629 -0.7719  0.8140
 2777TIP3    H229967   3.244   0.297   0.071 -1.0154  0.9863  0.3550
 2778TIP3   OH229968   1.452   3.100   0.503  0.2417 -0.2939  0.1172
 2778TIP3    H129969   1.417   3.016   0.533 -2.2834  0.6810  0.1639
 2778TIP3    H229970   1.472   3.148   0.584 -1.1346  0.2049  0.1901
 2779TIP3   OH229971   3.567   5.382   2.560  0.2646 -0.2526  0.6936
 2779TIP3    H129972   3.518   5.429   2.493 -0.3015 -0.0058  1.2667
 2779TIP3    H229973   3.647   5.355   2.517  1.3096  2.5183  0.7194
 2780TIP3   OH229974   1.970   2.799   3.127 -0.1506 -0.5190  0.5496
 2780TIP3    H129975   1.889   2.751   3.112 -0.9043  0.8829 -0.0876
 2780TIP3    H229976   2.020   2.744   3.186 -1.8150 -1.1633  1.4193
 2781TIP3   OH229977   5.223   4.020   1.626  0.8654  0.5144 -0.4887
 2781TIP3    H129978   5.219   3.925   1.630 -0.2225  0.5561 -0.2532
 2781TIP3    H229979   5.136   4.047   1.597  1.3454  1.4143 -1.1478
 2782TIP3   OH229980   6.479   4.575   8.076 -0.5835 -0.6722 -0.8279
 2782TIP3    H129981   6.504   4.499   8.024 -0.8352 -0.8230 -0.7237
 2782TIP3    H229982   6.391   4.556   8.108 -0.2435 -0.7938  0.0599
 2783TIP3   OH229983   5.120   4.845   2.228  0.0596  0.5005  0.0390
 2783TIP3    H129984   5.195   4.890   2.190  0.3014 -0.0159 -0.1015
 2783TIP3    H229985   5.156   4.797   2.303  0.4820 -2.1226 -1.7053
 2784TIP3   OH229986   2.492   0.771   0.345  0.8739 -0.3973 -0.2031
 2784TIP3    H129987   2.406   0.812   0.338  0.6168 -0.6969  1.0304
 2784TIP3    H229988   2.502   0.750   0.438  1.1402 -2.7752 -0.6818
 2785TIP3   OH229989   0.609   2.777   1.719 -0.9700 -0.3721  0.2071
 2785TIP3    H129990   0.633   2.800   1.809 -2.8646  0.7815  0.4866
 2785TIP3    H229991   0.654   2.843   1.665 -0.9322 -0.2147  0.4283
 2786TIP3   OH229992   1.817   1.155   2.412 -0.4662 -0.5499 -0.0177
 2786TIP3    H129993   1.758   1.210   2.361  0.3017  0.8284  0.5407
 2786TIP3    H229994   1.902   1.197   2.404  0.3124 -2.0625 -0.1467
 2787TIP3   OH229995   1.390   2.584   2.908 -0.1508 -0.0262  0.6630
 2787TIP3    H129996   1.371   2.676   2.892  0.2135  0.3160  2.0309
 2787TIP3    H229997   1.308   2.539   2.889 -0.6481  0.7138  0.9972
 2788TIP3   OH229998   5.536   5.016   1.607 -0.2856  0.2240  0.1012
 2788TIP3    H129999   5.464   4.996   1.547 -0.9779  2.0603  0.2350
 2788TIP3    H230000   5.611   4.966   1.573 -1.0119  0.1665 -1.4857
 2789TIP3   OH230001   1.467   6.384   1.688  0.0695 -0.4484 -0.0094
 2789TIP3    H130002   1.506   6.472   1.691  0.1153 -0.3584 -2.0717
 2789TIP3    H230003   1.433   6.376   1.599 -0.7512 -2.1962  0.4307
 2790TIP3   OH230004   5.043   6.707   7.627  0.2520 -0.3191 -0.3088
 2790TIP3    H130005   5.095   6.723   7.705 -0.4895 -0.2962  0.1874
 2790TIP3    H230006   5.007   6.793   7.604 -1.5614 -0.7169  0.8050
 2791TIP3   OH230007   0.533   2.684   2.590  0.3449 -0.3151 -0.1007
 2791TIP3    H130008   0.486   2.723   2.517  1.7785  0.7021 -0.5398
 2791TIP3    H230009   0.606   2.743   2.606  0.4360 -0.8506  1.7575
 2792TIP3   OH230010   5.199   4.427   0.499  0.5106 -0.0165 -0.6913
 2792TIP3    H130011   5.192   4.337   0.466  0.5944 -0.8955  1.4981
 2792TIP3    H230012   5.292   4.435   0.524  0.1634  0.0227  0.7039
 2793TIP3   OH230013   1.472   3.284   7.258  0.0088  0.1298 -0.0034
 2793TIP3    H130014   1.395   3.270   7.204  1.0845 -1.0617 -1.3105
 2793TIP3    H230015   1.530   3.339   7.205  0.0031  1.2097  1.0530
 2794TIP3   OH230016   2.845   3.537   7.107 -0.6615  0.1627  0.2004
 2794TIP3    H130017   2.876   3.523   7.197 -0.7319  1.1625  0.3969
 2794TIP3    H230018   2.866   3.456   7.061  2.3572  0.7636  0.2935
 2795TIP3   OH230019   5.378   4.770   0.316  0.2198 -0.0439  0.7557
 2795TIP3    H130020   5.403   4.756   0.225  0.7982 -0.6381  1.0008
 2795TIP3    H230021   5.461   4.782   0.362  0.0525 -1.5298  1.5004
 2796TIP3   OH230022   0.681   0.479   8.121 -0.3641 -0.2334  0.5499
 2796TIP3    H130023   0.776   0.469   8.119 -0.2139  0.7344  1.7229
 2796TIP3    H230024   0.647   0.390   8.128  0.4346 -0.6054 -0.1739
 2797TIP3   OH230025   6.243   1.602   1.343  0.3768  0.3235 -0.0958
 2797TIP3    H130026   6.239   1.532   1.408 -0.3086 -0.9829 -1.4678
 2797TIP3    H230027   6.335   1.629   1.342  0.3740  0.4961  1.4829
 2798TIP3   OH230028   3.418   5.603   7.687 -0.3157  0.4775 -0.1832
 2798TIP3    H130029   3.428   5.508   7.689 -2.1386  0.2777  0.6530
 2798TIP3    H230030   3.417   5.625   7.593 -0.1531 -0.3506 -0.3827
 2799TIP3   OH230031   4.226   1.766   7.970 -0.0925 -0.8388 -0.2554
 2799TIP3    H130032   4.158   1.698   7.967 -0.5443 -0.5984  2.0158
 2799TIP3    H230033   4.178   1.848   7.985  0.5938 -0.3987 -0.3854
 2800TIP3   OH230034   5.566   1.023   1.433  0.4311  0.2603  0.4210
 2800TIP3    H130035   5.622   0.990   1.362  1.6031  2.3914  0.2720
 2800TIP3    H230036   5.506   1.084   1.389  0.0957  0.3837  1.0460
 2801TIP3   OH230037   6.414   3.545   8.073 -0.1165  0.2414 -0.4651
 2801TIP3    H130038   6.464   3.551   7.992  0.3795 -0.0724 -0.1833
 2801TIP3    H230039   6.323   3.558   8.046  0.1115  0.8026 -0.9755
 2802TIP3   OH230040   1.215   5.246   3.279  0.1265  0.0221  0.2909
 2802TIP3    H130041   1.184   5.174   3.333  2.2209 -1.2399 -0.0950
 2802TIP3    H230042   1.247   5.311   3.342 -2.5885  1.1196  0.6738
 2803TIP3   OH230043   5.488   2.301   2.844  0.4875 -0.1132 -0.3939
 2803TIP3    H130044   5.483   2.335   2.755  1.6049 -0.6914 -0.6997
 2803TIP3    H230045   5.405   2.326   2.884 -0.9931 -1.6749 -2.2609
 2804TIP3   OH230046   6.042   6.160   3.448 -0.4500 -0.2916 -0.4643
 2804TIP3    H130047   6.098   6.210   3.509  2.0134 -2.6029 -0.6423
 2804TIP3    H230048   6.097   6.148   3.370 -1.0767 -2.8107 -0.6037
 2805TIP3   OH230049   6.829   6.868   1.850  0.0742 -0.7343  0.3043
 2805TIP3    H130050   6.862   6.892   1.763  0.4064 -0.1975  0.5803
 2805TIP3    H230051   6.789   6.947   1.884 -1.8371 -1.4500 -0.1545
 2806TIP3   OH230052   6.685   0.579   3.777  0.6797  0.6614  0.2852
 2806TIP3    H130053   6.626   0.542   3.711 -0.7077  0.5198  1.5476
 2806TIP3    H230054   6.736   0.504   3.809  1.7413  0.8165 -0.9475
 2807TIP3   OH230055   6.992   3.267   0.338  0.2756 -0.9836 -0.5127
 2807TIP3    H130056   7.058   3.305   0.396 -0.3465 -0.1641 -0.3279
 2807TIP3    H230057   7.017   3.175   0.331  0.4983 -1.0494  0.8763
 2808TIP3   OH230058   5.051   4.260   8.040  0.1659  0.0872  0.0239
 2808TIP3    H130059   5.111   4.328   8.070  1.3667 -0.9626  0.0871
 2808TIP3    H230060   4.973   4.308   8.013  0.7914  1.4458  0.5072
 2809TIP3   OH230061   5.297   5.700   2.133  0.7820  0.9272 -0.1117
 2809TIP3    H130062   5.229   5.722   2.196 -0.2992  1.8396 -1.5476
 2809TIP3    H230063   5.379   5.707   2.182 -0.0234  1.7014  1.1592
 2810TIP3   OH230064   1.243   0.036   3.340 -0.4618  0.2593 -0.2671
 2810TIP3    H130065   1.165   0.072   3.383 -0.9361 -0.9146 -0.1054
 2810TIP3    H230066   1.214  -0.048   3.305  1.0284 -0.7255  0.7562
 2811TIP3   OH230067   2.517   4.753   2.531  0.1172  0.0538 -0.1681
 2811TIP3    H130068   2.430   4.739   2.495  0.0273 -0.2558  0.1663
 2811TIP3    H230069   2.546   4.666   2.558  0.0325  0.3248  0.8480
 2812TIP3   OH230070   3.972   5.100   1.671 -0.2555 -0.3910 -0.6348
 2812TIP3    H130071   3.912   5.157   1.624  0.4465  1.0729  0.1760
 2812TIP3    H230072   4.030   5.160   1.719  0.2445 -1.7943  0.5922
 2813TIP3   OH230073   5.589   0.649   7.857  0.1470  0.5081  0.4521
 2813TIP3    H130074   5.565   0.689   7.773  1.0203  0.6891  0.2719
 2813TIP3    H230075   5.621   0.562   7.834  1.4034  0.9429  0.4544
 2814TIP3   OH230076   0.199   3.415   7.784  0.0675 -0.2277  0.1876
 2814TIP3    H130077   0.139   3.357   7.736 -1.0456  2.6703 -2.2490
 2814TIP3    H230078   0.142   3.479   7.826  1.2465  2.7296 -2.3446
 2815TIP3   OH230079   3.375   1.942   0.557 -0.1964 -0.4277  0.0496
 2815TIP3    H130080   3.456   1.917   0.512 -0.3022  0.3361 -0.5850
 2815TIP3    H230081   3.395   1.930   0.650  0.4634 -0.7652 -0.1249
 2816TIP3   OH230082   1.168   3.437   3.231 -0.1864 -0.1178  0.0469
 2816TIP3    H130083   1.207   3.503   3.288  3.3980 -0.1064 -2.1067
 2816TIP3    H230084   1.186   3.354   3.275  0.2842  0.0316  0.1448
 2817TIP3   OH230085   3.306   4.456   0.925  0.1790 -0.5000  0.3398
 2817TIP3    H130086   3.221   4.453   0.969  0.3710  1.2919  0.9640
 2817TIP3    H230087   3.290   4.507   0.846  0.7068  0.0811  0.5986
 2818TIP3   OH230088   2.640   5.732   7.864 -0.2925 -0.1351  1.4743
 2818TIP3    H130089   2.708   5.668   7.843 -1.1399 -0.0408 -2.2841
 2818TIP3    H230090   2.576   5.683   7.916  0.9953 -1.1347  2.1802
 2819TIP3   OH230091   5.477   3.270   1.586  0.2242 -0.2694 -0.4221
 2819TIP3    H130092   5.402   3.219   1.617  1.3522 -0.7376  1.6638
 2819TIP3    H230093   5.467   3.355   1.628  0.1499  0.1328 -1.2330
 2820TIP3   OH230094   6.615   1.854   2.777  0.5589 -0.4087 -0.2454
 2820TIP3    H130095   6.588   1.795   2.707  1.2165 -0.3972 -0.5175
 2820TIP3    H230096   6.711   1.847   2.778  0.7412  1.4002 -0.9708
 2821TIP3   OH230097   3.916   1.664   2.007  0.0468 -0.6226  0.4222
 2821TIP3    H130098   3.824   1.686   2.023 -0.0845  0.1109 -1.1345
 2821TIP3    H230099   3.913   1.583   1.956  0.3071 -0.9534  0.9184
 2822TIP3   OH230100   3.062   1.527   1.250  0.1410 -0.1606 -0.1701
 2822TIP3    H130101   3.025   1.439   1.258  0.2882 -0.2906 -0.8467
 2822TIP3    H230102   3.029   1.560   1.166  0.4736  0.2441 -0.1481
 2823TIP3   OH230103   2.776   4.096   7.566  0.0905  0.3738  0.1451
 2823TIP3    H130104   2.808   4.007   7.554 -3.8561 -1.3959  1.0458
 2823TIP3    H230105   2.803   4.143   7.487  1.7402 -1.7838 -0.6505
 2824TIP3   OH230106   0.432   1.310   3.028  0.3952 -0.5714 -0.1178
 2824TIP3    H130107   0.424   1.215   3.032  0.5775 -0.5455  1.0932
 2824TIP3    H230108   0.496   1.332   3.095 -1.8114  0.6408  1.7071
 2825TIP3   OH230109   5.391   5.488   1.809 -0.3975 -0.2835 -0.1594
 2825TIP3    H130110   5.315   5.540   1.836  0.3371  1.8416 -1.9386
 2825TIP3    H230111   5.466   5.538   1.840  0.3425 -0.3043 -1.8163
 2826TIP3   OH230112   6.690   5.526   2.975  0.3306  0.3271 -0.1515
 2826TIP3    H130113   6.762   5.472   3.007  0.8243  0.6016 -0.7736
 2826TIP3    H230114   6.616   5.503   3.031  0.9873  0.2883  0.7280
 2827TIP3   OH230115   2.988   6.552   0.163  0.0649 -0.0244 -0.2660
 2827TIP3    H130116   2.987   6.560   0.258 -0.6566  1.0738 -0.3469
 2827TIP3    H230117   2.928   6.479   0.144  0.9744 -0.9032  0.1500
 2828TIP3   OH230118   0.960   5.724   3.353 -0.1434  0.0419 -0.1209
 2828TIP3    H130119   0.973   5.702   3.446  1.1493 -1.4731 -0.6134
 2828TIP3    H230120   0.904   5.653   3.320 -0.5926  0.5732 -0.5145
 2829TIP3   OH230121   6.455   7.036   0.890 -0.4298  0.0520  0.3919
 2829TIP3    H130122   6.366   7.047   0.924 -0.6723  1.1147 -0.5291
 2829TIP3    H230123   6.500   6.984   0.957 -1.8821 -0.9794  0.6150
 2830TIP3   OH230124   6.926   6.303   2.256  0.3193  0.8430 -0.2254
 2830TIP3    H130125   7.018   6.329   2.265 -0.3279  2.8159  1.4071
 2830TIP3    H230126   6.892   6.359   2.186  0.2318  0.4931 -0.4628
 2831TIP3   OH230127   5.851   5.058   1.583  0.3132  0.1984  0.2059
 2831TIP3    H130128   5.850   4.981   1.527  0.0434  0.5758 -0.3155
 2831TIP3    H230129   5.943   5.066   1.611  0.6601  0.5829 -0.9993
 2832TIP3   OH230130   2.823   2.718   7.580  0.3844  0.1357  0.9370
 2832TIP3    H130131   2.871   2.673   7.511  0.2413  2.0103 -0.4647
 2832TIP3    H230132   2.883   2.785   7.612 -0.6254  1.3691  0.3571
 2833TIP3   OH230133   4.591   4.298   1.840  0.2551 -0.0018 -0.2287
 2833TIP3    H130134   4.633   4.332   1.919  1.1741 -0.9383 -0.2904
 2833TIP3    H230135   4.649   4.325   1.769 -0.6891  1.0392 -0.6216
 2834TIP3   OH230136   1.766   3.641   1.309 -1.2524 -0.1929  0.0776
 2834TIP3    H130137   1.737   3.550   1.315 -3.3478  0.2186 -2.0314
 2834TIP3    H230138   1.696   3.685   1.260 -0.3461  2.5906  1.0507
 2835TIP3   OH230139   4.872   4.147   0.011 -0.3099  0.2484 -0.1709
 2835TIP3    H130140   4.887   4.207  -0.062  0.2902  2.2386  1.4995
 2835TIP3    H230141   4.888   4.200   0.089  0.1909 -2.0898  1.4093
 2836TIP3   OH230142   3.915   0.666   2.296 -0.2304  0.1713  0.2033
 2836TIP3    H130143   3.859   0.741   2.315 -1.0560 -0.5700  0.7637
 2836TIP3    H230144   3.857   0.605   2.251 -0.4583 -1.4572  2.5594
 2837TIP3   OH230145   2.257   5.505   1.258 -0.2469  0.3049  1.2361
 2837TIP3    H130146   2.353   5.507   1.260 -0.1747  1.0572 -0.6048
 2837TIP3    H230147   2.236   5.419   1.221 -0.1510  1.1106 -0.7931
 2838TIP3   OH230148   6.307   2.726   1.170  0.0979 -1.0025  0.1404
 2838TIP3    H130149   6.324   2.649   1.224  2.5770 -1.2399 -0.8094
 2838TIP3    H230150   6.298   2.798   1.233  0.7491 -1.6156  0.9634
 2839TIP3   OH230151   6.871   2.135   0.548  0.4880 -0.5545 -0.2832
 2839TIP3    H130152   6.784   2.144   0.509  0.5167  0.6289 -0.1213
 2839TIP3    H230153   6.875   2.205   0.614  1.6679 -0.4016 -0.4900
 2840TIP3   OH230154   3.126   1.482   1.881  0.0315  0.1223  0.2434
 2840TIP3    H130155   3.174   1.403   1.858 -1.1463 -0.5388 -0.0677
 2840TIP3    H230156   3.051   1.450   1.932 -0.2356  1.0781  0.4649
 2841TIP3   OH230157   3.091   3.359   1.817 -0.1903 -0.4363  0.1769
 2841TIP3    H130158   3.173   3.389   1.779  0.6316  1.1147  2.8997
 2841TIP3    H230159   3.097   3.263   1.816  1.8124 -0.3569  0.6090
 2842TIP3   OH230160   6.897   4.305   2.860  0.2545  0.1983  0.0446
 2842TIP3    H130161   6.824   4.357   2.828  0.7771  0.7388 -0.2992
 2842TIP3    H230162   6.876   4.216   2.833 -1.1286  0.0497  1.5058
 2843TIP3   OH230163   6.598   6.186   1.159 -0.3203  0.1520  0.0223
 2843TIP3    H130164   6.586   6.273   1.121  0.1060  0.8376  1.3700
 2843TIP3    H230165   6.681   6.155   1.122 -0.2129  0.5398 -0.0653
 2844TIP3   OH230166   5.411   5.309   1.296  0.0633  0.1143  0.5436
 2844TIP3    H130167   5.378   5.365   1.365 -0.1933  0.5663  0.0588
 2844TIP3    H230168   5.471   5.364   1.247  0.4438 -0.2798  0.5545
 2845TIP3   OH230169   1.279   1.087   2.267  0.4621  0.2844  0.3564
 2845TIP3    H130170   1.246   1.038   2.191 -0.6316  0.3128  0.7929
 2845TIP3    H230171   1.373   1.070   2.267 -0.0019 -3.0372  1.3004
 2846TIP3   OH230172   4.995   0.070   3.575 -0.1489 -0.4364 -0.0581
 2846TIP3    H130173   5.071   0.012   3.571  0.5249  0.2927  1.4582
 2846TIP3    H230174   5.011   0.135   3.507  0.2276 -0.6935 -0.2190
 2847TIP3   OH230175   0.745   4.439   2.134 -0.0835 -0.3519 -0.2802
 2847TIP3    H130176   0.776   4.356   2.097 -1.5241 -2.4221  2.7694
 2847TIP3    H230177   0.651   4.425   2.150 -0.3911  1.9113  0.2485
 2848TIP3   OH230178   2.564   5.017   2.873 -0.2150 -0.2874  0.6991
 2848TIP3    H130179   2.534   5.028   2.783  0.1312  2.3177  0.8058
 2848TIP3    H230180   2.483   5.006   2.924 -0.4460 -1.1792  0.1494
 2849TIP3   OH230181   2.284   2.807   7.063  0.0521  0.4230 -0.2418
 2849TIP3    H130182   2.232   2.860   7.123 -1.2594 -0.3782 -0.6180
 2849TIP3    H230183   2.310   2.868   6.993 -2.5932  0.3626 -1.3930
 2850TIP3   OH230184   1.195   0.362   0.585 -0.0774 -0.4341  0.1331
 2850TIP3    H130185   1.171   0.286   0.638 -0.3293  0.5068  1.4080
 2850TIP3    H230186   1.169   0.438   0.638  1.1902  0.5602 -0.6180
 2851TIP3   OH230187   5.153   5.227   2.814 -0.6196 -0.5379 -0.3137
 2851TIP3    H130188   5.131   5.309   2.771  0.7885  1.0025  1.6855
 2851TIP3    H230189   5.091   5.221   2.887  0.2467 -0.4362  0.4472
 2852TIP3   OH230190   6.681   5.093   3.747  0.1996 -0.4024  0.1607
 2852TIP3    H130191   6.633   5.011   3.754 -1.1827  0.0682 -2.4007
 2852TIP3    H230192   6.771   5.071   3.772 -0.6981 -1.9708  2.2889
 2853TIP3   OH230193   2.026   4.226   1.854 -0.0780 -0.6611  0.1842
 2853TIP3    H130194   1.941   4.245   1.815  0.3817 -0.0677 -0.5781
 2853TIP3    H230195   2.057   4.148   1.808  0.5738  0.1803 -0.8908
 2854TIP3   OH230196   2.481   4.454   3.629 -0.5887  0.3456  0.4204
 2854TIP3    H130197   2.466   4.369   3.588 -0.3102  1.1972 -1.5406
 2854TIP3    H230198   2.571   4.476   3.607 -0.6357  1.1309  0.9749
 2855TIP3   OH230199   4.059   2.671   7.161  0.0792  0.0813 -0.0520
 2855TIP3    H130200   4.046   2.690   7.254  0.1856  2.7998 -0.4933
 2855TIP3    H230201   4.097   2.752   7.126  2.8152 -1.8738 -1.9354
 2856TIP3   OH230202   3.214   3.929   2.292 -0.7090  0.0871  0.0699
 2856TIP3    H130203   3.159   3.881   2.230  0.0185 -0.3487 -0.2588
 2856TIP3    H230204   3.252   3.861   2.348  1.3407  0.0835 -1.2106
 2857TIP3   OH230205   5.731   3.258   1.028 -0.5279 -0.5708  0.0005
 2857TIP3    H130206   5.693   3.179   0.990 -1.2526 -0.4941  0.5589
 2857TIP3    H230207   5.726   3.244   1.123 -0.2912 -0.0270  0.0975
 2858TIP3   OH230208   4.551   4.518   1.063  0.0434 -0.4511  0.2320
 2858TIP3    H130209   4.534   4.519   0.968  1.5262  1.8272 -0.0673
 2858TIP3    H230210   4.635   4.473   1.072  0.7657  0.8659  0.2584
 2859TIP3   OH230211   5.421   1.116   0.133 -0.2211  0.0068  0.5156
 2859TIP3    H130212   5.371   1.141   0.056 -0.9809 -0.1252  0.9531
 2859TIP3    H230213   5.513   1.118   0.104 -0.5286 -0.7262 -0.5767
 2860TIP3   OH230214   4.135   1.723   2.701  0.3978 -0.2035 -0.3679
 2860TIP3    H130215   4.216   1.705   2.748  0.6426 -1.3725 -1.1875
 2860TIP3    H230216   4.074   1.655   2.729 -0.0665  0.2292 -0.3062
 2861TIP3   OH230217   6.966   4.836   8.136  0.0421 -0.0106  0.2686
 2861TIP3    H130218   7.028   4.777   8.178 -0.3842 -0.7806 -0.1601
 2861TIP3    H230219   6.886   4.830   8.188  1.1379  3.2426  2.6338
 2862TIP3   OH230220   1.131   2.661   7.863 -0.1318 -0.0111 -0.6051
 2862TIP3    H130221   1.096   2.608   7.791  0.5394 -0.3493 -0.6983
 2862TIP3    H230222   1.072   2.735   7.870 -2.4221 -1.8581  0.9902
 2863TIP3   OH230223   5.204   6.701   8.101 -0.3781 -0.1745 -0.1648
 2863TIP3    H130224   5.256   6.714   8.021 -1.8674 -0.3402 -1.2043
 2863TIP3    H230225   5.119   6.740   8.080 -1.0575 -0.9571  1.0556
 2864TIP3   OH230226   0.013   4.681   2.457  0.0019  0.1945 -0.0501
 2864TIP3    H130227  -0.054   4.621   2.425  1.2971 -0.9852 -0.6189
 2864TIP3    H230228   0.090   4.662   2.405  1.1624  0.6559  1.4246
 2865TIP3   OH230229   0.074   5.445   2.983  0.0500  0.2505 -0.0419
 2865TIP3    H130230  -0.003   5.492   2.952  1.7315  1.8724 -2.0836
 2865TIP3    H230231   0.054   5.424   3.075 -3.1040 -0.1984 -0.7031
 2866TIP3   OH230232   3.337   2.480   8.179 -0.1379 -0.8180 -0.1216
 2866TIP3    H130233   3.279   2.417   8.137 -1.1939 -0.6668  1.0624
 2866TIP3    H230234   3.297   2.496   8.264  0.4704  0.9565 -0.1418
 2867TIP3   OH230235   6.244   1.185   3.065 -0.2651  0.2595 -0.7350
 2867TIP3    H130236   6.226   1.105   3.115 -0.9091  0.9375  0.1466
 2867TIP3    H230237   6.340   1.188   3.060 -0.0741  0.9992  1.9130
 2868TIP3   OH230238   5.013   6.079   0.087  0.6633 -0.1796 -0.3459
 2868TIP3    H130239   4.936   6.058   0.140 -0.2878 -0.5778 -1.8035
 2868TIP3    H230240   5.072   6.126   0.146 -0.4795 -0.3271  0.9471
 2869TIP3   OH230241   5.518   5.823   8.192  0.2823  0.5769  0.6854
 2869TIP3    H130242   5.500   5.859   8.105 -0.3771  0.0602  0.5954
 2869TIP3    H230243   5.597   5.770   8.180  0.5487  1.0060  0.5418
 2870TIP3   OH230244   1.250   6.907   0.519  0.2703 -0.5639  0.1675
 2870TIP3    H130245   1.299   6.953   0.588  2.0860 -0.0478 -1.3999
 2870TIP3    H230246   1.317   6.861   0.469 -0.5572  1.5507 -3.1313
 2871TIP3   OH230247   0.949   6.389   2.768  0.4735 -0.2083  0.1376
 2871TIP3    H130248   0.877   6.327   2.776  0.5212 -0.2180  0.4751
 2871TIP3    H230249   1.020   6.352   2.819  0.7610 -0.2539 -0.2838
 2872TIP3   OH230250   2.640   2.757   1.175  0.4180  0.4016 -0.0909
 2872TIP3    H130251   2.638   2.828   1.111  1.3400  0.3222 -0.2210
 2872TIP3    H230252   2.620   2.678   1.125 -2.2701  0.7273  0.3391
 2873TIP3   OH230253   4.166   1.753   0.086  0.4721  0.5936  0.2191
 2873TIP3    H130254   4.251   1.714   0.105  0.7153  1.0186  0.0412
 2873TIP3    H230255   4.140   1.795   0.167  0.4196  0.4355  0.2833
 2874TIP3   OH230256   5.720   1.567   2.148  0.1494  0.2926  0.3229
 2874TIP3    H130257   5.664   1.501   2.108  0.6969  0.6449 -1.0890
 2874TIP3    H230258   5.802   1.561   2.100  0.7382  0.9566  1.2100
 2875TIP3   OH230259   5.000   6.590   2.934  0.3187  0.0459  0.1746
 2875TIP3    H130260   5.032   6.500   2.935 -0.2326 -0.2630 -2.3568
 2875TIP3    H230261   5.074   6.642   2.966  1.9223 -1.0263 -1.5762
 2876TIP3   OH230262   0.675   4.658   0.776 -0.3489  0.2377 -0.1082
 2876TIP3    H130263   0.643   4.599   0.845 -0.5779  0.0020 -0.4139
 2876TIP3    H230264   0.647   4.745   0.805  0.0562  0.2068  0.3815
 2877TIP3   OH230265   0.610   5.344   1.001  1.0942 -0.3961 -0.2438
 2877TIP3    H130266   0.581   5.435   0.992 -0.0718 -0.8964 -2.2774
 2877TIP3    H230267   0.703   5.346   0.980  0.8628  0.1958 -1.2586
 2878TIP3   OH230268   6.406   4.087   7.898  0.6603  0.3267  0.1835
 2878TIP3    H130269   6.375   4.010   7.850  2.3883  0.0884 -0.6377
 2878TIP3    H230270   6.486   4.112   7.853 -0.4081  3.3051 -0.2774
 2879TIP3   OH230271   6.762   5.494   1.522  0.2255 -0.2382 -0.1272
 2879TIP3    H130272   6.806   5.577   1.506 -1.0812  0.3901 -0.5846
 2879TIP3    H230273   6.753   5.454   1.435 -0.8741  0.0607 -0.1734
 2880TIP3   OH230274   0.608   0.003   0.965 -0.0716  0.1215 -0.2059
 2880TIP3    H130275   0.624   0.052   1.046 -1.4099 -1.4269  1.0518
 2880TIP3    H230276   0.516   0.021   0.944 -0.7556 -2.1238  0.5647
 2881TIP3   OH230277   2.472   1.568   2.008 -0.6167 -0.0437  0.5608
 2881TIP3    H130278   2.501   1.634   2.072  4.0643 -0.9254 -0.2554
 2881TIP3    H230279   2.509   1.486   2.040 -1.7435 -1.2997 -1.1873
 2882TIP3   OH230280   5.431   2.348   8.212 -0.5255 -0.1457  0.6517
 2882TIP3    H130281   5.487   2.351   8.135 -1.4198  0.2254  0.0107
 2882TIP3    H230282   5.373   2.273   8.197 -0.6197 -0.1528  1.0334
 2883TIP3   OH230283   6.001   4.825   3.465 -0.4246  0.1523 -0.0926
 2883TIP3    H130284   6.044   4.798   3.384 -1.5197 -1.4085 -0.1863
 2883TIP3    H230285   5.922   4.871   3.437 -1.4962 -1.5216  0.0220
 2884TIP3   OH230286   0.980   2.539   3.480  0.3405  0.3051 -0.3436
 2884TIP3    H130287   0.935   2.624   3.485  1.3688  0.8012  2.9157
 2884TIP3    H230288   1.036   2.547   3.403 -0.8748  1.8508 -1.1509
 2885TIP3   OH230289   6.899   2.927   2.238 -0.0972 -0.8550  0.6657
 2885TIP3    H130290   6.882   2.972   2.321  1.1888  0.6943  0.1518
 2885TIP3    H230291   6.981   2.879   2.253  0.1337 -0.5775  0.3198
 2886TIP3   OH230292   7.042   5.653   1.747 -0.3293 -0.0175  0.1836
 2886TIP3    H130293   7.133   5.682   1.746 -0.3022 -0.0473 -1.6291
 2886TIP3    H230294   7.045   5.564   1.782  0.4220 -0.2202 -0.3742
 2887TIP3   OH230295   0.430   6.177   1.684  0.0331  0.3593  0.0661
 2887TIP3    H130296   0.353   6.132   1.647 -0.7541  1.6167  0.1338
 2887TIP3    H230297   0.443   6.135   1.769 -0.9678  0.5464  0.3262
 2888TIP3   OH230298   1.831   5.569   0.032  0.8628 -0.5690 -0.5885
 2888TIP3    H130299   1.885   5.642   0.001  0.0456  1.5666  2.5547
 2888TIP3    H230300   1.750   5.577  -0.018  0.0754  1.9246  0.9112
 2889TIP3   OH230301   5.464   4.645   0.073  0.1684 -0.4067  0.2937
 2889TIP3    H130302   5.403   4.678   0.006 -0.0582  1.6354  1.4146
 2889TIP3    H230303   5.549   4.682   0.049  0.2632 -0.3974  0.6366
 2890TIP3   OH230304   3.748   1.027   1.771 -0.3653  0.0107 -0.1782
 2890TIP3    H130305   3.833   1.045   1.731 -0.2828 -0.3050 -0.1466
 2890TIP3    H230306   3.713   0.953   1.721 -0.6362  0.1624 -0.2137
 2891TIP3   OH230307   1.930   3.209   2.173  0.3887 -0.1388 -0.8480
 2891TIP3    H130308   1.901   3.120   2.196  1.5796 -0.8034 -1.8186
 2891TIP3    H230309   2.024   3.201   2.161  0.5740  1.3630 -0.5583
 2892TIP3   OH230310   1.006   6.799   0.534  0.8035  0.1911 -0.0523
 2892TIP3    H130311   1.023   6.739   0.462 -0.7198 -0.4690  0.0889
 2892TIP3    H230312   1.092   6.835   0.557  1.8171 -2.1747  0.0818
 2893TIP3   OH230313   4.239   2.052   0.009  0.1807  0.0529 -0.0115
 2893TIP3    H130314   4.257   1.959   0.024 -0.4557 -0.1585 -0.5377
 2893TIP3    H230315   4.176   2.075   0.078 -1.3252 -0.4582 -1.1799
 2894TIP3   OH230316   6.508   0.090   2.333  0.2421 -0.7666 -0.8460
 2894TIP3    H130317   6.577   0.151   2.307 -1.7596  1.4692 -1.2587
 2894TIP3    H230318   6.451   0.142   2.390 -0.3942 -2.9458  0.5988
 2895TIP3   OH230319   3.452   5.814   3.193 -0.5759  0.7428 -0.5230
 2895TIP3    H130320   3.407   5.870   3.256  1.2635  1.0529  0.5999
 2895TIP3    H230321   3.446   5.726   3.229 -0.0856  0.8212 -0.2454
 2896TIP3   OH230322   0.112   5.801   1.317 -0.3723 -0.6552  0.6550
 2896TIP3    H130323   0.083   5.713   1.296 -0.3840 -1.1607  2.5737
 2896TIP3    H230324   0.058   5.827   1.392 -2.5485  2.2346 -1.6851
 2897TIP3   OH230325   4.545   1.740   0.381 -0.3278  0.1596  0.4496
 2897TIP3    H130326   4.536   1.710   0.471 -1.1535 -1.5599 -0.1653
 2897TIP3    H230327   4.610   1.680   0.342  1.4690  2.0461  0.3517
 2898TIP3   OH230328   1.528   3.576   2.186  0.4387  0.0603  0.1752
 2898TIP3    H130329   1.553   3.654   2.137  1.9385  0.3695  1.3674
 2898TIP3    H230330   1.597   3.512   2.168  0.1331 -0.3920  0.5608
 2899TIP3   OH230331   6.089   4.037   1.919  0.2170  0.1375  0.1449
 2899TIP3    H130332   6.083   3.942   1.927  0.2983  0.2689  2.3559
 2899TIP3    H230333   6.134   4.051   1.836  3.2393 -1.8605  1.2691
 2900TIP3   OH230334   2.909   6.419   3.819 -0.5048 -0.1669  0.5574
 2900TIP3    H130335   2.944   6.387   3.736  2.0927  0.9303  1.1246
 2900TIP3    H230336   2.928   6.349   3.882 -0.1894  0.0305  0.6849
 2901TIP3   OH230337   6.496   3.785   1.833  0.0633 -0.1249 -0.9408
 2901TIP3    H130338   6.481   3.709   1.776 -1.8910  0.4972 -1.3339
 2901TIP3    H230339   6.437   3.772   1.907 -0.8759  1.3329 -1.3770
 2902TIP3   OH230340   4.039   2.887   2.319  0.1619  0.0993  0.0434
 2902TIP3    H130341   4.098   2.822   2.281 -0.2047 -0.4730  0.4285
 2902TIP3    H230342   4.095   2.938   2.377 -0.1293 -2.1234  2.4858
 2903TIP3   OH230343   3.023   6.898   3.109  0.2115  0.0016  1.0696
 2903TIP3    H130344   3.032   6.807   3.137  1.1820 -0.6925 -1.2909
 2903TIP3    H230345   2.967   6.894   3.032  0.7085  1.3444  0.6136
 2904TIP3   OH230346   1.363   1.435   1.563 -0.7340 -0.2203  0.2898
 2904TIP3    H130347   1.295   1.374   1.594 -0.7428  0.2265  1.2054
 2904TIP3    H230348   1.445   1.392   1.587 -0.7402  0.1101  0.9267
 2905TIP3   OH230349   2.424   0.462   0.102  0.0718  0.1224  0.2975
 2905TIP3    H130350   2.351   0.405   0.077  0.0411  0.1117  0.4096
 2905TIP3    H230351   2.389   0.551   0.093 -0.0061  0.1127  0.5087
 2906TIP3   OH230352   0.188   3.583   0.395 -0.3089  0.0518  0.3058
 2906TIP3    H130353   0.126   3.571   0.467 -1.6654  1.3067 -0.5939
 2906TIP3    H230354   0.138   3.630   0.327  1.1048 -0.4950 -1.1928
 2907TIP3   OH230355   0.228   6.707   8.267 -0.0896  0.4781 -0.2080
 2907TIP3    H130356   0.256   6.632   8.320 -0.2864  0.4650 -0.1234
 2907TIP3    H230357   0.219   6.672   8.179  0.6703  0.5981 -0.3383
 2908TIP3   OH230358   1.943   5.050   1.231 -0.4210  0.6441  0.1211
 2908TIP3    H130359   2.003   5.005   1.290 -0.8068 -1.0891 -0.7313
 2908TIP3    H230360   1.966   5.018   1.144 -0.8772  1.9621 -0.5164
 2909TIP3   OH230361   0.995   5.722   0.915  0.5090  0.0336 -0.1156
 2909TIP3    H130362   0.950   5.638   0.927 -0.3276  0.4294 -0.4253
 2909TIP3    H230363   1.060   5.705   0.848  0.8943 -0.5680  0.3989
 2910TIP3   OH230364   6.270   0.784   8.190  0.4841  0.3201 -0.0906
 2910TIP3    H130365   6.264   0.701   8.143  1.7802  0.0250  0.2148
 2910TIP3    H230366   6.250   0.762   8.281  0.8594  0.3310 -0.0034
 2911TIP3   OH230367   1.320   6.384   1.446 -0.5066 -0.4035 -0.0319
 2911TIP3    H130368   1.284   6.433   1.372  2.0967  1.2232 -0.3536
 2911TIP3    H230369   1.397   6.340   1.410  0.3601 -0.2083  1.4854
 2912TIP3   OH230370   3.825   6.171   0.470 -0.0382  0.1270  0.0283
 2912TIP3    H130371   3.766   6.237   0.506 -0.5883  0.5345 -1.5318
 2912TIP3    H230372   3.771   6.092   0.463  0.0240  0.0901 -0.0330
 2913TIP3   OH230373   6.570   3.606   3.247  0.3191  0.3870 -0.0566
 2913TIP3    H130374   6.547   3.623   3.156  0.0526  0.1643 -0.0328
 2913TIP3    H230375   6.584   3.511   3.251 -0.6133  0.2606  0.3399
 2914TIP3   OH230376   5.531   1.066   2.787  0.1649  0.3344  0.0756
 2914TIP3    H130377   5.457   1.018   2.750 -1.0021  1.4532  0.8903
 2914TIP3    H230378   5.508   1.078   2.879  1.9113 -0.3044  0.6410
 2915TIP3   OH230379   3.839   0.713   1.592  0.3631 -0.1992  0.0491
 2915TIP3    H130380   3.829   0.632   1.641  1.8033  0.4196  1.4740
 2915TIP3    H230381   3.916   0.698   1.537  0.7854  0.2583  0.5007
 2916TIP3   OH230382   3.702   5.386   3.130 -0.2163 -0.7088 -0.6647
 2916TIP3    H130383   3.759   5.458   3.156 -0.9578 -0.4186  0.2244
 2916TIP3    H230384   3.739   5.310   3.174 -1.2852 -0.2747  1.0908
 2917TIP3   OH230385   0.272   2.833   7.039  0.6195  0.3285 -0.0658
 2917TIP3    H130386   0.335   2.809   6.971 -1.2430 -0.2824 -1.6882
 2917TIP3    H230387   0.279   2.928   7.047  1.1871  0.3513 -0.7838
 2918TIP3   OH230388   5.809   5.425   0.029 -0.3639 -0.0698  0.2464
 2918TIP3    H130389   5.794   5.511  -0.012  1.1349  0.1865  0.1674
 2918TIP3    H230390   5.863   5.378  -0.035  1.3358  0.0335  1.5591
 2919TIP3   OH230391   6.750   3.859   1.352  0.2575  0.2055  0.1552
 2919TIP3    H130392   6.742   3.916   1.429  0.6664 -1.0932  1.2091
 2919TIP3    H230393   6.675   3.881   1.297 -0.9321  0.0929  1.6734
 2920TIP3   OH230394   6.726   0.656   0.245  0.5852 -0.3533  0.1034
 2920TIP3    H130395   6.646   0.683   0.199  0.2081  2.2192  2.0544
 2920TIP3    H230396   6.724   0.560   0.241 -2.2497 -0.3737 -0.4993
 2921TIP3   OH230397   5.161   4.124   1.181  0.3007 -0.1474 -0.4517
 2921TIP3    H130398   5.204   4.151   1.100 -2.0738  1.0107 -1.4285
 2921TIP3    H230399   5.157   4.029   1.176 -0.9290 -0.0308 -2.3598
 2922TIP3   OH230400   5.511   6.416   0.855  0.7373 -0.8443 -0.0459
 2922TIP3    H130401   5.604   6.410   0.876  0.8650 -0.3425 -0.4353
 2922TIP3    H230402   5.470   6.448   0.935  1.2021  0.9851 -0.4825
 2923TIP3   OH230403   2.196   0.718   2.655  0.2064 -0.1303 -0.0012
 2923TIP3    H130404   2.123   0.778   2.672 -0.1896 -0.8852  1.0210
 2923TIP3    H230405   2.162   0.632   2.677  1.4618 -0.4739  0.6732
 2924TIP3   OH230406   1.435   3.406   0.419 -0.7967 -0.3166 -0.4479
 2924TIP3    H130407   1.421   3.391   0.513 -1.9672 -0.2862 -0.6063
 2924TIP3    H230408   1.504   3.344   0.395 -1.0185 -0.8626  0.2795
 2925TIP3   OH230409   4.326   1.582   2.064  0.2070 -0.0764 -0.4337
 2925TIP3    H130410   4.357   1.529   1.991  0.8767 -0.4895  0.1342
 2925TIP3    H230411   4.306   1.519   2.133  0.9124  0.3856  0.2099
 2926TIP3   OH230412   1.107   5.303   0.720  0.2859  0.0825  0.5386
 2926TIP3    H130413   1.046   5.373   0.740  0.3481 -0.0099  1.0567
 2926TIP3    H230414   1.070   5.261   0.642 -1.0107 -0.7631  1.5542
 2927TIP3   OH230415   5.211   0.239   3.035 -0.1082 -1.1709  0.2464
 2927TIP3    H130416   5.165   0.313   3.074  0.2015 -0.2062 -1.1258
 2927TIP3    H230417   5.304   0.258   3.049 -0.0382 -1.5623  0.3379
 2928TIP3   OH230418   0.707   5.709   2.129 -0.2034  0.1597  0.3688
 2928TIP3    H130419   0.758   5.630   2.109 -0.9617 -0.2316 -0.0611
 2928TIP3    H230420   0.673   5.737   2.044 -0.4271  0.6106  0.6047
 2929TIP3   OH230421   1.050   3.504   1.838 -0.2907  0.2978 -0.0865
 2929TIP3    H130422   1.116   3.573   1.836 -0.3742  0.3693 -0.4235
 2929TIP3    H230423   1.055   3.464   1.752 -1.4993  1.0731 -0.5380
 2930TIP3   OH230424   3.708   6.335   2.383 -0.7311 -0.3897  0.0885
 2930TIP3    H130425   3.764   6.339   2.460 -0.4081 -2.2263 -0.0153
 2930TIP3    H230426   3.737   6.408   2.328 -2.2297  2.2034  2.4552
 2931TIP3   OH230427   5.024   3.227   7.760 -0.1975 -0.8265 -0.2052
 2931TIP3    H130428   5.113   3.225   7.794 -0.5515 -0.2874  0.7898
 2931TIP3    H230429   5.022   3.157   7.694  0.9338 -0.8791 -0.1957
 2932TIP3   OH230430   3.019   1.743   0.161  0.4670 -0.1874  0.1055
 2932TIP3    H130431   3.072   1.818   0.191  1.3178 -0.3848 -0.8548
 2932TIP3    H230432   2.947   1.739   0.224  1.4982  0.1880  1.3661
 2933TIP3   OH230433   0.355   2.144   0.895  0.5396  0.3016 -0.0073
 2933TIP3    H130434   0.263   2.127   0.873 -0.2135  1.8075  1.7682
 2933TIP3    H230435   0.404   2.080   0.842 -1.3719  0.6616 -2.4078
 2934TIP3   OH230436   2.330   0.962   1.938 -0.0958 -0.4144  0.0916
 2934TIP3    H130437   2.243   0.971   1.977  0.3071 -3.2584  1.9417
 2934TIP3    H230438   2.323   0.887   1.880  0.7071  0.4735 -1.1944
 2935TIP3   OH230439   0.041   0.292   3.148  0.8468  0.3766 -0.4039
 2935TIP3    H130440   0.023   0.243   3.229 -1.4313  1.4722 -0.1692
 2935TIP3    H230441   0.022   0.383   3.170  0.0299  0.6832 -2.1844
 2936TIP3   OH230442   3.023   3.416   1.515 -0.4385  0.4930 -0.3331
 2936TIP3    H130443   3.089   3.406   1.583  0.4634 -0.6418 -1.3254
 2936TIP3    H230444   3.000   3.509   1.517  0.6607  0.7690  0.5013
 2937TIP3   OH230445   6.141   5.499   0.871 -0.3319 -0.4571  0.5040
 2937TIP3    H130446   6.166   5.445   0.796 -1.4209 -1.8841  1.1280
 2937TIP3    H230447   6.118   5.437   0.939  0.4007  0.8105  1.9774
 2938TIP3   OH230448   3.849   6.619   1.817 -0.8265 -0.5070 -0.1714
 2938TIP3    H130449   3.877   6.586   1.902 -2.6646  2.6231  1.8744
 2938TIP3    H230450   3.790   6.692   1.838  0.9380  2.4261 -4.1250
 2939TIP3   OH230451   6.445   4.854   8.034 -0.7138  0.6026  0.2002
 2939TIP3    H130452   6.483   4.769   8.056 -0.2248  1.0071  0.9667
 2939TIP3    H230453   6.473   4.869   7.943  0.0466  0.3976  0.3897
 2940TIP3   OH230454   0.340   4.629   0.419  0.2166 -0.0710  0.4486
 2940TIP3    H130455   0.353   4.555   0.360 -0.2794  1.2697 -1.4388
 2940TIP3    H230456   0.426   4.642   0.460  0.6699 -0.8749 -0.2099
 2941TIP3   OH230457   2.468   0.423   0.377  0.1812  0.0329 -0.7898
 2941TIP3    H130458   2.415   0.345   0.392 -0.8649  1.1132  1.7645
 2941TIP3    H230459   2.462   0.439   0.282 -3.1962 -0.5382 -0.7917
 2942TIP3   OH230460   1.536   6.760   2.646 -0.2689 -0.0270  0.2951
 2942TIP3    H130461   1.597   6.720   2.708  0.2515  0.9023  0.3986
 2942TIP3    H230462   1.450   6.733   2.677  0.0392 -0.6187  0.6704
 2943TIP3   OH230463   0.711   6.318   1.708 -0.0090  0.4622  0.3486
 2943TIP3    H130464   0.640   6.254   1.711 -0.7495  1.1467 -1.2087
 2943TIP3    H230465   0.729   6.338   1.800  0.2657 -1.9385  0.8892
 2944TIP3   OH230466   3.160   1.835   2.150  0.0129  0.2102 -0.0651
 2944TIP3    H130467   3.201   1.888   2.219 -0.2150  0.1943  0.0821
 2944TIP3    H230468   3.068   1.861   2.152 -0.3233 -0.9674  0.7294
 2945TIP3   OH230469   0.754   6.941   0.467  0.1054  0.1442 -0.0681
 2945TIP3    H130470   0.738   7.021   0.517  1.3822  0.7298 -0.5370
 2945TIP3    H230471   0.792   6.880   0.530 -1.6764 -0.4282  0.4965
 2946TIP3   OH230472   2.160   0.807   0.656  0.8176 -0.7600 -0.0054
 2946TIP3    H130473   2.217   0.826   0.730  0.2347  0.4998  0.1411
 2946TIP3    H230474   2.091   0.751   0.694  1.5604 -1.7295 -0.0414
 2947TIP3   OH230475   0.728   1.130   0.976 -0.1100  0.2371  0.6797
 2947TIP3    H130476   0.657   1.068   0.990 -0.8009  0.3731 -1.6735
 2947TIP3    H230477   0.690   1.197   0.918  1.9528  0.1757 -0.8715
 2948TIP3   OH230478   3.663   3.803   0.536 -0.1231  0.1159 -1.0049
 2948TIP3    H130479   3.660   3.708   0.545 -0.0406 -0.0154 -2.1535
 2948TIP3    H230480   3.756   3.824   0.533 -0.0754  0.5031  1.4451
 2949TIP3   OH230481   7.066   1.218   2.642 -0.2514  0.1712  0.2985
 2949TIP3    H130482   7.044   1.257   2.557  0.0624  2.4282  1.1841
 2949TIP3    H230483   7.161   1.221   2.646 -0.2471 -0.2697  0.5764
 2950TIP3   OH230484   2.177   0.404   0.908  0.1402 -0.2519 -0.0679
 2950TIP3    H130485   2.207   0.442   0.990 -2.0185 -1.2831  1.3012
 2950TIP3    H230486   2.131   0.324   0.934 -0.8454 -0.4822 -2.2493
 2951TIP3   OH230487   2.963   2.001   2.584  0.1886 -0.1974 -0.4626
 2951TIP3    H130488   3.002   2.032   2.667  1.2511 -0.3804 -0.8767
 2951TIP3    H230489   2.873   1.978   2.607  1.0467 -2.2620  1.1465
 2952TIP3   OH230490   1.988   2.414   2.096 -0.6426 -0.6698 -0.1442
 2952TIP3    H130491   1.920   2.436   2.032 -2.6085  0.6286  2.2306
 2952TIP3    H230492   1.949   2.346   2.150  0.6574 -1.1481  0.2282
 2953TIP3   OH230493   4.567   6.328   2.021  0.2622 -0.2497 -0.0256
 2953TIP3    H130494   4.573   6.233   2.031 -0.8789 -0.4312 -0.8782
 2953TIP3    H230495   4.648   6.361   2.060  0.8579 -1.5948 -0.0621
 2954TIP3   OH230496   0.282   5.536   2.147 -0.2655 -0.6404 -0.1765
 2954TIP3    H130497   0.236   5.515   2.066 -0.9516  2.0467 -0.6042
 2954TIP3    H230498   0.316   5.453   2.179 -0.6231 -1.8935 -2.8264
 2955TIP3   OH230499   0.352   1.499   1.607 -0.0049  0.3703 -0.5205
 2955TIP3    H130500   0.283   1.547   1.652 -0.1366 -0.0611 -0.2628
 2955TIP3    H230501   0.432   1.524   1.653 -0.3129 -1.2520  0.9682
 2956TIP3   OH230502   0.143   5.199   0.033  0.1280  0.4905 -0.4833
 2956TIP3    H130503   0.185   5.131  -0.020  1.6573  0.6161  0.5133
 2956TIP3    H230504   0.145   5.277  -0.023  0.8564  0.3876 -0.6085
 2957TIP3   OH230505   0.545   2.119   1.933  0.0087  0.2206  0.0885
 2957TIP3    H130506   0.478   2.184   1.954  1.2962  1.6147  0.0725
 2957TIP3    H230507   0.628   2.166   1.943  0.9363 -0.9322 -1.6036
 2958TIP3   OH230508   5.350   1.616   2.146  0.2992 -0.2584 -0.2156
 2958TIP3    H130509   5.328   1.674   2.219 -0.3117  0.3454 -0.8568
 2958TIP3    H230510   5.427   1.568   2.176  1.3215  1.4402  0.0698
 2959TIP3   OH230511   0.945   2.709   3.197 -0.2351  0.2934  0.3346
 2959TIP3    H130512   0.853   2.682   3.199 -0.4739  0.6869 -2.1394
 2959TIP3    H230513   0.982   2.663   3.122  0.6166  2.8744 -0.9514
 2960TIP3   OH230514   1.522   6.388   1.211  0.0117 -0.2820 -0.0202
 2960TIP3    H130515   1.535   6.483   1.206 -0.5834 -0.2276 -0.8053
 2960TIP3    H230516   1.579   6.360   1.283 -0.6391  0.8229  0.9725
 2961TIP3   OH230517   3.739   6.580   2.913  0.6144 -0.2898  0.0812
 2961TIP3    H130518   3.679   6.506   2.905  0.5281 -0.1970 -0.1417
 2961TIP3    H230519   3.825   6.539   2.926  0.6355 -0.4441 -0.4976
 2962TIP3   OH230520   0.213   6.992   3.267  0.2642 -0.0175 -0.2326
 2962TIP3    H130521   0.168   6.988   3.352  1.1521 -0.1012  0.2439
 2962TIP3    H230522   0.293   6.942   3.280 -0.4934 -1.6968 -1.7155
 2963TIP3   OH230523   5.989   4.890   8.067 -0.4553 -0.1125 -0.3663
 2963TIP3    H130524   6.034   4.839   8.135 -0.1190 -0.5647 -0.9110
 2963TIP3    H230525   6.048   4.884   7.991 -0.1158  1.5985 -0.2681
 2964TIP3   OH230526   1.351   1.313   7.505  0.6912  0.2211  0.4718
 2964TIP3    H130527   1.339   1.380   7.438 -0.5964 -3.3682 -3.2691
 2964TIP3    H230528   1.281   1.330   7.568 -0.4980  1.5522 -1.1155
 2965TIP3   OH230529   0.620   0.106   1.689  0.2743 -0.3549  0.1536
 2965TIP3    H130530   0.650   0.096   1.599 -0.4968 -0.4552 -0.0967
 2965TIP3    H230531   0.556   0.177   1.685  1.5328  0.8864  0.9380
 2966TIP3   OH230532   0.220   0.674   3.438 -0.2002 -0.0150 -0.6645
 2966TIP3    H130533   0.209   0.766   3.461  0.5827 -0.1368  0.2621
 2966TIP3    H230534   0.315   0.662   3.432 -0.3218 -0.5108 -1.8775
 2967TIP3   OH230535   4.741   3.699   2.531  0.1504 -0.5986 -0.1501
 2967TIP3    H130536   4.675   3.669   2.469  0.7585 -3.7733  0.5498
 2967TIP3    H230537   4.824   3.666   2.495  0.9121  0.1967  0.8040
 2968TIP3   OH230538   1.399   1.333   2.322  0.7006 -0.0351 -0.4480
 2968TIP3    H130539   1.374   1.397   2.389  3.0277  1.0531 -0.5007
 2968TIP3    H230540   1.408   1.250   2.370 -0.1982  0.1492  0.0569
 2969TIP3   OH230541   5.899   3.230   2.873 -0.2254 -0.2045  1.2723
 2969TIP3    H130542   5.925   3.278   2.952  2.0378  2.4137 -0.8520
 2969TIP3    H230543   5.975   3.175   2.853 -0.8454 -0.9737  0.9747
 2970TIP3   OH230544   1.989   7.065   2.249 -0.0925 -0.0770 -0.1206
 2970TIP3    H130545   2.055   7.035   2.311  0.3315 -1.7802 -1.3058
 2970TIP3    H230546   2.037   7.083   2.169 -0.9042 -0.1451 -0.6386
 2971TIP3   OH230547   5.561   5.782   1.110  0.2284 -0.0680  0.8551
 2971TIP3    H130548   5.490   5.722   1.133 -0.9191  1.5421  1.6129
 2971TIP3    H230549   5.637   5.749   1.159  0.1720 -2.0033 -0.2280
 2972TIP3   OH230550   0.605   1.950   8.181  0.7976  0.4092  0.5512
 2972TIP3    H130551   0.575   2.037   8.209 -0.5503  0.5815 -1.2398
 2972TIP3    H230552   0.524   1.902   8.166  1.5304 -0.7815  0.3566
 2973TIP3   OH230553   0.996   3.345   2.761 -0.3341  0.6024 -0.5037
 2973TIP3    H130554   0.984   3.355   2.855 -0.3628 -0.7273 -0.3486
 2973TIP3    H230555   1.023   3.432   2.731 -1.2173  1.2757  0.5740
 2974TIP3   OH230556   1.858   5.825   2.712 -0.1298  1.0915 -0.1163
 2974TIP3    H130557   1.888   5.763   2.778 -4.5880  2.9602  4.3649
 2974TIP3    H230558   1.807   5.772   2.651 -0.7732 -0.2227  1.4673
 2975TIP3   OH230559   0.526   4.854   2.350 -0.0361 -0.0767 -0.3060
 2975TIP3    H130560   0.591   4.891   2.410 -1.2457  1.2667  0.2128
 2975TIP3    H230561   0.524   4.914   2.276 -0.4306 -0.3133 -0.4911
 2976TIP3   OH230562   0.914   2.928   3.749 -0.7229 -0.2370  0.0480
 2976TIP3    H130563   0.942   2.887   3.667 -1.2852 -1.1832  0.3044
 2976TIP3    H230564   0.994   2.937   3.800 -0.3275  0.6083 -0.6965
 2977TIP3   OH230565   0.886   5.019   3.238  0.0089 -0.0340 -0.2891
 2977TIP3    H130566   0.911   5.103   3.276  2.4689 -0.8043  0.0136
 2977TIP3    H230567   0.883   4.959   3.313  4.7183 -1.5306 -0.9001
 2978TIP3   OH230568   5.217   2.141   0.704  0.0937  0.3346 -0.1498
 2978TIP3    H130569   5.286   2.147   0.639  0.4936  1.6478  0.3600
 2978TIP3    H230570   5.170   2.224   0.698 -1.9122 -0.7769 -0.9475
 2979TIP3   OH230571   1.479   0.612   2.642  0.5846  0.5681 -0.3731
 2979TIP3    H130572   1.500   0.686   2.585  0.0538 -0.3305 -1.7769
 2979TIP3    H230573   1.450   0.543   2.582  0.0877 -0.4397  0.9863
 2980TIP3   OH230574   2.218   6.828   1.125 -0.5212 -0.2357  0.5077
 2980TIP3    H130575   2.275   6.771   1.177  1.1342  1.0792  0.2372
 2980TIP3    H230576   2.272   6.905   1.107 -1.9753  0.5134 -0.8780
 2981TIP3   OH230577   3.305   1.540   0.179 -0.0063  0.3239 -0.3844
 2981TIP3    H130578   3.382   1.485   0.171 -1.0387 -1.4781  1.3376
 2981TIP3    H230579   3.337   1.629   0.163  3.1533  0.1132  3.2934
 2982TIP3   OH230580   4.574   5.315   3.545  0.2211  0.0018  0.0106
 2982TIP3    H130581   4.652   5.371   3.544 -1.6576  2.8644  0.3864
 2982TIP3    H230582   4.569   5.278   3.457  0.8776  1.5272 -0.7075
 2983TIP3   OH230583   1.051   5.347   8.113 -0.1176 -0.1633 -0.2165
 2983TIP3    H130584   1.028   5.254   8.103  0.6898 -0.5815  1.4033
 2983TIP3    H230585   1.104   5.367   8.036  0.6136 -1.3741 -0.0539
 2984TIP3   OH230586   4.105   4.518   2.738 -0.2829 -0.1008  0.2594
 2984TIP3    H130587   4.010   4.513   2.739 -0.3251  0.6054  0.8401
 2984TIP3    H230588   4.126   4.582   2.670 -0.2123 -0.3891  0.0077
 2985TIP3   OH230589   0.715   5.510   1.399 -0.1939 -0.1000 -0.6433
 2985TIP3    H130590   0.754   5.423   1.406  1.0629  0.4318 -0.8018
 2985TIP3    H230591   0.681   5.514   1.309  1.5646  0.2763 -1.3355
 2986TIP3   OH230592   1.142   1.556   2.854 -0.0279 -0.8924  0.2067
 2986TIP3    H130593   1.171   1.492   2.920  3.4322  0.8040  0.5858
 2986TIP3    H230594   1.144   1.640   2.899 -0.2884 -0.0034 -1.3511
 2987TIP3   OH230595   5.258   6.214   7.875  0.0146 -0.0787  0.0919
 2987TIP3    H130596   5.309   6.295   7.876 -1.7600  1.0951  0.9528
 2987TIP3    H230597   5.292   6.165   7.800  1.1436  1.4353 -0.4453
 2988TIP3   OH230598   3.261   2.854   7.982  0.5065  0.6071 -0.3817
 2988TIP3    H130599   3.299   2.775   8.021  1.1663  1.9181  1.8810
 2988TIP3    H230600   3.240   2.830   7.893  1.5490 -1.8430 -0.0425
 2989TIP3   OH230601   0.680   3.664   0.378 -0.1297  0.0687 -0.2162
 2989TIP3    H130602   0.599   3.669   0.428 -0.4782  1.0542 -0.8509
 2989TIP3    H230603   0.749   3.686   0.442 -0.1838 -2.0954  0.6627
 2990TIP3   OH230604   6.352   4.279   2.802  0.0309 -0.0752  0.3169
 2990TIP3    H130605   6.363   4.324   2.887 -0.2455 -3.7962  2.5357
 2990TIP3    H230606   6.258   4.282   2.786  0.0427  0.3448  0.3111
 2991TIP3   OH230607   3.632   6.666   8.169 -0.3146  0.7466 -0.3743
 2991TIP3    H130608   3.551   6.639   8.126 -1.1755 -0.7571  1.9487
 2991TIP3    H230609   3.609   6.746   8.216 -0.5079  0.2917  0.3266
 2992TIP3   OH230610   6.386   6.107   0.827 -0.0311 -0.8480  0.0601
 2992TIP3    H130611   6.383   6.191   0.873 -0.7696 -1.2569  0.7903
 2992TIP3    H230612   6.323   6.052   0.874 -1.8493 -0.8986 -2.2249
 2993TIP3   OH230613   2.589   1.149   1.308  0.4789 -0.2566 -0.4564
 2993TIP3    H130614   2.524   1.217   1.327 -0.0130 -0.3046 -1.8390
 2993TIP3    H230615   2.668   1.178   1.352  0.5213  1.6652 -1.6579
 2994TIP3   OH230616   4.779   1.298   8.009 -1.0014 -0.3666  0.1554
 2994TIP3    H130617   4.847   1.277   7.945 -0.3867 -1.4078  1.1098
 2994TIP3    H230618   4.749   1.385   7.984 -0.0985 -0.3438 -0.9561
 2995TIP3   OH230619   5.381   3.564   2.272  0.2804  0.0830  0.5104
 2995TIP3    H130620   5.403   3.599   2.185 -1.7574 -1.4808 -0.7132
 2995TIP3    H230621   5.462   3.573   2.322  1.5992  0.8188 -1.6135
 2996TIP3   OH230622   5.682   0.873   2.236 -0.2049  0.3686  0.4357
 2996TIP3    H130623   5.696   0.967   2.240 -0.5537  0.5566 -1.6341
 2996TIP3    H230624   5.741   0.842   2.168 -0.8115 -0.7568  0.3925
 2997TIP3   OH230625   4.871   2.711   7.499  0.5608 -0.5672  0.6556
 2997TIP3    H130626   4.882   2.653   7.575 -0.9377 -2.0122 -0.1551
 2997TIP3    H230627   4.831   2.655   7.432  0.3483  1.0803 -0.6587
 2998TIP3   OH230628   5.106   0.483   1.447 -0.6200 -0.7442  0.0791
 2998TIP3    H130629   5.048   0.557   1.425  0.9820  0.5060 -0.1750
 2998TIP3    H230630   5.048   0.416   1.481 -2.0833  0.9112  0.9989
 2999TIP3   OH230631   6.219   1.443   3.163  0.4083  0.4835  0.1240
 2999TIP3    H130632   6.239   1.465   3.254  2.0520  1.7632 -0.4883
 2999TIP3    H230633   6.242   1.351   3.155 -0.4876  0.1476  1.1746
 3000TIP3   OH230634   1.619   3.482   1.076  0.5501 -0.0155  0.0839
 3000TIP3    H130635   1.558   3.409   1.084 -0.1233  0.6318  1.0846
 3000TIP3    H230636   1.681   3.455   1.008 -0.6615 -0.8206 -0.7277
 3001TIP3   OH230637   1.936   0.477   1.874 -0.5225 -0.0875  0.5868
 3001TIP3    H130638   1.917   0.530   1.797  0.5308  2.1593  1.7730
 3001TIP3    H230639   2.015   0.427   1.851 -0.2823  0.4882  0.1438
 3002TIP3   OH230640   1.407   1.990   1.353 -1.0603  0.2103 -0.1213
 3002TIP3    H130641   1.373   2.035   1.430 -0.6548 -0.2804  0.3483
 3002TIP3    H230642   1.429   1.902   1.384  1.4411  0.7333 -0.1831
 3003TIP3   OH230643   5.630   1.825   1.060 -0.2597 -0.3245  0.2135
 3003TIP3    H130644   5.547   1.867   1.084 -0.2375 -0.0948 -0.1061
 3003TIP3    H230645   5.606   1.760   0.994  0.0586  1.1083 -1.3704
 3004TIP3   OH230646   5.104   5.119   8.128  0.1288  0.2042 -0.5437
 3004TIP3    H130647   5.018   5.129   8.088  0.4596  0.0696 -1.3063
 3004TIP3    H230648   5.159   5.182   8.082  0.9213 -1.1450 -1.5037
 3005TIP3   OH230649   4.728   6.596   2.585 -0.0303 -0.0452 -0.3736
 3005TIP3    H130650   4.716   6.536   2.511 -0.0806 -2.6149  1.5530
 3005TIP3    H230651   4.810   6.642   2.567  1.6606 -2.9293 -0.6340
 3006TIP3   OH230652   0.510   3.708   1.932 -0.2132  0.1132  0.0426
 3006TIP3    H130653   0.575   3.640   1.947 -1.2108 -0.6619  0.9625
 3006TIP3    H230654   0.482   3.696   1.841  1.4840  0.9837 -0.6397
 3007TIP3   OH230655   6.771   5.335   0.124  0.4628 -0.2468  0.2026
 3007TIP3    H130656   6.843   5.349   0.062 -0.1151  1.4896 -0.1432
 3007TIP3    H230657   6.808   5.362   0.209  0.6003 -0.5930  0.2561
 3008TIP3   OH230658   5.033   5.339   3.013  0.1002  0.2994 -0.0713
 3008TIP3    H130659   5.067   5.324   3.102  0.0557 -1.1085 -0.2809
 3008TIP3    H230660   4.980   5.418   3.022  2.7443  2.1708  0.4520
 3009TIP3   OH230661   0.218   2.539   0.911 -0.0047 -0.3651  0.3637
 3009TIP3    H130662   0.168   2.483   0.851  0.2737 -1.5089  1.1736
 3009TIP3    H230663   0.234   2.619   0.860 -0.2820 -1.0651 -0.8793
 3010TIP3   OH230664   2.304   5.941   2.259 -0.0010  0.6243  0.1591
 3010TIP3    H130665   2.392   5.937   2.220 -0.1806  0.6067 -0.2436
 3010TIP3    H230666   2.245   5.951   2.185 -0.3159  1.0051  0.4562
 3011TIP3   OH230667   6.618   6.580   2.526  0.0913 -0.1825 -0.1978
 3011TIP3    H130668   6.677   6.611   2.595 -0.7498  0.1958  0.3719
 3011TIP3    H230669   6.649   6.492   2.505  2.5223  0.9644 -1.8247
 3012TIP3   OH230670   6.916   5.337   0.751 -0.1297  0.0377 -0.0518
 3012TIP3    H130671   6.890   5.312   0.839 -1.1716 -0.6196 -0.5216
 3012TIP3    H230672   6.836   5.327   0.699  0.5360  0.1287 -1.1276
 3013TIP3   OH230673   1.024   5.978   7.968 -0.2582  0.4274  0.0233
 3013TIP3    H130674   0.991   6.032   7.896  0.7431  0.9844 -0.0334
 3013TIP3    H230675   1.072   5.907   7.925 -0.7431  0.0286  0.1235
 3014TIP3   OH230676   5.566   0.384   8.220 -0.7804 -0.7540  0.0230
 3014TIP3    H130677   5.555   0.469   8.265  0.6494 -1.7432  2.4172
 3014TIP3    H230678   5.517   0.395   8.138  0.0013  2.6580 -0.1666
 3015TIP3   OH230679   3.920   4.928   0.925 -0.3703  0.0767  0.5156
 3015TIP3    H130680   3.966   4.990   0.982 -0.8820 -0.2196  1.2432
 3015TIP3    H230681   3.936   4.843   0.964 -2.0422  0.0151  1.1352
 3016TIP3   OH230682   6.531   1.007   0.225  0.1299 -0.1790 -0.5573
 3016TIP3    H130683   6.593   1.079   0.218  0.4427 -0.5711 -2.0077
 3016TIP3    H230684   6.445   1.049   0.221  0.2840  0.2566  0.3451
 3017TIP3   OH230685   4.260   4.459   3.722  0.4868 -0.0815  0.3256
 3017TIP3    H130686   4.193   4.448   3.789 -0.4088  2.6177 -0.0099
 3017TIP3    H230687   4.218   4.514   3.655  0.6347 -4.0510 -3.5079
 3018TIP3   OH230688   3.401   2.298   7.553  0.3519  0.6955  0.1092
 3018TIP3    H130689   3.479   2.265   7.510  0.0349  0.3957 -0.2336
 3018TIP3    H230690   3.411   2.393   7.552  0.1858  0.7083 -0.9350
 3019TIP3   OH230691   4.789   3.713   7.978  0.2874  0.4653 -0.3375
 3019TIP3    H130692   4.861   3.743   7.921  0.5700 -0.5109 -0.5224
 3019TIP3    H230693   4.773   3.786   8.037  1.6664  0.5952 -0.0831
 3020TIP3   OH230694   6.902   1.734   3.163  0.1200 -0.1191 -0.3088
 3020TIP3    H130695   6.849   1.688   3.228 -0.3229 -0.8086 -1.1261
 3020TIP3    H230696   6.933   1.812   3.208  0.1504 -0.7714  0.8434
 3021TIP3   OH230697   4.011   2.167   0.630  0.0206  0.3560  0.5000
 3021TIP3    H130698   4.019   2.120   0.712 -0.4187 -0.4292  0.1053
 3021TIP3    H230699   4.083   2.134   0.576 -2.2798 -2.5942 -1.0597
 3022TIP3   OH230700   1.865   5.452   0.267  0.0137  0.0332 -0.7475
 3022TIP3    H130701   1.863   5.498   0.183  2.2622 -0.6451 -1.2446
 3022TIP3    H230702   1.849   5.360   0.245  2.0142 -0.3794 -0.6978
 3023TIP3   OH230703   5.396   3.793   1.035 -0.1404 -0.1369  0.2389
 3023TIP3    H130704   5.472   3.808   1.092 -0.1470 -2.3737  0.9041
 3023TIP3    H230705   5.340   3.869   1.051  1.8012  1.4790 -0.1037
 3024TIP3   OH230706   6.505   2.581   1.598 -0.0969 -0.7359 -0.3849
 3024TIP3    H130707   6.560   2.526   1.654  1.2129  1.6204  0.7823
 3024TIP3    H230708   6.481   2.524   1.524  1.9442 -2.5595  0.2635
 3025TIP3   OH230709   6.218   4.544   8.133  0.3473  0.2010  0.1420
 3025TIP3    H130710   6.216   4.482   8.061 -0.0519  1.7585 -1.2550
 3025TIP3    H230711   6.153   4.512   8.195  0.7701 -1.2218 -0.1215
 3026TIP3   OH230712   1.554   3.063   1.216 -0.2148  0.4663 -0.1518
 3026TIP3    H130713   1.475   3.095   1.258  0.6483  0.7981  1.3137
 3026TIP3    H230714   1.557   2.970   1.237 -0.7326  0.2387 -1.0775
 3027TIP3   OH230715   2.138   0.022   1.360  0.1433 -0.2949  0.3672
 3027TIP3    H130716   2.179   0.105   1.382  1.4888 -0.7639 -0.2741
 3027TIP3    H230717   2.065   0.014   1.423 -0.3267  1.5653  0.1194
 3028TIP3   OH230718   2.480   2.123   2.292  0.1003  0.1866  0.3104
 3028TIP3    H130719   2.574   2.113   2.278 -0.1805 -0.8751 -1.0256
 3028TIP3    H230720   2.447   2.161   2.211 -0.8179 -0.8781  0.1532
 3029TIP3   OH230721   5.305   1.220   8.184 -0.0618 -0.3389  0.3242
 3029TIP3    H130722   5.377   1.280   8.204 -0.0690 -0.3877  0.4989
 3029TIP3    H230723   5.229   1.260   8.228  0.0821 -0.8615  1.0696
 3030TIP3   OH230724   3.350   5.984   7.559 -0.2581  0.0001  0.0099
 3030TIP3    H130725   3.390   5.958   7.476 -0.2088 -1.3192  0.4312
 3030TIP3    H230726   3.315   6.072   7.541 -1.2671 -0.7064 -1.7556
 3031TIP3   OH230727   4.807   6.046   1.649 -0.0640  0.0521  0.4451
 3031TIP3    H130728   4.765   5.990   1.715 -0.3366  1.6392  1.7035
 3031TIP3    H230729   4.734   6.086   1.602  0.1024  0.2316  0.3383
 3032TIP3   OH230730   3.005   6.857   2.359  0.4155 -0.5574 -0.4399
 3032TIP3    H130731   2.991   6.795   2.431 -0.7578  0.1542 -0.0297
 3032TIP3    H230732   2.936   6.836   2.296  2.1269 -1.9591 -1.9738
 3033TIP3   OH230733   6.157   4.799   7.538  0.1936 -0.0182  0.5818
 3033TIP3    H130734   6.138   4.746   7.616 -1.4012 -1.8700 -0.9443
 3033TIP3    H230735   6.083   4.859   7.532 -0.2720 -0.6318 -0.0582
 3034TIP3   OH230736   4.503   0.233   0.589  0.0581  0.2844  0.3227
 3034TIP3    H130737   4.427   0.290   0.590  0.2650  0.5660  0.8741
 3034TIP3    H230738   4.578   0.293   0.586  0.2970  0.0837  1.6475
 3035TIP3   OH230739   6.557   1.487   0.307 -0.1207 -0.3856 -0.1143
 3035TIP3    H130740   6.602   1.479   0.391 -0.4686 -0.3975  0.0744
 3035TIP3    H230741   6.525   1.577   0.305 -1.7347 -0.8995  0.6152
 3036TIP3   OH230742   4.597   5.337   1.738  0.3042  0.1527  0.0836
 3036TIP3    H130743   4.625   5.411   1.791  0.7521  1.2968 -1.6555
 3036TIP3    H230744   4.653   5.341   1.660  0.4101 -2.1011 -0.0085
 3037TIP3   OH230745   1.439   1.441   8.138 -0.9976  0.0679 -0.3204
 3037TIP3    H130746   1.399   1.429   8.052 -0.3602 -1.8376 -0.4032
 3037TIP3    H230747   1.491   1.361   8.151  0.8534  1.3857  0.7848
 3038TIP3   OH230748   4.558   6.349   1.602 -0.4174  0.1247  0.4419
 3038TIP3    H130749   4.484   6.323   1.656  0.3838 -0.7573  1.1685
 3038TIP3    H230750   4.623   6.383   1.664 -0.0272  0.4254 -0.1167
 3039TIP3   OH230751   6.811   1.324   7.823  0.2707  0.9077 -0.7048
 3039TIP3    H130752   6.872   1.323   7.897  1.6318 -0.4556 -1.7584
 3039TIP3    H230753   6.811   1.233   7.791 -2.0616  0.9491 -0.9871
 3040TIP3   OH230754   1.710   5.070   3.147  0.2276  0.2838 -0.2011
 3040TIP3    H130755   1.777   5.126   3.187  0.9532  0.3404 -1.4384
 3040TIP3    H230756   1.629   5.120   3.156  0.3266  0.2059  1.3288
 3041TIP3   OH230757   3.752   1.744   0.691 -0.1301  0.0380 -0.9389
 3041TIP3    H130758   3.776   1.654   0.712 -0.5701 -0.0314 -0.7258
 3041TIP3    H230759   3.749   1.788   0.776  1.2290  0.5516 -1.1237
 3042TIP3   OH230760   2.953   5.392   7.480 -0.1495  0.2455 -0.1602
 3042TIP3    H130761   2.948   5.423   7.389  0.3798  0.2018 -0.2082
 3042TIP3    H230762   2.881   5.437   7.524 -1.0189 -0.4777 -0.8107
 3043TIP3   OH230763   0.259   6.020   0.499 -0.0204 -0.2207 -0.2449
 3043TIP3    H130764   0.175   6.044   0.538 -0.4579 -0.0747 -1.2440
 3043TIP3    H230765   0.236   5.953   0.433  0.7374 -0.7265 -0.0041
 3044TIP3   OH230766   4.248   1.787   1.737  0.3011  0.1534  0.2331
 3044TIP3    H130767   4.171   1.730   1.742  0.2970  0.0350 -0.9279
 3044TIP3    H230768   4.225   1.853   1.672  1.0620  0.3062  0.1094
 3045TIP3   OH230769   3.343   1.678   2.039  0.2107  0.5720  0.1165
 3045TIP3    H130770   3.282   1.618   1.997 -0.6872  1.2729  0.3983
 3045TIP3    H230771   3.288   1.738   2.089  1.1856  0.4265  1.4399
 3046TIP3   OH230772   5.926   0.528   1.570 -0.2063  0.1271  0.4083
 3046TIP3    H130773   5.831   0.544   1.569 -0.4075 -0.9680  0.8541
 3046TIP3    H230774   5.944   0.495   1.657 -0.1397 -3.5675 -0.8310
 3047TIP3   OH230775   1.858   0.717   3.696  0.0066 -0.2212 -0.4193
 3047TIP3    H130776   1.794   0.786   3.715 -0.8279 -1.1906  0.4299
 3047TIP3    H230777   1.824   0.674   3.617 -0.7046 -1.0849  0.3450
 3048TIP3   OH230778   2.557   5.987   2.529 -0.3022  0.2336  0.4397
 3048TIP3    H130779   2.591   5.900   2.511  0.3098  0.4468  0.5167
 3048TIP3    H230780   2.462   5.976   2.535 -0.1366 -0.6367  1.6836
 3049TIP3   OH230781   4.579   6.476   3.132 -0.0875  0.3605  0.4911
 3049TIP3    H130782   4.517   6.403   3.131  0.3177  0.0152 -0.5384
 3049TIP3    H230783   4.555   6.527   3.210  0.8259 -1.8732  2.3319
 3050TIP3   OH230784   0.359   3.787   1.333 -0.4202 -0.3547  0.0127
 3050TIP3    H130785   0.335   3.867   1.285 -0.9042  0.1612  1.0741
 3050TIP3    H230786   0.322   3.716   1.281 -2.4714  0.3023  0.4871
 3051TIP3   OH230787   3.298   5.402   8.000  0.3235  0.1303  0.0411
 3051TIP3    H130788   3.275   5.453   8.077  1.8202  0.9703 -0.0394
 3051TIP3    H230789   3.269   5.455   7.926  0.3028  0.0484 -0.0102
 3052TIP3   OH230790   0.503   1.823   1.313  0.0484 -0.6037 -0.2052
 3052TIP3    H130791   0.557   1.901   1.302 -1.3643  0.2306 -1.5867
 3052TIP3    H230792   0.538   1.780   1.391  2.0473  0.4064 -0.4910
 3053TIP3   OH230793   2.602   3.939   6.879  0.0485 -0.1700  0.6658
 3053TIP3    H130794   2.671   3.878   6.904  2.3837  2.0954  0.1476
 3053TIP3    H230795   2.614   4.015   6.936 -3.0204 -0.2165  1.5793
 3054TIP3   OH230796   0.065   3.225   2.879 -0.1756  0.3735  0.0505
 3054TIP3    H130797  -0.021   3.243   2.916  0.5850  0.2964  1.9705
 3054TIP3    H230798   0.120   3.203   2.954  0.5486 -3.8515 -1.4095
 3055TIP3   OH230799   4.027   7.024   1.400 -0.1164  0.1794  0.1021
 3055TIP3    H130800   3.993   6.934   1.404 -0.3506  0.1876 -1.3525
 3055TIP3    H230801   3.963   7.075   1.450 -0.5175 -0.3017  0.0991
 3056TIP3   OH230802   1.175   0.103   2.998  0.1845  0.2474  0.3965
 3056TIP3    H130803   1.230   0.110   3.076  0.3017 -1.4195  0.4888
 3056TIP3    H230804   1.148   0.194   2.980  1.7274  0.9119  1.2161
 3057TIP3   OH230805   5.455   3.640   0.823  0.0385  0.3617 -0.4449
 3057TIP3    H130806   5.441   3.686   0.905 -1.8082 -0.5677 -0.1755
 3057TIP3    H230807   5.477   3.708   0.760  0.1965  1.2374  0.5413
 3058TIP3   OH230808   0.031   0.519   3.566 -0.3515  0.5390  0.1895
 3058TIP3    H130809  -0.025   0.464   3.512 -0.0625  0.9235 -0.5199
 3058TIP3    H230810   0.079   0.573   3.503  1.0505 -0.0025  0.7559
 3059TIP3   OH230811   3.578   1.210   1.207  0.2782  0.4536 -0.0220
 3059TIP3    H130812   3.544   1.137   1.154  0.9503 -0.2128  0.4462
 3059TIP3    H230813   3.512   1.279   1.198 -0.5909 -0.3713 -0.1251
 3060TIP3   OH230814   5.987   2.292   0.690 -0.3456  0.1443 -0.2826
 3060TIP3    H130815   6.009   2.297   0.783 -1.2564  0.5835 -0.0867
 3060TIP3    H230816   6.072   2.282   0.647  0.0016 -1.3443  0.6718
 3061TIP3   OH230817   3.228   0.052   3.295  0.4451  0.4652  0.1103
 3061TIP3    H130818   3.292  -0.018   3.280  0.7234  0.8828 -0.7233
 3061TIP3    H230819   3.253   0.089   3.380  1.5189  0.8164 -0.3332
 3062TIP3   OH230820   1.118   5.687   1.925 -0.4120  0.2360 -0.2177
 3062TIP3    H130821   1.032   5.728   1.923 -0.3565  0.4214  0.6421
 3062TIP3    H230822   1.160   5.713   1.843 -0.7176  1.1501 -0.0947
 3063TIP3   OH230823   3.676   6.418   0.414  0.3584 -0.0297 -0.4268
 3063TIP3    H130824   3.706   6.448   0.328  1.7869  0.4504  0.2068
 3063TIP3    H230825   3.686   6.495   0.471  0.0222 -0.5153  0.2942
 3064TIP3   OH230826   5.797   0.779   7.948 -0.4955  0.8549 -0.2774
 3064TIP3    H130827   5.718   0.726   7.935 -0.1794  0.8161 -2.3585
 3064TIP3    H230828   5.780   0.859   7.897  1.0694  0.5432 -1.3419
 3065TIP3   OH230829   5.527   1.905   2.577  0.6484 -0.2384  0.2308
 3065TIP3    H130830   5.530   1.862   2.491  1.3503 -1.8612  1.0412
 3065TIP3    H230831   5.469   1.850   2.629  0.7512  0.3733  1.0042
 3066TIP3   OH230832   0.004   0.019   2.158  0.0863 -0.1015 -0.2980
 3066TIP3    H130833  -0.081   0.061   2.145 -0.2550 -0.4866  0.6201
 3066TIP3    H230834   0.067   0.082   2.125 -0.5317  0.3550 -0.6302
 3067TIP3   OH230835   3.699   1.469   2.778  0.1893 -1.0775  0.0884
 3067TIP3    H130836   3.636   1.429   2.838  0.5378 -0.7699  0.6752
 3067TIP3    H230837   3.684   1.563   2.788  1.7349 -0.9217  1.3724
 3068TIP3   OH230838   6.130   2.434   7.555  0.6209  0.2951  0.4887
 3068TIP3    H130839   6.038   2.432   7.581  0.9090 -0.6681  1.5280
 3068TIP3    H230840   6.133   2.382   7.474  0.1563  0.9150  0.0636
 3069TIP3   OH230841   5.688   1.435   1.790 -0.2601  0.0914 -0.0507
 3069TIP3    H130842   5.724   1.405   1.874 -0.6000  1.1369  0.4933
 3069TIP3    H230843   5.621   1.371   1.768  0.9650 -1.1248 -0.3903
 3070TIP3   OH230844   5.034   1.142   1.834 -0.6214  0.4587  0.1832
 3070TIP3    H130845   5.069   1.231   1.831 -1.6354  1.0342  2.7048
 3070TIP3    H230846   5.106   1.086   1.808  0.4208  1.9540 -0.2366
 3071TIP3   OH230847   2.603   5.583   7.433 -0.4968  0.5524 -0.0303
 3071TIP3    H130848   2.559   5.549   7.355  0.6403 -0.8203 -0.1202
 3071TIP3    H230849   2.582   5.677   7.434  0.6739  0.9525 -2.8633
 3072TIP3   OH230850   0.235   4.808   1.989  0.0512  0.1339 -0.0622
 3072TIP3    H130851   0.312   4.838   1.941 -0.2650  0.7920 -0.1660
 3072TIP3    H230852   0.162   4.827   1.931 -0.1818 -0.6452 -0.0340
 3073TIP3   OH230853   0.428   4.832   2.873 -0.7242  0.5936  0.0783
 3073TIP3    H130854   0.409   4.746   2.837  1.1807  0.9647 -2.0544
 3073TIP3    H230855   0.405   4.893   2.803  0.7554  1.5622  0.3916
 3074TIP3   OH230856   6.983   3.062   1.235  0.7503 -0.2092  0.2518
 3074TIP3    H130857   7.030   3.013   1.167  1.0407 -0.4384  0.6128
 3074TIP3    H230858   7.021   3.149   1.232  2.0846 -0.7214  1.3701
 3075TIP3   OH230859   3.323   3.386   1.676 -0.2053  0.1358  1.1059
 3075TIP3    H130860   3.352   3.297   1.658 -2.2135 -0.4270  0.3506
 3075TIP3    H230861   3.395   3.442   1.646  0.0302 -1.1294 -0.8293
 3076TIP3   OH230862   2.281   0.025   7.914 -0.9247 -0.0339  0.1439
 3076TIP3    H130863   2.226   0.102   7.927  0.7664  1.4386 -1.0256
 3076TIP3    H230864   2.279   0.009   7.820 -0.1165 -0.5606  0.2059
 3077TIP3   OH230865   1.286   2.551   0.146  0.3179 -0.2965  0.0204
 3077TIP3    H130866   1.265   2.602   0.068  0.3110  2.9919  1.9758
 3077TIP3    H230867   1.382   2.552   0.150  0.3187  2.3315  1.5724
 3078TIP3   OH230868   2.273   5.530   2.818 -0.5300  0.5604  0.1822
 3078TIP3    H130869   2.251   5.593   2.750  0.3571  0.2332 -0.4347
 3078TIP3    H230870   2.247   5.445   2.782 -0.5068  0.4416  0.4457
 3079TIP3   OH230871   5.538   6.749   2.709 -0.1940  0.2213 -0.1208
 3079TIP3    H130872   5.490   6.743   2.792 -2.1639  1.3581 -1.1033
 3079TIP3    H230873   5.544   6.842   2.691  0.8137  0.0165 -0.9520
 3080TIP3   OH230874   1.684   6.407   3.709  0.0445 -0.1167  0.3627
 3080TIP3    H130875   1.752   6.472   3.694 -0.4323  0.9151  2.2965
 3080TIP3    H230876   1.625   6.449   3.772 -0.4759 -2.2893  1.4076
 3081TIP3   OH230877   2.996   3.449   2.485  0.4297 -0.1700 -0.7337
 3081TIP3    H130878   3.072   3.453   2.427  0.6875 -0.4608 -0.4248
 3081TIP3    H230879   3.029   3.403   2.563  0.1465  0.3880 -0.2814
 3082TIP3   OH230880   3.146   5.714   1.840 -0.4706 -0.0745 -0.5811
 3082TIP3    H130881   3.137   5.808   1.854 -0.1246 -0.2086  0.6853
 3082TIP3    H230882   3.239   5.701   1.817  0.0038 -0.2938  1.2746
 3083TIP3   OH230883   5.656   2.843   2.241  0.9439 -0.6873 -0.7398
 3083TIP3    H130884   5.611   2.765   2.274 -0.4602  0.4864  0.2088
 3083TIP3    H230885   5.629   2.913   2.300  0.1468  1.0547 -3.0599
 3084TIP3   OH230886   1.577   3.872   1.565  1.0277  0.1080  0.3650
 3084TIP3    H130887   1.659   3.922   1.570 -0.4346  2.6884  0.8618
 3084TIP3    H230888   1.521   3.925   1.508 -0.4392 -1.3597  0.3908
 3085TIP3   OH230889   2.838   5.941   0.134  0.1574 -0.1894  0.0701
 3085TIP3    H130890   2.779   5.866   0.145 -0.0553  0.1358  1.2269
 3085TIP3    H230891   2.838   5.985   0.218  1.9376 -0.0768  0.0573
 3086TIP3   OH230892   0.475   6.707   2.820 -0.1019 -0.3969  0.7517
 3086TIP3    H130893   0.427   6.729   2.899 -2.0691 -0.3030 -0.4050
 3086TIP3    H230894   0.459   6.780   2.761  0.3156 -1.0271 -0.1715
 3087TIP3   OH230895   2.052   3.739   7.381  0.1007 -0.2589  0.0877
 3087TIP3    H130896   2.089   3.826   7.394  2.6946 -1.4269  1.0509
 3087TIP3    H230897   2.075   3.716   7.291  1.5472 -0.8464  0.5781
 3088TIP3   OH230898   2.269   1.475   3.036 -0.7532  0.2280  0.4939
 3088TIP3    H130899   2.352   1.486   3.081  0.9804 -2.0168 -1.8830
 3088TIP3    H230900   2.274   1.535   2.961  0.1074 -1.9203 -1.2806
 3089TIP3   OH230901   6.847   6.095   1.047 -0.2616 -1.2448  0.0673
 3089TIP3    H130902   6.927   6.081   1.098 -0.2394 -1.6158 -0.0675
 3089TIP3    H230903   6.812   6.007   1.033  0.4540 -1.2849 -1.7109
 3090TIP3   OH230904   5.689   6.887   1.718  0.4895  0.4305 -0.5315
 3090TIP3    H130905   5.774   6.929   1.701  0.8106  0.3333  0.7037
 3090TIP3    H230906   5.665   6.846   1.635  2.2413 -0.5612 -0.6028
 3091TIP3   OH230907   0.529   1.196   0.439 -0.2510 -0.2901  0.6391
 3091TIP3    H130908   0.608   1.249   0.452 -0.3686  0.3019 -0.8584
 3091TIP3    H230909   0.461   1.242   0.490 -0.8649  2.3400 -2.2215
 3092TIP3   OH230910   4.067   6.048   2.018 -0.0863 -0.0884 -0.6415
 3092TIP3    H130911   4.124   5.978   1.987  1.0216 -0.1004  1.2622
 3092TIP3    H230912   3.978   6.018   1.997  0.4714 -1.0856 -1.6840
 3093TIP3   OH230913   1.197   5.089   1.297 -0.4491  0.3416  0.0061
 3093TIP3    H130914   1.249   5.112   1.220  0.8902 -0.2513  0.6971
 3093TIP3    H230915   1.213   4.995   1.310 -1.7395  0.1360  0.2156
 3094TIP3   OH230916   6.318   6.976   2.046 -0.3801  0.0164 -0.0829
 3094TIP3    H130917   6.275   7.046   2.095 -0.5907 -0.8245  0.9675
 3094TIP3    H230918   6.361   6.923   2.114  0.8014 -0.1883 -0.9587
 3095TIP3   OH230919   4.758   5.128   7.666  0.0653 -0.2304  0.8751
 3095TIP3    H130920   4.709   5.191   7.612 -0.4217 -0.9002  0.5189
 3095TIP3    H230921   4.830   5.179   7.703  0.7370  0.1381 -0.8546
 3096TIP3   OH230922   2.824   6.970   1.189 -0.0399 -0.0706 -0.4787
 3096TIP3    H130923   2.845   6.993   1.280  0.9349 -2.2733 -0.0816
 3096TIP3    H230924   2.909   6.959   1.147 -0.4761 -0.1185 -1.3618
 3097TIP3   OH230925   0.862   0.716   3.055 -0.4001 -0.3993 -0.0945
 3097TIP3    H130926   0.799   0.713   3.127  0.8842 -0.1163  1.0740
 3097TIP3    H230927   0.941   0.753   3.093 -0.1205  1.1555 -2.0264
 3098TIP3   OH230928   4.637   0.853   2.733  1.3852 -0.2945  0.3429
 3098TIP3    H130929   4.621   0.761   2.754 -0.6955  0.3829  2.1402
 3098TIP3    H230930   4.669   0.891   2.815 -0.9217  1.1755  0.6636
 3099TIP3   OH230931   5.080   1.817   0.121 -0.3007  0.3585  0.1289
 3099TIP3    H130932   5.055   1.732   0.155 -0.6063 -0.1936 -1.4102
 3099TIP3    H230933   5.175   1.819   0.130 -0.0558 -1.0282 -1.7094
 3100TIP3   OH230934   5.051   4.909   3.718 -0.0215 -0.4931  0.3146
 3100TIP3    H130935   4.972   4.963   3.716 -0.4671 -1.1033 -2.7594
 3100TIP3    H230936   5.119   4.969   3.748 -1.0990  0.8714  0.1793
 3101TIP3   OH230937   1.270   3.726   2.327  0.1033 -0.3410 -0.4795
 3101TIP3    H130938   1.365   3.714   2.316 -0.0417 -1.1437 -0.9052
 3101TIP3    H230939   1.255   3.709   2.420  0.4272  0.1658 -0.3292
 3102TIP3   OH230940   2.210   1.221   3.252 -0.2381  0.2725 -0.0348
 3102TIP3    H130941   2.294   1.263   3.238 -0.1279  0.0042 -0.1972
 3102TIP3    H230942   2.229   1.127   3.250 -0.9903  0.0494 -3.4577
 3103TIP3   OH230943   3.566   4.924   0.893  0.1204  0.0642 -0.0395
 3103TIP3    H130944   3.484   4.967   0.917  0.4100  1.3187 -1.1867
 3103TIP3    H230945   3.621   4.934   0.971 -0.4711  0.1097  0.3807
 3104TIP3   OH230946   2.955   4.418   1.065 -0.5145  0.1979  0.5073
 3104TIP3    H130947   2.940   4.400   0.972  1.5110 -2.8220  0.6130
 3104TIP3    H230948   2.967   4.513   1.069 -2.7991  0.7090 -1.9024
 3105TIP3   OH230949   2.768   3.855   3.260  0.1756  0.1057  0.6548
 3105TIP3    H130950   2.725   3.785   3.212 -0.3937 -0.7595  2.3722
 3105TIP3    H230951   2.859   3.853   3.228 -0.7279  1.4473 -2.4248
 3106TIP3   OH230952   5.434   1.980   8.081 -0.3122 -0.0480 -0.0646
 3106TIP3    H130953   5.467   1.998   8.169 -1.0676  0.4512  0.1271
 3106TIP3    H230954   5.358   2.037   8.072 -0.3229 -0.1946 -0.9952
 3107TIP3   OH230955   4.229   6.588   2.733  0.2163  0.0059 -0.5218
 3107TIP3    H130956   4.239   6.496   2.755 -3.1864 -0.2248  0.7175
 3107TIP3    H230957   4.234   6.591   2.638 -0.2540 -1.5730 -0.6206
 3108TIP3   OH230958   6.033   5.571   1.986 -0.5060  0.6484  0.4021
 3108TIP3    H130959   5.988   5.656   1.991  0.7318  1.3925 -0.5846
 3108TIP3    H230960   6.057   5.551   2.076 -2.9390  0.1189  1.0087
 3109TIP3   OH230961   5.888   6.247   3.180  0.1699 -0.0848 -0.0327
 3109TIP3    H130962   5.936   6.170   3.149  0.8506  0.4476 -0.3174
 3109TIP3    H230963   5.953   6.299   3.226  0.0988  1.0875 -1.1950
 3110TIP3   OH230964   4.317   2.282   2.056 -0.3527  0.5105 -0.2000
 3110TIP3    H130965   4.245   2.233   2.098 -0.1955  1.7423  1.5895
 3110TIP3    H230966   4.368   2.214   2.011 -1.3709 -0.6754  0.3587
 3111TIP3   OH230967   5.461   2.061   1.108 -0.3910  0.1643  0.4065
 3111TIP3    H130968   5.375   2.055   1.151 -1.3066  0.6364 -1.2943
 3111TIP3    H230969   5.444   2.108   1.027  1.3179 -0.6079 -0.4405
 3112TIP3   OH230970   3.380   5.305   8.276  0.2362  0.0537 -0.0939
 3112TIP3    H130971   3.385   5.307   8.371 -0.0386 -1.4359 -0.0170
 3112TIP3    H230972   3.346   5.218   8.256  2.1977 -0.4333 -1.6216
 3113TIP3   OH230973   4.979   2.100   1.188  0.5012 -0.1720  0.2903
 3113TIP3    H130974   4.961   2.112   1.282 -0.8862 -0.1552  0.0421
 3113TIP3    H230975   4.907   2.046   1.157  2.0285 -1.8893 -0.3934
 3114TIP3   OH230976   4.523   2.443   1.676 -0.6663 -0.0318 -0.7347
 3114TIP3    H130977   4.444   2.409   1.716 -0.8123 -0.8369 -1.6702
 3114TIP3    H230978   4.503   2.448   1.582  0.7241 -1.3185 -1.1557
 3115TIP3   OH230979   4.245   6.219   8.161  0.0144 -0.7197  0.3360
 3115TIP3    H130980   4.223   6.172   8.081  0.0568 -1.9097  1.0132
 3115TIP3    H230981   4.220   6.310   8.143  3.1108 -0.2110 -2.3081
 3116TIP3   OH230982   3.620   1.542   1.792 -0.4082  0.2955  0.5597
 3116TIP3    H130983   3.540   1.546   1.739  1.5684  0.3861 -2.6984
 3116TIP3    H230984   3.627   1.449   1.815 -0.8316  0.0624 -0.1864
 3117TIP3   OH230985   4.752   5.541   3.828 -0.2594 -0.2866 -0.0451
 3117TIP3    H130986   4.722   5.620   3.873  0.1622 -1.1861  1.9348
 3117TIP3    H230987   4.712   5.545   3.741 -1.5289  1.2882  0.5779
 3118TIP3   OH230988   0.553   1.722   0.783 -0.4933 -0.3076  0.7450
 3118TIP3    H130989   0.646   1.726   0.808 -0.1395 -1.1410 -0.3699
 3118TIP3    H230990   0.507   1.708   0.866  0.3375  0.5271  1.3674
 3119TIP3   OH230991   6.446   5.245   2.988  0.0602 -0.3990 -0.0603
 3119TIP3    H130992   6.475   5.295   2.912 -0.8831 -0.4438 -0.4644
 3119TIP3    H230993   6.398   5.171   2.951 -3.2277  1.2426  0.5043
 3120TIP3   OH230994   4.354   3.617   0.285 -0.4362 -0.2294 -0.2643
 3120TIP3    H130995   4.361   3.564   0.205  0.0574 -0.8960  0.2102
 3120TIP3    H230996   4.359   3.553   0.356  2.1815  0.5907  0.3821
 3121TIP3   OH230997   5.043   6.298   1.370 -0.2634  0.6008 -0.1226
 3121TIP3    H130998   5.121   6.268   1.416  0.5978  2.5465 -0.1957
 3121TIP3    H230999   5.024   6.229   1.307  1.5514  0.1722 -0.2588
 3122TIP3   OH231000   3.990   6.734   1.430 -0.1668 -0.2064  0.0567
 3122TIP3    H131001   3.994   6.786   1.510  0.2835 -1.0927  0.6217
 3122TIP3    H231002   4.009   6.645   1.458  0.4984 -0.4523 -1.1150
 3123TIP3   OH231003   6.633   3.563   7.893  0.4188 -0.4664 -0.2797
 3123TIP3    H131004   6.645   3.512   7.812  1.1755 -0.9675  0.1378
 3123TIP3    H231005   6.623   3.653   7.862  1.4266 -0.5516 -0.9049
 3124TIP3   OH231006   6.864   6.401   2.006 -0.1901 -0.6719  0.0720
 3124TIP3    H131007   6.861   6.341   1.932  1.3555 -0.8916  0.1527
 3124TIP3    H231008   6.910   6.479   1.973  1.2704 -1.1039  0.9751
 3125TIP3   OH231009   5.486   5.176   0.511 -0.6423  0.8209 -0.1671
 3125TIP3    H131010   5.535   5.112   0.563 -0.6397  0.6616 -0.3656
 3125TIP3    H231011   5.506   5.154   0.420 -2.0690 -0.0598 -0.3102
 3126TIP3   OH231012   2.520   1.241   3.204 -0.6456  0.4248 -0.0413
 3126TIP3    H131013   2.552   1.319   3.249 -0.7296 -0.1859  1.1015
 3126TIP3    H231014   2.548   1.168   3.259 -2.3101 -0.2452 -0.0202
 3127TIP3   OH231015   4.526   1.362   0.976  0.1838 -0.5338  0.0082
 3127TIP3    H131016   4.619   1.339   0.975  0.2035 -0.4510 -0.0559
 3127TIP3    H231017   4.490   1.313   1.050  0.0173 -1.5966 -0.7550
 3128TIP3   OH231018   4.466   2.848   2.132 -0.7219 -0.1925  0.1650
 3128TIP3    H131019   4.462   2.897   2.050  1.6964 -0.4195 -0.1645
 3128TIP3    H231020   4.525   2.899   2.188 -0.6489 -1.1166  0.9623
 3129TIP3   OH231021   1.809   0.216   2.214 -0.5191  0.5736  0.0281
 3129TIP3    H131022   1.879   0.281   2.222 -1.6584  1.6677  1.6754
 3129TIP3    H231023   1.840   0.142   2.265 -0.0208  0.5380 -0.3127
 3130TIP3   OH231024   5.071   3.866   0.294  0.4295  0.7103 -0.4547
 3130TIP3    H131025   5.133   3.897   0.228 -0.4815 -2.7470 -3.1752
 3130TIP3    H231026   4.985   3.890   0.260 -0.0123  0.8879  0.7047
 3131TIP3   OH231027   2.876   1.439   2.085  0.4271 -0.0973 -0.4949
 3131TIP3    H131028   2.839   1.441   2.173  1.7617 -0.3538  0.0846
 3131TIP3    H231029   2.803   1.411   2.029 -0.2182 -0.7122  0.6253
 3132TIP3   OH231030   0.607   2.283   1.240 -0.1197  0.1046 -0.3295
 3132TIP3    H131031   0.563   2.351   1.292 -0.8887 -0.0302 -0.7902
 3132TIP3    H231032   0.548   2.208   1.243 -0.3875  0.2231 -1.7254
 3133TIP3   OH231033   6.632   6.332   3.232 -0.6543 -0.1035  0.1868
 3133TIP3    H131034   6.713   6.310   3.187 -0.1616  0.1678  0.9193
 3133TIP3    H231035   6.563   6.298   3.175 -0.0359 -0.2659 -0.4861
 3134TIP3   OH231036   1.512   6.348   2.691 -0.8497  0.4865 -0.1086
 3134TIP3    H131037   1.588   6.300   2.659 -0.8598  0.2544  0.2153
 3134TIP3    H231038   1.505   6.325   2.783 -0.1357  2.0451  0.3675
 3135TIP3   OH231039   4.727   6.689   0.398  0.3196 -0.5827  0.1207
 3135TIP3    H131040   4.783   6.631   0.449  1.3291  0.7358  0.5694
 3135TIP3    H231041   4.640   6.649   0.403  0.9067 -1.8250  0.7431
 3136TIP3   OH231042   3.459   0.509   3.804 -0.1282  0.1497  0.1848
 3136TIP3    H131043   3.488   0.581   3.860  1.4898 -0.6366  0.4182
 3136TIP3    H231044   3.478   0.430   3.854  0.3434 -0.5263 -1.0159
 3137TIP3   OH231045   6.568   0.173   4.062  0.0145 -0.6149  0.0806
 3137TIP3    H131046   6.486   0.154   4.108  0.2268 -0.2845  0.6098
 3137TIP3    H231047   6.542   0.199   3.974 -0.4588 -0.3111  0.3104
 3138TIP3   OH231048   0.044   3.780   8.224  0.4607 -0.3189  0.0189
 3138TIP3    H131049  -0.045   3.753   8.201  0.5823 -1.0751  0.3961
 3138TIP3    H231050   0.072   3.836   8.151  0.3305 -1.5293 -0.9919
 3139TIP3   OH231051   3.393   4.762   0.777 -0.6752 -0.2188 -0.3048
 3139TIP3    H131052   3.458   4.801   0.835  0.6293 -0.1630 -1.7336
 3139TIP3    H231053   3.434   4.681   0.746 -1.3587 -0.2646 -1.1214
 3140TIP3   OH231054   5.888   5.594   3.749 -0.8495 -0.5778 -0.3600
 3140TIP3    H131055   5.938   5.517   3.723  0.2474  0.3594 -1.1052
 3140TIP3    H231056   5.797   5.573   3.726 -0.8456 -2.3079  1.0343
 3141TIP3   OH231057   2.583   6.506   7.588 -0.0578 -0.0323  0.8395
 3141TIP3    H131058   2.495   6.505   7.549  0.0711 -0.4607  0.5504
 3141TIP3    H231059   2.619   6.420   7.567  0.7832  0.4786  0.1535
 3142TIP3   OH231060   1.416   0.836   7.932 -0.0100  0.1476 -0.5362
 3142TIP3    H131061   1.327   0.855   7.963 -0.1009 -2.1313  0.7509
 3142TIP3    H231062   1.455   0.923   7.920 -2.3969  1.2353 -1.2630
 3143TIP3   OH231063   2.862   6.184   0.319  0.1652 -0.6027 -0.2563
 3143TIP3    H131064   2.956   6.186   0.334  0.2123  2.0277 -0.4327
 3143TIP3    H231065   2.823   6.205   0.405 -0.0486  1.7733 -0.8555
 3144TIP3   OH231066   0.942   7.067   1.322 -0.8191  0.3637  0.4847
 3144TIP3    H131067   1.037   7.075   1.327 -0.8499  0.9781  0.2734
 3144TIP3    H231068   0.925   6.974   1.310 -0.2814  0.1527  1.3241
 3145TIP3   OH231069   5.702   0.534   7.162  0.1031  0.2141  0.1235
 3145TIP3    H131070   5.697   0.625   7.191 -0.7558  0.5461 -1.0273
 3145TIP3    H231071   5.724   0.539   7.069 -1.1270 -0.7013 -0.2445
 3146TIP3   OH231072   1.779   1.920   7.585 -0.1068  0.4039 -0.6694
 3146TIP3    H131073   1.776   1.961   7.672 -3.2739 -2.3115  0.7687
 3146TIP3    H231074   1.849   1.854   7.592 -0.2003  0.3476 -0.2194
 3147TIP3   OH231075   3.654   2.829   2.709 -0.3030 -0.1388 -0.5397
 3147TIP3    H131076   3.599   2.822   2.630 -0.0047  0.0245 -0.7642
 3147TIP3    H231077   3.634   2.916   2.744 -1.1749 -0.5933  0.1247
 3148TIP3   OH231078   0.527   1.140   1.513  0.0233 -0.0123  0.4805
 3148TIP3    H131079   0.527   1.126   1.608  0.8795  0.6404  0.5910
 3148TIP3    H231080   0.610   1.185   1.496 -1.7768  3.4508 -0.0476
 3149TIP3   OH231081   6.987   1.274   0.976  0.0552  0.5295  0.2192
 3149TIP3    H131082   6.996   1.249   1.068 -1.7405  0.2982  0.3581
 3149TIP3    H231083   6.965   1.367   0.978 -1.0631  0.2774  0.0890
 3150TIP3   OH231084   0.774   0.923   8.111  0.0633 -0.3678 -0.3580
 3150TIP3    H131085   0.752   0.957   8.024  0.0999 -1.4465 -0.8092
 3150TIP3    H231086   0.852   0.972   8.137 -0.9561  1.1961 -0.1566
 3151TIP3   OH231087   4.235   0.982   1.887  0.3623 -0.4619 -0.3655
 3151TIP3    H131088   4.184   0.905   1.859 -0.6695  1.0451 -3.0084
 3151TIP3    H231089   4.254   1.028   1.806  2.4190  1.2380  0.9973
 3152TIP3   OH231090   5.973   2.027   2.558 -0.2142 -0.4144  0.8466
 3152TIP3    H131091   5.994   1.965   2.628  0.2265  0.0396  1.1208
 3152TIP3    H231092   5.888   2.064   2.584 -0.6728 -1.1808  0.4813
 3153TIP3   OH231093   2.904   6.927   0.411  0.7865  0.5299  0.2941
 3153TIP3    H131094   2.881   6.849   0.460 -0.2177  0.4217 -0.3088
 3153TIP3    H231095   2.820   6.968   0.391  1.2703  1.4756  0.1364
 3154TIP3   OH231096   4.207   2.293   8.141 -1.0514  0.0099  0.7427
 3154TIP3    H131097   4.192   2.209   8.184 -2.3338  0.6717  1.6353
 3154TIP3    H231098   4.238   2.351   8.211  1.9843 -0.2162 -0.2471
 3155TIP3   OH231099   6.341   0.691   2.940 -0.1406  0.4850 -0.5702
 3155TIP3    H131100   6.365   0.730   3.025  0.8789 -2.2880  0.5367
 3155TIP3    H231101   6.380   0.604   2.942 -0.2613  0.2278 -3.8656
 3156TIP3   OH231102   4.396   4.137   1.724  0.1695  0.0375 -0.1546
 3156TIP3    H131103   4.472   4.174   1.770 -0.8478 -1.4550  3.0503
 3156TIP3    H231104   4.323   4.194   1.750 -0.1056  0.5870 -2.0039
 3157TIP3   OH231105   6.748   0.220   0.421 -0.8316 -0.9524  0.6013
 3157TIP3    H131106   6.675   0.249   0.475 -1.0926  1.1824 -0.7909
 3157TIP3    H231107   6.708   0.200   0.336 -0.1296 -2.3221  0.5555
 3158TIP3   OH231108   4.997   6.995   2.113 -0.4362 -0.3510  0.5536
 3158TIP3    H131109   5.028   7.081   2.142 -2.3287 -0.1529  2.2702
 3158TIP3    H231110   4.951   7.014   2.031 -0.7758  0.2815  0.8771
 3159TIP3   OH231111   1.644   3.666   2.422  0.1469 -0.5487  0.2882
 3159TIP3    H131112   1.643   3.609   2.499 -1.8460  0.1801  0.8696
 3159TIP3    H231113   1.611   3.611   2.351 -1.9840 -0.1301  0.8946
 3160TIP3   OH231114   1.901   1.931   8.142  0.3718  0.2570 -0.2623
 3160TIP3    H131115   1.985   1.899   8.176  0.4832  0.6470 -0.1673
 3160TIP3    H231116   1.872   1.863   8.082  0.5951 -0.0368 -0.0420
 3161TIP3   OH231117   4.552   2.572   7.728 -0.6857  0.1333 -0.5179
 3161TIP3    H131118   4.617   2.502   7.737 -1.5397 -0.6128 -0.0086
 3161TIP3    H231119   4.482   2.534   7.674 -0.1499  1.3489 -2.1642
 3162TIP3   OH231120   1.575   5.667   0.836  0.5926 -0.1973 -0.4297
 3162TIP3    H131121   1.645   5.602   0.829  3.3399  2.4877 -0.5167
 3162TIP3    H231122   1.571   5.707   0.750 -1.3664 -0.4816 -0.5140
 3163TIP3   OH231123   1.459   2.692   7.532 -0.0323  0.3878  0.2068
 3163TIP3    H131124   1.509   2.701   7.451  0.7994  0.6537  0.7319
 3163TIP3    H231125   1.502   2.752   7.593 -1.4640  1.1809  0.4679
 3164TIP3   OH231126   5.068   1.373   1.184 -0.7648  0.0494 -0.1527
 3164TIP3    H131127   5.023   1.445   1.142 -1.5774  0.2382  0.9956
 3164TIP3    H231128   5.040   1.377   1.276  0.9102 -0.3633  0.4122
 3165TIP3   OH231129   1.154   4.398   0.813 -0.1288 -0.6424  0.2736
 3165TIP3    H131130   1.188   4.319   0.856 -0.4839 -0.3161  1.1902
 3165TIP3    H231131   1.196   4.470   0.861  0.0835 -0.2726 -0.4613
 3166TIP3   OH231132   0.323   3.378   1.001  0.6218 -0.0644  0.1290
 3166TIP3    H131133   0.259   3.314   0.971  0.8899  0.2714 -1.2186
 3166TIP3    H231134   0.399   3.326   1.026  0.4068 -0.3439  0.2137
 3167TIP3   OH231135   0.068   1.673   0.079  0.2129 -0.3308 -0.2157
 3167TIP3    H131136   0.130   1.600   0.083  0.4711 -0.0901  0.3380
 3167TIP3    H231137   0.123   1.751   0.085  0.0541 -0.0461 -2.0660
 3168TIP3   OH231138   6.805   3.060   1.449 -0.1132  0.5011 -0.0624
 3168TIP3    H131139   6.869   3.034   1.382  0.4231  0.7942  0.3296
 3168TIP3    H231140   6.824   3.153   1.464 -1.6148  1.0050 -1.0253
 3169TIP3   OH231141   4.744   0.332   7.590 -0.0667  0.4663  0.2224
 3169TIP3    H131142   4.686   0.282   7.648 -1.0057 -1.3264 -2.0874
 3169TIP3    H231143   4.830   0.292   7.601 -0.1543  0.3723  0.5973
 3170TIP3   OH231144   4.614   5.276   0.183 -0.7197 -0.2082  0.1071
 3170TIP3    H131145   4.626   5.364   0.149 -0.6448  0.2227  1.2106
 3170TIP3    H231146   4.600   5.288   0.277  1.3926 -1.4946  0.6433
 3171TIP3   OH231147   2.591   6.933   1.897 -0.5568 -0.3878  0.2838
 3171TIP3    H131148   2.558   6.844   1.912  0.6509 -0.5827  2.0176
 3171TIP3    H231149   2.568   6.951   1.806 -2.5674 -1.7090  0.4533
 3172TIP3   OH231150   4.943   0.511   2.021 -0.2427  0.7366 -0.0219
 3172TIP3    H131151   4.870   0.546   2.073 -0.1648  2.1132 -0.7708
 3172TIP3    H231152   5.021   0.534   2.072 -0.2808  0.1280  0.3116
 3173TIP3   OH231153   0.235   4.982   8.169  0.2195 -0.4618 -0.2448
 3173TIP3    H131154   0.311   4.943   8.125  0.9632  1.5137 -0.8287
 3173TIP3    H231155   0.167   4.984   8.101 -0.7593 -3.1387  0.5550
 3174TIP3   OH231156   3.521   0.748   1.917 -0.0490 -0.0045  0.3616
 3174TIP3    H131157   3.586   0.752   1.987 -0.5607  0.3865  0.8164
 3174TIP3    H231158   3.440   0.777   1.957 -0.8704 -1.9329  0.1982
 3175TIP3   OH231159   2.709   0.502   2.957  0.4957 -0.0318 -0.7324
 3175TIP3    H131160   2.623   0.492   2.997  1.7021 -0.2606  2.0336
 3175TIP3    H231161   2.724   0.597   2.955  0.0586  0.0274 -1.5589
 3176TIP3   OH231162   2.152   1.421   2.756 -0.2953  0.1428 -0.6670
 3176TIP3    H131163   2.127   1.386   2.671  2.6634 -0.4661 -1.3880
 3176TIP3    H231164   2.083   1.483   2.777 -2.5649 -1.6934 -2.1756
 3177TIP3   OH231165   3.301   3.754   2.462 -0.3582  0.0214 -0.1321
 3177TIP3    H131166   3.391   3.788   2.466 -1.1057  2.1289 -0.3299
 3177TIP3    H231167   3.277   3.741   2.553 -0.1570  0.2872 -0.0391
 3178TIP3   OH231168   5.308   4.324   2.517 -0.3522 -0.3338 -0.5006
 3178TIP3    H131169   5.317   4.243   2.469 -2.5269 -1.2311  0.4545
 3178TIP3    H231170   5.268   4.385   2.455  1.2393  0.0372 -1.2026
 3179TIP3   OH231171   0.319   1.977   3.572 -0.1573 -0.0612 -0.4460
 3179TIP3    H131172   0.244   1.951   3.519 -0.8290  1.3236 -0.2197
 3179TIP3    H231173   0.290   2.056   3.618  1.0467 -0.1554  0.5389
 3180TIP3   OH231174   3.815   0.124   0.066  0.7915  0.6067  0.2538
 3180TIP3    H131175   3.764   0.197   0.032 -1.1328 -0.7675 -0.0041
 3180TIP3    H231176   3.763   0.046   0.044  2.5382 -0.8172  0.8857
 3181TIP3   OH231177   3.422   2.086   1.287  0.3169 -0.4340 -0.0736
 3181TIP3    H131178   3.369   2.010   1.265  0.7926 -0.5806 -0.7678
 3181TIP3    H231179   3.484   2.093   1.214  2.2992 -1.2115  1.4536
 3182TIP3   OH231180   3.680   2.730   3.127 -0.1428  0.2060  0.0471
 3182TIP3    H131181   3.627   2.807   3.109  0.6538  0.9700  0.8348
 3182TIP3    H231182   3.622   2.673   3.178 -0.1574  1.1579  1.1545
 3183TIP3   OH231183   6.967   1.804   1.941  0.1554  0.5379 -0.0202
 3183TIP3    H131184   7.055   1.829   1.912  1.3078 -2.0242  0.9755
 3183TIP3    H231185   6.925   1.887   1.966  2.7933  1.7099  0.8567
 3184TIP3   OH231186   2.243   5.510   3.271  0.2155 -0.1818  0.7778
 3184TIP3    H131187   2.206   5.569   3.336  0.0459 -0.4768  0.9520
 3184TIP3    H231188   2.227   5.422   3.306 -0.7194 -0.3823 -0.1176
 3185TIP3   OH231189   0.996   1.430   0.332  0.5537  0.3987 -0.2416
 3185TIP3    H131190   1.016   1.349   0.287  1.8953  0.4975  0.1470
 3185TIP3    H231191   1.061   1.493   0.301  0.3046  0.9862  0.3814
 3186TIP3   OH231192   3.150   5.568   7.291  0.1666 -0.1098  0.4990
 3186TIP3    H131193   3.070   5.616   7.267 -0.4326 -1.1939  0.2769
 3186TIP3    H231194   3.125   5.517   7.368  1.1597  0.8767  1.5051
 3187TIP3   OH231195   1.496   5.238   3.177 -0.2947  0.2545  0.1905
 3187TIP3    H131196   1.502   5.317   3.231 -0.3945  0.0891  0.4470
 3187TIP3    H231197   1.418   5.193   3.210  0.5273 -0.6439  0.9836
 3188TIP3   OH231198   2.305   3.569   1.636  0.1395 -0.3690  0.1755
 3188TIP3    H131199   2.303   3.542   1.728  0.8443 -1.4427 -0.0984
 3188TIP3    H231200   2.217   3.552   1.604  0.2374 -1.1948  0.3316
 3189TIP3   OH231201   4.896   0.242   8.035  0.1150 -0.1086 -0.4805
 3189TIP3    H131202   4.933   0.319   7.991 -1.1215 -0.6216 -2.5622
 3189TIP3    H231203   4.818   0.275   8.078  1.0269  0.2868  0.9238
 3190TIP3   OH231204   1.645   5.575   3.104 -0.5277  0.4659  0.6663
 3190TIP3    H131205   1.696   5.502   3.070 -0.3524  0.6140  0.6093
 3190TIP3    H231206   1.600   5.539   3.180  0.3712  0.5662  1.2669
 3191TIP3   OH231207   3.882   2.351   1.164  0.1111 -0.4092  0.5643
 3191TIP3    H131208   3.870   2.258   1.183  0.0664 -0.5351 -0.0617
 3191TIP3    H231209   3.911   2.389   1.247  1.0181 -1.1400  0.5931
 3192TIP3   OH231210   6.966   3.485   8.236  0.1032 -0.1454  0.0707
 3192TIP3    H131211   6.910   3.525   8.169  2.0406  1.1599 -0.8325
 3192TIP3    H231212   7.004   3.409   8.193  0.3121 -0.0816  0.1449
 3193TIP3   OH231213   3.450   3.060   7.503 -0.1331  0.4279 -0.2728
 3193TIP3    H131214   3.407   2.975   7.497  1.2471 -0.6184  2.6631
 3193TIP3    H231215   3.424   3.106   7.423 -1.3706 -2.5097 -1.7100
 3194TIP3   OH231216   6.493   0.661   7.998 -0.1202 -0.1554 -0.4521
 3194TIP3    H131217   6.483   0.625   7.910  0.0184 -1.6574  0.1151
 3194TIP3    H231218   6.550   0.737   7.987 -0.3363 -0.1569 -1.6883
 3195TIP3   OH231219   3.344   6.822   2.929  0.1057  0.2617 -0.8044
 3195TIP3    H131220   3.434   6.828   2.961  0.1459 -0.4197 -0.7761
 3195TIP3    H231221   3.304   6.905   2.953 -0.0527 -0.4460  1.5909
 3196TIP3   OH231222   3.582   1.041   2.040 -0.0242 -0.5399 -0.0882
 3196TIP3    H131223   3.656   0.983   2.024  0.0087 -0.7993  0.8959
 3196TIP3    H231224   3.506   0.982   2.043  0.0418 -0.5864  1.1722
 3197TIP3   OH231225   1.831   2.190   0.053 -0.6418 -0.3726 -0.0951
 3197TIP3    H131226   1.846   2.243  -0.025 -1.3938 -0.1242 -0.0765
 3197TIP3    H231227   1.916   2.150   0.072 -0.5830 -0.9114 -1.3845
 3198TIP3   OH231228   2.344   1.389   1.353 -0.7043 -0.3962 -0.4565
 3198TIP3    H131229   2.298   1.307   1.334 -1.2891  0.3819 -2.6851
 3198TIP3    H231230   2.351   1.433   1.269  0.4547  1.4381  0.5265
 3199TIP3   OH231231   1.801   5.082   0.888 -0.3161  0.2235 -0.3537
 3199TIP3    H131232   1.846   5.005   0.924 -1.5619 -0.3985 -0.0684
 3199TIP3    H231233   1.864   5.154   0.898  0.0883 -0.3296  1.2864
 3200TIP3   OH231234   0.159   5.464   2.451 -0.1649  0.2899  0.6250
 3200TIP3    H131235   0.071   5.465   2.487  0.4815 -1.1294  2.4229
 3200TIP3    H231236   0.152   5.411   2.371 -1.0322  0.6210  0.4824
 3201TIP3   OH231237   5.439   4.864   1.071  0.1112 -0.0294 -0.3467
 3201TIP3    H131238   5.419   4.952   1.103 -2.1847 -0.4444 -0.4362
 3201TIP3    H231239   5.449   4.811   1.150  0.7262  0.1393 -0.3032
 3202TIP3   OH231240   6.582   3.547   0.842 -0.2401 -0.0136  0.1607
 3202TIP3    H131241   6.496   3.589   0.838 -0.0308  0.3569 -1.2403
 3202TIP3    H231242   6.642   3.618   0.867 -0.0295  0.3534 -1.2447
 3203TIP3   OH231243   3.459   5.907   7.276 -0.4714 -0.4277 -0.0955
 3203TIP3    H131244   3.418   5.820   7.274 -2.5247  0.4842  0.3827
 3203TIP3    H231245   3.409   5.959   7.214 -0.1971  0.8140  0.6981
 3204TIP3   OH231246   4.453   6.654   0.386 -0.5447  0.8370 -0.1394
 3204TIP3    H131247   4.378   6.656   0.327 -1.4350  0.0422  0.9141
 3204TIP3    H231248   4.426   6.705   0.462 -0.8172 -1.0658  1.1109
 3205TIP3   OH231249   2.948   1.714   0.706 -0.0588  0.4143  0.0399
 3205TIP3    H131250   2.955   1.654   0.631 -0.4582 -0.7977  0.9386
 3205TIP3    H231251   2.855   1.719   0.724  0.0267  0.8073  0.3671
 3206TIP3   OH231252   6.755   5.672   2.330  0.5458 -0.5959  0.2967
 3206TIP3    H131253   6.824   5.607   2.314 -0.7862 -2.2521  0.9810
 3206TIP3    H231254   6.801   5.756   2.332  2.9403 -1.8041  2.9581
 3207TIP3   OH231255   0.616   5.979   0.766 -0.0414 -0.2924 -0.0046
 3207TIP3    H131256   0.643   5.936   0.685 -2.1473 -1.6870 -0.0525
 3207TIP3    H231257   0.647   5.922   0.836  0.6363  0.2305  0.1338
 3208TIP3   OH231258   4.978   4.749   1.659  0.5850  0.7924 -1.0871
 3208TIP3    H131259   4.921   4.722   1.730 -0.2225  3.9106 -0.4290
 3208TIP3    H231260   5.066   4.726   1.689  0.0851  0.0944 -0.1007
 3209TIP3   OH231261   3.379   4.278   2.695  0.2786  0.1222 -0.0946
 3209TIP3    H131262   3.286   4.259   2.705 -0.1730  2.2503  0.2582
 3209TIP3    H231263   3.414   4.278   2.784  0.9412 -1.9114 -0.3032
 3210TIP3   OH231264   5.380   1.759   7.950  0.5308  0.0626 -0.1053
 3210TIP3    H131265   5.358   1.768   7.857 -0.0383  0.3762  0.0520
 3210TIP3    H231266   5.404   1.847   7.978  0.0086  0.1152  0.2073
 3211TIP3   OH231267   0.532   2.933   1.209 -0.2973 -0.1901  0.3680
 3211TIP3    H131268   0.620   2.961   1.182  0.3810  0.2941  2.8324
 3211TIP3    H231269   0.484   3.015   1.223 -1.2259 -0.4533 -1.0907
 3212TIP3   OH231270   5.004   6.548   0.742 -0.1010 -0.4450 -0.6038
 3212TIP3    H131271   5.090   6.571   0.777 -0.8632 -0.0937  1.1647
 3212TIP3    H231272   4.956   6.631   0.741 -1.1877 -1.0131  0.7870
 3213TIP3   OH231273   4.325   0.875   1.562  0.1851 -0.2544  0.4469
 3213TIP3    H131274   4.381   0.942   1.523  2.5600 -2.4850 -0.2796
 3213TIP3    H231275   4.292   0.824   1.488 -1.4874  0.0041  0.9815
 3214TIP3   OH231276   3.945   3.288   7.865  0.5878 -1.0353 -0.7191
 3214TIP3    H131277   3.857   3.251   7.863  0.9248 -2.0591  1.2084
 3214TIP3    H231278   3.975   3.284   7.774 -0.9338 -1.6583 -1.2229
 3215TIP3   OH231279   0.561   4.628   7.949  0.0674  0.0628  0.0046
 3215TIP3    H131280   0.593   4.544   7.914 -1.1984  0.1948 -1.5460
 3215TIP3    H231281   0.467   4.616   7.958 -0.1233  1.3044 -0.1872
 3216TIP3   OH231282   0.514   2.436   0.085  0.1850  0.0440  0.0036
 3216TIP3    H131283   0.455   2.466   0.015  0.8632  1.0293 -0.1745
 3216TIP3    H231284   0.548   2.517   0.123 -0.4730 -0.4504  1.7715
 3217TIP3   OH231285   0.249   0.731   0.063 -0.0712  0.8528 -0.3496
 3217TIP3    H131286   0.343   0.733   0.045 -0.2861  0.4354 -1.6077
 3217TIP3    H231287   0.212   0.684  -0.011 -1.1045 -0.3881  0.9040
 3218TIP3   OH231288   6.367   6.251   3.393  0.1022 -0.4841  0.1078
 3218TIP3    H131289   6.325   6.241   3.307  0.0586  1.2409 -0.0953
 3218TIP3    H231290   6.430   6.179   3.397  1.2596  0.3325 -2.0611
 3219TIP3   OH231291   5.498   1.103   3.049 -0.3118 -0.4595 -0.0037
 3219TIP3    H131292   5.466   1.014   3.064  1.3855 -0.8803  1.4893
 3219TIP3    H231293   5.533   1.130   3.134  4.0725 -0.4432 -1.5857
 3220TIP3   OH231294   6.702   2.372   2.423  0.4920 -0.4610  0.2714
 3220TIP3    H131295   6.718   2.298   2.483  0.9777 -0.6959 -0.1402
 3220TIP3    H231296   6.612   2.398   2.441 -0.1561 -2.0173 -0.5004
 3221TIP3   OH231297   3.644   4.863   3.422  0.2209  0.6035  0.4332
 3221TIP3    H131298   3.663   4.867   3.515 -1.3878  1.8118  0.7579
 3221TIP3    H231299   3.719   4.905   3.380  2.3379 -2.4005  0.8702
 3222TIP3   OH231300   0.357   2.736   7.308  0.2789 -0.0477  0.0041
 3222TIP3    H131301   0.449   2.715   7.290 -0.3850 -3.3192 -0.2291
 3222TIP3    H231302   0.320   2.758   7.223  0.9899  2.2547  0.2360
 3223TIP3   OH231303   6.908   1.581   8.216 -0.0597 -0.1366  0.8176
 3223TIP3    H131304   6.946   1.499   8.247  1.2302 -0.5492 -1.6765
 3223TIP3    H231305   6.968   1.649   8.248  1.1414 -0.5341 -0.5235
 3224TIP3   OH231306   6.415   2.397   2.392  0.2307 -0.3444  0.3569
 3224TIP3    H131307   6.349   2.448   2.439 -0.5905  0.1826 -1.2650
 3224TIP3    H231308   6.427   2.445   2.309  0.5366 -1.9942 -0.5914
 3225TIP3   OH231309   1.460   0.418   0.188  0.5595 -0.0845  0.5467
 3225TIP3    H131310   1.528   0.375   0.239  1.9594  0.4541 -0.7736
 3225TIP3    H231311   1.502   0.496   0.151 -1.0231  0.7389  0.3568
 3226TIP3   OH231312   0.160   6.950   1.647 -0.5261 -0.3545 -0.1352
 3226TIP3    H131313   0.085   6.954   1.705 -0.8701  0.9320 -0.6265
 3226TIP3    H231314   0.122   6.952   1.559  0.0765  0.3550 -0.3874
 3227TIP3   OH231315   5.814   4.637   1.158  0.4459 -0.0214 -0.5311
 3227TIP3    H131316   5.788   4.595   1.240  1.5850  0.8902  0.3357
 3227TIP3    H231317   5.779   4.726   1.164 -0.5563 -0.3134 -1.6260
 3228TIP3   OH231318   5.899   4.464   7.201 -0.2824  0.0392 -0.3319
 3228TIP3    H131319   5.816   4.496   7.235  0.1186 -0.1190  0.8636
 3228TIP3    H231320   5.884   4.372   7.179  0.3491 -0.9974  3.0033
 3229TIP3   OH231321   3.596   0.418   1.201  0.4112  0.2587  0.4038
 3229TIP3    H131322   3.684   0.405   1.235  0.3926 -2.1506 -0.2734
 3229TIP3    H231323   3.603   0.400   1.107 -0.8758 -0.6181  0.4411
 3230TIP3   OH231324   7.064   3.181   3.495 -0.1647  0.3088 -0.3535
 3230TIP3    H131325   7.069   3.257   3.437 -0.0396 -0.9389 -2.0773
 3230TIP3    H231326   6.990   3.130   3.461  0.0902 -0.6045  0.4177
 3231TIP3   OH231327   5.861   3.591   2.737  0.1309 -0.5672 -0.3476
 3231TIP3    H131328   5.910   3.621   2.814 -0.3768 -1.1059  0.2066
 3231TIP3    H231329   5.775   3.567   2.772  0.2106 -1.7615 -0.9056
 3232TIP3   OH231330   3.306   0.024   2.757  0.1334 -0.5847  0.0615
 3232TIP3    H131331   3.261  -0.044   2.707 -1.2071 -0.5874  1.2042
 3232TIP3    H231332   3.256   0.030   2.839  0.6294  1.2938  0.2663
 3233TIP3   OH231333   5.853   2.401   7.625 -0.2054 -0.1359  0.0092
 3233TIP3    H131334   5.863   2.311   7.595 -0.0685 -0.0940 -0.0732
 3233TIP3    H231335   5.837   2.393   7.719 -1.9013 -0.3338 -0.2686
 3234TIP3   OH231336   5.106   6.878   0.331 -0.0300  0.3780  0.3238
 3234TIP3    H131337   5.149   6.794   0.346  0.1185  0.4562  0.3433
 3234TIP3    H231338   5.080   6.907   0.418  1.1226  0.9849  0.4917
 3235TIP3   OH231339   3.998   5.025   0.184  0.0700  0.3995  0.2198
 3235TIP3    H131340   4.068   5.000   0.244  0.2595 -0.8842 -0.5124
 3235TIP3    H231341   4.031   5.104   0.140  1.0753 -0.2112 -0.1396
 3236TIP3   OH231342   5.389   0.394   0.223 -0.1262  0.2355 -0.8363
 3236TIP3    H131343   5.451   0.453   0.180 -1.2115  2.0944  0.0591
 3236TIP3    H231344   5.442   0.348   0.288  0.6042  0.7192 -1.0760
 3237TIP3   OH231345   5.421   4.284   0.172  0.2903  0.1012 -0.0013
 3237TIP3    H131346   5.425   4.345   0.098  0.1968 -0.7098 -0.6998
 3237TIP3    H231347   5.473   4.208   0.143  0.1019 -0.3019  0.6937
 3238TIP3   OH231348   0.775   3.013   7.583  0.1613  0.0265 -0.1173
 3238TIP3    H131349   0.769   2.923   7.551 -0.7028 -0.4786  1.3841
 3238TIP3    H231350   0.745   3.066   7.510 -2.0767 -1.0944 -0.0827
 3239TIP3   OH231351   3.600   5.987   7.961  0.3688 -0.0967 -0.0847
 3239TIP3    H131352   3.585   5.939   7.880  0.8355 -2.0611  0.9385
 3239TIP3    H231353   3.693   6.008   7.960  0.2452  0.4572 -0.3440
 3240TIP3   OH231354   3.888   5.432   7.961 -0.1888 -0.0861 -0.7548
 3240TIP3    H131355   3.897   5.528   7.956 -1.3292  0.1196  0.6802
 3240TIP3    H231356   3.819   5.412   7.898 -0.2160  0.0779 -0.7793
 3241TIP3   OH231357   0.634   4.222   0.284 -0.4125 -0.8755 -0.6551
 3241TIP3    H131358   0.617   4.165   0.359 -1.3441  1.2500  0.8580
 3241TIP3    H231359   0.561   4.283   0.283  0.9736  0.8685 -1.5858
 3242TIP3   OH231360   5.944   2.156   7.580 -0.1490  0.3470  0.6440
 3242TIP3    H131361   6.013   2.144   7.515 -1.1750 -0.4447 -0.3344
 3242TIP3    H231362   5.966   2.095   7.650 -0.6195 -0.9988 -0.3373
 3243TIP3   OH231363   4.337   4.776   3.471  0.2943 -0.4482 -0.0233
 3243TIP3    H131364   4.334   4.867   3.444 -0.6041 -0.4595  0.0058
 3243TIP3    H231365   4.394   4.733   3.407  0.1201 -0.0156 -0.4716
 3244TIP3   OH231366   4.240   0.273   8.201  0.3754 -0.3360  1.1963
 3244TIP3    H131367   4.189   0.339   8.247  1.3868 -0.7153  2.9670
 3244TIP3    H231368   4.309   0.322   8.156 -0.5490  0.0286  0.1352
 3245TIP3   OH231369   6.554   0.016   1.669 -0.1594  0.3445 -0.0124
 3245TIP3    H131370   6.465  -0.017   1.687  0.5709 -1.5223  0.3942
 3245TIP3    H231371   6.546   0.061   1.585 -1.3360 -0.5034 -0.3853
 3246TIP3   OH231372   2.485   5.677   8.252 -0.3715 -0.0574  0.2632
 3246TIP3    H131373   2.524   5.716   8.174 -2.3178 -0.9786 -1.2429
 3246TIP3    H231374   2.450   5.593   8.223  0.3812 -1.2639  2.5588
 3247TIP3   OH231375   3.625   7.051   2.134  0.1639  0.6058 -0.0110
 3247TIP3    H131376   3.593   6.987   2.070 -1.7348  1.2110  0.2756
 3247TIP3    H231377   3.701   7.091   2.092  0.4810 -0.7851 -0.8064
 3248TIP3   OH231378   0.817   1.307   2.885 -0.1329 -0.4383 -0.3407
 3248TIP3    H131379   0.756   1.233   2.893  1.6206 -1.9794 -0.4519
 3248TIP3    H231380   0.900   1.267   2.857  0.4482  1.8016 -2.1659
 3249TIP3   OH231381   3.745   6.521   0.709  0.3088  0.0771  0.3673
 3249TIP3    H131382   3.822   6.467   0.690  0.0419 -0.8271  1.6563
 3249TIP3    H231383   3.735   6.515   0.804 -2.1557 -0.9955  0.1348
 3250TIP3   OH231384   4.401   3.410   2.563  0.1623  0.4502  0.1529
 3250TIP3    H131385   4.411   3.338   2.625 -0.0759 -0.0238 -0.3458
 3250TIP3    H231386   4.320   3.453   2.589 -1.8677 -1.8120 -1.8071
 3251TIP3   OH231387   2.527   2.542   7.941 -0.1380  0.1289 -0.7109
 3251TIP3    H131388   2.615   2.530   7.976  0.5397  0.0209 -2.3205
 3251TIP3    H231389   2.541   2.590   7.859 -1.8072  2.2904  0.1614
 3252TIP3   OH231390   1.889   4.817   2.669  0.1853  0.0420  0.3009
 3252TIP3    H131391   1.943   4.818   2.748 -1.1112  1.1295  1.2099
 3252TIP3    H231392   1.799   4.815   2.701 -0.3649 -0.5876 -1.1744
 3253TIP3   OH231393   2.327   1.491   0.229  0.3230  0.2895  0.4562
 3253TIP3    H131394   2.365   1.451   0.151 -0.7198  0.5629 -0.2070
 3253TIP3    H231395   2.261   1.552   0.196  0.4901  1.0753  1.5210
 3254TIP3   OH231396   5.298   2.909   2.450  0.2021  0.5747 -0.8523
 3254TIP3    H131397   5.387   2.945   2.446  0.3218  0.4245  0.2909
 3254TIP3    H231398   5.308   2.818   2.421  0.7214  0.0659  0.8324
 3255TIP3   OH231399   2.575   3.327   0.353  0.5388  0.0940  0.1305
 3255TIP3    H131400   2.568   3.254   0.291  0.2797 -0.8839  1.2520
 3255TIP3    H231401   2.525   3.297   0.429  1.0697  1.1331  0.9061
 3256TIP3   OH231402   6.391   0.804   1.433 -0.7816 -0.0788  0.0987
 3256TIP3    H131403   6.406   0.855   1.512 -1.2015  0.5199 -0.2031
 3256TIP3    H231404   6.410   0.714   1.459 -1.6605  0.0048  1.0938
 3257TIP3   OH231405   1.499   0.343   1.606  0.2779  0.9231 -0.0599
 3257TIP3    H131406   1.577   0.348   1.551  0.2031  0.5470 -0.2036
 3257TIP3    H231407   1.479   0.249   1.611  1.8560  0.6443  2.8606
 3258TIP3   OH231408   0.076   1.180   3.320 -0.3509 -0.2591  0.2467
 3258TIP3    H131409   0.093   1.200   3.412  0.4846 -2.2234  0.5797
 3258TIP3    H231410   0.157   1.137   3.291 -1.0207 -0.6450 -1.0909
 3259TIP3   OH231411   4.353   3.051   1.420 -0.7590 -0.6387 -0.4973
 3259TIP3    H131412   4.287   3.053   1.490 -1.9029  2.0339 -1.5049
 3259TIP3    H231413   4.429   3.008   1.460 -0.9989  1.5789  2.7930
 3260TIP3   OH231414   6.319   2.101   7.381 -0.2288 -0.0146 -0.0093
 3260TIP3    H131415   6.386   2.034   7.376 -1.0548 -0.8204 -0.5097
 3260TIP3    H231416   6.323   2.133   7.472  0.5855 -0.2943  0.0543
 3261TIP3   OH231417   1.359   1.485   0.440  0.1005 -0.5462 -0.0462
 3261TIP3    H131418   1.364   1.478   0.535  0.4700  1.1789  0.0956
 3261TIP3    H231419   1.328   1.399   0.411 -1.0475 -0.7745  1.7040
 3262TIP3   OH231420   2.652   1.936   1.094 -0.0142  0.1517 -0.4000
 3262TIP3    H131421   2.698   1.880   1.156 -0.0716 -1.2435 -1.5604
 3262TIP3    H231422   2.639   1.881   1.017  0.3153  1.9120 -1.7782
 3263TIP3   OH231423   3.145   6.329   3.141 -0.5873  0.3527  0.1477
 3263TIP3    H131424   3.105   6.387   3.077 -0.1436 -0.5182 -0.9329
 3263TIP3    H231425   3.123   6.241   3.112  2.1936 -0.1857 -0.5873
 3264TIP3   OH231426   1.857   0.827   1.723 -0.0433  0.5387 -0.1801
 3264TIP3    H131427   1.814   0.825   1.809  0.4280  1.1362  0.0775
 3264TIP3    H231428   1.805   0.889   1.672 -1.2917 -1.0070 -0.8742
 3265TIP3   OH231429   0.275   4.213   0.126 -0.2234  0.8930 -0.2396
 3265TIP3    H131430   0.350   4.212   0.067  0.8650  2.2034  1.0289
 3265TIP3    H231431   0.263   4.122   0.151  1.5923  0.7516  0.2747
 3266TIP3   OH231432   2.300   4.081   2.625 -0.3320 -0.4075  0.7721
 3266TIP3    H131433   2.257   4.080   2.540  0.3527  1.6011  0.3450
 3266TIP3    H231434   2.229   4.075   2.688 -1.0447  0.2495  0.0550
 3267TIP3   OH231435   2.380   3.111   2.547 -0.3743  0.2774 -0.4255
 3267TIP3    H131436   2.427   3.148   2.621 -1.6346  0.8550  0.1273
 3267TIP3    H231437   2.300   3.163   2.541 -1.2498 -1.0562 -0.9106
 3268TIP3   OH231438   5.382   3.827   2.142  0.1483 -0.9381 -0.2445
 3268TIP3    H131439   5.466   3.866   2.166 -0.7953  0.7016  0.5198
 3268TIP3    H231440   5.379   3.834   2.047  0.1421  0.6010 -0.1480
 3269TIP3   OH231441   1.465   1.162   2.524  0.1848  0.0004  0.4120
 3269TIP3    H131442   1.542   1.109   2.547  0.2854 -0.2230 -0.4158
 3269TIP3    H231443   1.426   1.184   2.609  1.9439  1.3167  0.9387
 3270TIP3   OH231444   1.583   5.900   1.688  0.1322 -0.4168 -0.0418
 3270TIP3    H131445   1.610   5.941   1.606 -1.0670  0.3836 -0.0562
 3270TIP3    H231446   1.630   5.817   1.689  2.3634  0.7666 -0.1755
 3271TIP3   OH231447   6.019   3.857   1.013 -0.1308 -0.0005  0.7714
 3271TIP3    H131448   6.052   3.797   0.946  0.3925  2.1847 -1.0452
 3271TIP3    H231449   5.938   3.815   1.043 -1.0031 -0.6134 -2.0535
 3272TIP3   OH231450   0.753   1.020   3.571  0.5875 -0.0153 -0.1867
 3272TIP3    H131451   0.757   1.093   3.510  0.4584 -0.4369 -0.7119
 3272TIP3    H231452   0.674   1.036   3.623  1.5349  1.1718  0.9632
 3273TIP3   OH231453   4.277   3.258   0.860 -0.2793  0.7748 -0.5321
 3273TIP3    H131454   4.216   3.256   0.934  1.6430  1.5239  1.1797
 3273TIP3    H231455   4.251   3.185   0.805 -0.8514 -0.7890  1.6902
 3274TIP3   OH231456   5.278   5.033   3.755 -0.2692 -1.0569 -0.3160
 3274TIP3    H131457   5.364   5.035   3.797  0.1757  0.0510 -1.2062
 3274TIP3    H231458   5.298   5.040   3.661 -1.3332 -0.6994 -0.5200
 3275TIP3   OH231459   6.342   1.727   2.054 -1.0913  0.3247 -0.0055
 3275TIP3    H131460   6.300   1.696   1.974 -1.9114 -0.2561  0.6329
 3275TIP3    H231461   6.269   1.755   2.110 -0.4991  1.2685  0.3256
 3276TIP3   OH231462   2.879   3.608   2.990  0.3173  0.3125  0.0452
 3276TIP3    H131463   2.958   3.568   3.027  0.3489  0.5778  0.2687
 3276TIP3    H231464   2.821   3.620   3.064 -0.2197 -0.5201 -0.2308
 3277TIP3   OH231465   1.700   2.430   1.208 -0.6907 -0.6311  0.2302
 3277TIP3    H131466   1.689   2.471   1.293  1.3943  1.0519 -0.2098
 3277TIP3    H231467   1.618   2.447   1.161 -0.9087  0.6475  1.0385
 3278TIP3   OH231468   4.128   3.514   1.909 -0.4568  0.2656 -0.2436
 3278TIP3    H131469   4.118   3.532   1.815 -0.6845  0.8694 -0.1082
 3278TIP3    H231470   4.082   3.431   1.922 -3.0058  1.5981 -0.1597
 3279TIP3   OH231471   4.205   6.866   2.691 -0.0500  0.2286  0.4322
 3279TIP3    H131472   4.247   6.780   2.682 -0.5792 -0.0200  0.3243
 3279TIP3    H231473   4.207   6.883   2.785  2.0059  1.0872  0.2827
 3280TIP3   OH231474   0.402   2.469   1.115  0.4026  0.0201  0.9094
 3280TIP3    H131475   0.361   2.521   1.046 -1.0638 -1.0719  0.9128
 3280TIP3    H231476   0.496   2.469   1.093  0.7481  3.8208  1.7184
 3281TIP3   OH231477   0.466   3.366   2.786  0.4843 -0.5558 -0.4368
 3281TIP3    H131478   0.384   3.404   2.814  0.3259 -1.3328  0.2071
 3281TIP3    H231479   0.450   3.271   2.787  0.8396 -0.6721 -2.0308
 3282TIP3   OH231480   2.063   6.689   3.062 -0.0384  0.7118 -0.2775
 3282TIP3    H131481   1.975   6.697   3.027  0.0792  1.5575 -0.3955
 3282TIP3    H231482   2.115   6.656   2.988 -0.4566 -0.9130  0.1120
 3283TIP3   OH231483   4.700   5.625   0.448  0.4880  0.5423 -0.4422
 3283TIP3    H131484   4.681   5.534   0.423 -1.1511  0.5618  0.5838
 3283TIP3    H231485   4.716   5.621   0.542  0.7703  1.2752 -0.4576
 3284TIP3   OH231486   0.436   1.235   7.396 -0.0107 -0.0225 -0.4413
 3284TIP3    H131487   0.419   1.288   7.318 -3.3781 -0.6968 -0.2866
 3284TIP3    H231488   0.392   1.281   7.467 -0.7086 -1.6276  0.2087
 3285TIP3   OH231489   4.557   4.388   2.976  0.0652  0.3941  0.3983
 3285TIP3    H131490   4.621   4.456   2.953  0.3337 -0.4379 -1.4601
 3285TIP3    H231491   4.608   4.325   3.027  0.4370  0.3567 -0.0098
 3286TIP3   OH231492   6.844   2.383   2.163  0.4073 -0.6418  0.4260
 3286TIP3    H131493   6.845   2.345   2.250 -0.4401 -1.4238  0.1029
 3286TIP3    H231494   6.785   2.458   2.170  1.3701  0.0961  0.8369
 3287TIP3   OH231495   6.305   1.840   7.890  0.0956  0.1076 -0.6159
 3287TIP3    H131496   6.386   1.883   7.863  0.2989 -1.5916 -3.0500
 3287TIP3    H231497   6.331   1.749   7.906 -1.6548 -1.2921 -4.5025
 3288TIP3   OH231498   3.364   0.381   1.728 -0.5573  0.0281  0.0103
 3288TIP3    H131499   3.376   0.394   1.634 -0.5485  0.6052  0.0873
 3288TIP3    H231500   3.339   0.289   1.736 -1.0890  0.1096 -0.6054
 3289TIP3   OH231501   0.001   1.566   1.277  0.3003  0.1221  0.4052
 3289TIP3    H131502   0.011   1.634   1.344 -0.7377 -0.0960  0.8123
 3289TIP3    H231503  -0.092   1.543   1.281  0.4931 -0.8122 -0.2282
 3290TIP3   OH231504   1.953   0.955   2.713 -0.0497  0.2477 -0.2712
 3290TIP3    H131505   1.956   1.033   2.768  0.2374 -0.5342  0.8373
 3290TIP3    H231506   1.910   0.889   2.766 -3.4277  0.5061 -2.3527
 3291TIP3   OH231507   3.309   5.015   7.322  0.3965 -0.4511  0.4286
 3291TIP3    H131508   3.363   4.985   7.395 -1.6790 -2.5657  1.1847
 3291TIP3    H231509   3.220   5.014   7.355 -0.8403 -2.9680 -2.4845
 3292TIP3   OH231510   5.489   3.405   0.046 -0.1830 -0.3701  0.2271
 3292TIP3    H131511   5.500   3.498   0.068 -0.8115  0.2765 -1.9444
 3292TIP3    H231512   5.469   3.363   0.130 -0.1375  1.4891  1.2280
 3293TIP3   OH231513   1.921   6.735   1.287  0.0476 -0.5657  0.2490
 3293TIP3    H131514   1.908   6.684   1.208 -0.4206  1.5969 -1.1568
 3293TIP3    H231515   2.002   6.785   1.271 -0.8626  1.0505  0.4080
 3294TIP3   OH231516   4.275   6.434   7.297 -0.2586  0.6567  0.4145
 3294TIP3    H131517   4.265   6.368   7.229  2.0709 -0.5290  1.1364
 3294TIP3    H231518   4.246   6.391   7.378  1.4171  0.4255  0.9173
 3295TIP3   OH231519   6.659   4.588   1.229 -0.1827  0.1144  0.0365
 3295TIP3    H131520   6.668   4.523   1.298  0.2415  0.0150 -0.1132
 3295TIP3    H231521   6.728   4.567   1.166  3.1668  3.4346  2.1556
 3296TIP3   OH231522   5.779   2.436   3.314 -0.2700 -0.2442  0.4071
 3296TIP3    H131523   5.824   2.427   3.398  1.6180 -1.5962 -0.6662
 3296TIP3    H231524   5.742   2.524   3.316  1.4520  0.5240  1.8626
 3297TIP3   OH231525   6.490   1.578   1.490  0.4813 -0.4920  0.5363
 3297TIP3    H131526   6.580   1.557   1.516  1.0340 -0.1552 -1.0109
 3297TIP3    H231527   6.439   1.502   1.518  1.2315 -0.6751  1.4696
 3298TIP3   OH231528   4.725   5.311   0.830 -0.2320  0.3846 -0.5491
 3298TIP3    H131529   4.751   5.290   0.920 -1.4147 -0.7628 -0.4402
 3298TIP3    H231530   4.802   5.289   0.777  0.0608 -0.0771  0.0609
 3299TIP3   OH231531   5.273   1.794   7.710  0.3905  0.7846 -0.3460
 3299TIP3    H131532   5.184   1.829   7.711  0.2494  0.4721 -1.2492
 3299TIP3    H231533   5.264   1.707   7.670  0.9567  0.3186  0.5040
 3300TIP3   OH231534   0.459   5.750   1.269  0.6209 -0.9442 -0.7099
 3300TIP3    H131535   0.425   5.822   1.216 -0.5939  0.1722  1.4534
 3300TIP3    H231536   0.391   5.683   1.266 -0.1836 -0.2414  0.5894
 3301TIP3   OH231537   3.110   0.064   6.939  0.0683  0.1580  0.4502
 3301TIP3    H131538   3.050   0.136   6.956  0.4458  0.1886  1.6907
 3301TIP3    H231539   3.165   0.058   7.017  3.1147  1.4878 -1.4156
 3302TIP3   OH231540   4.867   3.584   7.675  0.2859  0.5059  0.0565
 3302TIP3    H131541   4.956   3.618   7.684  0.2922  0.3897  0.4426
 3302TIP3    H231542   4.814   3.661   7.652  0.1740  0.9433  1.6430
 3303TIP3   OH231543   0.222   4.801   3.485  0.0192 -0.1041  0.8616
 3303TIP3    H131544   0.237   4.778   3.577  0.6659 -0.3753  0.6844
 3303TIP3    H231545   0.239   4.896   3.482 -0.1779 -0.0593  1.0528
 3304TIP3   OH231546   1.065   6.551   3.193  0.0713 -0.2008  0.3872
 3304TIP3    H131547   1.129   6.621   3.180 -1.6456  1.2218 -0.8264
 3304TIP3    H231548   1.092   6.508   3.274  1.7076  1.2681  0.6607
 3305TIP3   OH231549   7.038   5.057   0.884 -0.1812 -0.3209  0.0131
 3305TIP3    H131550   7.001   5.061   0.972  1.1731 -0.2793  0.6133
 3305TIP3    H231551   6.997   5.129   0.837 -1.0564 -0.4528  0.5518
 3306TIP3   OH231552   0.344   6.761   3.077  0.0002  0.0286  0.1925
 3306TIP3    H131553   0.363   6.787   3.167  1.0026  0.2593 -0.0697
 3306TIP3    H231554   0.254   6.789   3.062  0.3453  1.4462  0.6172
 3307TIP3   OH231555   2.798   1.179   3.676 -0.0606 -0.8344 -0.0503
 3307TIP3    H131556   2.714   1.196   3.634 -1.6222 -1.0169  2.7445
 3307TIP3    H231557   2.840   1.265   3.680 -0.7036 -0.5009 -0.2997
 3308TIP3   OH231558   3.085   4.166   1.659  0.1249 -0.0298  0.1288
 3308TIP3    H131559   3.175   4.184   1.632  0.2712 -1.6497 -0.5915
 3308TIP3    H231560   3.093   4.132   1.748  0.2994 -0.7174 -0.1436
 3309TIP3   OH231561   3.782   2.677   1.966 -0.0045 -0.1539 -0.1996
 3309TIP3    H131562   3.844   2.627   1.912 -0.6023 -0.4383 -0.6238
 3309TIP3    H231563   3.700   2.676   1.917 -0.4963 -0.2230  0.5989
 3310TIP3   OH231564   1.168   6.328   2.297  0.1564  0.3066  0.0907
 3310TIP3    H131565   1.231   6.316   2.226  0.4223 -2.3285  0.6633
 3310TIP3    H231566   1.217   6.305   2.376 -1.2780 -1.0772  0.6286
 3311TIP3   OH231567   3.307   3.795   1.685  0.2912  0.2526 -0.2861
 3311TIP3    H131568   3.228   3.791   1.738  0.2008  0.4892 -0.3999
 3311TIP3    H231569   3.315   3.887   1.661  1.7570  0.6276  1.4497
 3312TIP3   OH231570   3.280   0.971   0.693 -0.0746 -0.3628  0.0494
 3312TIP3    H131571   3.366   0.930   0.684  0.0772  0.1801 -1.3495
 3312TIP3    H231572   3.239   0.925   0.766  0.8954 -1.5358 -0.1001
 3313TIP3   OH231573   6.528   2.787   3.568 -0.4731 -0.7385 -0.7525
 3313TIP3    H131574   6.434   2.805   3.564 -0.4364 -0.5560 -0.7937
 3313TIP3    H231575   6.569   2.870   3.548 -0.3008 -0.7433 -0.4303
 3314TIP3   OH231576   2.785   3.137   0.814  0.0425 -0.3287  0.2671
 3314TIP3    H131577   2.853   3.173   0.758  0.7268 -1.4558  0.3192
 3314TIP3    H231578   2.795   3.184   0.897  0.3909 -0.0852  0.0905
 3315TIP3   OH231579   6.719   5.028   0.729 -0.1718  0.4527 -0.1435
 3315TIP3    H131580   6.792   4.974   0.760  0.1608  0.7933 -0.3268
 3315TIP3    H231581   6.693   4.987   0.646 -1.4594 -0.8246  0.8423
 3316TIP3   OH231582   2.608   2.917   0.962  0.6300  0.2799  0.1092
 3316TIP3    H131583   2.642   2.842   0.913  0.0275 -0.0798  0.2385
 3316TIP3    H231584   2.643   2.993   0.916  0.1322 -0.0543 -0.8358
 3317TIP3   OH231585   6.358   4.990   2.869 -0.1095  0.0727 -0.0937
 3317TIP3    H131586   6.427   4.924   2.863  1.3003  1.4474  0.2848
 3317TIP3    H231587   6.330   5.005   2.779  2.5835  1.9907 -0.6964
 3318TIP3   OH231588   4.620   1.062   1.663  0.0340 -0.1253  0.1822
 3318TIP3    H131589   4.624   1.043   1.757  0.4869  0.8977  0.3850
 3318TIP3    H231590   4.534   1.103   1.651  0.5700  1.1071  0.4333
 3319TIP3   OH231591   2.665   0.500   2.566  0.1161  0.0857  0.2916
 3319TIP3    H131592   2.729   0.571   2.573  1.3629 -0.7851 -1.4635
 3319TIP3    H231593   2.580   0.543   2.576  0.8337  1.7957 -0.5159
 3320TIP3   OH231594   3.435   4.824   2.280  0.3340 -0.4650 -0.4554
 3320TIP3    H131595   3.497   4.873   2.227 -0.7048 -0.6396 -1.8974
 3320TIP3    H231596   3.463   4.733   2.274  1.1642 -0.3063  0.6768
 3321TIP3   OH231597   0.048   2.892   8.001 -0.3415 -0.0507  0.3586
 3321TIP3    H131598   0.115   2.865   7.938 -0.1906  0.8334  0.1196
 3321TIP3    H231599   0.053   2.827   8.072  1.6400  0.6689  0.9497
 3322TIP3   OH231600   2.689   2.059   2.633  1.2274 -0.5613  0.2591
 3322TIP3    H131601   2.724   2.031   2.718  0.0111 -3.2526 -0.0382
 3322TIP3    H231602   2.605   2.102   2.655  0.3304 -2.3039  0.4122
 3323TIP3   OH231603   2.559   6.192   0.828  0.3524  0.4536 -0.2447
 3323TIP3    H131604   2.513   6.190   0.911 -0.1204  2.9692 -0.3519
 3323TIP3    H231605   2.499   6.151   0.766 -0.7366  1.4916  0.0799
 3324TIP3   OH231606   5.837   3.830   0.478 -0.5894 -0.1566  0.2475
 3324TIP3    H131607   5.895   3.879   0.535  1.1978 -2.8701  0.9475
 3324TIP3    H231608   5.834   3.880   0.396  0.5312  1.4178  1.1374
 3325TIP3   OH231609   6.983   2.646   0.135 -0.8161 -0.4209  0.2883
 3325TIP3    H131610   6.978   2.721   0.076  3.0139 -1.0296 -1.1058
 3325TIP3    H231611   6.975   2.685   0.223  1.3722  1.7874 -0.3684
 3326TIP3   OH231612   4.265   0.551   1.701 -0.5377  0.0958  0.8081
 3326TIP3    H131613   4.330   0.497   1.656 -1.1833 -0.4478  0.4980
 3326TIP3    H231614   4.237   0.497   1.775 -0.5374  0.3748  1.0100
 3327TIP3   OH231615   5.626   0.807   0.419 -0.1385 -0.4019  0.1127
 3327TIP3    H131616   5.619   0.758   0.501 -1.3253 -1.9144 -0.8479
 3327TIP3    H231617   5.545   0.787   0.372  1.1551 -0.7590 -2.0607
 3328TIP3   OH231618   1.682   6.048   3.152  0.1630 -0.3587  0.1317
 3328TIP3    H131619   1.604   6.098   3.178  0.9012  1.6959 -1.3610
 3328TIP3    H231620   1.702   5.994   3.228 -1.5532  0.5429  1.2923
 3329TIP3   OH231621   6.339   3.082   0.135  0.3926  0.1655 -0.0575
 3329TIP3    H131622   6.325   3.083   0.040  0.1845 -0.3553 -0.0301
 3329TIP3    H231623   6.268   3.137   0.170  0.8184  0.8536 -0.2448
 3330TIP3   OH231624   2.377   0.784   1.039  0.6526 -0.2310  0.0902
 3330TIP3    H131625   2.282   0.772   1.042  0.5743 -0.3295 -1.7551
 3330TIP3    H231626   2.393   0.825   0.954  2.3938 -1.5213 -0.2458
 3331TIP3   OH231627   0.402   0.105   3.886 -0.5074  0.1605  0.7917
 3331TIP3    H131628   0.461   0.031   3.896 -1.6413 -1.0174 -0.6410
 3331TIP3    H231629   0.318   0.072   3.920 -0.9687  0.8580  0.3371
 3332TIP3   OH231630   1.392   6.543   7.380  0.1465 -0.3014  0.3230
 3332TIP3    H131631   1.334   6.502   7.317  0.8235  0.9601 -1.1859
 3332TIP3    H231632   1.333   6.590   7.440 -0.4562 -0.5237 -0.0890
 3333TIP3   OH231633   5.330   5.648   1.272  0.0323  0.0641  0.0368
 3333TIP3    H131634   5.285   5.590   1.333 -0.4618 -0.5761 -0.9119
 3333TIP3    H231635   5.312   5.736   1.305  0.0640 -0.2807  1.0043
 3334TIP3   OH231636   4.223   5.341   3.202  0.2378  0.1171 -0.1488
 3334TIP3    H131637   4.223   5.283   3.126  1.2799  0.3932 -0.3727
 3334TIP3    H231638   4.131   5.366   3.213  0.1787  0.7593 -1.8640
 3335TIP3   OH231639   2.021   0.673   7.223 -0.3797  0.6498  0.1549
 3335TIP3    H131640   2.114   0.697   7.216  0.0902 -0.9449  0.6499
 3335TIP3    H231641   2.008   0.606   7.156 -0.7618 -0.3299  1.1898
 3336TIP3   OH231642   5.797   2.176   0.432  0.3788  0.0755 -0.9872
 3336TIP3    H131643   5.860   2.248   0.436 -0.0830  0.4419  0.5712
 3336TIP3    H231644   5.795   2.141   0.521  0.2747 -1.6099 -1.6198
 3337TIP3   OH231645   2.004   7.060   0.066  0.3886  0.2189 -0.1736
 3337TIP3    H131646   1.957   7.091   0.143 -0.9232  0.3484 -0.9957
 3337TIP3    H231647   2.088   7.104   0.070  0.3149  0.2955  1.1260
 3338TIP3   OH231648   4.056   6.023   0.486 -0.1726  0.3725 -0.5799
 3338TIP3    H131649   3.980   6.081   0.483 -0.5542 -0.1440 -2.1377
 3338TIP3    H231650   4.025   5.945   0.532  0.1554  1.1210  0.9536
 3339TIP3   OH231651   5.265   2.187   0.320  0.7175  0.0759 -0.1355
 3339TIP3    H131652   5.361   2.189   0.328  1.0658  2.4163 -3.1123
 3339TIP3    H231653   5.250   2.178   0.226 -2.0343 -0.3480  0.2790
 3340TIP3   OH231654   4.759   5.840   2.672 -0.0375 -0.0751 -0.0003
 3340TIP3    H131655   4.798   5.883   2.596  0.4770  1.1614  0.9205
 3340TIP3    H231656   4.781   5.897   2.746  0.2168 -1.6594  1.2144
 3341TIP3   OH231657   5.651   3.680   2.188 -0.4460  1.0575  0.1102
 3341TIP3    H131658   5.659   3.761   2.238  2.0521  0.6790  0.4964
 3341TIP3    H231659   5.710   3.693   2.113 -1.1255  0.1353 -0.6033
 3342TIP3   OH231660   7.043   3.935   1.631 -0.3689  0.0508 -0.5616
 3342TIP3    H131661   7.126   3.922   1.583  1.3544  1.6158  1.7674
 3342TIP3    H231662   7.004   3.847   1.635  1.5224 -0.8900 -1.1677
 3343TIP3   OH231663   5.250   4.938   1.654 -0.1323 -0.1867 -0.6380
 3343TIP3    H131664   5.164   4.968   1.684  0.2097  0.6002 -0.4220
 3343TIP3    H231665   5.256   4.848   1.685 -1.1324 -0.4706 -1.1966
 3344TIP3   OH231666   1.214   6.509   1.228 -0.5844 -0.3430 -0.1117
 3344TIP3    H131667   1.214   6.597   1.191  1.3590  0.0243  0.6169
 3344TIP3    H231668   1.276   6.460   1.174 -0.2021 -0.7108  0.6439
 3345TIP3   OH231669   2.476   0.108   2.229 -0.4838  0.0682  0.3318
 3345TIP3    H131670   2.492   0.122   2.323 -3.1217  0.9653  0.7245
 3345TIP3    H231671   2.458   0.015   2.221  0.1092 -0.0790  0.6376
 3346TIP3   OH231672   6.573   5.933   3.041  0.4661  0.3066  0.2268
 3346TIP3    H131673   6.611   5.901   3.123 -3.3019 -2.2037  1.3062
 3346TIP3    H231674   6.599   5.868   2.976 -0.5410 -0.5333  0.6243
 3347TIP3   OH231675   6.618   5.567   8.158 -0.1886 -0.0569  0.7667
 3347TIP3    H131676   6.541   5.578   8.103  1.4664  1.1129 -1.4961
 3347TIP3    H231677   6.654   5.481   8.133  1.4107  1.1072 -1.3041
 3348TIP3   OH231678   6.234   5.120   0.512  0.1091  0.2000 -0.0196
 3348TIP3    H131679   6.153   5.100   0.559  0.4830 -0.5310  0.3310
 3348TIP3    H231680   6.251   5.041   0.460  0.6643  0.3034  0.0053
 3349TIP3   OH231681   5.133   4.767   0.100  0.7220  0.1521  0.3043
 3349TIP3    H131682   5.102   4.735   0.016  1.2699 -0.3291  0.2761
 3349TIP3    H231683   5.164   4.688   0.145  0.5561  0.4226  0.9036
 3350TIP3   OH231684   3.530   6.364   1.974 -0.1508 -0.2678  0.7012
 3350TIP3    H131685   3.532   6.458   1.992  1.5803 -0.4068  1.4042
 3350TIP3    H231686   3.468   6.329   2.037 -0.5877  0.3607  0.6343
 3351TIP3   OH231687   2.836   2.982   8.214  0.7113  0.2140 -0.0960
 3351TIP3    H131688   2.862   3.051   8.275  1.0857 -0.1911  0.2084
 3351TIP3    H231689   2.905   2.916   8.221 -0.2751 -0.7823  0.5586
 3352TIP3   OH231690   3.595   2.709   1.764  0.2594  0.0130 -0.1065
 3352TIP3    H131691   3.592   2.779   1.698 -1.6453 -0.4634 -0.5951
 3352TIP3    H231692   3.624   2.632   1.715 -2.9211 -0.7930 -0.9563
 3353TIP3   OH231693   5.323   2.522   0.729 -0.4112  0.5113  0.4370
 3353TIP3    H131694   5.376   2.504   0.806 -0.1151  0.9918  0.3485
 3353TIP3    H231695   5.373   2.588   0.680  0.8245 -1.7500 -1.5864
 3354TIP3   OH231696   1.653   0.629   0.119  0.2390 -0.8499 -1.0003
 3354TIP3    H131697   1.736   0.621   0.166  0.5912  0.3504 -1.3609
 3354TIP3    H231698   1.675   0.681   0.041 -0.7694 -0.8737 -1.3164
 3355TIP3   OH231699   0.388   5.777   2.725  0.7934 -0.3322 -0.1028
 3355TIP3    H131700   0.358   5.767   2.634 -0.4738 -0.9976  0.3669
 3355TIP3    H231701   0.308   5.785   2.776  1.5001  0.4464  0.9371
 3356TIP3   OH231702   0.968   2.642   4.102  0.3868 -0.6244  0.2108
 3356TIP3    H131703   0.933   2.553   4.113  0.2026 -0.5556  0.1894
 3356TIP3    H231704   0.892   2.699   4.116  0.8782 -0.3855  2.0909
 3357TIP3   OH231705   3.684   2.564   7.906  0.4990  0.3980 -0.3072
 3357TIP3    H131706   3.608   2.505   7.904  0.5213  0.2219  1.7938
 3357TIP3    H231707   3.664   2.626   7.976  1.2782  1.8314 -1.2998
 3358TIP3   OH231708   4.346   2.773   1.316 -0.5525  0.8284  0.3175
 3358TIP3    H131709   4.327   2.792   1.408  1.1951  3.0005  0.3114
 3358TIP3    H231710   4.308   2.847   1.268  0.0071  0.5914 -0.5163
 3359TIP3   OH231711   5.256   3.460   0.776  0.4915  0.3280 -0.0975
 3359TIP3    H131712   5.255   3.406   0.855 -0.6392  1.5921  0.7850
 3359TIP3    H231713   5.334   3.515   0.785  0.4455  0.3669  0.0518
 3360TIP3   OH231714   0.653   6.624   2.295 -0.5016  0.4313 -0.4647
 3360TIP3    H131715   0.713   6.577   2.353 -0.6005  0.2266 -0.5282
 3360TIP3    H231716   0.677   6.716   2.306  0.1309  0.3215 -0.8258
 3361TIP3   OH231717   2.862   2.216   3.312  0.2941 -0.2462 -0.2043
 3361TIP3    H131718   2.951   2.186   3.292 -0.4008 -1.2394 -2.0518
 3361TIP3    H231719   2.818   2.139   3.346  0.3690  0.4883  1.6605
 3362TIP3   OH231720   0.256   4.251   7.740 -0.4866 -0.2985 -0.2058
 3362TIP3    H131721   0.183   4.313   7.743  0.4205  0.7955  2.4194
 3362TIP3    H231722   0.266   4.230   7.647 -2.4162  1.5591 -0.9194
 3363TIP3   OH231723   0.571   5.125   7.765 -0.3064  0.4461 -0.8047
 3363TIP3    H131724   0.630   5.092   7.698  0.0703  1.3212 -0.9243
 3363TIP3    H231725   0.626   5.135   7.843 -0.4652  0.5528 -0.7041
 3364TIP3   OH231726   5.510   3.282   2.084 -0.3166  0.1475 -0.1239
 3364TIP3    H131727   5.452   3.275   2.160 -1.2457  0.7655 -0.7509
 3364TIP3    H231728   5.592   3.314   2.120 -0.4695 -0.3874  0.7364
 3365TIP3   OH231729   3.512   2.399   1.415 -0.1829  0.0455  1.0154
 3365TIP3    H131730   3.486   2.460   1.346  1.6144 -0.6275 -0.3319
 3365TIP3    H231731   3.437   2.340   1.424 -1.1737  1.2567  0.9789
 3366TIP3   OH231732   1.964   1.402   2.473 -0.0307  0.2196 -0.5765
 3366TIP3    H131733   2.032   1.335   2.468  1.2868  1.2927  1.6207
 3366TIP3    H231734   1.930   1.395   2.562 -2.5158  0.0546 -1.4715
 3367TIP3   OH231735   0.858   0.512   0.441  0.0140 -0.3360  0.4140
 3367TIP3    H131736   0.782   0.558   0.477 -0.3119  0.0445 -0.7289
 3367TIP3    H231737   0.821   0.449   0.379  0.6301  0.2359 -0.5727
 3368TIP3   OH231738   1.755   5.336   3.467 -0.3832  0.2610  0.3021
 3368TIP3    H131739   1.691   5.361   3.401  1.4714  1.3820 -1.1805
 3368TIP3    H231740   1.804   5.416   3.486 -0.1996 -0.2627  2.3187
 3369TIP3   OH231741   1.089   5.301   3.034  0.6686  0.0764 -0.5762
 3369TIP3    H131742   1.091   5.320   3.128 -1.2163 -0.0008 -0.4878
 3369TIP3    H231743   1.152   5.229   3.022  0.0803 -0.7089  0.8372
 3370TIP3   OH231744   2.546   0.800   7.774 -0.0903  0.3107  0.0717
 3370TIP3    H131745   2.514   0.814   7.684 -1.8207  0.8129  0.7220
 3370TIP3    H231746   2.543   0.887   7.814  2.4187  0.4374  0.1391
 3371TIP3   OH231747   5.949   3.418   3.099 -0.2640  0.4609  0.7721
 3371TIP3    H131748   6.001   3.491   3.066 -0.6047  0.3786  0.0415
 3371TIP3    H231749   6.012   3.345   3.105  0.0267  0.7529  1.3005
 3372TIP3   OH231750   6.850   4.764   2.138 -0.1385 -0.3951  0.0503
 3372TIP3    H131751   6.880   4.826   2.204 -3.2424 -0.5313  1.7729
 3372TIP3    H231752   6.808   4.819   2.071 -1.2445 -0.4575  0.6591
 3373TIP3   OH231753   3.200   2.662   0.693  0.0123  0.1485  0.0852
 3373TIP3    H131754   3.154   2.736   0.654 -1.0759 -0.1513  0.7357
 3373TIP3    H231755   3.134   2.621   0.750  1.0474 -0.4165  0.9019
 3374TIP3   OH231756   1.958   5.316   0.815  1.0626  0.2335  0.3673
 3374TIP3    H131757   2.036   5.276   0.778  0.4109  0.2522 -1.0878
 3374TIP3    H231758   1.923   5.371   0.744 -0.7144 -0.4119  0.6959
 3375TIP3   OH231759   4.586   2.967   1.550  0.1445  0.0381 -0.4306
 3375TIP3    H131760   4.676   2.973   1.519 -0.3248  3.2139 -1.6157
 3375TIP3    H231761   4.579   3.035   1.617 -1.3079 -0.2697 -0.2254
 3376TIP3   OH231762   3.809   4.088   2.372 -0.3963  0.2361 -0.3109
 3376TIP3    H131763   3.778   4.016   2.317 -0.0260  0.2377 -0.5275
 3376TIP3    H231764   3.825   4.048   2.458 -0.9731  0.2340 -0.2041
 3377TIP3   OH231765   0.653   6.738   1.242  0.1797 -0.3128  0.0548
 3377TIP3    H131766   0.611   6.823   1.254  2.5566  0.5396  4.6172
 3377TIP3    H231767   0.737   6.759   1.200  1.0139 -0.2125  1.6966
 3378TIP3   OH231768   3.709   5.949   3.254 -0.0924 -0.2926  0.1643
 3378TIP3    H131769   3.628   6.000   3.252 -1.7447 -2.7497 -1.6286
 3378TIP3    H231770   3.722   5.928   3.347 -1.3289  0.4165  0.5249
 3379TIP3   OH231771   5.052   5.319   1.039 -0.0401 -0.4350 -0.0389
 3379TIP3    H131772   5.005   5.245   1.001  0.1791  0.3173 -1.9083
 3379TIP3    H231773   5.140   5.284   1.057 -0.1099 -0.7872 -0.3565
 3380TIP3   OH231774   4.224   6.616   0.250  0.3589  0.6034 -0.0790
 3380TIP3    H131775   4.177   6.553   0.195 -1.0659 -0.1772  1.9043
 3380TIP3    H231776   4.224   6.697   0.199 -1.0557 -0.0325 -1.1534
 3381TIP3   OH231777   5.977   3.884   3.010 -0.2206  0.3519 -0.4646
 3381TIP3    H131778   6.006   3.955   3.067 -2.9466  2.4113 -1.3952
 3381TIP3    H231779   5.882   3.893   3.007 -0.4782 -1.9524 -2.4388
 3382TIP3   OH231780   5.774   2.281   2.009 -0.1477 -0.4232 -0.0952
 3382TIP3    H131781   5.746   2.355   1.955  0.1987 -0.8141 -0.8358
 3382TIP3    H231782   5.809   2.218   1.946 -0.0319 -1.0323  0.5660
 3383TIP3   OH231783   2.934   0.084   2.772  0.1221  0.2399  0.1702
 3383TIP3    H131784   2.922   0.039   2.856  1.8677 -0.4917  0.0776
 3383TIP3    H231785   2.912   0.175   2.790 -0.4345 -0.0850  1.1807
 3384TIP3   OH231786   5.435   2.991   8.016  0.6786  0.1566  0.4240
 3384TIP3    H131787   5.419   2.898   8.033  1.8599  0.1270  1.5639
 3384TIP3    H231788   5.528   2.996   7.996  0.8417  1.2211  1.3719
 3385TIP3   OH231789   6.869   5.843   1.665 -0.1311 -0.1142 -0.3592
 3385TIP3    H131790   6.915   5.877   1.588  0.4571 -0.6921 -0.2746
 3385TIP3    H231791   6.913   5.760   1.684  0.7768  0.7406  1.5379
 3386TIP3   OH231792   4.420   2.966   1.874 -0.6246 -0.8615  0.0975
 3386TIP3    H131793   4.477   2.898   1.839 -0.9322 -1.4562  0.7140
 3386TIP3    H231794   4.460   3.048   1.846  1.1298 -1.2235  1.3687
 3387TIP3   OH231795   2.154   1.903   0.057  0.5496  0.1388  0.4622
 3387TIP3    H131796   2.214   1.858  -0.003  0.9615  1.6158 -0.2932
 3387TIP3    H231797   2.110   1.833   0.104  1.2414 -1.0409 -0.5764
 3388TIP3   OH231798   1.588   4.678   0.780 -0.5834  0.2903 -0.2260
 3388TIP3    H131799   1.567   4.710   0.692  0.0038  1.0373 -0.1024
 3388TIP3    H231800   1.657   4.613   0.766  0.8843  1.7779 -0.1823
 3389TIP3   OH231801   6.133   0.718   0.132  0.3488 -0.0543 -0.2351
 3389TIP3    H131802   6.116   0.628   0.160  2.9530 -0.6288 -0.2219
 3389TIP3    H231803   6.134   0.768   0.214 -1.9197  0.2230 -0.3052
 3390TIP3   OH231804   2.469   0.270   1.080  0.1552  0.1030  0.2254
 3390TIP3    H131805   2.427   0.354   1.064  0.3916 -0.2233 -2.6704
 3390TIP3    H231806   2.526   0.257   1.005  1.3618 -1.9329  1.4008
 3391TIP3   OH231807   3.175   1.336   0.352 -0.0499  0.0154  0.2283
 3391TIP3    H131808   3.231   1.356   0.426 -1.3682  1.4667  0.8798
 3391TIP3    H231809   3.176   1.414   0.298 -0.0824 -0.5742 -0.6543
 3392TIP3   OH231810   6.901   5.191   2.208  0.3346  0.8214 -0.2198
 3392TIP3    H131811   6.952   5.173   2.129  0.3418 -1.5785  0.2397
 3392TIP3    H231812   6.810   5.186   2.180  0.1944 -3.4639  0.3558
 3393TIP3   OH231813   0.288   3.001   2.040  0.2777 -0.1584 -0.6653
 3393TIP3    H131814   0.363   3.020   2.097 -0.4897 -1.0993  0.6988
 3393TIP3    H231815   0.311   3.044   1.957  1.5450  1.0455  0.2420
 3394TIP3   OH231816   1.503   1.941   3.148  0.3803 -0.3315 -0.5312
 3394TIP3    H131817   1.565   1.868   3.139 -0.3184 -0.8637 -1.2189
 3394TIP3    H231818   1.434   1.907   3.205 -0.0328 -0.2755 -0.9905
 3395TIP3   OH231819   6.570   2.825   1.399 -0.3750 -0.4458 -0.1621
 3395TIP3    H131820   6.543   2.751   1.453 -0.0272 -0.2160  0.3335
 3395TIP3    H231821   6.633   2.872   1.453 -2.6861  1.8531  0.7038
 3396TIP3   OH231822   3.733   7.024   1.761  0.1553  0.0915 -0.1052
 3396TIP3    H131823   3.776   7.088   1.818 -1.4561 -1.1356  2.6829
 3396TIP3    H231824   3.692   6.963   1.821 -0.7373 -1.9856 -2.6636
 3397TIP3   OH231825   2.250   4.698   1.473 -0.1667  0.8785 -0.1299
 3397TIP3    H131826   2.280   4.625   1.420 -1.1289 -0.9309  1.6637
 3397TIP3    H231827   2.330   4.744   1.499  0.7743 -1.3061  1.0741
 3398TIP3   OH231828   4.650   4.379   1.570  0.7658 -0.0297  0.2445
 3398TIP3    H131829   4.574   4.432   1.548  0.6173  0.0005  0.8283
 3398TIP3    H231830   4.721   4.417   1.517 -0.0377 -1.3561 -1.9163
 3399TIP3   OH231831   2.510   0.838   1.315  0.6233 -0.2637  0.8639
 3399TIP3    H131832   2.475   0.813   1.230  3.6636  0.8614 -0.8592
 3399TIP3    H231833   2.498   0.932   1.320 -0.5516 -0.4342  2.2843
 3400TIP3   OH231834   1.443   6.116   2.246  0.7605  0.0919 -0.0086
 3400TIP3    H131835   1.489   6.049   2.195  0.2672  0.1054 -0.4738
 3400TIP3    H231836   1.360   6.076   2.270 -0.4092  1.2002 -1.9847
 3401TIP3   OH231837   2.392   6.912   8.171 -0.2874  0.0927 -0.1029
 3401TIP3    H131838   2.373   6.994   8.218  0.5920  1.0000 -1.2598
 3401TIP3    H231839   2.312   6.893   8.122 -0.2009  0.7696 -0.5281
 3402TIP3   OH231840   3.308   6.053   1.360 -0.4072  0.3650 -0.3919
 3402TIP3    H131841   3.226   6.099   1.377  0.3430  1.1539  1.3495
 3402TIP3    H231842   3.302   6.025   1.268 -1.7185  2.2240 -0.9224
 3403TIP3   OH231843   2.507   7.010   0.332 -0.0291  0.9653  0.4273
 3403TIP3    H131844   2.566   6.936   0.346 -0.3155  0.8213  0.8895
 3403TIP3    H231845   2.421   6.970   0.320  0.2920  0.9616 -2.8530
 3404TIP3   OH231846   6.511   0.801   3.839  0.0614  0.2466 -0.1835
 3404TIP3    H131847   6.438   0.792   3.778  1.3196 -0.5304 -1.6500
 3404TIP3    H231848   6.556   0.716   3.836  0.0732  0.1080  2.0062
 3405TIP3   OH231849   2.969   2.746   0.327 -0.3924 -0.5279 -0.5777
 3405TIP3    H131850   2.876   2.762   0.315  0.0769  2.6214 -0.9368
 3405TIP3    H231851   2.974   2.659   0.367 -3.4533 -0.7555 -0.4870
 3406TIP3   OH231852   4.610   5.586   2.222  0.6276 -0.4560  0.0008
 3406TIP3    H131853   4.684   5.548   2.175  1.1266  1.0688 -0.5047
 3406TIP3    H231854   4.588   5.521   2.289  3.1446 -0.4979  0.8993
 3407TIP3   OH231855   1.018   6.669   0.306  1.1048 -0.1309 -0.5808
 3407TIP3    H131856   1.062   6.598   0.259  0.1031 -2.6289  2.0316
 3407TIP3    H231857   0.983   6.725   0.236  4.6264 -0.3254 -2.7603
 3408TIP3   OH231858   2.805   1.512   2.360  0.1285  0.0223 -0.1026
 3408TIP3    H131859   2.878   1.573   2.372  0.3432  0.3221 -2.4546
 3408TIP3    H231860   2.735   1.547   2.415  1.4170  0.2639  1.4523
 3409TIP3   OH231861   4.201   4.591   1.653  0.2352  0.2462 -0.3073
 3409TIP3    H131862   4.134   4.657   1.636  0.7278  0.5138 -1.2563
 3409TIP3    H231863   4.180   4.520   1.593  0.8935  0.3989 -0.7179
 3410TIP3   OH231864   1.154   2.912   3.119  0.4642 -0.0661  0.4665
 3410TIP3    H131865   1.071   2.905   3.167  1.4709 -2.7804  2.0103
 3410TIP3    H231866   1.221   2.891   3.184  2.3056  0.9104 -1.0300
 3411TIP3   OH231867   0.344   5.722   2.452  0.5844  0.5751  0.0548
 3411TIP3    H131868   0.420   5.688   2.405  0.6175  1.0878 -0.2758
 3411TIP3    H231869   0.283   5.649   2.457  1.3603 -0.0427  0.9085
 3412TIP3   OH231870   5.983   3.951   7.550 -0.1130 -0.3139 -0.8287
 3412TIP3    H131871   6.072   3.963   7.582 -0.4846  3.5242 -0.7999
 3412TIP3    H231872   5.993   3.919   7.460  1.2595 -0.2130 -0.7224
 3413TIP3   OH231873   5.593   1.569   0.545  0.0944 -0.2637 -0.6430
 3413TIP3    H131874   5.579   1.502   0.611  0.9203  2.4574  2.5266
 3413TIP3    H231875   5.687   1.568   0.527 -0.1275 -1.0128 -1.8811
 3414TIP3   OH231876   5.785   3.492   0.428  0.5638 -1.0552  0.3084
 3414TIP3    H131877   5.754   3.413   0.384 -0.5361 -0.4924  0.0465
 3414TIP3    H231878   5.767   3.477   0.521 -0.8164 -0.6170  0.1311
 3415TIP3   OH231879   2.543   6.043   7.414 -0.5454 -0.6162 -0.3379
 3415TIP3    H131880   2.467   6.088   7.379 -0.3325 -0.8839 -1.1700
 3415TIP3    H231881   2.600   6.113   7.446 -0.8003 -0.3703 -0.4206
 3416TIP3   OH231882   3.929   4.233   7.288  0.3003  0.8117 -0.2517
 3416TIP3    H131883   3.980   4.306   7.255 -0.3202  1.0113 -0.8021
 3416TIP3    H231884   3.993   4.174   7.327  1.0140  0.7542 -1.4722
 3417TIP3   OH231885   0.334   6.543   0.533  0.8587 -0.6461  0.1420
 3417TIP3    H131886   0.386   6.504   0.463 -0.1885 -1.5028 -0.2023
 3417TIP3    H231887   0.390   6.610   0.571  2.3033 -1.7206 -0.0110
 3418TIP3   OH231888   4.635   4.880   1.040  0.1289  0.4197  0.1078
 3418TIP3    H131889   4.632   4.835   1.125 -1.3782 -1.8989 -1.0663
 3418TIP3    H231890   4.544   4.902   1.022  0.7141  3.2905  0.1955
 3419TIP3   OH231891   5.653   5.220   1.806  0.1279 -0.0519  0.2843
 3419TIP3    H131892   5.718   5.277   1.847  1.7616 -1.3877 -0.3157
 3419TIP3    H231893   5.705   5.163   1.748 -1.8202  0.3071 -1.9640
 3420TIP3   OH231894   3.019   0.853   0.214  0.0457 -0.0651 -0.0468
 3420TIP3    H131895   3.078   0.795   0.263  0.1723  0.7620  0.8117
 3420TIP3    H231896   3.038   0.940   0.248 -2.0978  0.1640  0.6790
 3421TIP3   OH231897   5.626   5.450   3.619 -0.0343  0.3649 -0.1751
 3421TIP3    H131898   5.554   5.444   3.681 -1.4183  0.4239 -1.7128
 3421TIP3    H231899   5.658   5.360   3.610  0.1183  0.3425  0.5269
 3422TIP3   OH231900   5.064   6.457   8.123 -0.4510 -0.3387 -0.4430
 3422TIP3    H131901   5.102   6.544   8.118 -0.9778 -0.1573 -1.6967
 3422TIP3    H231902   5.103   6.409   8.050  1.9322 -2.0771  1.7812
 3423TIP3   OH231903   0.995   3.318   0.246 -0.0989 -0.1876 -0.2599
 3423TIP3    H131904   1.079   3.353   0.218  1.1083 -1.4798  1.4822
 3423TIP3    H231905   0.997   3.324   0.342 -0.9567 -2.4024 -0.0435
 3424TIP3   OH231906   1.072   1.920   0.462  0.0788 -0.0378 -0.1189
 3424TIP3    H131907   1.064   1.988   0.396 -0.5460 -0.5924 -0.6278
 3424TIP3    H231908   1.076   1.967   0.545 -1.2423  0.5846 -0.3894
 3425TIP3   OH231909   3.600   5.754   0.963 -1.0445 -0.1370 -0.0098
 3425TIP3    H131910   3.617   5.837   1.008  1.3745 -0.7550  0.3750
 3425TIP3    H231911   3.552   5.779   0.884  1.2999  1.9333 -0.9065
 3426TIP3   OH231912   5.826   1.312   1.967 -0.4287  0.4541  0.0465
 3426TIP3    H131913   5.915   1.298   1.933 -0.4369 -1.0888  0.5828
 3426TIP3    H231914   5.815   1.243   2.033 -2.8051 -0.7889 -1.5302
 3427TIP3   OH231915   6.866   1.212   1.559 -0.2035  0.4222  0.6183
 3427TIP3    H131916   6.819   1.295   1.549 -3.0273 -1.0471  0.5259
 3427TIP3    H231917   6.836   1.179   1.644  0.0111 -0.9657  0.1725
 3428TIP3   OH231918   6.595   2.562   7.827 -0.3030  1.1268 -0.6633
 3428TIP3    H131919   6.575   2.485   7.775 -2.6010  0.6956  0.6852
 3428TIP3    H231920   6.664   2.534   7.887 -0.9933  0.1170 -0.3074
 3429TIP3   OH231921   0.702   2.657   1.429 -0.5887 -0.2463  0.3126
 3429TIP3    H131922   0.660   2.743   1.424  0.3711  0.1942 -1.1033
 3429TIP3    H231923   0.733   2.641   1.339  1.4850 -0.8994  1.0885
 3430TIP3   OH231924   0.422   1.108   1.217 -0.1800  0.4021 -0.5998
 3430TIP3    H131925   0.356   1.161   1.262  0.4650  0.3150  0.4684
 3430TIP3    H231926   0.498   1.109   1.275  0.2028 -0.8485 -1.0394
 3431TIP3   OH231927   6.673   4.813   2.457  0.5760  0.0203 -0.3666
 3431TIP3    H131928   6.751   4.863   2.432  0.1212  0.7985 -0.2552
 3431TIP3    H231929   6.662   4.750   2.385 -0.1344  1.5783 -1.6887
 3432TIP3   OH231930   3.984   1.466   2.789  0.3663 -0.1786 -0.1160
 3432TIP3    H131931   3.973   1.462   2.884  1.1832  0.8182  0.0403
 3432TIP3    H231932   3.898   1.444   2.754 -0.0368 -0.2196  0.8605
 3433TIP3   OH231933   0.722   4.845   0.314 -0.0069  0.1354 -0.5737
 3433TIP3    H131934   0.787   4.792   0.361  1.0897  1.0261 -1.0248
 3433TIP3    H231935   0.728   4.814   0.223  0.2628  0.6558 -0.7371
 3434TIP3   OH231936   3.914   2.410   2.321  0.1271  0.0885  0.1237
 3434TIP3    H131937   3.971   2.397   2.245  1.0126 -0.1685  0.8120
 3434TIP3    H231938   3.968   2.460   2.383  0.1669 -1.4546  1.4047
 3435TIP3   OH231939   3.062   2.844   7.708 -0.3402 -0.1625 -0.4488
 3435TIP3    H131940   3.064   2.925   7.658 -0.0019 -0.0469 -0.2597
 3435TIP3    H231941   3.155   2.822   7.721 -0.4147 -0.0731  0.2987
 3436TIP3   OH231942   3.623   1.703   2.006 -0.2509 -0.4927  0.0214
 3436TIP3    H131943   3.641   1.654   1.926  0.1361 -1.0228  0.4324
 3436TIP3    H231944   3.528   1.698   2.015 -0.1117 -2.2683  0.7433
 3437TIP3   OH231945   7.012   3.369   3.093 -0.4758 -0.2901  0.0430
 3437TIP3    H131946   6.972   3.388   3.178 -0.1886 -0.9525  0.3274
 3437TIP3    H231947   7.098   3.335   3.114 -0.6931 -1.1952 -0.4881
 3438TIP3   OH231948   5.876   4.092   1.214 -0.2850  0.4009  0.1793
 3438TIP3    H131949   5.874   4.011   1.163  0.6115  0.4309  0.0896
 3438TIP3    H231950   5.886   4.161   1.149  0.9836  0.4309  0.3840
 3439TIP3   OH231951   0.248   4.302   3.387  0.0600 -0.4330 -0.0617
 3439TIP3    H131952   0.322   4.242   3.388  1.0032  0.6987  0.0379
 3439TIP3    H231953   0.259   4.356   3.465  0.8525  1.7355 -1.5741
 3440TIP3   OH231954   4.244   1.162   3.058  0.0445  0.1858  0.0995
 3440TIP3    H131955   4.296   1.126   3.129  0.2718 -0.1723 -0.2461
 3440TIP3    H231956   4.302   1.157   2.982  0.6214  2.5585  0.3002
 3441TIP3   OH231957   5.258   2.342   1.265 -0.6071  0.1591  0.1943
 3441TIP3    H131958   5.200   2.404   1.309 -0.4180  1.7748 -1.6875
 3441TIP3    H231959   5.225   2.339   1.175  1.0161 -0.4605 -0.4124
 3442TIP3   OH231960   0.032   3.780   0.250  0.2863  0.3120  0.0312
 3442TIP3    H131961   0.027   3.791   0.155 -0.3991  0.0098  0.0267
 3442TIP3    H231962  -0.051   3.814   0.283  0.9015  1.2803  0.6156
 3443TIP3   OH231963   3.496   6.946   0.385  0.2310  0.1629 -0.0617
 3443TIP3    H131964   3.502   7.006   0.458 -2.0412  0.6031 -0.1486
 3443TIP3    H231965   3.443   6.992   0.320  1.9120 -0.3367 -1.8755
 3444TIP3   OH231966   6.957   4.533   1.506  0.1498 -1.2352  0.2545
 3444TIP3    H131967   6.983   4.622   1.485 -0.8529 -0.5425  1.7699
 3444TIP3    H231968   6.968   4.485   1.424  1.7044  0.0188 -0.3269
 3445TIP3   OH231969   0.591   5.127   2.713  0.0266 -0.3662 -1.0158
 3445TIP3    H131970   0.511   5.075   2.713  0.3041 -0.8002 -1.2937
 3445TIP3    H231971   0.650   5.081   2.653  1.6742 -1.8898  1.5827
 3446TIP3   OH231972   6.612   1.835   1.422 -0.3518  0.1314  1.1032
 3446TIP3    H131973   6.543   1.768   1.422 -1.1866  0.9725  0.5875
 3446TIP3    H231974   6.622   1.859   1.330 -0.2467  0.9022  1.3118
 3447TIP3   OH231975   5.642   6.029   2.966  0.0802 -0.4760 -0.0035
 3447TIP3    H131976   5.630   5.974   3.043  0.1727 -0.4440  0.0337
 3447TIP3    H231977   5.648   6.118   3.000  0.4002 -0.4891 -0.0226
 3448TIP3   OH231978   3.385   4.076   2.121  0.1157 -0.0684 -0.2080
 3448TIP3    H131979   3.327   4.076   2.197  0.9724  2.5139  0.5428
 3448TIP3    H231980   3.463   4.123   2.150  0.9734 -0.0421 -2.3514
 3449TIP3   OH231981   3.081   0.065   0.368 -0.4858  0.1108 -0.3000
 3449TIP3    H131982   3.013  -0.002   0.359 -0.1392 -0.2626 -0.1567
 3449TIP3    H231983   3.100   0.092   0.278  2.0043 -2.6434 -0.7535
 3450TIP3   OH231984   6.964   7.022   1.645  0.0138  0.0548 -0.0117
 3450TIP3    H131985   6.926   7.083   1.708 -1.8489 -0.9895 -0.0488
 3450TIP3    H231986   6.933   7.053   1.560  0.9461  0.3492 -0.2567
 3451TIP3   OH231987   0.612   4.008   1.296 -0.5468  0.3642 -0.1779
 3451TIP3    H131988   0.554   3.958   1.238 -1.1375  0.3317  0.4290
 3451TIP3    H231989   0.556   4.037   1.367 -0.1093  1.5272 -0.2862
 3452TIP3   OH231990   0.026   0.627   2.924 -0.5964 -0.1653  0.2656
 3452TIP3    H131991   0.013   0.568   2.998 -1.2881 -1.2578 -0.6845
 3452TIP3    H231992  -0.052   0.613   2.869 -0.2474  0.8431 -0.5053
 3453TIP3   OH231993   1.029   4.042   0.961 -0.2570  0.1886 -0.1719
 3453TIP3    H131994   1.102   4.054   0.901  0.6915  0.9150  1.0832
 3453TIP3    H231995   0.961   4.101   0.928 -0.4153 -0.7155 -1.5175
 3454TIP3   OH231996   5.483   6.956   7.324  0.5854 -0.1291  0.8019
 3454TIP3    H131997   5.487   6.862   7.304  2.1545 -0.4196  2.2629
 3454TIP3    H231998   5.542   6.996   7.261  0.0417 -0.1360  0.2825
 3455TIP3   OH231999   1.806   6.646   7.751  0.1747  0.3763 -0.1736
 3455TIP3    H132000   1.867   6.720   7.746  0.3656  0.1394 -2.2518
 3455TIP3    H232001   1.738   6.667   7.687 -0.2985 -0.7999 -0.0733
 3456TIP3   OH232002   2.877   3.118   3.341  0.0145 -0.4459 -0.0403
 3456TIP3    H132003   2.864   3.076   3.256  1.0260  2.1602 -1.6108
 3456TIP3    H232004   2.794   3.106   3.387 -0.7836 -1.3854 -1.6434
 3457TIP3   OH232005   3.719   1.902   2.552  0.3728 -0.4142  0.5053
 3457TIP3    H132006   3.738   1.829   2.492  1.2402  0.4454 -0.2972
 3457TIP3    H232007   3.681   1.970   2.497 -0.7383 -0.3562  1.3091
 3458TIP3   OH232008   0.938   4.911   0.597 -0.2686 -0.0066 -0.1891
 3458TIP3    H132009   0.983   4.876   0.520 -1.6923 -1.3759 -0.4736
 3458TIP3    H232010   0.879   4.840   0.624 -0.0103  0.5301  2.0253
 3459TIP3   OH232011   2.249   5.917   0.237 -0.1758 -1.0170 -0.0051
 3459TIP3    H132012   2.224   6.008   0.221  0.2267 -0.6315  1.4361
 3459TIP3    H232013   2.254   5.878   0.150  1.0294  0.7071 -0.7635
 3460TIP3   OH232014   4.044   0.888   1.270  0.0267 -0.1401  0.2572
 3460TIP3    H132015   4.088   0.804   1.281  1.6825  0.6608  0.1179
 3460TIP3    H232016   4.063   0.936   1.351 -2.0242 -0.3493  0.9107
 3461TIP3   OH232017   3.198   0.488   0.257  0.3353  0.4346 -0.9321
 3461TIP3    H132018   3.186   0.549   0.330 -1.3143 -2.3116  1.3128
 3461TIP3    H232019   3.115   0.492   0.208 -0.1315 -0.5077 -0.2667
 3462TIP3   OH232020   0.602   1.812   7.169  0.1145 -0.4319 -0.4057
 3462TIP3    H132021   0.640   1.886   7.215 -0.5374 -0.4887  0.2439
 3462TIP3    H232022   0.646   1.735   7.207 -0.4805 -0.4843  0.2029
 3463TIP3   OH232023   2.356   1.228   0.860  0.0663 -0.1921 -0.0171
 3463TIP3    H132024   2.423   1.209   0.794 -1.0091 -1.7838 -0.7052
 3463TIP3    H232025   2.279   1.179   0.831 -1.6105  2.0172  0.4451
 3464TIP3   OH232026   4.157   0.481   3.094 -0.0705 -0.0689  0.8327
 3464TIP3    H132027   4.089   0.475   3.160 -0.2642  1.4807  0.7934
 3464TIP3    H232028   4.218   0.410   3.115 -1.6960 -1.5173  0.8322
 3465TIP3   OH232029   4.981   4.271   2.843  0.0544  0.1962 -0.3824
 3465TIP3    H132030   4.934   4.226   2.913  1.3954 -0.5188  0.0922
 3465TIP3    H232031   5.044   4.327   2.888  1.4421 -0.8217 -0.9673
 3466TIP3   OH232032   0.002   3.412   3.359 -0.1358  0.3667  0.4773
 3466TIP3    H132033  -0.046   3.494   3.351 -1.5098 -0.3659  0.9252
 3466TIP3    H232034   0.065   3.427   3.429  0.6534  1.4929 -0.4325
 3467TIP3   OH232035   1.573   2.070   7.811  0.7179  0.2006  0.1389
 3467TIP3    H132036   1.603   2.081   7.901  0.4343  0.2730  0.2250
 3467TIP3    H232037   1.633   2.122   7.758 -0.3175  1.8177  0.4843
 3468TIP3   OH232038   6.664   1.975   1.839  0.2293  0.3819 -0.3783
 3468TIP3    H132039   6.664   1.975   1.935  0.2340  0.7981 -0.3758
 3468TIP3    H232040   6.584   2.022   1.816 -0.8194 -1.4196 -0.5913
 3469TIP3   OH232041   1.076   4.735   1.229 -0.3697  0.6543 -0.3928
 3469TIP3    H132042   1.103   4.782   1.150  0.9783 -0.4196 -0.6089
 3469TIP3    H232043   1.072   4.644   1.202 -1.4283  0.4504  0.4070
 3470TIP3   OH232044   3.125   4.829   0.805 -0.1392  0.2134  0.2226
 3470TIP3    H132045   3.130   4.907   0.861 -1.1071  1.3217 -1.1664
 3470TIP3    H232046   3.215   4.796   0.803  0.3378  1.4249  0.6577
 3471TIP3   OH232047   1.694   2.194   1.476  0.1405 -0.3003  0.3993
 3471TIP3    H132048   1.692   2.104   1.444  1.4448 -0.1630 -0.1272
 3471TIP3    H232049   1.602   2.221   1.478 -0.1663 -1.1524 -0.8533
 3472TIP3   OH232050   3.068   6.953   2.637  0.4460 -0.0638 -0.5628
 3472TIP3    H132051   3.019   7.019   2.687  1.4678  0.0429  0.3360
 3472TIP3    H232052   3.038   6.965   2.546 -2.8396 -1.4805  0.1790
 3473TIP3   OH232053   6.215   0.586   2.269  0.1213  0.4417 -0.0775
 3473TIP3    H132054   6.253   0.565   2.354  1.5466  0.1418 -0.7514
 3473TIP3    H232055   6.204   0.502   2.225  2.8136  0.7190 -1.5330
 3474TIP3   OH232056   1.781   4.334   1.616 -0.0618  0.1338  0.6791
 3474TIP3    H132057   1.748   4.328   1.527  1.7961  1.1047 -0.1300
 3474TIP3    H232058   1.784   4.244   1.647 -1.3562 -0.1595  0.0252
 3475TIP3   OH232059   3.918   6.087   3.140 -0.5224 -0.2138 -0.2763
 3475TIP3    H132060   3.843   6.039   3.175 -0.7945 -0.3016 -0.9753
 3475TIP3    H232061   3.981   6.086   3.211 -0.5671 -1.4976 -0.2258
 3476TIP3   OH232062   5.465   5.908   1.816 -0.4869  0.5775 -0.2860
 3476TIP3    H132063   5.557   5.929   1.832 -0.1753 -0.4449 -0.6562
 3476TIP3    H232064   5.417   5.956   1.883  0.2336  1.8879 -0.6639
 3477TIP3   OH232065   4.411   5.183   1.461  0.4504 -0.4685  0.1780
 3477TIP3    H132066   4.396   5.233   1.541 -1.2503  0.3274 -0.5916
 3477TIP3    H232067   4.351   5.109   1.468  0.3643 -0.4446 -0.3340
 3478TIP3   OH232068   1.897   5.241   3.256 -0.1281  0.1071  0.3053
 3478TIP3    H132069   1.980   5.201   3.230 -0.0167  0.1431  0.5986
 3478TIP3    H232070   1.906   5.257   3.350 -2.0118 -3.6851  1.3107
 3479TIP3   OH232071   5.428   2.222   1.505 -0.6751 -0.3615  0.1172
 3479TIP3    H132072   5.373   2.251   1.432 -1.6577 -1.4316  0.4005
 3479TIP3    H232073   5.435   2.127   1.494  0.5990 -0.3231  0.4588
 3480TIP3   OH232074   0.947   2.599   2.186 -0.7434 -0.0905 -0.1030
 3480TIP3    H132075   1.042   2.586   2.197 -0.5832  0.6433 -0.4993
 3480TIP3    H232076   0.913   2.603   2.275 -0.5625 -1.3855  0.0461
 3481TIP3   OH232077   0.984   3.314   3.073 -0.6187 -0.0754 -0.1677
 3481TIP3    H132078   0.897   3.322   3.113 -0.8007 -3.5358  0.4077
 3481TIP3    H232079   1.041   3.367   3.129 -1.7529 -0.6873  1.6280
 3482TIP3   OH232080   4.404   3.425   1.159 -0.1925 -0.2315 -0.1070
 3482TIP3    H132081   4.321   3.443   1.117  0.0446  0.5648 -0.2507
 3482TIP3    H232082   4.452   3.508   1.156  1.2610 -1.0657 -1.4693
 3483TIP3   OH232083   0.669   6.478   2.861 -0.4330 -1.1592 -0.1837
 3483TIP3    H132084   0.631   6.562   2.837 -0.9767 -0.8462  1.5693
 3483TIP3    H232085   0.756   6.500   2.895 -0.9149 -1.1506  1.1174
 3484TIP3   OH232086   3.185   5.849   2.901 -0.1361 -0.3179  0.1047
 3484TIP3    H132087   3.208   5.757   2.887 -0.5691 -0.2503 -1.1207
 3484TIP3    H232088   3.267   5.890   2.929  0.2419 -0.9218 -0.1075
 3485TIP3   OH232089   1.894   1.567   2.278 -0.1793  0.0167 -0.6156
 3485TIP3    H132090   1.903   1.651   2.322 -0.1860  0.4510 -1.4272
 3485TIP3    H232091   1.928   1.503   2.341 -0.6178  0.5685  0.1961
 3486TIP3   OH232092   6.257   4.678   2.818  0.2198  0.4971  0.3987
 3486TIP3    H132093   6.327   4.626   2.777 -1.0686 -0.4990 -0.6201
 3486TIP3    H232094   6.290   4.699   2.905  1.7946  0.0819 -0.0671
 3487TIP3   OH232095   5.766   2.613   2.652 -0.0861 -0.3432 -0.1008
 3487TIP3    H132096   5.713   2.539   2.622  0.3628  0.4412 -3.1712
 3487TIP3    H232097   5.712   2.690   2.633 -0.0278  0.2247  1.8703
 3488TIP3   OH232098   2.384   6.635   0.852  0.0736  0.5616 -0.1352
 3488TIP3    H132099   2.314   6.674   0.801 -1.4529 -0.0439  1.4039
 3488TIP3    H232100   2.405   6.702   0.918 -1.1095 -0.3503  1.2116
 3489TIP3   OH232101   4.848   4.020   1.316  0.1023 -0.2408  0.2401
 3489TIP3    H132102   4.941   4.044   1.318  0.4095 -1.3484  0.6501
 3489TIP3    H232103   4.816   4.042   1.404  0.3506 -1.1189  0.5711
 3490TIP3   OH232104   7.055   3.023   3.714  0.1272  0.1283  0.3101
 3490TIP3    H132105   6.962   3.038   3.731  0.3020 -0.3968  1.9211
 3490TIP3    H232106   7.076   3.078   3.638 -1.4048  0.5010  0.1387
 3491TIP3   OH232107   1.548   5.242   1.009  0.5900 -0.1577  0.1091
 3491TIP3    H132108   1.627   5.238   1.063  1.5056 -0.3956 -1.1798
 3491TIP3    H232109   1.578   5.282   0.927 -0.5315 -0.6709 -0.5698
 3492TIP3   OH232110   1.649   2.121   8.089  0.5154  0.0853  0.4967
 3492TIP3    H132111   1.567   2.103   8.136  0.0812 -2.1557 -0.9802
 3492TIP3    H232112   1.711   2.056   8.122  0.7382 -0.3117 -0.6608
 3493TIP3   OH232113   2.694   4.205   7.814  0.1993  0.4236  0.2430
 3493TIP3    H132114   2.732   4.203   7.726 -0.5374  3.3339 -0.2325
 3493TIP3    H232115   2.631   4.133   7.814 -0.0360  0.5679 -1.7377
 3494TIP3   OH232116   3.172   4.604   8.219 -0.1053  0.1983 -0.0435
 3494TIP3    H132117   3.084   4.575   8.194 -0.7074  1.9014 -0.0543
 3494TIP3    H232118   3.228   4.530   8.199 -1.4261 -0.6326 -0.8311
 3495TIP3   OH232119   2.453   1.564   3.236 -0.2322 -0.1407  0.0858
 3495TIP3    H132120   2.507   1.634   3.271 -0.3905  0.6183 -1.1455
 3495TIP3    H232121   2.413   1.523   3.313  0.6096  0.4943  0.8715
 3496TIP3   OH232122   5.208   6.776   2.757 -0.4240  0.1189 -0.9914
 3496TIP3    H132123   5.227   6.853   2.703 -1.3021  1.3393  0.3525
 3496TIP3    H232124   5.252   6.794   2.840 -1.5408 -0.3170 -0.2903
 3497TIP3   OH232125   2.719   4.075   0.580  0.1969 -0.1319  0.4887
 3497TIP3    H132126   2.758   4.003   0.629 -0.2114 -1.3406 -0.8957
 3497TIP3    H232127   2.768   4.152   0.608 -0.0340 -0.7280  2.7931
 3498TIP3   OH232128   4.654   4.923   3.572 -0.0936 -0.7864 -0.1302
 3498TIP3    H132129   4.704   4.997   3.606 -0.4667 -0.8300  0.5271
 3498TIP3    H232130   4.654   4.859   3.643  0.2322 -1.4208 -0.6984
 3499TIP3   OH232131   1.338   3.458   2.025  0.0644 -0.2520  0.2202
 3499TIP3    H132132   1.252   3.491   2.053  0.0759  1.1978 -1.3323
 3499TIP3    H232133   1.400   3.497   2.087 -0.2714 -0.2716  0.5742
 3500TIP3   OH232134   3.324   1.983   2.337  0.0261  0.0092  0.1724
 3500TIP3    H132135   3.299   2.070   2.308  1.9806  1.3378  2.1330
 3500TIP3    H232136   3.319   1.987   2.432 -0.2789 -2.2092  0.3068
 3501TIP3   OH232137   4.314   5.505   0.038 -0.0260  0.4648  0.3727
 3501TIP3    H132138   4.355   5.585   0.071 -1.2848  2.4403 -2.4562
 3501TIP3    H232139   4.355   5.490  -0.047 -0.0760 -1.7645  0.6673
 3502TIP3   OH232140   2.621   2.066   7.563 -0.7870  0.0809 -0.7937
 3502TIP3    H132141   2.563   2.008   7.612  0.5762  0.2891  1.1833
 3502TIP3    H232142   2.676   2.106   7.630  0.4093  1.2616 -2.4261
 3503TIP3   OH232143   2.309   3.502   1.119 -0.2530 -0.0510 -0.1383
 3503TIP3    H132144   2.292   3.420   1.165  0.7251 -1.1205 -1.6097
 3503TIP3    H232145   2.357   3.555   1.183 -2.4976  0.1768  1.4845
 3504TIP3   OH232146   5.483   4.345   8.171  0.1157 -0.1715  0.3694
 3504TIP3    H132147   5.532   4.264   8.188  1.6252  1.1621  3.0772
 3504TIP3    H232148   5.548   4.407   8.140 -0.9734  0.1822 -1.3657
 3505TIP3   OH232149   4.739   6.521   8.148 -0.1945  0.1974  0.6997
 3505TIP3    H132150   4.774   6.434   8.166  0.8365  0.6280  0.8197
 3505TIP3    H232151   4.706   6.515   8.058 -0.7037 -0.4857  0.9209
 3506TIP3   OH232152   5.269   6.056   1.707 -1.1229 -0.2347 -0.1207
 3506TIP3    H132153   5.185   6.035   1.747 -0.9992  0.7463  0.6856
 3506TIP3    H232154   5.327   5.985   1.735 -2.0586 -1.8942 -2.1201
 3507TIP3   OH232155   6.324   1.445   3.410  0.5007  0.8176 -0.1260
 3507TIP3    H132156   6.384   1.373   3.430 -2.0474 -1.5484 -0.3704
 3507TIP3    H232157   6.311   1.489   3.495  0.1270 -0.6748  0.6229
 3508TIP3   OH232158   4.882   0.042   1.882 -0.0777 -0.1653  0.4245
 3508TIP3    H132159   4.949  -0.006   1.832 -0.1115 -0.7762  0.9492
 3508TIP3    H232160   4.830   0.087   1.815 -0.2006 -1.0751 -0.1189
 3509TIP3   OH232161   4.236   2.206   3.224 -0.1894  0.4928 -0.0011
 3509TIP3    H132162   4.175   2.205   3.297  1.1246 -0.0560  1.1323
 3509TIP3    H232163   4.208   2.134   3.168 -0.0732 -0.3188  0.9558
 3510TIP3   OH232164   4.541   2.131   0.898 -0.5941  0.2993  0.3350
 3510TIP3    H132165   4.517   2.199   0.962  1.0325  2.5499 -1.2915
 3510TIP3    H232166   4.490   2.154   0.820 -1.8854 -1.8920  0.4475
 3511TIP3   OH232167   0.148   6.271   7.537  0.5509  0.3860  0.0133
 3511TIP3    H132168   0.190   6.350   7.503  0.8472  1.1539  1.9961
 3511TIP3    H232169   0.065   6.265   7.489  0.9859  1.3097 -0.8997
 3512TIP3   OH232170   1.803   4.252   1.132 -0.4636 -0.3257 -0.6277
 3512TIP3    H132171   1.732   4.188   1.144 -1.8868  1.2785 -0.0030
 3512TIP3    H232172   1.760   4.328   1.093  0.6708  1.1160  0.7795
 3513TIP3   OH232173   2.782   0.404   1.538 -0.0011 -0.1418 -1.0097
 3513TIP3    H132174   2.817   0.484   1.500 -0.4851  1.2801  1.3439
 3513TIP3    H232175   2.688   0.420   1.546  0.0447 -0.4934  0.4441
 3514TIP3   OH232176   4.882   1.906   0.549  0.4567  0.0653  0.4960
 3514TIP3    H132177   4.946   1.836   0.537  2.2837  1.8743 -1.0662
 3514TIP3    H232178   4.930   1.987   0.529 -2.0555  1.6316  0.2879
 3515TIP3   OH232179   2.097   5.436   0.380  0.0639 -0.4399  0.1135
 3515TIP3    H132180   2.015   5.433   0.331 -0.3757  1.2659  0.6859
 3515TIP3    H232181   2.142   5.513   0.346  0.0588  0.3723  1.8778
 3516TIP3   OH232182   4.996   5.085   0.083 -0.4040  0.3308  0.0690
 3516TIP3    H132183   5.055   5.092   0.008 -0.6192  0.7922 -0.0612
 3516TIP3    H232184   4.968   5.175   0.101 -1.4507  0.0768 -0.1899
 3517TIP3   OH232185   3.205   4.881   3.146  0.4354  0.0415  0.2414
 3517TIP3    H132186   3.152   4.859   3.222  0.4734 -0.3132  0.1674
 3517TIP3    H232187   3.147   4.932   3.090  0.8530  1.6431  1.1899
 3518TIP3   OH232188   0.242   4.507   3.604 -0.1011  0.5764  0.3660
 3518TIP3    H132189   0.175   4.574   3.615  0.6407  1.3941 -0.0044
 3518TIP3    H232190   0.304   4.521   3.675 -0.9968 -1.0414  1.5267
 3519TIP3   OH232191   2.918   1.664   7.258  0.3345  0.1162 -0.1129
 3519TIP3    H132192   2.864   1.606   7.312 -2.3934  0.9929 -1.6800
 3519TIP3    H232193   2.958   1.606   7.193 -0.9079 -0.2964 -0.5446
 3520TIP3   OH232194   6.776   3.780   3.018 -0.0950  0.5938 -0.0831
 3520TIP3    H132195   6.753   3.688   3.014 -2.0286  1.0393 -0.1515
 3520TIP3    H232196   6.864   3.782   3.056 -1.0748 -1.1533  2.5819
 3521TIP3   OH232197   4.733   2.640   2.030  0.4292 -0.5542  0.1205
 3521TIP3    H132198   4.724   2.603   2.118  0.1670 -0.6201  0.0674
 3521TIP3    H232199   4.661   2.600   1.980  1.7912 -2.1364 -0.6865
 3522TIP3   OH232200   6.519   6.589   1.458  0.3670 -0.0822  0.2877
 3522TIP3    H132201   6.527   6.675   1.500 -0.4862  0.7324 -1.1442
 3522TIP3    H232202   6.425   6.577   1.446  0.5603 -0.4937 -0.9672
 3523TIP3   OH232203   5.195   5.697   1.861 -0.4891 -0.5563 -0.1322
 3523TIP3    H132204   5.224   5.688   1.952 -0.3875 -1.5787 -0.2562
 3523TIP3    H232205   5.127   5.764   1.864  1.0868  1.0993  0.3376
 3524TIP3   OH232206   1.312   2.212   1.836  0.1321 -0.7524 -0.3911
 3524TIP3    H132207   1.405   2.222   1.819  0.0069 -1.0081 -1.2613
 3524TIP3    H232208   1.307   2.184   1.928  0.8693 -0.1333 -0.1562
 3525TIP3   OH232209   0.283   3.448   1.585  0.3151 -0.3178  0.1847
 3525TIP3    H132210   0.335   3.527   1.601 -2.0468  1.7125 -1.4843
 3525TIP3    H232211   0.263   3.415   1.673  0.6465  1.4286  0.9627
 3526TIP3   OH232212   3.563   6.586   1.125 -0.9128  0.5661 -0.2114
 3526TIP3    H132213   3.577   6.625   1.212  3.0868 -1.0614  0.0817
 3526TIP3    H232214   3.605   6.647   1.064  1.4360 -0.9834 -0.2414
 3527TIP3   OH232215   3.989   0.566   7.479  0.3553 -0.3974  0.1589
 3527TIP3    H132216   3.981   0.614   7.397  0.9215 -1.9609 -0.8506
 3527TIP3    H232217   3.907   0.518   7.487  1.0899 -1.8429 -0.5858
 3528TIP3   OH232218   5.829   2.010   0.687  0.0818  0.2970  0.4494
 3528TIP3    H132219   5.859   2.084   0.740 -0.6554 -0.7183  2.4196
 3528TIP3    H232220   5.838   1.935   0.746 -1.6186 -0.7670 -0.5760
 3529TIP3   OH232221   3.118   1.094   2.048 -0.2559  0.3187 -0.4915
 3529TIP3    H132222   3.169   1.144   2.112 -1.8802  1.6575 -0.1791
 3529TIP3    H232223   3.032   1.083   2.088  0.2302 -3.6472 -0.1221
 3530TIP3   OH232224   2.617   4.604   2.250 -0.2266 -0.2514 -0.3534
 3530TIP3    H132225   2.548   4.551   2.290 -1.6099  1.2777 -0.6262
 3530TIP3    H232226   2.612   4.584   2.157  1.3331 -1.9317 -0.1176
 3531TIP3   OH232227   1.392   3.396   7.537 -0.0154  0.6534  0.0603
 3531TIP3    H132228   1.439   3.319   7.505  0.6361  0.5462  1.2270
 3531TIP3    H232229   1.341   3.364   7.611 -0.2027  1.2228  0.1833
 3532TIP3   OH232230   4.923   0.039   2.461  0.0634 -0.3342 -0.0596
 3532TIP3    H132231   4.993  -0.023   2.440  0.8158  0.3285  0.4644
 3532TIP3    H232232   4.903   0.022   2.553 -0.2348 -0.2902 -0.1156
 3533TIP3   OH232233   5.220   7.049   1.155  0.1137  0.2086 -0.5071
 3533TIP3    H132234   5.296   7.104   1.134 -0.0490  0.2084 -1.1331
 3533TIP3    H232235   5.238   7.014   1.242  0.3935  0.9628 -0.2531
 3534TIP3   OH232236   1.186   0.123   1.545 -0.2162 -0.5641 -0.1909
 3534TIP3    H132237   1.097   0.156   1.558  0.1112  1.4312 -2.2485
 3534TIP3    H232238   1.201   0.133   1.451  2.6158  0.3838  0.2613
 3535TIP3   OH232239   1.850   3.130   1.142  0.8537  0.2461  0.6298
 3535TIP3    H132240   1.892   3.093   1.220 -0.4105  2.1787  2.3394
 3535TIP3    H232241   1.757   3.133   1.164  0.5295  1.2988 -0.7362
 3536TIP3   OH232242   2.741   0.832   3.000  0.3019 -0.1220 -0.0705
 3536TIP3    H132243   2.778   0.916   3.025 -1.0986  1.0600 -1.7661
 3536TIP3    H232244   2.666   0.820   3.059  0.8063 -0.4696  0.5185
 3537TIP3   OH232245   2.398   4.527   3.350  0.0703 -0.0481 -0.3331
 3537TIP3    H132246   2.461   4.456   3.342  0.3201  0.1961 -0.5729
 3537TIP3    H232247   2.399   4.549   3.443  2.5621  1.9184 -0.7018
 3538TIP3   OH232248   3.918   6.219   1.160  0.8939  0.0843  0.2281
 3538TIP3    H132249   3.919   6.294   1.219  0.6411 -0.9145  1.5235
 3538TIP3    H232250   3.987   6.161   1.192  1.1736 -0.2092 -0.8334
 3539TIP3   OH232251   5.869   3.743   2.504 -0.6388 -0.5087  0.2592
 3539TIP3    H132252   5.920   3.821   2.527  0.0253 -1.3880  1.8800
 3539TIP3    H232253   5.866   3.691   2.584 -2.4970 -1.3879 -0.3237
 3540TIP3   OH232254   4.893   0.572   2.774 -0.0254 -0.0256  0.0562
 3540TIP3    H132255   4.856   0.560   2.861  3.1767  1.2249  1.7477
 3540TIP3    H232256   4.902   0.483   2.740  0.6880 -0.7341  1.9526
 3541TIP3   OH232257   4.508   0.018   1.044 -0.3268  0.2349 -0.2651
 3541TIP3    H132258   4.488   0.068   1.123  0.4714  1.3473 -0.7497
 3541TIP3    H232259   4.535   0.083   0.980 -1.2231 -0.6106 -1.5654
 3542TIP3   OH232260   6.565   3.097   1.642  0.2511  0.2979 -0.2693
 3542TIP3    H132261   6.539   3.150   1.567 -0.7685  1.2141  0.6972
 3542TIP3    H232262   6.633   3.039   1.608 -1.1535 -0.3046 -2.2689
 3543TIP3   OH232263   5.431   5.758   2.865  0.3903 -0.3278  0.5677
 3543TIP3    H132264   5.379   5.708   2.928  1.4714  0.8170  2.4568
 3543TIP3    H232265   5.520   5.756   2.900  0.7103  1.8022  0.0321
 3544TIP3   OH232266   6.582   1.906   1.161 -0.2792 -0.0409  0.7604
 3544TIP3    H132267   6.541   1.819   1.162 -0.5242  0.0775  1.2282
 3544TIP3    H232268   6.515   1.964   1.126 -0.0875 -0.0534  0.3729
 3545TIP3   OH232269   3.695   3.858   1.118  0.2043 -0.5687  0.0344
 3545TIP3    H132270   3.667   3.799   1.188  1.8403 -0.7175  0.6187
 3545TIP3    H232271   3.726   3.801   1.048  0.0022 -0.4114 -0.1855
 3546TIP3   OH232272   0.107   3.479   2.422 -0.3881  0.4957 -0.3568
 3546TIP3    H132273   0.140   3.503   2.335 -1.7366  0.5938 -0.8619
 3546TIP3    H232274   0.186   3.464   2.474  0.4425  0.5455 -1.5634
 3547TIP3   OH232275   4.469   1.348   8.255 -0.1969 -0.1945 -0.0103
 3547TIP3    H132276   4.492   1.345   8.347 -3.6134  0.5166  0.9885
 3547TIP3    H232277   4.406   1.277   8.242 -0.0540 -0.0670 -1.7339
 3548TIP3   OH232278   3.950   3.188   1.401 -0.1386 -0.2123 -0.0735
 3548TIP3    H132279   3.972   3.173   1.493  0.0034 -2.2164 -0.4033
 3548TIP3    H232280   4.033   3.216   1.361 -0.1711  0.5357  0.3629
 3549TIP3   OH232281   2.839   6.981   1.984 -0.4264  0.3088 -0.4515
 3549TIP3    H132282   2.868   7.069   1.959  0.3332 -0.3408 -1.9364
 3549TIP3    H232283   2.775   6.956   1.918 -1.5174  0.1693  0.6130
 3550TIP3   OH232284   6.196   0.285   3.016 -0.1497  0.3218 -0.2962
 3550TIP3    H132285   6.181   0.226   3.090  2.8669  0.6409  0.6963
 3550TIP3    H232286   6.284   0.263   2.985 -1.1212  0.5301 -3.5583
 3551TIP3   OH232287   6.278   3.696   1.152  0.5465 -0.0642 -0.3456
 3551TIP3    H132288   6.221   3.637   1.201  0.1718  1.9285  1.8441
 3551TIP3    H232289   6.367   3.665   1.172  0.3865  0.4958  1.4765
 3552TIP3   OH232290   2.301   3.030   1.137  0.4460  0.9336  0.1955
 3552TIP3    H132291   2.241   3.103   1.147  0.4505  0.9381  0.1903
 3552TIP3    H232292   2.251   2.953   1.165  0.7966  1.0828  1.2633
 3553TIP3   OH232293   1.843   0.217   1.356 -0.4465 -0.3544 -0.1613
 3553TIP3    H132294   1.925   0.242   1.313 -1.3393  2.2485 -0.5159
 3553TIP3    H232295   1.870   0.177   1.439  1.2042  1.6930  0.3718
 3554TIP3   OH232296   2.865   3.112   2.188  0.5908 -0.7661 -0.4234
 3554TIP3    H132297   2.821   3.034   2.221  0.1697 -1.3222 -2.2009
 3554TIP3    H232298   2.812   3.185   2.220  0.2552 -1.2555  0.1663
 3555TIP3   OH232299   2.030   2.827   0.958  0.2464  0.1190 -0.2121
 3555TIP3    H132300   2.101   2.783   1.004  1.2921  0.8613 -1.0522
 3555TIP3    H232301   1.996   2.891   1.020  0.8920  0.3364 -0.0675
 3556TIP3   OH232302   0.664   3.423   7.743 -0.1959  0.0104  0.0767
 3556TIP3    H132303   0.627   3.403   7.658  0.7255 -0.6797 -0.1705
 3556TIP3    H232304   0.671   3.519   7.745  2.5671 -0.0466 -1.8628
 3557TIP3   OH232305   0.721   2.247   3.104 -0.0091  0.6616  0.4771
 3557TIP3    H132306   0.647   2.308   3.101 -0.0477  0.5886 -0.0883
 3557TIP3    H232307   0.681   2.160   3.102  0.0742  0.6171  0.6662
 3558TIP3   OH232308   0.786   4.464   1.317 -0.4721  0.1775  0.4303
 3558TIP3    H132309   0.748   4.478   1.230 -0.1023 -0.7566  0.1046
 3558TIP3    H232310   0.781   4.369   1.330  1.2530  0.0827  0.6038
 3559TIP3   OH232311   4.437   3.461   3.451 -0.3055  0.2051 -0.0900
 3559TIP3    H132312   4.459   3.549   3.484  1.6551 -0.8004  1.5119
 3559TIP3    H232313   4.500   3.445   3.381 -0.0211 -0.2845  0.2717
 3560TIP3   OH232314   2.818   2.280   2.891 -0.1493  0.1204 -0.6014
 3560TIP3    H132315   2.804   2.193   2.854 -0.2725  0.7777 -2.2106
 3560TIP3    H232316   2.820   2.338   2.814 -0.8308  1.6383  0.4784
 3561TIP3   OH232317   6.960   3.441   2.562 -0.6627  0.2993  0.3005
 3561TIP3    H132318   7.048   3.477   2.550 -0.4629  0.5270  2.1480
 3561TIP3    H232319   6.903   3.501   2.514  0.1432  0.3023 -0.6945
 3562TIP3   OH232320   1.846   4.253   2.289 -0.0605 -0.2904  0.4980
 3562TIP3    H132321   1.826   4.208   2.207  0.6650  2.8968 -1.6171
 3562TIP3    H232322   1.939   4.236   2.304  0.3744  0.8988 -0.6500
 3563TIP3   OH232323   2.097   0.406   7.790  0.1088 -0.1305 -0.0009
 3563TIP3    H132324   2.007   0.375   7.780 -0.0743  1.0276 -2.8865
 3563TIP3    H232325   2.088   0.489   7.838 -0.2209 -0.5120  0.6131
 3564TIP3   OH232326   4.296   3.553   2.190 -0.2205 -0.0459  0.6442
 3564TIP3    H132327   4.296   3.571   2.096 -0.6998  0.6061  0.7616
 3564TIP3    H232328   4.236   3.480   2.201 -0.0092 -0.2548  0.4203
 3565TIP3   OH232329   5.830   4.056   2.319 -0.4494  0.2096 -0.1646
 3565TIP3    H132330   5.879   4.109   2.256 -1.7938  0.3932 -1.1007
 3565TIP3    H232331   5.892   4.039   2.390  0.2875  2.2620 -0.2636
 3566TIP3   OH232332   3.458   4.426   1.433  0.2349 -0.2931  0.3212
 3566TIP3    H132333   3.458   4.377   1.351  0.5259  0.4394 -0.1338
 3566TIP3    H232334   3.550   4.433   1.457  0.2386  0.4361  0.1210
 3567TIP3   OH232335   1.040   3.539   2.570  0.1317  0.0401 -0.0086
 3567TIP3    H132336   1.023   3.532   2.476 -0.2947 -0.1977  0.0848
 3567TIP3    H232337   1.095   3.617   2.579  2.0124 -1.1633 -0.6814
 3568TIP3   OH232338   6.934   3.871   1.087  0.6890  0.0085  0.4166
 3568TIP3    H132339   7.001   3.856   1.153  2.0329  1.8420 -0.4567
 3568TIP3    H232340   6.884   3.947   1.119  0.3961 -0.0164  0.0363
 3569TIP3   OH232341   5.806   6.150   0.669  0.0483  0.4515  0.5335
 3569TIP3    H132342   5.825   6.092   0.595  0.4581  0.8424  0.3313
 3569TIP3    H232343   5.733   6.107   0.715  1.2356 -0.9497  1.1878
 3570TIP3   OH232344   4.184   1.012   7.910 -0.1984  0.6504  0.2334
 3570TIP3    H132345   4.256   0.986   7.853 -1.3533  0.5132 -1.2282
 3570TIP3    H232346   4.182   1.108   7.905 -0.9874  0.5972 -0.9002
 3571TIP3   OH232347   1.310   6.093   7.333 -1.2734  0.0228 -0.4358
 3571TIP3    H132348   1.221   6.074   7.362 -1.1929 -1.1167 -0.8840
 3571TIP3    H232349   1.366   6.039   7.388 -0.9328 -0.0712 -0.8649
 3572TIP3   OH232350   6.039   0.109   0.370 -0.0643 -0.4905  0.2002
 3572TIP3    H132351   6.081   0.034   0.412  1.8620 -0.6266 -1.8031
 3572TIP3    H232352   6.092   0.184   0.397  0.3262 -0.3933 -0.8018
 3573TIP3   OH232353   3.434   5.089   2.689  0.1060 -0.5922  0.4229
 3573TIP3    H132354   3.484   5.149   2.633  0.3943  0.3302  1.6386
 3573TIP3    H232355   3.444   5.004   2.646 -0.0244  0.1377 -1.1535
 3574TIP3   OH232356   0.786   3.163   2.738 -0.4651 -0.1573  0.2037
 3574TIP3    H132357   0.726   3.205   2.676 -0.2272 -0.3091 -0.1335
 3574TIP3    H232358   0.868   3.211   2.730 -0.0890 -0.8862 -0.4334
 3575TIP3   OH232359   0.904   2.316   2.919  0.2970  0.0719 -0.0835
 3575TIP3    H132360   0.830   2.270   2.959 -0.8345  0.9317 -1.0951
 3575TIP3    H232361   0.905   2.285   2.828 -0.4112  1.8619 -0.7552
 3576TIP3   OH232362   1.175   4.733   2.198  0.5460  0.3320 -0.3155
 3576TIP3    H132363   1.212   4.648   2.173  1.8493  0.3676  1.3108
 3576TIP3    H232364   1.246   4.777   2.245 -0.3740  1.9987 -0.4063
 3577TIP3   OH232365   0.764   6.624   7.863  0.0159  0.0568  0.0966
 3577TIP3    H132366   0.694   6.563   7.887 -1.4467  1.4695 -0.4099
 3577TIP3    H232367   0.753   6.698   7.923  1.4025  0.1029  0.3273
 3578TIP3   OH232368   3.889   3.743   7.718  0.9701  0.0295 -0.5140
 3578TIP3    H132369   3.934   3.697   7.647  1.9488  0.4091 -0.1505
 3578TIP3    H232370   3.932   3.711   7.798 -0.1778 -0.4617 -0.0694
 3579TIP3   OH232371   0.498   4.287   1.232 -0.2369 -0.4263 -0.4024
 3579TIP3    H132372   0.554   4.353   1.191 -0.9052  0.4664  0.0934
 3579TIP3    H232373   0.557   4.214   1.251  0.8908  0.7296  0.6588
 3580TIP3   OH232374   1.482   5.651   7.912 -0.3602  0.4126 -0.2232
 3580TIP3    H132375   1.555   5.601   7.874  0.4765 -0.3343  2.1924
 3580TIP3    H232376   1.411   5.639   7.849  0.8534 -0.9262 -1.4455
 3581TIP3   OH232377   0.709   0.847   3.269 -0.5652  0.2798  0.5263
 3581TIP3    H132378   0.727   0.813   3.357 -0.8048 -1.5504 -0.0732
 3581TIP3    H232379   0.662   0.929   3.284 -0.6214 -0.0068  2.1115
 3582TIP3   OH232380   0.472   2.552   1.863  0.4816  0.6951  0.1305
 3582TIP3    H132381   0.505   2.571   1.951 -1.5096 -0.3253  1.1903
 3582TIP3    H232382   0.413   2.478   1.876 -0.7904  1.2734 -1.8771
 3583TIP3   OH232383   1.678   0.764   8.135  0.5377  0.0738  0.2838
 3583TIP3    H132384   1.707   0.711   8.061  0.8436  1.3091 -0.5120
 3583TIP3    H232385   1.664   0.851   8.098 -0.9907  0.3137  1.3261
 3584TIP3   OH232386   1.291   0.930   2.760  0.5694 -0.1459 -0.1243
 3584TIP3    H132387   1.241   0.942   2.680  1.0012 -2.8119 -0.8883
 3584TIP3    H232388   1.370   0.983   2.748  0.2318  0.1457 -1.0786
 3585TIP3   OH232389   5.408   0.705   0.336 -0.2489 -0.5815 -0.0205
 3585TIP3    H132390   5.447   0.658   0.262  0.0603  0.5716 -0.6125
 3585TIP3    H232391   5.358   0.776   0.296  0.7061  0.6537  0.8929
 3586TIP3   OH232392   4.487   1.887   0.159 -0.5946 -0.3916 -0.3793
 3586TIP3    H132393   4.482   1.843   0.073 -0.9598 -0.9174 -0.0975
 3586TIP3    H232394   4.507   1.816   0.220  1.9676  0.3038 -0.2937
 3587TIP3   OH232395   3.611   5.651   7.373  0.2544  0.0038  0.1664
 3587TIP3    H132396   3.667   5.727   7.359 -0.2089  0.4397  0.5997
 3587TIP3    H232397   3.550   5.652   7.299  0.9617 -0.6214 -0.4457
 3588TIP3   OH232398   4.487   1.713   0.661  0.3443 -0.0719 -0.0706
 3588TIP3    H132399   4.519   1.634   0.705 -0.4874 -0.6478 -0.4695
 3588TIP3    H232400   4.489   1.781   0.728  0.1797 -0.6626  0.5408
 3589TIP3   OH232401   3.743   1.224   0.883  0.5890  0.9376 -0.2169
 3589TIP3    H132402   3.797   1.208   0.806  1.5904  0.1644  0.6232
 3589TIP3    H232403   3.774   1.161   0.949 -0.8293  0.9825  0.5427
 3590TIP3   OH232404   5.000   3.286   0.643  0.1981 -0.2145  0.1981
 3590TIP3    H132405   5.048   3.286   0.560  0.2449 -2.8434  0.1365
 3590TIP3    H232406   4.950   3.205   0.641 -0.3471  0.0069  2.4534
 3591TIP3   OH232407   2.502   5.907   7.690  0.2740  0.0372 -0.0475
 3591TIP3    H132408   2.548   5.836   7.736  1.0179  0.3232 -0.3319
 3591TIP3    H232409   2.464   5.864   7.613  1.7281  0.1335 -0.8665
 3592TIP3   OH232410   5.462   1.285   1.860 -0.1521  0.1252 -0.2837
 3592TIP3    H132411   5.513   1.215   1.818  1.2036  0.3203  0.9659
 3592TIP3    H232412   5.378   1.285   1.813 -0.4229 -2.7223  0.0327
 3593TIP3   OH232413   6.190   6.612   0.067 -0.3784  0.3884 -0.1265
 3593TIP3    H132414   6.115   6.568   0.109  0.3996 -0.9064 -0.0299
 3593TIP3    H232415   6.171   6.606  -0.027 -0.7104  0.6607 -0.0787
 3594TIP3   OH232416   1.126   1.829   1.038  0.1423 -0.2212  0.9793
 3594TIP3    H132417   1.187   1.818   0.966 -0.0437  0.3827  0.7263
 3594TIP3    H232418   1.042   1.798   1.003  0.0460  0.0990  0.9217
 3595TIP3   OH232419   0.961   6.067   0.105  0.6826 -0.1248  0.2657
 3595TIP3    H132420   1.009   6.145   0.076  0.6208  0.8779  2.6268
 3595TIP3    H232421   0.927   6.029   0.024 -1.1687  3.5199 -0.9444
 3596TIP3   OH232422   3.469   4.184   0.851  0.2431  0.1752  0.2829
 3596TIP3    H132423   3.471   4.174   0.756 -0.6391 -0.5689  0.3249
 3596TIP3    H232424   3.459   4.278   0.866  1.8776  0.4792 -0.3120
 3597TIP3   OH232425   5.649   1.569   8.082  0.3770  0.4506  0.2273
 3597TIP3    H132426   5.689   1.487   8.054 -0.5471 -0.8326  2.4268
 3597TIP3    H232427   5.608   1.605   8.003  1.4021 -0.8169 -0.9167
 3598TIP3   OH232428   4.726   2.569   7.291  0.8766 -0.3077 -0.1007
 3598TIP3    H132429   4.675   2.505   7.340  1.1282  1.1505  2.2466
 3598TIP3    H232430   4.665   2.604   7.226  0.1445 -1.4644 -0.0465
 3599TIP3   OH232431   3.291   6.048   0.093 -0.3018  0.0219 -0.1283
 3599TIP3    H132432   3.270   6.100   0.015 -0.6496  1.1857  0.7125
 3599TIP3    H232433   3.370   5.999   0.069 -1.1436 -0.6626 -1.6541
 3600TIP3   OH232434   1.154   3.141   2.957  0.3860  0.0459  0.0714
 3600TIP3    H132435   1.097   3.216   2.975  0.0753 -0.1524 -0.0767
 3600TIP3    H232436   1.136   3.080   3.028  0.9273  0.2694  0.4121
 3601TIP3   OH232437   0.835   1.536   2.023 -0.0672  0.0967  0.5703
 3601TIP3    H132438   0.838   1.632   2.027  0.6260  0.1774 -1.1109
 3601TIP3    H232439   0.911   1.512   1.971 -0.7432 -1.3094  0.1904
 3602TIP3   OH232440   4.502   3.625   2.412  0.5107  0.3022 -0.2825
 3602TIP3    H132441   4.477   3.589   2.497  0.5066  0.6267 -0.1452
 3602TIP3    H232442   4.440   3.585   2.351  0.9575 -0.4697 -0.2357
 3603TIP3   OH232443   5.284   1.973   3.516 -0.2414  0.0091 -0.1518
 3603TIP3    H132444   5.365   2.023   3.505 -0.7646  0.7513 -0.7078
 3603TIP3    H232445   5.313   1.886   3.544  0.8047 -0.0598 -1.3856
 3604TIP3   OH232446   5.744   5.551   2.138  0.1933 -0.6537  0.1836
 3604TIP3    H132447   5.671   5.489   2.135 -0.4812  0.1233  0.0434
 3604TIP3    H232448   5.735   5.603   2.058 -0.5238  0.9856  1.2681
 3605TIP3   OH232449   6.264   6.040   0.201 -0.0325  0.3837  0.6393
 3605TIP3    H132450   6.316   5.974   0.246 -2.0237 -0.7249  1.4647
 3605TIP3    H232451   6.294   6.037   0.110  0.4177 -1.1695  0.8094
 3606TIP3   OH232452   0.873   6.166   0.574 -0.2195 -0.1082 -0.2963
 3606TIP3    H132453   0.926   6.089   0.596 -3.2307 -2.1506  0.3513
 3606TIP3    H232454   0.882   6.224   0.649 -0.1477 -1.1437  0.5145
 3607TIP3   OH232455   3.494   1.713   8.012  0.0510 -0.5714 -0.2120
 3607TIP3    H132456   3.508   1.744   7.923  0.0167 -0.0608 -0.0441
 3607TIP3    H232457   3.405   1.741   8.034  0.4685  0.3218  0.3859
 3608TIP3   OH232458   1.299   5.077   1.970  0.5209 -0.4413  0.2260
 3608TIP3    H132459   1.223   5.072   1.913  1.6327 -3.0016 -1.1665
 3608TIP3    H232460   1.263   5.100   2.056 -1.9593 -2.3541 -0.1876
 3609TIP3   OH232461   0.033   4.414   1.216  0.0744 -0.1724  0.2293
 3609TIP3    H132462   0.124   4.389   1.199  0.6156  1.1984  0.9507
 3609TIP3    H232463  -0.014   4.331   1.222  0.9852 -0.8714 -1.6120
 3610TIP3   OH232464   0.178   3.192   2.312 -0.1726 -0.2371 -0.3217
 3610TIP3    H132465   0.239   3.264   2.294 -1.4387  0.9725  0.1210
 3610TIP3    H232466   0.144   3.210   2.399 -2.8360  0.3863 -1.4036
 3611TIP3   OH232467   1.033   1.890   7.367 -0.2275 -0.3659  0.2836
 3611TIP3    H132468   0.941   1.895   7.392 -0.3510 -0.1518 -0.2127
 3611TIP3    H232469   1.033   1.900   7.272  0.4946  1.9545  0.4647
 3612TIP3   OH232470   0.223   3.385   1.867 -0.1873 -0.0270 -0.2442
 3612TIP3    H132471   0.227   3.467   1.917 -0.9350 -1.4416  2.3280
 3612TIP3    H232472   0.293   3.331   1.904  0.0204 -0.7299 -1.6007
 3613TIP3   OH232473   4.475   5.712   0.125 -0.3259  0.1700  0.0739
 3613TIP3    H132474   4.427   5.794   0.139 -1.1414 -0.1037 -1.0145
 3613TIP3    H232475   4.516   5.723   0.039 -0.7529 -0.6974 -0.2548
 3614TIP3   OH232476   3.618   1.740   2.761 -0.2495  0.3770  0.4870
 3614TIP3    H132477   3.651   1.815   2.712  0.1297 -0.1918 -0.1525
 3614TIP3    H232478   3.624   1.766   2.853  3.9498 -0.3442  0.6317
 3615TIP3   OH232479   4.603   6.160   1.416 -0.0447 -0.1314  0.2423
 3615TIP3    H132480   4.515   6.130   1.392  0.5723 -1.0546 -0.9311
 3615TIP3    H232481   4.589   6.214   1.494 -1.6919  0.0419 -0.1454
 3616TIP3   OH232482   2.206   5.261   0.588  0.7146  0.5074  0.2683
 3616TIP3    H132483   2.231   5.205   0.515 -0.3705 -1.9453  1.6332
 3616TIP3    H232484   2.145   5.325   0.550  0.8222 -0.1715 -1.1034
 3617TIP3   OH232485   3.706   4.115   1.007 -0.1814  0.2606  0.3511
 3617TIP3    H132486   3.680   4.032   1.045 -1.8940  0.7007  0.2073
 3617TIP3    H232487   3.625   4.153   0.973  1.0252  0.4658 -2.6383
 3618TIP3   OH232488   4.011   0.110   2.873  0.5596  0.0304 -0.2908
 3618TIP3    H132489   4.017   0.034   2.931 -0.9589  0.6681  0.7428
 3618TIP3    H232490   4.101   0.142   2.868  1.6744 -2.9652 -2.4158
 3619TIP3   OH232491   0.932   2.591   0.279  0.3464 -0.0990  0.1548
 3619TIP3    H132492   0.963   2.562   0.364 -1.5566  1.1195  1.3522
 3619TIP3    H232493   0.877   2.519   0.247  0.1649 -0.1080  0.4849
 3620TIP3   OH232494   1.045   1.461   1.393 -0.5061 -0.3742  0.1709
 3620TIP3    H132495   1.066   1.374   1.360  0.0204 -0.3790  0.5037
 3620TIP3    H232496   1.041   1.450   1.488 -2.3209 -0.4269  0.1091
 3621TIP3   OH232497   5.611   0.359   2.038  0.0010 -0.5292 -0.1248
 3621TIP3    H132498   5.688   0.315   2.073 -0.1297 -1.4942 -1.0268
 3621TIP3    H232499   5.601   0.325   1.950 -1.3708 -0.3024 -0.0814
 3622TIP3   OH232500   0.640   2.197   0.002 -0.0217  0.6585  0.1476
 3622TIP3    H132501   0.696   2.267  -0.031 -0.5221  0.6000 -0.8704
 3622TIP3    H232502   0.555   2.239   0.016  0.4409  0.9324  2.4471
 3623TIP3   OH232503   3.068   5.147   7.406 -0.1201 -0.3706  0.2861
 3623TIP3    H132504   3.044   5.239   7.412  1.9493  0.2412 -0.1397
 3623TIP3    H232505   2.996   5.100   7.448 -1.6414  1.3509 -0.2895
 3624TIP3   OH232506   6.617   4.256   2.384 -0.4714 -0.0865  0.2300
 3624TIP3    H132507   6.703   4.216   2.374  0.2413  1.4034  0.1340
 3624TIP3    H232508   6.621   4.305   2.466 -2.2500 -2.3433  1.8054
 3625TIP3   OH232509   5.415   6.769   2.966  0.1501  0.5303  0.7250
 3625TIP3    H132510   5.474   6.835   3.002  0.5130 -0.3119  1.7475
 3625TIP3    H232511   5.416   6.698   3.031 -0.4173 -0.3737 -0.2115
 3626TIP3   OH232512   0.487   3.170   0.434  0.0755 -0.0357  0.4463
 3626TIP3    H132513   0.491   3.239   0.501 -0.3154 -0.1747  0.6121
 3626TIP3    H232514   0.399   3.133   0.443 -0.2959  0.5348 -0.7307
 3627TIP3   OH232515   4.101   3.141   1.651 -0.9691 -0.1866 -0.1495
 3627TIP3    H132516   4.112   3.066   1.710 -2.2580 -0.4911 -0.2486
 3627TIP3    H232517   4.149   3.212   1.693 -0.9328 -0.6950  0.7004
 3628TIP3   OH232518   3.444   4.036   7.556  0.0620 -0.1033  0.1324
 3628TIP3    H132519   3.399   4.089   7.491 -1.1444 -3.9643 -2.5757
 3628TIP3    H232520   3.374   3.985   7.598  1.3217 -1.6355  0.4865
 3629TIP3   OH232521   1.457   7.045   1.157 -0.2529 -0.7531 -0.0632
 3629TIP3    H132522   1.551   7.031   1.149 -0.0132  0.3348  0.5280
 3629TIP3    H232523   1.425   7.047   1.066  0.1487 -1.9157 -0.2444
 3630TIP3   OH232524   1.659   3.283   1.887 -0.1339  0.4481  0.2211
 3630TIP3    H132525   1.687   3.349   1.950  0.5662  0.2074  0.1686
 3630TIP3    H232526   1.642   3.205   1.940  0.0170  0.3776  0.1654
 3631TIP3   OH232527   6.032   1.212   1.830  0.3252  0.0675 -0.4211
 3631TIP3    H132528   6.079   1.136   1.865  0.1184 -0.1073 -0.5220
 3631TIP3    H232529   6.004   1.184   1.742 -2.1813 -0.7875  0.5479
 3632TIP3   OH232530   1.470   3.885   7.035 -0.0129  0.7573 -0.3996
 3632TIP3    H132531   1.452   3.953   6.971 -0.4055  0.6362 -0.4185
 3632TIP3    H232532   1.408   3.901   7.106  1.2908  1.7063  0.5885
 3633TIP3   OH232533   3.602   5.164   8.256 -0.0606 -0.3268 -1.0002
 3633TIP3    H132534   3.548   5.189   8.182 -1.1547  0.5356  0.0548
 3633TIP3    H232535   3.692   5.181   8.227 -0.5529  1.3455 -1.6253
 3634TIP3   OH232536   5.246   0.954   1.348  0.1364  0.8268 -0.2119
 3634TIP3    H132537   5.206   1.031   1.389  0.2138  1.3147 -1.0390
 3634TIP3    H232538   5.283   0.986   1.266 -1.6431 -0.4744 -1.5989
 3635TIP3   OH232539   5.012   2.522   7.711 -0.3658  0.8155  0.0323
 3635TIP3    H132540   4.961   2.582   7.764  0.7399  0.4918  1.5314
 3635TIP3    H232541   4.994   2.435   7.748 -0.2530  0.4702 -0.6974
 3636TIP3   OH232542   0.768   6.398   0.009  0.2160 -0.1777 -0.1201
 3636TIP3    H132543   0.751   6.361   0.096 -3.1146 -0.2235 -0.6489
 3636TIP3    H232544   0.729   6.485   0.013  1.6334  0.5282 -1.0649
 3637TIP3   OH232545   3.634   2.185   3.355  0.2591  0.3299 -0.8175
 3637TIP3    H132546   3.681   2.219   3.278  1.3131  0.8199  0.0156
 3637TIP3    H232547   3.622   2.092   3.337  2.0344  0.0716 -0.8479
 3638TIP3   OH232548   1.934   3.697   2.524  0.3769  0.6563  0.0102
 3638TIP3    H132549   1.894   3.662   2.444 -0.2531  1.8111 -0.1901
 3638TIP3    H232550   1.990   3.768   2.495 -0.2316  1.4059  0.6379
 3639TIP3   OH232551   5.941   1.064   0.465 -0.4900  0.3456  0.4583
 3639TIP3    H132552   5.974   1.051   0.376  0.3666 -0.4512  0.8709
 3639TIP3    H232553   5.907   1.153   0.466  0.7168  0.8348 -0.2991
 3640TIP3   OH232554   5.550   1.482   2.787 -0.5844 -0.7710  0.4564
 3640TIP3    H132555   5.479   1.418   2.784 -0.1249 -1.3094  0.9812
 3640TIP3    H232556   5.567   1.495   2.880  1.5915 -2.4357  0.3532
 3641TIP3   OH232557   5.504   0.241   0.442 -0.0414 -0.4374  0.1875
 3641TIP3    H132558   5.596   0.213   0.434  0.6919  1.3535  1.6144
 3641TIP3    H232559   5.493   0.260   0.535 -1.8917 -0.6334  0.0408
 3642TIP3   OH232560   0.944   1.322   8.186  0.1398 -0.1772  0.7167
 3642TIP3    H132561   0.850   1.341   8.176 -0.2415 -0.9623  2.3029
 3642TIP3    H232562   0.988   1.403   8.160 -0.9704  0.1883 -0.1054
 3643TIP3   OH232563   2.848   3.976   0.009 -0.0003  0.2099 -0.1827
 3643TIP3    H132564   2.942   3.977  -0.006 -0.0781 -0.2146 -0.7326
 3643TIP3    H232565   2.812   4.034  -0.058 -0.3090 -1.3171 -1.3999
 3644TIP3   OH232566   2.311   1.209   2.119 -0.5742  0.4899 -0.6683
 3644TIP3    H132567   2.347   1.278   2.175 -1.8928  1.1568 -0.6087
 3644TIP3    H232568   2.314   1.131   2.174 -0.4948  0.8320 -0.1750
 3645TIP3   OH232569   6.695   6.047   1.626 -0.6034  0.9793  0.5756
 3645TIP3    H132570   6.621   6.021   1.571 -1.0366 -0.7238  1.8865
 3645TIP3    H232571   6.737   5.965   1.651  0.5731  1.8093  1.4472
 3646TIP3   OH232572   0.891   5.310   7.708  0.2224 -0.0012 -0.1473
 3646TIP3    H132573   0.945   5.383   7.680  2.2225 -0.2147  2.7507
 3646TIP3    H232574   0.853   5.338   7.791 -1.8417 -0.9715 -0.7014
 3647TIP3   OH232575   4.988   1.093   3.529 -0.8021  0.1385 -0.3061
 3647TIP3    H132576   4.941   1.118   3.608  1.0003  0.5018  0.6866
 3647TIP3    H232577   5.038   1.015   3.553  0.7038  0.9401 -0.6801
 3648TIP3   OH232578   5.466   2.630   2.357  0.0252  0.7125  0.3754
 3648TIP3    H132579   5.381   2.610   2.318  0.3033 -0.8653  0.4968
 3648TIP3    H232580   5.477   2.565   2.426  1.6050  0.4278 -0.0841
 3649TIP3   OH232581   4.332   5.429   3.594  0.1089 -0.3221 -0.0201
 3649TIP3    H132582   4.420   5.395   3.578 -0.6225 -1.6902 -1.3197
 3649TIP3    H232583   4.276   5.352   3.601 -0.9062  0.5011  1.4994
 3650TIP3   OH232584   6.112   5.729   0.642 -0.9695 -0.3449 -0.4258
 3650TIP3    H132585   6.054   5.756   0.713 -1.8183  0.9371 -1.5721
 3650TIP3    H232586   6.198   5.763   0.667 -0.9161 -1.2843  0.7350
 3651TIP3   OH232587   1.332   4.257   1.048  0.2929  0.1275  0.0436
 3651TIP3    H132588   1.336   4.173   1.093 -1.5914  0.7130  1.4148
 3651TIP3    H232589   1.362   4.320   1.113 -2.3763  0.9705  0.5665
 3652TIP3   OH232590   1.173   6.805   3.853 -0.1442  1.2297  0.4077
 3652TIP3    H132591   1.249   6.857   3.825 -0.3064  0.4756 -1.5533
 3652TIP3    H232592   1.206   6.715   3.856 -0.1650  1.2323  2.7033
 3653TIP3   OH232593   2.606   5.516   2.649 -0.1375  0.0145  0.4630
 3653TIP3    H132594   2.520   5.496   2.687  0.1589 -1.4392  0.4575
 3653TIP3    H232595   2.646   5.575   2.712 -1.7635  2.1341 -0.3750
 3654TIP3   OH232596   0.941   4.304   7.760 -0.0770  0.0619  0.3233
 3654TIP3    H132597   0.930   4.387   7.715  0.8081 -0.1378 -0.2962
 3654TIP3    H232598   0.896   4.315   7.843 -0.1796  1.0685  0.1441
 3655TIP3   OH232599   5.255   4.139   2.729 -0.7340 -0.4157 -0.1848
 3655TIP3    H132600   5.220   4.174   2.811  1.2838 -1.0862  1.0166
 3655TIP3    H232601   5.275   4.216   2.676 -2.5720  0.0119 -0.3489
 3656TIP3   OH232602   6.334   2.006   2.487 -0.1874 -0.2570  0.1802
 3656TIP3    H132603   6.379   2.050   2.560  0.8137  0.4385 -0.8169
 3656TIP3    H232604   6.403   1.987   2.424 -1.2442  0.6415 -1.3192
 3657TIP3   OH232605   5.263   1.010   1.742 -0.0358  0.6699  0.6477
 3657TIP3    H132606   5.286   1.063   1.666 -0.6237 -1.4056 -1.0846
 3657TIP3    H232607   5.344   1.006   1.794  0.6681  1.3690 -0.3580
 3658TIP3   OH232608   5.780   5.715   0.700  0.1980  0.6579 -0.0246
 3658TIP3    H132609   5.841   5.755   0.762 -1.5255  1.2707  1.3676
 3658TIP3    H232610   5.698   5.762   0.714 -0.2984  0.7861 -2.7725
 3659TIP3   OH232611   4.896   1.942   1.763 -0.1954 -0.1854  0.1528
 3659TIP3    H132612   4.959   1.870   1.754 -1.1558 -1.1641  1.0142
 3659TIP3    H232613   4.948   2.021   1.746  1.1567 -0.9895  0.3806
 3660TIP3   OH232614   6.517   2.590   0.657 -0.1792 -0.1538 -0.1655
 3660TIP3    H132615   6.495   2.678   0.688  0.3766  0.1485 -0.5931
 3660TIP3    H232616   6.547   2.544   0.735 -0.4676  0.0428  0.0620
 3661TIP3   OH232617   1.528   1.738   8.034 -0.6743 -0.4788  0.0034
 3661TIP3    H132618   1.525   1.644   8.052 -0.5865 -0.5896 -0.5323
 3661TIP3    H232619   1.440   1.769   8.052 -1.1723 -0.9714 -1.3886
 3662TIP3   OH232620   0.042   3.299   1.250  0.1335 -0.9309  0.0053
 3662TIP3    H132621  -0.004   3.359   1.192 -0.6116 -2.2799 -0.8771
 3662TIP3    H232622   0.117   3.349   1.282  0.8454 -0.2242 -2.4641
 3663TIP3   OH232623   6.583   1.057   3.844 -0.3828 -0.1653  0.4487
 3663TIP3    H132624   6.564   0.974   3.888 -0.4644 -0.6285 -0.4466
 3663TIP3    H232625   6.542   1.049   3.758  0.7605  0.2665 -0.1565
 3664TIP3   OH232626   6.312   6.375   2.590 -0.1676 -0.4472  0.3282
 3664TIP3    H132627   6.368   6.299   2.575  0.4284  0.1534 -0.7118
 3664TIP3    H232628   6.326   6.398   2.682  1.0387 -0.5367  0.1850
 3665TIP3   OH232629   3.694   3.555   7.562 -0.1656 -0.1050 -0.0844
 3665TIP3    H132630   3.707   3.631   7.619 -0.5637  0.6801 -1.0151
 3665TIP3    H232631   3.661   3.592   7.480 -2.2632 -1.4452  0.0778
 3666TIP3   OH232632   6.352   4.982   8.269 -0.1687  0.0873 -0.5567
 3666TIP3    H132633   6.264   5.016   8.286  0.8648  3.0237 -0.4722
 3666TIP3    H232634   6.359   4.983   8.174  0.1969  1.2218 -0.5378
 3667TIP3   OH232635   2.636   1.014   0.689  0.2158 -0.3992 -0.0689
 3667TIP3    H132636   2.689   0.972   0.622  1.1662  0.3945  0.1579
 3667TIP3    H232637   2.651   1.108   0.676 -2.3167 -0.0318 -0.9513
 3668TIP3   OH232638   6.353   6.709   0.292  0.0377 -0.1502  0.2245
 3668TIP3    H132639   6.298   6.639   0.259 -2.6965  2.1303 -0.4115
 3668TIP3    H232640   6.437   6.696   0.247 -0.8093 -2.1794 -0.9122
 3669TIP3   OH232641   2.440   3.948   0.221 -0.0691  0.2310 -0.0995
 3669TIP3    H132642   2.354   3.988   0.208  0.4343  1.4100  0.0815
 3669TIP3    H232643   2.426   3.881   0.288 -0.9735 -0.0658 -0.5698
 3670TIP3   OH232644   2.571   5.965   3.408  0.2887  0.0752 -0.2951
 3670TIP3    H132645   2.649   5.950   3.461  0.7372  0.0015 -0.9636
 3670TIP3    H232646   2.498   5.950   3.468  0.7835  1.2133  0.6324
 3671TIP3   OH232647   2.577   1.570   3.004 -0.4292  0.3497  0.1109
 3671TIP3    H132648   2.581   1.474   2.996  0.0158  0.2936  0.8967
 3671TIP3    H232649   2.522   1.585   3.081  0.5295  0.6952  0.7383
 3672TIP3   OH232650   4.666   1.715   8.090  0.5521  0.1352  0.6120
 3672TIP3    H132651   4.692   1.793   8.139  0.2358  1.3952 -1.0843
 3672TIP3    H232652   4.710   1.724   8.005  0.2599 -1.3810  0.2663
 3673TIP3   OH232653   2.683   0.136   8.262 -0.2961  0.0335  0.2352
 3673TIP3    H132654   2.691   0.044   8.237  1.3174  0.4859 -1.1054
 3673TIP3    H232655   2.770   0.160   8.292 -1.0083  0.8308  1.7825
 3674TIP3   OH232656   6.295   1.490   0.967  0.3423  0.3539 -0.0890
 3674TIP3    H132657   6.208   1.450   0.972  0.1119  0.8393 -0.1897
 3674TIP3    H232658   6.281   1.572   0.920  1.0916 -0.2313 -1.3839
 3675TIP3   OH232659   0.154   4.262   2.371 -0.2722  0.3506 -0.1194
 3675TIP3    H132660   0.190   4.188   2.419 -2.5030 -0.8362 -0.1315
 3675TIP3    H232661   0.175   4.338   2.425 -1.0477 -0.7265  1.7859
 3676TIP3   OH232662   1.180   2.128   2.379 -0.2061  0.2749  0.5437
 3676TIP3    H132663   1.205   2.077   2.456  0.0193  1.4432  1.2808
 3676TIP3    H232664   1.086   2.144   2.391 -0.0040  1.1601  1.0254
 3677TIP3   OH232665   1.421   3.612   0.927 -0.3489  0.3674  0.8067
 3677TIP3    H132666   1.503   3.581   0.966  0.3195  1.1309  0.0618
 3677TIP3    H232667   1.447   3.643   0.840 -1.6016 -0.2560  0.1938
 3678TIP3   OH232668   0.884   6.575   2.976  0.0573 -0.6314 -0.5477
 3678TIP3    H132669   0.934   6.567   3.057  2.4020  0.3842 -1.7761
 3678TIP3    H232670   0.929   6.516   2.915 -1.2091 -0.8454 -1.2995
 3679TIP3   OH232671   0.391   4.898   7.599 -0.1840  0.3420 -0.4958
 3679TIP3    H132672   0.352   4.985   7.611 -0.0942  0.5418 -1.5710
 3679TIP3    H232673   0.485   4.914   7.602 -0.1568  0.0623  0.7047
 3680TIP3   OH232674   1.358   5.627   1.744  0.3837  0.1710  0.0393
 3680TIP3    H132675   1.418   5.697   1.720 -0.3445  0.6664 -0.3845
 3680TIP3    H232676   1.413   5.562   1.788  1.1205  0.8722  0.1796
 3681TIP3   OH232677   1.128   1.283   1.594 -0.0550  0.3355  0.3696
 3681TIP3    H132678   1.111   1.238   1.512  1.4996 -1.7645  1.0971
 3681TIP3    H232679   1.042   1.311   1.625 -0.7974  0.1040 -1.3639
 3682TIP3   OH232680   6.196   0.097   3.916 -0.1362  0.1828 -0.3641
 3682TIP3    H132681   6.230   0.138   3.837  0.0560 -0.0333 -0.3955
 3682TIP3    H232682   6.172   0.008   3.888 -0.9472  0.4021 -0.3995
 3683TIP3   OH232683   3.948   2.325   0.193 -0.4405 -0.1979  0.5726
 3683TIP3    H132684   4.000   2.395   0.153 -1.8276  1.5114  1.6094
 3683TIP3    H232685   3.899   2.287   0.120  1.0399 -0.7639 -0.1568
 3684TIP3   OH232686   6.674   4.490   3.197  0.7332 -0.7794  0.3733
 3684TIP3    H132687   6.669   4.461   3.288 -2.0654 -1.2649  0.1479
 3684TIP3    H232688   6.623   4.571   3.195 -1.1907 -1.9378 -1.0994
 3685TIP3   OH232689   3.699   5.458   2.847 -0.2978  0.1879  0.5925
 3685TIP3    H132690   3.699   5.368   2.882 -0.7819 -0.6994 -1.5227
 3685TIP3    H232691   3.650   5.508   2.912  3.4042 -0.0790  3.9392
 3686TIP3   OH232692   2.669   3.324   7.623  0.1712  0.4284 -0.1738
 3686TIP3    H132693   2.721   3.245   7.607  0.5115  0.6658 -0.2556
 3686TIP3    H232694   2.579   3.297   7.606  0.5116  0.7213 -2.8567
 3687TIP3   OH232695   6.380   2.331   2.798 -0.1066  0.1764  0.1239
 3687TIP3    H132696   6.352   2.353   2.887 -0.9310  0.3279 -0.1634
 3687TIP3    H232697   6.302   2.294   2.756 -0.1293  1.3483 -0.9478
 3688TIP3   OH232698   6.801   1.372   2.330  0.2854  0.0769 -0.2202
 3688TIP3    H132699   6.837   1.292   2.292 -1.3253  0.4911 -2.9269
 3688TIP3    H232700   6.876   1.429   2.343  1.4040 -1.6504  1.3153
 3689TIP3   OH232701   4.702   2.118   1.493 -0.1196 -0.2016 -0.2359
 3689TIP3    H132702   4.793   2.146   1.501 -0.4580  0.5884  1.2019
 3689TIP3    H232703   4.708   2.024   1.476  0.9715 -0.2807  0.4369
 3690TIP3   OH232704   0.577   1.721   1.730  0.3042  0.2626  0.3513
 3690TIP3    H132705   0.551   1.812   1.720  0.1990  0.2589  0.5908
 3690TIP3    H232706   0.609   1.696   1.643 -0.2657  0.3420  0.1116
 3691TIP3   OH232707   2.093   1.854   0.576 -0.0527  0.2847  0.4133
 3691TIP3    H132708   2.097   1.938   0.532  1.1158 -0.2830 -0.6354
 3691TIP3    H232709   2.104   1.790   0.506 -2.7610 -0.8493  0.8919
 3692TIP3   OH232710   0.505   5.588   2.294 -0.0109  0.2111  0.5920
 3692TIP3    H132711   0.428   5.585   2.236 -0.4043  3.7156  0.7001
 3692TIP3    H232712   0.570   5.637   2.244  1.3172 -0.6114  1.4540
 3693TIP3   OH232713   0.627   1.189   1.782 -0.5190  0.3848 -0.4533
 3693TIP3    H132714   0.684   1.131   1.833 -0.2508  0.4844 -0.6368
 3693TIP3    H232715   0.623   1.270   1.832 -0.1702  0.5200 -0.6380
 3694TIP3   OH232716   6.353   5.401   8.126 -0.1652 -0.4923 -0.0442
 3694TIP3    H132717   6.318   5.319   8.090 -1.1832 -0.1603  0.1551
 3694TIP3    H232718   6.443   5.379   8.151  0.1098 -1.1093 -1.4603
 3695TIP3   OH232719   3.976   1.239   2.039 -0.2561 -0.5599 -0.1086
 3695TIP3    H132720   3.984   1.314   1.980  3.1839 -1.8585 -1.5485
 3695TIP3    H232721   4.039   1.257   2.109 -0.2624 -1.5466  0.1676
 3696TIP3   OH232722   4.039   6.706   3.235  0.1218 -0.3470 -0.1609
 3696TIP3    H132723   4.039   6.800   3.249 -1.7548 -0.5714  1.9161
 3696TIP3    H232724   4.094   6.671   3.305  0.0687 -0.8381 -0.3604
 3697TIP3   OH232725   4.414   4.651   2.809  0.6222 -0.0031 -0.1683
 3697TIP3    H132726   4.462   4.574   2.777 -0.5443 -0.1067 -1.8170
 3697TIP3    H232727   4.445   4.722   2.753  0.7032  0.4553  0.4553
 3698TIP3   OH232728   4.657   1.626   2.680 -0.4779 -0.2179  0.3446
 3698TIP3    H132729   4.731   1.574   2.648 -1.4431 -1.2581 -0.2843
 3698TIP3    H232730   4.645   1.599   2.771 -1.2674 -1.5115 -0.1087
 3699TIP3   OH232731   2.341   5.927   3.593 -0.0720  0.0836 -0.7539
 3699TIP3    H132732   2.265   5.983   3.607 -0.2754 -0.4617  0.4401
 3699TIP3    H232733   2.373   5.907   3.681 -0.4953 -2.3587 -1.0803
 3700TIP3   OH232734   6.243   5.496   0.077  0.1055  0.1649 -0.1502
 3700TIP3    H132735   6.293   5.474  -0.002 -0.0768  0.1719 -0.2676
 3700TIP3    H232736   6.303   5.475   0.149  0.1137 -0.2628 -0.2764
 3701TIP3   OH232737   2.340   3.756   1.947 -0.6160 -0.1031 -0.5160
 3701TIP3    H132738   2.417   3.798   1.909  0.3869 -1.4833 -0.0989
 3701TIP3    H232739   2.344   3.778   2.040 -2.1296  1.8613 -0.8604
 3702TIP3   OH232740   3.606   2.506   0.939 -0.0066  0.1282  0.5552
 3702TIP3    H132741   3.521   2.478   0.905 -0.1142  2.4285 -1.3159
 3702TIP3    H232742   3.629   2.439   1.003 -2.6690 -1.1922  0.2793
 3703TIP3   OH232743   3.008   3.030   0.402  0.3203 -0.2109  0.6284
 3703TIP3    H132744   2.963   2.946   0.395  1.8745 -0.9399 -2.2116
 3703TIP3    H232745   2.938   3.095   0.393 -0.5492 -1.2639 -0.6802
 3704TIP3   OH232746   5.597   0.066   2.348  0.3080  0.2726 -0.6079
 3704TIP3    H132747   5.533   0.015   2.299  0.8624 -0.7747 -0.3020
 3704TIP3    H232748   5.678   0.058   2.297  0.2477  1.4140 -0.8936
 3705TIP3   OH232749   6.452   4.004   2.934  0.0570  0.0593 -0.1373
 3705TIP3    H132750   6.359   4.018   2.916 -0.0848 -0.7463 -0.0963
 3705TIP3    H232751   6.497   4.072   2.884 -0.6188  1.3743  0.9774
 3706TIP3   OH232752   3.860   3.816   1.760 -0.0116 -0.1711 -0.1370
 3706TIP3    H132753   3.778   3.866   1.759 -0.5601 -1.0600 -0.7043
 3706TIP3    H232754   3.910   3.854   1.833 -1.3374 -0.2700  0.8682
 3707TIP3   OH232755   2.651   1.830   0.509  0.8238 -0.4964 -0.5146
 3707TIP3    H132756   2.564   1.870   0.508  1.0419 -0.0026 -1.4165
 3707TIP3    H232757   2.660   1.793   0.596  0.0667  0.2526 -0.1072
 3708TIP3   OH232758   5.972   4.201   7.882  0.4743 -0.4839  0.1767
 3708TIP3    H132759   6.032   4.207   7.807  1.4373  0.9803  1.0296
 3708TIP3    H232760   5.885   4.203   7.842  0.9386  1.5587 -0.8776
 3709TIP3   OH232761   2.157   4.865   7.380 -0.0548 -0.6841  0.0269
 3709TIP3    H132762   2.124   4.880   7.292 -0.2559  0.5491  0.3040
 3709TIP3    H232763   2.105   4.791   7.412 -0.9357 -0.2627 -0.3899
 3710TIP3   OH232764   2.518   3.191   1.506  0.0816 -0.1551 -0.1757
 3710TIP3    H132765   2.526   3.153   1.594 -1.3313  1.8444  0.8966
 3710TIP3    H232766   2.567   3.273   1.510 -1.1666  0.6532 -0.7798
 3711TIP3   OH232767   6.314   6.133   0.527 -0.3850  0.2801  0.2805
 3711TIP3    H132768   6.317   6.123   0.622  2.9852  0.4564  0.3158
 3711TIP3    H232769   6.320   6.044   0.493  1.6625  0.3453  0.3400
 3712TIP3   OH232770   1.268   6.901   7.885  0.3630  0.4210  0.2787
 3712TIP3    H132771   1.258   6.932   7.796  1.7663  0.3540  0.0739
 3712TIP3    H232772   1.291   6.808   7.876 -1.1371 -0.0389  0.7891
 3713TIP3   OH232773   5.721   0.802   2.509 -0.0503 -0.0349  0.2615
 3713TIP3    H132774   5.690   0.840   2.427 -1.5184 -1.7641 -0.0689
 3713TIP3    H232775   5.806   0.763   2.488  0.0928  0.4936 -0.1459
 3714TIP3   OH232776   3.828   4.119   0.113 -0.1379  0.2782 -0.2332
 3714TIP3    H132777   3.734   4.138   0.108 -0.5035 -1.5299 -1.0820
 3714TIP3    H232778   3.868   4.203   0.134 -1.9349  1.1140  0.0677
 3715TIP3   OH232779   5.843   4.264   2.099  0.4721  0.2242  0.0711
 3715TIP3    H132780   5.807   4.252   2.011  1.6831 -2.3913 -0.1467
 3715TIP3    H232781   5.927   4.306   2.085 -0.5617  2.5080  0.2754
 3716TIP3   OH232782   3.822   0.505   1.781 -0.2430 -0.2554  0.5711
 3716TIP3    H132783   3.727   0.500   1.773 -0.1364  0.7674 -2.3871
 3716TIP3    H232784   3.837   0.573   1.846 -1.4776 -1.0373  1.7344
 3717TIP3   OH232785   5.958   0.517   8.198  0.6552  0.3389 -0.1994
 3717TIP3    H132786   5.908   0.479   8.126  0.9900 -1.7884  0.6031
 3717TIP3    H232787   6.049   0.518   8.167  0.8472 -0.8830  0.2647
 3718TIP3   OH232788   4.865   4.556   1.447  0.0627 -0.0247 -0.2173
 3718TIP3    H132789   4.947   4.568   1.400  0.2147  0.4817  0.1773
 3718TIP3    H232790   4.885   4.577   1.538 -0.0619 -1.6723  0.2269
 3719TIP3   OH232791   3.554   6.619   2.102 -0.1103 -0.1069 -0.2932
 3719TIP3    H132792   3.611   6.645   2.174 -1.9152  1.7384  0.5837
 3719TIP3    H232793   3.477   6.580   2.144 -0.9006  0.3906 -1.2223
 3720TIP3   OH232794   5.827   7.020   1.204  0.4531  0.0819 -0.8407
 3720TIP3    H132795   5.749   7.044   1.254  0.2671 -0.2396 -0.9709
 3720TIP3    H232796   5.867   6.949   1.253  0.5268  0.0766 -0.9074
 3721TIP3   OH232797   2.020   3.876   7.139  0.3781 -0.4617  0.0672
 3721TIP3    H132798   2.064   3.923   7.209  1.9421 -0.4490 -0.8766
 3721TIP3    H232799   2.077   3.802   7.119 -0.9738 -1.5484  0.0552
 3722TIP3   OH232800   6.951   3.307   0.814  0.3861  0.6392  0.4980
 3722TIP3    H132801   6.860   3.278   0.807  0.4563  0.7724 -1.9963
 3722TIP3    H232802   6.967   3.316   0.908 -1.7025 -0.8183  1.0578
 3723TIP3   OH232803   5.743   3.805   8.276  0.1644  0.1846 -0.2001
 3723TIP3    H132804   5.805   3.831   8.208 -0.1128  0.4954 -0.3347
 3723TIP3    H232805   5.754   3.710   8.283 -0.3747  0.0352 -1.2349
 3724TIP3   OH232806   4.496   3.283   7.114  0.4203 -0.0074 -0.2863
 3724TIP3    H132807   4.536   3.244   7.192 -0.9764  0.4478  0.7023
 3724TIP3    H232808   4.539   3.368   7.104  1.4589 -0.5732 -0.7526
 3725TIP3   OH232809   2.997   5.333   1.704 -0.1989 -0.1289  0.2400
 3725TIP3    H132810   3.034   5.246   1.716  1.1686  0.5730  1.5436
 3725TIP3    H232811   2.965   5.358   1.791 -0.2569  0.7930 -0.0329
 3726TIP3   OH232812   4.702   4.618   0.002  0.1537 -0.0598 -0.6262
 3726TIP3    H132813   4.797   4.630  -0.007  0.4160 -0.5997  1.0744
 3726TIP3    H232814   4.675   4.576  -0.080  1.5925 -0.9799 -0.6624
 3727TIP3   OH232815   6.293   3.570   3.179  0.0679  0.1445 -0.3487
 3727TIP3    H132816   6.322   3.480   3.194 -0.8037  0.2705  2.6801
 3727TIP3    H232817   6.374   3.619   3.166  0.5421 -1.0414 -2.3684
 3728TIP3   OH232818   6.125   4.077   3.185 -0.0040 -0.3452 -0.7480
 3728TIP3    H132819   6.181   4.149   3.211 -0.5296 -0.7749  1.8551
 3728TIP3    H232820   6.037   4.115   3.182 -0.0452 -0.4746 -1.1355
 3729TIP3   OH232821   4.379   1.927   7.770  0.0612 -0.2813 -0.2405
 3729TIP3    H132822   4.325   1.868   7.821  1.0240  0.1461  1.3287
 3729TIP3    H232823   4.332   2.010   7.772  0.2463 -0.1853  0.2234
 3730TIP3   OH232824   0.051   4.613   3.835 -0.5241  0.2829 -0.3994
 3730TIP3    H132825  -0.030   4.656   3.808 -0.8704  1.1039  1.7019
 3730TIP3    H232826   0.023   4.529   3.872 -0.1771 -0.3701 -1.5860
 3731TIP3   OH232827   6.852   4.762   3.346 -0.1302 -0.0044 -0.2436
 3731TIP3    H132828   6.869   4.792   3.257  1.5100  0.2140  0.1152
 3731TIP3    H232829   6.894   4.676   3.352 -0.8005 -0.3137  0.1205
 3732TIP3   OH232830   5.627   3.330   2.543  0.0251 -0.0465  0.4331
 3732TIP3    H132831   5.604   3.385   2.618  2.3692  0.8398  0.5886
 3732TIP3    H232832   5.589   3.375   2.468 -0.4568  0.2611  0.8550
 3733TIP3   OH232833   5.248   6.886   7.792 -0.2623 -0.9429 -0.1290
 3733TIP3    H132834   5.305   6.812   7.813  1.0542  0.4398  1.3878
 3733TIP3    H232835   5.298   6.939   7.731 -0.5193 -0.4796  0.0583
 3734TIP3   OH232836   2.290   1.664   0.463 -0.0955 -0.4745 -0.3735
 3734TIP3    H132837   2.297   1.626   0.375 -0.4816 -0.9068 -0.2256
 3734TIP3    H232838   2.287   1.588   0.521 -0.1365 -0.1974 -0.0111
 3735TIP3   OH232839   4.709   1.153   8.245 -0.7767  0.4114  0.0371
 3735TIP3    H132840   4.768   1.078   8.254  0.4877  1.5182  1.6186
 3735TIP3    H232841   4.745   1.204   8.172  1.0147  1.6688  1.6985
 3736TIP3   OH232842   0.127   3.645   2.005  0.2571  0.1658  0.2099
 3736TIP3    H132843   0.117   3.725   1.952 -0.8699  0.0590  0.2309
 3736TIP3    H232844   0.037   3.617   2.023  0.6207 -0.1895  1.6059
 3737TIP3   OH232845   3.489   5.281   3.020  0.1817  0.7649  0.8867
 3737TIP3    H132846   3.567   5.321   3.058  0.0673  0.0445  1.9174
 3737TIP3    H232847   3.419   5.301   3.083 -0.1442  0.1055  0.7349
 3738TIP3   OH232848   5.195   2.423   0.071 -0.2963  0.7035 -0.3711
 3738TIP3    H132849   5.195   2.499   0.013  1.5073  0.3888 -0.8465
 3738TIP3    H232850   5.275   2.375   0.049 -0.9467 -0.8895  0.5075
 3739TIP3   OH232851   2.636   3.767   2.124 -0.3616 -0.7473  0.2859
 3739TIP3    H132852   2.620   3.680   2.161  1.3250 -0.2756  2.2606
 3739TIP3    H232853   2.724   3.762   2.086 -0.0183  0.2407  0.9162
 3740TIP3   OH232854   0.852   5.484   0.914  0.0516  0.3525 -0.2778
 3740TIP3    H132855   0.785   5.548   0.888  1.9825  1.9952 -1.5682
 3740TIP3    H232856   0.839   5.411   0.854 -0.4581  0.7363 -0.6550
 3741TIP3   OH232857   5.095   1.581   3.293 -0.7982 -0.6078  0.6158
 3741TIP3    H132858   5.172   1.546   3.249 -1.0323 -0.1113 -0.2302
 3741TIP3    H232859   5.121   1.669   3.321 -0.5581 -1.0253  1.7579
 3742TIP3   OH232860   1.378   2.986   7.340  0.8856 -0.2761  0.2657
 3742TIP3    H132861   1.357   2.990   7.433  1.2053 -0.6107  0.3571
 3742TIP3    H232862   1.455   3.043   7.330 -0.9639  2.2733 -0.3585
 3743TIP3   OH232863   0.730   5.164   0.121  0.1966 -0.2539 -0.2385
 3743TIP3    H132864   0.678   5.184   0.043 -1.4129  1.3845  1.1737
 3743TIP3    H232865   0.785   5.242   0.133  0.0718 -0.2852  0.5469
 3744TIP3   OH232866   2.704   2.873   0.350  0.0010 -0.5205  0.1744
 3744TIP3    H132867   2.619   2.829   0.338 -1.0261  1.0624  1.3033
 3744TIP3    H232868   2.711   2.886   0.444  1.1955 -0.0023  0.0304
 3745TIP3   OH232869   3.229   2.809   1.987  0.3948  0.1675  0.1382
 3745TIP3    H132870   3.158   2.868   2.013  1.1777  0.9775  0.5005
 3745TIP3    H232871   3.305   2.840   2.037  0.7017 -1.5118  0.7636
 3746TIP3   OH232872   2.930   4.520   2.213 -0.2791 -0.4688  0.0757
 3746TIP3    H132873   2.949   4.535   2.305 -2.0239 -0.7933  0.5163
 3746TIP3    H232874   2.835   4.508   2.209 -0.2305 -0.5752 -1.7472
 3747TIP3   OH232875   1.960   5.534   3.369  0.2140  0.5341  0.1631
 3747TIP3    H132876   1.967   5.553   3.462 -2.3584 -0.1882  0.5976
 3747TIP3    H232877   1.927   5.616   3.330 -1.8211 -0.0696  0.4877
 3748TIP3   OH232878   2.043   6.114   0.839  0.3676 -0.1863  0.4907
 3748TIP3    H132879   2.096   6.192   0.824  0.7190 -0.7617 -1.4677
 3748TIP3    H232880   2.106   6.046   0.862 -0.0388  0.3308  3.7184
 3749TIP3   OH232881   1.737   6.901   3.214 -0.1179 -0.3074  0.0032
 3749TIP3    H132882   1.738   6.994   3.236 -0.0222 -0.7356  2.0895
 3749TIP3    H232883   1.808   6.863   3.266 -1.3629 -1.8086  0.7090
 3750TIP3   OH232884   4.838   3.911   0.170 -0.3875 -0.0011  0.5312
 3750TIP3    H132885   4.805   3.839   0.116  0.3806  0.1941 -0.2205
 3750TIP3    H232886   4.839   3.986   0.111  0.8846  0.1143  0.6655
 3751TIP3   OH232887   1.723   5.195   2.128 -0.4004 -0.5187 -0.0246
 3751TIP3    H132888   1.734   5.151   2.043  0.9830 -0.5161  0.1343
 3751TIP3    H232889   1.644   5.156   2.165  0.2269 -2.1563 -0.3333
 3752TIP3   OH232890   2.118   1.672   7.965 -0.0778 -0.7584  0.1676
 3752TIP3    H132891   2.186   1.714   7.912 -1.1619  2.4995  1.1023
 3752TIP3    H232892   2.053   1.642   7.901  0.7022 -0.9826 -0.5452
 3753TIP3   OH232893   4.366   5.403   2.931 -0.4208  0.1457  0.3016
 3753TIP3    H132894   4.425   5.328   2.920  0.8356  0.9580  1.1518
 3753TIP3    H232895   4.279   5.364   2.943 -0.0997 -1.0797 -1.1421
 3754TIP3   OH232896   4.917   1.475   7.556  0.4610  0.1624 -0.4916
 3754TIP3    H132897   4.934   1.541   7.489 -0.1582 -0.1287 -0.9425
 3754TIP3    H232898   4.914   1.392   7.509  0.5828 -0.1155 -0.0230
 3755TIP3   OH232899   0.083   4.917   0.305 -0.5754  0.2179 -0.9649
 3755TIP3    H132900   0.099   4.877   0.390  1.9190 -0.5413 -1.6943
 3755TIP3    H232901   0.001   4.965   0.315 -0.9112 -0.7606  1.5092
 3756TIP3   OH232902   2.227   3.618   0.267 -0.4032 -0.5024 -0.1059
 3756TIP3    H132903   2.208   3.692   0.323 -0.7771 -1.0934  0.5630
 3756TIP3    H232904   2.309   3.582   0.300 -0.5699 -0.7891  0.0008
 3757TIP3   OH232905   1.656   0.904   3.678  0.2277 -0.1927 -0.9859
 3757TIP3    H132906   1.642   0.970   3.745  0.0226 -1.6146  0.4503
 3757TIP3    H232907   1.568   0.883   3.646 -0.0768 -1.8060  0.6909
 3758TIP3   OH232908   4.398   2.428   7.548 -0.1639 -0.4791  0.5143
 3758TIP3    H132909   4.320   2.375   7.537 -0.3884 -0.2800  1.1071
 3758TIP3    H232910   4.466   2.382   7.499 -0.4749 -1.0425  0.6123
 3759TIP3   OH232911   1.019   6.247   3.149  0.5484 -0.0480 -0.0422
 3759TIP3    H132912   1.092   6.274   3.092  1.0974 -1.3303  0.0271
 3759TIP3    H232913   1.037   6.291   3.232  0.6117  0.5514 -0.3605
 3760TIP3   OH232914   4.660   5.014   1.380  0.3087 -0.2125  0.0507
 3760TIP3    H132915   4.739   5.048   1.421 -0.1739 -0.5144  1.2805
 3760TIP3    H232916   4.592   5.078   1.402 -0.0552 -0.6153  0.1056
 3761TIP3   OH232917   0.630   6.076   2.467  0.6176 -0.0966 -0.2613
 3761TIP3    H132918   0.537   6.052   2.467  1.0911 -2.5792  2.4566
 3761TIP3    H232919   0.671   6.011   2.409  0.9652 -1.1837  1.1244
 3762TIP3   OH232920   0.768   1.731   2.915 -0.3430  0.0250 -0.2167
 3762TIP3    H132921   0.700   1.668   2.893 -0.2245 -0.5105  0.8798
 3762TIP3    H232922   0.722   1.815   2.922 -0.8592 -0.2871  0.2501
 3763TIP3   OH232923   5.282   5.909   0.052  0.2362 -0.2729  0.1421
 3763TIP3    H132924   5.353   5.889  -0.009 -1.2230  0.5845 -1.9790
 3763TIP3    H232925   5.321   5.972   0.113  2.1288 -2.1816  1.0131
 3764TIP3   OH232926   1.466   2.213   3.175 -0.2221 -0.0179 -0.7375
 3764TIP3    H132927   1.530   2.274   3.137 -0.7124  0.9913  0.0057
 3764TIP3    H232928   1.500   2.126   3.153  1.0912  0.4999 -0.8700
 3765TIP3   OH232929   4.544   4.728   1.895  0.2224 -0.4012 -0.5357
 3765TIP3    H132930   4.473   4.697   1.952  0.2412  0.5659  0.0280
 3765TIP3    H232931   4.500   4.765   1.819  0.1087  0.1583 -0.2071
 3766TIP3   OH232932   0.979   3.355   2.073 -0.4300 -0.3656 -0.2304
 3766TIP3    H132933   1.010   3.424   2.016  0.4609  0.3133  1.0165
 3766TIP3    H232934   0.964   3.398   2.157 -1.2849 -1.4066  0.1818
 3767TIP3   OH232935   0.679   0.794   1.520 -0.1593  0.6501  0.5285
 3767TIP3    H132936   0.637   0.757   1.598  0.2494  1.8921  1.3652
 3767TIP3    H232937   0.768   0.761   1.523 -0.7530 -1.1993 -0.7209
 3768TIP3   OH232938   3.387   4.726   3.000  0.0122 -0.0775  0.2573
 3768TIP3    H132939   3.437   4.779   2.938 -1.4182 -1.2145 -1.9864
 3768TIP3    H232940   3.345   4.791   3.057 -0.0166  1.1388 -1.0705
 3769TIP3   OH232941   1.933   2.527   2.980  0.4289  0.2190 -0.0778
 3769TIP3    H132942   2.025   2.522   3.003  0.3268  0.5960  0.4216
 3769TIP3    H232943   1.897   2.443   3.008  0.2897  0.7028  1.2541
 3770TIP3   OH232944   6.161   0.740   2.732  0.5497  0.1500 -0.2922
 3770TIP3    H132945   6.086   0.781   2.776 -0.4716 -1.0416 -0.8545
 3770TIP3    H232946   6.220   0.716   2.804 -0.6836 -0.9821  0.3863
 3771TIP3   OH232947   4.558   0.708   0.648 -0.2804 -0.7863 -0.2050
 3771TIP3    H132948   4.482   0.712   0.705  1.4582 -0.9360  2.2573
 3771TIP3    H232949   4.581   0.615   0.643  0.0967 -0.6878 -0.4207
 3772TIP3   OH232950   1.521   4.926   1.425  0.3360  0.5003 -0.0167
 3772TIP3    H132951   1.584   4.882   1.481  0.6057 -0.8120 -1.2954
 3772TIP3    H232952   1.439   4.877   1.438  0.3400  0.3377 -0.5613
 3773TIP3   OH232953   2.511   4.739   3.195  0.3181  0.4193 -0.3541
 3773TIP3    H132954   2.593   4.696   3.170  1.1053  1.5722  0.1731
 3773TIP3    H232955   2.472   4.679   3.259 -0.1775 -1.0273 -1.9283
 3774TIP3   OH232956   2.586   2.387   7.594 -0.0632  0.2109  0.2185
 3774TIP3    H132957   2.588   2.461   7.654  2.2976 -0.7069  1.3841
 3774TIP3    H232958   2.506   2.400   7.543 -1.2974  1.9276  2.4075
 3775TIP3   OH232959   2.946   5.598   0.739  0.3668  0.2581 -0.4351
 3775TIP3    H132960   2.889   5.673   0.722 -0.0232 -0.1973 -1.2528
 3775TIP3    H232961   2.893   5.539   0.792  0.7968  0.7051  0.5047
 3776TIP3   OH232962   0.245   3.954   3.077 -0.0464  0.5552 -0.2164
 3776TIP3    H132963   0.340   3.965   3.085  0.1648 -0.0263 -1.6207
 3776TIP3    H232964   0.227   3.869   3.117  0.1650  0.2190 -0.8394
 3777TIP3   OH232965   4.958   2.454   2.496 -1.1676 -0.6300 -0.3711
 3777TIP3    H132966   5.050   2.433   2.515 -0.7759  1.2279  0.0324
 3777TIP3    H232967   4.914   2.370   2.494  0.2325 -1.4584  1.1886
 3778TIP3   OH232968   6.354   4.212   1.228 -0.4912 -0.9487  0.1590
 3778TIP3    H132969   6.313   4.145   1.173  1.8143 -1.4153 -1.1503
 3778TIP3    H232970   6.310   4.293   1.204 -3.1460 -1.8701  1.5660
 3779TIP3   OH232971   0.020   0.821   0.537 -0.3151 -0.4252 -0.0159
 3779TIP3    H132972   0.109   0.855   0.528  0.3180 -1.4688  1.7552
 3779TIP3    H232973  -0.004   0.793   0.448  1.0553  0.0189 -0.5515
 3780TIP3   OH232974   2.367   5.497   0.411 -0.6066 -0.2569  0.0444
 3780TIP3    H132975   2.278   5.464   0.421 -0.5227 -0.0382  1.7829
 3780TIP3    H232976   2.359   5.592   0.421 -0.1239 -0.2850  0.7919
 3781TIP3   OH232977   1.274   2.782   8.165  0.0979 -0.3681 -0.0292
 3781TIP3    H132978   1.370   2.791   8.164  0.0427  0.2546  0.2256
 3781TIP3    H232979   1.260   2.688   8.157  0.8092 -0.8714  3.2552
 3782TIP3   OH232980   1.222   1.784   8.148 -0.1590  0.0751  0.0365
 3782TIP3    H132981   1.175   1.723   8.090  0.4263  0.5741 -0.9880
 3782TIP3    H232982   1.187   1.870   8.126  0.0874  0.2702  0.4034
 3783TIP3   OH232983   3.422   5.196   3.592  0.5527  0.0864  0.4737
 3783TIP3    H132984   3.464   5.189   3.677 -1.2157 -3.3001  1.2565
 3783TIP3    H232985   3.489   5.233   3.535  2.7750 -0.2336  2.7015
 3784TIP3   OH232986   5.782   7.049   3.129 -0.4244  0.3948  0.3931
 3784TIP3    H132987   5.753   7.139   3.119  1.0442  0.8274 -0.2564
 3784TIP3    H232988   5.780   7.033   3.223  1.5327  1.9212  0.7651
 3785TIP3   OH232989   3.619   2.344   2.258 -0.4513 -0.4065  0.7375
 3785TIP3    H132990   3.597   2.319   2.348  0.4134  0.7911  1.3035
 3785TIP3    H232991   3.708   2.378   2.264 -1.5662  2.9753  0.1073
 3786TIP3   OH232992   5.316   4.521   2.708  0.1295 -0.3649  0.6824
 3786TIP3    H132993   5.315   4.472   2.626  1.2834  2.1054 -0.9198
 3786TIP3    H232994   5.401   4.501   2.747  0.6733  0.4027 -0.0581
 3787TIP3   OH232995   2.074   2.598   3.265  0.6099 -0.5721 -0.1314
 3787TIP3    H132996   2.147   2.581   3.205  1.9778  1.3702  0.8826
 3787TIP3    H232997   2.086   2.535   3.336 -0.1313 -1.8335 -1.0541
 3788TIP3   OH232998   5.999   5.801   3.612  0.2914 -0.1272 -0.0420
 3788TIP3    H132999   5.944   5.876   3.632 -0.2877 -0.6360  0.3190
 3788TIP3    H233000   5.954   5.727   3.654  1.4354 -0.4973  0.5665
 3789TIP3   OH233001   5.126   5.853   0.654  0.4306 -0.7290 -0.0046
 3789TIP3    H133002   5.031   5.861   0.657  0.4315 -1.0449  1.6632
 3789TIP3    H233003   5.143   5.759   0.661  0.8622 -0.6162  0.5911
 3790TIP3   OH233004   6.135   0.497   0.431 -0.2515 -0.4905  0.0392
 3790TIP3    H133005   6.066   0.482   0.366  1.6337 -0.3041 -2.1305
 3790TIP3    H233006   6.188   0.418   0.429  0.1679 -0.2455  0.9753
 3791TIP3   OH233007   6.832   0.125   2.101 -0.3786  0.3823  0.0806
 3791TIP3    H133008   6.766   0.072   2.057 -0.9190  0.2488  1.0228
 3791TIP3    H233009   6.782   0.186   2.155  0.1894  2.6688 -1.8079
 3792TIP3   OH233010   5.823   0.533   1.894 -0.0527 -0.4035  0.0245
 3792TIP3    H133011   5.884   0.461   1.882  1.1205  0.6478 -0.5831
 3792TIP3    H233012   5.776   0.539   1.810 -3.1003 -2.9705  1.3383
 3793TIP3   OH233013   5.355   1.713   1.234 -0.3942  0.0359  0.5698
 3793TIP3    H133014   5.292   1.781   1.258 -1.2304 -0.6272  0.2715
 3793TIP3    H233015   5.334   1.692   1.144  0.1439 -0.3303  0.5266
 3794TIP3   OH233016   5.014   4.104   2.098  0.5135 -0.1360 -0.2728
 3794TIP3    H133017   4.962   4.183   2.080 -1.5760 -1.2887  0.3453
 3794TIP3    H233018   4.991   4.080   2.187  0.4228 -1.9137 -0.7385
 3795TIP3   OH233019   4.725   0.653   1.807  0.6688  0.2931 -0.2616
 3795TIP3    H133020   4.720   0.618   1.896  1.0126  0.7666 -0.0505
 3795TIP3    H233021   4.644   0.703   1.796 -0.0187 -0.8856 -0.7111
 3796TIP3   OH233022   4.120   6.952   1.066 -0.3440  0.2669 -0.6021
 3796TIP3    H133023   4.073   6.886   1.117 -1.1511  0.5447 -0.9771
 3796TIP3    H233024   4.052   7.010   1.033  0.3666  1.4100 -0.1217
 3797TIP3   OH233025   4.760   2.146   7.971  0.1250  0.0566 -0.0429
 3797TIP3    H133026   4.724   2.222   8.016 -0.8563  0.4365 -1.3984
 3797TIP3    H233027   4.698   2.076   7.989  0.8734 -0.3698  0.9588
 3798TIP3   OH233028   3.970   0.394   2.690 -0.4576  0.0965  0.0549
 3798TIP3    H133029   3.987   0.301   2.698  1.3537  0.2390 -1.5933
 3798TIP3    H233030   4.028   0.435   2.755 -0.9090  0.1119  0.4528
 3799TIP3   OH233031   4.711   4.116   1.102 -0.2645  0.1824  0.4714
 3799TIP3    H133032   4.729   4.206   1.129 -0.1039  0.4012 -0.3247
 3799TIP3    H233033   4.752   4.062   1.169  3.0077  0.6787 -0.9326
 3800TIP3   OH233034   5.446   3.612   1.404  0.3921  0.3694 -0.4479
 3800TIP3    H133035   5.469   3.697   1.444  1.3465  0.9236 -2.0781
 3800TIP3    H233036   5.530   3.566   1.396 -0.0283 -0.4487 -0.2184
 3801TIP3   OH233037   3.381   2.957   2.632 -0.5522 -0.0340 -0.1155
 3801TIP3    H133038   3.327   3.020   2.682  1.2127 -0.8222  3.0495
 3801TIP3    H233039   3.355   2.872   2.667 -1.2516 -0.9697 -2.7147
 3802TIP3   OH233040   7.046   4.133   0.776 -0.2236  0.0708  0.0304
 3802TIP3    H133041   7.067   4.040   0.771  0.5708  0.3122 -1.8598
 3802TIP3    H233042   6.964   4.136   0.825 -1.1898 -1.7891 -1.3417
 3803TIP3   OH233043   1.660   3.115   1.501  0.4183 -0.3209 -0.3622
 3803TIP3    H133044   1.698   3.182   1.444 -0.6810  0.4507 -0.2358
 3803TIP3    H233045   1.660   3.035   1.448  0.5588  0.0885 -0.9937
 3804TIP3   OH233046   1.730   4.615   0.144 -0.0057  0.1619 -0.1844
 3804TIP3    H133047   1.687   4.690   0.103  1.1087  0.4104 -0.9275
 3804TIP3    H233048   1.823   4.635   0.141  0.2850 -1.0474  0.0169
 3805TIP3   OH233049   3.141   5.096   0.175 -0.7197  0.0390 -0.0507
 3805TIP3    H133050   3.101   5.177   0.205  2.1821  1.2917  0.6862
 3805TIP3    H233051   3.144   5.040   0.252  1.0254  0.8627  0.5164
 3806TIP3   OH233052   6.325   4.843   2.233 -0.2469  0.4907 -0.1063
 3806TIP3    H133053   6.368   4.791   2.301 -0.2442  0.3027 -0.2485
 3806TIP3    H233054   6.371   4.927   2.234 -0.9733  0.8881  0.8670
 3807TIP3   OH233055   4.024   4.341   0.983  0.1851  0.1426  0.0581
 3807TIP3    H133056   4.052   4.311   0.897 -0.6657 -2.4199  0.6099
 3807TIP3    H233057   4.106   4.360   1.029  0.7801 -1.1443 -0.4311
 3808TIP3   OH233058   3.609   0.010   1.315 -0.0429 -0.1946 -0.1679
 3808TIP3    H133059   3.530  -0.029   1.277 -0.5982 -1.4652  2.1035
 3808TIP3    H233060   3.586   0.026   1.407  1.8026  1.0154  0.1408
 3809TIP3   OH233061   3.973   5.470   0.658  0.0558  0.3053 -0.2279
 3809TIP3    H133062   3.937   5.547   0.702 -0.2709  0.6709 -1.1113
 3809TIP3    H233063   4.018   5.421   0.727  0.3939  1.3640  0.3170
 3810TIP3   OH233064   3.173   2.163   0.207  0.2524 -1.1095 -0.6689
 3810TIP3    H133065   3.152   2.076   0.239 -0.0243 -1.3645 -1.5082
 3810TIP3    H233066   3.087   2.206   0.196  0.4308 -0.2963  0.8837
 3811TIP3   OH233067   2.961   3.306   0.637 -0.0394 -0.7184  0.3815
 3811TIP3    H133068   2.937   3.367   0.707  1.2316 -0.0325  0.2434
 3811TIP3    H233069   2.982   3.362   0.563 -0.0168 -1.3910 -0.1264
 3812TIP3   OH233070   2.336   2.280   2.117  0.2916 -0.8177 -0.4717
 3812TIP3    H133071   2.328   2.299   2.024  1.1728  0.4616 -0.3183
 3812TIP3    H233072   2.257   2.316   2.156 -0.0772 -1.3520 -0.7079
 3813TIP3   OH233073   1.201   4.260   7.843  0.4705 -0.6993  0.2556
 3813TIP3    H133074   1.216   4.354   7.837  1.6926 -0.8447  0.7101
 3813TIP3    H233075   1.116   4.246   7.801 -0.3260  0.7526  1.3308
 3814TIP3   OH233076   1.073   2.934   0.435 -0.0950  0.5331 -0.1046
 3814TIP3    H133077   0.987   2.903   0.465 -0.1451  1.6820  1.0342
 3814TIP3    H233078   1.102   2.868   0.372 -1.4395 -0.3076  0.1213
 3815TIP3   OH233079   4.221   6.998   0.791 -0.5151 -0.3414 -0.3425
 3815TIP3    H133080   4.198   6.920   0.741  0.5180 -1.7711  1.2903
 3815TIP3    H233081   4.168   6.992   0.871 -0.9553  1.0320 -0.5028
 3816TIP3   OH233082   3.866   2.884   0.484  0.0359 -0.2632  0.0737
 3816TIP3    H133083   3.883   2.917   0.395 -0.6496  0.0094  0.0327
 3816TIP3    H233084   3.779   2.843   0.477  0.6487 -1.6398  0.2485
 3817TIP3   OH233085   0.131   5.234   2.834 -0.0364 -0.0758 -0.0946
 3817TIP3    H133086   0.125   5.292   2.910 -0.1842 -0.5978  0.2985
 3817TIP3    H233087   0.041   5.211   2.813 -0.1248  1.3579 -1.4576
 3818TIP3   OH233088   5.932   4.158   0.287 -0.2446  0.1096 -0.1947
 3818TIP3    H133089   5.863   4.222   0.302 -1.1958 -0.8775 -0.2143
 3818TIP3    H233090   5.885   4.075   0.275  0.9955 -0.8128  1.0479
 3819TIP3   OH233091   2.345   3.570   0.738  0.4940 -0.1281 -0.2496
 3819TIP3    H133092   2.389   3.497   0.781  1.5826  1.2629  1.1126
 3819TIP3    H233093   2.281   3.601   0.802  2.0502  1.8912  0.4773
 3820TIP3   OH233094   5.879   2.881   0.316  0.2248 -0.0949  0.0002
 3820TIP3    H133095   5.862   2.841   0.231 -1.3246  2.2549 -0.8783
 3820TIP3    H233096   5.835   2.823   0.379 -0.7117 -0.5737 -1.0548
 3821TIP3   OH233097   4.662   6.132   7.762  0.4451  0.0585  0.3176
 3821TIP3    H133098   4.661   6.039   7.784  2.0589 -0.0178  0.2129
 3821TIP3    H233099   4.573   6.151   7.735  0.2567 -1.6420 -0.4057
 3822TIP3   OH233100   5.212   1.620   8.147 -0.2206  0.4138  0.2745
 3822TIP3    H133101   5.133   1.634   8.094 -0.1462 -0.1712  0.0007
 3822TIP3    H233102   5.281   1.666   8.100 -0.3191  0.6008  0.3103
 3823TIP3   OH233103   1.565   4.184   0.374  0.0419 -0.7040  0.2858
 3823TIP3    H133104   1.621   4.157   0.302 -0.3911 -1.4250  0.2143
 3823TIP3    H233105   1.612   4.257   0.415 -0.2760  0.5285 -1.4555
 3824TIP3   OH233106   0.425   0.045   0.654 -0.1420 -0.0808  0.8063
 3824TIP3    H133107   0.389   0.133   0.640 -0.4195 -0.2842  0.2421
 3824TIP3    H233108   0.520   0.059   0.657  0.0651 -0.1137 -2.2617
 3825TIP3   OH233109   5.257   3.101   7.835  0.1160  0.1506  0.2237
 3825TIP3    H133110   5.348   3.082   7.857 -0.6053 -0.7653  2.7143
 3825TIP3    H233111   5.219   3.017   7.809 -0.6890 -0.0566  1.9521
 3826TIP3   OH233112   1.505   1.558   3.174  0.4413 -0.1734  0.2842
 3826TIP3    H133113   1.582   1.615   3.169 -0.6519  1.2723 -0.9645
 3826TIP3    H233114   1.491   1.543   3.267  1.1927  0.9975  0.5933
 3827TIP3   OH233115   5.178   5.821   3.881 -0.2400 -0.1899  0.3277
 3827TIP3    H133116   5.098   5.848   3.927 -0.7341  0.3524 -0.8132
 3827TIP3    H233117   5.161   5.841   3.790  1.8836  1.5683  0.2431
 3828TIP3   OH233118   4.846   2.591   7.940 -0.1691  0.7250  0.6310
 3828TIP3    H133119   4.849   2.605   8.035 -0.0237 -0.1579  0.7685
 3828TIP3    H233120   4.820   2.499   7.931  2.5177 -0.0456 -0.1266
 3829TIP3   OH233121   2.140   6.739   1.695  0.4490 -1.1155  0.9242
 3829TIP3    H133122   2.048   6.757   1.673  1.2852  0.4145 -1.8766
 3829TIP3    H233123   2.149   6.772   1.784 -1.6115 -0.8448  1.1012
 3830TIP3   OH233124   3.884   5.581   1.705  0.0304  0.3330  0.2370
 3830TIP3    H133125   3.815   5.531   1.661  1.8806 -2.7536  0.5376
 3830TIP3    H233126   3.839   5.626   1.776 -2.1544  1.1928 -1.5849
 3831TIP3   OH233127   2.986   0.272   7.090 -0.4945 -0.0218  0.2643
 3831TIP3    H133128   3.048   0.313   7.151  0.3570  0.2587 -0.7568
 3831TIP3    H233129   2.912   0.333   7.086 -1.3402 -0.8233  2.2478
 3832TIP3   OH233130   5.677   6.149   1.961  0.3633 -0.3118 -0.0057
 3832TIP3    H133131   5.695   6.072   2.015  0.0504  0.4100  1.1604
 3832TIP3    H233132   5.763   6.186   1.944  0.5189 -0.9248 -0.5944
 3833TIP3   OH233133   0.282   1.986   3.169  0.0524  0.3899  0.3417
 3833TIP3    H133134   0.269   1.927   3.243  1.1640  0.7580  0.8364
 3833TIP3    H233135   0.284   2.073   3.207 -0.3033  0.6614 -0.2435
 3834TIP3   OH233136   0.531   1.241   0.817  0.2256 -0.2448 -0.2589
 3834TIP3    H133137   0.438   1.240   0.794  0.4458  1.4565 -1.4517
 3834TIP3    H233138   0.574   1.273   0.738  1.8110 -0.7279  0.3772
 3835TIP3   OH233139   5.436   3.817   1.877 -0.2422  0.5725  0.5576
 3835TIP3    H133140   5.364   3.798   1.817  0.5864 -0.5146 -0.1404
 3835TIP3    H233141   5.484   3.888   1.835  0.3509 -0.2033 -0.1252
 3836TIP3   OH233142   3.358   6.567   1.371 -0.0170  0.4873 -0.2950
 3836TIP3    H133143   3.449   6.595   1.382 -0.0155  0.8111 -1.0865
 3836TIP3    H233144   3.322   6.628   1.307 -0.2368 -0.8225 -1.4720
 3837TIP3   OH233145   1.654   3.610   0.246 -0.8086 -0.0516  0.1238
 3837TIP3    H133146   1.642   3.611   0.151 -0.1549 -2.1324 -0.0106
 3837TIP3    H233147   1.681   3.521   0.266  1.2544  0.9160  2.0161
 3838TIP3   OH233148   6.562   3.749   8.215  0.1851 -0.1713  0.2702
 3838TIP3    H133149   6.513   3.693   8.156  0.6340 -0.6054  0.3102
 3838TIP3    H233150   6.573   3.831   8.167 -0.0762 -0.2736  0.0349
 3839TIP3   OH233151   6.241   5.662   1.087  0.3908  0.3704  0.6170
 3839TIP3    H133152   6.235   5.755   1.068 -2.8166  0.4084  1.3325
 3839TIP3    H233153   6.247   5.620   1.001 -1.0630  1.1305  0.1220
 3840TIP3   OH233154   5.976   3.009   1.066  0.7567 -0.2794  0.3904
 3840TIP3    H133155   5.985   2.914   1.059 -0.2576 -0.4508  1.0838
 3840TIP3    H233156   6.006   3.043   0.982 -1.3464 -1.4221 -0.9015
 3841TIP3   OH233157   6.941   4.543   0.029  0.3569 -0.0677 -0.1358
 3841TIP3    H133158   6.879   4.616   0.036 -1.5359 -1.5231 -0.6956
 3841TIP3    H233159   6.975   4.531   0.118 -1.0862  0.0587  0.4536
 3842TIP3   OH233160   1.767   6.129   0.187  0.4522 -0.1782 -0.0698
 3842TIP3    H133161   1.809   6.195   0.132 -1.9382  0.9342 -0.7156
 3842TIP3    H233162   1.699   6.177   0.235 -1.9466 -2.1994 -1.1710
 3843TIP3   OH233163   4.622   2.218   2.648 -0.4163  0.4322  0.5949
 3843TIP3    H133164   4.681   2.201   2.722 -0.8083 -0.0921  0.7919
 3843TIP3    H233165   4.653   2.301   2.613 -0.4481  0.8838  1.5825
 3844TIP3   OH233166   6.890   3.119   0.022 -0.0726  0.2346 -0.0975
 3844TIP3    H133167   6.800   3.110   0.054 -0.4005  1.3032 -0.6786
 3844TIP3    H233168   6.889   3.198  -0.031  0.9946 -0.2807 -0.9181
 3845TIP3   OH233169   6.661   2.164   0.815  0.1980  0.1747  0.1427
 3845TIP3    H133170   6.697   2.240   0.770  0.2764  0.1856  0.2236
 3845TIP3    H233171   6.570   2.160   0.786  0.2304  0.2214  0.0365
 3846TIP3   OH233172   6.679   5.089   0.247 -0.2934 -0.2546  0.0724
 3846TIP3    H133173   6.749   5.096   0.182 -1.1986  0.0845 -0.8973
 3846TIP3    H233174   6.613   5.153   0.219 -1.9334 -1.9976 -0.2702
 3847TIP3   OH233175   5.107   3.591   2.260  0.4751  0.0953  0.2388
 3847TIP3    H133176   5.096   3.680   2.226 -0.9017 -0.5253 -0.9988
 3847TIP3    H233177   5.202   3.577   2.258  0.6556  1.2368 -0.2834
 3848TIP3   OH233178   2.424   3.223   7.510  0.5268  0.0280 -0.2528
 3848TIP3    H133179   2.336   3.189   7.496  0.4094 -0.0850  0.6707
 3848TIP3    H233180   2.437   3.285   7.438 -0.1202 -0.3043 -0.6691
 3849TIP3   OH233181   1.839   6.584   1.079  0.1063  0.0797  0.6923
 3849TIP3    H133182   1.812   6.531   1.004  2.0384 -0.2455  0.1775
 3849TIP3    H233183   1.759   6.628   1.107 -0.6732  0.2003 -1.5411
 3850TIP3   OH233184   4.124   5.963   2.797  0.5143  0.2943  0.9186
 3850TIP3    H133185   4.182   5.928   2.730 -0.0996 -0.6646  0.8590
 3850TIP3    H233186   4.036   5.944   2.764  0.2009  0.0646  1.8549
 3851TIP3   OH233187   0.080   3.640   7.868 -0.2513  0.6753 -0.1638
 3851TIP3    H133188   0.118   3.728   7.876  0.5819  0.1881  1.6394
 3851TIP3    H233189   0.001   3.644   7.922 -0.7166  0.5702 -0.8271
 3852TIP3   OH233190   4.503   5.037   0.614  0.4720  0.6365 -0.2286
 3852TIP3    H133191   4.439   5.021   0.683  2.0359 -0.2684  1.0789
 3852TIP3    H233192   4.511   5.133   0.610 -1.1402  0.7803 -0.6361
 3853TIP3   OH233193   3.497   7.065   7.922 -0.1756  0.0367  0.1464
 3853TIP3    H133194   3.419   7.098   7.968 -0.1332  0.2227  0.0855
 3853TIP3    H233195   3.512   7.129   7.852 -0.7565 -0.7021 -0.6709
 3854TIP3   OH233196   4.492   3.066   3.075 -0.1285 -0.7433 -0.2068
 3854TIP3    H133197   4.418   3.068   3.136 -1.2508 -0.1781 -1.5468
 3854TIP3    H233198   4.517   3.158   3.064  0.4783 -0.8939 -0.1333
 3855TIP3   OH233199   2.952   4.194   1.235 -0.2704  0.1520  0.0739
 3855TIP3    H133200   2.972   4.233   1.320 -2.4396  2.3223 -0.2987
 3855TIP3    H233201   2.959   4.266   1.173 -0.5388 -0.9692 -1.3210
 3856TIP3   OH233202   0.082   4.591   3.262  0.0942 -0.2515 -0.2511
 3856TIP3    H133203   0.080   4.566   3.354  2.3980 -1.3010 -0.4138
 3856TIP3    H233204   0.091   4.686   3.262 -2.0761  0.0089  0.5106
 3857TIP3   OH233205   0.004   3.833   1.342  0.6612  0.3489  0.2593
 3857TIP3    H133206   0.040   3.921   1.350  1.4323 -0.0661  1.6447
 3857TIP3    H233207  -0.076   3.835   1.395  0.4090  0.3596 -0.1231
 3858TIP3   OH233208   2.309   4.033   1.892  0.1131  0.1682 -0.4128
 3858TIP3    H133209   2.384   4.016   1.949  0.0264 -0.3141 -0.4343
 3858TIP3    H233210   2.308   3.959   1.831 -0.5087  0.0567 -0.2743
 3859TIP3   OH233211   2.467   1.796   2.712 -0.1367  0.2331 -0.8454
 3859TIP3    H133212   2.562   1.802   2.724 -0.1718 -1.4824  0.8078
 3859TIP3    H233213   2.442   1.882   2.678  1.7121  1.6341  1.0084
 3860TIP3   OH233214   4.820   0.149   0.940 -0.3606  0.4143  0.1210
 3860TIP3    H133215   4.884   0.113   1.002 -0.3765 -0.3374 -0.2914
 3860TIP3    H233216   4.759   0.198   0.995  1.2946  2.2926  0.4032
 3861TIP3   OH233217   6.656   0.308   1.874  0.2468 -0.5765  0.0859
 3861TIP3    H133218   6.657   0.344   1.786  0.4614  1.4038  0.8453
 3861TIP3    H233219   6.727   0.354   1.920  0.9922 -2.4888  0.9562
 3862TIP3   OH233220   0.300   5.463   1.623  0.0666 -0.2217 -0.5280
 3862TIP3    H133221   0.374   5.517   1.651 -1.9106  1.8119  1.1301
 3862TIP3    H233222   0.260   5.512   1.551 -0.6830 -0.3974 -0.2378
 3863TIP3   OH233223   5.433   1.504   0.267 -0.4965 -0.5412 -0.0439
 3863TIP3    H133224   5.498   1.525   0.335  0.4311 -0.3040 -0.9726
 3863TIP3    H233225   5.399   1.418   0.292 -0.3297 -0.3619  0.8366
 3864TIP3   OH233226   5.616   5.331   2.449  0.3688 -0.5725  0.0132
 3864TIP3    H133227   5.527   5.317   2.479  0.1287 -0.9587 -0.8459
 3864TIP3    H233228   5.669   5.327   2.529 -0.3722 -0.3156  0.5342
 3865TIP3   OH233229   5.128   4.002   8.024  0.1878  0.3374 -0.2444
 3865TIP3    H133230   5.072   3.963   8.091  1.0131 -1.2321 -0.4110
 3865TIP3    H233231   5.126   4.096   8.042 -0.5130  0.0647  1.2594
 3866TIP3   OH233232   2.236   5.819   8.248  0.2648  0.1526 -0.2442
 3866TIP3    H133233   2.318   5.772   8.262  0.2141 -0.0806 -0.7061
 3866TIP3    H233234   2.258   5.887   8.184  0.6252  1.5562  1.3024
 3867TIP3   OH233235   6.531   0.983   2.804  0.0057 -0.2357  0.0424
 3867TIP3    H133236   6.437   0.999   2.795 -0.8469 -3.8616  1.1317
 3867TIP3    H233237   6.538   0.889   2.820  3.7976  0.0383  0.7940
 3868TIP3   OH233238   1.934   2.359   8.103  0.3413 -0.1614  0.9103
 3868TIP3    H133239   1.905   2.445   8.073 -1.0221 -1.5639 -2.3342
 3868TIP3    H233240   2.019   2.346   8.061  0.8432 -0.1915  1.9003
 3869TIP3   OH233241   6.366   2.844   8.109 -0.1421 -0.2999 -0.3192
 3869TIP3    H133242   6.385   2.937   8.124 -2.3484  0.3283 -1.0349
 3869TIP3    H233243   6.399   2.827   8.021 -0.0582 -0.1115 -0.3254
 3870TIP3   OH233244   0.918   5.387   1.224  0.0593 -0.2534  0.0236
 3870TIP3    H133245   0.923   5.430   1.139 -0.1345 -0.2876 -0.0055
 3870TIP3    H233246   0.987   5.428   1.276 -0.8036  0.8377  0.3325
 3871TIP3   OH233247   3.344   2.263   2.285 -0.0783  0.3525  0.3473
 3871TIP3    H133248   3.400   2.285   2.210  0.7168 -0.4545  0.6828
 3871TIP3    H233249   3.262   2.308   2.268  1.0505  2.6003  0.4208
 3872TIP3   OH233250   2.630   3.685   0.856  0.0264  0.7602 -0.0889
 3872TIP3    H133251   2.621   3.738   0.935  0.1857  0.7118 -0.0383
 3872TIP3    H233252   2.578   3.606   0.873  2.2130 -0.5205  1.0667
 3873TIP3   OH233253   4.400   4.247   1.427 -0.0362  0.0070 -0.1836
 3873TIP3    H133254   4.432   4.274   1.513 -0.6832 -0.0720  0.0882
 3873TIP3    H233255   4.370   4.328   1.386  0.1988  0.0333 -0.3051
 3874TIP3   OH233256   1.651   3.884   8.256  0.1489  0.0991 -0.2802
 3874TIP3    H133257   1.599   3.826   8.200 -0.3992  0.2242  0.0880
 3874TIP3    H233258   1.742   3.861   8.237 -0.0345 -0.0310 -1.0340
 3875TIP3   OH233259   2.497   2.770   2.170 -0.5220  0.3406  0.3078
 3875TIP3    H133260   2.445   2.796   2.094 -0.1027  0.6651  0.1299
 3875TIP3    H233261   2.509   2.676   2.160  0.1574  0.4982 -0.4237
 3876TIP3   OH233262   5.468   2.010   2.875 -0.3013 -0.3484  0.2515
 3876TIP3    H133263   5.467   2.088   2.819 -1.0880  0.6113  1.5341
 3876TIP3    H233264   5.391   1.960   2.847 -0.7776  0.2023  0.5536
 3877TIP3   OH233265   6.275   3.815   3.288 -0.3079 -0.3602  0.3616
 3877TIP3    H133266   6.227   3.881   3.238  0.2617  0.3158  0.6835
 3877TIP3    H233267   6.238   3.731   3.260 -2.1658  0.1576  1.1269
 3878TIP3   OH233268   2.687   3.310   2.629  0.3573 -0.3675  0.3661
 3878TIP3    H133269   2.728   3.373   2.688 -1.1974 -0.3814  1.5104
 3878TIP3    H233270   2.624   3.263   2.683  0.1723 -1.6512 -0.8962
 3879TIP3   OH233271   1.637   4.854   0.025  0.0761 -0.7179 -0.4646
 3879TIP3    H133272   1.547   4.834   0.000 -0.2102  1.4247 -1.4099
 3879TIP3    H233273   1.688   4.840  -0.055  0.0418  0.9846 -0.8261
 3880TIP3   OH233274   0.492   0.562   0.222  0.4042 -0.7892 -0.6859
 3880TIP3    H133275   0.402   0.546   0.252 -0.1209 -0.1079 -1.8482
 3880TIP3    H233276   0.515   0.646   0.262  0.4365 -0.8490 -0.5789
 3881TIP3   OH233277   6.794   0.211   1.639  0.5584 -0.9815  0.1442
 3881TIP3    H133278   6.718   0.177   1.687  2.1187 -1.2715  2.6156
 3881TIP3    H233279   6.780   0.182   1.549 -1.6851 -2.0055  0.7306
 3882TIP3   OH233280   1.408   4.425   8.165  0.1799 -0.3841 -0.1291
 3882TIP3    H133281   1.353   4.494   8.203  2.4706  2.2121 -1.1582
 3882TIP3    H233282   1.467   4.400   8.236 -0.1898 -0.8340  0.0317
 3883TIP3   OH233283   6.577   0.443   2.654  0.7074 -0.5488 -0.4768
 3883TIP3    H133284   6.647   0.421   2.592  1.0351 -0.2643 -0.2075
 3883TIP3    H233285   6.622   0.468   2.734  0.3887  1.9113 -0.9942
 3884TIP3   OH233286   3.158   4.642   7.744 -0.1686  0.2195  0.1686
 3884TIP3    H133287   3.170   4.737   7.749 -0.7841  0.2572  1.5563
 3884TIP3    H233288   3.074   4.627   7.787 -0.5679 -0.8717 -0.9708
 3885TIP3   OH233289   1.966   5.576   3.635  0.8929  0.4377 -0.2863
 3885TIP3    H133290   1.996   5.604   3.721 -1.2310 -1.8098  1.3201
 3885TIP3    H233291   1.874   5.603   3.633  0.4267 -1.1251 -1.0755
 3886TIP3   OH233292   5.544   0.314   0.713  0.4450 -0.4361  0.0396
 3886TIP3    H133293   5.585   0.257   0.777  0.3862 -0.8820 -0.3136
 3886TIP3    H233294   5.500   0.381   0.765  0.2422 -0.8991  0.4717
 3887TIP3   OH233295   1.899   6.277   2.319 -0.3913 -0.3142 -0.0123
 3887TIP3    H133296   1.993   6.266   2.303 -0.4916 -0.8160 -0.2689
 3887TIP3    H233297   1.858   6.254   2.235 -0.6917  0.7668 -0.1803
 3888TIP3   OH233298   3.762   1.480   0.375 -0.3507  0.2904 -0.6027
 3888TIP3    H133299   3.699   1.551   0.377 -1.3379 -0.5636  1.4098
 3888TIP3    H233300   3.727   1.418   0.312 -1.3915 -0.0065  0.2290
 3889TIP3   OH233301   1.394   1.010   0.502 -0.3476 -0.1213 -0.6412
 3889TIP3    H133302   1.456   0.964   0.559 -1.3029  0.4709  0.9728
 3889TIP3    H233303   1.440   1.022   0.420  0.9552 -1.4070 -0.1438
 3890TIP3   OH233304   1.916   1.579   1.972 -0.6449  0.1073 -0.0708
 3890TIP3    H133305   2.008   1.570   1.948 -0.6573 -0.0221 -0.0711
 3890TIP3    H233306   1.913   1.558   2.065 -0.6848  0.0404 -0.0870
 3891TIP3   OH233307   5.183   1.967   2.037 -0.2400 -0.2832  0.3346
 3891TIP3    H133308   5.272   1.934   2.021 -0.5210 -0.3212 -1.3089
 3891TIP3    H233309   5.194   2.062   2.044 -0.0778 -0.2823  0.0907
 3892TIP3   OH233310   2.410   0.503   0.649  0.4917 -0.5729  0.0352
 3892TIP3    H133311   2.433   0.437   0.583  0.0255  0.0392 -0.7563
 3892TIP3    H233312   2.317   0.521   0.634  0.3389 -0.5393  0.9731
 3893TIP3   OH233313   6.871   4.033   2.789 -0.1959  0.2150 -0.5514
 3893TIP3    H133314   6.846   4.041   2.697  2.0416  0.7209 -1.1728
 3893TIP3    H233315   6.863   3.940   2.808 -3.7825  0.4355 -0.2085
 3894TIP3   OH233316   6.840   3.312   1.930 -0.0707  0.1328  0.3137
 3894TIP3    H133317   6.923   3.298   1.975  0.2089  0.7169 -0.0100
 3894TIP3    H233318   6.794   3.228   1.936  1.1698 -0.6541 -0.7965
 3895TIP3   OH233319   5.090   3.023   1.243  0.0946 -0.1966 -0.4463
 3895TIP3    H133320   5.114   3.021   1.150 -1.3022 -2.2179 -0.8399
 3895TIP3    H233321   5.024   2.954   1.252 -0.9116  0.9506  1.7717
 3896TIP3   OH233322   1.685   0.471   2.163  0.0499  0.1434 -0.0697
 3896TIP3    H133323   1.749   0.542   2.163 -0.0050  0.1920  0.0684
 3896TIP3    H233324   1.737   0.392   2.148  0.2910  0.0449  1.2215
 3897TIP3   OH233325   1.394   0.700   0.295  0.1785  0.0552 -0.2197
 3897TIP3    H133326   1.408   0.688   0.201  0.8091 -0.0673 -0.1145
 3897TIP3    H233327   1.317   0.648   0.314  1.9260 -2.7004 -0.0742
 3898TIP3   OH233328   7.055   0.592   2.557  0.3731  0.5157  0.3477
 3898TIP3    H133329   7.112   0.641   2.498 -0.7254 -2.1136 -3.2288
 3898TIP3    H233330   7.112   0.524   2.595  0.6341  0.9809  0.8146
 3899TIP3   OH233331   0.172   1.676   1.768 -0.2432 -0.9698  0.0323
 3899TIP3    H133332   0.213   1.627   1.839  0.4596 -1.6332 -0.8161
 3899TIP3    H233333   0.089   1.631   1.752  0.5005 -2.0685 -0.9008
 3900TIP3   OH233334   3.594   1.398   0.575  0.0449 -0.2343 -0.1380
 3900TIP3    H133335   3.606   1.423   0.666  0.3815 -0.3074 -0.1603
 3900TIP3    H233336   3.675   1.426   0.531  1.3863 -3.0989  0.2286
 3901TIP3   OH233337   4.589   1.766   1.597 -0.2084 -0.1246  0.3332
 3901TIP3    H133338   4.523   1.697   1.602  1.5597 -1.8322  1.4542
 3901TIP3    H233339   4.539   1.845   1.575 -2.5315 -1.4067  0.6569
 3902TIP3   OH233340   6.470   2.868   1.957 -0.6401 -0.3845 -0.0341
 3902TIP3    H133341   6.426   2.849   1.874 -2.6869  0.1669  0.8600
 3902TIP3    H233342   6.531   2.939   1.935 -0.2028 -1.1105 -1.3054
 3903TIP3   OH233343   3.745   1.851   0.246  0.0271  0.2532  0.1927
 3903TIP3    H133344   3.707   1.835   0.160 -1.4755 -2.4564  1.2137
 3903TIP3    H233345   3.838   1.832   0.235  0.1987  1.6479 -1.1550
 3904TIP3   OH233346   0.950   4.926   1.779  0.4381 -0.2777 -0.3549
 3904TIP3    H133347   1.007   4.861   1.820  0.8379  0.6382  0.5794
 3904TIP3    H233348   1.008   4.980   1.726  0.5724  1.0459  1.0916
 3905TIP3   OH233349   5.666   5.008   0.697 -0.2515 -0.4761  0.1597
 3905TIP3    H133350   5.669   5.090   0.746 -1.2840 -0.6484  0.5416
 3905TIP3    H233351   5.755   4.995   0.665 -0.7650  2.7987 -3.2636
 3906TIP3   OH233352   1.308   1.828   0.837  0.1649  0.4844 -0.4246
 3906TIP3    H133353   1.275   1.916   0.824  1.4898  1.0360 -0.2181
 3906TIP3    H233354   1.400   1.840   0.859  0.1714 -0.9058  0.4421
 3907TIP3   OH233355   1.445   0.382   3.221 -0.1286 -0.1154 -0.1694
 3907TIP3    H133356   1.537   0.404   3.210  0.0928  0.3364  2.1278
 3907TIP3    H233357   1.417   0.431   3.298 -1.9555 -1.2055 -0.0690
 3908TIP3   OH233358   6.737   4.507   2.581 -0.6975 -0.3565  0.2180
 3908TIP3    H133359   6.713   4.559   2.504  0.9917  0.9134  0.4754
 3908TIP3    H233360   6.663   4.449   2.595 -2.1889  1.2034 -0.7855
 3909TIP3   OH233361   4.739   0.836   2.467 -0.0665  0.2320  0.6328
 3909TIP3    H133362   4.826   0.796   2.466 -0.8286 -1.5138 -1.1153
 3909TIP3    H233363   4.714   0.835   2.560  2.1449  1.7321  1.3109
 3910TIP3   OH233364   6.531   5.946   2.344 -0.0461 -0.4946  0.5532
 3910TIP3    H133365   6.545   5.992   2.427  1.9678 -2.9780  1.7582
 3910TIP3    H233366   6.617   5.948   2.301 -0.5228 -1.0762 -0.4633
 3911TIP3   OH233367   6.472   1.344   2.783 -0.6797 -0.0364  0.4178
 3911TIP3    H133368   6.521   1.402   2.842 -1.3678  0.7352  0.2580
 3911TIP3    H233369   6.387   1.388   2.772 -0.3643  0.1543 -1.6274
 3912TIP3   OH233370   1.706   5.980   3.407  0.5288 -0.3344  0.1906
 3912TIP3    H133371   1.622   5.959   3.449  0.4198 -1.5558 -0.5807
 3912TIP3    H233372   1.768   5.986   3.480  0.2061 -1.7246  0.6126
 3913TIP3   OH233373   4.276   1.877   2.168  0.0890 -0.4032  0.1845
 3913TIP3    H133374   4.291   1.845   2.257 -1.5670 -0.5556  0.4519
 3913TIP3    H233375   4.267   1.797   2.115 -1.7560 -0.4044  0.4322
 3914TIP3   OH233376   0.732   5.924   3.147  0.2275  0.3926  0.1778
 3914TIP3    H133377   0.750   5.863   3.076  1.7948  0.1676  0.7313
 3914TIP3    H233378   0.712   5.868   3.222 -0.4818  0.6184  0.1701
 3915TIP3   OH233379   3.145   4.534   0.703  0.4260  0.4516  0.3159
 3915TIP3    H133380   3.106   4.612   0.662 -1.9613 -0.6170  0.3863
 3915TIP3    H233381   3.134   4.465   0.639  0.4347 -0.3357  1.1405
 3916TIP3   OH233382   0.939   0.584   1.502 -0.0429  0.1327  0.4807
 3916TIP3    H133383   0.925   0.495   1.471 -0.9211  0.9248 -1.6096
 3916TIP3    H233384   0.989   0.626   1.433 -2.5864  2.1742 -0.3033
 3917TIP3   OH233385   4.580   4.790   3.332 -0.1323  0.1609 -0.2664
 3917TIP3    H133386   4.616   4.824   3.414 -1.8464 -1.1366  1.0977
 3917TIP3    H233387   4.632   4.712   3.314  2.5357  2.2319 -2.3776
 3918TIP3   OH233388   3.191   0.149   1.753 -0.4269 -0.1102  0.0179
 3918TIP3    H133389   3.117   0.135   1.813 -0.9024 -0.3010 -0.6081
 3918TIP3    H233390   3.154   0.199   1.680  0.0183 -0.3554 -0.3799
 3919TIP3   OH233391   3.671   1.572   3.179 -0.2137 -0.3020 -0.4316
 3919TIP3    H133392   3.600   1.518   3.214  1.1390 -1.1370  1.1909
 3919TIP3    H233393   3.716   1.515   3.117 -0.8444  0.1786 -1.3517
 3920TIP3   OH233394   6.122   4.578   7.847 -0.0512  0.1690 -0.2379
 3920TIP3    H133395   6.081   4.554   7.764 -1.6462  1.1947  0.2001
 3920TIP3    H233396   6.209   4.538   7.844 -1.0494 -2.1489 -1.2316
 3921TIP3   OH233397   5.578   4.478   1.192  0.0769  0.4029  0.1819
 3921TIP3    H133398   5.668   4.473   1.159  0.4434  1.2906  0.9973
 3921TIP3    H233399   5.572   4.407   1.256  0.2785  0.5202  0.3293
 3922TIP3   OH233400   0.976   5.811   7.274 -0.6006 -0.3211  0.2717
 3922TIP3    H133401   1.057   5.777   7.236 -0.8295 -4.0448  2.5768
 3922TIP3    H233402   1.004   5.880   7.335  0.4787  0.3465 -0.9425
 3923TIP3   OH233403   5.497   2.418   1.128  0.5603  0.0061  0.4878
 3923TIP3    H133404   5.550   2.400   1.051  0.9728 -0.8331  0.9563
 3923TIP3    H233405   5.409   2.389   1.103  0.8073 -0.8090  0.5163
 3924TIP3   OH233406   1.089   3.565   7.815 -0.0303 -0.1426 -0.0084
 3924TIP3    H133407   0.997   3.592   7.813  0.3238  1.0943 -1.3629
 3924TIP3    H233408   1.125   3.597   7.733  1.3913 -1.4970  0.0382
 3925TIP3   OH233409   6.708   6.290   3.488  0.8745 -0.2109 -0.4222
 3925TIP3    H133410   6.690   6.323   3.400  1.2715 -0.4477 -0.5929
 3925TIP3    H233411   6.799   6.316   3.506  0.5469  0.5441  0.2385
 3926TIP3   OH233412   4.219   0.214   2.184 -0.8853 -0.5134  0.2732
 3926TIP3    H133413   4.201   0.156   2.258 -0.4579  0.0676  0.8414
 3926TIP3    H233414   4.133   0.234   2.147 -1.0542 -1.3156  0.2205
 3927TIP3   OH233415   5.425   0.760   1.357 -0.2069 -0.2235  0.6241
 3927TIP3    H133416   5.386   0.679   1.389  1.6124 -1.3714  0.1214
 3927TIP3    H233417   5.353   0.823   1.355 -1.0540 -0.8511  4.1687
 3928TIP3   OH233418   3.771   5.997   2.046  0.1248 -0.3228 -0.9786
 3928TIP3    H133419   3.730   5.969   1.965 -0.0940 -1.0181 -0.6399
 3928TIP3    H233420   3.774   6.093   2.041 -2.5662 -0.1358 -0.5495
 3929TIP3   OH233421   1.128   4.316   1.736 -0.1090  0.1964 -0.1262
 3929TIP3    H133422   1.158   4.375   1.667 -0.2754  0.4236 -0.0018
 3929TIP3    H233423   1.142   4.228   1.699 -1.1920  0.3202 -0.8816
 3930TIP3   OH233424   6.972   1.472   0.726 -0.3975 -0.2513 -0.1357
 3930TIP3    H133425   6.942   1.496   0.814 -1.4487 -1.3080 -0.1850
 3930TIP3    H233426   6.998   1.555   0.686 -2.5804  0.6746  0.1965
 3931TIP3   OH233427   6.745   6.144   2.036 -0.1608 -0.3922 -0.1519
 3931TIP3    H133428   6.798   6.084   1.984  0.6515  0.0256  0.1741
 3931TIP3    H233429   6.809   6.201   2.080 -0.9305  1.8287 -1.7543
 3932TIP3   OH233430   0.434   5.017   3.097  0.1224 -0.1126  0.6903
 3932TIP3    H133431   0.513   5.071   3.100  0.2067 -0.1980  0.0963
 3932TIP3    H233432   0.462   4.936   3.054 -0.3911  0.0330  0.0770
 3933TIP3   OH233433   1.444   5.824   0.166  0.4283 -0.0852 -0.4348
 3933TIP3    H133434   1.472   5.735   0.189  0.6421  0.0065 -0.3310
 3933TIP3    H233435   1.361   5.812   0.120  2.0054 -0.6254 -3.4408
 3934TIP3   OH233436   2.184   2.814   1.252  0.1567  0.2127 -0.1969
 3934TIP3    H133437   2.234   2.836   1.330  1.1441 -0.2997 -0.6687
 3934TIP3    H233438   2.194   2.720   1.242 -1.6268 -0.0552  0.1718
 3935TIP3   OH233439   3.601   5.300   3.435 -0.2639 -0.3285 -0.4798
 3935TIP3    H133440   3.658   5.248   3.378 -0.9393 -1.7103  0.0599
 3935TIP3    H233441   3.661   5.349   3.491  0.4269  1.2933 -2.5071
 3936TIP3   OH233442   0.097   0.447   7.691 -0.0571  0.2224  0.5306
 3936TIP3    H133443   0.103   0.486   7.778  2.2289  0.9428  0.1261
 3936TIP3    H233444   0.040   0.506   7.642  0.9286  1.4135  0.7761
 3937TIP3   OH233445   0.055   6.548   2.204  0.0558  0.3214  0.3034
 3937TIP3    H133446   0.030   6.536   2.296 -1.1253  0.4122  0.0094
 3937TIP3    H233447   0.025   6.636   2.183  0.1281  0.2182 -0.2334
 3938TIP3   OH233448   6.311   2.636   7.650  0.0575 -0.1599 -0.1611
 3938TIP3    H133449   6.226   2.605   7.618  0.0502 -0.6979  0.3556
 3938TIP3    H233450   6.368   2.559   7.644  0.7255  0.3919 -1.2334
 3939TIP3   OH233451   5.401   6.688   2.453  0.7036 -0.2264 -0.4849
 3939TIP3    H133452   5.412   6.730   2.538  1.3214  1.9450 -1.5410
 3939TIP3    H233453   5.490   6.665   2.426  0.8608  1.5579 -1.6440
 3940TIP3   OH233454   4.879   0.309   1.321 -0.0443 -0.4964  1.0190
 3940TIP3    H133455   4.829   0.372   1.374  1.5134  0.0187  1.9673
 3940TIP3    H233456   4.850   0.223   1.352 -0.6138 -0.2132  1.2863
 3941TIP3   OH233457   6.378   1.904   3.491  0.2946  0.3744  0.3798
 3941TIP3    H133458   6.447   1.839   3.480  1.0324  1.0028  1.1403
 3941TIP3    H233459   6.357   1.901   3.585 -0.5583  0.3579  0.2019
 3942TIP3   OH233460   4.345   4.366   7.772 -0.2145 -0.1166 -0.0163
 3942TIP3    H133461   4.298   4.449   7.778  0.9514  0.6127 -0.5688
 3942TIP3    H233462   4.280   4.304   7.739 -1.2988  0.3913  1.1051
 3943TIP3   OH233463   6.206   2.071   1.175  0.2217 -0.1866  0.4583
 3943TIP3    H133464   6.131   2.126   1.200  0.3369  0.6028 -0.8321
 3943TIP3    H233465   6.174   2.019   1.102  1.4612  1.6072 -1.4500
 3944TIP3   OH233466   3.080   1.037   7.868  0.3505 -0.3581  0.6122
 3944TIP3    H133467   3.055   1.071   7.782 -0.4591  0.6341  1.2123
 3944TIP3    H233468   3.019   0.964   7.884 -0.9549  0.8037  1.2190
 3945TIP3   OH233469   0.438   3.670   0.521  0.8959  0.0481 -0.6730
 3945TIP3    H133470   0.381   3.632   0.454 -0.1388 -1.5631  1.0171
 3945TIP3    H233471   0.389   3.746   0.553 -0.2486 -1.1565  0.5630
 3946TIP3   OH233472   2.554   0.737   8.213  0.0079  0.1113  0.3273
 3946TIP3    H133473   2.518   0.649   8.198 -0.2527  0.0527  1.2275
 3946TIP3    H233474   2.622   0.724   8.279  1.9176  0.1889 -1.5353
 3947TIP3   OH233475   4.145   2.044   1.994  0.0383 -0.0302 -0.4776
 3947TIP3    H133476   4.194   1.999   2.062 -0.0247  1.2979  0.4874
 3947TIP3    H233477   4.070   2.082   2.039  0.9926  2.4975 -0.8343
 3948TIP3   OH233478   3.402   6.534   2.881 -0.5787 -0.4161  0.4866
 3948TIP3    H133479   3.407   6.625   2.853 -0.3089 -0.3621  0.7004
 3948TIP3    H233480   3.314   6.506   2.856 -0.5034 -0.2373  0.0037
 3949TIP3   OH233481   2.389   4.173   7.677 -0.0492 -0.2766  0.3449
 3949TIP3    H133482   2.454   4.217   7.622 -0.0234  0.2365  0.7831
 3949TIP3    H233483   2.314   4.160   7.619 -0.6753  1.7996  0.6233
 3950TIP3   OH233484   3.922   2.575   8.161 -0.7636  0.4027  0.4813
 3950TIP3    H133485   3.916   2.519   8.084 -0.3392  0.9685  0.0391
 3950TIP3    H233486   3.863   2.648   8.143 -1.0127  0.3113  0.8916
 3951TIP3   OH233487   5.237   3.212   0.480 -0.2364  0.2502  0.2434
 3951TIP3    H133488   5.204   3.137   0.430  1.6794  0.2536 -1.1511
 3951TIP3    H233489   5.284   3.173   0.553 -1.6491  0.2042  1.1628
 3952TIP3   OH233490   6.702   0.276   1.117  0.7578  0.2457 -0.3803
 3952TIP3    H133491   6.754   0.309   1.043  0.9306  0.4196 -0.1851
 3952TIP3    H233492   6.727   0.333   1.190 -1.5477  2.0038 -0.8315
 3953TIP3   OH233493   5.193   5.791   0.259 -0.1423  0.0754 -0.1936
 3953TIP3    H133494   5.223   5.845   0.333 -0.7207 -0.0457  0.1297
 3953TIP3    H233495   5.243   5.825   0.184  1.0138 -0.2996  0.3726
 3954TIP3   OH233496   2.145   5.713   3.035 -0.7623 -0.0623  0.0904
 3954TIP3    H133497   2.214   5.776   3.056  0.7618 -0.8071 -2.2609
 3954TIP3    H233498   2.064   5.756   3.063  0.4842  1.4516  1.6530
 3955TIP3   OH233499   4.817   6.451   1.109 -0.6864 -0.0875  0.3734
 3955TIP3    H133500   4.832   6.360   1.137  1.9745 -0.8120 -2.7102
 3955TIP3    H233501   4.885   6.501   1.153  0.2163 -0.3143 -0.7174
 3956TIP3   OH233502   0.334   5.152   7.550 -0.1155  0.2960  0.3197
 3956TIP3    H133503   0.405   5.178   7.492  0.8184 -1.7930  0.4311
 3956TIP3    H233504   0.330   5.222   7.615  0.6701  1.3100 -0.6802
 3957TIP3   OH233505   3.057   6.929   1.037  0.0103 -0.0589  0.2528
 3957TIP3    H133506   3.150   6.948   1.044  0.2095 -0.6375 -0.6010
 3957TIP3    H233507   3.036   6.945   0.945 -1.1354  1.7344  0.7746
 3958TIP3   OH233508   6.556   5.512   2.406  0.1664 -0.2678  0.7151
 3958TIP3    H133509   6.623   5.574   2.379  0.1731 -0.8243 -0.6199
 3958TIP3    H233510   6.495   5.564   2.459 -1.6021  1.7613 -2.9684
 3959TIP3   OH233511   5.554   2.777   3.509 -0.1155  0.3797 -0.4137
 3959TIP3    H133512   5.542   2.867   3.540 -0.9013 -0.2390  1.1833
 3959TIP3    H233513   5.465   2.746   3.490 -0.1914 -0.9242  1.7256
 3960TIP3   OH233514   0.835   4.369   8.014 -0.2345  0.4846 -0.3158
 3960TIP3    H133515   0.746   4.375   7.980 -0.5021 -0.7266  0.1171
 3960TIP3    H233516   0.824   4.354   8.108  0.4512  1.2614 -0.1057
 3961TIP3   OH233517   3.165   4.930   2.318 -0.2342 -0.3581  0.1272
 3961TIP3    H133518   3.148   4.904   2.409 -0.7075  0.8005  0.3863
 3961TIP3    H233519   3.257   4.909   2.304  0.1995  0.6765  1.3190
 3962TIP3   OH233520   6.348   6.548   1.107  0.1556  0.2289 -0.7348
 3962TIP3    H133521   6.304   6.605   1.044 -0.7730 -0.7455 -1.0055
 3962TIP3    H233522   6.349   6.599   1.188  2.3163  1.9233 -1.7307
 3963TIP3   OH233523   1.070   0.253   0.082 -0.3962 -0.8842  0.1358
 3963TIP3    H133524   1.043   0.331   0.033  0.0556 -1.1850 -0.6209
 3963TIP3    H233525   0.989   0.217   0.117 -0.6049 -0.0426  0.5492
 3964TIP3   OH233526   6.023   4.182   7.154 -0.0666 -0.7664 -0.0168
 3964TIP3    H133527   6.025   4.093   7.189  0.2866 -0.6723  0.2052
 3964TIP3    H233528   5.936   4.190   7.115 -0.9075 -0.5004  1.8205
 3965TIP3   OH233529   0.459   7.017   2.057  0.1106  0.6188  0.3566
 3965TIP3    H133530   0.397   6.969   2.002 -0.3115  0.4428  0.9856
 3965TIP3    H233531   0.411   7.095   2.085  0.1102  0.3972  0.9836
 3966TIP3   OH233532   4.033   2.578   0.123 -0.2299  0.5925 -0.2027
 3966TIP3    H133533   4.013   2.590   0.030 -0.8744 -1.0194 -0.3108
 3966TIP3    H233534   4.125   2.554   0.125 -0.9139 -2.4392 -0.7877
 3967TIP3   OH233535   0.637   6.167   0.355 -0.1330 -0.2272 -0.0895
 3967TIP3    H133536   0.673   6.256   0.354 -0.5164 -0.0549  0.6691
 3967TIP3    H233537   0.559   6.173   0.411  0.0760 -1.1278  0.3162
 3968TIP3   OH233538   5.440   6.377   2.518  0.2707 -0.0919 -0.0020
 3968TIP3    H133539   5.393   6.404   2.440  0.1633 -0.1568  0.0400
 3968TIP3    H233540   5.386   6.308   2.557 -0.2760  0.7433  0.7615
 3969TIP3   OH233541   3.508   6.122   3.210  0.3677 -0.5261  0.3931
 3969TIP3    H133542   3.493   6.191   3.145  0.1105 -1.4279 -0.5402
 3969TIP3    H233543   3.423   6.112   3.253  0.3597 -0.3791  0.4140
 3970TIP3   OH233544   6.673   6.911   0.714  0.0004 -0.6335 -0.1800
 3970TIP3    H133545   6.614   6.960   0.771 -0.6656  1.0090 -2.1527
 3970TIP3    H233546   6.722   6.854   0.773 -1.3897  0.1859  1.8719
 3971TIP3   OH233547   4.058   3.623   7.550 -0.2244  0.0976  0.5842
 3971TIP3    H133548   4.101   3.539   7.535  0.5596  0.6229 -0.2919
 3971TIP3    H233549   3.984   3.624   7.489  0.3404  0.4192 -0.1162
 3972TIP3   OH233550   4.736   1.573   0.243 -0.0532 -0.4751 -0.1585
 3972TIP3    H133551   4.779   1.554   0.159  0.1274 -3.3207  0.4876
 3972TIP3    H233552   4.806   1.605   0.299 -0.1168  1.1498 -0.9193
 3973TIP3   OH233553   4.499   0.997   2.532  0.1078  0.1780  0.0714
 3973TIP3    H133554   4.505   0.914   2.580 -2.4578 -0.0157  0.2368
 3973TIP3    H233555   4.582   1.004   2.485  0.4781 -2.4299  0.1697
 3974TIP3   OH233556   1.252   3.150   7.083 -0.0404  0.1150  0.3210
 3974TIP3    H133557   1.203   3.089   7.026  0.7455 -0.9229  0.7300
 3974TIP3    H233558   1.337   3.160   7.040  0.4179 -0.3636  1.0909
 3975TIP3   OH233559   2.997   2.484   3.014  0.4424 -0.7023 -0.0495
 3975TIP3    H133560   3.000   2.562   2.959  1.0800  0.0412  0.9909
 3975TIP3    H233561   2.916   2.440   2.989 -1.1672  1.5058  0.9223
 3976TIP3   OH233562   1.864   0.349   0.812 -0.2306  0.4338  0.2108
 3976TIP3    H133563   1.834   0.290   0.743 -0.0990  0.2791  0.2881
 3976TIP3    H233564   1.887   0.292   0.885  2.1514  0.3702 -0.4991
 3977TIP3   OH233565   0.821   3.946   0.301  0.1023 -0.3056 -0.9624
 3977TIP3    H133566   0.778   4.027   0.273 -1.2247 -0.4394  0.5252
 3977TIP3    H233567   0.777   3.876   0.253 -2.3371 -0.5595  1.4210
 3978TIP3   OH233568   4.063   0.057   7.433  0.3511 -0.0639 -0.0440
 3978TIP3    H133569   3.985   0.027   7.480 -2.0029  0.6310 -3.1050
 3978TIP3    H233570   4.090  -0.019   7.381  0.2257  0.3548 -0.7368
 3979TIP3   OH233571   2.118   4.328   0.532 -0.8298  0.1790 -0.3619
 3979TIP3    H133572   2.067   4.306   0.454 -0.1678 -2.0779 -0.2332
 3979TIP3    H233573   2.064   4.392   0.578 -1.6710  0.8620 -2.1918
 3980TIP3   OH233574   3.244   0.273   2.569  0.1768 -0.0342 -0.0038
 3980TIP3    H133575   3.281   0.197   2.614  2.4985  1.9422  1.7073
 3980TIP3    H233576   3.173   0.237   2.516 -0.7699 -2.9725  2.9207
 3981TIP3   OH233577   6.836   1.633   7.898  0.0585  0.0511  0.1116
 3981TIP3    H133578   6.902   1.565   7.912 -1.3850 -1.3569  0.3234
 3981TIP3    H233579   6.887   1.711   7.875  1.8285 -0.7647  1.0617
 3982TIP3   OH233580   3.862   1.966   1.437 -0.1024 -0.0686  0.0231
 3982TIP3    H133581   3.769   1.988   1.450 -0.0638 -0.7311  1.7320
 3982TIP3    H233582   3.907   2.008   1.510  0.7610 -0.7862 -0.0740
 3983TIP3   OH233583   2.564   0.194   1.901  0.3292  0.4998 -0.5598
 3983TIP3    H133584   2.605   0.108   1.907  0.4411  0.6044  0.4022
 3983TIP3    H233585   2.614   0.248   1.962  0.8597  1.4994 -1.8360
 3984TIP3   OH233586   3.834   4.514   2.764 -0.0811  0.1218 -0.5888
 3984TIP3    H133587   3.757   4.554   2.725  0.7687  1.1445 -1.2894
 3984TIP3    H233588   3.813   4.421   2.772  0.4644 -0.7001 -5.5907
 3985TIP3   OH233589   0.083   0.420   2.002 -0.2247  0.0343 -0.7561
 3985TIP3    H133590   0.108   0.346   1.947  0.7639 -0.6963  0.6235
 3985TIP3    H233591   0.130   0.407   2.084  1.0275  2.9080 -0.9039
 3986TIP3   OH233592   2.148   2.247   1.432 -0.8024 -0.0101 -0.7401
 3986TIP3    H133593   2.061   2.252   1.394 -1.8106 -2.6504  0.9391
 3986TIP3    H233594   2.134   2.244   1.526  1.2430  1.0412 -0.3288
 3987TIP3   OH233595   1.274   2.829   2.569 -0.7157  0.0646  0.2693
 3987TIP3    H133596   1.293   2.736   2.552 -1.4632 -0.1105  0.3609
 3987TIP3    H233597   1.315   2.846   2.654 -0.8616 -0.2757  0.4119
 3988TIP3   OH233598   2.352   5.291   3.088  0.1793 -0.7258 -0.0331
 3988TIP3    H133599   2.428   5.284   3.146  0.1538 -1.2323 -0.0546
 3988TIP3    H233600   2.291   5.224   3.120 -0.9550  0.7563  0.9954
 3989TIP3   OH233601   3.197   5.864   3.524 -0.7150 -0.5042  0.7277
 3989TIP3    H133602   3.177   5.919   3.600  0.8114  0.3824  0.5106
 3989TIP3    H233603   3.245   5.790   3.561  1.2081  0.5856  0.5197
 3990TIP3   OH233604   3.731   1.155   2.969  0.2844  0.3970 -0.1291
 3990TIP3    H133605   3.718   1.076   3.022  1.2276  0.3980  0.1335
 3990TIP3    H233606   3.826   1.159   2.956  0.0878  0.4920 -1.6954
 3991TIP3   OH233607   2.184   6.471   0.547  0.1993  0.0815 -0.5382
 3991TIP3    H133608   2.176   6.544   0.486  0.1751 -0.7293 -1.5268
 3991TIP3    H233609   2.274   6.440   0.534  1.6417  2.3385  2.6919
 3992TIP3   OH233610   1.584   6.318   2.955 -0.2899  0.3842  0.5481
 3992TIP3    H133611   1.661   6.298   3.009  0.6162 -0.2216 -0.9211
 3992TIP3    H233612   1.544   6.394   2.998  0.2695 -0.1862  2.1808
 3993TIP3   OH233613   6.862   0.467   1.709  0.3986  0.2474  0.4858
 3993TIP3    H133614   6.930   0.522   1.669  0.2012 -0.9400 -1.6063
 3993TIP3    H233615   6.849   0.396   1.647 -1.3707 -0.6417  1.7877
 3994TIP3   OH233616   1.275   2.445   1.217  0.2074 -0.0944 -0.0140
 3994TIP3    H133617   1.223   2.373   1.182 -0.8039  0.0947  1.0565
 3994TIP3    H233618   1.210   2.505   1.254  1.0735  1.0605 -0.3092
 3995TIP3   OH233619   2.013   0.580   0.772 -0.4994  0.0281 -0.2051
 3995TIP3    H133620   1.921   0.563   0.792 -0.3452 -0.7097 -0.0667
 3995TIP3    H233621   2.060   0.509   0.817  0.1050  0.1781 -0.5911
 3996TIP3   OH233622   3.629   1.482   2.497  0.3980  0.0441 -0.4914
 3996TIP3    H133623   3.539   1.500   2.525  0.0790 -0.6347 -1.0776
 3996TIP3    H233624   3.673   1.455   2.578  0.3222  1.2365 -0.0232
 3997TIP3   OH233625   1.379   4.771   1.773 -0.1145 -0.3994 -0.1355
 3997TIP3    H133626   1.293   4.734   1.795  0.5585 -0.5416  2.6079
 3997TIP3    H233627   1.414   4.802   1.857  1.4066  2.1178 -1.5769
 3998TIP3   OH233628   5.665   0.770   7.401  0.1853  0.2082  0.3785
 3998TIP3    H133629   5.618   0.796   7.481 -0.0345  3.5270 -0.6757
 3998TIP3    H233630   5.757   0.781   7.423  0.2627 -1.4396  0.9373
 3999TIP3   OH233631   5.652   3.053   0.562  0.3560  0.5062 -0.0733
 3999TIP3    H133632   5.585   3.120   0.578  0.1813  0.6432 -1.3130
 3999TIP3    H233633   5.603   2.978   0.527  0.6056 -0.1345  0.9127
 4000TIP3   OH233634   5.038   4.364   0.856  0.5396 -0.0986 -0.1459
 4000TIP3    H133635   5.063   4.456   0.866 -0.3157  0.3469 -1.6880
 4000TIP3    H233636   5.115   4.314   0.884  1.6111  1.1256 -0.7989
 4001TIP3   OH233637   6.270   4.423   0.594  0.4412  0.4591  0.2315
 4001TIP3    H133638   6.315   4.350   0.552  1.1853  1.8242 -1.4518
 4001TIP3    H233639   6.320   4.501   0.569 -1.5961  1.8235  0.0993
 4002TIP3   OH233640   3.758   1.144   0.337  0.2049  0.3795 -0.1295
 4002TIP3    H133641   3.820   1.208   0.303  1.6844 -0.6122  0.6001
 4002TIP3    H233642   3.707   1.117   0.261  0.4938  1.3897 -0.7010
 4003TIP3   OH233643   2.102   1.305   1.795 -0.3469  0.7233 -0.1326
 4003TIP3    H133644   2.076   1.218   1.763 -1.3169  1.2658 -0.8794
 4003TIP3    H233645   2.087   1.301   1.889  0.4731 -0.1992 -0.0150
 4004TIP3   OH233646   1.941   5.741   0.534  0.4022 -0.2846  0.1147
 4004TIP3    H133647   1.849   5.743   0.505  0.5304  0.9930 -0.3098
 4004TIP3    H233648   1.991   5.737   0.452  0.7301 -0.7470  0.3371
 4005TIP3   OH233649   1.726   1.879   2.512 -0.1171  0.5175 -0.1785
 4005TIP3    H133650   1.631   1.867   2.504 -0.0736  0.3332 -0.4234
 4005TIP3    H233651   1.750   1.824   2.587  0.0033 -0.5670 -0.9770
 4006TIP3   OH233652   5.626   1.777   2.319 -0.2141  0.1796 -1.4297
 4006TIP3    H133653   5.620   1.710   2.386  1.7520  2.7473  1.6195
 4006TIP3    H233654   5.688   1.741   2.255  1.8227 -0.5008  0.7873
 4007TIP3   OH233655   4.504   2.175   0.229  0.3152 -0.5438  0.0391
 4007TIP3    H133656   4.428   2.205   0.280  2.4990 -1.2131  4.0865
 4007TIP3    H233657   4.490   2.080   0.220  0.6002 -0.6575  0.7269
 4008TIP3   OH233658   5.412   3.591   0.231  0.0373 -0.1410 -0.1438
 4008TIP3    H133659   5.340   3.540   0.269 -0.3244  0.1315 -0.4587
 4008TIP3    H233660   5.446   3.642   0.304 -1.6523  1.5561 -0.4524
 4009TIP3   OH233661   6.234   2.894   0.713 -0.0344  0.2618 -0.2369
 4009TIP3    H133662   6.277   2.829   0.768 -1.5098  0.7676  1.6348
 4009TIP3    H233663   6.164   2.846   0.669 -1.0273  0.4925  1.0285
 4010TIP3   OH233664   1.030   4.169   0.337  0.3190 -0.2241 -0.2561
 4010TIP3    H133665   1.072   4.210   0.262 -0.8231  0.0009 -0.7839
 4010TIP3    H233666   1.018   4.078   0.312 -0.6134 -0.0184 -0.6118
 4011TIP3   OH233667   5.915   2.230   1.561 -0.2555 -0.2763 -0.1080
 4011TIP3    H133668   5.834   2.217   1.610  0.2449  0.1483  0.8560
 4011TIP3    H233669   5.982   2.245   1.628  0.7314 -1.1458 -0.8503
 4012TIP3   OH233670   3.220   3.737   2.740 -0.1037  0.6629 -0.4284
 4012TIP3    H133671   3.165   3.776   2.808 -0.5242  1.6561 -1.3136
 4012TIP3    H233672   3.208   3.643   2.751 -3.0743  0.8264 -1.4072
 4013TIP3   OH233673   1.014   6.310   8.261 -0.0640  0.6909 -0.6055
 4013TIP3    H133674   0.926   6.345   8.276  0.2924  1.2869  0.1193
 4013TIP3    H233675   1.072   6.368   8.309  0.6022 -0.5076  0.0791
 4014TIP3   OH233676   5.274   2.475   1.976 -0.2607  0.6849 -0.3405
 4014TIP3    H133677   5.184   2.482   2.007  0.2272 -0.9998  1.6819
 4014TIP3    H233678   5.271   2.409   1.907 -0.3510 -0.6654  0.9200
 4015TIP3   OH233679   3.941   4.418   8.178 -0.0874 -0.2983 -0.1906
 4015TIP3    H133680   4.017   4.407   8.121  0.4873 -0.4342  0.5888
 4015TIP3    H233681   3.977   4.415   8.267 -1.0131 -0.4802  0.1893
 4016TIP3   OH233682   5.705   3.926   0.796 -0.1178  0.2844 -0.2867
 4016TIP3    H133683   5.697   3.988   0.724 -0.6090  0.2848 -0.2379
 4016TIP3    H233684   5.633   3.949   0.855  1.4304  1.5974  1.2218
 4017TIP3   OH233685   6.964   4.120   1.813 -0.1312  0.5386 -0.3422
 4017TIP3    H133686   6.896   4.076   1.864  0.1287 -0.4894 -0.8704
 4017TIP3    H233687   7.006   4.050   1.763 -0.1104  1.4608 -1.6628
 4018TIP3   OH233688   0.444   6.466   0.823  0.0141 -0.0902  0.4188
 4018TIP3    H133689   0.481   6.544   0.781 -0.3363 -0.0006  0.2740
 4018TIP3    H233690   0.516   6.403   0.824 -0.1547 -0.3418 -0.9645
 4019TIP3   OH233691   2.555   6.720   3.308 -0.2024 -0.3631 -0.1048
 4019TIP3    H133692   2.638   6.748   3.347 -0.3512  0.0256 -0.0621
 4019TIP3    H233693   2.569   6.726   3.214  0.5379 -2.3969 -0.1680
 4020TIP3   OH233694   5.588   5.578   0.459  0.1149  0.1490  0.2895
 4020TIP3    H133695   5.540   5.503   0.493 -1.6551  1.8610  1.7881
 4020TIP3    H233696   5.680   5.556   0.471 -0.3748 -1.6301  1.0079
 4021TIP3   OH233697   2.224   5.106   7.962 -0.4311 -0.1274 -0.3229
 4021TIP3    H133698   2.160   5.175   7.946 -0.8482 -0.5067 -0.3287
 4021TIP3    H233699   2.175   5.038   8.009  0.3300  0.1807  0.9359
 4022TIP3   OH233700   2.419   5.463   2.388 -0.0096  0.3135 -0.0620
 4022TIP3    H133701   2.333   5.505   2.391 -0.7332 -1.0150 -0.9907
 4022TIP3    H233702   2.400   5.371   2.366  1.6331 -0.0410 -0.1387
 4023TIP3   OH233703   0.771   5.203   0.807  0.0976 -0.3844 -0.9290
 4023TIP3    H133704   0.675   5.202   0.805  0.0913  0.2202 -1.2882
 4023TIP3    H233705   0.795   5.121   0.848 -0.6013 -0.0281  0.2229
 4024TIP3   OH233706   5.851   5.174   7.959  0.3629 -0.6251 -0.3734
 4024TIP3    H133707   5.888   5.257   7.991 -0.7125  0.5060 -1.9148
 4024TIP3    H233708   5.920   5.138   7.902 -1.2476  2.3975 -4.7641
 4025TIP3   OH233709   2.729   0.273   0.764  0.0701  0.4107 -0.4445
 4025TIP3    H133710   2.804   0.235   0.718  0.4923  0.7901 -0.0729
 4025TIP3    H233711   2.653   0.229   0.725  0.5623 -1.2267  0.3787
 4026TIP3   OH233712   2.858   6.031   0.941 -0.4413  0.1189  0.2961
 4026TIP3    H133713   2.861   6.059   0.849  0.8373  0.9885  0.5886
 4026TIP3    H233714   2.886   5.939   0.939 -0.6107  0.0752 -0.1976
 4027TIP3   OH233715   1.545   5.992   2.638  0.1269  0.4097 -0.3083
 4027TIP3    H133716   1.588   6.053   2.579  0.6955  1.4576  1.1120
 4027TIP3    H233717   1.604   5.986   2.713 -0.3786 -1.1753 -0.0003
 4028TIP3   OH233718   6.335   6.205   7.615 -0.1735  0.1437 -0.6382
 4028TIP3    H133719   6.410   6.207   7.675 -0.2657 -0.8900 -0.4854
 4028TIP3    H233720   6.301   6.295   7.618 -0.3201  0.0621  1.0249
 4029TIP3   OH233721   1.440   1.208   1.073  0.2024  0.1889  0.5294
 4029TIP3    H133722   1.485   1.143   1.019  0.8810  0.5295  0.6677
 4029TIP3    H233723   1.432   1.167   1.159 -0.7701 -0.3067  0.2206
 4030TIP3   OH233724   3.322   0.784   1.493  0.2148 -0.4413  0.5001
 4030TIP3    H133725   3.360   0.870   1.515 -2.2204  1.1682 -1.0948
 4030TIP3    H233726   3.282   0.754   1.574 -0.8465  1.0613  0.5791
 4031TIP3   OH233727   4.105   1.861   2.456 -0.0268 -0.3127  0.1520
 4031TIP3    H133728   4.110   1.777   2.411  1.0229 -0.9750  1.4314
 4031TIP3    H233729   4.128   1.841   2.547 -2.2841  0.9201  1.0826
 4032TIP3   OH233730   4.161   2.440   1.781  0.1924 -0.0114 -0.9477
 4032TIP3    H133731   4.166   2.351   1.746  0.1186 -0.1823 -0.5292
 4032TIP3    H233732   4.112   2.489   1.715  1.5817  0.0983 -1.9412
 4033TIP3   OH233733   1.812   1.254   1.453  0.3800 -0.2599  0.1839
 4033TIP3    H133734   1.741   1.303   1.412  0.4204  0.2595  0.7138
 4033TIP3    H233735   1.882   1.318   1.464 -0.0924 -0.0343  2.2312
 4034TIP3   OH233736   0.513   1.429   1.143 -0.0768 -0.2859 -0.1974
 4034TIP3    H133737   0.441   1.384   1.100 -0.7709  0.2921  0.3532
 4034TIP3    H233738   0.589   1.373   1.127 -0.8797 -1.5345  0.2954
 4035TIP3   OH233739   5.566   5.921   4.021  0.0800  0.3087  0.7432
 4035TIP3    H133740   5.603   6.007   4.001 -1.0293  1.0759  1.7817
 4035TIP3    H233741   5.480   5.941   4.058 -1.0587 -1.3401 -0.8428
 4036TIP3   OH233742   1.072   3.833   1.886 -0.4090  0.1252 -0.0087
 4036TIP3    H133743   1.059   3.842   1.792  1.6544  0.4853 -0.3023
 4036TIP3    H233744   0.988   3.857   1.924 -0.7343  1.8683 -1.6683
 4037TIP3   OH233745   6.067   4.224   2.490 -0.3699 -0.5058  0.0990
 4037TIP3    H133746   6.111   4.179   2.418 -1.1308  1.0451 -1.4165
 4037TIP3    H233747   6.048   4.311   2.455 -0.0116  0.6074  2.4921
 4038TIP3   OH233748   1.387   0.781   7.650  0.4088 -1.0244 -0.0924
 4038TIP3    H133749   1.295   0.792   7.628  1.0499  1.3128 -1.9813
 4038TIP3    H233750   1.389   0.776   7.746 -1.6409 -0.8067 -0.0130
 4039TIP3   OH233751   2.619   3.081   0.212 -0.1450  0.0788 -0.4706
 4039TIP3    H133752   2.541   3.038   0.178  0.6157 -0.9121 -1.0286
 4039TIP3    H233753   2.666   3.012   0.259  0.6906  0.4879 -0.6709
 4040TIP3   OH233754   3.937   6.016   0.794  0.2749  0.3821  0.4106
 4040TIP3    H133755   3.958   5.952   0.726  0.5835  1.1497 -0.2358
 4040TIP3    H233756   3.844   6.036   0.781 -0.0188 -0.4836  1.0981
 4041TIP3   OH233757   0.811   1.205   1.451  0.1958  0.1957 -0.3783
 4041TIP3    H133758   0.819   1.279   1.512  1.0661 -0.2329  0.0458
 4041TIP3    H233759   0.785   1.245   1.368  0.6663  0.9867 -0.1576
 4042TIP3   OH233760   5.175   3.808   1.310  0.4046 -0.1061  0.2979
 4042TIP3    H133761   5.174   3.763   1.225  0.8486 -0.0127  0.2452
 4042TIP3    H233762   5.116   3.756   1.364 -1.6821  1.0748 -0.6964
 4043TIP3   OH233763   6.870   0.082   1.408  0.1802 -0.4368 -0.6819
 4043TIP3    H133764   6.789   0.081   1.357 -0.1506 -0.6621 -0.1623
 4043TIP3    H233765   6.938   0.102   1.344 -0.4643  1.4817 -0.8471
 4044TIP3   OH233766   4.005   0.117   0.903 -0.3942 -0.2680 -0.1175
 4044TIP3    H133767   4.051   0.200   0.916  0.4327 -1.0438  2.7549
 4044TIP3    H233768   3.929   0.122   0.961 -0.1060 -1.6462  0.4286
 4045TIP3   OH233769   1.418   0.952   0.208 -0.3557  0.0305  0.0938
 4045TIP3    H133770   1.336   0.972   0.163 -0.1942  0.5519  0.0179
 4045TIP3    H233771   1.395   0.885   0.272 -0.6192 -0.6324 -0.6711
 4046TIP3   OH233772   1.755   4.906   0.265  0.1951  0.5254  0.4075
 4046TIP3    H133773   1.812   4.973   0.229 -0.9562  1.4298  0.2145
 4046TIP3    H233774   1.696   4.883   0.193  1.1967 -1.4572  0.1319
 4047TIP3   OH233775   5.338   5.269   1.041  0.4092  0.2637  0.2029
 4047TIP3    H133776   5.301   5.182   1.054  2.7465 -0.6574  1.1278
 4047TIP3    H233777   5.406   5.277   1.108  2.1891  1.6536 -1.6340
 4048TIP3   OH233778   4.976   5.050   0.396 -0.1393  0.2468 -0.6900
 4048TIP3    H133779   4.910   5.006   0.451 -0.1711  0.1661 -0.7922
 4048TIP3    H233780   4.954   5.023   0.307  1.3140 -1.5594 -0.5711
 4049TIP3   OH233781   6.994   4.503   8.033 -0.4063  0.5614 -0.0605
 4049TIP3    H133782   7.036   4.581   7.997 -1.3453  1.5052  0.8077
 4049TIP3    H233783   6.976   4.526   8.124  0.2307 -1.0682  0.5070
 4050TIP3   OH233784   5.996   5.527   0.215 -0.8842  0.0755 -0.0734
 4050TIP3    H133785   5.938   5.485   0.151 -0.6233 -2.5087  1.2691
 4050TIP3    H233786   6.081   5.529   0.171 -1.1149  0.1874 -0.5302
 4051TIP3   OH233787   1.617   2.835   7.721 -0.5794  0.3744  0.2478
 4051TIP3    H133788   1.691   2.887   7.688 -0.3832 -0.3547 -0.4966
 4051TIP3    H233789   1.567   2.896   7.775  1.9826  0.2850  3.0164
 4052TIP3   OH233790   1.000   2.524   1.672  0.0496 -0.5542  0.5850
 4052TIP3    H133791   1.001   2.522   1.768 -0.2043 -0.3439  0.5920
 4052TIP3    H233792   1.092   2.511   1.647  0.2016 -0.0560  0.8672
 4053TIP3   OH233793   2.904   0.848   7.956  0.1210 -0.0273 -0.3281
 4053TIP3    H133794   2.824   0.898   7.976 -0.4159 -1.5760  1.7560
 4053TIP3    H233795   2.873   0.758   7.944  1.4508 -0.4790 -0.4681
 4054TIP3   OH233796   5.272   3.756   3.030  0.1245  0.3291 -0.4433
 4054TIP3    H133797   5.263   3.673   3.077 -0.8236 -0.6046 -2.1632
 4054TIP3    H233798   5.325   3.734   2.953  1.0951  1.6671 -0.1887
 4055TIP3   OH233799   2.387   6.474   3.090  0.7387  0.2441 -0.2557
 4055TIP3    H133800   2.483   6.476   3.087  0.7244  0.9475 -0.3428
 4055TIP3    H233801   2.360   6.557   3.051  0.0185 -1.1592 -3.0295
 4056TIP3   OH233802   4.428   2.058   2.487 -0.0221 -0.1339 -0.3957
 4056TIP3    H133803   4.452   1.966   2.489  0.5609 -0.0372 -1.9692
 4056TIP3    H233804   4.497   2.102   2.536  0.2690 -0.4182 -0.5480
 4057TIP3   OH233805   5.826   6.407   2.841  0.3374 -0.0922  0.0833
 4057TIP3    H133806   5.751   6.446   2.794  0.2832  0.2948  0.4829
 4057TIP3    H233807   5.857   6.477   2.899  0.3449 -0.5883  0.6939
 4058TIP3   OH233808   5.709   3.579   1.387  0.0828 -0.0174  0.0642
 4058TIP3    H133809   5.799   3.605   1.365 -0.7022  1.0440 -2.1924
 4058TIP3    H233810   5.718   3.494   1.429  2.2517  0.7930  1.4264
 4059TIP3   OH233811   4.605   2.073   1.845  0.5969 -0.3377  0.0019
 4059TIP3    H133812   4.612   2.095   1.938  0.3131  1.4694 -0.3664
 4059TIP3    H233813   4.657   2.140   1.800 -1.1658  0.2662 -1.2705
 4060TIP3   OH233814   3.827   5.659   0.783  0.2623  0.0624 -0.2082
 4060TIP3    H133815   3.812   5.647   0.877  0.5118 -2.3058 -0.3904
 4060TIP3    H233816   3.739   5.666   0.746  0.0460 -1.2355  0.0087
 4061TIP3   OH233817   0.208   3.981   2.800 -0.2765 -0.0384  0.2981
 4061TIP3    H133818   0.197   3.965   2.894 -0.9331  1.0764  0.4318
 4061TIP3    H233819   0.172   3.903   2.758 -1.6357  0.1993  0.9482
 4062TIP3   OH233820   2.006   4.192   7.690 -0.2002  0.3067  0.0736
 4062TIP3    H133821   2.085   4.171   7.639  1.7782  2.7056  1.9230
 4062TIP3    H233822   1.945   4.227   7.625  0.3142 -1.2501 -1.3471
 4063TIP3   OH233823   4.052   4.847   7.814 -0.2363  0.1257 -0.2472
 4063TIP3    H133824   4.020   4.900   7.741  0.3952  2.8600  1.3256
 4063TIP3    H233825   4.002   4.878   7.890  1.9281  0.3077  1.1880
 4064TIP3   OH233826   6.391   4.895   3.822 -0.0743  0.4056 -0.3436
 4064TIP3    H133827   6.330   4.856   3.759 -0.4817  1.9156 -0.9159
 4064TIP3    H233828   6.342   4.967   3.861  1.0070  1.0124 -0.0668
 4065TIP3   OH233829   1.824   1.660   0.035  0.0305 -0.8529  0.3780
 4065TIP3    H133830   1.742   1.710   0.028  0.3222 -0.3240  0.6330
 4065TIP3    H233831   1.804   1.590   0.097 -0.0915 -0.4353  0.8186
 4066TIP3   OH233832   3.067   0.718   8.175  0.3371  0.6337 -0.4651
 4066TIP3    H133833   3.036   0.756   8.092 -0.2425 -2.4009 -1.7873
 4066TIP3    H233834   3.009   0.642   8.189  1.9755 -0.3347  1.4345
 4067TIP3   OH233835   0.105   6.789   3.524  0.3490 -0.2324 -0.0752
 4067TIP3    H133836   0.034   6.840   3.484 -0.5799  0.2859  2.1193
 4067TIP3    H233837   0.131   6.841   3.600  0.6567 -2.1216  1.1630
 4068TIP3   OH233838   6.780   4.646   7.696  0.2120 -0.4409 -0.3582
 4068TIP3    H133839   6.787   4.723   7.752 -0.3744 -0.4327 -0.2905
 4068TIP3    H233840   6.853   4.654   7.635  0.3265  0.0157 -0.1658
 4069TIP3   OH233841   5.924   2.583   1.876 -0.5019  0.0454 -0.5212
 4069TIP3    H133842   6.002   2.551   1.830 -2.2362  0.2710 -3.9754
 4069TIP3    H233843   5.933   2.679   1.873 -0.3563  0.0553  0.1638
 4070TIP3   OH233844   1.496   0.567   7.937  0.7396 -0.0350 -0.0684
 4070TIP3    H133845   1.591   0.577   7.934  0.7055  0.0831 -1.7895
 4070TIP3    H233846   1.464   0.648   7.975  1.3001  0.0871  0.1492
 4071TIP3   OH233847   0.756   6.664   0.050 -0.2576  0.1491  0.1588
 4071TIP3    H133848   0.690   6.732   0.060 -0.0790  0.5799 -1.3153
 4071TIP3    H233849   0.839   6.708   0.070 -0.1677  0.2979 -0.5350
 4072TIP3   OH233850   0.018   5.598   7.610  0.1875 -0.4156 -0.0349
 4072TIP3    H133851  -0.008   5.666   7.673  0.5153 -0.3934  0.0775
 4072TIP3    H233852   0.040   5.647   7.530  1.7820 -0.2567  0.4738
 4073TIP3   OH233853   3.508   3.313   7.719 -0.3071 -0.0294  0.2981
 4073TIP3    H133854   3.548   3.310   7.632 -0.2385  1.5297  0.2403
 4073TIP3    H233855   3.564   3.258   7.773  0.8967  0.6776 -0.1843
 4074TIP3   OH233856   0.021   6.039   1.170  0.9978  0.1588 -0.7356
 4074TIP3    H133857   0.044   6.029   1.077 -0.5885 -1.1012 -1.0433
 4074TIP3    H233858   0.027   5.950   1.206  0.5759  0.4582  0.1073
 4075TIP3   OH233859   2.811   3.742   7.725  0.1665 -0.0900 -0.0539
 4075TIP3    H133860   2.842   3.805   7.660  0.2818  0.6601  0.7090
 4075TIP3    H233861   2.848   3.773   7.808  0.6074 -1.4333  0.2676
 4076TIP3   OH233862   1.831   2.458   2.736  0.1573 -0.1644 -0.0890
 4076TIP3    H133863   1.744   2.496   2.743  0.4983  0.9199 -1.3091
 4076TIP3    H233864   1.883   2.504   2.802  0.6429  1.8587 -1.7519
 4077TIP3   OH233865   5.264   0.323   2.122  0.1988 -0.0052 -0.3333
 4077TIP3    H133866   5.250   0.355   2.211  1.8923  0.4000 -0.1764
 4077TIP3    H233867   5.267   0.403   2.069  1.0169 -0.1055 -0.4573
 4078TIP3   OH233868   6.268   3.074   2.130  0.5585  0.4352 -0.2993
 4078TIP3    H133869   6.221   3.048   2.051  1.0560  0.0296 -0.4706
 4078TIP3    H233870   6.301   2.992   2.166 -1.0235  0.4072  1.2349
 4079TIP3   OH233871   6.994   5.962   1.474  0.0228  0.3280 -0.2113
 4079TIP3    H133872   7.023   6.053   1.463 -0.7251  0.7933  1.3543
 4079TIP3    H233873   6.919   5.954   1.416 -0.2481  0.9051  0.0405
 4080TIP3   OH233874   5.286   1.717   2.394 -0.0681  0.2173  0.3374
 4080TIP3    H133875   5.256   1.807   2.406 -2.2877 -0.3445 -0.5173
 4080TIP3    H233876   5.311   1.688   2.482  1.0239  1.7416  0.5673
 4081TIP3   OH233877   4.388   3.163   0.010  0.5481  0.0181  0.4145
 4081TIP3    H133878   4.465   3.108   0.027  0.0875 -0.7786 -0.0167
 4081TIP3    H233879   4.346   3.123  -0.066  0.8628  1.6900 -0.6995
 4082TIP3   OH233880   2.961   1.974   7.507  0.1222  0.0314 -0.3127
 4082TIP3    H133881   2.996   1.892   7.473 -0.4482  0.0405 -0.9368
 4082TIP3    H233882   3.038   2.020   7.542  0.4417 -0.7679  0.0617
 4083TIP3   OH233883   2.985   2.474   0.826  0.7428  0.1173 -0.4044
 4083TIP3    H133884   2.924   2.423   0.774 -0.3642  0.2335  0.7228
 4083TIP3    H233885   2.951   2.469   0.916  1.3680  1.6863 -0.0357
 4084TIP3   OH233886   1.526   3.158   0.122 -0.2558 -0.5430  0.2914
 4084TIP3    H133887   1.579   3.121   0.052 -0.3309  0.0926 -0.1100
 4084TIP3    H233888   1.466   3.087   0.147 -0.3529 -0.7141 -0.4122
 4085TIP3   OH233889   3.963   1.692   1.492 -0.1502  0.4136  0.9030
 4085TIP3    H133890   3.877   1.723   1.522 -0.1382  0.5897  0.7553
 4085TIP3    H233891   3.949   1.669   1.400 -0.6331 -1.7524  1.4407
 4086TIP3   OH233892   6.084   1.504   0.411 -0.0414  0.1415 -0.1142
 4086TIP3    H133893   6.011   1.514   0.350  0.0247  0.3584 -0.1586
 4086TIP3    H233894   6.157   1.477   0.356  0.7982  3.1218 -0.6250
 4087TIP3   OH233895   0.475   0.588   2.247  0.0732 -0.1489 -0.0329
 4087TIP3    H133896   0.508   0.611   2.334  1.1160 -0.2807 -0.3797
 4087TIP3    H233897   0.540   0.624   2.187 -0.1876 -0.7998 -0.7185
 4088TIP3   OH233898   0.383   5.814   7.611  0.8392  0.3498  0.1453
 4088TIP3    H133899   0.360   5.876   7.542 -1.9427  0.0761  0.7358
 4088TIP3    H233900   0.393   5.730   7.567 -1.5175  0.0537  0.0555
 4089TIP3   OH233901   3.148   5.596   1.345  0.4801 -0.5938 -0.0865
 4089TIP3    H133902   3.242   5.604   1.335  0.4095  0.8499  0.2841
 4089TIP3    H233903   3.131   5.607   1.438 -0.0980 -0.3737 -0.2089
 4090TIP3   OH233904   4.522   6.838   2.210 -0.0903  0.3331 -0.1166
 4090TIP3    H133905   4.552   6.929   2.208 -1.3318  0.7842  0.6573
 4090TIP3    H233906   4.549   6.806   2.296 -0.0541  0.1101 -0.2096
 4091TIP3   OH233907   5.950   6.071   0.339  0.3654 -0.5195 -0.1153
 4091TIP3    H133908   5.931   6.030   0.255 -0.5905 -0.8368  0.2418
 4091TIP3    H233909   5.900   6.020   0.403 -0.1813  0.6689  0.4504
 4092TIP3   OH233910   6.670   5.485   1.267  0.2764  0.7228  0.2995
 4092TIP3    H133911   6.608   5.549   1.231 -1.2323 -1.2096 -0.7133
 4092TIP3    H233912   6.751   5.499   1.217 -0.3216  1.2198 -0.5634
 4093TIP3   OH233913   6.981   0.574   2.244  0.4940 -0.5224  0.1614
 4093TIP3    H133914   7.063   0.597   2.202  2.0849  1.9892  4.0685
 4093TIP3    H233915   7.004   0.508   2.309 -0.9521 -1.0298  0.2103
 4094TIP3   OH233916   0.383   3.102   2.792  0.2355  0.1592  0.9210
 4094TIP3    H133917   0.299   3.083   2.834 -1.8151  3.4079 -1.1879
 4094TIP3    H233918   0.385   3.046   2.715 -1.2927  1.6493 -0.2967
 4095TIP3   OH233919   0.502   1.236   0.150  0.1190 -0.0226  0.5974
 4095TIP3    H133920   0.462   1.162   0.103 -1.5630  1.9669 -1.3364
 4095TIP3    H233921   0.491   1.214   0.243 -1.8492 -1.4664  0.0966
 4096TIP3   OH233922   3.178   6.828   0.455  0.2052 -0.3633  0.2054
 4096TIP3    H133923   3.106   6.890   0.457 -0.3112 -0.9186 -0.6616
 4096TIP3    H233924   3.256   6.882   0.445 -0.0960  0.2289  0.9839
 4097TIP3   OH233925   2.946   3.413   7.343 -0.0935 -0.0708 -0.0036
 4097TIP3    H133926   3.022   3.447   7.390 -0.1202  0.5686 -0.4175
 4097TIP3    H233927   2.928   3.328   7.384  1.1657 -0.4744 -0.2493
 4098TIP3   OH233928   5.214   4.702   1.799 -0.3827 -0.3818 -0.4902
 4098TIP3    H133929   5.285   4.650   1.837 -0.0963 -0.4254 -1.0658
 4098TIP3    H233930   5.196   4.769   1.865 -1.0211 -1.4283  0.4180
 4099TIP3   OH233931   4.685   4.114   1.540  0.2625  0.0484  0.1001
 4099TIP3    H133932   4.612   4.057   1.564 -0.3533  1.2812  1.3069
 4099TIP3    H233933   4.650   4.203   1.547  1.3211  0.6161 -1.2819
 4100TIP3   OH233934   0.642   5.191   3.143 -0.0792 -0.7824  0.5535
 4100TIP3    H133935   0.589   5.204   3.222 -1.5055 -2.1738 -0.1288
 4100TIP3    H233936   0.726   5.161   3.176  0.3395  1.3857  1.6645
 4101TIP3   OH233937   3.164   1.507   3.398  0.0024 -0.6805  0.1579
 4101TIP3    H133938   3.243   1.561   3.399 -0.6032  0.2267  0.9839
 4101TIP3    H233939   3.107   1.548   3.333  0.2253 -1.3714 -0.4841
 4102TIP3   OH233940   0.673   4.678   2.937  0.2811  0.5489 -0.2479
 4102TIP3    H133941   0.654   4.604   2.879 -2.2704 -0.3356  1.5416
 4102TIP3    H233942   0.626   4.752   2.898 -0.7979  0.1391  0.2374
 4103TIP3   OH233943   0.494   4.982   7.150  0.1219  0.4428  0.0346
 4103TIP3    H133944   0.439   4.904   7.148  1.5374 -0.5931 -0.5023
 4103TIP3    H233945   0.584   4.948   7.145  0.8014  2.0804  0.4430
 4104TIP3   OH233946   0.197   0.353   2.297  0.4229  0.5190 -0.3917
 4104TIP3    H133947   0.127   0.288   2.293  0.1389  0.7514  0.5613
 4104TIP3    H233948   0.274   0.304   2.324  0.2749  0.5297  0.0478
 4105TIP3   OH233949   0.662   2.968   8.243  0.0923 -0.1128 -0.2043
 4105TIP3    H133950   0.588   3.028   8.231  0.3271  0.2081 -0.0658
 4105TIP3    H233951   0.728   2.998   8.180  0.3982  0.0822  0.2027
 4106TIP3   OH233952   1.887   6.856   8.245  0.0297  0.0180 -0.1301
 4106TIP3    H133953   1.951   6.790   8.274 -0.3375 -0.1097  0.4079
 4106TIP3    H233954   1.915   6.937   8.287 -2.5735 -0.8320  3.8767
 4107TIP3   OH233955   4.830   0.860   7.860  0.2166  0.0624 -0.1998
 4107TIP3    H133956   4.814   0.785   7.803  0.0899  0.7702 -1.1217
 4107TIP3    H233957   4.744   0.884   7.893  0.2107  0.0198 -0.1840
 4108TIP3   OH233958   6.247   6.618   2.031  0.4088  0.0369  0.2843
 4108TIP3    H133959   6.156   6.637   2.010 -0.5711 -2.1830  2.1079
 4108TIP3    H233960   6.296   6.648   1.955 -1.9256  0.5370 -1.1122
 4109TIP3   OH233961   2.603   1.400   0.114  0.1862 -0.6739  0.9015
 4109TIP3    H133962   2.606   1.494   0.132  0.1051 -0.7241  1.1884
 4109TIP3    H233963   2.693   1.371   0.126  0.6664 -0.2645 -1.3066
 4110TIP3   OH233964   6.151   4.766   8.247  0.1746 -0.5736 -0.1480
 4110TIP3    H133965   6.175   4.695   8.188  0.7736 -1.3236  0.9533
 4110TIP3    H233966   6.235   4.806   8.271 -0.1422  0.3805 -0.5839
 4111TIP3   OH233967   5.344   1.705   2.677 -1.0928 -0.2217 -0.0277
 4111TIP3    H133968   5.390   1.627   2.647 -1.2306 -0.1223 -0.5203
 4111TIP3    H233969   5.348   1.701   2.772 -0.2152 -0.2990 -0.0616
 4112TIP3   OH233970   4.276   5.829   0.528 -0.2449 -0.0223  0.8263
 4112TIP3    H133971   4.314   5.760   0.473  0.4744  1.0488 -0.0731
 4112TIP3    H233972   4.210   5.870   0.472 -0.3090  0.3437  1.1702
 4113TIP3   OH233973   6.510   5.865   7.710  0.5232  0.1074  0.5818
 4113TIP3    H133974   6.570   5.929   7.671 -0.6350  2.1184  1.9141
 4113TIP3    H233975   6.433   5.867   7.653  1.4043 -2.0391 -0.7952
 4114TIP3   OH233976   5.782   2.090   2.227 -0.1871 -0.2615  0.7811
 4114TIP3    H133977   5.780   2.147   2.150 -1.4290 -0.6835  0.4806
 4114TIP3    H233978   5.813   2.146   2.298  0.0064  0.3921  0.1876
 4115TIP3   OH233979   5.708   4.137   1.473 -0.3232 -0.2095  0.6367
 4115TIP3    H133980   5.765   4.110   1.401 -1.2815  0.0982 -0.2504
 4115TIP3    H233981   5.765   4.192   1.528  0.4504 -0.5548  0.2038
 4116TIP3   OH233982   0.408   5.582   7.479  0.2131 -0.3491 -0.4732
 4116TIP3    H133983   0.354   5.504   7.467 -0.9546  0.2581  0.5504
 4116TIP3    H233984   0.497   5.554   7.458 -0.4612 -1.4187 -2.0728
 4117TIP3   OH233985   0.118   2.287   0.587 -0.6852  0.3994 -0.1576
 4117TIP3    H133986   0.111   2.363   0.528 -0.2871  0.1659 -0.5101
 4117TIP3    H233987   0.091   2.321   0.672  0.0684  1.0976 -0.1785
 4118TIP3   OH233988   5.155   6.460   7.648  0.1945  0.3457  0.0645
 4118TIP3    H133989   5.249   6.481   7.655  0.0032  0.7393  2.4639
 4118TIP3    H233990   5.114   6.545   7.632  0.1609  0.3415  0.1288
 4119TIP3   OH233991   0.029   6.437   2.821 -0.2146 -0.0669 -0.1247
 4119TIP3    H133992   0.030   6.532   2.828 -0.4543 -0.1437  1.0368
 4119TIP3    H233993   0.056   6.406   2.907 -3.0352 -1.0582  0.5102
 4120TIP3   OH233994   6.430   4.751   1.535 -0.9321 -0.1568  0.2974
 4120TIP3    H133995   6.429   4.845   1.553 -0.5627  0.0958 -0.9070
 4120TIP3    H233996   6.516   4.722   1.567 -0.5103  0.1738 -0.5115
 4121TIP3   OH233997   4.246   1.293   1.378  0.4551 -0.3903 -0.7693
 4121TIP3    H133998   4.182   1.239   1.331  0.1664  1.0668 -2.1534
 4121TIP3    H233999   4.284   1.349   1.310  2.4548 -0.4754  0.2127
 4122TIP3   OH234000   1.241   6.306   8.065  0.2038 -0.2576  0.1287
 4122TIP3    H134001   1.162   6.329   8.114 -0.2260 -0.5276 -0.4239
 4122TIP3    H234002   1.237   6.211   8.055  0.3172 -0.2117 -0.3763
 4123TIP3   OH234003   2.110   6.761   0.707  0.1608  0.2233 -0.4148
 4123TIP3    H134004   2.132   6.688   0.649  0.4344 -0.9673  1.1036
 4123TIP3    H234005   2.015   6.755   0.718 -0.2570  1.9279 -2.5662
 4124TIP3   OH234006   1.211   1.684   3.495 -0.0978  0.2003 -0.4687
 4124TIP3    H134007   1.238   1.761   3.546 -1.7663  0.6433 -0.1736
 4124TIP3    H234008   1.213   1.612   3.557 -1.5751  0.6338  0.1405
 4125TIP3   OH234009   7.008   2.415   1.682  0.1322  0.7016  0.1786
 4125TIP3    H134010   7.089   2.365   1.674 -0.6065 -0.5060  0.0225
 4125TIP3    H234011   6.963   2.376   1.758  1.5547  4.0951  3.0616
 4126TIP3   OH234012   7.062   0.647   1.856  0.2064  0.0838 -0.1918
 4126TIP3    H134013   7.094   0.573   1.908  0.4964 -0.5343 -1.2033
 4126TIP3    H234014   7.109   0.639   1.773 -0.3856  0.9255 -0.6204
 4127TIP3   OH234015   2.426   1.361   7.478 -0.0489 -0.0272 -0.0095
 4127TIP3    H134016   2.445   1.414   7.401 -0.7302  0.6197  0.2542
 4127TIP3    H234017   2.472   1.406   7.549 -2.9617  1.9793  0.7785
 4128TIP3   OH234018   0.431   6.792   7.212  0.0068  0.1397  0.6302
 4128TIP3    H134019   0.503   6.810   7.273  1.7410  1.1435 -1.5738
 4128TIP3    H234020   0.398   6.879   7.188 -0.8186 -0.2484  0.3311
 4129TIP3   OH234021   0.225   3.387   0.025  0.2998  0.9690  0.6374
 4129TIP3    H134022   0.181   3.361   0.105 -0.6199 -1.3658 -0.5105
 4129TIP3    H234023   0.155   3.393  -0.040  1.3655 -1.4987 -0.9132
 4130TIP3   OH234024   0.874   1.887   3.579  0.0180  0.0157 -0.4269
 4130TIP3    H134025   0.917   1.871   3.663 -0.0284 -0.6653 -0.5304
 4130TIP3    H234026   0.804   1.822   3.575 -0.0712  0.1415 -0.9281
 4131TIP3   OH234027   5.483   6.342   2.054 -0.2022 -0.4556  0.0267
 4131TIP3    H134028   5.544   6.406   2.089 -1.0567  1.1724 -1.2823
 4131TIP3    H234029   5.538   6.273   2.016  0.7366 -0.3140  1.0922
 4132TIP3   OH234030   6.032   0.903   1.811  0.3164 -0.3585  0.1032
 4132TIP3    H134031   6.045   0.932   1.902 -1.3419  0.4661  0.1152
 4132TIP3    H234032   6.100   0.837   1.797  0.5802 -0.5416  1.9626
 4133TIP3   OH234033   2.299   5.306   1.697 -0.1609 -0.3505  0.1841
 4133TIP3    H134034   2.207   5.322   1.676 -0.1540  0.7958  0.9142
 4133TIP3    H234035   2.347   5.377   1.654  0.3100 -0.5370  0.3865
 4134TIP3   OH234036   4.777   3.820   0.410 -0.5201  0.5145  0.5810
 4134TIP3    H134037   4.813   3.863   0.332  0.8535 -0.2055  0.7685
 4134TIP3    H234038   4.773   3.889   0.476  0.9166  0.5701  0.6541
 4135TIP3   OH234039   4.631   1.129   0.212  0.2170 -0.0211 -0.3781
 4135TIP3    H134040   4.587   1.210   0.235  2.0509  0.9101 -0.0051
 4135TIP3    H234041   4.637   1.132   0.116 -0.8094 -0.3373 -0.4662
 4136TIP3   OH234042   2.796   5.189   2.527 -0.0808  0.4186  0.2680
 4136TIP3    H134043   2.755   5.110   2.493  0.6515  1.0854 -2.4232
 4136TIP3    H234044   2.867   5.157   2.583  0.6245 -0.8856 -1.2938
 4137TIP3   OH234045   4.444   1.179   2.286  0.2521 -1.0820  0.2449
 4137TIP3    H134046   4.491   1.129   2.219  0.8912 -2.2883  1.5411
 4137TIP3    H234047   4.387   1.115   2.328  0.5478 -0.5851  1.4618
 4138TIP3   OH234048   6.146   2.850   1.427 -0.5625 -0.1001  0.2415
 4138TIP3    H134049   6.133   2.756   1.429 -0.8472 -0.0522  0.9558
 4138TIP3    H234050   6.060   2.887   1.449 -0.1156  0.2893  1.4526
 4139TIP3   OH234051   3.786   1.504   7.479  0.0699  0.1270  0.2600
 4139TIP3    H134052   3.823   1.593   7.484 -0.4605  0.4386 -1.1454
 4139TIP3    H234053   3.736   1.503   7.398  0.8001 -1.7450 -0.2204
 4140TIP3   OH234054   4.988   2.627   1.613  0.1591 -0.6006 -0.3130
 4140TIP3    H134055   4.894   2.646   1.623 -0.0906 -1.9009 -0.0389
 4140TIP3    H234056   5.032   2.703   1.651 -0.7846  0.0171 -0.4276
 4141TIP3   OH234057   0.751   4.974   2.521  0.1027 -0.0290  0.6700
 4141TIP3    H134058   0.797   5.023   2.453 -0.3693 -0.8881 -0.2827
 4141TIP3    H234059   0.789   4.886   2.518 -2.2079 -1.0636 -0.8190
 4142TIP3   OH234060   1.231   3.735   0.150  0.5426 -0.0951  0.3353
 4142TIP3    H134061   1.314   3.764   0.187 -0.1046  0.8765  1.0984
 4142TIP3    H234062   1.171   3.807   0.167 -0.3667 -0.6176 -0.5467
 4143TIP3   OH234063   6.749   2.213   3.681 -0.3334  0.2954 -0.6268
 4143TIP3    H134064   6.727   2.287   3.624 -1.0732  0.8388  0.3469
 4143TIP3    H234065   6.743   2.248   3.770  1.5742 -0.3363 -0.1987
 4144TIP3   OH234066   3.938   1.049   7.183 -0.3564  0.3822  0.2293
 4144TIP3    H134067   3.915   1.108   7.255  0.7390  0.3548  0.6097
 4144TIP3    H234068   4.021   1.082   7.150  0.2592 -0.9123  0.4215
 4145TIP3   OH234069   5.950   0.237   3.899 -0.1187  0.2666 -0.0997
 4145TIP3    H134070   6.039   0.213   3.926 -0.0398  0.0622 -0.5396
 4145TIP3    H234071   5.952   0.332   3.893  0.2449  0.2303 -0.6932
 4146TIP3   OH234072   2.899   2.780   2.648 -0.0797 -0.1130  0.0214
 4146TIP3    H134073   2.829   2.715   2.658 -0.3599  0.4687  2.5656
 4146TIP3    H234074   2.963   2.755   2.715  0.9827  0.8061 -0.6308
 4147TIP3   OH234075   2.539   4.674   8.255 -0.0274 -0.0007 -0.0620
 4147TIP3    H134076   2.605   4.710   8.315 -0.1209  0.8292 -0.4499
 4147TIP3    H234077   2.475   4.744   8.244 -0.6221 -0.5638 -0.2256
 4148TIP3   OH234078   5.358   5.905   0.528  0.2982  0.0589  0.0362
 4148TIP3    H134079   5.373   5.998   0.549  1.2067  0.0933 -0.7093
 4148TIP3    H234080   5.284   5.880   0.583 -0.2939  1.3693 -0.1230
 4149TIP3   OH234081   3.463   1.274   0.860  0.2975 -0.0084 -0.0877
 4149TIP3    H134082   3.559   1.278   0.855  0.2588  0.7687 -0.4986
 4149TIP3    H234083   3.437   1.228   0.780  0.2637  1.3136 -0.8711
 4150TIP3   OH234084   6.793   1.539   1.289 -0.0824  0.0914  0.0725
 4150TIP3    H134085   6.774   1.472   1.224 -0.1486  0.7098 -0.5524
 4150TIP3    H234086   6.746   1.617   1.259  1.4127  0.9438 -0.1993
 4151TIP3   OH234087   1.471   3.819   1.169  0.2864 -0.1539 -0.0209
 4151TIP3    H134088   1.444   3.776   1.088 -0.6775  1.0920 -0.3857
 4151TIP3    H234089   1.457   3.753   1.237 -1.7639 -0.2409 -0.4740
 4152TIP3   OH234090   7.046   1.294   1.341  0.1599  0.3434 -0.7831
 4152TIP3    H134091   7.072   1.381   1.371  1.4942 -0.4434  0.4507
 4152TIP3    H234092   7.038   1.242   1.421  0.3898 -0.9255 -1.5594
 4153TIP3   OH234093   4.334   1.348   1.970 -0.1640  0.2835  0.2487
 4153TIP3    H134094   4.269   1.336   2.040  0.5279  1.0898  1.0554
 4153TIP3    H234095   4.393   1.273   1.979 -0.3284  0.1557  0.2557
 4154TIP3   OH234096   6.639   6.362   0.716 -0.1085 -0.0061  0.1826
 4154TIP3    H134097   6.595   6.377   0.800  0.6873  1.5560  0.3506
 4154TIP3    H234098   6.727   6.396   0.728  0.7555 -1.7994 -0.6030
 4155TIP3   OH234099   4.850   5.602   2.558  0.1576  0.2916 -0.4829
 4155TIP3    H134100   4.846   5.666   2.629 -0.1474  0.0835 -0.3121
 4155TIP3    H234101   4.761   5.567   2.552  0.3820 -0.2884 -0.4246
 4156TIP3   OH234102   1.082   0.042   0.432  0.1251  0.4733 -0.3172
 4156TIP3    H134103   1.114  -0.047   0.448  0.4701  0.3659 -1.5356
 4156TIP3    H234104   1.061   0.076   0.520 -0.2276 -0.8787  0.1410
 4157TIP3   OH234105   1.483   5.333   0.224  0.5518 -0.6431 -0.1042
 4157TIP3    H134106   1.468   5.268   0.155  1.7949  0.2789 -1.3256
 4157TIP3    H234107   1.475   5.285   0.306 -0.8721 -1.8066 -0.8812
 4158TIP3   OH234108   5.016   3.257   1.408 -0.5344  0.0563  0.8246
 4158TIP3    H134109   5.055   3.214   1.333  1.0848  0.5359  1.3524
 4158TIP3    H234110   4.954   3.320   1.370  0.9251  0.9516 -0.1889
 4159TIP3   OH234111   3.277   1.900   7.587  0.1475  0.4297 -0.3871
 4159TIP3    H134112   3.266   1.992   7.563  2.3630  0.2769 -2.4002
 4159TIP3    H234113   3.204   1.854   7.544  0.9813  0.8766 -2.3910
 4160TIP3   OH234114   6.043   4.571   2.676 -0.1550  0.1459  0.1283
 4160TIP3    H134115   6.052   4.483   2.713  2.2892 -0.7462 -2.2227
 4160TIP3    H234116   6.120   4.619   2.708  0.6865  0.0984 -1.6526
 4161TIP3   OH234117   1.086   3.621   2.159 -0.0361  0.1606 -0.2322
 4161TIP3    H134118   1.144   3.655   2.227 -0.5513 -0.1989  0.3946
 4161TIP3    H234119   1.009   3.678   2.162 -0.9152 -1.0494  0.8432
 4162TIP3   OH234120   4.259   1.160   8.192 -0.3143  0.0278  0.5093
 4162TIP3    H134121   4.168   1.134   8.177 -0.4176  0.6536 -0.0188
 4162TIP3    H234122   4.276   1.136   8.283 -0.8172 -0.6410  0.4430
 4163TIP3   OH234123   4.265   2.535   0.389  0.0542  0.0400 -0.3083
 4163TIP3    H134124   4.191   2.582   0.427 -1.3511 -0.0235 -2.8004
 4163TIP3    H234125   4.318   2.603   0.348  0.3511 -0.1141 -0.1805
 4164TIP3   OH234126   6.227   0.543   7.845 -0.6564 -0.4266  0.2876
 4164TIP3    H134127   6.172   0.609   7.887 -1.5904 -1.1662  0.2864
 4164TIP3    H234128   6.231   0.472   7.909  2.2325  0.4870  1.2689
 4165TIP3   OH234129   5.854   0.228   1.213  0.7212  0.5641 -0.0102
 4165TIP3    H134130   5.908   0.266   1.143  0.7569  0.1496 -0.2067
 4165TIP3    H234131   5.849   0.135   1.192 -0.3292  0.6499 -0.1531
 4166TIP3   OH234132   0.154   4.115   1.897 -0.3398  0.1164 -0.2744
 4166TIP3    H134133   0.082   4.146   1.841 -0.1357  0.7634 -0.1911
 4166TIP3    H234134   0.141   4.020   1.903 -0.5301  0.0757 -1.1908
 4167TIP3   OH234135   2.681   0.762   3.648 -0.0854  0.0252 -0.1764
 4167TIP3    H134136   2.625   0.833   3.682  1.1610  0.3060  1.3976
 4167TIP3    H234137   2.681   0.776   3.553 -2.1707  0.3822 -0.1812
 4168TIP3   OH234138   4.732   3.229   0.058  0.6714 -0.3368 -0.0793
 4168TIP3    H134139   4.817   3.185   0.071  1.3799  1.1421  0.4692
 4168TIP3    H234140   4.679   3.201   0.133  0.8208 -0.8841 -0.1680
 4169TIP3   OH234141   5.771   0.165   3.579 -0.1576 -0.6004 -0.2202
 4169TIP3    H134142   5.819   0.126   3.651 -0.3828  0.0169  0.2747
 4169TIP3    H234143   5.812   0.251   3.567 -0.6855 -0.3464 -0.2439
 4170TIP3   OH234144   0.197   2.429   2.069 -0.1307  0.2011 -1.0004
 4170TIP3    H134145   0.272   2.435   2.128 -0.3923 -1.7743 -0.3939
 4170TIP3    H234146   0.134   2.493   2.104  0.3122  0.1295 -0.0539
 4171TIP3   OH234147   6.482   5.600   1.538  0.2549  0.3431  0.0086
 4171TIP3    H134148   6.558   5.543   1.538  2.1912  2.6625  2.2773
 4171TIP3    H234149   6.415   5.552   1.588  2.4168  0.5263  3.4336
 4172TIP3   OH234150   3.639   5.750   7.769  0.3174 -0.5573 -0.0982
 4172TIP3    H134151   3.585   5.688   7.720  0.1433 -0.8415  0.4447
 4172TIP3    H234152   3.680   5.805   7.702 -0.3618 -0.5725 -0.5316
 4173TIP3   OH234153   4.367   0.912   8.116 -0.0670  0.0323 -0.0683
 4173TIP3    H134154   4.322   0.900   8.032  0.0763  1.0520 -0.3080
 4173TIP3    H234155   4.325   0.988   8.155 -0.0373 -0.3522  0.7385
 4174TIP3   OH234156   5.176   4.488   1.122  0.0415 -0.0206  0.8444
 4174TIP3    H134157   5.127   4.525   1.049 -0.8893 -1.4413  0.7204
 4174TIP3    H234158   5.267   4.490   1.093 -0.2881 -0.2689 -0.2287
 4175TIP3   OH234159   3.771   5.329   0.553  0.3365  0.3092  0.3510
 4175TIP3    H134160   3.848   5.351   0.605  0.0628  0.9232  0.5048
 4175TIP3    H234161   3.708   5.398   0.572  0.2862  0.6514 -0.9136
 4176TIP3   OH234162   6.184   0.548   1.218 -0.7273 -0.2228  0.5201
 4176TIP3    H134163   6.138   0.623   1.256 -0.4199  0.7065 -0.8736
 4176TIP3    H234164   6.260   0.587   1.174  0.4049 -1.5403  1.2382
 4177TIP3   OH234165   4.639   5.859   1.057 -0.8104  0.2522  0.1119
 4177TIP3    H134166   4.561   5.894   1.101 -0.4863  1.1536 -0.0156
 4177TIP3    H234167   4.607   5.783   1.007 -1.3980 -0.0678  0.9484
 4178TIP3   OH234168   4.254   1.617   3.534  0.1078 -0.3753 -0.1503
 4178TIP3    H134169   4.324   1.653   3.589 -0.2591 -0.5103  0.4134
 4178TIP3    H234170   4.291   1.538   3.496  0.0845 -0.7369  0.5701
 4179TIP3   OH234171   0.988   1.190   1.046  0.0465 -0.0808  0.2637
 4179TIP3    H134172   1.003   1.281   1.021 -1.2956  0.1324  0.1627
 4179TIP3    H234173   0.906   1.166   1.002 -0.0576 -1.0718  0.9619
 4180TIP3   OH234174   2.727   2.208   0.339  0.0754  0.7188  0.3001
 4180TIP3    H134175   2.756   2.207   0.248 -0.5873 -1.5755  0.0334
 4180TIP3    H234176   2.794   2.160   0.387 -1.6402 -2.0282  0.1751
 4181TIP3   OH234177   1.626   5.558   8.139 -0.0223  0.5797 -0.3883
 4181TIP3    H134178   1.538   5.556   8.179  0.1247  1.5217  0.0288
 4181TIP3    H234179   1.610   5.579   8.047 -0.2516  0.6213 -0.3408
 4182TIP3   OH234180   2.952   2.088   8.104  0.1337 -0.4502 -0.0506
 4182TIP3    H134181   2.883   2.123   8.160 -1.1941 -0.0416 -1.8420
 4182TIP3    H234182   2.945   1.993   8.114 -1.1624 -0.4534 -0.6615
 4183TIP3   OH234183   4.421   3.354   7.921  0.1791 -0.1615 -0.2552
 4183TIP3    H134184   4.374   3.433   7.897 -0.9151 -0.5112  0.6483
 4183TIP3    H234185   4.503   3.386   7.959 -0.7868  0.6152  1.2652
 4184TIP3   OH234186   6.256   1.779   0.456  1.3180 -0.2789  0.3168
 4184TIP3    H134187   6.161   1.786   0.467  0.9993 -0.6260 -1.7139
 4184TIP3    H234188   6.276   1.688   0.481  1.0934 -0.2558  0.5867
 4185TIP3   OH234189   6.643   0.229   3.474 -0.2252 -0.2269 -0.5699
 4185TIP3    H134190   6.582   0.188   3.412 -1.5553  1.2766 -0.3518
 4185TIP3    H234191   6.710   0.163   3.490  0.2199 -0.6689 -3.6424
 4186TIP3   OH234192   5.256   3.182   1.738 -0.1106  0.3663  0.1031
 4186TIP3    H134193   5.330   3.149   1.789 -0.3450 -1.0620 -0.4231
 4186TIP3    H234194   5.219   3.104   1.697  0.1881  1.4683 -2.4099
 4187TIP3   OH234195   4.448   0.072   0.195 -0.5728 -0.5638  0.3684
 4187TIP3    H134196   4.495   0.146   0.157 -1.2528 -0.8654 -1.1189
 4187TIP3    H234197   4.492   0.057   0.279  1.3333 -0.2093 -0.5023
 4188TIP3   OH234198   0.341   2.167   8.097  0.3740 -1.4974  0.3265
 4188TIP3    H134199   0.315   2.161   8.189 -0.6172 -0.9050  0.1034
 4188TIP3    H234200   0.328   2.078   8.062 -1.7288 -1.1687  0.1542
 4189TIP3   OH234201   4.672   5.514   0.121 -0.2813  0.1212 -0.1703
 4189TIP3    H134202   4.734   5.562   0.067  0.6899 -0.1139  0.7074
 4189TIP3    H234203   4.633   5.580   0.178  0.1378  0.0629  0.1842
 4190TIP3   OH234204   0.290   6.072   2.643  0.4375  0.6505  0.2379
 4190TIP3    H134205   0.274   6.034   2.556  0.0182 -0.4638  0.7724
 4190TIP3    H234206   0.255   6.160   2.638  0.7622  0.7312 -0.8390
 4191TIP3   OH234207   7.041   2.946   0.875  0.0799  0.4234 -0.2388
 4191TIP3    H134208   7.123   2.899   0.882 -0.8680 -1.7717 -2.5092
 4191TIP3    H234209   6.984   2.906   0.941 -0.5025 -1.2601 -1.6905
 4192TIP3   OH234210   0.895   4.476   0.689  0.7696 -0.9036  0.4439
 4192TIP3    H134211   0.864   4.530   0.761  0.4849 -0.0738 -0.2744
 4192TIP3    H234212   0.817   4.463   0.634  0.9267 -1.7135  0.3969
 4193TIP3   OH234213   2.806   1.069   0.250 -0.3743 -0.1157  0.3836
 4193TIP3    H134214   2.823   1.145   0.195 -1.8922 -0.9456 -1.3458
 4193TIP3    H234215   2.845   1.091   0.335 -0.2967  2.3434 -0.2171
 4194TIP3   OH234216   3.858   3.006   1.005  0.1193 -0.6703  0.0310
 4194TIP3    H134217   3.774   2.973   1.035 -0.1414 -1.0465 -1.0758
 4194TIP3    H234218   3.870   2.967   0.918  0.6847  0.6461 -0.5046
 4195TIP3   OH234219   0.684   6.666   0.381 -0.3111  0.4728  0.0670
 4195TIP3    H134220   0.683   6.761   0.387 -1.6181  0.4281  0.8267
 4195TIP3    H234221   0.725   6.636   0.462 -2.9262  0.3401  1.4480
 4196TIP3   OH234222   0.120   1.153   7.802  0.0988  0.2475 -0.1006
 4196TIP3    H134223   0.141   1.119   7.889  1.3737  0.0673 -0.4691
 4196TIP3    H234224   0.148   1.244   7.805  0.1109  0.2501 -0.3173
 4197TIP3   OH234225   0.398   3.632   7.777  0.2073  0.1611  0.1560
 4197TIP3    H134226   0.470   3.628   7.714 -0.6412  1.3722 -0.9463
 4197TIP3    H234227   0.335   3.567   7.745  0.8102 -0.9444  1.1552
 4198TIP3   OH234228   6.100   4.069   1.408 -0.5697 -0.1092 -0.2985
 4198TIP3    H134229   6.030   4.052   1.344  0.5635 -1.9887 -1.1374
 4198TIP3    H234230   6.180   4.039   1.365  0.1519 -2.2608  2.2341
 4199TIP3   OH234231   5.523   0.141   7.645  0.0731  0.2330 -0.4244
 4199TIP3    H134232   5.553   0.054   7.620  0.9288  0.6148 -0.7570
 4199TIP3    H234233   5.447   0.125   7.700  1.1502 -0.7826  0.8317
 4200TIP3   OH234234   2.943   1.200   8.067 -0.3921 -0.3127 -0.3441
 4200TIP3    H134235   2.961   1.273   8.008  1.9048 -0.5481 -0.0120
 4200TIP3    H234236   3.000   1.129   8.035 -0.3183 -0.9686  1.1743
 4201TIP3   OH234237   4.960   4.366   1.764 -0.1587 -0.1186 -0.0823
 4201TIP3    H134238   4.876   4.410   1.754  0.7242  1.5013 -0.9140
 4201TIP3    H234239   5.005   4.415   1.834  1.0276  0.6923 -1.3443
 4202TIP3   OH234240   2.968   0.589   1.023 -0.2626  0.1255 -0.4437
 4202TIP3    H134241   2.877   0.601   0.996  0.0349 -1.0634 -2.1036
 4202TIP3    H234242   2.972   0.499   1.055  0.3048  0.2253 -0.2195
 4203TIP3   OH234243   5.459   4.192   1.323  0.1459  0.1103  0.4986
 4203TIP3    H134244   5.531   4.178   1.385  0.3593  1.7255  0.6667
 4203TIP3    H234245   5.399   4.119   1.338  2.8541 -2.7379 -1.3187
 4204TIP3   OH234246   4.410   2.811   7.271 -0.3901  0.0123 -0.2014
 4204TIP3    H134247   4.459   2.739   7.230 -0.2178 -0.5430  0.9188
 4204TIP3    H234248   4.340   2.831   7.209  0.2255 -0.3695 -1.0389
 4205TIP3   OH234249   0.197   5.123   0.523  0.8305  0.9108 -0.2557
 4205TIP3    H134250   0.182   5.168   0.439  1.8389 -0.8112 -1.4155
 4205TIP3    H234251   0.121   5.065   0.533  0.2860  1.7195  0.4880
 4206TIP3   OH234252   5.251   6.318   2.245  1.1152 -0.1569  0.3961
 4206TIP3    H134253   5.185   6.382   2.272 -0.3138 -1.2670 -0.3393
 4206TIP3    H234254   5.316   6.370   2.198 -0.4378  0.6801 -0.9155
 4207TIP3   OH234255   6.665   2.022   2.111  0.2315  0.0867  0.2998
 4207TIP3    H134256   6.667   1.943   2.165 -1.1424  1.3499  2.3753
 4207TIP3    H234257   6.611   2.083   2.161 -0.2171  1.7589 -2.0631
 4208TIP3   OH234258   3.388   0.724   0.885 -0.1532  0.4661 -0.3407
 4208TIP3    H134259   3.295   0.706   0.871 -0.6830  2.0217  0.8606
 4208TIP3    H234260   3.389   0.782   0.961  1.8947 -0.4542  0.3833
 4209TIP3   OH234261   1.354   6.810   1.294  0.1351  0.6973 -0.2644
 4209TIP3    H134262   1.336   6.815   1.388 -1.9479 -0.4285 -0.5357
 4209TIP3    H234263   1.389   6.897   1.272 -0.6145  1.4471  1.3070
 4210TIP3   OH234264   4.121   6.479   1.151  0.4747  0.4465 -0.1926
 4210TIP3    H134265   4.145   6.415   1.218  0.5142  1.1685  0.4902
 4210TIP3    H234266   4.187   6.548   1.159  3.0751 -1.3172 -3.7567
 4211TIP3   OH234267   3.106   6.143   0.968 -0.4810  0.4623 -0.3304
 4211TIP3    H134268   3.021   6.111   0.998  0.5400 -0.6965  1.5550
 4211TIP3    H234269   3.118   6.226   1.014 -0.5547  0.5702 -0.5076
 4212TIP3   OH234270   3.968   2.472   2.806 -0.1014  0.1095 -0.1388
 4212TIP3    H134271   3.939   2.381   2.798 -0.5605  0.0270  1.9186
 4212TIP3    H234272   4.056   2.467   2.842  0.1492  0.4972 -0.6660
 4213TIP3   OH234273   0.899   6.031   2.022 -0.0365 -0.1394 -0.5298
 4213TIP3    H134274   0.960   6.059   1.955  1.4345 -0.7594  0.4943
 4213TIP3    H234275   0.852   6.111   2.047 -1.4294 -0.0852 -2.9979
 4214TIP3   OH234276   3.563   2.719   2.431 -0.4238  0.0978 -0.2538
 4214TIP3    H134277   3.508   2.694   2.357 -0.2795 -2.2958  0.3535
 4214TIP3    H234278   3.642   2.756   2.391 -0.3914 -1.0513 -1.3357
 4215TIP3   OH234279   0.960   3.924   3.076 -0.1820 -0.0093 -0.1869
 4215TIP3    H134280   0.953   4.003   3.129 -1.0124  1.2019 -1.9982
 4215TIP3    H234281   0.976   3.854   3.139 -2.9028  1.0379  1.8855
 4216TIP3   OH234282   5.835   3.435   7.419 -0.1154 -0.2600 -0.5698
 4216TIP3    H134283   5.759   3.421   7.362 -0.9643  1.8736 -0.0540
 4216TIP3    H234284   5.831   3.363   7.483 -2.7121  0.6716  0.4475
 4217TIP3   OH234285   5.678   5.181   8.153  0.1416  0.7569 -0.2558
 4217TIP3    H134286   5.737   5.168   8.079  0.0582  1.2375 -0.4117
 4217TIP3    H234287   5.661   5.275   8.154 -0.9737  0.5799 -0.4922
 4218TIP3   OH234288   4.934   4.996   2.098 -0.5902  0.3934  0.2913
 4218TIP3    H134289   4.971   4.950   2.173 -2.5531  0.9742  1.7132
 4218TIP3    H234290   4.864   4.939   2.067 -1.3000  1.1837  0.3864
 4219TIP3   OH234291   6.855   2.434   1.045  0.4436  0.3946  0.0686
 4219TIP3    H134292   6.874   2.352   1.090  0.0481 -0.0534 -0.5606
 4219TIP3    H234293   6.819   2.492   1.112  1.4268  0.3161  0.6777
 4220TIP3   OH234294   4.542   5.772   8.142 -0.1131  0.7860  0.2967
 4220TIP3    H134295   4.482   5.817   8.082  1.1445  0.1740 -1.5206
 4220TIP3    H234296   4.553   5.685   8.103 -0.0221  0.0073  2.0004
 4221TIP3   OH234297   1.042   5.160   0.496  0.1368  0.4093 -0.0216
 4221TIP3    H134298   1.119   5.104   0.488 -0.4306 -0.5750  1.1641
 4221TIP3    H234299   0.969   5.100   0.506 -0.7544  1.3399 -0.7200
 4222TIP3   OH234300   3.170   0.332   3.135 -0.3095  0.5368  0.0950
 4222TIP3    H134301   3.158   0.342   3.040  0.7721 -1.5255 -0.3357
 4222TIP3    H234302   3.118   0.254   3.156  1.1520 -0.2950  0.7552
 4223TIP3   OH234303   1.099   0.371   7.647 -0.4743  0.5675 -0.0839
 4223TIP3    H134304   1.090   0.428   7.724  0.4512 -0.5681  0.8979
 4223TIP3    H234305   1.078   0.284   7.679  1.4571 -0.1780 -0.7011
 4224TIP3   OH234306   2.888   2.768   1.326  0.9382  0.4256  0.6387
 4224TIP3    H134307   2.798   2.788   1.300  1.0084 -1.5607 -1.4596
 4224TIP3    H234308   2.879   2.705   1.397  0.7139  1.3240  1.4283
 4225TIP3   OH234309   0.172   6.554   7.425  0.2661 -0.1018 -0.3529
 4225TIP3    H134310   0.247   6.606   7.453 -0.7257  1.2446 -0.1057
 4225TIP3    H234311   0.173   6.560   7.329  0.3287  0.1371 -0.3390
 4226TIP3   OH234312   0.065   0.601   7.896  0.6650 -0.0415 -0.2615
 4226TIP3    H134313   0.100   0.677   7.850  1.5387  0.7674  1.6119
 4226TIP3    H234314   0.118   0.595   7.976 -0.2007 -1.8839  0.2415
 4227TIP3   OH234315   0.535   6.752   0.961  0.5566 -0.1792 -0.5951
 4227TIP3    H134316   0.542   6.668   1.006  0.7163 -0.6384 -1.4533
 4227TIP3    H234317   0.624   6.788   0.963  0.7079 -0.5101 -1.1135
 4228TIP3   OH234318   5.791   1.721   0.223  0.2843  0.0608 -0.2802
 4228TIP3    H134319   5.859   1.737   0.288  0.4857 -0.6153 -0.3253
 4228TIP3    H234320   5.732   1.797   0.231  0.5008  0.1580  0.4319
 4229TIP3   OH234321   6.828   5.833   3.158 -0.0723 -0.4717 -0.0429
 4229TIP3    H134322   6.781   5.768   3.210  0.5183 -0.9106 -0.0537
 4229TIP3    H234323   6.881   5.881   3.221 -0.8405  0.2998  0.0261
 4230TIP3   OH234324   4.439   2.256   7.895  0.5310 -0.4701  0.1092
 4230TIP3    H134325   4.506   2.237   7.830  1.5882 -0.4515  1.1477
 4230TIP3    H234326   4.451   2.348   7.917 -0.7149 -0.1064 -0.6358
 4231TIP3   OH234327   1.625   3.991   0.701  0.1620 -0.4441  0.1684
 4231TIP3    H134328   1.625   4.079   0.737  2.0389 -0.3596  0.0388
 4231TIP3    H234329   1.707   3.985   0.653  0.3358 -2.4628  0.6529
 4232TIP3   OH234330   2.749   0.576   1.305 -0.0320  0.0763  0.3823
 4232TIP3    H134331   2.710   0.618   1.228  2.2568 -2.3978 -2.3573
 4232TIP3    H234332   2.694   0.499   1.321 -0.8527  0.8871  1.7464
 4233TIP3   OH234333   5.068   0.702   8.106  0.4273 -0.0361 -0.2484
 4233TIP3    H134334   5.153   0.710   8.061  0.6846 -1.0250  0.0489
 4233TIP3    H234335   5.090   0.667   8.192 -0.1546  1.0111  0.3545
 4234TIP3   OH234336   2.423   2.657   1.386 -0.1972 -0.0341  0.2591
 4234TIP3    H134337   2.501   2.690   1.341 -1.0174  1.4030 -0.1583
 4234TIP3    H234338   2.416   2.566   1.358  0.9718 -0.0016 -0.1884
 4235TIP3   OH234339   0.356   0.230   0.433 -0.0966 -0.7127  0.2917
 4235TIP3    H134340   0.299   0.158   0.405 -1.6107  0.2309  0.8215
 4235TIP3    H234341   0.296   0.302   0.451  0.9603 -0.4874  3.5802
 4236TIP3   OH234342   4.704   3.978   2.015 -0.0404 -0.2802 -0.4343
 4236TIP3    H134343   4.703   4.028   1.933  0.0214 -2.3538 -1.7566
 4236TIP3    H234344   4.786   3.930   2.013 -0.2718 -0.7382  0.6304
 4237TIP3   OH234345   0.764   1.019   0.487  0.0306  0.0111  0.2252
 4237TIP3    H134346   0.701   1.047   0.421  0.0265  0.8612  0.5708
 4237TIP3    H234347   0.841   0.991   0.436 -0.6669 -1.1862 -0.2009
 4238TIP3   OH234348   3.676   5.288   0.911  0.3368 -0.2534 -0.2265
 4238TIP3    H134349   3.589   5.323   0.931  0.0237 -1.3263  0.4070
 4238TIP3    H234350   3.736   5.342   0.962  0.1578  1.0971 -1.3937
 4239TIP3   OH234351   2.805   3.790   0.672 -0.1137  0.0830  0.1613
 4239TIP3    H134352   2.735   3.742   0.715  0.2346 -0.9357 -0.3781
 4239TIP3    H234353   2.871   3.802   0.740 -0.5486  0.5407  0.5140
 4240TIP3   OH234354   0.636   1.454   1.830  0.0590 -0.2613  0.2972
 4240TIP3    H134355   0.655   1.468   1.923 -1.2352  1.0639  0.4052
 4240TIP3    H234356   0.603   1.539   1.800  2.3679 -0.0470 -1.8953
 4241TIP3   OH234357   1.919   0.020   1.553  0.2801  0.0794  0.2338
 4241TIP3    H134358   1.905   0.085   1.622 -0.5146 -0.4642  0.5991
 4241TIP3    H234359   1.844  -0.039   1.560  2.3910 -2.6359  1.8669
 4242TIP3   OH234360   6.643   3.232   2.986 -0.0277 -0.2090 -0.1413
 4242TIP3    H134361   6.645   3.243   2.891  0.9510 -0.4820 -0.1688
 4242TIP3    H234362   6.729   3.197   3.008 -0.4686 -0.7618  0.7785
 4243TIP3   OH234363   6.611   1.556   2.915 -0.1382 -0.2091  0.3888
 4243TIP3    H134364   6.679   1.533   2.852 -0.5085 -0.9215  0.2371
 4243TIP3    H234365   6.602   1.651   2.907  1.2779 -0.0165  0.8706
 4244TIP3   OH234366   1.143   0.670   2.818 -0.6067  0.3375  0.5798
 4244TIP3    H134367   1.139   0.699   2.909  0.8080  0.7622  0.5324
 4244TIP3    H234368   1.156   0.751   2.768 -0.9932  0.0694  0.0385
 4245TIP3   OH234369   5.611   2.150   3.094 -0.5912 -0.1236 -0.4136
 4245TIP3    H134370   5.526   2.131   3.133 -0.1145  0.8782  1.1940
 4245TIP3    H234371   5.590   2.185   3.007 -1.6805 -2.0551 -0.9879
 4246TIP3   OH234372   2.738   6.788   0.873  0.2469 -0.3163  0.2474
 4246TIP3    H134373   2.704   6.877   0.875 -0.7371 -0.6795  2.1113
 4246TIP3    H234374   2.667   6.736   0.836 -0.2043 -0.6578  1.5203
 4247TIP3   OH234375   6.250   5.759   3.491 -0.4085  0.6079 -0.0448
 4247TIP3    H134376   6.273   5.676   3.533 -0.9903  0.2281 -0.4552
 4247TIP3    H234377   6.159   5.774   3.516 -0.5303  0.7507 -0.5595
 4248TIP3   OH234378   2.677   5.055   0.204  0.1950  0.0510 -0.1513
 4248TIP3    H134379   2.660   5.039   0.111  1.3503  0.3504 -0.4276
 4248TIP3    H234380   2.750   4.997   0.226 -1.3030 -1.4724  1.0922
 4249TIP3   OH234381   5.747   3.662   0.668  0.0291  0.1171  0.0618
 4249TIP3    H134382   5.765   3.715   0.590 -1.8059 -0.1786 -0.6066
 4249TIP3    H234383   5.725   3.726   0.736  0.0491  0.3095 -0.1113
 4250TIP3   OH234384   1.224   0.077   1.277  0.0247  0.2276  0.3090
 4250TIP3    H134385   1.296   0.037   1.228 -0.0218  1.2745 -0.6596
 4250TIP3    H234386   1.189   0.143   1.218  1.2134  2.9378  2.4301
 4251TIP3   OH234387   4.831   1.601   1.494 -0.1646  0.0248 -0.1969
 4251TIP3    H134388   4.764   1.651   1.541 -1.3299  1.0133 -2.7171
 4251TIP3    H234389   4.878   1.667   1.442 -0.2629 -1.1937 -1.9096
 4252TIP3   OH234390   0.155   3.205   0.891 -0.6044 -0.4636 -0.6181
 4252TIP3    H134391   0.069   3.184   0.853 -0.4559 -0.4029 -0.9975
 4252TIP3    H234392   0.179   3.128   0.942 -1.0472 -0.3380 -0.2119
 4253TIP3   OH234393   0.716   0.365   7.658 -0.2300 -0.0515 -0.6827
 4253TIP3    H134394   0.658   0.417   7.603  0.0485  0.4554 -0.5081
 4253TIP3    H234395   0.788   0.340   7.600 -0.4965 -0.4789 -0.8369
 4254TIP3   OH234396   2.999   6.322   3.371 -0.2461  0.3292 -0.3954
 4254TIP3    H134397   3.061   6.331   3.299  0.5686 -0.7859  0.1417
 4254TIP3    H234398   2.971   6.230   3.368 -1.2582  0.6155 -0.1349
 4255TIP3   OH234399   6.359   2.498   1.328 -0.4396  0.1581 -0.5062
 4255TIP3    H134400   6.390   2.415   1.294  1.5558  0.0710  1.3556
 4255TIP3    H234401   6.283   2.475   1.382 -0.8989 -0.2193 -1.2914
 4256TIP3   OH234402   2.269   4.905   1.790  0.4094 -0.2793 -0.3815
 4256TIP3    H134403   2.176   4.892   1.770 -0.2180 -0.6632  2.3463
 4256TIP3    H234404   2.307   4.818   1.780  0.1964 -0.3814 -0.3237
 4257TIP3   OH234405   0.717   0.730   1.130 -0.1574  0.7445 -0.3366
 4257TIP3    H134406   0.785   0.756   1.192  0.3787 -1.8540  0.2681
 4257TIP3    H234407   0.762   0.724   1.045 -0.0638  0.7912 -0.2897
 4258TIP3   OH234408   0.890   0.048   0.242  0.4860  0.1708  0.0507
 4258TIP3    H134409   0.835   0.093   0.306  1.1377 -1.4627  1.8568
 4258TIP3    H234410   0.980   0.062   0.273  0.7265 -1.9810  0.4570
 4259TIP3   OH234411   6.030   0.960   0.702  0.3560 -0.8455 -0.1063
 4259TIP3    H134412   6.116   1.002   0.700 -0.7424  1.8874  2.7541
 4259TIP3    H234413   5.977   1.011   0.641  0.1357 -0.9777 -0.0248
 4260TIP3   OH234414   2.108   1.371   8.061  0.0359 -0.2916 -0.3117
 4260TIP3    H134415   2.014   1.389   8.067  0.2333  0.3122  2.1462
 4260TIP3    H234416   2.143   1.443   8.010 -0.6781  0.2502 -0.0567
 4261TIP3   OH234417   4.223   1.004   7.549 -0.0292  0.2599  0.0427
 4261TIP3    H134418   4.289   1.041   7.490 -0.7694  0.2359 -0.8221
 4261TIP3    H234419   4.265   0.925   7.584  0.6328  0.5768 -0.0052
 4262TIP3   OH234420   6.982   2.579   2.410  0.4805  0.4459 -0.7489
 4262TIP3    H134421   6.917   2.522   2.452  1.9744 -1.1963 -0.5205
 4262TIP3    H234422   7.059   2.523   2.400  2.3326  2.6700  0.2280
 4263TIP3   OH234423   6.480   1.226   2.299 -0.1001 -0.2266 -0.0553
 4263TIP3    H134424   6.544   1.161   2.271  1.2564  1.1360 -0.2522
 4263TIP3    H234425   6.473   1.213   2.394 -0.2166 -0.9599 -0.1572
 4264TIP3   OH234426   4.083   3.957   3.100 -0.2360 -0.6791  0.3873
 4264TIP3    H134427   4.108   3.882   3.047  1.8667  1.6136 -2.1445
 4264TIP3    H234428   4.163   3.982   3.146 -0.6034  0.6469  0.3375
 4265TIP3   OH234429   4.423   2.885   2.809  0.7077  0.6594 -0.7009
 4265TIP3    H134430   4.334   2.916   2.829  1.3525  2.3298 -0.2913
 4265TIP3    H234431   4.479   2.934   2.868  1.7559 -2.2932  0.9964
 4266TIP3   OH234432   5.856   2.787   0.056  0.6451 -0.1785 -0.2555
 4266TIP3    H134433   5.930   2.790  -0.005  1.9792 -0.1274  1.2801
 4266TIP3    H234434   5.826   2.696   0.053  2.3528 -0.8371  0.8140
 4267TIP3   OH234435   6.437   2.147   2.258 -0.2387 -0.1551 -0.4334
 4267TIP3    H134436   6.378   2.123   2.187 -0.3068  1.0830 -0.8229
 4267TIP3    H234437   6.408   2.234   2.285 -0.2079 -0.6014  1.1101
 4268TIP3   OH234438   1.432   1.691   1.470 -0.6372  0.0794 -0.4605
 4268TIP3    H134439   1.399   1.601   1.469  0.4413 -0.3931  1.3522
 4268TIP3    H234440   1.501   1.691   1.403  1.0171 -1.1839  1.1441
 4269TIP3   OH234441   0.278   5.763   1.765  0.2797 -0.2450 -0.5076
 4269TIP3    H134442   0.326   5.702   1.822 -1.7005  0.1057  1.6733
 4269TIP3    H234443   0.331   5.767   1.685  0.7846 -4.3492 -0.5647
 4270TIP3   OH234444   6.324   0.240   3.541 -0.1166 -0.5085 -0.0430
 4270TIP3    H134445   6.368   0.167   3.585 -1.1150 -0.5882  0.8608
 4270TIP3    H234446   6.359   0.318   3.583  0.9255 -0.4309 -0.9868
 4271TIP3   OH234447   3.167   5.438   0.786 -0.4232 -0.3747 -0.1148
 4271TIP3    H134448   3.208   5.450   0.872 -1.8856  0.8214  0.4577
 4271TIP3    H234449   3.085   5.487   0.791 -0.8114 -0.7383 -2.0211
 4272TIP3   OH234450   6.722   0.908   2.449  0.1729 -0.2557  0.2610
 4272TIP3    H134451   6.748   0.837   2.507  0.4257  0.3628  0.9304
 4272TIP3    H234452   6.719   0.985   2.506 -3.1400 -0.2309  0.2455
 4273TIP3   OH234453   7.067   3.608   2.946  0.2222 -0.3686  0.2072
 4273TIP3    H134454   7.034   3.666   3.015  0.4461  0.0077  0.0005
 4273TIP3    H234455   7.069   3.522   2.986 -0.4557 -0.2949  0.4091
 4274TIP3   OH234456   2.952   2.485   0.444  0.6253  0.3411  0.3012
 4274TIP3    H134457   3.032   2.456   0.489  0.2179 -0.9354  0.2401
 4274TIP3    H234458   2.881   2.448   0.496  0.1122  0.3516 -0.3793
 4275TIP3   OH234459   2.344   0.319   2.072  0.3565  0.3087  0.4366
 4275TIP3    H134460   2.415   0.257   2.092  2.1115  0.9182 -3.0483
 4275TIP3    H234461   2.388   0.403   2.065 -0.9717  0.9567 -0.3933
 4276TIP3   OH234462   5.212   1.676   0.992  0.4428 -0.0393  0.2495
 4276TIP3    H134463   5.235   1.738   0.923  0.5044 -2.2686 -1.8608
 4276TIP3    H234464   5.150   1.616   0.951  0.7831 -1.7068  2.0068
 4277TIP3   OH234465   4.114   0.483   0.021  0.1100 -0.1429  0.0581
 4277TIP3    H134466   4.193   0.537   0.025  0.2012 -0.2236 -0.6044
 4277TIP3    H234467   4.042   0.546   0.017  0.1851 -0.0736 -0.1680
 4278TIP3   OH234468   1.346   1.459   7.888  0.0804 -0.6862  0.1374
 4278TIP3    H134469   1.357   1.368   7.863 -0.2211 -0.3965 -1.0958
 4278TIP3    H234470   1.340   1.507   7.806  0.4849  0.4887  0.7513
 4279TIP3   OH234471   3.097   2.889   8.213 -0.0406  0.3455 -0.5246
 4279TIP3    H134472   3.136   2.964   8.257 -0.5341  0.8585 -0.9276
 4279TIP3    H234473   3.155   2.870   8.139  2.8432 -2.8370  2.2442
 4280TIP3   OH234474   5.900   4.545   0.415 -0.9133 -0.0474 -0.5753
 4280TIP3    H134475   5.979   4.491   0.419 -0.6096  0.3578 -0.9347
 4280TIP3    H234476   5.871   4.538   0.324 -2.2699 -1.5506 -0.0640
 4281TIP3   OH234477   2.783   4.612   1.744  0.3211 -0.1558  0.6140
 4281TIP3    H134478   2.737   4.696   1.739  0.8642  0.1060 -0.3477
 4281TIP3    H234479   2.817   4.599   1.656  0.2003 -1.4223  0.7399
 4282TIP3   OH234480   5.409   3.236   3.224 -0.0457 -0.4167 -0.7392
 4282TIP3    H134481   5.486   3.292   3.235 -1.1411  1.1858 -0.8412
 4282TIP3    H234482   5.445   3.149   3.206  1.7346 -0.4512  2.3890
 4283TIP3   OH234483   3.710   4.305   1.535 -0.0051  0.1165  0.1209
 4283TIP3    H134484   3.732   4.237   1.471  0.1520  1.0029 -0.7935
 4283TIP3    H234485   3.775   4.373   1.520 -1.7049  1.6012 -0.7400
 4284TIP3   OH234486   4.715   5.852   7.792  0.3041  0.3856 -0.1073
 4284TIP3    H134487   4.781   5.806   7.843  0.5167 -0.4897 -1.1458
 4284TIP3    H234488   4.632   5.811   7.816 -0.3776  3.2621  3.2922
 4285TIP3   OH234489   0.548   6.490   7.996 -0.4011  0.3374  0.0035
 4285TIP3    H134490   0.501   6.447   8.067  0.4055  2.4493  1.9723
 4285TIP3    H234491   0.492   6.479   7.919 -0.9149 -2.7410  0.7191
 4286TIP3   OH234492   0.211   1.803   2.752  0.7347  0.3009 -0.1318
 4286TIP3    H134493   0.203   1.877   2.813  1.7733 -0.0840  0.4922
 4286TIP3    H234494   0.158   1.734   2.791  0.1958  0.5245 -0.4449
 4287TIP3   OH234495   1.419   4.009   0.524  0.4896 -0.2505  0.2063
 4287TIP3    H134496   1.465   4.070   0.466 -1.4167  2.5632  1.4167
 4287TIP3    H234497   1.488   3.969   0.577  1.7554  2.9207  1.1853
 4288TIP3   OH234498   7.029   5.135   1.985 -0.3771  0.9092 -0.2721
 4288TIP3    H134499   6.985   5.087   1.915 -1.9716  0.9215  0.6692
 4288TIP3    H234500   7.121   5.137   1.959 -0.4636 -1.5208 -0.9808
 4289TIP3   OH234501   5.528   3.001   3.165  0.3774  0.1803 -0.4366
 4289TIP3    H134502   5.609   2.996   3.216 -0.5902 -1.5722  1.0305
 4289TIP3    H234503   5.536   2.930   3.101 -0.5113 -0.8595  0.5658
 4290TIP3   OH234504   2.756   0.252   1.114  0.1245  0.1214  0.0484
 4290TIP3    H134505   2.839   0.299   1.105 -0.0316  0.3881 -0.0155
 4290TIP3    H234506   2.702   0.310   1.169 -0.1620  0.1417 -0.2489
 4291TIP3   OH234507   2.806   3.304   1.054  0.1041  0.1078  0.4837
 4291TIP3    H134508   2.878   3.348   1.099 -0.1870  1.1881 -0.0701
 4291TIP3    H234509   2.745   3.280   1.124  0.7506 -0.3583  0.9019
 4292TIP3   OH234510   6.132   3.234   0.475 -0.0038  0.4177  1.0053
 4292TIP3    H134511   6.045   3.199   0.491 -0.2184  0.0426 -0.7801
 4292TIP3    H234512   6.157   3.276   0.558 -0.2635 -2.7563  2.8422
 4293TIP3   OH234513   4.265   3.923   7.224  0.1709  0.2311 -0.5519
 4293TIP3    H134514   4.189   3.975   7.250  1.3064  0.1545  3.4935
 4293TIP3    H234515   4.228   3.836   7.206 -0.8167  0.4469  0.3279
 4294TIP3   OH234516   1.203   2.767   4.140  0.1266 -0.2086 -0.0790
 4294TIP3    H134517   1.233   2.734   4.055  1.0730 -1.2839  0.6382
 4294TIP3    H234518   1.132   2.708   4.165  0.7534 -0.7451  0.4764
 4295TIP3   OH234519   2.094   3.725   1.829  0.5552 -0.1990 -0.3368
 4295TIP3    H134520   2.094   3.629   1.832  0.9139 -0.2630 -1.7617
 4295TIP3    H234521   2.184   3.749   1.850  0.3106 -0.1347  0.6715
 4296TIP3   OH234522   0.701   5.614   1.661 -0.2652  0.0833 -0.0019
 4296TIP3    H134523   0.733   5.563   1.586 -0.2909 -0.2247  0.1919
 4296TIP3    H234524   0.777   5.662   1.692  0.0467 -0.7160  0.5168
 4297TIP3   OH234525   6.971   3.316   7.855 -0.6767 -0.7675 -0.0955
 4297TIP3    H134526   6.917   3.281   7.784  3.1999 -0.6457 -3.4517
 4297TIP3    H234527   6.972   3.410   7.840  0.7129 -0.8121 -0.3676
 4298TIP3   OH234528   3.597   2.915   1.579  0.4342 -0.2551 -0.7558
 4298TIP3    H134529   3.643   2.964   1.510  0.6400  0.4497 -0.1349
 4298TIP3    H234530   3.583   2.828   1.541  3.2660 -0.8884 -0.5945
 4299TIP3   OH234531   1.074   4.829   8.074 -0.8137  0.3143  0.3805
 4299TIP3    H134532   1.104   4.798   8.159 -0.3099  1.2135  0.5379
 4299TIP3    H234533   1.042   4.750   8.030 -0.9734 -0.1708  1.3514
 4300TIP3   OH234534   2.935   1.729   1.033  0.6125 -0.1408 -0.1950
 4300TIP3    H134535   2.859   1.744   0.977  1.4794 -2.2069 -2.1233
 4300TIP3    H234536   2.967   1.816   1.054 -0.1963  0.7661 -2.3931
 4301TIP3   OH234537   4.751   1.138   2.652  0.1566  0.9917 -0.1174
 4301TIP3    H134538   4.765   1.067   2.715 -0.1011 -1.1670 -2.3035
 4301TIP3    H234539   4.660   1.165   2.666 -1.1031 -1.9116 -1.7023
 4302TIP3   OH234540   1.679   2.765   3.175 -0.2169 -0.1268  1.0263
 4302TIP3    H134541   1.665   2.782   3.082 -0.2213 -1.7213  0.7113
 4302TIP3    H234542   1.651   2.846   3.218  0.7754  1.0290 -0.4021
 4303TIP3   OH234543   1.149   0.593   7.450 -0.0489  0.2049 -0.3387
 4303TIP3    H134544   1.140   0.510   7.498 -0.1041  1.2212  1.4998
 4303TIP3    H234545   1.126   0.660   7.514 -0.6334  1.6340 -1.9674
 4304TIP3   OH234546   3.612   6.868   2.981  0.1755  0.0647 -0.0220
 4304TIP3    H134547   3.670   6.914   3.042 -1.7796  1.8529  0.5949
 4304TIP3    H234548   3.649   6.780   2.975  2.9434  1.1032  0.2929
 4305TIP3   OH234549   1.097   6.961   2.848 -0.2658  0.8652  0.1464
 4305TIP3    H134550   1.121   7.050   2.872  1.2818  1.4269 -2.9590
 4305TIP3    H234551   1.025   6.973   2.786 -0.1078 -0.0530 -0.2195
 4306TIP3   OH234552   3.682   2.497   2.905 -0.1076  0.2216 -0.4111
 4306TIP3    H134553   3.606   2.481   2.961 -1.3548  3.1105 -1.0891
 4306TIP3    H234554   3.742   2.426   2.925 -2.1435 -1.0560  1.6428
 4307TIP3   OH234555   6.538   4.214   0.857  0.2371  0.7314 -0.6686
 4307TIP3    H134556   6.581   4.299   0.849  1.0111  0.6781  2.1462
 4307TIP3    H234557   6.458   4.232   0.907  0.1605 -0.1297 -0.4679
 4308TIP3   OH234558   6.813   2.113   0.231  0.1945  0.1804 -0.4518
 4308TIP3    H134559   6.871   2.087   0.159  0.6308 -0.4623  0.1186
 4308TIP3    H234560   6.795   2.031   0.278  1.7692  0.8909  1.5208
 4309TIP3   OH234561   1.968   3.252   0.541 -0.0840  0.0504 -0.9328
 4309TIP3    H134562   1.930   3.328   0.498 -0.4745  0.1395 -0.4342
 4309TIP3    H234563   2.012   3.288   0.618  0.6042 -0.1082 -1.2402
 4310TIP3   OH234564   5.737   4.188   0.955 -0.9410  0.3831  0.2017
 4310TIP3    H134565   5.740   4.284   0.949 -1.3472  0.3395 -0.9353
 4310TIP3    H234566   5.829   4.161   0.955 -0.8163  0.7768  0.8375
 4311TIP3   OH234567   5.292   1.240   1.591 -0.1251  0.0914  0.6206
 4311TIP3    H134568   5.339   1.257   1.510  0.9861  2.7042  1.7000
 4311TIP3    H234569   5.204   1.273   1.575  0.4296  1.7756  0.7970
 4312TIP3   OH234570   5.163   3.225   2.164  0.0829 -0.3728 -0.5192
 4312TIP3    H134571   5.106   3.205   2.090 -0.7446  0.1029 -0.0172
 4312TIP3    H234572   5.124   3.178   2.238  0.0308  0.3854 -0.0586
 4313TIP3   OH234573   2.425   4.993   7.595 -0.2066  0.5368  0.2251
 4313TIP3    H134574   2.446   4.963   7.507  1.5117 -0.9369  1.0641
 4313TIP3    H234575   2.331   5.013   7.592 -0.0479  1.2476 -2.0931
 4314TIP3   OH234576   0.784   5.850   3.664  0.4868  0.5445  0.0848
 4314TIP3    H134577   0.852   5.789   3.634 -0.7541 -0.0369 -1.7419
 4314TIP3    H234578   0.717   5.794   3.704 -0.5422  0.6700 -1.3742
 4315TIP3   OH234579   1.177   4.805   3.082 -0.2191  0.4338  0.2019
 4315TIP3    H134580   1.110   4.872   3.066  1.7953  2.7467  0.9336
 4315TIP3    H234581   1.155   4.770   3.169 -1.8496 -0.6920 -0.5865
 4316TIP3   OH234582   2.387   6.990   1.391  0.5063 -0.1197  0.1679
 4316TIP3    H134583   2.439   6.964   1.316  0.3636  1.2000 -0.4246
 4316TIP3    H234584   2.312   7.036   1.354 -0.1954 -0.4891  1.0763
 4317TIP3   OH234585   5.225   4.104   3.007 -0.4534  0.4121 -0.4764
 4317TIP3    H134586   5.269   4.019   3.006 -1.4024 -0.1498  0.9668
 4317TIP3    H234587   5.164   4.098   3.081  1.4046  3.3214  1.5129
 4318TIP3   OH234588   4.691   7.026   3.488 -0.1007 -0.1855 -0.0932
 4318TIP3    H134589   4.666   6.934   3.501 -1.3280 -0.2659 -2.4680
 4318TIP3    H234590   4.611   7.075   3.506 -0.2817  0.1362 -1.6786
 4319TIP3   OH234591   2.851   3.988   7.189 -0.0973  0.3307  0.1317
 4319TIP3    H134592   2.888   3.930   7.122 -2.8866 -0.4416 -0.8940
 4319TIP3    H234593   2.921   3.998   7.253  1.4426 -1.9376 -1.0366
 4320TIP3   OH234594   5.063   3.580   1.943 -0.2381 -0.0860 -0.2424
 4320TIP3    H134595   5.020   3.616   2.021  0.9270  1.4911 -0.2701
 4320TIP3    H234596   4.998   3.589   1.873 -1.1416 -1.1328  0.4297
 4321TIP3   OH234597   6.124   5.048   1.439 -0.2448  0.1018  0.6001
 4321TIP3    H134598   6.122   5.143   1.430 -1.3339 -0.0962 -1.9284
 4321TIP3    H234599   6.187   5.019   1.374 -0.6078 -0.9641  0.7031
 4322TIP3   OH234600   2.131   1.714   1.517  0.6862 -0.3553  0.1448
 4322TIP3    H134601   2.185   1.723   1.438  0.5720 -2.7957 -0.2755
 4322TIP3    H234602   2.157   1.631   1.555 -0.0431  0.2612  2.1266
 4323TIP3   OH234603   2.360   0.628   1.401 -0.3062  0.1708 -0.8706
 4323TIP3    H134604   2.427   0.691   1.375  0.6397  0.0179  1.0170
 4323TIP3    H234605   2.290   0.682   1.437 -0.5500  0.2563 -1.4672
 4324TIP3   OH234606   5.818   1.381   8.045 -0.1344  0.0113  0.0261
 4324TIP3    H134607   5.909   1.355   8.029 -0.3415 -1.3302  0.8654
 4324TIP3    H234608   5.766   1.305   8.018 -1.2883  1.7343 -3.0974
 4325TIP3   OH234609   4.255   1.034   2.421  0.1709 -1.0781  0.2807
 4325TIP3    H134610   4.207   1.056   2.501  0.1779 -0.2934  0.0805
 4325TIP3    H234611   4.328   0.980   2.450 -0.6381 -2.0017  0.6323
 4326TIP3   OH234612   3.777   3.669   0.939  0.0591  0.0824 -0.6451
 4326TIP3    H134613   3.859   3.687   0.986  0.2881 -0.3076 -0.8971
 4326TIP3    H234614   3.804   3.627   0.858 -0.2071  2.2804 -1.9567
 4327TIP3   OH234615   4.123   5.261   0.732  0.1698 -0.5133 -0.4625
 4327TIP3    H134616   4.187   5.302   0.673  2.0426 -0.2350  1.6325
 4327TIP3    H234617   4.131   5.167   0.713 -0.2015 -0.3477 -1.5178
 4328TIP3   OH234618   5.175   0.058   1.908  0.1440  0.2689  0.2364
 4328TIP3    H134619   5.232   0.081   1.981 -1.0427 -0.4053  1.4192
 4328TIP3    H234620   5.136   0.141   1.879 -0.7734  0.3352  1.5909
 4329TIP3   OH234621   4.028   2.881   1.213  0.0363 -0.5351 -0.0989
 4329TIP3    H134622   4.026   2.801   1.161 -0.4964  0.1052 -1.1187
 4329TIP3    H234623   3.988   2.947   1.156  0.0327  0.3499  0.8900
 4330TIP3   OH234624   4.075   5.547   2.286  0.6240 -0.5491  0.1687
 4330TIP3    H134625   4.059   5.640   2.274  2.7877  0.1712  2.1514
 4330TIP3    H234626   4.038   5.506   2.208 -1.8732  1.7415  0.0148
 4331TIP3   OH234627   6.264   4.458   1.126 -0.1045  0.0941  0.3073
 4331TIP3    H134628   6.224   4.530   1.174  0.3589  1.2257 -0.9568
 4331TIP3    H234629   6.271   4.489   1.036  1.5568 -0.9175  0.0413
 4332TIP3   OH234630   0.734   1.503   0.411  0.4911  0.4590  0.2063
 4332TIP3    H134631   0.818   1.465   0.385 -0.6345  0.0286 -3.2860
 4332TIP3    H234632   0.675   1.485   0.338 -2.5759  1.1504  2.2940
 4333TIP3   OH234633   1.630   5.734   2.544  0.3650  0.0278 -0.0512
 4333TIP3    H134634   1.580   5.654   2.525  0.9402  0.2136 -2.6368
 4333TIP3    H234635   1.574   5.782   2.605 -0.6964 -1.6273  0.3772
 4334TIP3   OH234636   3.390   0.556   7.873  0.2189  0.5794  0.1524
 4334TIP3    H134637   3.304   0.516   7.862  1.3864 -1.7226 -1.4941
 4334TIP3    H234638   3.372   0.648   7.889 -2.5495  0.0650  0.5618
 4335TIP3   OH234639   3.774   6.924   3.197 -0.1059 -0.6633 -0.4856
 4335TIP3    H134640   3.780   6.904   3.290 -0.7852 -0.5647 -0.4186
 4335TIP3    H234641   3.854   6.973   3.178 -0.7684  0.8553  0.4396
 4336TIP3   OH234642   5.059   1.151   2.803 -0.0362  0.2168 -0.4051
 4336TIP3    H134643   4.984   1.094   2.819 -0.6399  1.2064  0.3607
 4336TIP3    H234644   5.080   1.138   2.710 -1.6988  0.5937 -0.8555
 4337TIP3   OH234645   1.366   1.527   0.099  1.1599  0.2482 -1.2024
 4337TIP3    H134646   1.353   1.451   0.156  0.8195 -0.7768 -2.5901
 4337TIP3    H234647   1.387   1.489   0.014 -2.7999  1.5030 -2.9832
 4338TIP3   OH234648   0.475   2.753   3.469 -0.0958 -1.0791  0.0957
 4338TIP3    H134649   0.384   2.781   3.462 -0.7062 -2.2277  2.3681
 4338TIP3    H234650   0.484   2.686   3.401 -1.0403 -1.1700  0.0459
 4339TIP3   OH234651   0.902   5.280   3.318  0.3056  0.1353 -0.0607
 4339TIP3    H134652   0.854   5.258   3.398  1.2632  1.3394  0.8877
 4339TIP3    H234653   0.880   5.372   3.301  1.8006  0.5489  0.0840
 4340TIP3   OH234654   0.894   2.069   2.421 -0.2235 -0.7288  0.0038
 4340TIP3    H134655   0.916   1.977   2.431 -0.9113 -0.9501 -0.4515
 4340TIP3    H234656   0.825   2.071   2.355  0.6610  0.2263 -0.9329
 4341TIP3   OH234657   6.870   4.779   3.050 -0.2231 -0.1082 -0.5726
 4341TIP3    H134658   6.831   4.783   2.962  0.6924  0.8242 -0.9521
 4341TIP3    H234659   6.923   4.699   3.049  0.8405  0.5816 -1.3392
 4342TIP3   OH234660   0.307   4.034   1.205  0.3397 -0.5842  0.5945
 4342TIP3    H134661   0.225   4.060   1.247  0.9653  0.9118  0.9602
 4342TIP3    H234662   0.357   4.116   1.198  2.1748 -1.6006  1.2357
 4343TIP3   OH234663   5.126   1.111   0.409  0.0113 -0.3777 -0.2766
 4343TIP3    H134664   5.039   1.071   0.401 -0.4813  0.7016 -0.5885
 4343TIP3    H234665   5.170   1.060   0.476 -0.7631 -1.1281 -0.3221
 4344TIP3   OH234666   0.999   2.192   1.261 -0.2076 -0.4628  0.2714
 4344TIP3    H134667   1.070   2.150   1.212  1.2461  0.9139  1.1407
 4344TIP3    H234668   0.946   2.234   1.193  0.0606 -1.0749 -0.3421
 4345TIP3   OH234669   5.118   0.617   0.369  0.2130 -0.3103 -0.1086
 4345TIP3    H134670   5.082   0.543   0.320 -1.7789  0.8406 -0.5125
 4345TIP3    H234671   5.210   0.621   0.343  0.1824 -2.1743 -0.6195
 4346TIP3   OH234672   2.378   3.774   0.447  0.0766  0.4031 -0.0500
 4346TIP3    H134673   2.382   3.727   0.530 -0.5528 -0.7289 -0.6508
 4346TIP3    H234674   2.387   3.867   0.472  1.4512 -0.0035  1.1329
 4347TIP3   OH234675   0.387   4.215   2.934 -0.0140  0.3143  0.2181
 4347TIP3    H134676   0.477   4.187   2.951 -0.2205 -0.0087  0.8076
 4347TIP3    H234677   0.333   4.145   2.971 -0.6217  2.3855  3.7554
 4348TIP3   OH234678   4.413   4.758   2.251 -0.0662 -0.9411  0.0277
 4348TIP3    H134679   4.342   4.716   2.301 -1.3998 -0.3802 -1.3114
 4348TIP3    H234680   4.469   4.798   2.317 -1.2996 -0.9551  1.1226
 4349TIP3   OH234681   5.007   6.878   3.922  0.4572 -0.1814 -0.6473
 4349TIP3    H134682   5.031   6.867   3.830  0.2108  1.1440 -0.8882
 4349TIP3    H234683   5.090   6.891   3.968  0.5781 -0.8260 -0.6720
 4350TIP3   OH234684   5.323   0.108   2.294 -0.4141  0.3237  0.0428
 4350TIP3    H134685   5.316   0.165   2.218  3.0063  0.1288 -0.5903
 4350TIP3    H234686   5.255   0.041   2.282 -0.8743  1.1185 -2.0701
 4351TIP3   OH234687   2.469   6.776   0.580  0.3076 -0.0329  0.1025
 4351TIP3    H134688   2.405   6.750   0.514  0.2895 -1.5549  0.6687
 4351TIP3    H234689   2.546   6.722   0.562 -0.1033 -1.3508  1.9738
 4352TIP3   OH234690   4.152   3.333   8.050  0.1573 -0.1469 -0.1493
 4352TIP3    H134691   4.089   3.326   7.978  0.7292 -1.7648 -0.5160
 4352TIP3    H234692   4.237   3.339   8.008  0.4899 -0.9762  0.3850
 4353TIP3   OH234693   4.922   0.935   0.956  0.4367  0.3554  0.4764
 4353TIP3    H134694   4.967   0.920   1.040  0.0142  0.9658  0.8146
 4353TIP3    H234695   4.895   0.847   0.928  2.2963 -0.1171 -0.0151
 4354TIP3   OH234696   0.776   0.974   1.900 -0.2904  0.5365 -0.0680
 4354TIP3    H134697   0.806   0.972   1.809 -0.6760  2.0540 -0.2562
 4354TIP3    H234698   0.769   0.882   1.925 -0.5019  0.0881 -1.6847
 4355TIP3   OH234699   6.662   4.408   1.417  0.0884  0.5189  0.0829
 4355TIP3    H134700   6.592   4.405   1.482  2.2914  1.3070  2.6972
 4355TIP3    H234701   6.714   4.329   1.435  0.8854  0.8915 -0.5348
 4356TIP3   OH234702   1.835   5.422   2.620  0.0214 -0.2937 -0.0819
 4356TIP3    H134703   1.868   5.481   2.689  0.3846 -1.6654  0.9658
 4356TIP3    H234704   1.740   5.420   2.633  0.1196 -0.8069  0.6225
 4357TIP3   OH234705   3.239   2.397   0.442 -0.0785  0.2734 -0.4401
 4357TIP3    H134706   3.335   2.395   0.442 -0.0778  0.2453 -0.6266
 4357TIP3    H234707   3.213   2.305   0.447 -0.1146  0.3432  1.7832
 4358TIP3   OH234708   1.979   5.468   2.031 -0.2955  0.5755  0.4697
 4358TIP3    H134709   1.974   5.557   2.067 -0.3280  0.9387 -0.4116
 4358TIP3    H234710   2.068   5.463   1.995  0.0450 -0.0915  1.3579
 4359TIP3   OH234711   3.389   6.892   3.265 -0.1671  0.0291 -0.1782
 4359TIP3    H134712   3.385   6.803   3.229  0.5836 -0.7904  1.6420
 4359TIP3    H234713   3.457   6.888   3.331  0.0247  2.0475 -0.2027
 4360TIP3   OH234714   6.370   5.781   0.746  0.0116 -0.0067 -0.3269
 4360TIP3    H134715   6.403   5.696   0.776 -0.3832  0.3007  1.0394
 4360TIP3    H234716   6.448   5.827   0.716  0.3358 -0.5668 -0.3628
 4361TIP3   OH234717   0.731   1.674   7.975 -0.0074 -0.5880  0.1566
 4361TIP3    H134718   0.689   1.620   8.042  0.1703  0.2598  0.9604
 4361TIP3    H234719   0.663   1.736   7.949  1.4036  2.7897  3.5865
 4362TIP3   OH234720   2.659   5.319   2.222  0.6439  0.2306 -0.3061
 4362TIP3    H134721   2.751   5.342   2.219  0.3796  1.3909 -4.2956
 4362TIP3    H234722   2.651   5.242   2.166 -0.5142 -1.7787  2.3463
 4363TIP3   OH234723   0.993   5.376   1.830  0.1881  0.0259  0.3716
 4363TIP3    H134724   0.949   5.355   1.747 -1.6688  1.8148  0.8289
 4363TIP3    H234725   1.057   5.444   1.806 -0.6485  0.8565  0.4432
 4364TIP3   OH234726   0.079   5.205   3.353 -0.2181  0.0115  0.0643
 4364TIP3    H134727   0.049   5.295   3.343 -1.5625 -0.6384 -3.2533
 4364TIP3    H234728   0.151   5.196   3.290 -0.6236 -1.3681 -0.2482
 4365TIP3   OH234729   1.699   4.786   1.871  0.1729  0.3007  0.1649
 4365TIP3    H134730   1.634   4.734   1.920  0.4867 -1.4695 -1.1920
 4365TIP3    H234731   1.758   4.820   1.938 -0.9192  0.1641  1.2373
 4366TIP3   OH234732   2.242   6.975   0.448 -0.0319  0.0593  0.1709
 4366TIP3    H134733   2.171   7.017   0.496 -1.5852  0.0104 -1.9339
 4366TIP3    H234734   2.209   6.888   0.427  1.1400 -0.4055  0.1714
 4367TIP3   OH234735   2.288   1.715   2.892  0.1145 -0.2396  0.2815
 4367TIP3    H134736   2.358   1.746   2.835  0.5846  0.2889  1.1463
 4367TIP3    H234737   2.304   1.756   2.977 -0.6250 -0.9591  0.7908
 4368TIP3   OH234738   5.320   0.189   2.570 -0.2218 -0.3915 -0.2521
 4368TIP3    H134739   5.332   0.277   2.607  2.1067 -1.2436  1.2085
 4368TIP3    H234740   5.346   0.199   2.478 -3.2892  1.1037 -1.1042
 4369TIP3   OH234741   6.565   1.724   3.413 -0.6381  0.3394  0.3147
 4369TIP3    H134742   6.649   1.684   3.436 -0.1746  2.1166  2.0528
 4369TIP3    H234743   6.527   1.665   3.348  0.2767 -2.4924  2.1492
 4370TIP3   OH234744   1.543   6.891   1.746 -0.4033 -0.0304 -0.3000
 4370TIP3    H134745   1.564   6.971   1.697 -0.2856  0.8419  1.1115
 4370TIP3    H234746   1.448   6.887   1.745 -0.4038  0.0123 -0.5549
 4371TIP3   OH234747   5.771   6.428   0.722  0.1584  0.7826  0.4481
 4371TIP3    H134748   5.786   6.340   0.685 -0.9260  0.1833  1.3540
 4371TIP3    H234749   5.777   6.486   0.647  1.1340 -0.0382 -0.1386
 4372TIP3   OH234750   6.037   3.157   2.357 -0.1197  0.5367  0.5472
 4372TIP3    H134751   5.944   3.135   2.349 -0.0651 -0.1722  1.6642
 4372TIP3    H234752   6.067   3.167   2.267 -0.6611 -1.8761  0.0405
 4373TIP3   OH234753   4.987   4.888   1.144  0.4783  0.2417 -0.0971
 4373TIP3    H134754   4.917   4.866   1.083  0.2166  1.8586 -0.4163
 4373TIP3    H234755   4.973   4.829   1.218 -1.8120  1.1616  0.2712
 4374TIP3   OH234756   0.834   4.008   8.208 -0.0215 -0.6547 -0.5942
 4374TIP3    H134757   0.902   3.958   8.163  0.2197 -1.8430  1.0090
 4374TIP3    H234758   0.796   3.947   8.270  0.5897  1.2136  1.7775
 4375TIP3   OH234759   2.737   0.349   0.430  0.0868 -0.2644 -0.1800
 4375TIP3    H134760   2.738   0.273   0.372 -1.9461 -0.6864  0.2366
 4375TIP3    H234761   2.644   0.370   0.440  0.5501  3.1874 -1.4240
 4376TIP3   OH234762   2.594   5.881   1.580 -0.4009  0.4146 -0.2333
 4376TIP3    H134763   2.529   5.944   1.550  1.0081  1.3597 -1.4321
 4376TIP3    H234764   2.599   5.894   1.674 -2.0623  0.1643 -0.0762
 4377TIP3   OH234765   3.725   5.786   3.012  0.4118  0.2627  0.4538
 4377TIP3    H134766   3.679   5.702   3.021  0.8507 -0.0054  0.2460
 4377TIP3    H234767   3.691   5.839   3.084  0.8177 -0.4253  1.1707
 4378TIP3   OH234768   3.410   7.056   1.830 -0.7047  0.3518  0.0671
 4378TIP3    H134769   3.327   7.096   1.803 -0.3419 -0.4360 -2.4797
 4378TIP3    H234770   3.411   6.971   1.786  2.5374  1.3587 -2.1670
 4379TIP3   OH234771   1.788   2.436   1.545  0.3578 -0.3408 -0.0830
 4379TIP3    H134772   1.752   2.348   1.533  0.3133 -0.0998 -2.0138
 4379TIP3    H234773   1.716   2.486   1.583 -2.1888  0.4999 -5.0855
 4380TIP3   OH234774   3.438   0.546   2.292 -0.2512  0.2584  0.2039
 4380TIP3    H134775   3.474   0.459   2.273 -0.7262  0.2343 -0.6327
 4380TIP3    H234776   3.406   0.539   2.381  1.1638  0.0680  0.7271
 4381TIP3   OH234777   3.779   4.790   2.298 -0.4543  0.4185  0.2006
 4381TIP3    H134778   3.845   4.780   2.229 -0.1546 -0.9785  0.6631
 4381TIP3    H234779   3.824   4.764   2.379 -1.6740 -1.0785  0.4565
 4382TIP3   OH234780   4.558   1.383   2.419 -0.1769 -0.4109 -0.7838
 4382TIP3    H134781   4.648   1.402   2.393 -0.0523 -1.9998 -1.6171
 4382TIP3    H234782   4.525   1.324   2.352 -1.7269 -0.1765 -0.2784
 4383TIP3   OH234783   2.431   0.639   2.560 -0.3243  0.1436 -0.2732
 4383TIP3    H134784   2.351   0.680   2.591  0.3292  1.3893 -0.1821
 4383TIP3    H234785   2.431   0.654   2.465 -0.3815 -0.2066 -0.3322
 4384TIP3   OH234786   6.345   2.666   2.841 -0.4345 -0.0982 -0.1830
 4384TIP3    H134787   6.356   2.729   2.770  0.4894  0.4706  0.4487
 4384TIP3    H234788   6.323   2.584   2.797  0.5533  0.1358 -1.1656
 4385TIP3   OH234789   6.439   3.298   1.464  0.2682 -0.3575 -0.3225
 4385TIP3    H134790   6.476   3.317   1.377 -0.1401 -2.3552 -0.9856
 4385TIP3    H234791   6.368   3.236   1.447 -1.5591  1.2047  1.2155
 4386TIP3   OH234792   6.157   2.683   1.778 -0.4721  0.7998 -0.2701
 4386TIP3    H134793   6.126   2.666   1.689 -0.5284  1.7981 -0.4491
 4386TIP3    H234794   6.219   2.756   1.768 -0.2774  0.7383  0.4744
 4387TIP3   OH234795   1.947   6.312   0.371  0.2727 -0.5252  0.0574
 4387TIP3    H134796   1.952   6.216   0.363  0.4289 -0.4410 -0.8837
 4387TIP3    H234797   2.032   6.343   0.340  0.9066 -0.1519  1.9863
 4388TIP3   OH234798   1.858   2.646   1.816 -0.0444 -0.4520  0.2485
 4388TIP3    H134799   1.846   2.740   1.802  2.9923  0.2008  1.1373
 4388TIP3    H234800   1.801   2.625   1.889 -2.3904  0.1539 -1.3057
 4389TIP3   OH234801   0.696   0.964   0.218 -0.4663 -0.1163 -0.3453
 4389TIP3    H134802   0.632   0.985   0.150  0.3061 -0.1110 -1.0810
 4389TIP3    H234803   0.738   0.883   0.188 -0.1040 -0.1015  0.1083
 4390TIP3   OH234804   2.535   2.278   1.101 -0.0602 -0.0462 -0.2271
 4390TIP3    H134805   2.553   2.333   1.177  0.0542 -0.5791  0.1396
 4390TIP3    H234806   2.596   2.204   1.110  0.9551  0.5864 -1.5998
 4391TIP3   OH234807   0.190   0.731   1.028  0.0266 -0.3054  0.5707
 4391TIP3    H134808   0.170   0.821   1.000  0.7738 -0.5907 -1.0303
 4391TIP3    H234809   0.105   0.690   1.038 -0.3260 -0.0924 -1.1645
 4392TIP3   OH234810   1.506   5.206   1.395  0.3615 -0.0830  0.9392
 4392TIP3    H134811   1.565   5.241   1.462  2.2147 -1.7102  0.2587
 4392TIP3    H234812   1.515   5.111   1.402 -0.3545 -0.3206 -0.8039
 4393TIP3   OH234813   4.107   3.410   0.278  0.2593  0.1147 -0.0054
 4393TIP3    H134814   4.183   3.369   0.238 -1.1032 -1.4109 -1.1456
 4393TIP3    H234815   4.077   3.474   0.213 -0.6296 -0.7592 -0.4700
 4394TIP3   OH234816   5.152   0.982   3.073 -0.9817 -0.3444 -0.7781
 4394TIP3    H134817   5.142   1.072   3.044 -1.3996 -0.4180 -0.8693
 4394TIP3    H234818   5.177   0.989   3.165 -2.8048 -0.1540 -0.2586
 4395TIP3   OH234819   5.795   5.505   1.392 -0.0784 -0.0076 -0.1035
 4395TIP3    H134820   5.744   5.585   1.408 -0.3251 -0.2982  0.6386
 4395TIP3    H234821   5.876   5.535   1.352 -0.3466  0.5714 -0.2264
 4396TIP3   OH234822   5.416   5.757   1.598 -0.4744  0.9308  0.0254
 4396TIP3    H134823   5.323   5.737   1.584 -0.4109  0.4094  0.3170
 4396TIP3    H234824   5.418   5.808   1.678 -0.3802 -0.3207  0.8410
 4397TIP3   OH234825   1.442   3.356   0.699  0.2978 -0.0882 -0.3122
 4397TIP3    H134826   1.529   3.384   0.729 -0.6591  0.9915  1.6824
 4397TIP3    H234827   1.417   3.286   0.760 -0.7837  0.5769  0.0397
 4398TIP3   OH234828   5.129   1.859   3.317  0.5124  0.1865 -0.2623
 4398TIP3    H134829   5.083   1.901   3.245 -0.0447 -0.1757 -0.1275
 4398TIP3    H234830   5.154   1.931   3.375  0.0420  0.3826 -0.2994
 4399TIP3   OH234831   1.656   1.976   1.889  0.0292  0.6232 -0.2086
 4399TIP3    H134832   1.706   1.914   1.941  1.3898  2.2743  0.5392
 4399TIP3    H234833   1.598   1.922   1.836  1.7248 -1.3050 -0.1943
 4400TIP3   OH234834   6.755   4.779   2.813 -0.3924  0.2373 -0.0646
 4400TIP3    H134835   6.716   4.692   2.824 -0.1600  0.1415  0.0208
 4400TIP3    H234836   6.706   4.818   2.742  0.1511 -0.3480 -0.7782
 4401TIP3   OH234837   6.514   3.565   1.121 -0.4696 -0.1637  0.4670
 4401TIP3    H134838   6.547   3.539   1.035  0.1836  0.2690  0.5837
 4401TIP3    H234839   6.510   3.483   1.171 -0.5839 -0.3732  0.1226
 4402TIP3   OH234840   0.395   3.632   0.940  0.4319 -0.0660 -0.1526
 4402TIP3    H134841   0.362   3.542   0.942  1.9395 -0.6445  0.2527
 4402TIP3    H234842   0.316   3.687   0.942 -0.4997 -1.3668  0.6700
 4403TIP3   OH234843   7.052   2.386   0.823  0.4508  0.8014 -0.6444
 4403TIP3    H134844   6.978   2.370   0.764 -0.3388 -2.2071  0.9460
 4403TIP3    H234845   7.012   2.415   0.905  0.9125 -1.2218  0.3526
 4404TIP3   OH234846   2.029   3.027   2.439  0.0597 -0.4217  0.1046
 4404TIP3    H134847   2.002   3.119   2.446 -0.1713 -0.2847 -1.9654
 4404TIP3    H234848   1.950   2.981   2.410  0.1841 -1.2855  1.0862
 4405TIP3   OH234849   2.712   4.656   0.963  0.1695  0.3699  0.4826
 4405TIP3    H134850   2.793   4.631   0.917 -1.0028 -0.5529 -1.2094
 4405TIP3    H234851   2.705   4.750   0.949  2.2913  0.9942  2.9861
 4406TIP3   OH234852   3.500   4.950   1.791  0.4624  0.0095 -0.0357
 4406TIP3    H134853   3.547   4.877   1.832  0.2059  1.3335  2.8797
 4406TIP3    H234854   3.425   4.965   1.849 -0.1252  1.8702 -1.1983
 4407TIP3   OH234855   0.551   0.973   8.260 -0.1121 -0.7620 -0.0658
 4407TIP3    H134856   0.603   0.971   8.179  0.6529 -1.1046  0.4265
 4407TIP3    H234857   0.466   1.007   8.232 -0.1513 -1.6839 -1.1854
 4408TIP3   OH234858   2.047   2.522   1.609 -0.2847  0.3855  0.2446
 4408TIP3    H134859   2.087   2.474   1.681 -0.4203  1.1452  0.8400
 4408TIP3    H234860   1.953   2.509   1.621 -0.3241  0.8475  0.4460
 4409TIP3   OH234861   5.715   0.046   0.047 -0.2657  0.4467  0.2408
 4409TIP3    H134862   5.673   0.023   0.130  0.8439  0.4025  0.8193
 4409TIP3    H234863   5.805   0.068   0.072 -0.1138  1.1459 -0.8684
 4410TIP3   OH234864   5.360   3.263   7.441 -0.0549  0.0263 -0.5396
 4410TIP3    H134865   5.264   3.265   7.441 -0.0625  1.7946  0.9473
 4410TIP3    H234866   5.382   3.191   7.501 -0.5316  1.5787  1.6072
 4411TIP3   OH234867   1.433   1.074   1.628 -0.1376  0.1289 -0.0683
 4411TIP3    H134868   1.410   1.056   1.719  3.3306 -1.6697  0.6143
 4411TIP3    H234869   1.466   1.164   1.630  0.0600  0.0491  0.4716
 4412TIP3   OH234870   7.061   0.702   1.552  0.3776  0.2871 -0.5248
 4412TIP3    H134871   7.113   0.634   1.508  3.2134  1.3827  0.9365
 4412TIP3    H234872   7.099   0.785   1.523 -1.2159  1.2087 -0.1266
 4413TIP3   OH234873   5.890   5.422   1.812  0.7307 -0.1850 -0.2832
 4413TIP3    H134874   5.962   5.381   1.764  0.7052  1.1464 -1.5788
 4413TIP3    H234875   5.933   5.485   1.870  0.6432  1.7983 -2.2377
 4414TIP3   OH234876   0.542   0.070   2.845 -0.2893 -0.4799  0.3525
 4414TIP3    H134877   0.519   0.071   2.939 -3.1291  0.2025 -0.2354
 4414TIP3    H234878   0.493  -0.004   2.810  0.9522 -0.8735 -0.5750
 4415TIP3   OH234879   3.095   6.742   2.804 -0.1938 -0.0268  0.2230
 4415TIP3    H134880   3.090   6.808   2.735 -1.8239  1.4687  1.6838
 4415TIP3    H234881   3.159   6.777   2.866  1.2483 -1.3520 -0.4467
 4416TIP3   OH234882   2.939   1.241   0.444 -0.1947  0.6838 -0.0145
 4416TIP3    H134883   3.002   1.233   0.516 -0.4728  1.6957  0.3624
 4416TIP3    H234884   2.980   1.300   0.382 -0.2450  0.3470 -0.3738
 4417TIP3   OH234885   3.699   0.496   2.631 -0.3114 -0.0909  0.7032
 4417TIP3    H134886   3.707   0.591   2.621 -1.3133  0.0357  1.0599
 4417TIP3    H234887   3.789   0.467   2.649 -0.0529  0.8359  0.9951
 4418TIP3   OH234888   1.748   3.582   8.221 -1.1240  0.1224 -0.0038
 4418TIP3    H134889   1.673   3.547   8.174 -1.0779 -0.4708  0.3580
 4418TIP3    H234890   1.784   3.507   8.268  0.3942  0.1162 -1.0719
 4419TIP3   OH234891   1.823   1.411   2.707  0.1115 -0.2093  0.2177
 4419TIP3    H134892   1.729   1.394   2.716  0.1985 -0.6493  0.3348
 4419TIP3    H234893   1.859   1.387   2.793  0.3184  0.0251  0.1947
 4420TIP3   OH234894   5.458   4.297   7.333  0.3144  0.2608  0.1328
 4420TIP3    H134895   5.364   4.315   7.323  0.5683  1.7982  0.2768
 4420TIP3    H234896   5.479   4.239   7.259 -0.9895 -1.1980  0.8492
 4421TIP3   OH234897   1.121   6.973   8.113  0.5571  0.1820  0.3298
 4421TIP3    H134898   1.147   6.920   8.188 -0.7312 -1.3753 -0.2416
 4421TIP3    H234899   1.191   6.960   8.049  0.8818  0.2297  0.6729
 4422TIP3   OH234900   4.243   4.548   0.419 -0.1952  0.1813  0.7637
 4422TIP3    H134901   4.214   4.487   0.487 -0.0678  2.0078  2.5529
 4422TIP3    H234902   4.162   4.584   0.384 -0.2398  0.4486  1.1327
 4423TIP3   OH234903   6.543   1.021   1.270  0.4031 -0.9775  0.0705
 4423TIP3    H134904   6.494   0.952   1.315  2.3981 -3.1135 -0.8385
 4423TIP3    H234905   6.629   1.022   1.311  1.0242 -0.3508 -1.1666
 4424TIP3   OH234906   5.457   3.850   0.657  0.3787 -0.3301  0.0148
 4424TIP3    H134907   5.391   3.847   0.588  0.4820  0.8779 -0.1668
 4424TIP3    H234908   5.536   3.882   0.614  0.1737  1.4331  0.8566
 4425TIP3   OH234909   6.111   1.606   2.995 -0.3144  0.1764 -0.4462
 4425TIP3    H134910   6.164   1.546   3.046  2.1616  0.8940 -1.9736
 4425TIP3    H234911   6.076   1.668   3.059 -0.8746 -1.3898  0.8293
 4426TIP3   OH234912   5.206   6.165   3.046 -0.2573 -0.0233  0.2775
 4426TIP3    H134913   5.233   6.113   2.970  1.6330  0.4801  0.5530
 4426TIP3    H234914   5.186   6.251   3.011 -1.0162 -0.2384  0.1538
 4427TIP3   OH234915   1.778   0.595   7.918 -0.1425 -0.1390 -0.0866
 4427TIP3    H134916   1.784   0.658   7.846 -0.4379 -0.2814 -0.2362
 4427TIP3    H234917   1.754   0.512   7.876 -0.2488 -0.2377  0.1667
 4428TIP3   OH234918   4.007   5.805   0.635  0.0526 -0.1970  0.8578
 4428TIP3    H134919   4.053   5.729   0.600 -1.0704 -1.5785  2.2174
 4428TIP3    H234920   3.918   5.774   0.651 -0.8323  1.8178  0.2005
 4429TIP3   OH234921   6.879   6.286   3.077 -0.0223 -0.5136  0.6369
 4429TIP3    H134922   6.900   6.193   3.074 -0.3177 -0.5646 -0.5313
 4429TIP3    H234923   6.962   6.330   3.060  0.3230 -0.5111  2.1861
 4430TIP3   OH234924   2.670   6.459   3.070  0.6817 -0.0188  0.3030
 4430TIP3    H134925   2.712   6.535   3.109  0.2025  0.4935 -0.1597
 4430TIP3    H234926   2.688   6.388   3.132  0.2114  0.6976  1.3020
 4431TIP3   OH234927   1.446   6.172   3.914 -0.0327 -0.9453  0.3962
 4431TIP3    H134928   1.428   6.251   3.964  1.6734 -0.5980  0.5425
 4431TIP3    H234929   1.396   6.181   3.833  0.0577  0.2322  0.4579
 4432TIP3   OH234930   3.257   0.984   2.496 -0.2719 -0.1214 -0.3109
 4432TIP3    H134931   3.299   1.054   2.447  1.3945 -0.2649  0.8206
 4432TIP3    H234932   3.271   0.906   2.443  1.6466 -0.3036  0.3855
 4433TIP3   OH234933   7.050   6.941   2.620 -0.0153 -0.4113  0.5919
 4433TIP3    H134934   7.109   7.004   2.660 -0.5621  0.6479 -0.2164
 4433TIP3    H234935   6.968   6.989   2.610 -0.8571 -1.6796  1.1831
 4434TIP3   OH234936   1.215   4.014   0.749  0.1947  0.9541  0.0304
 4434TIP3    H134937   1.297   4.047   0.713  0.6042  0.3834  0.4274
 4434TIP3    H234938   1.212   3.922   0.724  0.3249  0.6329  1.1498
 4435TIP3   OH234939   5.147   2.262   1.015 -0.1916 -0.1495  0.0249
 4435TIP3    H134940   5.091   2.247   0.939  1.2218 -0.9511 -0.9162
 4435TIP3    H234941   5.117   2.198   1.080 -0.3519 -0.5808 -0.4705
 4436TIP3   OH234942   4.172   0.138   1.677  0.4160  0.1791  0.8065
 4436TIP3    H134943   4.240   0.072   1.691 -1.0732 -1.9892 -1.4228
 4436TIP3    H234944   4.095   0.103   1.723 -0.5936 -0.1271 -0.9983
 4437TIP3   OH234945   4.155   0.420   1.213 -0.1930 -0.3358  0.0814
 4437TIP3    H134946   4.120   0.336   1.241 -0.5609 -0.1828  0.0902
 4437TIP3    H234947   4.153   0.416   1.117 -1.3454  0.1193  0.0754
 4438TIP3   OH234948   6.784   6.838   0.179  0.1659  0.1793 -0.1242
 4438TIP3    H134949   6.848   6.877   0.239 -1.9361  2.1497  0.9826
 4438TIP3    H234950   6.800   6.883   0.095 -0.1689  1.1593  0.3239
 4439TIP3   OH234951   0.829   0.369   0.689 -0.2103  0.2094  0.1231
 4439TIP3    H134952   0.883   0.417   0.626  0.5388  0.4061  0.8971
 4439TIP3    H234953   0.864   0.280   0.687 -2.3726 -0.7272 -2.2114
 4440TIP3   OH234954   2.853   0.724   1.626 -0.2804  0.7027 -0.5389
 4440TIP3    H134955   2.781   0.786   1.614 -1.0756 -0.1009 -0.0760
 4440TIP3    H234956   2.870   0.725   1.721  0.2233  0.7738 -0.6240
 4441TIP3   OH234957   3.396   0.959   3.545 -0.4992 -0.1228  0.0872
 4441TIP3    H134958   3.433   0.995   3.464 -0.6965  0.2341  0.1519
 4441TIP3    H234959   3.388   1.035   3.603  0.7991 -0.5831  0.8946
 4442TIP3   OH234960   1.431   0.741   2.890 -0.7011  0.1257 -0.3289
 4442TIP3    H134961   1.370   0.799   2.844 -0.6719  0.5886  0.2082
 4442TIP3    H234962   1.474   0.691   2.820 -2.1158 -0.6361 -0.6882
 4443TIP3   OH234963   1.953   4.263   1.356  0.3206  0.2630 -0.5648
 4443TIP3    H134964   2.025   4.259   1.293  0.1767  1.6000 -0.8339
 4443TIP3    H234965   1.875   4.271   1.301  0.0839  0.1723 -0.2404
 4444TIP3   OH234966   5.115   1.291   2.520 -0.3022 -0.1154  0.0765
 4444TIP3    H134967   5.035   1.334   2.552 -0.6889 -2.0620  1.9668
 4444TIP3    H234968   5.084   1.229   2.454 -0.2997 -0.5081  0.4411
 4445TIP3   OH234969   3.021   4.218   2.374 -0.0192  0.0137 -0.3667
 4445TIP3    H134970   2.993   4.274   2.302 -1.1712 -0.3223 -0.1985
 4445TIP3    H234971   3.015   4.129   2.339  1.4331 -0.0509 -0.5121
 4446TIP3   OH234972   2.374   3.081   1.711  0.1563  0.0411  0.6759
 4446TIP3    H134973   2.401   3.115   1.796  0.0427 -0.5372  0.9511
 4446TIP3    H234974   2.281   3.063   1.720  0.5726 -2.1692  1.2001
 4447TIP3   OH234975   1.528   1.719   0.342  0.5776 -0.5016 -0.1774
 4447TIP3    H134976   1.580   1.771   0.281 -1.9471 -0.3224 -2.3183
 4447TIP3    H234977   1.495   1.647   0.290 -0.7928 -0.9631  1.2673
 4448TIP3   OH234978   0.767   6.124   8.198  0.3867  0.1422  0.4506
 4448TIP3    H134979   0.758   6.216   8.224 -0.7001  0.7052 -1.6784
 4448TIP3    H234980   0.832   6.125   8.128  0.1961 -0.6954  0.2517
 4449TIP3   OH234981   6.261   5.137   7.994 -0.0326  0.1521  0.1732
 4449TIP3    H134982   6.231   5.046   7.997  0.6220 -0.0545  1.0830
 4449TIP3    H234983   6.344   5.134   7.946 -1.4366  0.7456 -2.4892
 4450TIP3   OH234984   1.936   4.191   3.017 -0.2632 -0.0209  0.1387
 4450TIP3    H134985   1.848   4.182   3.054 -0.2735  1.5333  0.5303
 4450TIP3    H234986   1.965   4.278   3.043  2.2029 -1.1918  1.6903
 4451TIP3   OH234987   3.807   0.054   1.108  1.0247  0.1513 -0.2944
 4451TIP3    H134988   3.737   0.060   1.172  0.4386 -0.0426 -0.9015
 4451TIP3    H234989   3.886   0.081   1.155  0.5753  0.1853  0.4469
 4452TIP3   OH234990   2.354   0.399   2.673 -0.1015  0.4072  0.4216
 4452TIP3    H134991   2.267   0.412   2.712 -0.9116  1.3587 -1.5910
 4452TIP3    H234992   2.378   0.485   2.640  0.1635 -0.5071 -1.9056
 4453TIP3   OH234993   4.751   5.545   1.136 -0.0312 -0.3753 -0.7361
 4453TIP3    H134994   4.656   5.538   1.146 -0.0331  0.0845 -0.3917
 4453TIP3    H234995   4.765   5.549   1.042 -0.2523 -1.7340 -0.8392
 4454TIP3   OH234996   5.959   0.258   3.213  0.1329  0.6373  0.1085
 4454TIP3    H134997   6.009   0.178   3.227  0.2508  0.7757  0.5091
 4454TIP3    H234998   5.868   0.228   3.202  0.4938  0.2419 -2.3128
 4455TIP3   OH234999   6.013   4.763   0.236 -0.3659  0.2322 -0.6265
 4455TIP3    H135000   5.930   4.716   0.248 -0.1827  0.2029  0.6535
 4455TIP3    H235001   6.054   4.721   0.161 -0.3447 -1.4844  0.3053
 4456TIP3   OH235002   4.433   5.831   2.622 -0.3730 -0.1733 -0.0152
 4456TIP3    H135003   4.400   5.779   2.549 -0.6488 -2.5530  1.6905
 4456TIP3    H235004   4.528   5.827   2.614 -0.3461  2.1862 -1.8969
 4457TIP3   OH235005   4.304   6.610   1.773 -0.5534 -0.3667 -0.2574
 4457TIP3    H135006   4.312   6.636   1.864  1.6510  0.6280 -0.6644
 4457TIP3    H235007   4.338   6.521   1.770  1.8594  0.4823 -0.4323
 4458TIP3   OH235008   0.267   0.903   7.360  0.0245 -0.0036  0.3724
 4458TIP3    H135009   0.207   0.964   7.318  0.4972  0.6746  0.6551
 4458TIP3    H235010   0.236   0.899   7.451 -0.4385 -0.7456  0.1835
 4459TIP3   OH235011   2.114   2.164   0.104  0.1948  0.5570 -0.9136
 4459TIP3    H135012   2.136   2.074   0.083  1.4168 -0.2340  2.9552
 4459TIP3    H235013   2.197   2.212   0.098 -0.0071  0.9266 -0.8303
 4460TIP3   OH235014   4.724   6.428   2.356 -0.0568  0.0979 -0.9427
 4460TIP3    H135015   4.777   6.367   2.407 -0.6556  0.7383  0.5099
 4460TIP3    H235016   4.761   6.425   2.268  0.4237 -1.7517 -0.7253
 4461TIP3   OH235017   3.540   3.635   8.263 -0.1645  0.0546 -0.4942
 4461TIP3    H135018   3.459   3.612   8.219 -0.6805  0.1876  0.3670
 4461TIP3    H235019   3.545   3.574   8.337 -0.6252  1.4899  0.7584
 4462TIP3   OH235020   2.424   5.868   1.214 -0.1248  0.0969 -0.0645
 4462TIP3    H135021   2.357   5.838   1.275 -0.5939 -0.7337 -0.9424
 4462TIP3    H235022   2.411   5.813   1.136  0.2137  1.3573 -1.0444
 4463TIP3   OH235023   3.902   0.407   1.008  0.7684  0.1925  0.1631
 4463TIP3    H135024   3.837   0.347   0.972  0.7225  0.3783 -0.0673
 4463TIP3    H235025   3.984   0.383   0.964  1.4735 -1.8659  2.4290
 4464TIP3   OH235026   4.900   6.186   0.599 -0.0981  0.3398 -0.2364
 4464TIP3    H135027   4.867   6.228   0.678  0.1785  0.1665 -0.0270
 4464TIP3    H235028   4.883   6.093   0.611 -0.7807  0.3945 -0.7361
 4465TIP3   OH235029   2.164   2.135   0.396 -0.2407 -0.1052 -0.3605
 4465TIP3    H135030   2.139   2.139   0.304  2.0493 -1.7174 -1.1342
 4465TIP3    H235031   2.248   2.180   0.400  0.9371 -2.2463  0.3872
 4466TIP3   OH235032   1.792   2.738   1.116  0.1080 -0.8801 -0.1260
 4466TIP3    H135033   1.846   2.731   1.195 -0.2027 -1.4105  0.0405
 4466TIP3    H235034   1.843   2.694   1.049 -1.3717 -4.1126  0.6816
 4467TIP3   OH235035   6.669   5.221   1.361  0.1256  0.3336 -0.0420
 4467TIP3    H135036   6.696   5.300   1.314  0.4432  0.2066 -0.0750
 4467TIP3    H235037   6.599   5.251   1.418 -0.7070  0.3642 -1.0537
 4468TIP3   OH235038   6.611   3.115   0.183  0.1628 -0.1251  0.0383
 4468TIP3    H135039   6.619   3.208   0.163  1.4585 -0.3165 -0.3938
 4468TIP3    H235040   6.516   3.101   0.189 -0.1068  0.9752 -1.0409
 4469TIP3   OH235041   3.647   0.670   8.073 -0.2290 -0.5620  0.2739
 4469TIP3    H135042   3.701   0.669   7.994 -0.8379  0.3698 -0.1708
 4469TIP3    H235043   3.579   0.604   8.056  0.3182 -1.1952  0.5171
 4470TIP3   OH235044   3.084   1.631   1.648 -0.3924  0.1694 -0.0927
 4470TIP3    H135045   2.995   1.613   1.618  0.6630 -3.3960 -1.6731
 4470TIP3    H235046   3.093   1.580   1.729  0.1927  0.5623  0.0982
 4471TIP3   OH235047   6.009   5.275   8.198 -0.1246  0.1801 -0.0807
 4471TIP3    H135048   6.046   5.189   8.218  0.3314  0.4668  0.3611
 4471TIP3    H235049   6.086   5.330   8.184 -0.2863  1.1050  2.1363
 4472TIP3   OH235050   0.859   6.404   1.933  0.2434  0.0175 -0.5224
 4472TIP3    H135051   0.895   6.492   1.948  0.0734  0.1966 -1.1542
 4472TIP3    H235052   0.863   6.362   2.019 -3.4880  2.0358  0.8705
 4473TIP3   OH235053   2.507   6.897   0.805 -0.2420 -0.1888 -0.1203
 4473TIP3    H135054   2.426   6.943   0.827 -0.9672 -1.3478 -0.2753
 4473TIP3    H235055   2.501   6.881   0.711  0.3060 -0.0192 -0.1845
 4474TIP3   OH235056   1.482   6.667   0.784  0.7210 -0.2079  0.3858
 4474TIP3    H135057   1.532   6.662   0.702  0.4420  0.3840  0.1700
 4474TIP3    H235058   1.409   6.725   0.763  1.1420  0.6993  1.3053
 4475TIP3   OH235059   0.944   0.075   1.837  0.1541  0.2606  0.3692
 4475TIP3    H135060   0.940   0.122   1.920 -0.1438  0.9399 -0.0238
 4475TIP3    H235061   0.858   0.033   1.828  0.0558  0.4920  0.2281
 4476TIP3   OH235062   0.281   0.495   3.025 -0.1657 -0.1698 -0.0076
 4476TIP3    H135063   0.313   0.479   2.936 -2.4884 -0.4822 -0.8534
 4476TIP3    H235064   0.351   0.463   3.082  0.7256 -1.4271 -1.7257
 4477TIP3   OH235065   6.548   5.136   7.869 -0.1520  0.2720  0.1523
 4477TIP3    H135066   6.552   5.225   7.905  0.9904  0.4093 -0.2748
 4477TIP3    H235067   6.557   5.148   7.775  1.7332 -0.3819  0.2055
 4478TIP3   OH235068   0.316   4.507   8.066  0.7250 -0.5831 -0.2053
 4478TIP3    H135069   0.246   4.513   8.132 -0.0095  0.0583 -1.0249
 4478TIP3    H235070   0.273   4.526   7.983  2.1113  1.1658 -0.5851
 4479TIP3   OH235071   0.175   4.911   1.531 -0.2272  0.6240  0.1293
 4479TIP3    H135072   0.269   4.897   1.518 -0.0102 -0.6687  2.4890
 4479TIP3    H235073   0.169   5.002   1.561  0.0651  1.1781 -1.4127
 4480TIP3   OH235074   1.286   3.555   8.023  0.5910 -0.5056  0.2646
 4480TIP3    H135075   1.226   3.576   7.951  1.7129 -1.2723 -0.9392
 4480TIP3    H235076   1.229   3.525   8.094 -0.4655 -1.1524 -0.8167
 4481TIP3   OH235077   0.664   0.314   3.862 -0.2073  0.1262 -0.1607
 4481TIP3    H135078   0.590   0.351   3.911  0.4081 -0.7091  1.4807
 4481TIP3    H235079   0.671   0.369   3.784 -2.4510  0.3225 -0.2939
 4482TIP3   OH235080   1.004   2.187   3.205  0.4038  0.6255  0.2000
 4482TIP3    H135081   0.983   2.096   3.226  1.2291  0.4945  0.5008
 4482TIP3    H235082   0.930   2.218   3.153  0.4307 -0.4421 -0.5088
 4483TIP3   OH235083   4.266   5.955   7.708 -0.1797  0.1912  1.0731
 4483TIP3    H135084   4.180   5.913   7.714 -0.4655  0.6977  0.6231
 4483TIP3    H235085   4.272   5.985   7.618  0.6405 -0.1819  0.9948
 4484TIP3   OH235086   4.308   3.663   0.930 -0.1380 -0.3235  0.1545
 4484TIP3    H135087   4.328   3.726   0.860 -0.2664 -2.1462 -1.5964
 4484TIP3    H235088   4.392   3.650   0.974  0.5449 -0.9496 -1.2493
 4485TIP3   OH235089   3.567   4.219   0.061 -0.0148  0.0135 -0.0814
 4485TIP3    H135090   3.536   4.128   0.069 -0.2040  0.1074  0.2696
 4485TIP3    H235091   3.574   4.233  -0.033 -1.6934  0.2067 -0.1961
 4486TIP3   OH235092   0.097   5.477   1.460  0.2073  0.0459 -0.0915
 4486TIP3    H135093   0.060   5.416   1.396  1.0992 -1.5358  0.8127
 4486TIP3    H235094   0.082   5.435   1.544 -0.5485  1.8772  0.7315
 4487TIP3   OH235095   3.901   2.035   7.722  0.3728  0.4387  0.0656
 4487TIP3    H135096   3.940   2.057   7.638  1.2600 -1.1901  0.0063
 4487TIP3    H235097   3.870   1.945   7.712 -0.5053  0.5991  1.1341
 4488TIP3   OH235098   4.845   6.479   0.526 -0.1569 -0.0117 -0.0310
 4488TIP3    H135099   4.895   6.502   0.604  0.0114 -0.1025 -0.1122
 4488TIP3    H235100   4.867   6.387   0.509 -0.8172 -0.2340  0.2822
 4489TIP3   OH235101   2.744   6.854   2.208 -0.2108  0.2138  0.5593
 4489TIP3    H135102   2.651   6.868   2.194  0.0844  1.0243 -0.8495
 4489TIP3    H235103   2.786   6.893   2.131  1.3579  0.8202  1.6559
 4490TIP3   OH235104   3.582   2.047   0.032 -0.3706 -0.2818  0.4230
 4490TIP3    H135105   3.645   1.975   0.026 -2.0259 -1.7561 -0.0130
 4490TIP3    H235106   3.634   2.120   0.066  1.8916 -0.9976 -1.2057
 4491TIP3   OH235107   4.825   3.597   2.104  0.1198  0.1645 -0.4487
 4491TIP3    H135108   4.844   3.528   2.168  0.4885 -0.6693 -1.4228
 4491TIP3    H235109   4.745   3.638   2.135  0.1552 -0.3991  0.4048
 4492TIP3   OH235110   2.365   3.384   0.013  0.0060 -0.0153  0.2949
 4492TIP3    H135111   2.340   3.448   0.080 -0.1344 -0.0973  0.3195
 4492TIP3    H235112   2.409   3.437  -0.055 -1.9461  0.4304 -0.6931
 4493TIP3   OH235113   2.014   0.681   1.310  0.2441  0.2773 -0.3826
 4493TIP3    H135114   2.069   0.606   1.290 -1.2278 -0.7581 -0.7402
 4493TIP3    H235115   1.946   0.679   1.243 -0.6023  1.1093  0.4182
 4494TIP3   OH235116   6.710   6.292   1.760 -0.0076 -0.1113 -0.0329
 4494TIP3    H135117   6.707   6.359   1.692  1.9934  1.7511  1.5972
 4494TIP3    H235118   6.722   6.210   1.712  0.5753  1.0366 -1.9492
 4495TIP3   OH235119   1.794   6.357   8.270 -0.4143  0.2090 -0.5504
 4495TIP3    H135120   1.816   6.434   8.323  0.4379  0.3435 -1.0818
 4495TIP3    H235121   1.707   6.376   8.234  0.7219  1.9957 -2.5613
 4496TIP3   OH235122   3.195   1.524   8.001  0.2063  0.1350  0.4425
 4496TIP3    H135123   3.218   1.604   8.049 -1.3762  1.6988 -1.2298
 4496TIP3    H235124   3.241   1.533   7.917 -1.2057  0.0924 -0.3670
 4497TIP3   OH235125   5.097   3.256   7.449 -0.0756 -0.2593 -0.2191
 4497TIP3    H135126   5.063   3.343   7.431 -0.6948 -0.4838 -0.1656
 4497TIP3    H235127   5.023   3.197   7.432  0.9487 -0.9907 -2.4292
 4498TIP3   OH235128   4.557   6.629   3.402 -0.3704 -0.2669 -0.2585
 4498TIP3    H135129   4.601   6.679   3.471 -0.7049  0.0363 -0.2646
 4498TIP3    H235130   4.495   6.573   3.449  0.4598 -1.1667 -0.1969
 4499TIP3   OH235131   0.774   5.859   0.979  0.5306  0.8912  0.2354
 4499TIP3    H135132   0.850   5.806   0.954 -0.0403  0.0810  0.1472
 4499TIP3    H235133   0.759   5.837   1.071  1.2710  2.1520  0.6640
 4500TIP3   OH235134   6.603   1.761   2.190 -0.0881 -0.6310  0.4285
 4500TIP3    H135135   6.562   1.716   2.263  0.5894 -0.9152  0.6441
 4500TIP3    H235136   6.543   1.748   2.117 -0.1709 -1.4010  0.6269
 4501TIP3   OH235137   5.690   0.330   1.415 -0.6249  0.3162 -0.8261
 4501TIP3    H135138   5.742   0.264   1.371  0.8149  0.9793 -0.1998
 4501TIP3    H235139   5.746   0.360   1.487 -2.2734  0.3719  0.4718
 4502TIP3   OH235140   0.885   3.198   1.539  0.4689 -0.2469 -0.0592
 4502TIP3    H135141   0.875   3.121   1.483 -0.6298 -0.0080 -0.2014
 4502TIP3    H235142   0.974   3.228   1.522  0.6436 -1.0305 -0.5796
 4503TIP3   OH235143   1.903   2.706   7.360  0.7136 -0.5731  0.5932
 4503TIP3    H135144   1.821   2.733   7.318 -1.2061 -2.7759  2.5785
 4503TIP3    H235145   1.935   2.785   7.404  0.0430  0.4829 -0.7339
 4504TIP3   OH235146   5.289   0.161   3.580  0.4791 -0.2808 -0.0697
 4504TIP3    H135147   5.382   0.162   3.555  0.4916 -2.2959 -0.2766
 4504TIP3    H235148   5.242   0.177   3.498  0.6189 -1.5596 -0.4143
 4505TIP3   OH235149   3.606   3.867   2.462  0.3885  0.0149  0.3386
 4505TIP3    H135150   3.602   3.872   2.557 -0.7126  0.4913  0.2770
 4505TIP3    H235151   3.553   3.941   2.431  1.2349  0.2310 -0.6465
 4506TIP3   OH235152   4.142   2.723   7.731 -0.6114 -0.3460  0.1599
 4506TIP3    H135153   4.101   2.805   7.705  0.7894  0.1888 -0.4303
 4506TIP3    H235154   4.202   2.702   7.660  0.8867 -0.5644  1.4283
 4507TIP3   OH235155   2.444   0.693   2.920 -0.1575 -0.4708 -0.3043
 4507TIP3    H135156   2.459   0.766   2.861 -1.2409  0.3564  0.4058
 4507TIP3    H235157   2.440   0.733   3.007 -0.2291 -1.4513  0.1569
 4508TIP3   OH235158   6.864   1.935   0.872  1.1541  0.2400 -0.3711
 4508TIP3    H135159   6.808   2.009   0.851  0.6813 -0.0771 -0.2531
 4508TIP3    H235160   6.869   1.885   0.790  1.0599  0.1432 -0.3200
 4509TIP3   OH235161   0.778   2.652   1.172 -0.3070 -0.0514 -0.1430
 4509TIP3    H135162   0.717   2.701   1.116 -0.2469  0.5800  0.3272
 4509TIP3    H235163   0.864   2.675   1.138 -0.1230  2.2515  1.6362
 4510TIP3   OH235164   4.016   3.711   7.181 -0.0395 -0.2819 -0.3162
 4510TIP3    H135165   3.983   3.770   7.249 -1.3957 -0.9897 -0.3209
 4510TIP3    H235166   3.947   3.646   7.171  1.2974 -1.7309 -0.4924
 4511TIP3   OH235167   1.033   3.631   0.348  0.2618  0.2998  0.2857
 4511TIP3    H135168   0.984   3.633   0.265 -0.6532 -0.6782  0.7727
 4511TIP3    H235169   1.102   3.696   0.336 -1.0813  1.6751 -0.4914
 4512TIP3   OH235170   6.101   3.946   7.935  0.0255  0.1889 -0.2218
 4512TIP3    H135171   6.175   3.913   7.885  0.9115  2.1373 -0.3081
 4512TIP3    H235172   6.088   4.035   7.901 -1.3828  0.4169  0.8396
 4513TIP3   OH235173   2.012   2.463   0.768  0.0394  0.6385 -0.4779
 4513TIP3    H135174   2.013   2.390   0.706  2.5471 -0.5795  0.8563
 4513TIP3    H235175   1.937   2.445   0.825  0.1109 -0.4165 -0.6929
 4514TIP3   OH235176   1.223   6.026   1.709  0.4944  0.3397 -0.1883
 4514TIP3    H135177   1.249   6.011   1.800  0.6852  0.9691 -0.1343
 4514TIP3    H235178   1.145   6.082   1.715  0.3870  0.2151 -0.4058
 4515TIP3   OH235179   4.052   4.662   7.579  0.2100  0.4317 -0.0888
 4515TIP3    H135180   3.995   4.655   7.502  1.7960  0.1779 -1.2919
 4515TIP3    H235181   4.030   4.747   7.617  0.4927  1.3082 -1.7652
 4516TIP3   OH235182   1.193   3.119   2.687 -0.0325 -0.3290 -0.4173
 4516TIP3    H135183   1.109   3.139   2.646 -0.1549 -1.1407 -0.5858
 4516TIP3    H235184   1.191   3.165   2.771 -1.1142 -1.2342  0.0755
 4517TIP3   OH235185   0.989   5.124   1.469 -0.6712  0.7051 -0.0878
 4517TIP3    H135186   0.937   5.044   1.462 -0.1468  0.4663 -1.9078
 4517TIP3    H235187   1.052   5.118   1.397 -0.0162  2.3362  0.2935
 4518TIP3   OH235188   1.455   2.226   0.635  0.5022  0.1905 -0.1021
 4518TIP3    H135189   1.545   2.257   0.642  0.5638  0.1145 -0.5410
 4518TIP3    H235190   1.460   2.150   0.576  0.2871 -0.3787  0.5966
 4519TIP3   OH235191   6.953   5.645   1.405 -0.5689  0.0187  0.0115
 4519TIP3    H135192   7.019   5.620   1.470  2.0183  2.1054 -1.6213
 4519TIP3    H235193   6.964   5.583   1.334 -2.5786 -1.5128  0.9327
 4520TIP3   OH235194   2.101   6.705   0.048 -0.3433 -0.1700 -0.0940
 4520TIP3    H135195   2.145   6.726  -0.035 -2.5256 -1.1728 -1.6315
 4520TIP3    H235196   2.169   6.664   0.101  1.4101  1.4935 -0.9168
 4521TIP3   OH235197   1.684   4.583   2.380  0.1684  0.2647 -1.2953
 4521TIP3    H135198   1.701   4.653   2.317 -0.1924  0.0957 -1.5821
 4521TIP3    H235199   1.620   4.620   2.441 -0.7871 -0.1414 -2.0282
 4522TIP3   OH235200   2.870   0.383   3.686  0.4451  0.0495 -0.4339
 4522TIP3    H135201   2.957   0.348   3.665 -0.1418 -1.1869 -0.8779
 4522TIP3    H235202   2.809   0.315   3.659 -0.6917  0.9857 -0.3239
 4523TIP3   OH235203   3.651   0.051   2.422 -0.2225  0.5439 -0.1432
 4523TIP3    H135204   3.628   0.016   2.336 -0.1242 -0.4037  0.2069
 4523TIP3    H235205   3.607   0.136   2.426  1.7419  1.7338 -2.0917
 4524TIP3   OH235206   5.261   2.275   1.751 -0.0587 -0.5705  0.1409
 4524TIP3    H135207   5.306   2.242   1.673  0.0642  1.4530 -0.7139
 4524TIP3    H235208   5.315   2.245   1.824  1.8766  0.4361 -0.7705
 4525TIP3   OH235209   3.340   5.829   1.617  0.7053 -0.2398  0.1613
 4525TIP3    H135210   3.326   5.805   1.526  0.0608 -2.7805  0.8580
 4525TIP3    H235211   3.253   5.835   1.655  0.9931 -0.5123  0.8979
 4526TIP3   OH235212   3.163   2.132   0.565 -0.4865  0.1667  0.0324
 4526TIP3    H135213   3.162   2.167   0.654  1.1096 -0.9583  0.5346
 4526TIP3    H235214   3.247   2.088   0.557 -0.3990  0.6104 -2.2023
 4527TIP3   OH235215   5.566   3.689   0.426  0.2868 -0.1369  0.7252
 4527TIP3    H135216   5.618   3.609   0.416  0.1477 -0.1351 -0.0996
 4527TIP3    H235217   5.631   3.759   0.430  0.3779  0.0968 -2.4554
 4528TIP3   OH235218   0.874   4.819   1.413  0.5000 -0.2699 -0.0093
 4528TIP3    H135219   0.835   4.881   1.351 -0.3078 -1.5209 -0.7908
 4528TIP3    H235220   0.961   4.803   1.379  0.5951  0.1737  0.0157
 4529TIP3   OH235221   4.036   0.047   0.194 -0.4969 -0.6284 -0.3254
 4529TIP3    H135222   4.094   0.116   0.162 -1.1154  0.2666  0.4244
 4529TIP3    H235223   3.951   0.066   0.153 -0.1355 -2.3503 -1.9914
 4530TIP3   OH235224   2.931   5.738   4.051  0.6287  0.0104  0.3023
 4530TIP3    H135225   2.875   5.683   4.104  1.4527 -1.7680 -0.5917
 4530TIP3    H235226   2.925   5.825   4.091  0.6346 -1.0779  2.8291
 4531TIP3   OH235227   6.938   6.565   8.216 -0.0060  0.2342  0.5183
 4531TIP3    H135228   7.031   6.544   8.215 -0.2490 -1.1950  2.0880
 4531TIP3    H235229   6.930   6.646   8.167  1.9900  0.0938 -0.0955
 4532TIP3   OH235230   4.671   6.479   1.817  0.3130  0.2448  0.4180
 4532TIP3    H135231   4.720   6.531   1.882  0.3926  2.1326 -1.0489
 4532TIP3    H235232   4.604   6.434   1.868  0.4506  1.5538  1.8416
 4533TIP3   OH235233   1.449   6.828   3.405 -0.4257 -0.4623 -0.6840
 4533TIP3    H135234   1.535   6.788   3.418  0.3012  1.1692 -0.2004
 4533TIP3    H235235   1.467   6.906   3.353 -1.5060  0.3017  0.0540
 4534TIP3   OH235236   6.924   6.238   2.750  0.2753 -0.6240  0.1435
 4534TIP3    H135237   6.983   6.310   2.774  0.8182 -1.6299  1.9908
 4534TIP3    H235238   6.936   6.173   2.819 -0.4337 -2.3719 -1.2947
 4535TIP3   OH235239   2.825   6.160   3.908  0.2921  0.2743  0.4857
 4535TIP3    H135240   2.814   6.092   3.841  0.8953  1.3319 -0.7277
 4535TIP3    H235241   2.877   6.117   3.976  2.1649 -0.0497 -1.0394
 4536TIP3   OH235242   0.568   5.882   7.801  0.1991 -0.2723  0.1347
 4536TIP3    H135243   0.508   5.855   7.731  0.4685  0.9088 -0.5824
 4536TIP3    H235244   0.591   5.972   7.778  2.9730 -0.9751 -0.1051
 4537TIP3   OH235245   5.285   0.711   1.670  0.2184 -0.8456 -0.1505
 4537TIP3    H135246   5.268   0.793   1.716 -0.0577 -1.3609  0.6923
 4537TIP3    H235247   5.211   0.655   1.692  0.0860 -1.1225 -1.2253
 4538TIP3   OH235248   0.407   1.467   2.159 -0.5477  0.2515  0.3463
 4538TIP3    H135249   0.469   1.403   2.195 -0.5574  0.9389  1.6430
 4538TIP3    H235250   0.460   1.545   2.143 -0.4989 -0.0873 -1.4108
 4539TIP3   OH235251   6.247   0.661   0.917  0.4305 -0.0132  0.3885
 4539TIP3    H135252   6.298   0.642   0.838  0.6629 -1.5259  0.8706
 4539TIP3    H235253   6.311   0.659   0.988  0.1284  0.7722  0.6952
 4540TIP3   OH235254   3.203   0.939   7.166 -0.3469  0.3392  0.3922
 4540TIP3    H135255   3.172   0.866   7.219 -0.3999 -1.3334 -1.8033
 4540TIP3    H235256   3.130   1.001   7.165 -1.8009 -1.3249 -0.7422
 4541TIP3   OH235257   1.877   0.929   7.878 -0.0950 -0.3825  0.7972
 4541TIP3    H135258   1.862   0.878   7.799 -0.7548 -0.6931  1.1169
 4541TIP3    H235259   1.973   0.934   7.886  0.2194  3.2300 -2.3404
 4542TIP3   OH235260   4.906   5.323   0.152  0.0989 -0.7139 -0.5117
 4542TIP3    H135261   4.811   5.316   0.162  0.0505 -0.6649 -0.9023
 4542TIP3    H235262   4.918   5.386   0.081  0.5128  3.2275  2.6897
 4543TIP3   OH235263   6.895   0.788   3.830 -0.3625 -0.1973 -0.2766
 4543TIP3    H135264   6.871   0.870   3.785  0.6127 -1.3755 -3.2050
 4543TIP3    H235265   6.827   0.726   3.805 -0.7394 -0.4956  1.3831
 4544TIP3   OH235266   5.018   6.508   3.397  0.2093 -0.1137  0.2583
 4544TIP3    H135267   5.070   6.454   3.338  1.3644  1.8275 -0.5803
 4544TIP3    H235268   5.076   6.581   3.421 -0.5538 -0.2807  3.0059
 4545TIP3   OH235269   4.015   0.825   7.996 -0.5208  0.1109 -0.7822
 4545TIP3    H135270   4.066   0.904   7.977 -1.7881  1.1106 -0.1453
 4545TIP3    H235271   3.926   0.846   7.968 -1.0532 -0.7754  0.1624
 4546TIP3   OH235272   3.419   1.044   1.568  0.8277 -0.1087 -0.2300
 4546TIP3    H135273   3.479   1.110   1.533  0.4889 -0.6227 -1.8579
 4546TIP3    H235274   3.477   0.975   1.601  1.1673  0.7064  0.9919
 4547TIP3   OH235275   4.801   0.610   0.085  0.1647  0.2132  0.2836
 4547TIP3    H135276   4.721   0.618   0.033  0.6345 -0.0313 -0.4847
 4547TIP3    H235277   4.861   0.675   0.048  0.1513  0.7765  1.2049
 4548TIP3   OH235278   0.978   3.075   3.397 -0.4038 -0.0373 -0.1191
 4548TIP3    H135279   0.897   3.057   3.351 -1.0125  1.9330  0.1135
 4548TIP3    H235280   0.992   3.169   3.387  1.4579 -0.2050  0.4786
 4549TIP3   OH235281   2.223   7.022   7.647  0.1085 -0.3375 -0.1102
 4549TIP3    H135282   2.186   6.998   7.562  0.1963  0.1580 -0.2928
 4549TIP3    H235283   2.206   7.116   7.655 -0.3317 -0.4707  0.6389
 4550TIP3   OH235284   5.179   1.144   3.301 -0.5481 -0.6695 -0.5614
 4550TIP3    H135285   5.124   1.127   3.377  0.4435  0.0969  0.3736
 4550TIP3    H235286   5.145   1.226   3.264 -0.1380 -0.2645 -0.0598
 4551TIP3   OH235287   1.042   3.925   8.044  0.1153 -0.1066 -0.2547
 4551TIP3    H135288   1.137   3.929   8.031  0.4259 -1.4359  1.1664
 4551TIP3    H235289   1.025   3.832   8.063 -1.3399  0.2476  0.3182
 4552TIP3   OH235290   6.921   6.162   0.805 -0.0740  0.1586  0.3586
 4552TIP3    H135291   6.869   6.146   0.884 -2.4363 -0.2374 -1.1695
 4552TIP3    H235292   6.906   6.254   0.784 -0.4346 -0.0399 -0.2759
 4553TIP3   OH235293   3.583   6.318   7.423 -0.4972 -0.4253 -0.2605
 4553TIP3    H135294   3.515   6.340   7.359 -0.9576  1.3995  0.7867
 4553TIP3    H235295   3.648   6.269   7.373 -0.7751  1.0430 -2.1806
 4554TIP3   OH235296   0.693   5.054   1.769 -0.0840 -0.0455 -0.5258
 4554TIP3    H135297   0.646   5.081   1.690 -0.0277  0.1769 -0.4831
 4554TIP3    H235298   0.765   5.000   1.736  0.3644  0.6350 -0.6814
 4555TIP3   OH235299   4.361   6.926   1.355 -0.0303 -0.0534  0.9104
 4555TIP3    H135300   4.335   6.841   1.390 -0.6966 -0.5652 -0.7199
 4555TIP3    H235301   4.278   6.968   1.329  0.4021  0.3993  0.2204
 4556TIP3   OH235302   6.846   0.991   1.370  0.5229  0.0564  0.0420
 4556TIP3    H135303   6.850   0.915   1.428 -1.4947  1.1975  1.8095
 4556TIP3    H235304   6.852   1.066   1.429 -1.0658  1.2729 -1.2786
 4557TIP3   OH235305   6.895   3.829   7.460  0.2824 -0.2627 -0.1820
 4557TIP3    H135306   6.918   3.776   7.536 -0.0470 -1.2551 -0.7659
 4557TIP3    H235307   6.843   3.901   7.496  1.8647  0.4686  0.7961
 4558TIP3   OH235308   4.292   0.540   3.422  0.0155 -0.3518  0.0936
 4558TIP3    H135309   4.332   0.605   3.365  0.9839  0.0558  1.1886
 4558TIP3    H235310   4.343   0.460   3.407 -0.8633 -0.7467 -0.8934
 4559TIP3   OH235311   7.045   1.202   1.847 -0.0244 -0.2596 -0.1839
 4559TIP3    H135312   6.956   1.168   1.852 -0.3267  0.3356 -1.1902
 4559TIP3    H235313   7.048   1.274   1.910  0.2439 -1.2879  1.0240
 4560TIP3   OH235314   3.859   5.648   7.605 -1.0481  0.9377  0.2417
 4560TIP3    H135315   3.816   5.683   7.527 -0.6331  1.4753  0.2552
 4560TIP3    H235316   3.809   5.568   7.625  0.3445 -0.5982 -2.0101
 4561TIP3   OH235317   3.752   0.975   8.138 -0.5987 -0.1388 -0.1542
 4561TIP3    H135318   3.749   0.897   8.193 -1.0189  0.0004  0.0199
 4561TIP3    H235319   3.692   0.957   8.066 -1.3585  0.3737  0.3481
 4562TIP3   OH235320   5.232   3.155   0.184 -0.2415 -0.0843 -0.2000
 4562TIP3    H135321   5.255   3.137   0.093 -1.6741 -0.6313 -0.4760
 4562TIP3    H235322   5.139   3.177   0.182  0.3017  2.6652  0.7795
 4563TIP3   OH235323   0.881   0.942   2.867  0.2852 -0.4077  0.4081
 4563TIP3    H135324   0.857   0.855   2.899 -0.0048 -0.3347  0.3887
 4563TIP3    H235325   0.923   0.985   2.942 -0.4646 -0.2082  0.7201
 4564TIP3   OH235326   4.141   3.859   1.261  0.1773  0.0255  0.4496
 4564TIP3    H135327   4.175   3.838   1.348  2.0580 -1.2506 -0.5262
 4564TIP3    H235328   4.124   3.953   1.264 -1.6569 -0.2924  2.7530
 4565TIP3   OH235329   5.783   3.548   0.039  0.4848  0.1606  0.1965
 4565TIP3    H135330   5.851   3.483   0.020  0.9154  0.4524  0.7452
 4565TIP3    H235331   5.747   3.521   0.123 -1.4061 -1.1083 -0.9077
 4566TIP3   OH235332   5.501   4.690   1.347  0.2862 -0.0738 -0.0122
 4566TIP3    H135333   5.535   4.617   1.296 -2.7479  0.1942 -2.7521
 4566TIP3    H235334   5.421   4.656   1.387 -1.5200  1.7550 -1.8214
 4567TIP3   OH235335   6.163   5.760   0.022  0.6284  0.0823  0.0918
 4567TIP3    H135336   6.223   5.813  -0.031  0.7936  1.9936  2.0570
 4567TIP3    H235337   6.211   5.679   0.039  1.9787  0.8719  0.1870
 4568TIP3   OH235338   0.613   2.901   1.967 -0.2470 -0.1905 -0.3372
 4568TIP3    H135339   0.679   2.857   2.021 -1.0535 -1.4104 -0.3066
 4568TIP3    H235340   0.587   2.978   2.017 -2.2492 -2.1751  1.9299
 4569TIP3   OH235341   2.887   3.963   1.590 -0.6452  0.0276 -0.5419
 4569TIP3    H135342   2.914   3.911   1.666 -2.3907 -0.8086 -0.4655
 4569TIP3    H235343   2.948   4.037   1.590  0.2293 -0.6444  0.8873
 4570TIP3   OH235344   4.894   1.082   1.589  0.1367  0.2832  0.0883
 4570TIP3    H135345   4.942   1.133   1.653 -0.1122 -0.4013  0.8331
 4570TIP3    H235346   4.804   1.080   1.621 -0.0946  0.3319 -0.5329
 4571TIP3   OH235347   2.085   0.457   0.526 -0.4873 -0.1658 -0.3829
 4571TIP3    H135348   2.089   0.362   0.538  1.1618  0.0249  0.8711
 4571TIP3    H235349   2.037   0.489   0.603 -1.1364  0.0327 -0.8558
 4572TIP3   OH235350   6.109   0.773   0.484  0.1108 -0.3269 -0.2019
 4572TIP3    H135351   6.109   0.679   0.469  0.0627 -0.2675 -0.5747
 4572TIP3    H235352   6.068   0.784   0.570  0.1085 -0.6445 -0.1635
 4573TIP3   OH235353   0.226   0.551   1.705  0.2860  0.0880 -0.1321
 4573TIP3    H135354   0.283   0.475   1.701  1.2903  0.8713 -1.6245
 4573TIP3    H235355   0.202   0.568   1.614 -0.8659  0.8701  0.2916
 4574TIP3   OH235356   0.344   6.633   1.981  0.2826 -0.3855 -0.0647
 4574TIP3    H135357   0.339   6.554   1.927  0.9261  0.1873 -0.9860
 4574TIP3    H235358   0.407   6.610   2.050 -0.8682 -1.2664  0.7414
 4575TIP3   OH235359   6.761   3.860   1.897 -0.2424  0.4799  0.0041
 4575TIP3    H135360   6.745   3.943   1.941  0.8729  1.5366 -1.5035
 4575TIP3    H235361   6.674   3.829   1.871 -0.6203  1.4717  0.0466
 4576TIP3   OH235362   2.191   2.538   1.256 -0.3203 -0.0154  0.0723
 4576TIP3    H135363   2.193   2.451   1.298 -1.5310 -0.1739 -0.1766
 4576TIP3    H235364   2.186   2.519   1.162 -0.5562  0.3231  0.0157
 4577TIP3   OH235365   6.901   6.941   2.331 -0.0734  0.1056 -0.3146
 4577TIP3    H135366   6.970   6.971   2.272 -0.9457  1.1038 -0.8590
 4577TIP3    H235367   6.908   7.000   2.407 -0.6962  0.5918 -0.6303
 4578TIP3   OH235368   2.016   5.203   7.811 -0.3258  0.5779  0.2651
 4578TIP3    H135369   2.078   5.150   7.760 -0.0915  1.1651 -0.0706
 4578TIP3    H235370   1.965   5.249   7.745 -0.8472  0.4130  0.5501
 4579TIP3   OH235371   1.032   0.890   1.061  0.4897  0.1746  0.1040
 4579TIP3    H135372   0.971   0.839   1.009  0.8589 -1.1004  0.8734
 4579TIP3    H235373   1.005   0.981   1.048 -2.9987 -0.4023  2.1293
 4580TIP3   OH235374   7.066   4.715   7.840 -0.2523  0.3550  0.0806
 4580TIP3    H135375   7.022   4.780   7.786  0.1922 -0.1937 -0.9936
 4580TIP3    H235376   7.159   4.733   7.828 -0.1440  0.0650  0.4617
 4581TIP3   OH235377   1.161   2.539   8.130 -0.4085 -0.6921  0.1174
 4581TIP3    H135378   1.143   2.448   8.106 -0.6457 -0.4800 -0.5344
 4581TIP3    H235379   1.128   2.590   8.056 -0.7184 -0.0434  0.6988
 4582TIP3   OH235380   5.190   2.012   1.684  0.1145  0.1090 -0.3704
 4582TIP3    H135381   5.214   2.079   1.748  2.0338 -0.2153 -0.6671
 4582TIP3    H235382   5.271   1.964   1.670 -0.1743  0.2993 -3.1959
 4583TIP3   OH235383   5.376   0.767   0.739  0.2029 -0.6755 -0.2163
 4583TIP3    H135384   5.450   0.724   0.695  0.2077  1.6006 -2.6794
 4583TIP3    H235385   5.299   0.719   0.707  0.4354 -1.2963  0.1454
 4584TIP3   OH235386   2.068   2.000   1.227  0.1413  0.0532 -0.2438
 4584TIP3    H135387   2.023   2.079   1.256  1.6717  0.5687  0.8558
 4584TIP3    H235388   2.116   2.027   1.149 -1.0042 -0.3801 -1.1406
 4585TIP3   OH235389   4.847   5.729   0.220 -0.4711  0.0750  0.4815
 4585TIP3    H135390   4.934   5.721   0.260  0.0936  0.6237 -0.6003
 4585TIP3    H235391   4.786   5.711   0.292  0.5398 -1.1960  1.0575
 4586TIP3   OH235392   1.976   0.836   0.112 -0.5008 -0.4808 -0.5235
 4586TIP3    H135393   1.917   0.896   0.067  1.2219  0.6503 -1.3932
 4586TIP3    H235394   1.997   0.880   0.194  0.7528  0.1692 -1.1551
 4587TIP3   OH235395   6.581   0.488   0.895  0.7019 -0.0052 -0.0336
 4587TIP3    H135396   6.580   0.394   0.877  0.4027 -0.4187  1.9052
 4587TIP3    H235397   6.642   0.524   0.831  1.7878 -1.7077 -0.0246
 4588TIP3   OH235398   6.158   6.032   2.651 -0.2903  0.5878 -0.7553
 4588TIP3    H135399   6.130   5.968   2.586 -0.2031  0.7887 -0.9918
 4588TIP3    H235400   6.077   6.075   2.679 -0.4521 -0.1736 -0.0018
 4589TIP3   OH235401   4.247   0.399   1.924  0.1642 -0.6058  0.4371
 4589TIP3    H135402   4.154   0.375   1.916 -0.8198  2.0123  2.5025
 4589TIP3    H235403   4.290   0.320   1.956 -0.9305 -2.4272 -2.1826
 4590TIP3   OH235404   1.996   3.529   0.468  0.8838  0.2151 -0.2783
 4590TIP3    H135405   2.079   3.513   0.424 -0.2292 -0.8378 -2.1586
 4590TIP3    H235406   1.963   3.610   0.428  0.6594  0.2110 -0.1043
 4591TIP3   OH235407   3.593   1.950   1.510 -0.2821 -0.7697  0.1616
 4591TIP3    H135408   3.657   1.927   1.578  1.2805  2.2861 -0.0708
 4591TIP3    H235409   3.517   1.983   1.558 -0.2266 -1.0618  0.4494
 4592TIP3   OH235410   1.037   1.428   0.937 -0.7460  0.1759  0.1029
 4592TIP3    H135411   1.087   1.433   0.855  0.6131  1.2971  0.9653
 4592TIP3    H235412   0.980   1.505   0.935 -1.4707 -0.3519 -0.2324
 4593TIP3   OH235413   5.678   3.263   3.119 -0.3776  0.2311 -0.1449
 4593TIP3    H135414   5.695   3.213   3.199 -1.7398 -1.4804 -0.8781
 4593TIP3    H235415   5.765   3.288   3.088  0.2300  0.0120  1.2865
 4594TIP3   OH235416   4.632   2.821   1.170  0.4130 -0.4285  0.7776
 4594TIP3    H135417   4.564   2.835   1.236  0.7149  0.1801  0.9698
 4594TIP3    H235418   4.671   2.907   1.157  1.0364 -0.7386  0.5425
 4595TIP3   OH235419   4.778   4.357   2.013 -0.2647 -0.3879  0.1342
 4595TIP3    H135420   4.817   4.442   1.994 -1.4502  0.2867  0.5725
 4595TIP3    H235421   4.786   4.348   2.108  1.3185 -1.5294 -0.0848
 4596TIP3   OH235422   6.620   6.912   0.439 -0.3321 -0.0663  0.4094
 4596TIP3    H135423   6.650   6.896   0.529  1.0900 -1.0412 -0.1966
 4596TIP3    H235424   6.638   6.830   0.393 -0.1060  0.7513 -1.0066
 4597TIP3   OH235425   2.024   6.057   0.022  0.0264 -0.1171 -0.5702
 4597TIP3    H135426   2.090   6.093   0.081 -0.8098 -0.0417  0.3291
 4597TIP3    H235427   1.970   6.000   0.077 -1.4710  0.8383 -0.9725
 4598TIP3   OH235428   4.194   3.320   1.361  0.3918  0.6608  0.6344
 4598TIP3    H135429   4.276   3.271   1.354  0.4574  0.3399  3.0483
 4598TIP3    H235430   4.221   3.411   1.372  0.3418  0.8399 -0.5828
 4599TIP3   OH235431   3.318   5.713   2.185 -0.6904  0.3720 -0.0277
 4599TIP3    H135432   3.379   5.727   2.257 -0.5344  1.6156 -0.3707
 4599TIP3    H235433   3.249   5.777   2.200 -0.2338  1.2421 -1.4121
 4600TIP3   OH235434   5.197   6.423   2.884  0.2321  0.2291 -0.7316
 4600TIP3    H135435   5.247   6.378   2.815  1.4874  0.9089 -0.2951
 4600TIP3    H235436   5.263   6.455   2.945 -0.8542 -0.3882  0.8361
 4601TIP3   OH235437   6.068   6.365   0.454 -0.2110  0.6556 -0.4584
 4601TIP3    H135438   6.001   6.424   0.486 -0.2002 -0.0823  1.0436
 4601TIP3    H235439   6.146   6.385   0.507  0.5634  1.0347 -1.6959
 4602TIP3   OH235440   2.242   3.204   8.052 -0.1748  0.5931 -0.1711
 4602TIP3    H135441   2.271   3.141   7.986  0.1795  0.5727  0.0020
 4602TIP3    H235442   2.316   3.264   8.062 -0.6818  1.3294 -0.6820
 4603TIP3   OH235443   6.969   4.131   7.591 -0.3894  0.3368  0.3906
 4603TIP3    H135444   6.893   4.143   7.534  0.8372  0.2199 -1.3509
 4603TIP3    H235445   7.011   4.217   7.594  1.0204 -0.2331 -1.1526
 4604TIP3   OH235446   4.113   2.456   1.387  0.2961  0.5117 -0.1180
 4604TIP3    H135447   4.140   2.501   1.467 -2.1493  2.3748 -0.2151
 4604TIP3    H235448   4.038   2.404   1.413  2.0333 -2.3273 -0.3979
 4605TIP3   OH235449   5.562   6.078   0.755  0.6682 -0.2083 -0.5051
 4605TIP3    H135450   5.541   5.986   0.776  1.3799 -0.0644  0.9704
 4605TIP3    H235451   5.537   6.126   0.833 -0.1837  0.9571 -1.4658
 4606TIP3   OH235452   6.365   1.555   0.578 -0.2046 -0.2865 -0.5955
 4606TIP3    H135453   6.405   1.561   0.665  0.5538  0.7312 -0.9929
 4606TIP3    H235454   6.332   1.465   0.573 -1.7499  0.0948  1.3754
 4607TIP3   OH235455   3.468   1.349   7.876  0.1749 -0.1555  0.0319
 4607TIP3    H135456   3.501   1.424   7.828  0.8375 -1.6185 -1.9537
 4607TIP3    H235457   3.415   1.301   7.813  1.4752 -2.4252  0.5293
 4608TIP3   OH235458   5.357   3.215   3.503  0.5851  0.4160  0.2469
 4608TIP3    H135459   5.391   3.240   3.418  0.7779  0.3347  0.2994
 4608TIP3    H235460   5.262   3.212   3.491  0.2468  3.9419  0.9578
 4609TIP3   OH235461   2.576   2.651   7.677  0.4399  0.0543 -0.1291
 4609TIP3    H135462   2.656   2.685   7.638 -0.3779  0.7887 -1.2257
 4609TIP3    H235463   2.513   2.648   7.605 -1.6753  3.0747  1.3777
 4610TIP3   OH235464   2.742   2.217   7.783  0.1395  0.1454 -0.3240
 4610TIP3    H135465   2.831   2.230   7.750  0.5725  1.1560  1.1314
 4610TIP3    H235466   2.698   2.300   7.764  0.0614  0.3136  0.5487
 4611TIP3   OH235467   0.585   6.544   2.057  0.1882  0.4837  0.0463
 4611TIP3    H135468   0.601   6.566   2.149  0.3852  0.3761  0.0382
 4611TIP3    H235469   0.604   6.450   2.052 -1.8736 -0.0082  0.3767
 4612TIP3   OH235470   6.540   1.539   3.223 -0.2232 -0.5351  0.0432
 4612TIP3    H135471   6.486   1.467   3.254 -0.3952 -0.2880  0.3244
 4612TIP3    H235472   6.589   1.503   3.148 -0.1040 -1.0166  0.3513
 4613TIP3   OH235473   6.887   0.872   2.904  0.1898  0.0941  0.1911
 4613TIP3    H135474   6.969   0.919   2.919  0.0243  0.8130 -0.9737
 4613TIP3    H235475   6.885   0.859   2.809 -0.6469 -0.6674  0.3013
 4614TIP3   OH235476   3.549   0.967   2.507  0.4114 -0.3448  0.3774
 4614TIP3    H135477   3.521   0.877   2.525 -1.7260 -0.2801 -1.9881
 4614TIP3    H235478   3.531   1.014   2.588 -1.4676 -1.4660  0.6755
 4615TIP3   OH235479   3.630   5.524   1.591  0.3866 -0.1574  0.5798
 4615TIP3    H135480   3.614   5.607   1.544 -0.0458 -0.1695  0.6934
 4615TIP3    H235481   3.596   5.541   1.679 -0.5310 -0.7456  0.3504
 4616TIP3   OH235482   4.015   1.042   8.228  0.5131  0.3081 -0.0277
 4616TIP3    H135483   3.946   1.034   8.162  0.7939 -0.0467 -0.2790
 4616TIP3    H235484   3.970   1.029   8.312  0.1516  0.7826 -0.1431
 4617TIP3   OH235485   5.164   2.764   1.056  0.1408  0.3511 -0.0162
 4617TIP3    H135486   5.193   2.743   1.145 -0.0742 -1.7175 -0.3915
 4617TIP3    H235487   5.239   2.744   1.000 -0.1449  0.4281 -0.4341
 4618TIP3   OH235488   1.362   5.393   0.705 -0.3344  0.3987 -0.4078
 4618TIP3    H135489   1.277   5.369   0.667 -0.8370  2.4380 -0.6503
 4618TIP3    H235490   1.345   5.400   0.799 -0.6155  1.5064 -0.5374
 4619TIP3   OH235491   4.430   6.448   0.996  0.4121  0.8803  0.8324
 4619TIP3    H135492   4.367   6.502   0.949  0.3426  0.0948 -0.0105
 4619TIP3    H235493   4.477   6.509   1.053 -0.7607  1.5493  1.1017
 4620TIP3   OH235494   1.158   6.272   2.890 -0.6073 -0.1721  0.5640
 4620TIP3    H135495   1.218   6.198   2.879 -0.1924 -0.1087  2.2216
 4620TIP3    H235496   1.214   6.349   2.885 -1.2001  0.1780 -2.4474
 4621TIP3   OH235497   7.017   2.313   1.960 -0.0869  0.3937  0.0808
 4621TIP3    H135498   7.094   2.368   1.974  1.5631 -1.9989  0.9345
 4621TIP3    H235499   6.950   2.353   2.016  1.0020  1.6046  0.5822
 4622TIP3   OH235500   3.532   5.220   7.990 -0.4923 -0.4545 -0.0221
 4622TIP3    H135501   3.458   5.279   8.006 -1.9361 -2.2712  0.3951
 4622TIP3    H235502   3.501   5.161   7.921  1.3124 -0.0747 -1.2082
 4623TIP3   OH235503   3.497   3.241   0.648 -0.1169  0.1759 -0.2733
 4623TIP3    H135504   3.555   3.261   0.721  0.3760 -1.8706 -0.0458
 4623TIP3    H235505   3.408   3.250   0.683  0.0616  1.3646 -0.0777
 4624TIP3   OH235506   5.889   4.198   0.667  0.4290 -0.1889  0.5231
 4624TIP3    H135507   5.839   4.276   0.645  1.4614  0.5556  0.7241
 4624TIP3    H235508   5.923   4.215   0.755  0.9759 -0.6870  0.4161
 4625TIP3   OH235509   0.796   5.194   3.549 -0.5866 -0.5659  0.1793
 4625TIP3    H135510   0.842   5.217   3.630  0.6877  0.3497 -0.7587
 4625TIP3    H235511   0.817   5.101   3.535  0.0445 -0.4532  0.3587
 4626TIP3   OH235512   6.835   5.224   1.005 -0.1040 -0.4661  0.4913
 4626TIP3    H135513   6.766   5.174   1.050 -0.0644 -0.8831  0.0914
 4626TIP3    H235514   6.860   5.291   1.068 -2.3429  1.0365 -0.0981
 4627TIP3   OH235515   6.414   4.766   1.965  0.2259 -0.2733  0.3855
 4627TIP3    H135516   6.372   4.781   1.880 -0.3976 -1.4332  0.4671
 4627TIP3    H235517   6.343   4.777   2.028  0.5395 -0.0765  0.7028
 4628TIP3   OH235518   4.284   2.256   0.387  0.1011  0.0687  0.3651
 4628TIP3    H135519   4.283   2.209   0.470  0.1229 -0.9784 -0.2056
 4628TIP3    H235520   4.286   2.348   0.411  1.0165 -0.2304  1.5247
 4629TIP3   OH235521   4.479   1.744   1.890  0.0058  0.3653 -0.4709
 4629TIP3    H135522   4.438   1.727   1.975  0.3465  0.2577 -0.3219
 4629TIP3    H235523   4.413   1.790   1.839 -1.0929 -1.6404 -0.9899
 4630TIP3   OH235524   5.735   5.955   0.955  0.3485 -0.3536 -0.2041
 4630TIP3    H135525   5.663   5.905   0.916  0.8600 -2.1211  0.9994
 4630TIP3    H235526   5.704   5.976   1.043  0.9947 -0.4275  0.0421
 4631TIP3   OH235527   1.078   6.826   1.235 -0.1104 -0.4491  0.0342
 4631TIP3    H135528   1.102   6.786   1.152  1.0281  0.0568  0.1094
 4631TIP3    H235529   1.161   6.843   1.279 -0.4706  2.2697 -0.1380
 4632TIP3   OH235530   5.672   0.826   1.262 -0.7248 -0.2842 -0.0139
 4632TIP3    H135531   5.608   0.768   1.304 -1.3271 -2.2596 -3.2636
 4632TIP3    H235532   5.635   0.843   1.175  0.5677  3.2272 -0.0166
 4633TIP3   OH235533   1.347   3.705   1.547 -0.3519 -0.3565  0.5654
 4633TIP3    H135534   1.443   3.709   1.540 -0.1027 -2.3599  1.9776
 4633TIP3    H235535   1.318   3.664   1.466  0.0816 -0.6682  0.5660
 4634TIP3   OH235536   2.822   6.175   2.409  0.4277  0.1301  0.0589
 4634TIP3    H135537   2.763   6.248   2.425  0.2756 -0.0150  0.1604
 4634TIP3    H235538   2.878   6.204   2.338 -1.8075 -0.9014 -2.2911
 4635TIP3   OH235539   2.436   0.746   2.301 -0.7330 -0.6361  0.1280
 4635TIP3    H135540   2.495   0.700   2.241  0.2062 -0.1091  0.6257
 4635TIP3    H235541   2.455   0.839   2.287 -2.9586 -0.3253 -1.2248
 4636TIP3   OH235542   0.368   1.797   8.117  0.0519  0.3113 -0.2082
 4636TIP3    H135543   0.300   1.822   8.055  1.1839  1.5459 -1.0134
 4636TIP3    H235544   0.323   1.790   8.201 -1.0362  1.2667 -0.6817
 4637TIP3   OH235545   6.031   2.058   0.307  0.8612  0.3426  0.4406
 4637TIP3    H135546   5.970   2.131   0.295 -1.2697 -1.4445 -0.2439
 4637TIP3    H235547   6.101   2.076   0.244 -0.4252  1.0309 -0.8767
 4638TIP3   OH235548   3.983   3.024   2.707 -0.6402  0.7952  0.1173
 4638TIP3    H135549   3.914   2.981   2.656  2.6855 -1.3763 -3.0792
 4638TIP3    H235550   3.992   3.110   2.668 -0.8565  0.7162 -0.1070
 4639TIP3   OH235551   0.473   4.906   1.870  0.2846 -0.1311  0.0866
 4639TIP3    H135552   0.539   4.974   1.855  1.1275 -0.7427  0.9298
 4639TIP3    H235553   0.523   4.824   1.874 -0.6937 -0.7948 -0.7215
 4640TIP3   OH235554   0.986   1.846   3.843  0.8278  0.0164  0.1089
 4640TIP3    H135555   0.918   1.845   3.910  1.3942 -2.1511  0.7417
 4640TIP3    H235556   1.040   1.922   3.865 -0.4015  0.7815  0.5993
 4641TIP3   OH235557   4.417   6.551   2.057  0.1790  0.0706 -0.0910
 4641TIP3    H135558   4.480   6.607   2.103  0.1143 -0.6960  0.9636
 4641TIP3    H235559   4.463   6.468   2.045 -0.4609 -0.3465  0.2874
 4642TIP3   OH235560   1.624   3.766   7.865 -0.0083 -0.0335  0.1770
 4642TIP3    H135561   1.678   3.690   7.843 -1.5942 -0.8151 -1.2171
 4642TIP3    H235562   1.575   3.740   7.942  0.4503  0.0995  0.5173
 4643TIP3   OH235563   4.646   0.309   1.046  0.1371  0.7144  0.8803
 4643TIP3    H135564   4.680   0.398   1.060 -0.8989  1.1953  0.4698
 4643TIP3    H235565   4.584   0.295   1.118  2.2692 -0.7590  2.5365
 4644TIP3   OH235566   4.139   5.164   2.888  0.0853  0.3426  0.4618
 4644TIP3    H135567   4.205   5.100   2.913 -0.0132  0.5063  1.1497
 4644TIP3    H235568   4.144   5.167   2.792 -0.1817 -0.9884  0.3765
 4645TIP3   OH235569   3.387   2.115   1.582 -0.0006  0.0157  0.3637
 4645TIP3    H135570   3.392   2.094   1.489  0.4277 -4.6667  1.1694
 4645TIP3    H235571   3.312   2.174   1.590  0.1923  0.8725 -2.9055
 4646TIP3   OH235572   4.272   2.385   0.687 -0.2150  0.0102 -0.1019
 4646TIP3    H135573   4.344   2.339   0.644 -0.1134 -0.2208  0.3083
 4646TIP3    H235574   4.310   2.468   0.716 -0.1699 -0.0236 -0.0651
 4647TIP3   OH235575   1.428   2.524   7.923 -0.2131 -0.7474  0.6336
 4647TIP3    H135576   1.411   2.518   8.017  0.9461  0.5163  0.9622
 4647TIP3    H235577   1.351   2.569   7.888 -0.1847 -0.2815  1.1524
 4648TIP3   OH235578   6.531   4.287   1.684  0.2372 -0.5294 -0.6686
 4648TIP3    H135579   6.535   4.239   1.767  0.4599 -0.2865 -0.5389
 4648TIP3    H235580   6.622   4.309   1.665  0.3617 -1.7648 -1.6716
 4649TIP3   OH235581   5.908   1.006   1.192  0.0038  0.2918 -0.0742
 4649TIP3    H135582   5.841   1.073   1.184 -0.4641  0.0255  1.4235
 4649TIP3    H235583   5.984   1.043   1.147 -0.4295  1.5649  0.1931
 4650TIP3   OH235584   4.910   2.781   1.211  0.3147  0.1811  0.2435
 4650TIP3    H135585   4.977   2.727   1.169  0.5653 -1.2448  2.3121
 4650TIP3    H235586   4.827   2.743   1.182  0.4676 -2.2093  2.4841
 4651TIP3   OH235587   5.928   0.406   3.549  0.5352 -0.4321  0.4320
 4651TIP3    H135588   5.982   0.431   3.624  1.8433 -0.4585 -0.4682
 4651TIP3    H235589   5.988   0.409   3.474 -0.8388 -0.0027 -0.6890
 4652TIP3   OH235590   6.179   3.462   1.249  0.3652 -0.2606  0.2149
 4652TIP3    H135591   6.138   3.396   1.304 -1.4503  0.1848 -0.5029
 4652TIP3    H235592   6.222   3.413   1.179  0.2338 -0.7268  0.4628
 4653TIP3   OH235593   3.618   5.695   8.081  0.2007  0.4675  0.5818
 4653TIP3    H135594   3.580   5.779   8.107  0.3203  0.6412  0.2017
 4653TIP3    H235595   3.625   5.700   7.986  1.5049  0.5991  0.6590
 4654TIP3   OH235596   4.392   5.970   0.932  0.2115  0.0980  0.9656
 4654TIP3    H135597   4.300   5.990   0.947  0.0903  1.2612 -0.9104
 4654TIP3    H235598   4.438   6.050   0.958  0.5006  0.1285  0.3866
 4655TIP3   OH235599   3.402   6.614   0.440 -0.2415 -0.0585 -0.1100
 4655TIP3    H135600   3.313   6.648   0.437 -0.5004 -0.6455  0.5983
 4655TIP3    H235601   3.436   6.643   0.524 -0.4942 -1.5647  0.5454
 4656TIP3   OH235602   3.191   6.487   1.796  0.0484 -0.0601 -0.2377
 4656TIP3    H135603   3.170   6.427   1.867  2.0938  0.3350  0.7677
 4656TIP3    H235604   3.167   6.574   1.829 -0.2039  0.0009 -0.5651
 4657TIP3   OH235605   1.314   3.115   1.357 -0.6298  0.0664 -0.0245
 4657TIP3    H135606   1.300   3.021   1.367  0.1161  0.0500  0.9839
 4657TIP3    H235607   1.229   3.154   1.377 -1.3501 -0.4416 -1.8720
 4658TIP3   OH235608   6.824   4.783   0.110  0.0289 -0.2567 -0.2407
 4658TIP3    H135609   6.753   4.820   0.057  0.8673  1.3596 -0.3110
 4658TIP3    H235610   6.865   4.859   0.150  2.1557 -1.0872 -0.7472
 4659TIP3   OH235611   4.734   6.701   2.029  0.7733 -0.7620 -0.2946
 4659TIP3    H135612   4.782   6.732   2.106 -0.6178 -0.0139  0.2942
 4659TIP3    H235613   4.672   6.771   2.008 -0.6899 -2.0562 -0.4757
 4660TIP3   OH235614   6.248   5.901   0.955  0.4082 -0.0995  0.0234
 4660TIP3    H135615   6.156   5.904   0.929 -0.1267 -2.3952  1.3447
 4660TIP3    H235616   6.295   5.878   0.875 -0.3600 -0.3848 -0.3559
 4661TIP3   OH235617   1.765   2.416   0.189  0.3860  0.2173  0.5448
 4661TIP3    H135618   1.817   2.481   0.142 -2.3525  0.3769 -2.7005
 4661TIP3    H235619   1.783   2.334   0.144  2.0533 -0.9590  3.1247
 4662TIP3   OH235620   6.718   4.899   1.619  0.0648  0.5424 -0.4743
 4662TIP3    H135621   6.758   4.884   1.533  1.2907  0.3052  0.1138
 4662TIP3    H235622   6.655   4.970   1.605  1.4182  1.6330 -1.2462
 4663TIP3   OH235623   1.539   2.972   1.770  0.3450  0.3692 -0.3149
 4663TIP3    H135624   1.515   3.064   1.762  1.0985  0.6053  0.0879
 4663TIP3    H235625   1.595   2.954   1.695  0.4035  0.3047 -0.2564
 4664TIP3   OH235626   7.038   4.228   2.152 -0.1517  0.3417  0.3306
 4664TIP3    H135627   7.044   4.296   2.085 -0.9440 -0.3672 -0.4886
 4664TIP3    H235628   7.116   4.241   2.206 -0.6468  2.3230  0.6415
 4665TIP3   OH235629   7.000   6.089   0.218 -0.3821 -0.1328 -0.4593
 4665TIP3    H135630   7.051   6.168   0.232 -1.6493  0.5672  0.3748
 4665TIP3    H235631   7.059   6.017   0.242  0.7506  0.5270 -1.1422
 4666TIP3   OH235632   4.767   3.964   8.082 -0.4328  0.1295  0.2578
 4666TIP3    H135633   4.831   3.973   8.152  1.9223  0.9200 -1.8729
 4666TIP3    H235634   4.707   4.038   8.093  1.7737  2.0931 -0.3378
 4667TIP3   OH235635   4.480   1.222   3.461 -0.0547 -0.5600 -0.2819
 4667TIP3    H135636   4.491   1.128   3.447  0.0818 -0.8030  1.2994
 4667TIP3    H235637   4.569   1.255   3.478  0.1437  0.1831 -2.4237
 4668TIP3   OH235638   0.119   2.788   1.750  0.0544  0.0134  0.3623
 4668TIP3    H135639   0.163   2.710   1.716 -0.9602 -0.6569  0.5411
 4668TIP3    H235640   0.068   2.757   1.824 -0.1317  0.9101  0.6243
 4669TIP3   OH235641   2.816   0.829   0.931 -0.6042 -0.6205  0.3378
 4669TIP3    H135642   2.741   0.785   0.971 -1.3987  1.2506  1.0127
 4669TIP3    H235643   2.788   0.845   0.841 -2.0851  2.1866  1.1895
 4670TIP3   OH235644   3.084   6.858   6.955  0.2961  0.6029  0.1431
 4670TIP3    H135645   3.096   6.843   7.049 -2.6430 -0.4034  0.4268
 4670TIP3    H235646   3.108   6.950   6.943  1.2118  0.6144  1.7622
 4671TIP3   OH235647   6.001   2.038   3.442  0.2591 -0.1772  0.1967
 4671TIP3    H135648   5.948   2.097   3.495 -0.3730  0.4252 -1.0528
 4671TIP3    H235649   5.939   1.978   3.403  0.7985 -1.0811  0.6919
 4672TIP3   OH235650   6.402   6.392   2.848  0.2365 -0.0672  0.7078
 4672TIP3    H135651   6.331   6.336   2.882 -0.4133  0.3512  0.0668
 4672TIP3    H235652   6.476   6.332   2.838 -1.0110 -1.3527 -1.9154
 4673TIP3   OH235653   5.852   2.061   1.882  0.1760 -0.2755 -0.2128
 4673TIP3    H135654   5.807   2.095   1.804 -0.1633 -1.0403 -0.3591
 4673TIP3    H235655   5.934   2.027   1.847  0.3743  0.0940 -0.1132
 4674TIP3   OH235656   6.915   5.078   0.034 -0.1359 -0.3103 -0.5075
 4674TIP3    H135657   7.005   5.046   0.023 -0.5068 -1.3157 -0.7369
 4674TIP3    H235658   6.899   5.131  -0.045  0.5175  0.5547 -0.0762
 4675TIP3   OH235659   5.593   5.440   1.598  0.2782  0.2494 -0.4606
 4675TIP3    H135660   5.558   5.529   1.600 -0.4464 -0.0380  0.0364
 4675TIP3    H235661   5.658   5.442   1.527 -1.3722  0.5802 -2.0443
 4676TIP3   OH235662   1.279   5.361   1.395  0.1401 -0.1020  0.1341
 4676TIP3    H135663   1.241   5.273   1.383 -0.5409  0.3425 -1.2469
 4676TIP3    H235664   1.374   5.346   1.398  0.0344 -0.8794 -0.2127
 4677TIP3   OH235665   6.417   2.430   8.219 -0.2166  0.8122 -0.5608
 4677TIP3    H135666   6.505   2.440   8.185  0.3995  1.3257  1.0925
 4677TIP3    H235667   6.411   2.337   8.243 -0.7942  0.3568 -2.3631
 4678TIP3   OH235668   0.075   5.607   2.700 -0.2640 -0.1721  0.5745
 4678TIP3    H135669   0.055   5.672   2.633  1.6235 -0.8135 -0.7004
 4678TIP3    H235670   0.023   5.634   2.776 -0.4225  2.1435 -0.2730
 4679TIP3   OH235671   1.010   2.784   2.669  0.0561 -0.7393 -0.4205
 4679TIP3    H135672   1.017   2.838   2.747 -1.3097 -1.7099  0.4197
 4679TIP3    H235673   1.086   2.808   2.616 -0.7476  2.3693 -0.3730
 4680TIP3   OH235674   1.355   6.494   0.946 -0.1188  0.1819 -0.4158
 4680TIP3    H135675   1.401   6.539   0.875 -1.5098 -1.0380 -2.2035
 4680TIP3    H235676   1.403   6.412   0.957  0.5348  0.6823  0.6238
 4681TIP3   OH235677   2.693   2.914   7.762 -0.2727 -0.3910  0.7353
 4681TIP3    H135678   2.761   2.849   7.780  0.4015  0.6734  2.3212
 4681TIP3    H235679   2.653   2.886   7.680  1.5197 -1.5202  0.2017
 4682TIP3   OH235680   0.827   6.115   3.738 -0.7230 -0.1927 -0.4881
 4682TIP3    H135681   0.817   6.031   3.693 -0.2476  0.5222 -2.0119
 4682TIP3    H235682   0.830   6.179   3.667 -1.4124  1.1563  0.6514
 4683TIP3   OH235683   4.638   1.989   0.480 -0.5664  0.0876  0.2149
 4683TIP3    H135684   4.597   1.916   0.433  1.4706  0.8834 -3.1329
 4683TIP3    H235685   4.725   1.956   0.504 -0.6321  0.5621  1.1458
 4684TIP3   OH235686   1.269   4.639   0.919 -0.6605 -0.1326  0.0976
 4684TIP3    H135687   1.354   4.678   0.941 -0.2249 -1.2428  0.4876
 4684TIP3    H235688   1.205   4.696   0.959  0.0286 -0.8425  2.3536
 4685TIP3   OH235689   5.935   6.801   3.287 -0.1658  0.1727  0.0155
 4685TIP3    H135690   5.990   6.834   3.216 -1.4510 -3.3958 -3.0014
 4685TIP3    H235691   5.880   6.875   3.312  2.6502  2.5059 -0.1841
 4686TIP3   OH235692   0.861   5.834   1.807 -0.8559  0.2627  0.0707
 4686TIP3    H135693   0.881   5.881   1.726  0.7243  1.8052  1.2836
 4686TIP3    H235694   0.779   5.872   1.837 -1.1559  0.0803 -0.5020
 4687TIP3   OH235695   3.188   5.671   0.305  0.3200 -0.3328 -0.4071
 4687TIP3    H135696   3.123   5.632   0.363  1.3850  0.8172  1.6722
 4687TIP3    H235697   3.137   5.709   0.234 -1.5239  1.7898  1.8681
 4688TIP3   OH235698   2.438   6.350   2.502  0.4584  0.3703  0.0724
 4688TIP3    H135699   2.421   6.444   2.504  1.9747  0.6939  3.4101
 4688TIP3    H235700   2.526   6.342   2.467  1.1519  0.4450  1.7000
 4689TIP3   OH235701   0.840   3.755   2.790  0.2974 -0.1714 -0.2152
 4689TIP3    H135702   0.774   3.694   2.823  0.8189 -0.0377  1.1364
 4689TIP3    H235703   0.816   3.769   2.698 -2.9126  1.6224  0.7287
 4690TIP3   OH235704   6.394   4.049   2.117 -0.0279  0.1492 -0.4775
 4690TIP3    H135705   6.313   4.004   2.091 -0.4358  0.7931 -0.3552
 4690TIP3    H235706   6.364   4.135   2.147  0.5692 -0.0749  0.8181
 4691TIP3   OH235707   1.112   4.083   1.602  0.1593  0.4657 -0.2864
 4691TIP3    H135708   1.096   3.989   1.610  1.9045  0.1195 -0.5227
 4691TIP3    H235709   1.027   4.120   1.577 -1.6068 -0.4749  3.5617
 4692TIP3   OH235710   3.155   5.175   2.219 -0.0417  0.2301 -0.0928
 4692TIP3    H135711   3.128   5.087   2.244  0.1453  0.7044  1.9314
 4692TIP3    H235712   3.242   5.164   2.183 -0.2940 -0.4878 -0.5054
 4693TIP3   OH235713   4.865   1.507   3.395 -0.6699 -0.4342 -0.0124
 4693TIP3    H135714   4.941   1.557   3.364 -0.9346  1.1336  1.7291
 4693TIP3    H235715   4.791   1.544   3.347 -0.6108 -0.5207 -0.1715
 4694TIP3   OH235716   2.016   7.052   2.654 -0.4596 -0.2840  0.0387
 4694TIP3    H135717   1.933   7.050   2.608  0.4322  1.6943 -1.8464
 4694TIP3    H235718   2.082   7.059   2.584  1.1106  0.8272  1.5521
 4695TIP3   OH235719   5.333   0.261   1.432 -0.2109 -0.0931  0.3648
 4695TIP3    H135720   5.334   0.312   1.351  0.3653 -0.6760 -0.0077
 4695TIP3    H235721   5.242   0.264   1.461 -0.3144  0.5843 -0.0009
 4696TIP3   OH235722   0.789   6.779   0.725 -0.2282 -0.7213 -0.3786
 4696TIP3    H135723   0.859   6.745   0.670  1.5399  0.2946  1.1375
 4696TIP3    H235724   0.780   6.714   0.795  1.4355  0.5966  1.1471
 4697TIP3   OH235725   5.313   5.084   2.140  0.0872 -0.0612  0.2470
 4697TIP3    H135726   5.377   5.061   2.207  3.5687 -0.2601 -2.8553
 4697TIP3    H235727   5.298   5.178   2.153  1.3765  0.0936  0.7835
 4698TIP3   OH235728   1.519   3.414   8.224  0.4124 -0.1903 -1.0962
 4698TIP3    H135729   1.438   3.453   8.191  0.0959  0.8081  0.6805
 4698TIP3    H235730   1.490   3.350   8.289  0.9898  1.7567  1.2178
 4699TIP3   OH235731   6.481   6.518   3.416 -0.0611  0.3131  0.1153
 4699TIP3    H135732   6.570   6.553   3.414  0.3111 -0.5422  0.8701
 4699TIP3    H235733   6.490   6.426   3.391 -0.6715  0.1273  0.5310
 4700TIP3   OH235734   1.124   4.670   3.316 -0.2007  0.8934 -0.2855
 4700TIP3    H135735   1.201   4.664   3.371 -0.9652 -1.4931  0.6405
 4700TIP3    H235736   1.052   4.689   3.376 -0.7442  0.2409 -0.7088
 4701TIP3   OH235737   3.907   1.318   1.305 -0.0106 -0.9259  0.5631
 4701TIP3    H135738   3.875   1.287   1.221  1.7152  1.8753 -1.2998
 4701TIP3    H235739   3.928   1.238   1.354 -3.1138 -2.7007 -0.6902
 4702TIP3   OH235740   4.707   5.318   2.840  0.2942 -0.0557  0.5915
 4702TIP3    H135741   4.620   5.277   2.839 -0.9526  2.4329  0.5922
 4702TIP3    H235742   4.745   5.290   2.924 -1.9487  1.5089  2.2672
 4703TIP3   OH235743   3.882   0.722   0.379 -0.4375  0.4247  0.0858
 4703TIP3    H135744   3.916   0.662   0.445 -0.2944  0.1648 -0.2231
 4703TIP3    H235745   3.787   0.708   0.380 -0.4710  0.6704  0.4781
 4704TIP3   OH235746   5.114   5.582   0.640  0.1310 -0.0817 -0.3988
 4704TIP3    H135747   5.112   5.511   0.576 -0.1098 -2.0008  1.5694
 4704TIP3    H235748   5.056   5.551   0.710  0.7467  1.6585  0.9453
 4705TIP3   OH235749   4.286   3.709   2.607  0.4832  0.2924  0.1655
 4705TIP3    H135750   4.237   3.629   2.627  2.6525 -0.7001  1.9994
 4705TIP3    H235751   4.237   3.779   2.649  0.6937 -0.6982  2.1621
 4706TIP3   OH235752   6.029   6.366   1.304 -0.0699  0.4997  0.3309
 4706TIP3    H135753   6.033   6.290   1.246  0.3315  0.9643 -0.2500
 4706TIP3    H235754   5.949   6.352   1.355  1.0747 -1.4164  1.7651
 4707TIP3   OH235755   6.009   1.776   1.294 -0.1383 -0.0251 -0.8111
 4707TIP3    H135756   6.034   1.869   1.295 -0.3020  0.0207  0.2083
 4707TIP3    H235757   6.087   1.730   1.325 -0.9450  0.0465  1.5336
 4708TIP3   OH235758   5.481   0.477   0.936  1.1137  0.1920 -0.2456
 4708TIP3    H135759   5.433   0.543   0.986  0.8411 -0.3403  0.2198
 4708TIP3    H235760   5.545   0.442   0.999 -1.0225 -2.4138  0.6811
 4709TIP3   OH235761   0.001   3.527   1.479  0.5977  0.1883  0.5671
 4709TIP3    H135762   0.081   3.501   1.523  1.6313  1.9186 -0.1697
 4709TIP3    H235763   0.022   3.612   1.440 -1.4627  0.4895 -0.0105
 4710TIP3   OH235764   0.417   3.435   8.024 -0.2877 -0.1598 -0.3824
 4710TIP3    H135765   0.430   3.496   7.952  1.3851  1.1189  0.9051
 4710TIP3    H235766   0.394   3.352   7.982 -3.4790  1.4480 -2.1640
 4711TIP3   OH235767   3.814   4.672   1.793 -0.1812 -0.0249  0.2145
 4711TIP3    H135768   3.811   4.585   1.834  1.3068 -0.0671  0.2664
 4711TIP3    H235769   3.767   4.661   1.711 -1.5820 -0.4115  1.0280
 4712TIP3   OH235770   1.226   0.560   1.996  0.4540  0.0361 -0.2291
 4712TIP3    H135771   1.304   0.524   1.954  0.2918  0.4231 -0.8668
 4712TIP3    H235772   1.187   0.618   1.931  0.3888  0.9239  0.5663
 4713TIP3   OH235773   4.775   1.253   0.996 -0.3256 -0.1786 -0.1347
 4713TIP3    H135774   4.799   1.214   1.080 -1.2334 -0.4952 -0.0100
 4713TIP3    H235775   4.850   1.235   0.938  0.0143 -0.5423  0.4152
 4714TIP3   OH235776   3.713   1.909   7.322  0.3063  0.0282 -0.2342
 4714TIP3    H135777   3.690   2.001   7.317  0.1322 -0.0860 -2.3599
 4714TIP3    H235778   3.633   1.862   7.299  0.4915 -0.6551  0.4633
 4715TIP3   OH235779   3.752   3.013   2.527  0.1324 -0.1119 -0.5668
 4715TIP3    H135780   3.687   3.071   2.567 -0.0315 -1.5761  1.4541
 4715TIP3    H235781   3.734   3.018   2.433 -1.0231  1.6931 -0.2906
 4716TIP3   OH235782   2.931   1.279   1.220 -0.2130  0.1355 -0.0311
 4716TIP3    H135783   2.971   1.248   1.139 -1.4264  0.5464 -0.8079
 4716TIP3    H235784   2.873   1.350   1.193 -0.3012  0.5935  1.2629
 4717TIP3   OH235785   6.922   2.541   2.800  0.1271 -0.4739 -0.6431
 4717TIP3    H135786   6.963   2.570   2.882 -0.2828 -3.9716  1.0027
 4717TIP3    H235787   6.857   2.608   2.781  1.0653  1.0802  1.1962
 4718TIP3   OH235788   6.151   1.998   7.697 -0.2686  0.1639  0.1768
 4718TIP3    H135789   6.229   2.048   7.673  0.0032 -1.7197 -3.6251
 4718TIP3    H235790   6.181   1.938   7.765  1.0987  0.7392  0.1095
 4719TIP3   OH235791   2.560   6.878   2.746  0.2023 -0.5237 -0.1375
 4719TIP3    H135792   2.557   6.956   2.800  0.2776 -2.7926  3.4605
 4719TIP3    H235793   2.471   6.868   2.712 -0.7824 -0.7569  2.3588
 4720TIP3   OH235794   6.310   5.943   7.529  0.8513 -0.4416  0.1608
 4720TIP3    H135795   6.297   6.038   7.540  0.7718 -0.5015  0.6272
 4720TIP3    H235796   6.306   5.929   7.435  0.8263  0.0169  0.0897
 4721TIP3   OH235797   4.079   0.136   1.190 -0.0903 -0.5269 -0.1477
 4721TIP3    H135798   4.062   0.088   1.271 -0.3671 -1.5287 -0.7825
 4721TIP3    H235799   4.159   0.098   1.155  1.7968  1.9699  1.1590
 4722TIP3   OH235800   7.031   3.109   0.657 -0.5100 -0.4143 -0.0771
 4722TIP3    H135801   6.993   3.196   0.672  1.2416  0.3936  0.0132
 4722TIP3    H235802   7.010   3.060   0.736 -1.3123  0.0005 -0.0201
 4723TIP3   OH235803   2.686   4.040   0.220  0.3035 -0.5136 -0.2567
 4723TIP3    H135804   2.603   3.995   0.208  0.1348 -1.0661  2.3103
 4723TIP3    H235805   2.745   4.001   0.156 -1.3891  0.0081 -2.2358
 4724TIP3   OH235806   4.828   3.441   1.299  0.2251 -0.9888 -0.3061
 4724TIP3    H135807   4.817   3.439   1.204  0.5248 -1.4238 -0.3347
 4724TIP3    H235808   4.750   3.487   1.332  1.4580  1.7584 -0.9610
 4725TIP3   OH235809   3.820   1.906   0.920 -0.1749 -0.4736  0.0572
 4725TIP3    H135810   3.785   1.839   0.979 -2.3684  0.5308 -0.0172
 4725TIP3    H235811   3.819   1.986   0.972 -0.4615  0.0878 -0.8090
 4726TIP3   OH235812   6.985   4.136   7.884  0.4156 -0.2659  0.0520
 4726TIP3    H135813   6.994   4.134   7.789  1.4730  0.9570  0.0964
 4726TIP3    H235814   6.946   4.222   7.902  1.5742  0.1184  0.8005
 4727TIP3   OH235815   5.974   4.357   8.127  0.2680  0.1153 -0.0563
 4727TIP3    H135816   5.933   4.299   8.063  0.1164  0.1900 -0.0289
 4727TIP3    H235817   5.942   4.445   8.104 -0.4509  0.0463  0.6232
 4728TIP3   OH235818   5.534   2.591   0.262  0.0219 -0.0235  0.1240
 4728TIP3    H135819   5.456   2.615   0.311 -0.2407 -1.4975  0.4900
 4728TIP3    H235820   5.521   2.628   0.175 -0.7278  0.3918  0.4128
 4729TIP3   OH235821   6.933   4.987   1.142  0.6089 -0.0475  0.3109
 4729TIP3    H135822   6.838   4.977   1.149  0.1867  0.7358 -2.7005
 4729TIP3    H235823   6.963   4.902   1.109  1.2862 -0.9012  2.9173
 4730TIP3   OH235824   1.132   1.403   7.629  0.2314 -0.0835  0.3174
 4730TIP3    H135825   1.053   1.451   7.606  0.1960 -0.5216 -0.4847
 4730TIP3    H235826   1.126   1.391   7.724 -0.8797 -0.4963  0.2083
 4731TIP3   OH235827   1.040   2.622   2.924  0.5464  0.6996 -0.3796
 4731TIP3    H135828   1.019   2.670   2.844  3.6930 -1.0646 -2.4964
 4731TIP3    H235829   1.000   2.536   2.913 -0.0825  0.8416  0.6095
 4732TIP3   OH235830   3.922   4.115   0.796  0.1495 -0.1604 -0.5871
 4732TIP3    H135831   3.964   4.028   0.791 -0.3134 -0.3436 -1.7235
 4732TIP3    H235832   3.879   4.116   0.881  2.3589  0.0045  0.6095
 4733TIP3   OH235833   0.244   6.304   3.469  0.0876 -0.0190  0.1510
 4733TIP3    H135834   0.284   6.230   3.515  0.0259  0.0244  0.2751
 4733TIP3    H235835   0.276   6.297   3.379 -0.7998 -0.8337 -0.1108
 4734TIP3   OH235836   3.872   5.731   1.468 -0.1015 -0.2053 -0.1136
 4734TIP3    H135837   3.797   5.770   1.512 -1.7244 -1.8260 -1.3333
 4734TIP3    H235838   3.891   5.651   1.517 -0.9409 -1.2081 -1.3530
 4735TIP3   OH235839   6.989   3.950   2.125  0.0578 -0.2383 -0.2410
 4735TIP3    H135840   6.938   3.946   2.044  1.6663  1.1193 -1.3805
 4735TIP3    H235841   7.016   4.042   2.131  1.2847 -0.6625  0.9985
 4736TIP3   OH235842   0.662   0.065   3.746  0.4927 -0.8617  0.1769
 4736TIP3    H135843   0.629  -0.003   3.804  2.0012 -2.0181 -0.2598
 4736TIP3    H235844   0.653   0.146   3.796 -1.5044 -1.3125  0.6353
 4737TIP3   OH235845   0.898   6.285   2.223  0.1420  0.2127 -0.4540
 4737TIP3    H135846   0.839   6.297   2.298  0.3030  1.3956 -0.4972
 4737TIP3    H235847   0.985   6.280   2.262  0.0790 -0.8532 -0.4418
 4738TIP3   OH235848   4.982   0.703   2.529 -0.1961 -0.1234  0.1974
 4738TIP3    H135849   5.051   0.759   2.565 -0.9201  0.2028  1.1490
 4738TIP3    H235850   4.952   0.652   2.604 -1.1399 -0.0838 -0.1348
 4739TIP3   OH235851   3.381   2.523   1.213 -0.0149  0.0277  0.2367
 4739TIP3    H135852   3.301   2.476   1.192  0.5358 -0.5037 -0.7089
 4739TIP3    H235853   3.393   2.584   1.140 -0.3070  1.1224  1.0669
 4740TIP3   OH235854   0.331   6.093   8.006 -0.8738  0.1146 -0.3214
 4740TIP3    H135855   0.422   6.086   7.979 -0.9741  1.3966 -1.0968
 4740TIP3    H235856   0.281   6.079   7.926 -1.2922  0.9174 -0.2143
 4741TIP3   OH235857   3.314   1.381   0.587  0.0874 -0.2123 -1.1305
 4741TIP3    H135858   3.407   1.382   0.566  0.3562 -1.4561 -0.1688
 4741TIP3    H235859   3.294   1.470   0.614  1.3663 -0.2668  0.0858
 4742TIP3   OH235860   2.793   6.110   8.160  0.1335 -0.5989  0.5960
 4742TIP3    H135861   2.710   6.063   8.172  0.5492 -1.6415 -0.4137
 4742TIP3    H235862   2.852   6.070   8.225  0.4916 -1.5319 -0.2737
 4743TIP3   OH235863   4.463   5.522   1.140  0.2381 -0.1102  0.2886
 4743TIP3    H135864   4.440   5.518   1.047 -2.0051 -1.1405  0.8101
 4743TIP3    H235865   4.402   5.586   1.177  2.6037  2.0488  0.7595
 4744TIP3   OH235866   3.259   2.093   1.894  0.1333 -0.3841  0.1975
 4744TIP3    H135867   3.212   2.018   1.857  0.5406  0.2373 -1.6937
 4744TIP3    H235868   3.193   2.161   1.902  0.1062 -0.4247  0.3148
 4745TIP3   OH235869   5.943   0.675   7.475 -0.3572  0.0101 -0.3114
 4745TIP3    H135870   5.907   0.586   7.476 -1.7248  0.5336  0.7766
 4745TIP3    H235871   6.034   0.664   7.502  0.1681 -1.2890 -2.4063
 4746TIP3   OH235872   1.263   4.517   2.055  0.3968 -0.6371 -0.4935
 4746TIP3    H135873   1.192   4.463   2.088 -1.2311  0.0586 -2.6277
 4746TIP3    H235874   1.327   4.455   2.019 -0.3059 -1.2121 -0.7570
 4747TIP3   OH235875   3.910   6.475   2.081 -0.3572 -0.2592 -0.2503
 4747TIP3    H135876   3.896   6.526   2.161 -0.4855 -0.3674 -0.2034
 4747TIP3    H235877   4.005   6.479   2.066 -0.2820 -0.5633  0.1252
 4748TIP3   OH235878   1.685   5.648   1.678  0.3342 -0.7820  0.1394
 4748TIP3    H135879   1.717   5.586   1.743  0.5245 -0.5838  0.2336
 4748TIP3    H235880   1.756   5.654   1.614  0.8460  0.2895  0.7739
 4749TIP3   OH235881   6.881   4.244   2.400  0.4930 -0.2615  0.2157
 4749TIP3    H135882   6.939   4.243   2.323  3.2551 -3.1072  2.0896
 4749TIP3    H235883   6.911   4.319   2.451  0.5590 -0.0250 -0.1637
 4750TIP3   OH235884   0.907   2.816   3.478 -0.4507 -0.3444  0.3063
 4750TIP3    H135885   0.836   2.811   3.414 -0.2458 -1.1317  0.1316
 4750TIP3    H235886   0.959   2.892   3.451 -1.1432  0.1634  0.3623
 4751TIP3   OH235887   5.301   6.129   0.287  0.0573  0.2182 -0.3226
 4751TIP3    H135888   5.350   6.179   0.222 -1.6625  0.6154 -1.3787
 4751TIP3    H235889   5.354   6.135   0.366  0.3716  3.0201 -0.6327
 4752TIP3   OH235890   0.344   4.644   0.742 -0.5346  0.6062 -0.1950
 4752TIP3    H135891   0.410   4.676   0.681  1.1847  0.2503  1.3774
 4752TIP3    H235892   0.343   4.708   0.813  0.6963 -1.1132  1.4712
 4753TIP3   OH235893   2.651   1.417   3.419  0.5047  0.0236  0.5159
 4753TIP3    H135894   2.635   1.327   3.447  0.5533 -0.2154 -0.1807
 4753TIP3    H235895   2.610   1.472   3.486 -2.3578 -0.5437 -0.6302
 4754TIP3   OH235896   5.706   3.526   0.975  0.0363  0.1333  0.0724
 4754TIP3    H135897   5.719   3.445   1.025 -2.4311 -0.6902 -0.5115
 4754TIP3    H235898   5.621   3.515   0.933  0.4354  2.3169 -1.4526
 4755TIP3   OH235899   2.531   5.104   0.559  0.3087 -0.3565  0.0461
 4755TIP3    H135900   2.501   5.015   0.580 -1.0943  0.1068  0.0935
 4755TIP3    H235901   2.451   5.156   0.554  1.0627  0.7848 -0.6273
 4756TIP3   OH235902   1.139   0.848   8.037  0.5307  0.5125 -0.1408
 4756TIP3    H135903   1.056   0.820   8.077  1.3215  1.2323  2.1911
 4756TIP3    H235904   1.112   0.894   7.957 -1.1175 -1.4737 -0.8027
 4757TIP3   OH235905   3.437   6.818   0.044  0.0554 -0.3583  0.2099
 4757TIP3    H135906   3.402   6.884   0.103  0.6079 -0.7163  0.9470
 4757TIP3    H235907   3.359   6.777   0.005 -0.3199 -0.3271  0.9146
 4758TIP3   OH235908   3.768   5.952   1.063  0.2041 -0.3354 -0.6183
 4758TIP3    H135909   3.779   5.984   1.152 -1.2313  0.4660 -0.7020
 4758TIP3    H235910   3.788   6.027   1.008  1.2037 -0.8582 -1.0010
 4759TIP3   OH235911   5.718   3.246   0.288 -0.3637  0.2161  0.1206
 4759TIP3    H135912   5.737   3.164   0.334 -2.1728  0.6735  1.8095
 4759TIP3    H235913   5.629   3.237   0.257  0.0801  0.8095 -1.4317
 4760TIP3   OH235914   1.935   2.101   1.618 -0.3714 -0.2422 -0.1220
 4760TIP3    H135915   1.853   2.076   1.577 -0.7066 -0.5615  0.7283
 4760TIP3    H235916   1.984   2.019   1.628 -0.2919 -0.1694  0.1068
 4761TIP3   OH235917   1.536   0.147   7.248 -0.5597  0.0586 -0.3537
 4761TIP3    H135918   1.472   0.124   7.316 -0.4078  0.9760  0.1175
 4761TIP3    H235919   1.618   0.108   7.277 -0.6153 -0.0148 -0.2943
 4762TIP3   OH235920   2.806   6.216   3.591  0.5186 -0.6798 -0.1869
 4762TIP3    H135921   2.720   6.204   3.550 -1.6443 -0.0493  3.6548
 4762TIP3    H235922   2.823   6.134   3.636  0.5093  0.0948  1.3050
 4763TIP3   OH235923   6.627   0.745   2.880 -0.0775  1.1231  0.2817
 4763TIP3    H135924   6.694   0.809   2.905  1.8163 -1.1753  1.5212
 4763TIP3    H235925   6.673   0.661   2.879 -2.2125 -0.1683 -2.2218
 4764TIP3   OH235926   4.113   1.504   1.629 -0.4424 -0.1035 -0.2184
 4764TIP3    H135927   4.053   1.563   1.585 -0.8428 -1.0654 -0.9848
 4764TIP3    H235928   4.114   1.425   1.575  1.3575 -0.1952 -0.1239
 4765TIP3   OH235929   5.995   1.430   3.337 -0.3976 -0.2737 -0.5189
 4765TIP3    H135930   6.044   1.354   3.308 -0.7831 -0.2017 -1.4080
 4765TIP3    H235931   5.903   1.406   3.324 -0.5030  0.6106 -1.5800
 4766TIP3   OH235932   0.258   2.086   2.618 -0.8178 -0.5164  0.7301
 4766TIP3    H135933   0.227   2.059   2.704 -2.3417  0.6090  0.5680
 4766TIP3    H235934   0.309   2.165   2.635 -2.1014  0.3831  0.5046
 4767TIP3   OH235935   3.592   2.134   7.214  0.1040 -0.2842  0.1809
 4767TIP3    H135936   3.561   2.199   7.152  0.2700 -0.4555 -0.0848
 4767TIP3    H235937   3.527   2.064   7.211 -0.5477  0.2591  1.1265
 4768TIP3   OH235938   1.530   6.375   2.174 -0.1704  0.3167 -0.1463
 4768TIP3    H135939   1.551   6.404   2.263  0.7120 -0.7785  0.0228
 4768TIP3    H235940   1.531   6.280   2.179  1.0683  0.2106 -1.5846
 4769TIP3   OH235941   1.656   3.497   7.113  0.3772 -0.3423 -0.3540
 4769TIP3    H135942   1.658   3.508   7.208 -0.3887  2.2366 -0.5649
 4769TIP3    H235943   1.738   3.536   7.083  0.1112 -0.1592 -0.8402
 4770TIP3   OH235944   6.142   3.117   0.861  0.2259  0.4712  0.0729
 4770TIP3    H135945   6.118   3.165   0.782 -1.5001  0.6645  0.6726
 4770TIP3    H235946   6.169   3.031   0.830  0.3030  0.7932 -0.7674
 4771TIP3   OH235947   3.140   5.033   0.648 -0.9494 -0.6016 -0.0864
 4771TIP3    H135948   3.142   4.969   0.719 -0.8642  1.3434  1.7750
 4771TIP3    H235949   3.064   5.087   0.667 -0.5504  0.3459 -1.1106
 4772TIP3   OH235950   2.276   1.841   3.582  0.2553  0.6331  0.3104
 4772TIP3    H135951   2.323   1.776   3.529 -1.1906 -0.7802  0.6774
 4772TIP3    H235952   2.344   1.883   3.634  1.2398 -0.6294  0.0968
 4773TIP3   OH235953   4.123   4.348   0.565 -0.3057 -0.9263 -0.0801
 4773TIP3    H135954   4.030   4.350   0.585 -0.2563  0.5499  0.0440
 4773TIP3    H235955   4.165   4.323   0.648 -0.6203 -2.5819 -0.3740
 4774TIP3   OH235956   2.095   6.578   0.968 -0.2143  0.2376 -0.6291
 4774TIP3    H135957   2.147   6.643   1.015  0.5803  1.0085 -2.4897
 4774TIP3    H235958   2.013   6.573   1.017  0.8846  0.3242  1.3237
 4775TIP3   OH235959   1.023   1.644   8.000  0.2314  0.1510 -0.1647
 4775TIP3    H135960   0.928   1.657   7.999  0.0074 -0.4770  2.8944
 4775TIP3    H235961   1.035   1.554   7.970 -0.1284  0.2429 -0.5936
 4776TIP3   OH235962   2.578   5.703   2.435 -0.0189  0.4491  0.2807
 4776TIP3    H135963   2.520   5.627   2.435  0.4641  0.0676  1.5183
 4776TIP3    H235964   2.645   5.683   2.499  0.7986  1.4225 -0.2352
 4777TIP3   OH235965   6.061   4.976   2.394  0.1080  0.0922  0.0198
 4777TIP3    H135966   5.983   5.029   2.377 -0.2071 -0.0586  0.9110
 4777TIP3    H235967   6.043   4.892   2.353  0.4416  0.5334 -1.0583
 4778TIP3   OH235968   6.679   2.178   1.448  0.1859 -0.1066  0.2977
 4778TIP3    H135969   6.630   2.224   1.380  2.1356  0.3179 -0.9099
 4778TIP3    H235970   6.635   2.093   1.456  0.7392 -0.7962 -2.6408
 4779TIP3   OH235971   4.962   6.067   8.018 -0.2981  0.2776 -0.5378
 4779TIP3    H135972   5.005   6.027   7.942 -1.3180 -0.9548 -0.4959
 4779TIP3    H235973   4.949   6.158   7.992  3.0716  0.9902 -0.2098
 4780TIP3   OH235974   3.707   4.286   3.059  0.1084  0.4865 -0.7812
 4780TIP3    H135975   3.690   4.241   2.976 -1.0165 -0.8141  0.1125
 4780TIP3    H235976   3.635   4.349   3.067 -0.2780  0.0081 -0.4062
 4781TIP3   OH235977   1.550   3.061   7.907 -0.2894 -0.0441 -0.1239
 4781TIP3    H135978   1.459   3.084   7.923 -0.5905 -0.5347 -1.0096
 4781TIP3    H235979   1.584   3.132   7.853 -0.4956 -0.4115 -0.7571
 4782TIP3   OH235980   4.165   4.897   2.674  0.8198  0.8070  0.0608
 4782TIP3    H135981   4.255   4.926   2.688  1.1908 -0.2985  0.1224
 4782TIP3    H235982   4.172   4.827   2.609 -0.3844  2.8403 -2.4301
 4783TIP3   OH235983   0.438   5.897   2.137  0.2724 -0.3189  0.4611
 4783TIP3    H135984   0.353   5.915   2.096 -0.1092  1.5351  1.8937
 4783TIP3    H235985   0.491   5.859   2.068 -1.3344 -0.2967 -0.8306
 4784TIP3   OH235986   6.769   1.895   8.000 -0.2413 -0.4346 -0.2306
 4784TIP3    H135987   6.839   1.876   7.937 -0.6415 -0.9970 -0.5166
 4784TIP3    H235988   6.814   1.937   8.074  0.7355 -2.4779  0.4397
 4785TIP3   OH235989   2.477   5.455   7.828 -0.0703 -0.3635 -0.1092
 4785TIP3    H135990   2.517   5.443   7.742 -0.6480 -1.9786 -0.1776
 4785TIP3    H235991   2.485   5.370   7.870 -2.5706 -0.4668  0.2593
 4786TIP3   OH235992   0.481   6.185   1.086  0.3227  0.7736  0.1185
 4786TIP3    H135993   0.561   6.237   1.078  0.3738  0.7858  0.6317
 4786TIP3    H235994   0.414   6.247   1.116  0.3499  0.5775  0.5917
 4787TIP3   OH235995   2.629   6.650   2.590  0.0142 -0.2521  0.1255
 4787TIP3    H135996   2.638   6.681   2.680 -1.8563 -0.1646  0.3072
 4787TIP3    H235997   2.535   6.647   2.574  0.2953 -0.5375 -1.7459
 4788TIP3   OH235998   6.051   6.345   1.619  0.1316 -0.3109  0.0508
 4788TIP3    H135999   6.105   6.387   1.552  0.7193 -1.3301 -0.1326
 4788TIP3    H236000   5.982   6.409   1.638 -0.1863 -0.0979 -1.6993
 4789TIP3   OH236001   3.222   2.294   1.445 -0.0775  0.0741 -0.0118
 4789TIP3    H136002   3.209   2.314   1.352 -0.2827  2.7420  0.5145
 4789TIP3    H236003   3.137   2.310   1.485 -0.0978 -1.4404  0.6188
 4790TIP3   OH236004   3.281   5.649   3.656 -0.3228 -0.1226  0.3019
 4790TIP3    H136005   3.227   5.571   3.643 -1.4560  0.7958 -0.6838
 4790TIP3    H236006   3.371   5.619   3.638 -0.8683 -0.9235 -1.3145
 4791TIP3   OH236007   6.179   6.629   3.061  0.4233  0.3407  0.0605
 4791TIP3    H136008   6.193   6.598   3.150 -0.1934 -0.5972 -0.1541
 4791TIP3    H236009   6.265   6.624   3.020  0.4990 -0.3039  0.2826
 4792TIP3   OH236010   2.236   2.733   8.274 -0.1266 -0.1160  0.3654
 4792TIP3    H136011   2.240   2.680   8.195  1.4269  0.3435  0.0966
 4792TIP3    H236012   2.212   2.672   8.343 -0.2527 -0.7711 -0.2530
 4793TIP3   OH236013   3.622   5.830   1.579 -0.2441 -0.2419  0.7763
 4793TIP3    H136014   3.626   5.910   1.526 -1.7397  0.3503  1.4631
 4793TIP3    H236015   3.532   5.829   1.612 -0.4601 -2.6061  0.2297
 4794TIP3   OH236016   5.645   6.484   2.648  0.0301  0.3663 -0.1488
 4794TIP3    H136017   5.575   6.429   2.611  1.1096 -0.8131 -0.5259
 4794TIP3    H236018   5.607   6.572   2.649 -2.0028 -0.4401  1.0834
 4795TIP3   OH236019   1.249   6.099   1.176  0.1755  0.5374  0.5534
 4795TIP3    H136020   1.204   6.134   1.253  2.9816  2.5226  1.4505
 4795TIP3    H236021   1.258   6.005   1.194 -0.3368  0.7411  2.0383
 4796TIP3   OH236022   3.627   1.265   1.848  0.6142 -0.3265 -0.3279
 4796TIP3    H136023   3.593   1.196   1.904  1.2584  1.1181  1.9991
 4796TIP3    H236024   3.709   1.230   1.814  0.0856 -1.3303 -0.6097
 4797TIP3   OH236025   4.102   0.665   0.823  0.3670 -0.1212  0.1145
 4797TIP3    H136026   4.028   0.664   0.883  0.1572  0.9828 -0.1045
 4797TIP3    H236027   4.107   0.755   0.792  2.8926  0.3230  1.4800
 4798TIP3   OH236028   1.838   6.574   2.457 -0.2327 -0.2968  0.1059
 4798TIP3    H136029   1.748   6.569   2.425  0.5497  1.5603 -2.6983
 4798TIP3    H236030   1.877   6.491   2.429 -0.9287 -0.9309  0.9653
 4799TIP3   OH236031   0.078   6.857   3.049  0.1222  0.7087  0.1905
 4799TIP3    H136032   0.003   6.912   3.028 -0.5306  0.8770  2.6902
 4799TIP3    H236033   0.130   6.910   3.110  1.4570 -0.0290 -0.2657
 4800TIP3   OH236034   0.353   2.926   1.718  0.2731 -0.0332  0.9225
 4800TIP3    H136035   0.416   2.875   1.770  0.7326  0.3132  0.7111
 4800TIP3    H236036   0.269   2.883   1.734  0.8286 -1.6639 -0.2355
 4801TIP3   OH236037   3.871   4.318   0.301 -0.6252  0.0680 -0.1774
 4801TIP3    H136038   3.851   4.324   0.394  0.8527 -0.4220  0.2133
 4801TIP3    H236039   3.943   4.254   0.297  0.2567  1.0942 -1.5021
 4802TIP3   OH236040   4.031   0.477   1.518  0.1409  0.5740 -0.1260
 4802TIP3    H136041   4.097   0.410   1.501 -0.1784  0.4241 -0.7833
 4802TIP3    H236042   4.079   0.545   1.566  0.7687  0.4582 -0.5710
 4803TIP3   OH236043   2.633   0.101   1.343 -0.3642 -0.5974 -0.1151
 4803TIP3    H136044   2.553   0.056   1.369 -0.6079 -0.1456 -0.0850
 4803TIP3    H236045   2.629   0.105   1.247 -0.5559 -0.2503 -0.0942
 4804TIP3   OH236046   4.867   2.188   2.442  0.2862 -0.8172 -0.2704
 4804TIP3    H136047   4.854   2.118   2.507 -1.0041  0.2892  0.7243
 4804TIP3    H236048   4.790   2.183   2.385  0.3006 -0.3665 -0.3346
 4805TIP3   OH236049   3.916   4.671   3.797  0.0809  0.0760  0.0308
 4805TIP3    H136050   3.850   4.739   3.786  0.6238  0.2986 -2.5595
 4805TIP3    H236051   3.985   4.695   3.735  2.2322 -0.6191  2.0307
 4806TIP3   OH236052   0.799   3.869   1.876  0.0328 -0.0911 -0.0795
 4806TIP3    H136053   0.764   3.956   1.857  0.9607 -0.0284 -1.7360
 4806TIP3    H236054   0.787   3.820   1.795  0.9409 -1.0147  0.3172
 4807TIP3   OH236055   0.873   3.096   7.214 -0.1185 -0.1051  0.2765
 4807TIP3    H136056   0.794   3.114   7.265  1.6778  1.4511  2.7755
 4807TIP3    H236057   0.866   3.154   7.138 -0.9440  0.6955  0.9435
 4808TIP3   OH236058   3.262   1.220   7.769  0.1856 -0.0962 -0.9741
 4808TIP3    H136059   3.219   1.173   7.840 -1.3203  1.5995 -0.7046
 4808TIP3    H236060   3.229   1.179   7.690  1.8280 -1.9582 -0.7732
 4809TIP3   OH236061   3.329   0.816   7.914 -0.1869 -0.0897  0.1401
 4809TIP3    H136062   3.408   0.863   7.891 -0.5656  0.3887 -0.2047
 4809TIP3    H236063   3.257   0.871   7.881 -0.6167 -2.0122 -2.5498
 4810TIP3   OH236064   0.539   3.216   1.009  0.0050  0.3171 -0.1013
 4810TIP3    H136065   0.582   3.269   0.942 -2.2320  0.7891 -1.2591
 4810TIP3    H236066   0.597   3.222   1.085  1.7346  1.2388 -1.4139
 4811TIP3   OH236067   4.284   6.273   0.818  0.2109 -0.4474 -0.1177
 4811TIP3    H136068   4.360   6.305   0.866  0.5087 -1.9143  0.4638
 4811TIP3    H236069   4.213   6.333   0.840  0.5848 -0.5315  1.3986
 4812TIP3   OH236070   3.136   6.538   1.507 -0.0508 -0.9303 -0.3983
 4812TIP3    H136071   3.174   6.504   1.588  0.3233 -0.9212 -0.5674
 4812TIP3    H236072   3.206   6.532   1.443 -0.2176 -0.5523 -0.6227
 4813TIP3   OH236073   1.918   1.134   7.133 -0.3386 -0.0423 -0.0558
 4813TIP3    H136074   1.978   1.126   7.059 -0.7395  2.1395 -0.6977
 4813TIP3    H236075   1.968   1.181   7.200 -0.1898 -1.4427  0.8699
 4814TIP3   OH236076   4.313   0.136   2.955 -0.6553  0.4883 -0.2412
 4814TIP3    H136077   4.307   0.188   3.035  1.5098  0.3083  0.0910
 4814TIP3    H236078   4.320   0.046   2.985  2.4142  0.5673 -0.4395
 4815TIP3   OH236079   6.545   3.343   2.498 -0.2768  0.0448  0.3917
 4815TIP3    H136080   6.587   3.347   2.413 -0.5776 -0.3411  0.2208
 4815TIP3    H236081   6.459   3.304   2.481 -0.0437 -0.7514  0.9763
 4816TIP3   OH236082   2.589   4.642   0.698 -0.2902  0.1457  0.2133
 4816TIP3    H136083   2.557   4.560   0.660 -1.9354  1.0020 -0.3405
 4816TIP3    H236084   2.591   4.625   0.792 -0.5502 -0.5544  0.1017
 4817TIP3   OH236085   0.547   4.040   3.087  0.2980  0.1666  0.1850
 4817TIP3    H136086   0.616   4.054   3.153 -0.0060  0.2416  0.4900
 4817TIP3    H236087   0.559   3.950   3.059  1.7137  0.7217 -1.1462
 4818TIP3   OH236088   5.854   2.026   1.040 -0.2571  0.1588  0.3200
 4818TIP3    H136089   5.807   2.080   1.104 -0.3290  0.3398  0.1113
 4818TIP3    H236090   5.792   1.957   1.017 -0.2758  0.1673  0.3441
 4819TIP3   OH236091   6.638   6.569   1.882  0.4486 -0.1756  0.0826
 4819TIP3    H136092   6.672   6.645   1.929  1.0990  0.6298 -1.5708
 4819TIP3    H236093   6.547   6.592   1.862  0.5851  0.1050 -0.2383
 4820TIP3   OH236094   5.914   5.564   3.423  0.4505 -0.2360  0.0658
 4820TIP3    H136095   5.893   5.644   3.471  0.6415  0.8880 -1.6411
 4820TIP3    H236096   5.938   5.594   3.336  2.6937 -1.9774 -0.0022
 4821TIP3   OH236097   6.219   5.653   1.708  0.5921  0.0199 -0.6028
 4821TIP3    H136098   6.287   5.701   1.757 -0.3182 -0.2129  0.9738
 4821TIP3    H236099   6.223   5.564   1.744  0.4981 -0.3971 -1.6174
 4822TIP3   OH236100   7.010   5.292   1.631  0.4512  0.0026  0.0490
 4822TIP3    H136101   7.005   5.217   1.690  0.7472  0.3871  0.5753
 4822TIP3    H236102   6.956   5.268   1.556 -0.6013 -0.1727  0.8487
 4823TIP3   OH236103   1.359   3.658   2.815 -0.2500  0.0451  0.0979
 4823TIP3    H136104   1.435   3.692   2.862 -0.9088  0.4007  0.9157
 4823TIP3    H236105   1.328   3.585   2.869  0.9969 -1.8034 -1.4987
 4824TIP3   OH236106   1.262   1.309   3.291 -0.3551  0.2275 -0.8221
 4824TIP3    H136107   1.269   1.216   3.312  0.6983  0.3310 -0.6184
 4824TIP3    H236108   1.290   1.353   3.372  1.5001  0.6734 -1.6645
 4825TIP3   OH236109   0.716   5.421   0.405 -0.0064 -0.6935 -0.1541
 4825TIP3    H136110   0.733   5.355   0.471 -1.5410 -0.5818  0.3928
 4825TIP3    H236111   0.760   5.389   0.326  0.1518 -1.8224  0.3854
 4826TIP3   OH236112   3.204   6.904   1.594  0.1371  1.1948 -0.6629
 4826TIP3    H136113   3.214   6.946   1.509  1.4253 -1.0783 -1.7521
 4826TIP3    H236114   3.292   6.874   1.617 -0.9844 -4.4802 -2.1388
 4827TIP3   OH236115   3.271   5.173   1.596 -0.0341 -0.0011 -0.0842
 4827TIP3    H136116   3.320   5.184   1.677  2.8166  0.9758 -1.8113
 4827TIP3    H236117   3.325   5.213   1.529 -2.8529  0.3656 -2.3556
 4828TIP3   OH236118   2.972   1.898   1.766 -0.6557 -0.7936 -0.3467
 4828TIP3    H136119   2.958   1.850   1.847 -0.9970  0.2223  0.2128
 4828TIP3    H236120   3.014   1.835   1.708  2.4271 -0.7228  1.5924
 4829TIP3   OH236121   2.532   2.016   2.941 -0.1526  0.1122  0.3607
 4829TIP3    H136122   2.529   1.958   3.017  0.2932 -1.1201 -0.5349
 4829TIP3    H236123   2.599   1.978   2.884 -0.1107  1.3045 -0.4170
 4830TIP3   OH236124   3.890   3.716   2.738 -0.1440 -0.1835 -0.2408
 4830TIP3    H136125   3.918   3.633   2.699  0.8809 -0.0658  0.2196
 4830TIP3    H236126   3.794   3.711   2.740 -0.0805 -1.5067  0.1186
 4831TIP3   OH236127   2.073   1.892   1.703 -0.0258 -0.1779 -0.4375
 4831TIP3    H136128   2.136   1.855   1.766 -0.4066  1.4913  0.9946
 4831TIP3    H236129   2.081   1.836   1.626  0.1187 -2.6155  1.2369
 4832TIP3   OH236130   2.197   2.484   0.982  0.5452  0.6523 -0.1526
 4832TIP3    H136131   2.228   2.571   0.960 -0.1225  0.9833  0.2002
 4832TIP3    H236132   2.122   2.470   0.924  0.1856  0.6148  0.3222
 4833TIP3   OH236133   1.531   5.188   0.471  0.3217  0.0021  0.0788
 4833TIP3    H136134   1.463   5.206   0.536 -1.3607 -0.6237 -1.4283
 4833TIP3    H236135   1.612   5.181   0.522 -1.0302 -1.2277  2.1881
 4834TIP3   OH236136   2.061   2.478   0.076  0.4654  0.0559 -0.0359
 4834TIP3    H136137   2.098   2.391   0.059 -1.3983 -0.8393  0.2495
 4834TIP3    H236138   2.056   2.519  -0.010  1.3691 -0.1042 -0.1744
 4835TIP3   OH236139   1.427   6.085   0.756  0.5786 -0.4694  0.5690
 4835TIP3    H136140   1.410   6.166   0.707  0.6833 -1.2021 -0.7115
 4835TIP3    H236141   1.456   6.116   0.843 -0.2288  0.8430  0.3998
 4836TIP3   OH236142   2.178   4.032   0.151  0.1533  0.9785 -0.1997
 4836TIP3    H136143   2.142   4.018   0.239 -0.3965 -0.6646 -0.6469
 4836TIP3    H236144   2.123   3.977   0.094  1.5635  0.6821 -1.3198
 4837TIP3   OH236145   1.848   2.034   0.473 -0.5804  0.6292 -0.1689
 4837TIP3    H136146   1.870   2.126   0.489  0.8479  0.3763 -0.5144
 4837TIP3    H236147   1.782   2.013   0.540 -2.6542  2.5000 -1.5087
 4838TIP3   OH236148   6.458   6.030   1.803 -0.0886  0.6756  0.2047
 4838TIP3    H136149   6.481   5.938   1.815  0.2046  0.9115  1.6560
 4838TIP3    H236150   6.541   6.073   1.781  0.1610  0.8904  1.4938
 4839TIP3   OH236151   6.035   1.268   0.736  0.5697  0.0749 -0.0107
 4839TIP3    H136152   6.054   1.349   0.782  0.4008  0.7817 -1.1337
 4839TIP3    H236153   6.111   1.253   0.680 -0.7442  1.3144 -2.3071
 4840TIP3   OH236154   3.931   5.933   8.083 -0.5780 -0.2855  0.8701
 4840TIP3    H136155   3.918   5.845   8.047 -0.1456  0.5066 -1.3124
 4840TIP3    H236156   3.995   5.920   8.154  0.6628 -1.5379 -0.4211
 4841TIP3   OH236157   6.421   2.076   1.766 -0.8736 -0.2438 -0.0097
 4841TIP3    H136158   6.371   2.056   1.687  0.0595  1.4686 -1.0924
 4841TIP3    H236159   6.361   2.055   1.838 -2.3072 -0.3765 -1.1927
 4842TIP3   OH236160   5.018   1.669   0.556 -0.1676 -0.1960 -0.3331
 4842TIP3    H136161   5.031   1.621   0.475  0.4371 -1.6961  0.6174
 4842TIP3    H236162   5.090   1.641   0.613 -1.2481 -0.0875  1.1493
 4843TIP3   OH236163   3.007   4.195   8.140 -0.0414  0.4139  0.4925
 4843TIP3    H136164   3.035   4.286   8.151  0.1633  0.2225  1.7465
 4843TIP3    H236165   2.916   4.195   8.169 -0.7521  0.6232 -1.5898
 4844TIP3   OH236166   5.832   6.569   1.644  0.3396  0.8223 -0.6687
 4844TIP3    H136167   5.774   6.556   1.719  2.1845 -0.4489  0.6110
 4844TIP3    H236168   5.895   6.635   1.673  1.8914 -0.6500 -0.5398
 4845TIP3   OH236169   1.685   5.969   2.221 -0.0288 -0.4182  0.2794
 4845TIP3    H136170   1.760   5.987   2.278  0.3962  3.3666 -1.1174
 4845TIP3    H236171   1.717   5.990   2.133 -2.0997 -0.9332 -0.6631
 4846TIP3   OH236172   2.255   0.965   3.087  0.1849  0.1230  0.5978
 4846TIP3    H136173   2.297   1.037   3.040 -1.5586 -0.2296 -1.6781
 4846TIP3    H236174   2.304   0.887   3.060  0.4872  0.1437  1.0667
 4847TIP3   OH236175   6.100   1.015   2.054 -0.2972 -0.1212  0.6354
 4847TIP3    H136176   6.122   0.963   2.131 -1.1446  0.7046  1.4718
 4847TIP3    H236177   6.156   1.093   2.061 -0.0665 -0.2485  0.1834
 4848TIP3   OH236178   0.486   1.470   7.232  0.0824  0.1069 -0.4113
 4848TIP3    H136179   0.469   1.530   7.159 -1.1417 -0.1466 -0.3406
 4848TIP3    H236180   0.566   1.505   7.273 -0.1482  1.2099 -0.8687
 4849TIP3   OH236181   1.470   0.782   1.922  0.0110  0.5004  0.1122
 4849TIP3    H136182   1.387   0.781   1.968 -0.9258 -3.4567 -1.2120
 4849TIP3    H236183   1.446   0.788   1.829  1.1027 -0.9357 -0.3088
 4850TIP3   OH236184   1.875   6.406   0.650 -0.0353  0.1082  0.1467
 4850TIP3    H136185   1.861   6.364   0.566  1.0137  2.8788 -1.5342
 4850TIP3    H236186   1.968   6.395   0.668  0.0222  0.7311  0.2517
 4851TIP3   OH236187   6.417   1.200   2.560  0.3431  0.3821  0.1680
 4851TIP3    H136188   6.363   1.138   2.608 -0.1759 -0.4967 -1.4996
 4851TIP3    H236189   6.474   1.238   2.627  1.0380 -2.2492  1.2029
 4852TIP3   OH236190   6.726   3.332   8.107  0.3440 -0.1068  0.2086
 4852TIP3    H136191   6.703   3.392   8.035  0.3910  1.6633  1.5968
 4852TIP3    H236192   6.660   3.349   8.174  0.7809 -1.1413  0.9268
 4853TIP3   OH236193   6.896   1.112   3.404  0.7615  0.0546  0.5600
 4853TIP3    H136194   6.987   1.137   3.386  0.3343  1.8163  0.7247
 4853TIP3    H236195   6.843   1.180   3.363 -0.4874 -0.6346  0.9564
 4854TIP3   OH236196   0.232   4.226   7.462  0.2086 -0.5601 -0.2597
 4854TIP3    H136197   0.166   4.261   7.402 -0.7829 -1.2750  0.3716
 4854TIP3    H236198   0.315   4.254   7.426 -0.3846 -0.6360 -1.7571
 4855TIP3   OH236199   1.388   0.506   7.371 -0.2871  0.2864  0.2493
 4855TIP3    H136200   1.442   0.499   7.449 -1.3977 -0.9094  0.9335
 4855TIP3    H236201   1.304   0.540   7.402 -0.8242 -0.4264 -0.3764
 4856TIP3   OH236202   6.500   1.615   2.653 -0.4222 -0.4893 -0.5293
 4856TIP3    H136203   6.564   1.592   2.585 -0.7844 -1.4828 -0.5390
 4856TIP3    H236204   6.418   1.629   2.605 -0.7801 -1.6135 -0.2614
 4857TIP3   OH236205   3.521   5.582   3.017 -0.9143 -0.0409  0.4138
 4857TIP3    H136206   3.502   5.633   3.096 -1.0815 -0.6944  0.8047
 4857TIP3    H236207   3.436   5.571   2.974 -0.9888 -0.5492  0.6801
 4858TIP3   OH236208   2.629   1.552   1.396 -0.0653  0.6541  0.0929
 4858TIP3    H136209   2.551   1.571   1.343 -0.7964 -0.6822  0.6182
 4858TIP3    H236210   2.598   1.488   1.461  2.1141 -2.3387 -1.5765
 4859TIP3   OH236211   4.501   6.021   1.745  0.1059 -0.1961 -0.2085
 4859TIP3    H136212   4.460   6.103   1.718 -0.8477 -0.8131 -0.6906
 4859TIP3    H236213   4.485   6.016   1.839  0.3347  0.2630 -0.1444
 4860TIP3   OH236214   0.520   4.376   2.451 -0.1832 -0.2461  0.3012
 4860TIP3    H136215   0.485   4.422   2.375 -0.9845 -0.5678  0.4621
 4860TIP3    H236216   0.451   4.382   2.517  0.9738  1.0862  1.4531
 4861TIP3   OH236217   3.178   5.905   2.333  0.4423 -0.1507 -0.0704
 4861TIP3    H136218   3.146   5.828   2.380  1.3550 -1.5684 -1.6504
 4861TIP3    H236219   3.258   5.929   2.379  1.5809 -1.8069 -1.0603
 4862TIP3   OH236220   6.890   4.510   1.067  0.3377  0.2407  0.4097
 4862TIP3    H136221   6.939   4.590   1.048 -0.9425  0.7594 -0.9112
 4862TIP3    H236222   6.953   4.453   1.112  2.2536  0.7507 -1.4583
 4863TIP3   OH236223   0.193   4.270   1.064  0.2026  0.3538 -0.1401
 4863TIP3    H136224   0.251   4.317   1.004  3.6368 -2.1465  0.8933
 4863TIP3    H236225   0.163   4.194   1.014  0.1010  0.1763  0.1880
 4864TIP3   OH236226   2.062   0.634   8.230 -0.5487  0.0718  0.6419
 4864TIP3    H136227   2.156   0.630   8.246 -0.3170  0.9995 -0.3369
 4864TIP3    H236228   2.031   0.701   8.290 -0.4306  0.3625  0.3850
 4865TIP3   OH236229   5.026   6.243   3.971 -0.0577 -0.2524  0.0081
 4865TIP3    H136230   5.011   6.194   3.890 -0.6825 -1.1499  0.6459
 4865TIP3    H236231   5.112   6.284   3.959 -0.5618  0.4597 -1.5057
 4866TIP3   OH236232   2.919   2.772   1.011 -0.3397  0.1251  0.8550
 4866TIP3    H136233   2.984   2.842   1.004  1.6509 -1.5686  1.4563
 4866TIP3    H236234   2.910   2.757   1.105  0.2370 -1.2616  0.7101
 4867TIP3   OH236235   1.888   3.880   0.616 -0.2760  0.2906 -0.4436
 4867TIP3    H136236   1.868   3.786   0.614  0.4870  0.1087 -0.0326
 4867TIP3    H236237   1.962   3.887   0.677 -1.4043  1.3636  0.8788
 4868TIP3   OH236238   5.902   1.772   0.797 -0.1720  0.5097  0.2460
 4868TIP3    H136239   5.919   1.700   0.737 -1.6431  0.8522 -0.6162
 4868TIP3    H236240   5.897   1.730   0.884 -0.5062 -0.3493 -0.1755
 4869TIP3   OH236241   4.000   4.618   0.356 -0.0901 -0.0819 -0.2345
 4869TIP3    H136242   3.967   4.706   0.339  1.6250  0.5976 -0.1997
 4869TIP3    H236243   3.954   4.590   0.436  1.9529  2.2475  1.9053
 4870TIP3   OH236244   0.287   6.779   1.162  0.4237  0.1374 -0.2000
 4870TIP3    H136245   0.245   6.699   1.131 -1.7746  1.7142 -1.5592
 4870TIP3    H236246   0.320   6.821   1.083 -1.9065  2.3805 -0.1325
 4871TIP3   OH236247   2.980   2.773   7.280  0.0143 -0.2859 -0.1201
 4871TIP3    H136248   3.027   2.705   7.328 -0.6909 -0.6360  0.0929
 4871TIP3    H236249   2.949   2.833   7.347  1.4078  0.7753 -0.3749
 4872TIP3   OH236250   6.545   1.219   3.045 -0.1590  0.5497  0.3906
 4872TIP3    H136251   6.530   1.205   2.951  1.1681 -0.7151  0.3325
 4872TIP3    H236252   6.548   1.130   3.082  1.2231  0.9436  1.2964
 4873TIP3   OH236253   4.542   4.763   0.634 -0.2341 -0.2885  0.0482
 4873TIP3    H136254   4.629   4.737   0.665 -1.2874 -2.5118  1.4249
 4873TIP3    H236255   4.534   4.855   0.659  2.1575  0.3607 -1.2780
 4874TIP3   OH236256   5.662   5.885   3.696 -0.4990  0.4096  0.4258
 4874TIP3    H136257   5.697   5.867   3.784  0.8366 -0.6477 -0.2817
 4874TIP3    H236258   5.727   5.943   3.657 -0.8370  0.4724 -0.0460
 4875TIP3   OH236259   0.987   1.134   0.653  0.1448  0.0813 -0.5254
 4875TIP3    H136260   1.010   1.222   0.683  0.3965 -0.1792  0.0674
 4875TIP3    H236261   0.906   1.113   0.700 -0.8587  0.6431 -1.9375
 4876TIP3   OH236262   1.825   6.434   1.825 -0.1892  0.7751 -0.4641
 4876TIP3    H136263   1.765   6.360   1.815 -0.8337  1.3954 -1.3239
 4876TIP3    H236264   1.769   6.512   1.821  0.2981  1.3217  1.7720
 4877TIP3   OH236265   6.737   5.746   0.674  0.4153 -0.2301  0.4167
 4877TIP3    H136266   6.797   5.715   0.742 -0.2069 -2.5243 -0.0166
 4877TIP3    H236267   6.697   5.824   0.712 -0.2854 -1.7032  2.9466
 4878TIP3   OH236268   2.297   6.461   3.704  0.0440  0.7022 -0.3238
 4878TIP3    H136269   2.206   6.435   3.692 -0.1142 -0.0639  2.0355
 4878TIP3    H236270   2.307   6.474   3.799  3.0035 -1.7110 -0.1507
 4879TIP3   OH236271   0.447   4.413   2.187  0.4215  0.5815 -0.1462
 4879TIP3    H136272   0.403   4.331   2.209 -1.0459  0.6183 -2.5202
 4879TIP3    H236273   0.376   4.473   2.164  1.5658  1.6664 -1.0305
 4880TIP3   OH236274   3.706   2.508   1.600 -0.2465 -0.0956  0.0854
 4880TIP3    H136275   3.665   2.425   1.574 -2.3386  0.7621  0.5131
 4880TIP3    H236276   3.724   2.553   1.518  0.5808 -0.7898 -0.1347
 4881TIP3   OH236277   2.107   4.054   2.817 -0.5043  0.1200 -0.8468
 4881TIP3    H136278   2.083   3.962   2.816 -1.4942  0.3619 -0.2474
 4881TIP3    H236279   2.064   4.089   2.895  1.5893  0.6338  0.1725
 4882TIP3   OH236280   4.217   3.490   0.734  0.1028  0.2660  0.1101
 4882TIP3    H136281   4.259   3.430   0.796  0.4782 -0.5765 -0.9327
 4882TIP3    H236282   4.250   3.576   0.759  0.7067 -0.1293  0.7182
 4883TIP3   OH236283   0.309   4.139   2.144  0.4659 -0.0953  0.0450
 4883TIP3    H136284   0.374   4.083   2.101  0.3451 -0.8328  0.8057
 4883TIP3    H236285   0.229   4.127   2.092  0.7154  0.2147 -0.4267
 4884TIP3   OH236286   5.327   4.976   3.492  0.2556 -0.2058 -0.1809
 4884TIP3    H136287   5.278   4.901   3.458  0.4320 -0.2491 -0.3329
 4884TIP3    H236288   5.317   5.043   3.425  2.6006 -1.0513 -1.4739
 4885TIP3   OH236289   0.490   6.438   7.701  0.3193  0.0811  0.2238
 4885TIP3    H136290   0.537   6.496   7.641 -0.4007  0.0266 -0.4148
 4885TIP3    H236291   0.490   6.353   7.656 -1.9836  0.4965 -0.7117
 4886TIP3   OH236292   4.421   6.426   2.376 -0.1555 -0.3143 -0.1873
 4886TIP3    H136293   4.406   6.331   2.377  0.5113 -0.4253  0.2874
 4886TIP3    H236294   4.515   6.434   2.356  0.0692  0.1999  0.9791
 4887TIP3   OH236295   1.747   5.062   7.421  0.0954 -0.8685 -0.2411
 4887TIP3    H136296   1.657   5.087   7.401  0.5257  0.8629 -0.1812
 4887TIP3    H236297   1.739   4.990   7.484 -1.2420 -0.4005  0.1567
 4888TIP3   OH236298   5.236   4.440   8.123 -0.0394 -0.1871  0.2568
 4888TIP3    H136299   5.216   4.523   8.165 -0.4796 -0.8482  1.4169
 4888TIP3    H236300   5.321   4.414   8.159  0.2695 -0.0916 -0.3721
 4889TIP3   OH236301   1.992   2.873   0.061 -0.3660  0.0446  0.3049
 4889TIP3    H136302   2.011   2.916   0.144  0.3225 -0.5751  0.4728
 4889TIP3    H236303   2.074   2.830   0.036 -1.2363 -1.8094  0.5295
 4890TIP3   OH236304   0.056   2.766   1.323  0.1355 -0.0591  0.3022
 4890TIP3    H136305   0.033   2.848   1.366 -2.5084 -0.6917  0.2848
 4890TIP3    H236306  -0.028   2.723   1.308  1.4133 -2.6425  0.0355
 4891TIP3   OH236307   3.086   5.335   1.359  0.2502  0.0527  0.6037
 4891TIP3    H136308   3.102   5.429   1.363  0.8725 -0.0423  0.4766
 4891TIP3    H236309   3.078   5.308   1.450 -2.5534  0.6334  0.6199
 4892TIP3   OH236310   2.838   0.792   2.627 -0.0035  0.4172 -0.1221
 4892TIP3    H136311   2.768   0.846   2.663 -0.0215 -1.0697  2.3533
 4892TIP3    H236312   2.918   0.831   2.661  0.1274  0.1231 -0.0880
 4893TIP3   OH236313   1.342   6.991   2.540  0.6201  0.3335 -0.2431
 4893TIP3    H136314   1.313   7.062   2.597 -0.4327 -0.0580 -0.2758
 4893TIP3    H236315   1.402   6.939   2.595  0.4412  0.5582  0.1655
 4894TIP3   OH236316   4.816   0.952   3.328  0.7126  0.5680  0.0733
 4894TIP3    H136317   4.858   0.898   3.261 -0.1728 -0.4038  0.2760
 4894TIP3    H236318   4.888   0.987   3.380  1.4634  1.7883 -1.6924
 4895TIP3   OH236319   2.706   1.955   7.315 -0.1899 -0.1238  0.0929
 4895TIP3    H136320   2.802   1.957   7.314 -0.1548  1.0668 -2.2483
 4895TIP3    H236321   2.681   2.007   7.391  1.1202  2.8411 -1.3064
 4896TIP3   OH236322   3.533   2.871   0.354 -0.2252  0.2249 -0.0134
 4896TIP3    H136323   3.540   2.838   0.264  0.7896  0.0141  0.1359
 4896TIP3    H236324   3.518   2.793   0.407  2.0073 -0.0414  0.3202
 4897TIP3   OH236325   5.848   2.483   1.371  0.3241 -0.0861  0.1452
 4897TIP3    H136326   5.787   2.433   1.425 -0.6584  2.3070  1.4355
 4897TIP3    H236327   5.793   2.547   1.326  1.7171  1.3973  0.4541
 4898TIP3   OH236328   6.662   4.151   7.784 -0.5204 -0.0091 -0.3114
 4898TIP3    H136329   6.738   4.208   7.787 -0.1127 -0.5622  0.5741
 4898TIP3    H236330   6.698   4.065   7.761 -1.2500  0.2534 -2.6223
 4899TIP3   OH236331   1.180   6.779   2.544 -0.6074  0.5203  0.0588
 4899TIP3    H136332   1.215   6.867   2.550  0.6811 -0.0571  1.4675
 4899TIP3    H236333   1.227   6.740   2.470  1.0755  0.0758  1.3106
 4900TIP3   OH236334   4.526   6.174   1.065  0.8538 -0.5809  0.3223
 4900TIP3    H136335   4.513   6.236   0.993 -0.2297  0.0848  1.0680
 4900TIP3    H236336   4.617   6.188   1.093  0.8048  0.2471  0.0874
 4901TIP3   OH236337   5.914   3.171   1.693 -0.0772 -0.1863 -0.3705
 4901TIP3    H136338   5.834   3.221   1.710  0.3182  1.3312 -2.5034
 4901TIP3    H236339   5.945   3.145   1.779 -1.8752  0.7805  0.6292
 4902TIP3   OH236340   3.091   5.794   0.069  0.1249 -0.3003  0.1400
 4902TIP3    H136341   3.001   5.821   0.087 -0.4152 -2.2589  0.6221
 4902TIP3    H236342   3.138   5.876   0.057 -1.2184  0.8886  2.2792
 4903TIP3   OH236343   0.540   0.572   1.336 -0.4293 -0.1002 -0.0936
 4903TIP3    H136344   0.593   0.635   1.289 -0.1396 -0.5293 -0.3423
 4903TIP3    H236345   0.479   0.538   1.271  1.0712 -1.9449 -0.6276
 4904TIP3   OH236346   0.219   5.076   1.869 -0.2835  0.1005  0.3630
 4904TIP3    H136347   0.261   5.033   1.794 -1.2445  2.8488 -1.9864
 4904TIP3    H236348   0.289   5.131   1.906 -0.1910 -0.0812  0.4548
 4905TIP3   OH236349   1.109   0.600   0.686 -0.1384  0.1841  0.1263
 4905TIP3    H136350   1.047   0.661   0.647 -1.2688  0.1273  1.7783
 4905TIP3    H236351   1.185   0.653   0.708  0.1403  0.3898 -1.2224
 4906TIP3   OH236352   1.179   2.955   7.975 -0.4528  0.2404  0.1446
 4906TIP3    H136353   1.208   2.885   8.034  0.9303  0.4358 -0.2509
 4906TIP3    H236354   1.091   2.930   7.949  0.0822 -1.4904 -0.1625
 4907TIP3   OH236355   2.221   5.729   3.440  0.4849 -0.4674  0.2951
 4907TIP3    H136356   2.256   5.808   3.481  0.0554 -0.4379  0.6128
 4907TIP3    H236357   2.151   5.700   3.499 -1.1376  0.3906 -1.0964
 4908TIP3   OH236358   1.525   5.077   2.656 -0.4114 -0.3308 -0.6103
 4908TIP3    H136359   1.573   5.057   2.576  1.0215  0.2654  0.0515
 4908TIP3    H236360   1.439   5.106   2.627 -0.4566 -1.6221 -1.8435
 4909TIP3   OH236361   1.673   5.792   0.453  0.0972  0.0786  0.5122
 4909TIP3    H136362   1.590   5.808   0.497  0.5492  1.2718  0.9820
 4909TIP3    H236363   1.649   5.747   0.372 -1.0259  0.5811  0.5444
 4910TIP3   OH236364   4.757   0.092   7.835  0.2877  0.3015  0.2920
 4910TIP3    H136365   4.684   0.139   7.875 -0.3598 -0.4860  0.0507
 4910TIP3    H236366   4.835   0.143   7.859 -0.4363  1.7546 -0.3397
 4911TIP3   OH236367   2.002   0.937   1.402  0.4680  0.1034  0.5017
 4911TIP3    H136368   1.920   0.935   1.451  0.0735 -0.9456 -0.1675
 4911TIP3    H236369   2.009   0.850   1.364  1.0252  0.7202 -0.8693
 4912TIP3   OH236370   7.039   1.436   2.424  0.0599  0.1948 -0.0326
 4912TIP3    H136371   7.123   1.430   2.378 -0.3437  0.9249 -0.8951
 4912TIP3    H236372   7.031   1.528   2.447 -0.7193  0.2165 -0.3783
 4913TIP3   OH236373   4.915   6.344   3.129 -0.3724 -0.2756  0.6831
 4913TIP3    H136374   5.001   6.309   3.151 -0.9031 -2.5248 -0.5516
 4913TIP3    H236375   4.857   6.313   3.199 -0.3596  0.5295  1.0653
 4914TIP3   OH236376   5.730   6.496   0.255 -0.1178 -0.0299  0.0068
 4914TIP3    H136377   5.646   6.534   0.228  0.2103  0.0112 -0.9913
 4914TIP3    H236378   5.719   6.402   0.243 -0.6426 -0.2263  1.6824
 4915TIP3   OH236379   0.879   3.350   7.991  0.5962  0.5668  0.1595
 4915TIP3    H136380   0.853   3.368   7.901 -0.2952  0.5589  0.3987
 4915TIP3    H236381   0.962   3.396   8.002  0.5013  0.9207 -0.5426
 4916TIP3   OH236382   3.330   5.040   8.274  0.1539 -0.3584  0.4788
 4916TIP3    H136383   3.246   5.063   8.313  0.7926  1.0698  1.0853
 4916TIP3    H236384   3.311   4.966   8.216 -1.6926  0.5988 -0.1884
 4917TIP3   OH236385   3.849   5.483   2.442 -0.4670 -0.1262 -0.2563
 4917TIP3    H136386   3.942   5.504   2.448 -0.5249  0.1617 -0.3213
 4917TIP3    H236387   3.845   5.410   2.380 -0.0964 -1.5623  1.3471
 4918TIP3   OH236388   1.146   2.911   0.081  0.0140 -0.5607 -0.1252
 4918TIP3    H136389   1.181   2.850   0.016  0.0572 -0.9433  0.2551
 4918TIP3    H236390   1.222   2.959   0.112  0.0356 -0.5889 -0.1341
 4919TIP3   OH236391   3.036   2.571   7.457 -0.3648 -0.5672  0.0025
 4919TIP3    H136392   3.037   2.590   7.551 -2.1199 -0.3335 -0.0088
 4919TIP3    H236393   3.018   2.478   7.451 -0.1604 -0.6007 -0.1078
 4920TIP3   OH236394   4.696   5.954   3.085 -0.0766  0.3671 -0.4267
 4920TIP3    H136395   4.693   6.015   3.159 -2.2025  0.3220 -0.4118
 4920TIP3    H236396   4.782   5.912   3.092  0.0856  0.9196  1.5550
 4921TIP3   OH236397   5.300   7.040   7.541 -0.0128 -0.2778  0.3735
 4921TIP3    H136398   5.347   6.995   7.471 -0.8452 -1.4031  0.5058
 4921TIP3    H236399   5.208   7.037   7.513 -0.1843  0.5724  0.8170
 4922TIP3   OH236400   3.396   3.919   0.765 -0.3053  0.4129  0.1645
 4922TIP3    H136401   3.378   4.000   0.813 -1.0625  0.0560  0.5107
 4922TIP3    H236402   3.399   3.851   0.833 -0.2190  0.0749 -0.1735
 4923TIP3   OH236403   4.343   6.867   0.527  0.1749 -0.4250 -0.5551
 4923TIP3    H136404   4.276   6.884   0.460 -0.7384  1.0153  0.6604
 4923TIP3    H236405   4.417   6.923   0.502  0.3237 -0.8483 -1.0575
 4924TIP3   OH236406   2.756   4.077   3.437 -0.4517 -0.0127 -0.0755
 4924TIP3    H136407   2.841   4.107   3.467 -0.7322  1.1306 -0.3874
 4924TIP3    H236408   2.775   4.008   3.373  0.1750 -1.3677  1.5024
 4925TIP3   OH236409   2.660   1.367   2.752 -0.3707  0.0480  0.4160
 4925TIP3    H136410   2.592   1.433   2.737 -0.6676  0.1425  1.9625
 4925TIP3    H236411   2.639   1.296   2.692 -2.4199 -0.3375  1.4983
 4926TIP3   OH236412   3.692   5.915   0.404 -0.1212 -0.1469 -0.3743
 4926TIP3    H136413   3.647   5.984   0.356 -2.2050 -2.4599 -1.9798
 4926TIP3    H236414   3.751   5.875   0.340  0.9707  0.0110  0.4983
 4927TIP3   OH236415   5.794   3.831   7.779  0.2311  0.0427 -0.2125
 4927TIP3    H136416   5.850   3.884   7.721 -1.2434 -1.3988 -3.2089
 4927TIP3    H236417   5.835   3.744   7.779  0.3249  0.0668  1.1802
 4928TIP3   OH236418   0.722   0.622   2.465 -1.1213 -0.5045 -0.4655
 4928TIP3    H136419   0.671   0.622   2.546  1.9521 -1.7021  1.6271
 4928TIP3    H236420   0.757   0.711   2.458 -2.9700  0.2056 -1.7025
 4929TIP3   OH236421   4.032   1.992   7.967  0.2580  1.2697  0.1810
 4929TIP3    H136422   4.093   2.058   7.936  0.4476 -0.1888 -2.8860
 4929TIP3    H236423   3.954   2.003   7.913 -0.4966  0.2997  1.0156
 4930TIP3   OH236424   3.213   4.205   1.372 -0.2034 -0.2026 -0.4522
 4930TIP3    H136425   3.238   4.297   1.379 -2.0590  0.3274 -0.3805
 4930TIP3    H236426   3.262   4.162   1.443 -0.0024  0.8805  0.0917
 4931TIP3   OH236427   1.206   3.916   0.370  0.1062 -0.0140  0.2243
 4931TIP3    H136428   1.221   3.969   0.291 -1.6093  0.8428  0.4336
 4931TIP3    H236429   1.275   3.945   0.430 -1.0489  2.3976  0.4964
 4932TIP3   OH236430   4.523   6.751   0.099 -0.4047  0.0180 -0.2231
 4932TIP3    H136431   4.523   6.713   0.187 -1.7746 -1.4164 -0.8020
 4932TIP3    H236432   4.524   6.676   0.040 -1.1036  0.9122 -1.4319
 4933TIP3   OH236433   2.604   1.743   2.224 -0.5923  0.2521  0.0553
 4933TIP3    H136434   2.573   1.828   2.254  0.2616 -0.0135  1.7978
 4933TIP3    H236435   2.597   1.686   2.300  0.0844 -0.9143 -0.7131
 4934TIP3   OH236436   1.546   6.774   3.052 -0.0808 -0.5050  0.5046
 4934TIP3    H136437   1.590   6.837   3.107 -1.2359 -1.9042  3.2357
 4934TIP3    H236438   1.467   6.819   3.022 -0.2655 -0.2072  1.3981
 4935TIP3   OH236439   2.979   5.236   0.721 -0.1498 -0.1169  0.4775
 4935TIP3    H136440   2.896   5.270   0.753 -0.5060 -0.2080 -0.3205
 4935TIP3    H236441   3.046   5.284   0.770 -0.6674 -0.5648  1.6624
 4936TIP3   OH236442   1.433   1.193   7.847 -0.5424 -0.5714 -0.6683
 4936TIP3    H136443   1.466   1.158   7.764 -1.2577 -0.4561 -1.0118
 4936TIP3    H236444   1.497   1.165   7.912 -0.5570 -1.6288 -1.0926
 4937TIP3   OH236445   5.774   0.211   0.440 -0.6637 -0.2712  0.8689
 4937TIP3    H136446   5.750   0.244   0.353 -0.6064 -0.6475  0.7087
 4937TIP3    H236447   5.854   0.161   0.425 -0.7534 -0.4869  1.1085
 4938TIP3   OH236448   0.945   0.121   2.109 -0.2258  0.3837  0.3764
 4938TIP3    H136449   1.018   0.177   2.133 -1.5153  2.2443  0.2463
 4938TIP3    H236450   0.967   0.035   2.143  1.9234  0.9176  0.4527
 4939TIP3   OH236451   3.900   2.923   0.741  0.3737  0.1833  0.4693
 4939TIP3    H136452   3.898   2.848   0.801 -0.0312  1.1715  1.7266
 4939TIP3    H236453   3.867   2.888   0.658 -0.6499 -0.8349  1.2783
 4940TIP3   OH236454   5.771   1.678   2.753  0.6565  0.6227  0.1535
 4940TIP3    H136455   5.720   1.741   2.804  1.8706  0.2180  1.9358
 4940TIP3    H236456   5.751   1.593   2.793  1.6584  0.2964 -0.0040
 4941TIP3   OH236457   0.724   3.363   0.389  0.2844 -0.0018  0.4099
 4941TIP3    H136458   0.702   3.454   0.369  1.4105  0.0935 -0.4601
 4941TIP3    H236459   0.702   3.353   0.481 -0.8985  0.8215  0.2457
 4942TIP3   OH236460   1.154   4.949   2.478  0.1037 -0.1457 -0.1423
 4942TIP3    H136461   1.154   4.901   2.560  1.1847  0.5310  0.2751
 4942TIP3    H236462   1.073   4.923   2.434 -0.3016 -0.7849  0.9680
 4943TIP3   OH236463   6.142   3.521   1.916  0.2738  0.0021 -0.4504
 4943TIP3    H136464   6.175   3.481   1.835  1.0750  0.9176 -0.5886
 4943TIP3    H236465   6.219   3.559   1.957 -0.2751  0.3028  0.3186
 4944TIP3   OH236466   2.049   4.669   0.143 -0.1812 -0.4273  0.2123
 4944TIP3    H136467   2.095   4.591   0.174  0.7541 -0.5632 -1.4037
 4944TIP3    H236468   2.084   4.740   0.197  0.7240 -0.7848  0.1195
 4945TIP3   OH236469   6.755   0.425   1.327 -0.4971  0.1055 -0.1168
 4945TIP3    H136470   6.845   0.427   1.360 -1.0059  0.1195  1.3768
 4945TIP3    H236471   6.727   0.517   1.326 -1.2417 -0.0506  1.7457
 4946TIP3   OH236472   4.436   1.852   0.878  0.2253 -0.3488 -0.6446
 4946TIP3    H136473   4.342   1.866   0.880  0.4467  1.2698  0.8920
 4946TIP3    H236474   4.474   1.937   0.899  1.9784 -1.3552  0.5938
 4947TIP3   OH236475   3.364   0.393   8.241 -0.0932 -0.6840  0.4505
 4947TIP3    H136476   3.343   0.485   8.254 -0.1972 -0.6352 -0.0291
 4947TIP3    H236477   3.411   0.367   8.320  0.6740  0.0066  0.2323
 4948TIP3   OH236478   5.145   5.549   1.457  0.1040  0.9415  0.1412
 4948TIP3    H136479   5.086   5.559   1.532 -0.1984  0.0964  0.0235
 4948TIP3    H236480   5.087   5.540   1.381  0.4074  1.5536 -0.1785
 4949TIP3   OH236481   4.121   5.750   1.731 -0.1893  0.1636  0.5184
 4949TIP3    H136482   4.038   5.706   1.746 -1.0634  1.9614  1.3578
 4949TIP3    H236483   4.097   5.830   1.684  1.3319 -0.2660 -1.0881
 4950TIP3   OH236484   3.359   3.579   8.071  0.0043 -0.1106  0.4463
 4950TIP3    H136485   3.377   3.619   7.986  1.4648 -1.8437 -0.1428
 4950TIP3    H236486   3.290   3.633   8.110 -3.4283 -1.2217 -3.3489
 4951TIP3   OH236487   2.442   5.127   0.020 -0.1126  0.6709  0.0339
 4951TIP3    H136488   2.486   5.176  -0.050  1.7829  2.0098  2.0161
 4951TIP3    H236489   2.416   5.194   0.083  2.0893 -0.6824  2.5966
 4952TIP3   OH236490   4.385   6.828   1.004  0.5760 -0.2066 -0.1033
 4952TIP3    H136491   4.440   6.904   1.023  0.4540 -0.4097  1.1985
 4952TIP3    H236492   4.295   6.858   1.018  0.2243  0.3554 -3.0427
 4953TIP3   OH236493   5.229   4.530   0.162  0.3499  0.4442 -0.2549
 4953TIP3    H136494   5.268   4.471   0.226  0.6319 -0.1299 -0.9448
 4953TIP3    H236495   5.303   4.577   0.124  0.1875  0.7394 -0.2122
 4954TIP3   OH236496   1.098   0.882   0.605  0.1474  0.6620  0.5577
 4954TIP3    H136497   1.189   0.888   0.636  0.1058  0.0634  0.8192
 4954TIP3    H236498   1.059   0.966   0.628  0.0865  0.2090  2.2516
 4955TIP3   OH236499   1.635   7.037   1.491 -0.8474 -0.5040 -0.1264
 4955TIP3    H136500   1.556   7.081   1.522 -2.8428 -3.1276 -1.0866
 4955TIP3    H236501   1.638   7.057   1.397  1.1489  1.5857  0.2801
 4956TIP3   OH236502   0.941   6.849   0.091  0.1112  0.3777 -0.0496
 4956TIP3    H136503   0.930   6.928   0.142 -1.9269  1.6334 -2.2058
 4956TIP3    H236504   0.930   6.878  -0.000  0.2711 -2.2065 -0.9754
 4957TIP3   OH236505   2.688   6.925   2.474  0.0736 -0.1787  0.2120
 4957TIP3    H136506   2.679   6.845   2.526  2.8106 -0.9842 -0.4005
 4957TIP3    H236507   2.716   6.894   2.388 -2.6145  1.2485 -1.3115
 4958TIP3   OH236508   1.582   7.064   0.149  0.1003  1.2177  0.5363
 4958TIP3    H136509   1.568   7.083   0.056 -1.8539 -0.1423  0.4824
 4958TIP3    H236510   1.586   6.968   0.153  2.5922  1.3022  1.5962
 4959TIP3   OH236511   5.173   4.296   7.341 -0.5945  0.5196 -0.4754
 4959TIP3    H136512   5.103   4.359   7.356  0.1126  1.5106 -1.2358
 4959TIP3    H236513   5.128   4.214   7.321 -1.5288  0.5621  1.2762
 4960TIP3   OH236514   3.682   5.994   7.651  0.4702 -0.1950 -0.1083
 4960TIP3    H136515   3.643   6.080   7.664  0.2741 -0.0935 -1.2685
 4960TIP3    H236516   3.771   6.002   7.685  0.1789  0.2014  0.5804
 4961TIP3   OH236517   6.987   4.410   0.276  0.1585 -0.6454  0.1071
 4961TIP3    H136518   6.985   4.433   0.368  2.0583  0.3239 -0.0451
 4961TIP3    H236519   6.954   4.320   0.273 -1.6007 -0.1048  1.4758
 4962TIP3   OH236520   0.918   5.425   2.523  0.9548  1.0453  0.1127
 4962TIP3    H136521   0.950   5.491   2.461 -0.6481  1.2081 -0.5916
 4962TIP3    H236522   0.823   5.430   2.516  0.7817 -0.3187  1.1507
 4963TIP3   OH236523   3.050   4.830   1.716  0.5425  0.2474 -0.2292
 4963TIP3    H136524   3.048   4.750   1.665 -1.4991 -1.2737  2.0076
 4963TIP3    H236525   3.117   4.814   1.783  0.0839  0.3558  0.2646
 4964TIP3   OH236526   6.579   3.019   8.198 -0.3070  0.3723 -0.5579
 4964TIP3    H136527   6.507   3.079   8.180 -1.7868 -1.1984 -0.1489
 4964TIP3    H236528   6.590   3.022   8.293  0.7182  1.1647 -0.6788
 4965TIP3   OH236529   2.540   4.012   2.024 -0.1244 -0.0452 -0.5420
 4965TIP3    H136530   2.576   3.924   2.033 -0.6968 -0.1396  1.1758
 4965TIP3    H236531   2.564   4.057   2.105 -0.2607  1.2364 -1.1836
 4966TIP3   OH236532   2.458   0.022   2.507 -0.4318  0.0479 -0.1563
 4966TIP3    H136533   2.533  -0.037   2.501 -1.7265 -1.7140  0.1629
 4966TIP3    H236534   2.464   0.061   2.594  0.6844  0.7631 -0.5372
 4967TIP3   OH236535   1.067   0.699   1.258 -0.5205  0.0490  0.1012
 4967TIP3    H136536   1.059   0.614   1.214  0.3037  0.4289 -0.8239
 4967TIP3    H236537   1.005   0.755   1.211 -0.5006  0.1591  0.2079
 4968TIP3   OH236538   3.384   2.463   0.783  0.8765  0.3102  0.4646
 4968TIP3    H136539   3.361   2.392   0.723 -1.2893  0.3883  1.0975
 4968TIP3    H236540   3.358   2.543   0.737  1.8137  0.5938  0.4041
 4969TIP3   OH236541   6.548   1.814   0.552  0.4143  0.0169  0.1488
 4969TIP3    H136542   6.466   1.767   0.537  0.2370 -0.6311  2.6947
 4969TIP3    H236543   6.563   1.807   0.647  1.8197  2.7598  0.2303
 4970TIP3   OH236544   1.264   2.519   7.432  0.3692 -0.4406 -0.0909
 4970TIP3    H136545   1.269   2.498   7.339  0.7952 -0.7194 -0.0097
 4970TIP3    H236546   1.351   2.553   7.454 -0.0921  0.7538 -0.0582
 4971TIP3   OH236547   6.525   0.464   3.565  0.5868 -0.5480  0.5835
 4971TIP3    H136548   6.506   0.502   3.479  1.0442 -0.9997  0.2771
 4971TIP3    H236549   6.597   0.403   3.549 -0.4488 -1.9256  0.9578
 4972TIP3   OH236550   6.138   3.872   0.195  0.1608  0.1429  0.0535
 4972TIP3    H136551   6.227   3.866   0.229  0.6093 -0.9695 -1.2114
 4972TIP3    H236552   6.148   3.914   0.109 -0.6688  0.9639  0.3449
 4973TIP3   OH236553   5.608   0.620   0.652 -0.5742  0.6976 -0.3351
 4973TIP3    H136554   5.673   0.550   0.647 -1.8167 -0.5296 -0.0947
 4973TIP3    H236555   5.618   0.656   0.741  1.0719  1.8881 -0.9518
 4974TIP3   OH236556   0.877   0.011   2.693  0.2550  0.5603  0.1138
 4974TIP3    H136557   0.901   0.031   2.602 -0.6269  0.2788 -0.1973
 4974TIP3    H236558   0.841   0.093   2.726  0.3312  0.5897  0.1247
 4975TIP3   OH236559   6.888   1.866   0.596 -0.0561  0.6414  0.1890
 4975TIP3    H136560   6.844   1.846   0.514 -0.5777  1.3116  0.3032
 4975TIP3    H236561   6.901   1.961   0.595  4.5331  0.2545 -1.4423
 4976TIP3   OH236562   5.310   0.459   1.214 -0.4618 -0.0377 -0.4818
 4976TIP3    H136563   5.257   0.494   1.286 -1.7576 -3.0151  0.2141
 4976TIP3    H236564   5.251   0.459   1.139 -0.1335  0.2863 -0.7357
 4977TIP3   OH236565   4.878   5.613   2.877  0.6572  0.1984  0.1018
 4977TIP3    H136566   4.902   5.693   2.924  2.2287  1.1076 -2.0785
 4977TIP3    H236567   4.785   5.601   2.897  0.7332  1.7239  1.6483
 4978TIP3   OH236568   2.126   4.885   2.387 -0.0939 -0.1680 -0.3443
 4978TIP3    H136569   2.038   4.849   2.372 -0.1796 -0.4642  0.7961
 4978TIP3    H236570   2.122   4.923   2.474 -0.0203  2.7202 -1.4903
 4979TIP3   OH236571   6.380   2.815   1.707 -0.4181  0.0581 -0.0035
 4979TIP3    H136572   6.412   2.879   1.644  2.0341  0.0084  1.0676
 4979TIP3    H236573   6.386   2.731   1.661  2.5498 -0.1441  0.5583
 4980TIP3   OH236574   3.619   4.762   1.578 -0.2225 -0.0594 -0.1671
 4980TIP3    H136575   3.630   4.857   1.572  1.0445 -0.2604 -1.6275
 4980TIP3    H236576   3.524   4.750   1.585 -0.3047  1.3687  2.6187
 4981TIP3   OH236577   5.192   0.397   8.219  0.1832 -0.0403  0.0290
 4981TIP3    H136578   5.257   0.419   8.152 -0.9888 -0.9515 -1.4681
 4981TIP3    H236579   5.227   0.435   8.299  1.1848  1.9096 -1.2489
 4982TIP3   OH236580   2.534   3.831   1.780  0.0755  0.0793  0.3190
 4982TIP3    H136581   2.603   3.768   1.799 -0.3870 -0.1233  1.4160
 4982TIP3    H236582   2.520   3.824   1.685  0.1488 -1.3324  0.3973
 4983TIP3   OH236583   2.572   7.052   7.878  0.6983 -1.0018 -0.0841
 4983TIP3    H136584   2.589   7.132   7.928 -2.1112  0.7776 -1.6907
 4983TIP3    H236585   2.480   7.032   7.895  0.5388 -2.1766 -1.9971
 4984TIP3   OH236586   1.161   0.304   2.150  0.7432  0.1097 -0.5686
 4984TIP3    H136587   1.244   0.259   2.165  0.1954 -0.6236  0.3735
 4984TIP3    H236588   1.178   0.361   2.075  2.3880  0.7058  0.2067
 4985TIP3   OH236589   2.694   7.048   7.271  0.3938  0.4359 -0.1398
 4985TIP3    H136590   2.711   7.014   7.183  0.7269 -0.3377  0.2167
 4985TIP3    H236591   2.647   7.131   7.256  1.1393  0.7086 -1.0525
 4986TIP3   OH236592   1.987   3.081   8.150 -0.4707  0.9549  0.4498
 4986TIP3    H136593   1.994   3.007   8.211 -0.2187 -0.2286 -0.9661
 4986TIP3    H236594   2.072   3.125   8.155 -0.3048  0.6162  0.6414
 4987TIP3   OH236595   2.189   4.394   7.522  0.3402 -0.8409 -0.0481
 4987TIP3    H136596   2.100   4.427   7.511  0.2243 -0.3631  1.8426
 4987TIP3    H236597   2.179   4.299   7.528  0.0610 -0.8503 -0.6238
 4988TIP3   OH236598   0.897   1.015   3.132 -1.1848 -0.4099 -0.1812
 4988TIP3    H136599   0.838   0.942   3.150  1.0510 -2.6636 -1.5058
 4988TIP3    H236600   0.935   1.037   3.217 -1.3915 -1.2388  0.1384
 4989TIP3   OH236601   0.882   2.534   1.930  0.5516 -0.4376 -0.2153
 4989TIP3    H136602   0.900   2.571   2.017 -0.3518 -0.8861  0.1768
 4989TIP3    H236603   0.787   2.531   1.925  0.5750  0.3927 -1.5880
 4990TIP3   OH236604   1.758   4.093   1.752  0.2451 -0.4051 -0.1750
 4990TIP3    H136605   1.817   4.031   1.709 -2.0331 -1.8355 -1.4460
 4990TIP3    H236606   1.718   4.042   1.822 -1.4342 -0.3144 -1.0351
 4991TIP3   OH236607   3.765   0.454   7.550  0.0816 -0.1096  0.3630
 4991TIP3    H136608   3.712   0.527   7.580  0.9496  0.2211  1.1660
 4991TIP3    H236609   3.714   0.376   7.572 -0.2637  0.2136  0.7156
 4992TIP3   OH236610   0.292   4.547   7.536 -0.1475  0.4407 -0.0787
 4992TIP3    H136611   0.311   4.592   7.619 -2.8818  0.0652  0.8577
 4992TIP3    H236612   0.375   4.505   7.513  1.4653  2.7768  0.9804
 4993TIP3   OH236613   4.945   5.806   8.206 -0.2170  0.0878  0.0084
 4993TIP3    H136614   4.903   5.787   8.290  0.3427  0.0031  0.2761
 4993TIP3    H236615   4.909   5.741   8.146 -1.0363  0.5000  0.0471
 4994TIP3   OH236616   3.631   4.979   2.163  0.2797 -0.6974 -0.3295
 4994TIP3    H136617   3.678   4.949   2.085 -0.5626 -2.3744 -0.2494
 4994TIP3    H236618   3.683   4.947   2.236  0.4550 -0.1408 -0.2057
 4995TIP3   OH236619   6.379   0.552   1.552 -0.0780 -0.2800  0.5429
 4995TIP3    H136620   6.418   0.501   1.623 -1.1542  0.7380  1.9345
 4995TIP3    H236621   6.356   0.488   1.485  0.2092 -1.3808  1.4698
 4996TIP3   OH236622   6.508   4.593   0.596 -0.0497  0.1418  0.7238
 4996TIP3    H136623   6.551   4.547   0.667 -1.2382 -1.2381  0.5997
 4996TIP3    H236624   6.575   4.601   0.528  0.1736 -1.5941  0.6826
 4997TIP3   OH236625   6.576   3.994   2.307  0.3921 -0.0674  0.8607
 4997TIP3    H136626   6.511   3.983   2.238 -0.2174  0.1650  1.3876
 4997TIP3    H236627   6.592   4.088   2.311  0.9706 -0.1495  0.5489
 4998TIP3   OH236628   5.143   2.176   2.726  0.0658  0.3520 -0.3104
 4998TIP3    H136629   5.173   2.086   2.732  0.2654  0.4337 -0.0739
 4998TIP3    H236630   5.132   2.204   2.817  0.9333  0.8774 -0.3632
 4999TIP3   OH236631   4.824   4.681   0.972  0.3031  0.0046  0.0513
 4999TIP3    H136632   4.779   4.604   1.008 -0.2620  0.8797  1.2778
 4999TIP3    H236633   4.760   4.752   0.981  0.8069  0.6282 -1.0816
 5000TIP3   OH236634   4.252   3.068   3.230  0.0333  0.3504  0.2234
 5000TIP3    H136635   4.164   3.034   3.218  0.7576 -2.3530  1.6821
 5000TIP3    H236636   4.249   3.115   3.314 -0.1961  0.9443 -0.1173
 5001TIP3   OH236637   3.031   2.637   2.279  0.7658  0.5705 -0.0086
 5001TIP3    H136638   2.940   2.634   2.308  1.5006  0.2855  2.5898
 5001TIP3    H236639   3.053   2.730   2.277  0.7129  0.6020  0.5318
 5002TIP3   OH236640   0.184   5.454   1.884  0.1876 -0.1425 -0.1595
 5002TIP3    H136641   0.190   5.362   1.908  0.1605 -0.2156 -0.4352
 5002TIP3    H236642   0.224   5.460   1.797  1.6327  0.3805  0.5140
 5003TIP3   OH236643   5.088   0.824   1.171  0.0531  0.0979  0.1340
 5003TIP3    H136644   5.131   0.867   1.245 -1.6199 -0.1903  1.3429
 5003TIP3    H236645   5.158   0.806   1.108  1.3860  1.0905  1.2966
 5004TIP3   OH236646   4.721   0.977   1.956  0.1964  0.0734  0.5240
 5004TIP3    H136647   4.703   0.940   2.043  0.5340  1.0549  1.0159
 5004TIP3    H236648   4.792   0.922   1.921  1.9916  1.3267  2.0061
 5005TIP3   OH236649   4.285   0.705   0.060  0.0532  0.6626  0.4724
 5005TIP3    H136650   4.224   0.779   0.055 -0.9764 -0.2533 -1.9685
 5005TIP3    H236651   4.365   0.738   0.021  0.0312  0.8738  0.6004
 5006TIP3   OH236652   1.305   5.844   1.165  0.0246 -0.0192 -0.4536
 5006TIP3    H136653   1.390   5.863   1.124  0.3559  0.3308  0.3673
 5006TIP3    H236654   1.324   5.773   1.226 -0.3349 -0.1238 -0.4655
 5007TIP3   OH236655   3.866   5.841   2.765 -0.0911  0.4090 -0.0128
 5007TIP3    H136656   3.854   5.825   2.858 -2.0280  2.0131  0.0650
 5007TIP3    H236657   3.794   5.794   2.723  1.1121 -0.8151 -0.8119
 5008TIP3   OH236658   2.841   3.761   0.403 -0.3285  0.2190  0.0744
 5008TIP3    H136659   2.828   3.783   0.495 -1.4842 -0.0661 -0.0087
 5008TIP3    H236660   2.800   3.832   0.355  1.0861  0.8418 -0.2474
 5009TIP3   OH236661   4.221   6.530   0.522  0.5322 -0.1152 -0.0538
 5009TIP3    H136662   4.133   6.506   0.550  0.0046  2.3804  0.6888
 5009TIP3    H236663   4.208   6.583   0.443  1.4022 -0.1777 -0.2560
 5010TIP3   OH236664   2.488   6.445   2.130  0.5662 -1.1376  0.2527
 5010TIP3    H136665   2.560   6.436   2.067  1.4938 -0.6009  1.1933
 5010TIP3    H236666   2.532   6.451   2.215 -0.5700 -0.0996  0.7903
 5011TIP3   OH236667   6.467   1.061   0.546  0.0039  0.4016  0.0541
 5011TIP3    H136668   6.549   1.108   0.550  0.5839 -0.6327  1.3041
 5011TIP3    H236669   6.485   0.985   0.490 -1.1873  2.0399 -2.7453
 5012TIP3   OH236670   6.568   0.235   0.819 -0.0747  0.5769  0.2236
 5012TIP3    H136671   6.520   0.153   0.819  0.1245  0.4273 -1.1284
 5012TIP3    H236672   6.659   0.210   0.836  0.1185  0.3893 -0.9509
 5013TIP3   OH236673   1.915   1.827   2.331  0.0368  0.0597 -0.1709
 5013TIP3    H136674   1.844   1.862   2.384  1.2076  1.2436  0.6646
 5013TIP3    H236675   1.993   1.836   2.385  0.6376 -2.7015 -0.4226
 5014TIP3   OH236676   4.201   5.531   2.599 -0.3553 -0.3971 -0.3141
 5014TIP3    H136677   4.201   5.451   2.546  1.6432  0.0970 -1.1219
 5014TIP3    H236678   4.220   5.501   2.688 -0.8228 -0.9167 -0.3790
 5015TIP3   OH236679   1.616   4.380   2.151  0.0272 -0.6689 -0.0196
 5015TIP3    H136680   1.643   4.412   2.237 -0.5306 -0.4173  0.0661
 5015TIP3    H236681   1.598   4.287   2.165 -0.7139 -0.4848  0.2960
 5016TIP3   OH236682   3.492   2.516   2.039  0.1682 -0.1782  0.5939
 5016TIP3    H136683   3.485   2.577   2.113 -2.5404  0.4985 -0.1160
 5016TIP3    H236684   3.517   2.433   2.078  1.8459  0.8438  1.8449
 5017TIP3   OH236685   1.586   0.619   7.185 -0.5163 -0.5428 -0.1064
 5017TIP3    H136686   1.528   0.635   7.259  0.2618 -0.7667  0.5748
 5017TIP3    H236687   1.537   0.561   7.127 -1.4883  0.3760 -0.2296
 5018TIP3   OH236688   4.515   1.386   0.240  0.0251  0.1593  0.4090
 5018TIP3    H136689   4.481   1.385   0.329 -0.1186  0.2357  0.3546
 5018TIP3    H236690   4.554   1.472   0.230 -1.2022  0.6771 -0.0712
 5019TIP3   OH236691   6.965   6.429   1.314 -0.2695  0.3366  0.1404
 5019TIP3    H136692   6.947   6.361   1.379 -1.1733  0.7146  0.3079
 5019TIP3    H236693   7.046   6.402   1.273  0.2506  0.0077  1.3258
 5020TIP3   OH236694   3.356   6.981   1.255 -0.1066  0.0597 -0.0147
 5020TIP3    H136695   3.301   6.903   1.244 -0.5771  0.6037 -1.7791
 5020TIP3    H236696   3.297   7.046   1.293 -0.5030  0.3895 -1.1461
 5021TIP3   OH236697   1.626   6.786   0.514 -0.1087  0.6159 -0.2950
 5021TIP3    H136698   1.609   6.880   0.510 -4.1490  0.0788  0.0222
 5021TIP3    H236699   1.651   6.762   0.424  0.5367  1.8776 -0.4676
 5022TIP3   OH236700   4.880   2.221   1.954 -0.6272  0.6466 -0.5906
 5022TIP3    H136701   4.829   2.142   1.937 -1.2164  0.6185  1.1265
 5022TIP3    H236702   4.844   2.286   1.892 -1.4410  0.0928 -0.7176
 5023TIP3   OH236703   5.502   5.046   2.331 -0.4150 -0.2327  0.0246
 5023TIP3    H136704   5.542   4.959   2.325  0.7504  0.2811 -0.1289
 5023TIP3    H236705   5.521   5.075   2.421 -1.3778 -0.4001  0.2857
 5024TIP3   OH236706   1.121   0.784   7.106  0.6069  0.2152 -0.6070
 5024TIP3    H136707   1.155   0.694   7.107 -0.2248 -0.1025 -0.7035
 5024TIP3    H236708   1.199   0.839   7.120  1.0307 -0.5460  0.1376
 5025TIP3   OH236709   4.311   0.486   0.566  0.3888  0.1819  0.1238
 5025TIP3    H136710   4.302   0.548   0.493 -0.4745  2.4482  2.0079
 5025TIP3    H236711   4.227   0.440   0.568  0.0854  0.7258  0.1915
 5026TIP3   OH236712   2.680   1.379   7.930 -0.0839  0.1748  0.6313
 5026TIP3    H136713   2.775   1.376   7.922 -0.1328 -0.6407  0.1910
 5026TIP3    H236714   2.650   1.295   7.895 -0.9848  0.5428  0.4731
 5027TIP3   OH236715   3.395   5.681   1.314 -0.1753 -0.1447  0.4074
 5027TIP3    H136716   3.489   5.670   1.329 -0.3168 -1.1780  0.6263
 5027TIP3    H236717   3.390   5.733   1.233  0.5766  0.3121  0.6436
 5028TIP3   OH236718   3.118   2.920   0.890 -0.2958 -0.0253 -0.2421
 5028TIP3    H136719   3.092   3.007   0.920  0.1466  0.0505 -0.0642
 5028TIP3    H236720   3.123   2.928   0.795  0.0923  0.2499 -0.2038
 5029TIP3   OH236721   0.470   3.483   0.262 -0.7863  0.0734 -0.1250
 5029TIP3    H136722   0.383   3.499   0.224  0.2050  0.7172 -2.2740
 5029TIP3    H236723   0.485   3.558   0.320 -1.0510  0.7580 -0.9199
 5030TIP3   OH236724   1.831   1.456   8.055  0.3898  0.0718 -0.5479
 5030TIP3    H136725   1.829   1.529   8.116  0.1421 -0.4376  0.0603
 5030TIP3    H236726   1.852   1.496   7.971  2.7675  0.5611  0.1974
 5031TIP3   OH236727   2.284   2.536   7.047  0.4178  0.3933 -0.1574
 5031TIP3    H136728   2.342   2.536   7.122  0.3237  1.4303 -0.0657
 5031TIP3    H236729   2.289   2.625   7.012 -0.2592  0.1933 -0.8139
 5032TIP3   OH236730   6.706   6.503   1.604  0.0127 -0.4266 -0.4641
 5032TIP3    H136731   6.642   6.539   1.542 -0.5317 -1.0193 -0.2625
 5032TIP3    H236732   6.697   6.559   1.682 -0.5471 -0.7355 -0.2964
 5033TIP3   OH236733   6.490   5.689   3.697 -0.4105 -0.0794  0.4318
 5033TIP3    H136734   6.422   5.751   3.723 -0.6349 -0.9408  2.0107
 5033TIP3    H236735   6.447   5.629   3.637 -1.1000 -0.6439  1.4526
 5034TIP3   OH236736   0.777   6.195   0.924  0.2479  0.6613 -0.0885
 5034TIP3    H136737   0.870   6.198   0.899  0.5164 -0.1442  0.7489
 5034TIP3    H236738   0.762   6.103   0.946 -0.6767  0.8451  0.0535
 5035TIP3   OH236739   1.412   2.482   0.504  0.2394 -0.3440  0.1220
 5035TIP3    H136740   1.451   2.399   0.478 -2.0830 -1.7201  0.7237
 5035TIP3    H236741   1.320   2.462   0.519  0.1105  1.7400  3.0143
 5036TIP3   OH236742   2.326   4.139   3.194  0.6838 -0.0459  0.5344
 5036TIP3    H136743   2.346   4.074   3.262  0.8619 -0.5790 -0.0204
 5036TIP3    H236744   2.408   4.150   3.146  0.4791  0.0958  0.2126
 5037TIP3   OH236745   1.721   4.833   8.041  0.4653  0.5047 -0.0710
 5037TIP3    H136746   1.692   4.755   7.993  0.3012  0.0814  0.7008
 5037TIP3    H236747   1.760   4.888   7.974  1.8506 -0.8439 -0.4267
 5038TIP3   OH236748   0.115   3.858   2.306 -0.1939 -0.2801 -0.0770
 5038TIP3    H136749   0.040   3.897   2.261  0.2013  0.3103 -0.2399
 5038TIP3    H236750   0.148   3.792   2.245 -0.9532 -0.9867  0.2609
 5039TIP3   OH236751   3.234   0.039   0.625  0.0396  0.6039  0.3178
 5039TIP3    H136752   3.156   0.013   0.674  0.0288 -0.2490 -0.1182
 5039TIP3    H236753   3.202   0.102   0.561 -0.0221  1.3862  1.1091
 5040TIP3   OH236754   2.281   6.178   0.468  0.3983  0.0713  0.0861
 5040TIP3    H136755   2.283   6.147   0.377 -0.6244 -0.1065  0.1085
 5040TIP3    H236756   2.189   6.199   0.484  0.8147  1.6587  0.5800
 5041TIP3   OH236757   1.806   3.684   0.919 -0.8245  0.1331  0.2933
 5041TIP3    H136758   1.833   3.644   0.836  0.8079 -0.6869  1.1803
 5041TIP3    H236759   1.721   3.725   0.899 -1.3937 -1.6547 -1.2933
 5042TIP3   OH236760   1.861   0.844   0.588  0.4858  0.8540  0.8089
 5042TIP3    H136761   1.884   0.929   0.550 -1.1802  1.2251  0.5633
 5042TIP3    H236762   1.892   0.780   0.523  2.1235  1.2166  1.1843
 5043TIP3   OH236763   5.024   1.408   2.235  0.1279  0.1304  0.2436
 5043TIP3    H136764   4.987   1.326   2.204  1.8910 -1.2753  1.5869
 5043TIP3    H236765   5.112   1.385   2.265  0.3715  2.3407  1.5016
 5044TIP3   OH236766   3.107   6.292   8.219  0.3111  0.0470 -0.1710
 5044TIP3    H136767   3.033   6.315   8.275  1.4627  0.9048  1.0568
 5044TIP3    H236768   3.099   6.197   8.207  0.4930 -0.3241  2.1936
 5045TIP3   OH236769   2.688   5.825   0.803  0.1356 -0.0493  0.8823
 5045TIP3    H136770   2.633   5.884   0.751  1.7382  1.4254  0.7925
 5045TIP3    H236771   2.698   5.869   0.887 -0.4934 -1.3085  1.6459
 5046TIP3   OH236772   5.766   3.751   1.123 -0.1645  0.2615 -0.4364
 5046TIP3    H136773   5.742   3.712   1.207  3.2626 -0.4133  0.3910
 5046TIP3    H236774   5.736   3.687   1.058  1.1945 -1.5592  0.6237
 5047TIP3   OH236775   2.463   6.001   0.624 -0.0387 -0.4096 -0.1066
 5047TIP3    H136776   2.418   6.085   0.630 -0.0307 -0.4746  1.0628
 5047TIP3    H236777   2.394   5.936   0.635  0.2155 -0.5232  0.8403
 5048TIP3   OH236778   1.268   2.059   1.603 -0.4077 -0.2751  0.2058
 5048TIP3    H136779   1.278   2.097   1.690 -0.7049 -2.1784  1.1389
 5048TIP3    H236780   1.176   2.033   1.598 -0.2770 -0.6482 -0.4611
 5049TIP3   OH236781   4.020   4.695   1.416  0.1582  0.1744  0.1991
 5049TIP3    H136782   4.021   4.737   1.502  1.9652  0.6231  0.0051
 5049TIP3    H236783   4.028   4.768   1.354  0.5827 -0.2718 -0.2769
 5050TIP3   OH236784   6.969   1.062   0.581 -0.3718 -0.2748  0.7898
 5050TIP3    H136785   6.918   1.047   0.660  0.5084  0.2733  1.4804
 5050TIP3    H236786   7.009   0.978   0.561 -2.5795 -1.0996 -0.5621
 5051TIP3   OH236787   0.404   2.973   2.522  0.2633  0.3613 -0.0909
 5051TIP3    H136788   0.472   2.949   2.459 -0.1777 -1.9359  0.2136
 5051TIP3    H236789   0.366   3.054   2.487  0.8764 -0.1651 -2.0916
 5052TIP3   OH236790   1.020   5.703   0.377  0.0393  0.1698  0.6368
 5052TIP3    H136791   1.064   5.785   0.353 -1.0088  1.1059  1.7575
 5052TIP3    H236792   0.945   5.699   0.317 -0.3766  0.4886  1.1198
 5053TIP3   OH236793   3.287   7.026   7.467  0.0514  0.0881  0.1837
 5053TIP3    H136794   3.322   7.115   7.470 -0.2119  0.2060 -0.1667
 5053TIP3    H236795   3.345   6.975   7.524 -0.0065  0.5563  0.6708
 5054TIP3   OH236796   6.437   4.436   7.652  0.8688  0.2332  0.9251
 5054TIP3    H136797   6.476   4.425   7.739  0.7355 -0.1993  0.9314
 5054TIP3    H236798   6.471   4.520   7.621 -1.5099  1.9809  2.6692
 5055TIP3   OH236799   3.866   2.061   2.129  0.0760 -0.0413  0.3552
 5055TIP3    H136800   3.897   2.062   2.219  0.7739  1.0723  0.1173
 5055TIP3    H236801   3.841   2.152   2.110 -1.6195 -0.5529 -0.0594
 5056TIP3   OH236802   6.909   5.198   3.485  0.8385 -0.3164  0.0648
 5056TIP3    H136803   6.981   5.153   3.441  1.2696  0.3839  0.0515
 5056TIP3    H236804   6.946   5.280   3.516 -0.2378  0.6362 -1.0368
 5057TIP3   OH236805   4.706   5.852   2.302 -0.4337 -0.2826 -0.0362
 5057TIP3    H136806   4.790   5.843   2.258  0.0225  2.7301  0.0296
 5057TIP3    H236807   4.659   5.770   2.281  1.3873 -0.8175 -2.4561
 5058TIP3   OH236808   4.751   2.020   1.050  0.4972  0.4390  0.0482
 5058TIP3    H136809   4.789   1.945   1.004 -0.9635 -2.3769  3.0171
 5058TIP3    H236810   4.688   2.057   0.987  1.6575 -0.3866 -1.6973
 5059TIP3   OH236811   5.183   6.565   2.584 -0.5251  0.6993  0.0229
 5059TIP3    H136812   5.266   6.561   2.537 -0.6121 -0.7151 -0.0668
 5059TIP3    H236813   5.205   6.610   2.666  0.3578  0.2941  0.0299
 5060TIP3   OH236814   3.290   0.360   1.075 -0.0104  0.8021  0.4548
 5060TIP3    H136815   3.350   0.373   1.002 -1.4994  1.0268 -0.7802
 5060TIP3    H236816   3.289   0.444   1.121  0.3783  0.8929  0.2971
 5061TIP3   OH236817   3.488   2.492   3.141  0.5105 -0.0924  0.8410
 5061TIP3    H136818   3.397   2.469   3.160 -0.1201  0.3798 -1.2956
 5061TIP3    H236819   3.532   2.490   3.226 -1.6773  0.4899  2.0508
 5062TIP3   OH236820   3.470   0.623   0.189 -0.1312 -0.0652  0.2327
 5062TIP3    H136821   3.455   0.530   0.208  1.1147  0.0034  1.7115
 5062TIP3    H236822   3.423   0.638   0.107 -0.7290 -1.8893  0.1916
 5063TIP3   OH236823   6.873   2.694   0.668  0.0452 -0.0713  0.0340
 5063TIP3    H136824   6.789   2.704   0.713 -0.3175  0.0100 -0.6383
 5063TIP3    H236825   6.934   2.748   0.717 -0.6521  1.1187 -0.3753
 5064TIP3   OH236826   0.971   0.929   0.354 -0.2168  0.1690 -0.6295
 5064TIP3    H136827   0.945   0.848   0.309 -1.2752  0.2643 -0.2111
 5064TIP3    H236828   1.025   0.900   0.427 -0.0474 -0.1147 -0.8653
 5065TIP3   OH236829   2.182   3.318   2.605 -0.5631 -0.5269 -0.0183
 5065TIP3    H136830   2.102   3.270   2.627 -0.5054 -0.3193  0.6550
 5065TIP3    H236831   2.187   3.387   2.671  1.3259 -1.8520  1.3197
 5066TIP3   OH236832   0.312   1.520   0.064 -0.3291  0.1395 -0.4122
 5066TIP3    H136833   0.306   1.438   0.112 -0.0214  0.6235  0.4687
 5066TIP3    H236834   0.392   1.561   0.095 -1.2344  1.4573  0.2655
 5067TIP3   OH236835   4.668   2.860   1.845  0.0133 -0.4451 -0.3571
 5067TIP3    H136836   4.732   2.793   1.868 -1.7034 -1.4882  1.7581
 5067TIP3    H236837   4.693   2.937   1.897  1.1070  0.1237 -1.6563
 5068TIP3   OH236838   0.975   6.087   2.722 -0.4798  0.4532  0.6073
 5068TIP3    H136839   1.064   6.121   2.709 -0.3393  0.2974  1.1511
 5068TIP3    H236840   0.981   6.034   2.801 -0.7800 -0.5751 -0.0407
 5069TIP3   OH236841   6.947   0.266   7.532  0.1410 -0.1491  0.4241
 5069TIP3    H136842   6.928   0.201   7.465 -0.2860 -0.3429  0.7239
 5069TIP3    H236843   6.960   0.215   7.612 -1.1849  0.1692  0.8771
 5070TIP3   OH236844   1.300   6.040   1.967  0.5187  0.2727 -0.1003
 5070TIP3    H136845   1.387   5.999   1.960  1.5373  2.4509 -1.3147
 5070TIP3    H236846   1.276   6.028   2.059  2.6874  0.6634  0.5837
 5071TIP3   OH236847   2.477   5.225   7.970  0.0729  0.5075  0.2475
 5071TIP3    H136848   2.400   5.173   7.949  0.5635  0.1275 -0.6740
 5071TIP3    H236849   2.551   5.164   7.961  0.5620  1.0981  0.1597
 5072TIP3   OH236850   6.643   7.049   1.964  0.3134 -0.0467 -0.4612
 5072TIP3    H136851   6.597   7.064   1.881 -0.4361 -0.2439 -0.0947
 5072TIP3    H236852   6.627   6.956   1.983 -0.2262  0.1915  0.3102
 5073TIP3   OH236853   2.033   2.239   0.642 -0.6215  0.5388 -0.2540
 5073TIP3    H136854   2.084   2.194   0.709 -1.6358  0.0103  0.2015
 5073TIP3    H236855   2.081   2.225   0.561 -1.2595 -2.0614 -0.2654
 5074TIP3   OH236856   1.178   4.920   7.832  0.0734  0.2312 -0.1457
 5074TIP3    H136857   1.157   4.882   7.917  1.4304  2.0389  1.0772
 5074TIP3    H236858   1.093   4.934   7.790 -0.6075 -0.9322  0.7635
 5075TIP3   OH236859   4.248   5.836   1.965  0.0271 -0.2304  0.5553
 5075TIP3    H136860   4.186   5.808   1.897  0.1383  0.7078  0.0488
 5075TIP3    H236861   4.321   5.775   1.958  0.7325  0.7346 -1.2102
 5076TIP3   OH236862   1.554   1.187   0.282  0.1260 -0.2595  0.2534
 5076TIP3    H136863   1.493   1.260   0.276  1.6834  1.0669 -0.0333
 5076TIP3    H236864   1.512   1.117   0.231 -1.9325 -0.0123  1.5023
 5077TIP3   OH236865   1.815   1.827   2.094  0.6265 -0.7536 -0.4364
 5077TIP3    H136866   1.838   1.753   2.038 -1.6119 -0.6222 -1.6486
 5077TIP3    H236867   1.882   1.828   2.162  1.2936 -3.2461 -0.9703
 5078TIP3   OH236868   5.475   3.230   0.716  0.3779 -0.0777  0.1028
 5078TIP3    H136869   5.493   3.322   0.696  0.6278 -0.4740 -1.6072
 5078TIP3    H236870   5.385   3.230   0.749  0.5151  0.8291  0.4916
 5079TIP3   OH236871   5.281   4.754   7.868  0.2510  0.5058 -0.1009
 5079TIP3    H136872   5.337   4.717   7.800 -1.4018 -1.3206 -0.5590
 5079TIP3    H236873   5.293   4.849   7.861  2.2761  0.2306 -0.9852
 5080TIP3   OH236874   4.185   2.171   1.716  0.2070 -0.0054 -0.6116
 5080TIP3    H136875   4.120   2.122   1.666  0.3031 -0.3911 -0.3630
 5080TIP3    H236876   4.183   2.131   1.803  1.3099 -0.5170 -0.8114
 5081TIP3   OH236877   5.219   4.273   1.922  0.1225  0.2682  0.2508
 5081TIP3    H136878   5.254   4.218   1.992  2.6801  2.3564  0.7491
 5081TIP3    H236879   5.148   4.221   1.884  2.9304 -3.8487  0.0024
 5082TIP3   OH236880   1.404   1.184   1.923  0.2530  0.2055 -0.2849
 5082TIP3    H136881   1.391   1.269   1.963 -0.3042  0.7343 -1.5258
 5082TIP3    H236882   1.493   1.158   1.948  1.0367  1.8962 -1.1819
 5083TIP3   OH236883   6.015   0.752   0.969 -0.9108 -0.8654  0.0512
 5083TIP3    H136884   6.097   0.702   0.961 -1.1612 -1.2610 -0.0796
 5083TIP3    H236885   6.018   0.816   0.899 -1.1674 -1.5405 -0.5858
 5084TIP3   OH236886   6.317   2.023   0.523 -0.0843  0.0708 -0.3582
 5084TIP3    H136887   6.258   2.082   0.476  0.3335  0.7885  0.0030
 5084TIP3    H236888   6.302   1.938   0.483  0.0868  0.6132 -1.6418
 5085TIP3   OH236889   2.955   1.406   7.894 -1.0279 -0.2515  0.2340
 5085TIP3    H136890   3.033   1.427   7.945  0.3342 -1.9976 -1.0103
 5085TIP3    H236891   2.982   1.420   7.803 -3.8495  4.3424 -0.1982
 5086TIP3   OH236892   5.681   0.302   0.199  0.5049  0.0623  0.2722
 5086TIP3    H136893   5.673   0.397   0.202 -0.5745 -0.0265  2.4186
 5086TIP3    H236894   5.652   0.278   0.111 -1.3793  1.5948  0.3976
 5087TIP3   OH236895   6.529   4.504   2.043 -0.5060  0.4358 -0.6048
 5087TIP3    H136896   6.499   4.589   2.011 -0.4787  0.7756  0.2569
 5087TIP3    H236897   6.598   4.479   1.981 -2.1363 -0.1062 -2.2912
 5088TIP3   OH236898   1.147   2.911   6.957  0.3552  0.4332 -0.0776
 5088TIP3    H136899   1.208   2.838   6.948  0.6369  0.4996  1.1650
 5088TIP3    H236900   1.082   2.896   6.888  0.6016 -0.7979 -0.0643
 5089TIP3   OH236901   1.608   4.614   7.847  0.5090  0.4351 -0.6477
 5089TIP3    H136902   1.558   4.536   7.871 -1.6718  1.7886 -0.5679
 5089TIP3    H236903   1.615   4.609   7.752  0.5789  0.0443 -0.6261
 5090TIP3   OH236904   1.069   1.996   0.733 -0.4389  0.6862  0.3724
 5090TIP3    H136905   1.125   2.056   0.783  0.4327 -0.3494  0.6850
 5090TIP3    H236906   1.025   1.944   0.801  0.1594 -0.2023  0.0995
 5091TIP3   OH236907   2.239   1.093   1.350  0.1321 -0.2808  0.4476
 5091TIP3    H136908   2.258   1.104   1.257  0.8737 -0.0418  0.6200
 5091TIP3    H236909   2.146   1.068   1.353  0.0903 -0.2426 -0.3468
 5092TIP3   OH236910   0.753   5.941   0.232 -0.2315 -0.1880  0.4610
 5092TIP3    H136911   0.840   5.964   0.197 -0.9133  2.7626  0.4240
 5092TIP3    H236912   0.721   6.023   0.269 -2.3390 -1.6306  1.9933
 5093TIP3   OH236913   0.107   1.061   1.163 -0.2019 -0.1010  0.1413
 5093TIP3    H136914   0.136   1.082   1.074 -0.4411  0.4739  0.1971
 5093TIP3    H236915   0.116   1.143   1.212 -3.2781  0.5452 -0.1833
 5094TIP3   OH236916   5.021   3.336   2.844  0.4921 -0.1685  0.0982
 5094TIP3    H136917   5.043   3.335   2.751 -2.0241  2.1567 -0.6805
 5094TIP3    H236918   5.004   3.428   2.863  1.5930 -0.4914  3.0793
 5095TIP3   OH236919   6.157   6.094   3.207  0.2855 -0.5497  0.0666
 5095TIP3    H136920   6.242   6.050   3.213  0.1320 -1.4091 -2.5643
 5095TIP3    H236921   6.111   6.047   3.136 -3.3670 -1.6671  2.8585
 5096TIP3   OH236922   5.057   4.880   0.753  0.3801  0.2393 -0.3540
 5096TIP3    H136923   5.131   4.941   0.761 -0.1405  0.9931 -1.0407
 5096TIP3    H236924   5.065   4.845   0.664 -0.5087  0.9201 -0.7190
 5097TIP3   OH236925   5.764   4.594   1.597 -0.0220 -0.1297  0.3489
 5097TIP3    H136926   5.686   4.550   1.631 -0.2228 -0.0876 -0.0468
 5097TIP3    H236927   5.797   4.645   1.671 -1.5693  1.5253  0.0034
 5098TIP3   OH236928   6.058   4.492   0.843  0.2162  0.3330 -0.0432
 5098TIP3    H136929   6.129   4.548   0.875 -0.1782  0.6776  0.2313
 5098TIP3    H236930   6.082   4.474   0.752  2.3871 -2.2764  0.9004
 5099TIP3   OH236931   0.325   1.466   8.057  0.2147 -0.4013  0.3505
 5099TIP3    H136932   0.305   1.521   7.981 -1.3374 -2.6167 -0.9608
 5099TIP3    H236933   0.301   1.520   8.132 -3.6670 -0.0277 -0.9313
 5100TIP3   OH236934   5.265   6.673   0.431  0.3457 -0.0150 -0.1527
 5100TIP3    H136935   5.282   6.684   0.525 -1.2329  3.0333 -0.1295
 5100TIP3    H236936   5.193   6.610   0.427 -1.1700  1.5618  0.9056
 5101TIP3   OH236937   6.269   1.043   0.191  0.0030  0.1654  0.6343
 5101TIP3    H136938   6.176   1.056   0.212 -0.6239  0.7020 -2.0862
 5101TIP3    H236939   6.282   1.090   0.109  2.8001  0.3563  1.0964
 5102TIP3   OH236940   2.826   3.932   1.299 -0.5262 -0.0787 -0.1514
 5102TIP3    H136941   2.866   4.018   1.287 -1.4366  0.2169 -1.3820
 5102TIP3    H236942   2.861   3.900   1.382 -0.5457  1.6907  0.5876
 5103TIP3   OH236943   0.950   1.478   2.689 -0.0260 -0.0728 -0.2999
 5103TIP3    H136944   1.007   1.522   2.752  0.5140 -0.6379 -0.3944
 5103TIP3    H236945   0.892   1.423   2.743  1.5781 -1.9130 -0.3559
 5104TIP3   OH236946   6.248   6.337   0.961  0.3085 -0.5625 -0.7656
 5104TIP3    H136947   6.270   6.416   1.009 -2.2097 -1.0157  1.3230
 5104TIP3    H236948   6.162   6.354   0.923 -0.7118 -2.5036  0.4717
 5105TIP3   OH236949   1.661   3.410   2.639  0.3953  0.2038 -0.3854
 5105TIP3    H136950   1.571   3.417   2.609  0.3375  1.0763 -0.0386
 5105TIP3    H236951   1.670   3.478   2.706  1.0966 -0.3653  0.1242
 5106TIP3   OH236952   4.354   2.096   7.529 -1.0659 -0.0540  0.1020
 5106TIP3    H136953   4.379   2.028   7.591 -2.6748  1.7961  2.9909
 5106TIP3    H236954   4.259   2.095   7.528 -1.0969  0.6850 -1.5922
 5107TIP3   OH236955   4.205   2.070   2.830 -0.3416  0.4407  0.2276
 5107TIP3    H136956   4.138   2.021   2.782  0.8404 -1.2462  0.2460
 5107TIP3    H236957   4.159   2.103   2.908 -1.3843  0.1791 -0.2528
 5108TIP3   OH236958   4.134   0.682   2.553 -0.1526  0.2829 -0.6250
 5108TIP3    H136959   4.088   0.686   2.470 -0.2781 -1.6027 -0.6763
 5108TIP3    H236960   4.226   0.693   2.529 -0.3524  1.8587 -0.7558
 5109TIP3   OH236961   5.117   5.611   3.215  0.2518  0.6794  0.0231
 5109TIP3    H136962   5.127   5.516   3.215 -0.7657  0.5464  1.3641
 5109TIP3    H236963   5.035   5.627   3.263 -0.6120  2.1407 -1.8188
 5110TIP3   OH236964   1.117   5.320   0.253 -0.2123  1.0302 -0.0154
 5110TIP3    H136965   1.159   5.267   0.185 -3.0823  0.5906 -1.5980
 5110TIP3    H236966   1.099   5.257   0.324 -0.7506  0.5737 -0.5466
 5111TIP3   OH236967   3.001   1.707   2.383 -0.3859 -0.4326 -0.4064
 5111TIP3    H136968   2.936   1.739   2.321 -0.6301 -0.3463 -0.1058
 5111TIP3    H236969   3.073   1.675   2.328 -0.6956 -0.5644 -0.7384
 5112TIP3   OH236970   1.181   0.956   1.342  0.1513  0.1412  0.5144
 5112TIP3    H136971   1.132   0.930   1.420  0.7837 -2.3287  0.1611
 5112TIP3    H236972   1.189   0.876   1.290  2.4772  0.9772 -0.5746
 5113TIP3   OH236973   3.417   0.397   1.455 -0.5599  0.2574  0.3567
 5113TIP3    H136974   3.476   0.355   1.393 -0.4072 -1.6349  1.6856
 5113TIP3    H236975   3.391   0.478   1.412  2.8214  1.1117 -0.4084
 5114TIP3   OH236976   4.108   3.964   0.988  0.0037 -0.4239  0.0645
 5114TIP3    H136977   4.031   3.959   1.044 -1.0046 -0.1825 -1.2550
 5114TIP3    H236978   4.151   4.045   1.014 -1.2440  0.4415 -0.4423
 5115TIP3   OH236979   7.053   4.775   1.381  0.4651  0.1980 -0.3082
 5115TIP3    H136980   7.102   4.737   1.308  0.3671 -0.6338  0.0563
 5115TIP3    H236981   7.118   4.828   1.427  0.3327  1.4223 -1.4657
 5116TIP3   OH236982   0.855   3.550   2.316 -0.3479 -0.9039 -0.3222
 5116TIP3    H136983   0.818   3.557   2.404  0.2704 -1.6823  0.0171
 5116TIP3    H236984   0.864   3.640   2.286 -0.5749 -0.6305  0.4091
 5117TIP3   OH236985   0.239   7.022   7.437  0.1688 -0.2188  0.0906
 5117TIP3    H136986   0.149   7.009   7.468  0.3021 -0.7919  0.2599
 5117TIP3    H236987   0.232   7.087   7.368 -0.6358 -1.6038 -1.1888
 5118TIP3   OH236988   1.366   3.115   0.863 -0.4005 -0.2968 -0.5021
 5118TIP3    H136989   1.287   3.069   0.837  0.1924 -0.0978 -2.8440
 5118TIP3    H236990   1.436   3.050   0.855 -0.2138 -0.3150  0.9789
 5119TIP3   OH236991   1.852   4.652   2.920  0.2068  0.2618 -0.3427
 5119TIP3    H136992   1.798   4.704   2.978  0.3648 -0.0137  0.0593
 5119TIP3    H236993   1.931   4.704   2.907 -0.3239  0.8573 -1.2768
 5120TIP3   OH236994   5.418   6.061   3.236 -0.6866  0.0872  0.2726
 5120TIP3    H136995   5.487   6.101   3.289  0.3131 -1.4482  0.2022
 5120TIP3    H236996   5.378   6.135   3.189  0.4835  1.0972  0.8015
 5121TIP3   OH236997   5.855   3.895   2.032  0.4500  0.1976 -0.1469
 5121TIP3    H136998   5.933   3.849   2.002 -1.2921 -1.4515 -2.5393
 5121TIP3    H236999   5.836   3.958   1.963 -0.1086  0.8602  0.5933
 5122TIP3   OH237000   0.140   0.931   1.429 -0.1970 -0.1810 -0.2083
 5122TIP3    H137001   0.153   0.943   1.335  1.7192 -1.2590 -0.1143
 5122TIP3    H237002   0.222   0.895   1.461 -1.5307 -1.9048  1.5298
 5123TIP3   OH237003   2.082   3.969   2.099  0.1721  0.3394 -0.5617
 5123TIP3    H137004   2.123   4.003   2.178  1.2341 -1.4952 -0.2448
 5123TIP3    H237005   2.152   3.972   2.033  0.7734 -2.3121 -0.1649
 5124TIP3   OH237006   4.488   2.509   2.045 -1.0938  0.0763  0.4837
 5124TIP3    H137007   4.424   2.438   2.038 -0.3254 -0.4576 -2.0333
 5124TIP3    H237008   4.437   2.589   2.031 -1.4186 -0.2507 -0.2561
 5125TIP3   OH237009   0.232   1.947   1.825 -0.5442 -0.1534  0.1495
 5125TIP3    H137010   0.254   1.950   1.918 -0.2102  0.1546  0.0613
 5125TIP3    H237011   0.227   1.853   1.805  2.0227 -0.3144 -0.1207
 5126TIP3   OH237012   5.208   0.957   0.593 -0.0534  0.2806  0.4857
 5126TIP3    H137013   5.277   0.944   0.657 -0.2149 -0.4479  0.5260
 5126TIP3    H237014   5.154   0.878   0.599 -1.0599  0.9513  0.6583
 5127TIP3   OH237015   4.794   0.486   3.048 -0.4861  0.2092  0.4433
 5127TIP3    H137016   4.823   0.462   3.136  1.8418 -0.5817 -0.4704
 5127TIP3    H237017   4.698   0.485   3.053 -0.4930 -2.9860  2.1510
 5128TIP3   OH237018   1.912   4.585   1.034  0.0848  0.1784  0.3440
 5128TIP3    H137019   1.892   4.585   1.128  2.0224 -1.9251  0.8353
 5128TIP3    H237020   2.002   4.553   1.028 -0.3670 -0.9039 -2.3060
 5129TIP3   OH237021   6.242   4.170   0.843 -0.1838  0.3843 -0.2461
 5129TIP3    H137022   6.304   4.100   0.823  0.2352  0.2190  1.5149
 5129TIP3    H237023   6.253   4.233   0.771 -1.4330 -1.8596 -2.5406
 5130TIP3   OH237024   2.416   1.480   2.667  0.1045 -0.5044 -0.2759
 5130TIP3    H137025   2.328   1.450   2.691  0.1004 -1.8903 -1.8521
 5130TIP3    H237026   2.425   1.565   2.710 -1.8182 -0.5501  0.3087
 5131TIP3   OH237027   4.421   0.250   1.206  0.5009 -0.0227 -0.1896
 5131TIP3    H137028   4.338   0.296   1.199 -0.0507 -1.2215 -2.0741
 5131TIP3    H237029   4.433   0.237   1.300 -1.5588 -0.0252  0.1171
 5132TIP3   OH237030   6.010   6.958   2.110 -0.2068  0.5763 -0.3284
 5132TIP3    H137031   5.985   7.024   2.046  0.3812  0.7408 -0.3991
 5132TIP3    H237032   6.066   7.006   2.172  1.2394 -0.1032 -1.0545
 5133TIP3   OH237033   5.595   0.246   1.760 -0.4906 -0.5392  0.3763
 5133TIP3    H137034   5.626   0.324   1.715  3.6689 -2.0893  0.1664
 5133TIP3    H237035   5.546   0.198   1.693  1.7358 -0.6577 -1.2833
 5134TIP3   OH237036   4.876   2.234   0.951  0.1608 -0.1420 -0.3052
 5134TIP3    H137037   4.836   2.156   0.989 -0.6915  0.4082 -0.0434
 5134TIP3    H237038   4.868   2.301   1.019  0.0694  0.4125 -0.8521
 5135TIP3   OH237039   3.745   0.387   0.313  0.4848  0.4208 -0.0625
 5135TIP3    H137040   3.738   0.430   0.399 -1.1311 -2.3269  1.3073
 5135TIP3    H237041   3.835   0.353   0.311  1.7668  3.4967 -1.1341
 5136TIP3   OH237042   2.194   0.367   1.820 -0.0387  0.2822 -0.0300
 5136TIP3    H137043   2.180   0.272   1.820  0.5818  0.1810 -1.0172
 5136TIP3    H237044   2.272   0.379   1.874  0.7355  0.0781 -1.0728
 5137TIP3   OH237045   6.432   5.320   1.544 -0.1822 -0.1132 -0.3673
 5137TIP3    H137046   6.402   5.340   1.633 -1.5591 -2.2014 -0.2871
 5137TIP3    H237047   6.367   5.359   1.487  0.6920  1.2104 -0.4857
 5138TIP3   OH237048   3.078   6.052   3.082 -0.0072 -0.5184 -0.4841
 5138TIP3    H137049   3.127   6.018   3.007 -0.2539 -0.8815 -0.4817
 5138TIP3    H237050   2.990   6.068   3.048 -0.2535 -1.1400 -0.1619
 5139TIP3   OH237051   5.122   1.060   8.059 -0.2187 -0.0518  0.5602
 5139TIP3    H137052   5.187   1.126   8.081 -0.8785  0.1456  2.0382
 5139TIP3    H237053   5.047   1.079   8.117 -1.3373 -0.6620 -0.6267
 5140TIP3   OH237054   6.443   5.112   1.947 -0.0021 -0.0869  0.5116
 5140TIP3    H137055   6.420   5.199   1.980  0.6229 -0.0438  0.8337
 5140TIP3    H237056   6.538   5.106   1.957  0.0012 -0.6785  0.1758
 5141TIP3   OH237057   6.954   5.493   2.234 -0.1433  0.2090  1.7512
 5141TIP3    H137058   6.961   5.400   2.254  2.0785 -0.3414 -1.0131
 5141TIP3    H237059   6.894   5.497   2.159  1.3903  0.6942  0.4910
 5142TIP3   OH237060   0.469   5.334   7.940 -0.0521  0.5528 -0.3479
 5142TIP3    H137061   0.492   5.288   7.860 -1.0895 -0.8472  0.1099
 5142TIP3    H237062   0.389   5.382   7.918  0.3512  1.1680 -0.4858
 5143TIP3   OH237063   2.895   1.164   1.459 -0.2542  0.3417 -0.2482
 5143TIP3    H137064   2.904   1.223   1.384 -0.8142  0.2870 -0.3611
 5143TIP3    H237065   2.908   1.077   1.422 -2.1895  0.1647 -0.6226
 5144TIP3   OH237066   1.796   6.161   0.911  0.9594  0.0428  0.1119
 5144TIP3    H137067   1.761   6.083   0.868  1.0449 -1.6521  2.8851
 5144TIP3    H237068   1.885   6.170   0.876  0.7139 -0.6840 -0.7369
 5145TIP3   OH237069   0.975   3.638   3.218 -0.0192  0.3711 -0.2727
 5145TIP3    H137070   1.001   3.548   3.240 -0.5505  0.3567  0.3212
 5145TIP3    H237071   1.050   3.673   3.169  0.1449 -0.4324 -0.6238
 5146TIP3   OH237072   1.102   2.510   6.916 -0.2511  0.0977 -0.0622
 5146TIP3    H137073   1.151   2.551   6.845  0.8694 -1.0300  0.0225
 5146TIP3    H237074   1.154   2.433   6.940 -1.3636 -0.3667  0.9833
 5147TIP3   OH237075   6.173   2.495   1.084 -0.6663  0.4434 -0.3476
 5147TIP3    H137076   6.254   2.448   1.066 -0.6151  1.3099 -2.7465
 5147TIP3    H237077   6.202   2.576   1.128 -0.5490 -0.5218  1.4593
 5148TIP3   OH237078   5.243   2.024   2.441  0.2154  0.4460  0.0665
 5148TIP3    H137079   5.333   2.053   2.427  0.2850 -0.1997 -0.8901
 5148TIP3    H237080   5.192   2.070   2.375  0.3521 -1.6709 -1.6029
 5149TIP3   OH237081   0.028   6.112   0.602 -0.0170  0.2101  0.1890
 5149TIP3    H137082  -0.030   6.102   0.677  1.0490  2.0230  1.3276
 5149TIP3    H237083   0.023   6.205   0.579  1.2335  0.0992 -0.6483
 5150TIP3   OH237084   0.634   5.498   7.376 -0.0440 -0.1258  0.0229
 5150TIP3    H137085   0.563   5.450   7.333  0.5055 -0.3829 -0.6079
 5150TIP3    H237086   0.703   5.504   7.310  0.2151  0.8306  0.3582
 5151TIP3   OH237087   2.868   5.570   1.211  0.1267 -0.0908  0.1573
 5151TIP3    H137088   2.802   5.623   1.256  0.4547  0.0833  0.4277
 5151TIP3    H237089   2.948   5.582   1.261  0.1780 -0.9266  0.2863
 5152TIP3   OH237090   2.792   6.279   1.448 -0.2343 -0.8558  0.4452
 5152TIP3    H137091   2.710   6.314   1.415 -0.0940 -0.0659  0.9109
 5152TIP3    H237092   2.800   6.193   1.406 -1.3369 -0.9825  0.4644
 5153TIP3   OH237093   6.285   3.374   8.250  0.1229 -0.3109 -0.0218
 5153TIP3    H137094   6.348   3.441   8.222  0.5501 -1.0782 -0.9202
 5153TIP3    H237095   6.298   3.368   8.345  0.5492  0.4059 -0.0265
 5154TIP3   OH237096   1.134   1.645   0.767 -0.3592  0.2715  0.1010
 5154TIP3    H137097   1.217   1.684   0.794  0.1901  1.3638 -2.8020
 5154TIP3    H237098   1.071   1.717   0.773 -0.0638  0.7732 -2.0093
 5155TIP3   OH237099   4.093   6.947   3.989  0.0108  0.2884  0.5132
 5155TIP3    H137100   4.128   6.898   4.063 -1.6017 -2.1758 -0.2457
 5155TIP3    H237101   4.014   6.988   4.023  0.5831  1.2287  0.7566
 5156TIP3   OH237102   3.479   4.339   0.541 -0.0146 -0.2559 -0.4424
 5156TIP3    H137103   3.516   4.251   0.540  0.7605  0.0542 -1.7085
 5156TIP3    H237104   3.402   4.334   0.485  1.1265  0.2779 -2.1328
 5157TIP3   OH237105   3.358   6.077   8.071  0.2566 -0.3630  0.3094
 5157TIP3    H137106   3.440   6.040   8.039 -0.2899 -1.8427  0.5274
 5157TIP3    H237107   3.293   6.007   8.058 -0.8029  0.4740  0.8835
 5158TIP3   OH237108   2.105   0.763   1.010  0.1911 -0.1371  0.7173
 5158TIP3    H137109   2.061   0.840   0.975  1.6166 -0.4221 -2.0039
 5158TIP3    H237110   2.054   0.689   0.976  1.0848 -0.4103 -0.0838
 5159TIP3   OH237111   0.604   0.698   3.581 -0.6898  0.7458  0.0781
 5159TIP3    H137112   0.575   0.773   3.529 -3.8309 -0.3636  0.0135
 5159TIP3    H237113   0.543   0.695   3.655  0.9581 -0.3019  1.4648
 5160TIP3   OH237114   4.875   0.087   0.510 -0.0984  0.3252  0.0484
 5160TIP3    H137115   4.830   0.112   0.591  2.0375  1.4202  0.9695
 5160TIP3    H237116   4.840   0.001   0.489 -3.6094  1.6285 -0.0981
 5161TIP3   OH237117   5.629   0.003   1.382 -0.3307  0.1450 -0.3722
 5161TIP3    H137118   5.594   0.074   1.435 -0.3298 -0.6597  0.7557
 5161TIP3    H237119   5.553  -0.051   1.360 -0.0624 -0.6836  0.6454
 5162TIP3   OH237120   6.298   3.001   2.734  0.2667 -0.0681  0.1496
 5162TIP3    H137121   6.352   2.951   2.673  0.2443 -0.9808  0.8495
 5162TIP3    H237122   6.354   3.013   2.811 -1.1798 -3.0504  1.8522
 5163TIP3   OH237123   1.359   6.105   3.637 -0.0272 -0.0124 -0.0773
 5163TIP3    H137124   1.273   6.083   3.602  0.3386 -1.3190 -0.1915
 5163TIP3    H237125   1.413   6.028   3.620  0.9219  0.4279  0.8225
 5164TIP3   OH237126   0.506   1.276   7.987  0.1808 -0.2098 -0.6729
 5164TIP3    H137127   0.438   1.311   8.045  1.3543  2.2973 -0.6873
 5164TIP3    H237128   0.495   1.324   7.905  0.6746 -1.2961 -1.3974
 5165TIP3   OH237129   3.429   6.337   3.075 -0.2113  0.4491  0.7576
 5165TIP3    H137130   3.334   6.325   3.077 -0.2014  0.4663  1.4792
 5165TIP3    H237131   3.444   6.390   2.997 -0.7500  0.0777  0.3922
 5166TIP3   OH237132   0.941   1.656   1.657 -0.2700  0.0387 -0.0497
 5166TIP3    H137133   0.902   1.725   1.710 -0.2623 -0.1938  0.2614
 5166TIP3    H237134   1.035   1.665   1.671 -0.3173 -0.7901  0.9606
 5167TIP3   OH237135   0.262   6.339   2.114 -0.0560  0.4489  0.7050
 5167TIP3    H137136   0.318   6.312   2.187 -1.0289 -2.2307  0.5607
 5167TIP3    H237137   0.200   6.400   2.154  0.5997  0.4939  1.6982
 5168TIP3   OH237138   3.121   0.514   1.742  0.4636  0.0101 -0.1998
 5168TIP3    H137139   3.113   0.602   1.706  0.9347  0.0693 -0.1574
 5168TIP3    H237140   3.214   0.502   1.758  0.5157 -0.8186 -1.0155
 5169TIP3   OH237141   3.775   3.860   0.250 -0.3498 -0.1839 -0.3717
 5169TIP3    H137142   3.798   3.947   0.216 -2.0584  0.4885  0.1041
 5169TIP3    H237143   3.682   3.866   0.270 -0.5266 -2.1886 -0.4433
 5170TIP3   OH237144   2.059   5.976   1.138  0.8879 -0.4112  0.4078
 5170TIP3    H137145   1.969   5.974   1.104  0.4561  0.4819  1.4287
 5170TIP3    H237146   2.078   5.885   1.160  0.2138 -0.6029  0.2204
 5171TIP3   OH237147   4.452   6.540   8.237  0.2862 -0.4550 -0.0214
 5171TIP3    H137148   4.486   6.459   8.198 -0.1860 -1.5843  1.8309
 5171TIP3    H237149   4.365   6.552   8.198  0.5281 -0.5912 -0.6084
 5172TIP3   OH237150   6.439   2.788   7.819 -0.4037 -0.1270 -0.1249
 5172TIP3    H137151   6.462   2.697   7.837  1.0907  0.4622  1.2124
 5172TIP3    H237152   6.395   2.786   7.734  1.8660 -1.8049 -1.3806
 5173TIP3   OH237153   1.839   5.856   0.179 -0.2185  0.2844 -0.1594
 5173TIP3    H137154   1.824   5.948   0.200  0.5666  0.3152  0.3248
 5173TIP3    H237155   1.753   5.815   0.188 -0.6170  1.0014 -0.5907
 5174TIP3   OH237156   0.614   6.206   7.817 -0.1351 -0.3115 -0.0875
 5174TIP3    H137157   0.658   6.242   7.893  0.3395 -1.3284  0.1402
 5174TIP3    H237158   0.597   6.281   7.760 -0.7271  0.4893  1.1280
 5175TIP3   OH237159   6.129   0.173   2.154  0.0969  0.2694  0.0276
 5175TIP3    H137160   6.173   0.208   2.077 -0.1214  1.6120  0.4815
 5175TIP3    H237161   6.178   0.209   2.228 -0.2613 -0.2298  0.5168
 5176TIP3   OH237162   0.186   6.467   7.781 -0.7793  0.0885 -0.0722
 5176TIP3    H137163   0.262   6.505   7.737 -0.0480 -0.2923  0.8253
 5176TIP3    H237164   0.112   6.485   7.722  0.1399 -0.2936 -1.3717
 5177TIP3   OH237165   6.595   5.965   8.172  0.5323 -0.2775  0.0944
 5177TIP3    H137166   6.657   5.917   8.227  1.0567  1.0428  0.6918
 5177TIP3    H237167   6.613   5.934   8.083  1.7288 -0.2703  0.3202
 5178TIP3   OH237168   4.958   4.617   0.478 -0.7507  0.4587  0.7063
 5178TIP3    H137169   5.014   4.540   0.490 -1.7001 -0.1143  1.5355
 5178TIP3    H237170   5.018   4.691   0.488  0.2495 -0.1531 -0.4947
 5179TIP3   OH237171   0.657   2.999   3.588  0.1582 -0.2842 -0.3971
 5179TIP3    H137172   0.750   3.017   3.602  0.3378 -1.0513 -0.5165
 5179TIP3    H237173   0.642   2.917   3.635 -0.3131 -0.4869 -0.8885
 5180TIP3   OH237174   4.811   4.691   2.565  0.3861 -0.7009  0.0280
 5180TIP3    H137175   4.763   4.752   2.508  0.5124 -0.2653  0.3768
 5180TIP3    H237176   4.848   4.626   2.505  0.1179 -0.5190 -0.3368
 5181TIP3   OH237177   6.094   3.569   7.353  0.7395  0.2359 -0.1458
 5181TIP3    H137178   6.023   3.510   7.375 -0.9818  2.2448 -0.0104
 5181TIP3    H237179   6.169   3.512   7.337 -0.4810 -1.8697  1.2099
 5182TIP3   OH237180   3.710   6.163   3.577  0.1183  0.0367 -0.0236
 5182TIP3    H137181   3.789   6.197   3.620 -0.1445 -0.9728  1.3172
 5182TIP3    H237182   3.638   6.201   3.627 -0.3058  1.3731 -1.5597
 5183TIP3   OH237183   4.521   2.242   1.335 -0.4315 -0.1515  0.5131
 5183TIP3    H137184   4.579   2.218   1.407  0.0333 -0.7201 -0.0391
 5183TIP3    H237185   4.573   2.302   1.281 -0.2788 -0.7867 -0.0690
 5184TIP3   OH237186   4.403   2.758   0.585  0.4816 -0.4448 -0.1548
 5184TIP3    H137187   4.422   2.757   0.491 -1.0788 -2.0364 -0.5024
 5184TIP3    H237188   4.310   2.779   0.590  1.2555  3.4224  1.2951
 5185TIP3   OH237189   2.273   5.487   8.231 -0.0042  0.2717 -0.5613
 5185TIP3    H137190   2.260   5.433   8.153  1.8464 -0.3649 -0.4633
 5185TIP3    H237191   2.194   5.541   8.235  0.3543  1.2115 -3.5740
 5186TIP3   OH237192   1.486   4.411   0.621 -0.2858 -0.1896 -0.2033
 5186TIP3    H137193   1.579   4.431   0.632 -0.5011  1.6080 -1.1844
 5186TIP3    H237194   1.470   4.336   0.679  1.6429 -0.2173  0.3635
 5187TIP3   OH237195   5.920   5.233   0.644 -0.4585 -0.4177 -0.4298
 5187TIP3    H137196   5.967   5.153   0.666  1.2736  0.8157  0.5799
 5187TIP3    H237197   5.869   5.253   0.722 -0.2928 -0.1404 -0.3896
 5188TIP3   OH237198   4.236   2.975   0.323 -0.2176  0.5825  0.3433
 5188TIP3    H137199   4.268   2.902   0.271  0.5254  2.3055 -1.7440
 5188TIP3    H237200   4.146   2.989   0.293 -0.3454  0.5526  0.7074
 5189TIP3   OH237201   0.159   2.896   1.113 -0.0724 -0.1524  0.1729
 5189TIP3    H137202   0.126   2.825   1.168  1.5292 -0.3803  0.8931
 5189TIP3    H237203   0.253   2.878   1.104  0.4095  1.9310  0.5035
 5190TIP3   OH237204   4.331   6.641   2.503  0.0144 -0.5094  0.5201
 5190TIP3    H137205   4.354   6.550   2.483 -0.8796 -0.7640  0.6180
 5190TIP3    H237206   4.405   6.692   2.470 -0.7493 -1.0091 -2.2631
 5191TIP3   OH237207   6.676   5.747   3.369 -0.4337  0.3625 -0.1412
 5191TIP3    H137208   6.651   5.839   3.369 -1.2992  0.1361 -0.0617
 5191TIP3    H237209   6.660   5.718   3.459 -0.1297  0.1470 -0.1575
 5192TIP3   OH237210   2.859   5.582   7.807 -0.1655 -0.1999 -0.0930
 5192TIP3    H137211   2.826   5.525   7.737 -0.5001  0.1425 -0.2176
 5192TIP3    H237212   2.954   5.578   7.799 -0.1657 -1.1513  0.2222
 5193TIP3   OH237213   4.910   6.031   2.882  0.1592 -0.3990  0.2411
 5193TIP3    H137214   4.895   6.037   2.976  2.5231  0.1955  0.6600
 5193TIP3    H237215   4.895   6.120   2.850 -1.2619 -0.7351 -0.0910
 5194TIP3   OH237216   2.467   4.030   7.879 -0.3910 -0.1661  0.0596
 5194TIP3    H137217   2.460   4.091   7.805 -1.2301 -0.0462  0.2182
 5194TIP3    H237218   2.382   3.986   7.880  0.1622 -1.2680  0.0225
 5195TIP3   OH237219   2.955   4.496   8.113  0.0322 -0.2152 -0.3451
 5195TIP3    H137220   2.861   4.487   8.130  0.0112  0.8886  0.2296
 5195TIP3    H237221   2.960   4.523   8.021 -0.2516  0.3209 -0.2056
 5196TIP3   OH237222   6.659   2.252   3.944  0.3727  0.1665  0.1104
 5196TIP3    H137223   6.633   2.344   3.933 -0.8306 -0.1463  0.2248
 5196TIP3    H237224   6.578   2.206   3.960  0.9014 -1.0159 -0.4669
 5197TIP3   OH237225   6.811   0.081   8.226 -0.1431  0.5615 -0.7416
 5197TIP3    H137226   6.821   0.164   8.272  0.7381  0.7711 -1.2945
 5197TIP3    H237227   6.870   0.021   8.272 -1.4357 -0.0329  0.2295
 5198TIP3   OH237228   5.285   5.551   1.019 -0.5135  0.3244 -0.2499
 5198TIP3    H137229   5.317   5.606   1.090  0.4166  0.3059 -0.6489
 5198TIP3    H237230   5.333   5.469   1.028  0.8122  0.8741 -1.8303
 5199TIP3   OH237231   6.740   1.845   0.364 -0.6064 -0.6554 -0.2882
 5199TIP3    H137232   6.674   1.807   0.422 -0.7507 -0.5317 -0.3712
 5199TIP3    H237233   6.769   1.772   0.310 -0.2505 -0.8409  0.1457
 5200TIP3   OH237234   1.434   1.953   0.522  0.3276  0.1463 -0.0347
 5200TIP3    H137235   1.505   1.963   0.586  0.7615  3.1919 -0.8331
 5200TIP3    H237236   1.455   1.871   0.476  1.6630 -0.5546  1.7046
 5201TIP3   OH237237   4.281   3.366   1.668 -0.6277 -0.1079 -0.2255
 5201TIP3    H137238   4.353   3.402   1.721  0.5230 -1.4062 -0.8417
 5201TIP3    H237239   4.283   3.417   1.587 -0.2716 -0.2497 -0.3089
 5202TIP3   OH237240   5.960   3.697   2.253 -0.5313 -0.4308 -0.2276
 5202TIP3    H137241   5.919   3.690   2.339 -2.0320 -1.8918 -1.0083
 5202TIP3    H237242   5.913   3.768   2.210  0.3911  0.4716  0.2218
 5203TIP3   OH237243   5.574   0.428   1.197 -0.5938  0.4746 -0.0314
 5203TIP3    H137244   5.490   0.461   1.230 -1.1242 -0.0031 -0.8626
 5203TIP3    H237245   5.620   0.396   1.275 -1.1279  0.8648  0.4497
 5204TIP3   OH237246   2.690   1.334   1.902 -0.2128  0.2808  0.6018
 5204TIP3    H137247   2.605   1.289   1.904 -0.5734  0.9356  0.3316
 5204TIP3    H237248   2.738   1.290   1.832 -0.4368  0.0970  0.5609
 5205TIP3   OH237249   1.239   6.499   2.071  0.3807  0.0079 -0.0408
 5205TIP3    H137250   1.330   6.501   2.099  0.2716 -0.5250  0.3533
 5205TIP3    H237251   1.239   6.444   1.992  0.2498 -0.7982  0.5167
 5206TIP3   OH237252   4.777   6.188   1.187 -0.2791  0.5651  0.2216
 5206TIP3    H137253   4.813   6.099   1.189 -2.5220 -0.5312 -1.9401
 5206TIP3    H237254   4.730   6.196   1.270  0.9887  0.2527  0.9940
 5207TIP3   OH237255   1.746   3.828   7.204 -0.4163 -0.0843  0.3779
 5207TIP3    H137256   1.837   3.832   7.174  0.4472 -0.1464  2.7289
 5207TIP3    H237257   1.694   3.821   7.124  1.7172 -1.3285 -1.0047
 5208TIP3   OH237258   1.678   1.038   7.114  0.1301 -0.4408  0.0931
 5208TIP3    H137259   1.694   0.948   7.142 -0.6914 -0.3236  1.0083
 5208TIP3    H237260   1.762   1.069   7.082  1.0759 -0.7147  2.1333
 5209TIP3   OH237261   3.439   5.338   7.643 -0.8217 -0.2745 -0.1056
 5209TIP3    H137262   3.432   5.259   7.697 -1.1872  1.0043  1.8395
 5209TIP3    H237263   3.442   5.306   7.553  1.4763 -2.6436  0.6909
 5210TIP3   OH237264   4.122   1.420   2.508 -0.1110  0.1470  0.0081
 5210TIP3    H137265   4.200   1.471   2.489  0.4679 -0.2862  1.1675
 5210TIP3    H237266   4.094   1.449   2.595 -0.5162 -0.5837  0.1321
 5211TIP3   OH237267   2.348   1.840   2.068  0.3428  0.1281  0.1867
 5211TIP3    H137268   2.425   1.893   2.051  0.5012  0.6846  2.3722
 5211TIP3    H237269   2.329   1.797   1.985  1.3318  2.1382 -1.1380
 5212TIP3   OH237270   5.318   6.467   1.872 -0.2525  0.1402 -0.3460
 5212TIP3    H137271   5.398   6.441   1.917 -0.8927 -0.3288  0.5578
 5212TIP3    H237272   5.263   6.505   1.941 -0.8617  0.3307 -0.9240
 5213TIP3   OH237273   4.547   0.737   8.216  0.6517  0.1137  0.2900
 5213TIP3    H137274   4.514   0.819   8.180 -3.4767 -0.9758  1.0253
 5213TIP3    H237275   4.557   0.680   8.140 -3.7186 -0.7914  0.1069
 5214TIP3   OH237276   2.205   0.828   1.570 -0.3731 -0.4791  0.0186
 5214TIP3    H137277   2.170   0.870   1.648 -0.7395 -1.8796  0.6320
 5214TIP3    H237278   2.154   0.866   1.498 -0.2587  0.5744  0.4830
 5215TIP3   OH237279   2.964   0.387   2.117  0.1551  0.2628 -0.4388
 5215TIP3    H137280   3.054   0.416   2.130  1.5616 -2.8014 -2.2043
 5215TIP3    H237281   2.943   0.414   2.028  0.3883 -1.3242 -1.0072
 5216TIP3   OH237282   5.405   6.443   3.041 -1.2902 -0.5680  0.3586
 5216TIP3    H137283   5.481   6.385   3.046  1.0004  2.1504 -0.0788
 5216TIP3    H237284   5.394   6.476   3.131  0.2157  1.4359 -0.1043
 5217TIP3   OH237285   3.824   3.512   7.255  0.9532  0.3010 -0.3332
 5217TIP3    H137286   3.739   3.476   7.230  0.9586 -0.2177  0.3658
 5217TIP3    H237287   3.866   3.442   7.305  1.0897  1.1717  0.8159
 5218TIP3   OH237288   2.584   6.030   2.877 -0.3360  0.1045 -0.0622
 5218TIP3    H137289   2.542   6.116   2.884 -0.0045  0.5158 -2.2899
 5218TIP3    H237290   2.516   5.973   2.839  0.5386  0.3952 -2.2317
 5219TIP3   OH237291   2.792   3.547   2.743  0.2297  0.4150 -0.1861
 5219TIP3    H137292   2.706   3.542   2.783 -0.2422  0.6936 -1.1249
 5219TIP3    H237293   2.847   3.591   2.807 -0.2636  0.0239  0.5152
 5220TIP3   OH237294   5.964   0.861   2.889  0.4286 -0.0620 -0.2166
 5220TIP3    H137295   5.979   0.900   2.975 -1.3540  2.0044 -0.7555
 5220TIP3    H237296   5.873   0.883   2.868  0.3665 -1.7645 -2.0209
 5221TIP3   OH237297   5.028   4.271   0.211  0.1340  0.0157 -0.1710
 5221TIP3    H137298   5.071   4.203   0.159  0.8369  0.2089  0.1547
 5221TIP3    H237299   5.075   4.351   0.189 -0.5835  0.3795 -0.4260
 5222TIP3   OH237300   0.807   3.771   1.235 -0.0384 -0.0703  0.1204
 5222TIP3    H137301   0.892   3.813   1.247  0.7098 -1.2649 -0.7466
 5222TIP3    H237302   0.754   3.837   1.190  0.4689  0.6292  0.5248
 5223TIP3   OH237303   3.170   1.172   2.913 -0.0313 -0.2114 -0.1683
 5223TIP3    H137304   3.102   1.239   2.926  0.0188 -0.3385  0.7877
 5223TIP3    H237305   3.241   1.219   2.870  0.2337  0.5109  1.0102
 5224TIP3   OH237306   1.184   3.483   1.016 -0.3668  0.2478 -0.2870
 5224TIP3    H137307   1.245   3.438   1.076 -0.6480 -0.4579 -0.5201
 5224TIP3    H237308   1.241   3.524   0.951 -0.0243  1.4548  0.7300
 5225TIP3   OH237309   6.813   5.928   0.072 -0.1061  0.1899 -0.4630
 5225TIP3    H137310   6.743   5.931   0.137 -0.9963 -1.2020 -1.3095
 5225TIP3    H237311   6.869   6.002   0.095 -1.2549  0.7014  0.8990
 5226TIP3   OH237312   6.694   2.700   2.783 -0.4929 -0.5417  0.0819
 5226TIP3    H137313   6.675   2.613   2.746  0.6735 -0.0051 -1.9710
 5226TIP3    H237314   6.668   2.761   2.714 -1.7874  0.8234  1.6963
 5227TIP3   OH237315   3.149   3.074   3.455  0.2888 -0.1872  0.3657
 5227TIP3    H137316   3.169   3.163   3.425 -0.7871  0.0500  0.3156
 5227TIP3    H237317   3.054   3.065   3.442  0.3667 -1.3034  0.4736
 5228TIP3   OH237318   1.956   4.386   2.538 -0.1483  0.7285 -0.3174
 5228TIP3    H137319   1.954   4.444   2.462  0.7720 -1.6873 -2.3531
 5228TIP3    H237320   2.045   4.395   2.573  0.0761  0.4251 -0.7881
 5229TIP3   OH237321   0.915   2.500   0.853  0.3304  0.5668 -0.1038
 5229TIP3    H137322   0.842   2.547   0.814  0.1959  2.1305  1.8539
 5229TIP3    H237323   0.875   2.436   0.912  0.3756  2.6375  2.3743
 5230TIP3   OH237324   5.218   0.651   2.752 -0.7917 -0.0762  0.5487
 5230TIP3    H137325   5.303   0.612   2.733 -1.0621 -0.3657 -0.0970
 5230TIP3    H237326   5.168   0.581   2.794 -0.3642  0.4132  1.9141
 5231TIP3   OH237327   0.165   6.238   0.251  0.6593  0.0538  0.7272
 5231TIP3    H137328   0.156   6.283   0.335  1.3967  0.5263  0.5579
 5231TIP3    H237329   0.259   6.225   0.241  0.5209 -0.7179  0.3439
 5232TIP3   OH237330   3.648   4.183   1.792 -0.1557 -0.1115  0.7134
 5232TIP3    H137331   3.645   4.237   1.713  1.4069  0.3343  0.9114
 5232TIP3    H237332   3.589   4.226   1.853  0.1247  0.6730  0.4445
 5233TIP3   OH237333   2.873   5.956   1.769 -0.0789  0.5742  0.3810
 5233TIP3    H137334   2.824   5.886   1.727 -0.6302  0.8318  0.5822
 5233TIP3    H237335   2.895   5.922   1.856 -0.1803  0.5761  0.4077
 5234TIP3   OH237336   3.766   6.251   2.986 -0.0779  0.0151  0.3611
 5234TIP3    H137337   3.774   6.184   3.053  0.3396  1.6993  2.0701
 5234TIP3    H237338   3.855   6.261   2.950 -0.2685 -0.7685 -0.3484
 5235TIP3   OH237339   3.443   1.004   0.358 -0.3497  0.3268 -0.4030
 5235TIP3    H137340   3.511   0.984   0.295  0.4007 -1.5024  0.9097
 5235TIP3    H237341   3.490   1.038   0.435 -1.0197  0.1467  0.0997
 5236TIP3   OH237342   1.018   5.708   2.739  0.4432  0.1353  0.2035
 5236TIP3    H137343   0.947   5.664   2.693  0.8705  0.5387 -0.8897
 5236TIP3    H237344   1.072   5.637   2.773 -1.3309 -0.2151  2.5253
 5237TIP3   OH237345   3.352   0.869   2.088  0.4298 -0.3482  0.0421
 5237TIP3    H137346   3.319   0.840   2.173  1.3483 -1.6564 -0.0121
 5237TIP3    H237347   3.278   0.913   2.047 -1.0241 -2.4359  0.2667
 5238TIP3   OH237348   6.320   2.128   8.164  0.0322 -0.1594 -0.9762
 5238TIP3    H137349   6.276   2.050   8.197 -1.3890 -0.1470 -2.7032
 5238TIP3    H237350   6.359   2.101   8.081 -0.6978  0.9896 -1.7322
 5239TIP3   OH237351   3.143   4.926   2.613  0.1909 -0.4065  0.6006
 5239TIP3    H137352   3.198   5.004   2.610  0.9183 -0.9035  0.7268
 5239TIP3    H237353   3.063   4.954   2.657  0.5217  0.2224  0.8091
 5240TIP3   OH237354   4.647   0.933   1.423 -0.3193  0.7084  0.5461
 5240TIP3    H137355   4.643   0.986   1.502 -2.1893 -0.6809  1.4541
 5240TIP3    H237356   4.715   0.868   1.441 -1.8927 -0.6653  1.7682
 5241TIP3   OH237357   1.820   6.495   2.091 -0.3988 -0.0293 -0.0422
 5241TIP3    H137358   1.802   6.401   2.085  0.5292 -0.2697  0.6815
 5241TIP3    H237359   1.867   6.515   2.010  1.1488 -0.6258  0.6762
 5242TIP3   OH237360   3.166   1.925   7.848 -0.5809 -0.0131 -0.4618
 5242TIP3    H137361   3.199   1.862   7.783  0.1948 -0.7778  0.6392
 5242TIP3    H237362   3.205   2.008   7.823  0.3578 -0.4575 -0.5215
 5243TIP3   OH237363   4.831   6.933   0.361  0.0519  0.9151 -0.6441
 5243TIP3    H137364   4.912   6.898   0.324 -0.7391  0.8812 -2.4283
 5243TIP3    H237365   4.774   6.857   0.371  0.7320  0.6694  2.1483
 5244TIP3   OH237366   4.511   1.492   7.993 -0.4412 -0.1445 -0.3073
 5244TIP3    H137367   4.510   1.452   8.080  0.0779  1.0663  0.2749
 5244TIP3    H237368   4.553   1.577   8.006 -0.1514 -0.0337 -1.7873
 5245TIP3   OH237369   1.473   3.754   8.091  0.7805  0.4930 -0.2445
 5245TIP3    H137370   1.425   3.826   8.052  1.1860  0.5954 -0.5616
 5245TIP3    H237371   1.414   3.679   8.084  0.0335  0.9616  0.8129
 5246TIP3   OH237372   6.307   0.117   4.166  0.4912 -0.0859  0.3149
 5246TIP3    H137373   6.251   0.108   4.089 -0.2206 -0.9883  0.9148
 5246TIP3    H237374   6.256   0.078   4.237  2.0855 -1.3910  0.7933
 5247TIP3   OH237375   3.291   0.222   7.739  0.4097  0.1987  0.1391
 5247TIP3    H137376   3.239   0.296   7.770 -0.3607 -0.1491 -0.2988
 5247TIP3    H237377   3.294   0.234   7.644  0.7574 -0.0350  0.1179
 5248TIP3   OH237378   3.379   4.030   1.529  0.7076 -0.0813  0.4772
 5248TIP3    H137379   3.473   4.045   1.541  1.3509 -1.7553 -1.8481
 5248TIP3    H237380   3.374   3.953   1.473 -2.1125 -0.9537  1.7436
 5249TIP3   OH237381   3.582   0.634   7.661  0.2458  0.1652  0.0838
 5249TIP3    H137382   3.532   0.706   7.622 -1.6294 -1.5842 -1.0048
 5249TIP3    H237383   3.520   0.593   7.722  2.2785  1.2472  3.0778
 5250TIP3   OH237384   6.881   3.643   7.988 -0.1131 -0.1965  0.8389
 5250TIP3    H137385   6.880   3.738   7.999  1.1980  0.9275 -5.2121
 5250TIP3    H237386   6.798   3.624   7.943  1.5964 -0.8371 -2.3568
 5251TIP3   OH237387   1.914   4.865   0.979 -0.1017  0.0853  0.2091
 5251TIP3    H137388   1.991   4.835   1.026 -1.0681  0.2237  1.9871
 5251TIP3    H237389   1.855   4.790   0.979 -0.1982  0.1523 -0.6426
 5252TIP3   OH237390   6.538   6.422   2.179 -0.0444 -0.6040 -0.0510
 5252TIP3    H137391   6.570   6.399   2.266  0.4714 -0.1251 -0.1095
 5252TIP3    H237392   6.442   6.416   2.187  0.0450 -2.1811  0.0790
 5253TIP3   OH237393   1.796   4.437   8.146  0.3228  0.0003 -0.2178
 5253TIP3    H137394   1.739   4.443   8.068  0.8888 -0.4979 -0.6750
 5253TIP3    H237395   1.847   4.518   8.144 -0.2877  0.4074  0.1431
 5254TIP3   OH237396   0.244   2.681   8.190 -0.1146 -0.1442 -0.6444
 5254TIP3    H137397   0.223   2.655   8.280 -0.9154  0.3869 -0.6734
 5254TIP3    H237398   0.296   2.609   8.156  0.4473 -0.2251  0.3396
 5255TIP3   OH237399   0.223   3.844   1.833 -0.2175 -0.2575 -0.0719
 5255TIP3    H137400   0.247   3.867   1.743  1.7138  0.3740  0.5453
 5255TIP3    H237401   0.304   3.857   1.883 -0.7465 -2.3602  1.4475
 5256TIP3   OH237402   6.904   2.058   1.985 -0.4198  0.7920 -0.2491
 5256TIP3    H137403   6.950   2.141   1.978 -0.5990  0.9293  0.2053
 5256TIP3    H237404   6.846   2.068   2.060 -0.8685  0.4628 -0.5477
 5257TIP3   OH237405   1.299   1.285   0.215  0.0925 -0.3455 -0.2751
 5257TIP3    H137406   1.256   1.248   0.292  1.0504 -1.7096 -0.3587
 5257TIP3    H237407   1.237   1.269   0.144 -1.1082  1.5329  0.2519
 5258TIP3   OH237408   2.971   5.485   2.849  0.4891  0.1765 -0.2682
 5258TIP3    H137409   2.914   5.512   2.921  0.1713 -1.3533  0.0911
 5258TIP3    H237410   2.997   5.395   2.871  0.3958 -0.3330 -2.0495
 5259TIP3   OH237411   3.206   0.646   0.616  0.4036  0.2231 -0.2672
 5259TIP3    H137412   3.225   0.700   0.539 -0.6659  1.9320  0.5981
 5259TIP3    H237413   3.141   0.583   0.586  0.8801  0.0868 -1.0461
 5260TIP3   OH237414   1.100   5.971   2.953  0.1610 -0.1009 -0.1544
 5260TIP3    H137415   1.182   6.006   2.919  1.0378 -0.6591  1.2834
 5260TIP3    H237416   1.063   6.043   3.005  0.2739 -0.2006  0.0635
 5261TIP3   OH237417   6.365   5.512   3.514 -0.3511 -0.7114  0.2386
 5261TIP3    H137418   6.360   5.440   3.576  1.0380 -2.2910 -1.3801
 5261TIP3    H237419   6.317   5.482   3.437  0.1902  0.1217 -0.4486
 5262TIP3   OH237420   6.626   0.019   0.170 -0.3386  0.2726  0.4957
 5262TIP3    H137421   6.651  -0.043   0.239  0.9119 -0.0268 -0.1957
 5262TIP3    H237422   6.707   0.032   0.119 -1.4011 -0.1404 -1.3937
 5263TIP3   OH237423   1.413   2.830   2.025 -0.1423 -0.0986  0.3230
 5263TIP3    H137424   1.404   2.926   2.028  0.3754 -0.0679  1.5474
 5263TIP3    H237425   1.323   2.798   2.032 -0.4672  0.2888 -1.5917
 5264TIP3   OH237426   6.037   5.086   7.801 -0.3836 -0.3191  0.1403
 5264TIP3    H137427   6.076   5.165   7.763  0.5613 -0.8693 -0.0490
 5264TIP3    H237428   6.108   5.023   7.804 -1.0490 -1.0612  0.6149
 5265TIP3   OH237429   5.588   0.010   0.662 -0.0608 -0.3189  0.4662
 5265TIP3    H137430   5.678  -0.021   0.676  0.8433 -0.5370 -4.2386
 5265TIP3    H237431   5.598   0.102   0.639 -1.4708  0.4089  2.4578
 5266TIP3   OH237432   6.432   5.197   0.155  0.1791 -0.0594  0.0028
 5266TIP3    H137433   6.339   5.205   0.176  0.3906 -1.0098  1.5268
 5266TIP3    H237434   6.437   5.123   0.094  0.0854 -1.5871  1.7373
 5267TIP3   OH237435   6.747   6.853   1.210  0.0675 -0.0644  0.6803
 5267TIP3    H137436   6.805   6.928   1.198 -0.1887 -0.1264 -1.1614
 5267TIP3    H237437   6.789   6.801   1.278  2.2921 -0.1876 -0.6973
 5268TIP3   OH237438   4.063   0.240   3.519 -0.1602 -0.0041  0.0966
 5268TIP3    H137439   4.146   0.279   3.547 -1.5136  2.2546  1.2830
 5268TIP3    H237440   4.026   0.203   3.599 -1.1871  0.8364  0.0323
 5269TIP3   OH237441   6.897   5.707   2.918 -0.3303  0.0591  0.2352
 5269TIP3    H137442   6.819   5.660   2.889 -0.2831  0.1026  0.0385
 5269TIP3    H237443   6.879   5.730   3.009 -1.0594  1.1457 -0.1724
 5270TIP3   OH237444   5.271   6.733   1.777 -0.5738 -0.0851  0.3424
 5270TIP3    H137445   5.355   6.693   1.797 -0.1275  0.2898 -0.7712
 5270TIP3    H237446   5.246   6.698   1.692 -1.3698  0.1068  0.4805
 5271TIP3   OH237447   6.734   1.743   1.647 -0.0735  0.1163  0.0485
 5271TIP3    H137448   6.793   1.806   1.689  0.4043  0.0339 -0.4837
 5271TIP3    H237449   6.702   1.789   1.570  0.2715 -0.2863 -0.3397
 5272TIP3   OH237450   1.169   4.573   8.264 -0.0414  0.1523  0.0584
 5272TIP3    H137451   1.090   4.527   8.291  0.6392 -0.1619  1.6174
 5272TIP3    H237452   1.190   4.630   8.338  0.7943  0.7693 -0.6302
 5273TIP3   OH237453   6.025   1.422   1.041  0.3282 -0.2250  0.4230
 5273TIP3    H137454   6.049   1.408   1.132  2.1951  1.5295  0.2762
 5273TIP3    H237455   5.961   1.494   1.044 -1.4273 -1.7104  0.4536
 5274TIP3   OH237456   1.344   2.864   3.305  0.3335 -0.0985  0.0901
 5274TIP3    H137457   1.415   2.928   3.308  0.3335  0.0082 -1.4555
 5274TIP3    H237458   1.385   2.783   3.274 -0.1687 -0.0858 -0.6415
 5275TIP3   OH237459   3.231   5.588   2.869 -0.2770  0.1633 -0.1691
 5275TIP3    H137460   3.297   5.549   2.812 -1.0772 -2.4900  0.5474
 5275TIP3    H237461   3.153   5.534   2.855 -0.7482 -0.0710  2.7215
 5276TIP3   OH237462   2.480   2.258   8.078 -0.0127 -0.3205  0.0633
 5276TIP3    H137463   2.482   2.353   8.088  0.8479 -0.3905  0.7452
 5276TIP3    H237464   2.569   2.230   8.102 -0.3427 -1.3184  0.1681
 5277TIP3   OH237465   4.378   3.977   8.166  0.2381  0.0104  0.0001
 5277TIP3    H137466   4.459   4.025   8.152  0.5335 -0.8313 -1.3877
 5277TIP3    H237467   4.319   4.041   8.205  1.5679  0.6242  1.0947
 5278TIP3   OH237468   1.955   6.388   2.927 -0.2085  0.5173  0.1499
 5278TIP3    H137469   1.936   6.295   2.913  1.0227  0.1527  0.7049
 5278TIP3    H237470   1.891   6.416   2.992  0.2735 -0.3140  1.0090
 5279TIP3   OH237471   4.008   1.612   2.297  0.1095 -0.3122 -0.5481
 5279TIP3    H137472   3.982   1.618   2.205  0.3339  0.6865 -0.5524
 5279TIP3    H237473   4.073   1.542   2.299  1.3402  0.7531 -1.4585
 5280TIP3   OH237474   2.431   6.292   8.183  0.2285 -0.4305 -0.4243
 5280TIP3    H137475   2.437   6.200   8.157  2.3931 -0.8172  1.1079
 5280TIP3    H237476   2.390   6.289   8.270  1.5586 -0.1310  0.2388
 5281TIP3   OH237477   6.492   5.894   1.482  0.2767 -0.0805 -0.1949
 5281TIP3    H137478   6.474   5.809   1.522 -2.0601  0.2199 -0.5134
 5281TIP3    H237479   6.496   5.876   1.388  1.7982 -0.1238 -0.1518
 5282TIP3   OH237480   4.778   1.165   0.432  0.4736 -0.1448 -0.0413
 5282TIP3    H137481   4.751   1.140   0.343  0.1410  0.7470 -0.1985
 5282TIP3    H237482   4.696   1.185   0.477  0.6079 -0.9678  0.6002
 5283TIP3   OH237483   2.519   4.882   2.150 -0.1339  0.2141 -0.3851
 5283TIP3    H137484   2.475   4.928   2.222  0.0768  0.4525 -0.4083
 5283TIP3    H237485   2.549   4.800   2.189  1.1118  0.8930  0.1473
 5284TIP3   OH237486   4.727   5.263   2.386  0.4015  0.4749 -0.2096
 5284TIP3    H137487   4.796   5.257   2.452  0.8982 -0.9142 -0.8077
 5284TIP3    H237488   4.650   5.293   2.434  0.6145 -1.0128  1.1448
 5285TIP3   OH237489   4.617   4.505   2.662 -0.3570 -0.0355  0.3945
 5285TIP3    H137490   4.664   4.572   2.613 -1.0316  0.5099  0.4761
 5285TIP3    H237491   4.682   4.438   2.680  0.0987  0.1553 -0.5146
 5286TIP3   OH237492   1.611   0.929   0.671 -0.1667 -0.1584  0.1283
 5286TIP3    H137493   1.683   0.889   0.623  0.5928  0.0642  1.0378
 5286TIP3    H237494   1.652   0.964   0.750 -1.6291 -2.2184  1.9319
 5287TIP3   OH237495   3.491   6.201   2.244  0.4346 -0.3707  0.0603
 5287TIP3    H137496   3.466   6.113   2.273  2.6108 -1.2289 -0.4722
 5287TIP3    H237497   3.576   6.216   2.286 -0.4421  2.0291  1.1396
 5288TIP3   OH237498   5.533   5.810   0.828  0.8089  0.5551 -0.1897
 5288TIP3    H137499   5.515   5.760   0.907  4.7708 -3.0589 -1.2483
 5288TIP3    H237500   5.469   5.779   0.764  1.2510 -0.8663  0.0431
 5289TIP3   OH237501   0.773   6.509   0.599 -0.5648 -0.0527 -0.3508
 5289TIP3    H137502   0.845   6.449   0.621 -0.1055  0.2794 -0.9051
 5289TIP3    H237503   0.700   6.481   0.654 -0.6494 -1.7033 -1.2446
 5290TIP3   OH237504   4.841   1.527   2.380 -0.6772  0.1647 -0.9066
 5290TIP3    H137505   4.910   1.487   2.326 -0.0313  0.7066 -0.4991
 5290TIP3    H237506   4.882   1.604   2.418 -0.6522 -0.8991  1.4377
 5291TIP3   OH237507   2.333   2.724   0.970 -0.0673  0.1645  0.1150
 5291TIP3    H137508   2.357   2.787   0.901 -1.3892  0.6520  0.0597
 5291TIP3    H237509   2.326   2.777   1.049  1.8786 -0.4715  0.7454
 5292TIP3   OH237510   2.829   6.952   7.052 -0.0080  0.4714  0.4483
 5292TIP3    H137511   2.915   6.927   7.018 -0.5080  0.2675 -0.7046
 5292TIP3    H237512   2.789   7.003   6.982 -1.2282 -0.3034  0.5520
 5293TIP3   OH237513   4.825   4.307   2.617  0.1331  0.5487 -0.2059
 5293TIP3    H137514   4.914   4.340   2.604  0.4281 -0.8745 -2.0883
 5293TIP3    H237515   4.832   4.249   2.693  0.9028  0.1377 -0.5835
 5294TIP3   OH237516   0.764   1.893   0.327  0.1229 -0.3271  0.2102
 5294TIP3    H137517   0.687   1.837   0.316 -0.5203  0.2882  1.4556
 5294TIP3    H237518   0.780   1.895   0.421  0.0597  1.6730  0.2078
 5295TIP3   OH237519   0.688   6.827   7.343  0.8062 -0.0144  0.4109
 5295TIP3    H137520   0.692   6.885   7.419  0.5968  0.6404 -0.0656
 5295TIP3    H237521   0.778   6.823   7.312  0.8724 -0.1870  0.6298
 5296TIP3   OH237522   2.834   3.561   0.235 -0.4726  0.0857  0.0012
 5296TIP3    H137523   2.755   3.511   0.256 -0.8134  0.5986 -0.0457
 5296TIP3    H237524   2.839   3.628   0.303  0.3763 -0.4443  0.4778
 5297TIP3   OH237525   4.580   3.756   1.810 -0.2899 -0.0220  0.0046
 5297TIP3    H137526   4.491   3.744   1.843 -0.6766  0.1712 -0.9294
 5297TIP3    H237527   4.613   3.832   1.857 -0.2902 -0.6210  1.0003
 5298TIP3   OH237528   6.079   4.748   1.235 -0.5893 -0.2019  0.3854
 5298TIP3    H137529   6.013   4.688   1.200 -1.5563  0.4014  1.1045
 5298TIP3    H237530   6.047   4.769   1.323  0.2411  0.5977  0.5069
 5299TIP3   OH237531   2.931   6.753   3.714 -0.1541 -0.2556 -0.1086
 5299TIP3    H137532   2.936   6.831   3.770 -0.0955  0.0308 -0.5093
 5299TIP3    H237533   2.896   6.785   3.631 -1.7352 -0.9589  0.2665
 5300TIP3   OH237534   4.394   4.588   8.065 -0.3965 -0.8398 -0.3905
 5300TIP3    H137535   4.397   4.652   7.994 -0.1518 -0.8710 -0.4103
 5300TIP3    H237536   4.463   4.526   8.044  0.4226 -0.2418  0.4489
 5301TIP3   OH237537   4.109   5.319   1.772  0.7713 -0.1564  0.6416
 5301TIP3    H137538   4.051   5.362   1.835  1.8274 -1.6247  2.7061
 5301TIP3    H237539   4.179   5.383   1.757 -0.8167  1.2859 -1.2216
 5302TIP3   OH237540   3.770   3.045   1.890 -0.1434 -0.1997  1.1023
 5302TIP3    H137541   3.803   3.116   1.835 -0.1825 -0.9272  0.1202
 5302TIP3    H237542   3.832   2.974   1.877 -0.9293 -0.8529  0.9178
 5303TIP3   OH237543   2.043   4.981   1.968 -0.1515 -0.3618  0.4206
 5303TIP3    H137544   2.072   5.060   2.014  0.4891 -0.4509  0.1837
 5303TIP3    H237545   1.981   4.940   2.027 -1.9986  1.3120 -0.2226
 5304TIP3   OH237546   7.046   5.739   3.357  0.0213  0.7170  0.1986
 5304TIP3    H137547   7.015   5.777   3.439 -0.5271 -0.3010  0.4839
 5304TIP3    H237548   7.137   5.768   3.349 -0.2418  1.7092  0.6125
 5305TIP3   OH237549   6.050   2.288   1.794  0.0108  0.3752 -0.2355
 5305TIP3    H137550   6.142   2.313   1.778 -0.4441  1.3011 -1.5569
 5305TIP3    H237551   6.028   2.331   1.877  0.5508  0.7486 -0.2795
 5306TIP3   OH237552   6.893   4.647   3.719  0.2506  0.6357  0.0637
 5306TIP3    H137553   6.812   4.699   3.725 -0.3246 -0.4075  1.9225
 5306TIP3    H237554   6.863   4.557   3.709  1.2292  0.4223 -1.1075
 5307TIP3   OH237555   1.940   2.643   8.090 -0.4752  0.4327  0.3218
 5307TIP3    H137556   1.868   2.702   8.111 -0.3856  1.4504 -1.9478
 5307TIP3    H237557   1.987   2.687   8.018  0.8598 -1.4231 -0.0098
 5308TIP3   OH237558   5.001   5.254   7.735  0.3456 -0.3657  0.0040
 5308TIP3    H137559   5.073   5.208   7.690 -0.0050  0.3488 -1.3454
 5308TIP3    H237560   5.040   5.338   7.762 -0.1327  0.3494 -1.4040
 5309TIP3   OH237561   1.951   3.853   7.657  0.1647  0.3448  0.5568
 5309TIP3    H137562   1.922   3.933   7.699  1.5124  1.2316 -0.1289
 5309TIP3    H237563   1.918   3.859   7.567 -0.9255 -0.5565  0.8714
 5310TIP3   OH237564   1.745   2.789   0.185 -0.6020  0.4753 -0.6508
 5310TIP3    H137565   1.714   2.869   0.228  1.2934  0.9248 -0.0643
 5310TIP3    H237566   1.827   2.814   0.143  0.7870 -1.4656  0.7185
 5311TIP3   OH237567   3.689   1.118   1.440 -0.4276  0.0762 -0.0900
 5311TIP3    H137568   3.658   1.035   1.405 -1.2848  0.4016 -0.1383
 5311TIP3    H237569   3.684   1.178   1.366  1.6933 -0.1728 -0.4815
 5312TIP3   OH237570   0.383   2.094   1.206 -0.4312 -0.2125 -0.0565
 5312TIP3    H137571   0.384   2.148   1.127 -0.2956  0.0082  0.0944
 5312TIP3    H237572   0.321   2.024   1.187  0.4237 -0.7914 -0.7798
 5313TIP3   OH237573   4.961   4.317   0.582  0.1199 -0.4872 -0.0178
 5313TIP3    H137574   4.961   4.327   0.677  0.5093 -2.3868  0.2347
 5313TIP3    H237575   5.046   4.351   0.554 -1.2255  3.1788 -0.1781
 5314TIP3   OH237576   6.270   2.109   0.201 -0.3677  0.3107  0.2544
 5314TIP3    H137577   6.364   2.126   0.195 -0.3899  0.3915  0.1468
 5314TIP3    H237578   6.229   2.195   0.192 -0.4747  0.2154 -0.1747
 5315TIP3   OH237579   5.090   1.819   1.207 -0.0072 -0.1687 -0.9906
 5315TIP3    H137580   5.087   1.911   1.181  2.2066 -0.1521 -1.4021
 5315TIP3    H237581   5.063   1.771   1.128 -2.9365  0.0980 -0.2577
 5316TIP3   OH237582   3.304   0.057   7.154  0.0275  0.1039 -0.0732
 5316TIP3    H137583   3.262   0.141   7.172 -0.0828 -0.0715  0.5341
 5316TIP3    H237584   3.386   0.060   7.204 -1.4640 -1.4070  2.7335
 5317TIP3   OH237585   1.239   3.730   3.407 -0.4290 -0.5165 -0.4510
 5317TIP3    H137586   1.161   3.771   3.446 -0.3263  0.7175 -1.4628
 5317TIP3    H237587   1.230   3.748   3.313  1.7497  0.8970 -0.4558
 5318TIP3   OH237588   5.135   2.619   2.673  0.1104 -0.3289  0.0067
 5318TIP3    H137589   5.202   2.555   2.647 -1.5852 -1.6416 -1.4767
 5318TIP3    H237590   5.103   2.587   2.757  1.6411  0.6094  0.9906
 5319TIP3   OH237591   1.514   2.257   0.045  0.5995 -0.0874 -0.3171
 5319TIP3    H137592   1.476   2.252  -0.043  1.0117  0.5488 -0.5350
 5319TIP3    H237593   1.608   2.262   0.030  0.6011  1.6459  0.0762
 5320TIP3   OH237594   4.257   0.311   1.497  0.5944  0.0612  0.4814
 5320TIP3    H137595   4.219   0.229   1.529 -1.7827  1.2878  1.0191
 5320TIP3    H237596   4.348   0.308   1.525  0.5707 -2.3811  0.4755
 5321TIP3   OH237597   1.759   5.462   1.867 -0.3232 -0.1987  0.0296
 5321TIP3    H137598   1.798   5.383   1.830  0.0289  0.0984 -0.2390
 5321TIP3    H237599   1.811   5.479   1.946 -0.1589 -0.0222 -0.1170
 5322TIP3   OH237600   2.753   2.739   0.734  0.0161  0.3842  0.3674
 5322TIP3    H137601   2.748   2.647   0.711  1.4177  0.0588  1.2382
 5322TIP3    H237602   2.812   2.742   0.809  0.5697  2.0657 -0.0893
 5323TIP3   OH237603   0.795   4.197   1.335  0.5377 -0.0712  0.2030
 5323TIP3    H137604   0.751   4.113   1.326  0.2767  0.2216 -1.4394
 5323TIP3    H237605   0.866   4.194   1.272 -2.1070  2.5449 -3.2931
 5324TIP3   OH237606   4.560   3.835   0.243 -1.3140  0.4293  0.5149
 5324TIP3    H137607   4.640   3.839   0.296 -1.3165  0.1298  0.5406
 5324TIP3    H237608   4.512   3.759   0.276 -1.0786 -0.0643 -0.2443
 5325TIP3   OH237609   0.193   1.003   1.852 -0.3378  0.1845  0.1689
 5325TIP3    H137610   0.169   1.084   1.806  1.9826  0.0976 -1.3633
 5325TIP3    H237611   0.258   1.031   1.916 -1.1276 -0.2041  1.1739
 5326TIP3   OH237612   3.566   4.522   3.096 -0.6201 -0.4381  0.1581
 5326TIP3    H137613   3.502   4.577   3.051 -1.1994 -0.8674  0.4484
 5326TIP3    H237614   3.544   4.528   3.189 -0.8488 -1.3473  0.1758
 5327TIP3   OH237615   2.209   6.997   0.812 -0.3605 -0.2067 -0.0124
 5327TIP3    H137616   2.173   7.054   0.744  0.2262 -2.4780 -2.3599
 5327TIP3    H237617   2.189   6.909   0.783  1.3279 -1.3408  1.9975
 5328TIP3   OH237618   2.149   6.156   3.355 -0.3002  0.1246 -0.5479
 5328TIP3    H137619   2.163   6.065   3.331  0.7029  0.3182 -0.7813
 5328TIP3    H237620   2.129   6.153   3.449 -0.1557 -0.3319 -0.5276
 5329TIP3   OH237621   6.380   4.088   7.538 -0.0787  0.2008  0.3240
 5329TIP3    H137622   6.475   4.087   7.538  0.0170  2.0608 -1.3371
 5329TIP3    H237623   6.354   4.001   7.507  1.0730 -0.2832  0.6962
 5330TIP3   OH237624   6.301   1.562   3.685  0.2458  0.7531  0.5662
 5330TIP3    H137625   6.397   1.568   3.688  0.2026  1.5826  0.4762
 5330TIP3    H237626   6.271   1.650   3.706 -0.5100  0.3996  0.9840
 5331TIP3   OH237627   2.836   0.704   0.651 -0.2629 -0.0211 -0.1029
 5331TIP3    H137628   2.885   0.629   0.617 -0.9964  0.3056 -2.0249
 5331TIP3    H237629   2.885   0.780   0.619 -0.8244  0.3014 -0.2167
 5332TIP3   OH237630   4.731   2.490   0.271  0.2900  0.7618 -0.0594
 5332TIP3    H137631   4.809   2.468   0.322  0.1775  0.6058  0.0486
 5332TIP3    H237632   4.704   2.575   0.305  1.5346  1.7613 -1.4461
 5333TIP3   OH237633   6.598   4.104   3.875 -0.2768  0.0867  0.1968
 5333TIP3    H137634   6.587   4.172   3.808  1.2557 -0.9380 -1.1567
 5333TIP3    H237635   6.665   4.140   3.934 -0.3501  0.2546  0.1800
 5334TIP3   OH237636   6.911   2.154   1.100 -0.3305 -0.3621 -0.5144
 5334TIP3    H137637   6.918   2.062   1.074 -0.6109 -0.4456 -0.3091
 5334TIP3    H237638   6.987   2.169   1.156  0.7435  0.0540 -2.0269
 5335TIP3   OH237639   0.011   2.934   1.512 -0.0471 -0.1748  0.3043
 5335TIP3    H137640   0.060   2.917   1.593  0.0575  1.0654  0.5223
 5335TIP3    H237641  -0.080   2.943   1.541  0.2207  2.1807  0.6165
 5336TIP3   OH237642   0.470   6.516   1.206 -0.1061  0.3089 -0.0879
 5336TIP3    H137643   0.533   6.581   1.237  1.0940 -0.6802 -0.3496
 5336TIP3    H237644   0.464   6.452   1.277  2.0461 -1.5432 -1.4229
 5337TIP3   OH237645   1.025   1.447   2.437 -0.5038 -0.1203  0.1629
 5337TIP3    H137646   0.984   1.456   2.523 -1.1414 -0.2058 -0.1322
 5337TIP3    H237647   0.954   1.458   2.374 -0.0775 -0.2651 -0.3549
 5338TIP3   OH237648   0.151   5.674   0.881 -0.4746 -0.0626  0.4948
 5338TIP3    H137649   0.146   5.770   0.885  2.1007  0.2192 -1.1471
 5338TIP3    H237650   0.205   5.656   0.804  0.1759 -2.8220  1.5061
 5339TIP3   OH237651   6.128   2.063   2.296 -0.2853  0.5254  0.0568
 5339TIP3    H137652   6.193   2.036   2.361 -1.8260 -0.5219  1.2342
 5339TIP3    H237653   6.044   2.041   2.336 -1.2961 -0.4312 -2.4416
 5340TIP3   OH237654   0.762   0.158   1.443 -0.6715  0.4413 -0.4622
 5340TIP3    H137655   0.822   0.109   1.387 -0.6087 -0.0338  0.0201
 5340TIP3    H237656   0.813   0.234   1.473 -1.1939  1.6144 -2.3444
 5341TIP3   OH237657   2.354   1.873   3.106  0.1318  0.4528 -0.2727
 5341TIP3    H137658   2.272   1.919   3.085  0.7129  1.1401 -1.1224
 5341TIP3    H237659   2.337   1.830   3.190 -1.8150 -1.1624 -1.4184
 5342TIP3   OH237660   0.319   4.671   2.402 -0.0299 -0.0232  0.8438
 5342TIP3    H137661   0.291   4.653   2.312 -0.7711 -0.3914  1.1424
 5342TIP3    H237662   0.373   4.750   2.394  0.1382 -0.2070  0.0391
 5343TIP3   OH237663   4.510   0.886   0.271  0.1757  0.0002 -0.4609
 5343TIP3    H137664   4.566   0.822   0.314 -0.8309  0.6039  1.9070
 5343TIP3    H237665   4.569   0.957   0.247  0.5707  0.4377  1.6172
 5344TIP3   OH237666   0.493   2.382   2.295 -1.0632 -0.0134 -0.3916
 5344TIP3    H137667   0.502   2.288   2.284 -2.1684 -0.0624 -1.0121
 5344TIP3    H237668   0.498   2.396   2.390  0.2144 -0.5520 -0.3586
 5345TIP3   OH237669   5.194   6.945   2.284  0.1386  0.8572  0.7255
 5345TIP3    H137670   5.246   6.898   2.218  0.6853  1.7688  0.4866
 5345TIP3    H237671   5.104   6.936   2.255  0.1679 -0.4649  0.9609
 5346TIP3   OH237672   2.912   2.761   7.935  0.1542 -0.1372 -0.0778
 5346TIP3    H137673   2.969   2.685   7.945  2.5481  1.1677 -2.6041
 5346TIP3    H237674   2.927   2.792   7.846 -0.1687  3.7066  0.9938
 5347TIP3   OH237675   1.604   3.782   1.813  0.2478  0.4423  0.0841
 5347TIP3    H137676   1.633   3.701   1.770  0.9218  0.0396  1.2426
 5347TIP3    H237677   1.580   3.840   1.741  0.3471 -0.5722 -0.7932
 5348TIP3   OH237678   6.381   2.707   0.910  0.5195  0.4715 -0.5706
 5348TIP3    H137679   6.341   2.754   0.984 -0.5592  1.2818 -1.6281
 5348TIP3    H237680   6.437   2.642   0.951 -1.2380 -0.1358  1.0070
 5349TIP3   OH237681   5.692   4.715   0.669 -0.5045 -0.4476 -0.4107
 5349TIP3    H137682   5.741   4.747   0.594 -0.0681  0.9260  0.4295
 5349TIP3    H237683   5.633   4.787   0.693  0.0459 -0.4675  1.1323
 5350TIP3   OH237684   5.780   6.009   3.342 -0.7431 -0.4499 -0.6200
 5350TIP3    H137685   5.706   6.067   3.360 -0.2681  0.1854 -0.6657
 5350TIP3    H237686   5.857   6.061   3.363 -0.3170 -2.1699  2.6204
 5351TIP3   OH237687   3.526   6.311   0.794 -0.0958 -0.2726 -0.2227
 5351TIP3    H137688   3.470   6.375   0.751  0.6269  0.1196 -0.5932
 5351TIP3    H237689   3.465   6.242   0.823 -1.0132  1.0331  1.0725
 5352TIP3   OH237690   0.069   0.348   2.655  0.2106 -0.7495 -0.4099
 5352TIP3    H137691   0.015   0.306   2.723  1.2938 -1.2136  0.1776
 5352TIP3    H237692   0.152   0.365   2.698 -0.3126  2.5087 -0.4639
 5353TIP3   OH237693   5.781   5.919   0.514 -0.7161 -0.3740  0.4349
 5353TIP3    H137694   5.805   5.828   0.534 -0.1859 -0.4867 -0.6714
 5353TIP3    H237695   5.711   5.911   0.449  1.3824 -0.0089 -2.0003
 5354TIP3   OH237696   5.317   2.119   3.163  0.0652  0.1576  0.0020
 5354TIP3    H137697   5.303   2.150   3.074 -0.0934  0.2786  0.0680
 5354TIP3    H237698   5.258   2.172   3.216  0.9020  0.8086  0.3113
 5355TIP3   OH237699   0.493   3.044   8.038  0.7468 -0.1498 -0.6257
 5355TIP3    H137700   0.444   2.970   8.003  1.2936 -0.1512 -1.4227
 5355TIP3    H237701   0.585   3.019   8.028  0.9214  0.1299  0.2265
 5356TIP3   OH237702   2.674   0.021   0.995  0.5552  0.2567 -0.3840
 5356TIP3    H137703   2.723  -0.033   1.056  0.3284  0.6726  0.1735
 5356TIP3    H237704   2.708   0.109   1.008  1.9368  0.0546 -2.3019
 5357TIP3   OH237705   0.161   0.633   7.382 -0.5444 -0.0207 -0.0714
 5357TIP3    H137706   0.213   0.713   7.370  0.4168 -0.6024  0.1441
 5357TIP3    H237707   0.130   0.638   7.472  0.7695 -0.6018  0.4327
 5358TIP3   OH237708   2.546   4.061   0.940  0.1742  0.5594  0.2279
 5358TIP3    H137709   2.532   4.151   0.969 -0.2563  2.1163 -4.0453
 5358TIP3    H237710   2.639   4.058   0.917  0.2892 -0.2602  0.7780
 5359TIP3   OH237711   1.711   5.975   7.241 -0.1682 -0.0022  0.0680
 5359TIP3    H137712   1.771   5.961   7.314 -1.2552  1.9070  1.4242
 5359TIP3    H237713   1.651   5.900   7.245  0.9353 -0.9116 -0.0902
 5360TIP3   OH237714   6.181   6.615   0.872  0.2486  0.4989  0.1671
 5360TIP3    H137715   6.102   6.583   0.917  0.9122  1.0785  1.8096
 5360TIP3    H237716   6.148   6.682   0.813 -0.6560 -0.2909 -0.2671
 5361TIP3   OH237717   6.561   5.683   1.084 -0.3901 -0.6817  0.1247
 5361TIP3    H137718   6.508   5.752   1.124 -0.3557 -1.4048  1.4382
 5361TIP3    H237719   6.506   5.649   1.013 -1.1664 -0.5465  0.6472
 5362TIP3   OH237720   1.314   2.108   0.880 -0.6065  0.0343 -0.2302
 5362TIP3    H137721   1.372   2.074   0.948 -1.0301 -1.3730 -0.5438
 5362TIP3    H237722   1.373   2.150   0.817 -0.2861  2.6210  1.6040
 5363TIP3   OH237723   1.865   4.635   1.382 -0.5272 -0.2813 -0.3391
 5363TIP3    H137724   1.892   4.714   1.428 -3.2100  0.6840 -0.2434
 5363TIP3    H237725   1.922   4.566   1.416  0.0370  1.0993  1.6683
 5364TIP3   OH237726   3.985   0.546   0.585  0.1488 -0.0351 -0.2843
 5364TIP3    H137727   3.922   0.494   0.636  0.1496  1.2579  1.1192
 5364TIP3    H237728   4.024   0.605   0.650  1.4997  0.4258 -1.4790
 5365TIP3   OH237729   1.732   2.963   4.174  0.3925 -0.1371 -0.2606
 5365TIP3    H137730   1.800   2.978   4.107 -0.1168  2.0462 -0.3557
 5365TIP3    H237731   1.650   2.980   4.128 -0.0470 -0.0474  0.5554
 5366TIP3   OH237732   3.781   4.057   1.367  0.0099  0.2865 -0.0039
 5366TIP3    H137733   3.736   4.003   1.302 -3.1907  0.9142  1.5089
 5366TIP3    H237734   3.835   3.995   1.416 -0.1012 -0.7304 -1.1111
 5367TIP3   OH237735   6.236   3.984   1.150 -0.3014  0.0625 -0.9019
 5367TIP3    H137736   6.163   3.962   1.092  0.6689 -0.1461 -2.0694
 5367TIP3    H237737   6.298   3.912   1.139  0.1706  0.3284 -0.0573
 5368TIP3   OH237738   5.246   0.164   0.902 -0.1982 -0.5890 -0.1258
 5368TIP3    H137739   5.283   0.157   0.990  0.0416 -1.1263 -0.2639
 5368TIP3    H237740   5.167   0.217   0.913  0.8688  1.0552  0.1044
 5369TIP3   OH237741   5.853   4.107   3.135 -0.7268  0.7741 -0.4366
 5369TIP3    H137742   5.803   4.176   3.179 -0.8613 -0.1461  0.8892
 5369TIP3    H237743   5.786   4.048   3.101 -0.6427 -0.9615  2.1380
 5370TIP3   OH237744   5.012   2.128   1.494  0.8641  0.4217  0.4494
 5370TIP3    H137745   5.059   2.057   1.537  0.1147 -0.3306  0.0532
 5370TIP3    H237746   5.017   2.201   1.556  1.3784 -0.0704  0.9986
 5371TIP3   OH237747   2.058   5.660   8.150  0.2337  0.2979 -0.9884
 5371TIP3    H137748   2.124   5.724   8.177 -0.4645  0.4311  0.4887
 5371TIP3    H237749   2.030   5.690   8.064  0.8851  1.2162 -0.9034
 5372TIP3   OH237750   1.575   2.512   1.731 -0.5566 -0.4352 -0.3075
 5372TIP3    H137751   1.559   2.421   1.755  1.8772 -0.9428 -0.4291
 5372TIP3    H237752   1.597   2.556   1.814 -0.6570 -0.2012 -0.4027
 5373TIP3   OH237753   4.653   6.735   2.931 -0.0895  0.6092 -0.3024
 5373TIP3    H137754   4.599   6.800   2.885 -1.2149  0.7687  1.1670
 5373TIP3    H237755   4.594   6.697   2.996  0.9824 -0.8255 -0.1274
 5374TIP3   OH237756   0.817   2.927   2.346 -0.2701  0.6957  0.4327
 5374TIP3    H137757   0.756   2.994   2.314 -0.7596 -0.0614 -0.2758
 5374TIP3    H237758   0.903   2.961   2.324 -0.4039  1.8835  1.6357
 5375TIP3   OH237759   5.237   4.541   2.067  0.2171 -0.3692 -0.1376
 5375TIP3    H137760   5.229   4.457   2.022 -0.5086  0.8169 -2.4193
 5375TIP3    H237761   5.331   4.560   2.067  0.1925  0.0679 -2.2683
 5376TIP3   OH237762   5.221   0.831   2.184  0.4749  0.1563  0.7948
 5376TIP3    H137763   5.227   0.761   2.120 -0.1367  0.8734 -0.0699
 5376TIP3    H237764   5.153   0.802   2.245  0.4937 -0.1705  0.6607
 5377TIP3   OH237765   4.263   5.413   2.066  0.3626 -0.1153  0.1533
 5377TIP3    H137766   4.168   5.406   2.064  0.2787  0.3675  1.5368
 5377TIP3    H237767   4.283   5.483   2.003 -0.2998  0.6169  0.7364
 5378TIP3   OH237768   2.624   6.837   7.705 -0.1189 -0.6765  0.3395
 5378TIP3    H137769   2.538   6.798   7.692 -1.7962  3.1807 -1.7790
 5378TIP3    H237770   2.610   6.903   7.772  0.4330  1.6847 -1.7298
 5379TIP3   OH237771   4.152   6.744   2.336  0.0911  0.0386  0.6357
 5379TIP3    H137772   4.077   6.733   2.395 -1.1909 -2.2650 -1.2398
 5379TIP3    H237773   4.229   6.725   2.390 -0.7889  0.6833  2.1780
 5380TIP3   OH237774   2.065   5.712   1.247  0.0868  0.6397  0.0974
 5380TIP3    H137775   2.109   5.761   1.317 -0.9297 -1.1901  2.1097
 5380TIP3    H237776   2.114   5.630   1.241  1.3741  1.4567 -2.8004
 5381TIP3   OH237777   5.296   2.647   0.423  0.0512  0.1657 -0.0895
 5381TIP3    H137778   5.266   2.558   0.436  2.0869 -0.4398  0.9259
 5381TIP3    H237779   5.217   2.697   0.403 -1.0726 -1.9082 -1.0460
 5382TIP3   OH237780   4.892   6.959   7.683  0.7492  0.2928  0.0935
 5382TIP3    H137781   4.950   6.975   7.758  0.1945 -0.0839  0.6136
 5382TIP3    H237782   4.845   7.042   7.671 -0.7579 -0.2962  1.5840
 5383TIP3   OH237783   5.721   2.691   3.321 -0.2579  0.5919  0.4348
 5383TIP3    H137784   5.654   2.714   3.384 -1.9477  0.0837 -1.0902
 5383TIP3    H237785   5.736   2.771   3.272 -0.2383  0.5365  0.3493
 5384TIP3   OH237786   2.602   4.809   1.860 -0.2828  0.1980  0.1516
 5384TIP3    H137787   2.644   4.888   1.826 -1.9545  1.0812  0.0485
 5384TIP3    H237788   2.562   4.837   1.942 -0.7183 -0.6013  0.2230
 5385TIP3   OH237789   3.281   5.462   1.967 -0.0505 -0.2454 -0.7803
 5385TIP3    H137790   3.294   5.532   2.030  0.6910  0.2944 -1.5044
 5385TIP3    H237791   3.193   5.478   1.931 -0.1786 -0.1301 -0.4240
 5386TIP3   OH237792   4.688   6.992   0.135  0.6119  0.3403  0.4950
 5386TIP3    H137793   4.750   6.974   0.205  0.2752  1.4200  1.0881
 5386TIP3    H237794   4.624   6.922   0.140  0.0862  0.8902  1.8678
 5387TIP3   OH237795   6.522   1.314   0.964  0.2381 -0.0230 -0.2359
 5387TIP3    H137796   6.509   1.235   0.912 -1.1809 -2.0158  2.8467
 5387TIP3    H237797   6.437   1.359   0.962  0.0157 -0.3744  0.6575
 5388TIP3   OH237798   2.537   2.876   1.650 -0.0090 -0.2562 -0.5638
 5388TIP3    H137799   2.491   2.952   1.684 -1.0212  0.0520 -2.4935
 5388TIP3    H237800   2.494   2.856   1.567  0.1500 -3.0052 -0.1011
 5389TIP3   OH237801   0.812   2.279   1.414  0.2037 -0.3060  0.1777
 5389TIP3    H137802   0.748   2.288   1.344  1.1184 -0.9456 -0.7678
 5389TIP3    H237803   0.885   2.231   1.374  0.7855 -0.6026  1.5389
 5390TIP3   OH237804   0.910   6.277   1.260  0.4815 -0.5195 -0.5355
 5390TIP3    H137805   0.903   6.181   1.263 -0.3122 -0.4545  1.2476
 5390TIP3    H237806   0.991   6.297   1.307  0.1836 -0.3009 -0.1014
 5391TIP3   OH237807   1.613   4.571   1.304 -0.3092  0.2139 -0.6997
 5391TIP3    H137808   1.580   4.611   1.385 -2.2160 -0.8942 -0.8662
 5391TIP3    H237809   1.693   4.620   1.284  1.1236 -0.3984  2.6615
 5392TIP3   OH237810   0.788   6.385   0.317 -0.5893 -0.1705  0.1201
 5392TIP3    H137811   0.879   6.381   0.349 -0.1105 -0.5300 -1.2043
 5392TIP3    H237812   0.755   6.468   0.350  0.4665  0.3040  0.0416
 5393TIP3   OH237813   4.211   1.285   7.935  0.5234  0.3034  0.5130
 5393TIP3    H137814   4.232   1.277   8.029 -0.7794 -0.8634  0.7368
 5393TIP3    H237815   4.152   1.361   7.931 -0.2950 -0.3043  0.8115
 5394TIP3   OH237816   0.287   4.814   1.173 -0.3208 -0.0644 -0.5453
 5394TIP3    H137817   0.376   4.808   1.209 -0.3019  0.6768 -0.4400
 5394TIP3    H237818   0.259   4.903   1.195  0.2227  0.9868 -3.6241
 5395TIP3   OH237819   3.296   6.089   7.165  0.3615  0.3948  0.4428
 5395TIP3    H137820   3.321   6.181   7.176 -1.6195  1.4260 -2.4646
 5395TIP3    H237821   3.203   6.086   7.188  0.3038 -0.8325  0.1466
 5396TIP3   OH237822   5.766   0.215   7.761  0.0931  0.5259  0.1934
 5396TIP3    H137823   5.699   0.251   7.819 -0.0385  1.6567 -0.6265
 5396TIP3    H237824   5.724   0.210   7.675  0.3888 -0.8043  0.1068
 5397TIP3   OH237825   6.071   5.747   0.361 -0.1370 -0.2823 -0.3190
 5397TIP3    H137826   6.063   5.737   0.456 -1.2459  0.0073 -0.3599
 5397TIP3    H237827   6.072   5.658   0.328  1.1200 -0.4069  0.0082
 5398TIP3   OH237828   4.023   5.200   2.369 -0.6316 -0.2439 -0.7224
 5398TIP3    H137829   4.060   5.112   2.371 -0.7676 -0.2934 -0.3833
 5398TIP3    H237830   4.092   5.256   2.405 -0.6776 -0.2579 -0.6143
 5399TIP3   OH237831   3.358   6.962   4.082 -0.0694  0.4629  0.0441
 5399TIP3    H137832   3.357   7.055   4.105 -2.5569  0.6956 -0.7028
 5399TIP3    H237833   3.316   6.958   3.996 -1.5892 -1.5147  0.8156
 5400TIP3   OH237834   4.409   4.438   1.974 -0.1913 -0.0065  0.0516
 5400TIP3    H137835   4.483   4.417   1.917  0.0792  1.3197 -0.1278
 5400TIP3    H237836   4.439   4.416   2.062 -0.6589 -2.1953 -0.2795
 5401TIP3   OH237837   4.113   6.928   3.716 -0.4318 -0.3568 -0.0316
 5401TIP3    H137838   4.207   6.913   3.710 -0.3970 -0.1305 -0.0615
 5401TIP3    H237839   4.095   6.928   3.810 -0.7867 -2.7324 -0.0408
 5402TIP3   OH237840   0.992   5.010   0.217  0.1869 -0.3321  0.1853
 5402TIP3    H137841   0.921   5.041   0.160  1.2323  0.3827 -0.7950
 5402TIP3    H237842   1.072   5.033   0.169  1.0791 -1.2620  1.1790
 5403TIP3   OH237843   0.450   4.868   1.445 -0.1065 -0.1813 -0.1703
 5403TIP3    H137844   0.483   4.958   1.444 -1.5543  0.3755 -0.4216
 5403TIP3    H237845   0.527   4.814   1.427  0.4584  1.1231 -1.9681
 5404TIP3   OH237846   6.417   2.496   0.430 -0.2055 -0.5504  0.0475
 5404TIP3    H137847   6.479   2.522   0.497  1.8656 -0.7396 -1.6698
 5404TIP3    H237848   6.389   2.579   0.390  3.3454 -0.4263 -2.7894
 5405TIP3   OH237849   1.899   1.836   0.297 -0.1997  0.8789 -0.6366
 5405TIP3    H137850   1.892   1.884   0.379  1.0807  1.8824 -1.0699
 5405TIP3    H237851   1.859   1.894   0.232 -2.3992 -0.4672 -0.5775
 5406TIP3   OH237852   0.729   4.554   2.496  0.3469  0.2403  0.3816
 5406TIP3    H137853   0.688   4.565   2.582 -1.3907  2.7446 -0.6476
 5406TIP3    H237854   0.691   4.474   2.461 -1.0749  0.6590  0.8828
 5407TIP3   OH237855   0.299   2.211   3.354 -0.1098  0.0354  0.2864
 5407TIP3    H137856   0.216   2.170   3.381 -0.9846  1.3713 -0.2618
 5407TIP3    H237857   0.315   2.277   3.422 -0.4692  0.9999 -0.5269
 5408TIP3   OH237858   3.093   1.251   0.954 -0.0031  0.1482  1.2646
 5408TIP3    H137859   3.080   1.233   0.861  1.0903 -1.2021  1.3504
 5408TIP3    H237860   3.111   1.345   0.957  1.3373 -0.0290 -0.0767
 5409TIP3   OH237861   1.844   3.972   7.428  0.0560 -0.3330 -0.0138
 5409TIP3    H137862   1.874   4.059   7.403 -0.0299 -0.2712  0.0989
 5409TIP3    H237863   1.799   3.939   7.350 -1.8223  0.5873  0.6294
 5410TIP3   OH237864   4.401   6.751   3.003 -0.5399 -0.6301 -0.4539
 5410TIP3    H137865   4.382   6.741   2.910  1.3462  0.5038 -1.0064
 5410TIP3    H237866   4.364   6.835   3.027 -0.0038 -0.3822 -0.4805
 5411TIP3   OH237867   2.548   0.990   0.157  0.7051 -0.8922  0.2422
 5411TIP3    H137868   2.625   1.035   0.192  0.3707  0.4531 -0.6705
 5411TIP3    H237869   2.527   0.924   0.223  1.3440  0.1600  1.5581
 5412TIP3   OH237870   5.102   6.082   2.061  0.2203  0.0437 -0.4358
 5412TIP3    H137871   5.196   6.083   2.077  0.3001  2.1907 -0.6733
 5412TIP3    H237872   5.074   6.171   2.081 -1.6603 -0.3804 -0.9830
 5413TIP3   OH237873   2.195   4.767   0.353  0.2810 -0.0273  0.8360
 5413TIP3    H137874   2.239   4.851   0.341  1.5355 -0.8014 -0.1983
 5413TIP3    H237875   2.265   4.702   0.353 -0.7919 -1.2514 -0.1127
 5414TIP3   OH237876   2.400   3.071   7.874 -0.0150  0.2891  0.1292
 5414TIP3    H137877   2.486   3.098   7.906  0.3297  0.6312 -1.0369
 5414TIP3    H237878   2.383   2.989   7.920  1.5955 -0.5417 -0.6484
 5415TIP3   OH237879   2.429   5.834   4.219 -0.3196 -0.4827  0.7136
 5415TIP3    H137880   2.355   5.854   4.276  1.0359 -0.8285  2.7306
 5415TIP3    H237881   2.409   5.748   4.182 -0.8891 -0.6115  1.3089
 5416TIP3   OH237882   2.985   6.268   2.810 -0.0879 -0.0724  0.3138
 5416TIP3    H137883   3.042   6.226   2.746  1.0561 -1.5174  2.1916
 5416TIP3    H237884   2.908   6.211   2.816  1.1665 -1.6706  2.3707
 5417TIP3   OH237885   2.533   0.548   7.460  0.1023  0.2016 -0.3140
 5417TIP3    H137886   2.538   0.642   7.474 -0.6411  0.3434 -0.9303
 5417TIP3    H237887   2.615   0.526   7.415  0.6770  0.3941  0.6241
 5418TIP3   OH237888   5.016   5.514   2.298  0.2563  0.3993  0.0264
 5418TIP3    H137889   5.072   5.439   2.318 -0.4412 -0.2848 -0.5624
 5418TIP3    H237890   4.948   5.511   2.365 -0.0402  0.2202 -0.2797
 5419TIP3   OH237891   4.730   4.757   1.277 -0.6101 -0.7041 -0.0050
 5419TIP3    H137892   4.763   4.676   1.314 -0.4583 -0.4948  0.3245
 5419TIP3    H237893   4.709   4.812   1.353  0.7055  0.1309 -0.2155
 5420TIP3   OH237894   1.442   1.543   3.432  0.1642  0.0467  0.0677
 5420TIP3    H137895   1.363   1.595   3.445 -0.3341 -0.7440  0.2730
 5420TIP3    H237896   1.502   1.573   3.501 -0.9996 -1.3032  1.7621
 5421TIP3   OH237897   0.920   6.928   1.651 -0.4065 -0.0790 -0.1607
 5421TIP3    H137898   1.005   6.904   1.612  0.2643 -0.6049  1.5327
 5421TIP3    H237899   0.943   6.988   1.722 -1.4139 -0.5566  0.5837
 5422TIP3   OH237900   0.597   6.895   2.271  0.5855  0.6162  0.1614
 5422TIP3    H137901   0.540   6.918   2.198  1.8865  1.1534 -0.7291
 5422TIP3    H237902   0.657   6.969   2.278  0.1736  0.8106  2.1278
 5423TIP3   OH237903   7.026   1.225   2.215 -0.5307  0.3979  0.2863
 5423TIP3    H137904   7.068   1.262   2.293 -0.7655  0.2509  0.4851
 5423TIP3    H237905   7.012   1.301   2.158 -1.4804  0.7170  0.9101
 5424TIP3   OH237906   0.353   3.089   7.072 -0.0034 -0.3679 -0.1986
 5424TIP3    H137907   0.434   3.062   7.116 -0.7589  0.2588  1.6985
 5424TIP3    H237908   0.346   3.183   7.090 -0.0068  0.0905 -2.3280
 5425TIP3   OH237909   1.485   5.067   0.163 -0.1087  0.5584 -0.1782
 5425TIP3    H137910   1.509   5.092   0.252  0.2672  3.0818 -0.8899
 5425TIP3    H237911   1.551   5.002   0.138  0.5080  0.7102  0.9793
 5426TIP3   OH237912   4.229   6.655   8.128 -0.1890  0.8178  0.4465
 5426TIP3    H137913   4.139   6.670   8.098 -0.2512 -0.5792 -0.1315
 5426TIP3    H237914   4.245   6.725   8.192 -0.4120  3.3266 -2.0364
 5427TIP3   OH237915   6.009   4.506   7.607  0.4275 -0.9018 -0.4256
 5427TIP3    H137916   5.940   4.442   7.625  0.0105 -0.1021  0.9806
 5427TIP3    H237917   5.969   4.569   7.548 -0.0767 -0.4183  0.4184
 5428TIP3   OH237918   0.087   6.903   0.882 -0.4674  0.4281 -0.0808
 5428TIP3    H137919   0.168   6.919   0.833 -0.9545  0.7214 -0.7908
 5428TIP3    H237920   0.059   6.816   0.855 -0.4012  0.3335  0.1525
 5429TIP3   OH237921   1.375   0.674   0.716  0.9474  0.0422 -0.4877
 5429TIP3    H137922   1.432   0.597   0.718 -0.6343 -1.2544 -2.1984
 5429TIP3    H237923   1.435   0.748   0.707  2.4277 -1.1114 -0.4509
 5430TIP3   OH237924   2.725   0.090   2.601  0.3662  0.6232  0.6458
 5430TIP3    H137925   2.711   0.009   2.551  0.3860  0.7887  0.3716
 5430TIP3    H237926   2.795   0.067   2.663 -0.5129  0.0449  1.4573
 5431TIP3   OH237927   1.343   6.938   2.972 -0.6360 -0.0950 -0.2471
 5431TIP3    H137928   1.412   7.001   2.950 -1.6953  2.1141  2.1901
 5431TIP3    H237929   1.266   6.969   2.925 -0.4658 -1.4739 -1.4970
 5432TIP3   OH237930   1.495   0.449   0.935  0.1837  0.8906 -0.1178
 5432TIP3    H137931   1.427   0.514   0.955  1.1261  1.8801 -0.0432
 5432TIP3    H237932   1.479   0.425   0.844 -2.4201 -1.5571  0.8266
 5433TIP3   OH237933   4.867   0.528   7.973  0.1457  0.4757 -0.3104
 5433TIP3    H137934   4.925   0.597   8.007 -0.5579  0.9013  0.0411
 5433TIP3    H237935   4.842   0.559   7.886 -0.7138  1.0027  0.1162
 5434TIP3   OH237936   4.206   3.313   2.291 -0.2124 -0.5896  0.3357
 5434TIP3    H137937   4.282   3.264   2.322 -0.1633 -1.7259 -1.4176
 5434TIP3    H237938   4.131   3.264   2.324 -0.1774 -0.1910  1.0072
 5435TIP3   OH237939   0.480   2.006   1.695  0.4241 -0.1278 -0.1966
 5435TIP3    H137940   0.401   1.998   1.748  0.2035  0.8845 -0.3531
 5435TIP3    H237941   0.544   2.048   1.753  0.3020  0.6333 -0.5959
 5436TIP3   OH237942   6.659   3.951   0.613 -0.8737  0.1057 -0.0503
 5436TIP3    H137943   6.703   4.021   0.565 -2.1440 -0.3339 -1.9456
 5436TIP3    H237944   6.730   3.898   0.649  0.2380 -0.6063 -3.0424
 5437TIP3   OH237945   4.148   4.536   1.968 -0.3309 -0.0491  0.3147
 5437TIP3    H137946   4.122   4.591   1.895 -0.5069  0.7855  0.9957
 5437TIP3    H237947   4.238   4.509   1.946 -0.0854  0.8537  0.1715
 5438TIP3   OH237948   3.052   6.222   1.268 -0.1996  0.2495  0.6970
 5438TIP3    H137949   3.103   6.280   1.213  0.7045  0.4439  1.7042
 5438TIP3    H237950   2.980   6.275   1.300  2.5444  2.1322  4.5742
 5439TIP3   OH237951   1.004   1.929   3.332  0.0400 -0.3516  0.1686
 5439TIP3    H137952   0.950   1.901   3.406  0.5444 -0.1287  0.6245
 5439TIP3    H237953   0.957   1.895   3.255 -0.6021 -0.3972  0.5672
 5440TIP3   OH237954   1.927   3.757   8.081 -0.2935  0.1281  0.7206
 5440TIP3    H137955   1.868   3.695   8.124  1.9799 -0.8516  2.6189
 5440TIP3    H237956   1.988   3.702   8.032 -0.1000  1.0506 -0.1137
 5441TIP3   OH237957   3.096   0.293   0.795 -0.2124  0.8354 -0.0275
 5441TIP3    H137958   3.027   0.255   0.741 -2.5489  3.0869  1.1772
 5441TIP3    H237959   3.052   0.358   0.849  2.9837  2.9386  0.3337
 5442TIP3   OH237960   6.934   0.910   1.117 -0.1709 -0.0464  0.2561
 5442TIP3    H137961   7.023   0.931   1.143 -0.0833 -0.8885  0.6703
 5442TIP3    H237962   6.880   0.942   1.190 -0.5092  2.8362 -1.1015
 5443TIP3   OH237963   0.443   5.261   2.475  0.4142  0.4714  0.3929
 5443TIP3    H137964   0.532   5.290   2.496 -0.0157  1.9960  0.2139
 5443TIP3    H237965   0.389   5.298   2.545 -0.2784  0.8552 -0.3358
 5444TIP3   OH237966   2.207   5.696   2.305  0.5704 -0.4916 -0.0889
 5444TIP3    H137967   2.130   5.724   2.255  0.4527 -1.2879 -0.3791
 5444TIP3    H237968   2.267   5.770   2.301 -0.8934  0.8829  1.6872
 5445TIP3   OH237969   4.383   5.178   1.775  0.4035  0.0265  0.3051
 5445TIP3    H137970   4.441   5.252   1.757  1.0233 -0.5985 -0.3392
 5445TIP3    H237971   4.297   5.218   1.791  0.5964  0.8464 -0.6209
 5446TIP3   OH237972   2.305   1.426   0.601 -0.2320  0.2832  0.3181
 5446TIP3    H137973   2.365   1.453   0.670  0.1728  2.0378 -0.6615
 5446TIP3    H237974   2.359   1.374   0.542 -0.2002  0.1114  0.4954
 5447TIP3   OH237975   5.110   0.709   0.624 -0.0915  0.0820 -0.2811
 5447TIP3    H137976   5.110   0.669   0.536 -1.9721 -1.5469  0.3945
 5447TIP3    H237977   5.018   0.728   0.642  0.1101 -0.6155  1.7414
 5448TIP3   OH237978   1.948   1.941   2.783 -0.1199  0.0644 -0.6151
 5448TIP3    H137979   1.861   1.965   2.816 -0.2347 -0.9133 -0.1738
 5448TIP3    H237980   1.931   1.869   2.722  0.4466 -0.5676 -0.0233
 5449TIP3   OH237981   4.115   4.928   1.996 -0.4775 -0.7532  0.1100
 5449TIP3    H137982   4.116   4.861   2.064  2.2301  1.2288  2.3038
 5449TIP3    H237983   4.145   5.007   2.041  1.8733  0.6342 -3.4695
 5450TIP3   OH237984   0.224   3.327   0.309  0.0228  0.8706 -0.4824
 5450TIP3    H137985   0.242   3.260   0.375  1.8924  0.0821 -1.6987
 5450TIP3    H237986   0.221   3.409   0.358 -1.2024  0.0495  0.8870
 5451TIP3   OH237987   3.776   5.844   1.812  0.6491 -0.0950  0.1633
 5451TIP3    H137988   3.705   5.805   1.762  0.9932 -2.5816  1.4610
 5451TIP3    H237989   3.780   5.935   1.781 -2.8850  0.1062 -0.1386
 5452TIP3   OH237990   0.621   6.847   7.979 -0.0447  0.4189 -0.8652
 5452TIP3    H137991   0.605   6.939   7.997  2.3322  1.0762 -1.6748
 5452TIP3    H237992   0.693   6.823   8.038 -0.0818 -0.7032 -1.2372
 5453TIP3   OH237993   1.780   3.457   2.149 -0.1878 -0.4183 -0.1920
 5453TIP3    H137994   1.841   3.529   2.144 -1.4933  0.6652 -1.1305
 5453TIP3    H237995   1.834   3.380   2.168  1.2427  0.7489  0.6205
 5454TIP3   OH237996   4.516   5.686   0.891  0.3870 -0.1906 -0.1964
 5454TIP3    H137997   4.588   5.714   0.834  0.4738  2.4299  1.0473
 5454TIP3    H237998   4.438   5.723   0.850  0.4794  1.9837  1.3855
 5455TIP3   OH237999   6.193   4.841   7.867 -0.5626 -0.4521  0.3675
 5455TIP3    H138000   6.156   4.753   7.869  1.2122 -1.2566  0.0007
 5455TIP3    H238001   6.285   4.828   7.845 -0.3181  1.5308 -0.0055
 5456TIP3   OH238002   0.302   5.418   0.497 -0.7311 -0.1932  0.3197
 5456TIP3    H138003   0.355   5.339   0.496 -1.4448 -0.7571  2.3097
 5456TIP3    H238004   0.219   5.391   0.535 -2.6023  0.6340 -2.7795
 5457TIP3   OH238005   5.214   2.372   2.512 -0.0607 -0.2541 -0.2358
 5457TIP3    H138006   5.309   2.364   2.498  0.3524  1.5641  1.2349
 5457TIP3    H238007   5.189   2.289   2.552  0.6200 -1.2992 -1.8668
 5458TIP3   OH238008   1.196   1.667   0.312 -0.4821 -0.7984  0.1946
 5458TIP3    H138009   1.267   1.635   0.367 -0.8807  0.3279  1.4102
 5458TIP3    H238010   1.137   1.712   0.372 -1.6529 -0.7212 -0.9575
 5459TIP3   OH238011   1.840   3.558   0.674  0.2597 -0.1501 -0.2271
 5459TIP3    H138012   1.758   3.564   0.625  0.0446  0.1844  0.1634
 5459TIP3    H238013   1.902   3.519   0.612  0.0566  0.4675 -0.8414
 5460TIP3   OH238014   5.862   3.901   0.224 -0.3008 -0.4004 -0.4616
 5460TIP3    H138015   5.947   3.858   0.234  0.7467  1.4394 -0.9487
 5460TIP3    H238016   5.833   3.877   0.136  0.7799  0.6867 -1.1408
 5461TIP3   OH238017   6.754   4.402   1.913  0.0880 -0.9711  0.0410
 5461TIP3    H138018   6.764   4.462   1.839  1.2986  0.8201  1.5524
 5461TIP3    H238019   6.843   4.379   1.938 -0.2962 -1.6446  0.8394
 5462TIP3   OH238020   6.815   2.442   3.209 -0.1030  0.2840 -0.0791
 5462TIP3    H138021   6.746   2.427   3.274  0.3581 -0.4122  0.2629
 5462TIP3    H238022   6.891   2.469   3.261  0.4373 -0.8261 -0.2436
 5463TIP3   OH238023   1.269   0.767   1.737  0.4265  0.5570 -0.6517
 5463TIP3    H138024   1.193   0.806   1.692 -0.7995  0.3011  1.0885
 5463TIP3    H238025   1.306   0.707   1.673  0.0863  1.8045 -2.0799
 5464TIP3   OH238026   4.296   5.721   2.416 -0.1131  0.8008 -0.2589
 5464TIP3    H138027   4.241   5.684   2.485  2.4655  0.8493  1.9914
 5464TIP3    H238028   4.293   5.657   2.345 -0.4413 -0.8108  1.1508
 5465TIP3   OH238029   1.850   1.487   0.248 -0.6003 -0.0701  0.0041
 5465TIP3    H138030   1.842   1.397   0.280 -0.4895  0.0208  0.2859
 5465TIP3    H238031   1.881   1.537   0.323 -1.4806  0.3720  0.0918
 5466TIP3   OH238032   3.159   0.661   7.228  0.1950 -0.9710 -0.1529
 5466TIP3    H138033   3.204   0.603   7.167  0.6653 -0.2564 -0.5118
 5466TIP3    H238034   3.092   0.607   7.268  0.2369 -1.6032 -0.9041
 5467TIP3   OH238035   1.522   5.522   1.957  0.0509  0.0805 -0.6735
 5467TIP3    H138036   1.605   5.492   1.922 -0.1693 -0.0521 -1.0904
 5467TIP3    H238037   1.545   5.570   2.037  0.5472  0.2693 -0.9278
 5468TIP3   OH238038   5.532   0.604   1.943  0.1074 -0.3950 -0.4304
 5468TIP3    H138039   5.554   0.520   1.982 -0.5729 -1.2150 -1.7525
 5468TIP3    H238040   5.616   0.648   1.932  0.4789 -0.9254  0.1890
 5469TIP3   OH238041   5.539   4.244   0.710  0.2137  0.2580  0.4729
 5469TIP3    H138042   5.476   4.262   0.781  0.1655  0.2661  0.4284
 5469TIP3    H238043   5.593   4.322   0.706  1.7057 -0.6292  2.0410
 5470TIP3   OH238044   1.859   5.793   7.441 -0.1714  0.0345  0.2968
 5470TIP3    H138045   1.939   5.743   7.457  0.4883  0.4985 -1.3300
 5470TIP3    H238046   1.828   5.818   7.528  3.1682  2.5222  0.9489
 5471TIP3   OH238047   1.012   5.779   1.457  0.4446 -0.1681 -0.0130
 5471TIP3    H138048   1.030   5.699   1.507 -1.6868 -1.1002 -0.6341
 5471TIP3    H238049   1.022   5.753   1.365 -2.1375 -0.3308 -0.3239
 5472TIP3   OH238050   6.098   5.251   2.772  0.2449 -0.2363 -0.1597
 5472TIP3    H138051   6.139   5.327   2.730 -0.2275 -0.1494 -0.4681
 5472TIP3    H238052   6.121   5.177   2.716 -0.1988 -0.1548 -0.4477
 5473TIP3   OH238053   5.578   6.688   1.064  0.1158  0.2122 -0.3904
 5473TIP3    H138054   5.506   6.684   1.001  0.5009  0.3582 -0.8480
 5473TIP3    H238055   5.657   6.676   1.010  0.5019  1.2077 -0.0513
 5474TIP3   OH238056   4.361   6.338   1.265 -0.1384  0.2683  0.1385
 5474TIP3    H138057   4.371   6.301   1.177 -0.9443  2.9180 -1.1829
 5474TIP3    H238058   4.427   6.407   1.270 -1.9376  2.0725  0.4319
 5475TIP3   OH238059   4.110   0.728   3.609  0.2198 -0.3000  0.3738
 5475TIP3    H138060   4.180   0.707   3.548 -0.1763  0.1688 -0.2460
 5475TIP3    H238061   4.152   0.783   3.676  0.6771 -0.9092  0.6040
 5476TIP3   OH238062   1.917   1.299   0.991  0.0700  0.4059 -0.0124
 5476TIP3    H138063   1.922   1.357   1.067  0.5707 -1.3745  1.3854
 5476TIP3    H238064   1.997   1.317   0.941  3.1620 -2.6831  3.2424
 5477TIP3   OH238065   0.643   3.814   0.699  0.5414  0.3570  0.0442
 5477TIP3    H138066   0.557   3.796   0.662  0.1760 -2.9857  2.1229
 5477TIP3    H238067   0.701   3.748   0.661  1.2508  0.0009  1.6435
 5478TIP3   OH238068   3.115   4.219   2.628 -0.3949  0.2689 -0.5605
 5478TIP3    H138069   3.086   4.237   2.538  1.0994 -0.0341 -1.1433
 5478TIP3    H238070   3.110   4.124   2.636  0.6236  0.1853 -0.7646
 5479TIP3   OH238071   2.257   0.333   2.433  0.4401 -0.0946 -0.2121
 5479TIP3    H138072   2.332   0.380   2.395  0.3535 -0.7218 -1.2114
 5479TIP3    H238073   2.277   0.328   2.526  0.9545  0.9829 -0.2433
 5480TIP3   OH238074   2.022   5.310   0.015  0.1553 -0.0544 -0.0565
 5480TIP3    H138075   2.031   5.297  -0.079  1.5805  1.0675 -0.1178
 5480TIP3    H238076   1.976   5.394   0.023  0.0905 -0.1174  0.2382
 5481TIP3   OH238077   1.722   4.900   2.374  0.1265  0.0882  0.0263
 5481TIP3    H138078   1.634   4.932   2.351 -0.0295  1.1256  1.8538
 5481TIP3    H238079   1.771   4.979   2.396  0.8911 -0.6326  0.9998
 5482TIP3   OH238080   5.430   4.228   2.119 -0.3598 -0.0653 -0.8111
 5482TIP3    H138081   5.444   4.310   2.071 -1.1203  0.0874 -0.7934
 5482TIP3    H238082   5.476   4.162   2.067 -2.5134 -0.1838 -2.7156
 5483TIP3   OH238083   3.845   1.406   3.047  0.0686  0.5896  0.5101
 5483TIP3    H138084   3.783   1.335   3.032  1.8614 -0.7210 -1.2722
 5483TIP3    H238085   3.895   1.379   3.124  0.6064 -0.0260 -0.0403
 5484TIP3   OH238086   5.963   4.124   0.006 -0.3728  0.3260 -0.6659
 5484TIP3    H138087   5.951   4.215  -0.022  0.2537  0.9941  1.1131
 5484TIP3    H238088   5.960   4.128   0.101  0.3881 -1.4123 -0.5424
 5485TIP3   OH238089   3.104   0.394   8.076  0.2266  0.0349 -0.8787
 5485TIP3    H138090   3.113   0.394   7.981 -0.9550  0.2544 -1.0067
 5485TIP3    H238091   3.142   0.477   8.104 -0.2271  0.3732 -1.2540
 5486TIP3   OH238092   2.422   4.543   7.445  0.6649 -0.0373 -0.3823
 5486TIP3    H138093   2.359   4.475   7.470  1.2765 -1.2611 -1.9798
 5486TIP3    H238094   2.507   4.501   7.455  1.1649  1.1075  0.3118
 5487TIP3   OH238095   2.490   1.117   2.958  0.2325  0.0379 -0.4727
 5487TIP3    H138096   2.525   1.173   3.027 -1.1400 -0.5459  0.7427
 5487TIP3    H238097   2.566   1.095   2.904  1.7511 -1.0048  1.8999
 5488TIP3   OH238098   4.358   4.832   0.305 -0.1925  0.1207 -0.0953
 5488TIP3    H138099   4.317   4.751   0.337 -0.4925  0.8761  1.5618
 5488TIP3    H238100   4.447   4.806   0.282 -0.5937 -0.8832 -0.5757
 5489TIP3   OH238101   6.671   5.869   7.921 -0.0255  0.7224 -0.2087
 5489TIP3    H138102   6.618   5.891   7.844 -0.1178 -0.3848 -0.4693
 5489TIP3    H238103   6.715   5.788   7.897 -1.0251 -0.3246  1.3615
 5490TIP3   OH238104   0.769   5.442   7.949 -0.2749  0.5974  0.7041
 5490TIP3    H138105   0.697   5.497   7.979 -1.5578 -0.0613 -0.9643
 5490TIP3    H238106   0.761   5.361   8.000 -1.5239  0.0506 -0.3064
 5491TIP3   OH238107   4.668   1.971   8.215 -0.1564 -0.0010 -0.7930
 5491TIP3    H138108   4.628   1.960   8.301  0.0807 -0.6815 -0.7651
 5491TIP3    H238109   4.608   2.029   8.168  1.0295  2.6345  0.7045
 5492TIP3   OH238110   3.226   5.471   2.586  0.9397  0.0229  0.0077
 5492TIP3    H138111   3.160   5.407   2.559  0.6934  0.3548 -0.1831
 5492TIP3    H238112   3.297   5.419   2.623  0.4518 -0.3217  0.4606
 5493TIP3   OH238113   5.750   5.224   0.871  0.5739  0.0625  0.2631
 5493TIP3    H138114   5.720   5.315   0.863 -1.9713 -0.7304 -0.0635
 5493TIP3    H238115   5.798   5.222   0.954 -0.8757  1.3463  1.1852
 5494TIP3   OH238116   4.101   4.915   1.284  0.3626 -0.5021 -0.3473
 5494TIP3    H138117   4.132   4.927   1.195  1.7556 -1.5454 -0.0422
 5494TIP3    H238118   4.074   5.003   1.313  1.1442  0.0766 -1.3390
 5495TIP3   OH238119   3.056   2.349   2.219 -0.3873 -0.0245  0.2706
 5495TIP3    H138120   3.064   2.444   2.229  2.5545  0.1008 -1.9933
 5495TIP3    H238121   3.047   2.336   2.125 -0.0107 -2.0591  0.4774
 5496TIP3   OH238122   6.185   0.864   2.247  0.0481 -0.0267 -0.2698
 5496TIP3    H138123   6.180   0.775   2.281 -2.3510  0.6241  1.3327
 5496TIP3    H238124   6.255   0.905   2.298  0.4984 -0.7220 -0.3203
 5497TIP3   OH238125   5.758   6.566   1.969 -0.9294  0.3802 -0.0353
 5497TIP3    H138126   5.824   6.632   1.990 -0.4047  0.3502 -1.4129
 5497TIP3    H238127   5.771   6.497   2.035  1.3984 -0.2573 -1.0342
 5498TIP3   OH238128   3.374   5.232   1.864  0.4437  0.5806  0.3180
 5498TIP3    H138129   3.458   5.254   1.824  0.3053 -0.1165 -0.3775
 5498TIP3    H238130   3.337   5.316   1.890  0.1229  1.1850 -1.8686
 5499TIP3   OH238131   3.923   7.000   7.117 -0.8059 -0.3813  0.4049
 5499TIP3    H138132   3.878   6.916   7.108 -0.2603 -0.6390 -0.0253
 5499TIP3    H238133   4.011   6.976   7.146 -0.2920 -0.0544 -0.7996
 5500TIP3   OH238134   6.617   5.973   3.664 -0.1524 -0.1917 -0.0695
 5500TIP3    H138135   6.587   5.886   3.692  1.0638 -1.2240 -1.7036
 5500TIP3    H238136   6.693   5.991   3.720 -2.4583  1.5325  2.7223
 5501TIP3   OH238137   4.939   4.053   2.394 -0.5465  0.1259 -0.1716
 5501TIP3    H138138   5.000   4.004   2.449  0.1157  1.5841  0.4376
 5501TIP3    H238139   4.853   4.038   2.434 -0.1985  0.3838  0.6898
 5502TIP3   OH238140   1.181   5.892   3.423 -0.6086 -0.3327  0.0549
 5502TIP3    H138141   1.162   5.978   3.460  0.3540 -0.8211  1.8010
 5502TIP3    H238142   1.095   5.850   3.417 -0.8515 -0.0687  1.3867
 5503TIP3   OH238143   3.981   2.093   2.372  0.4368 -0.5508  0.0267
 5503TIP3    H138144   4.005   2.009   2.412 -0.0588 -1.1749 -0.9490
 5503TIP3    H238145   3.963   2.150   2.447 -1.4851 -1.9753  0.7508
 5504TIP3   OH238146   2.279   2.224   2.903 -0.2262  0.6354 -0.0216
 5504TIP3    H138147   2.342   2.152   2.905  0.9151  1.5669 -0.8655
 5504TIP3    H238148   2.224   2.210   2.980  1.1544 -0.0971  0.8684
 5505TIP3   OH238149   0.265   1.981   2.083 -0.3302  0.3364 -0.0176
 5505TIP3    H138150   0.309   2.049   2.133 -0.1529 -0.1764  0.5339
 5505TIP3    H238151   0.280   1.900   2.132 -0.1274 -0.1921 -0.9119
 5506TIP3   OH238152   2.161   3.621   0.939  1.3197 -0.0429 -0.2677
 5506TIP3    H138153   2.233   3.581   0.988  0.2450 -0.7663  0.7801
 5506TIP3    H238154   2.084   3.608   0.994  0.3171  0.4307 -1.4960
 5507TIP3   OH238155   2.141   5.128   3.212  0.4332 -0.1854  0.3675
 5507TIP3    H138156   2.132   5.036   3.184 -1.4291  0.2367 -0.6145
 5507TIP3    H238157   2.163   5.122   3.305 -1.2928 -1.6598  0.7472
 5508TIP3   OH238158   1.070   3.535   1.287  0.0223  0.2219  0.2932
 5508TIP3    H138159   1.063   3.630   1.299  0.5481  0.3683 -0.5196
 5508TIP3    H238160   1.027   3.518   1.204  1.7050  0.0357 -0.5862
 5509TIP3   OH238161   3.656   0.699   2.170 -0.2338  0.4910  0.2532
 5509TIP3    H138162   3.651   0.783   2.216  0.0754  0.3866  0.4826
 5509TIP3    H238163   3.591   0.644   2.214 -0.7109  0.7228 -0.1471
 5510TIP3   OH238164   6.883   3.107   3.042  0.2529  0.6072 -0.2197
 5510TIP3    H138165   6.923   3.053   3.110 -0.0342  0.1528 -0.4068
 5510TIP3    H238166   6.910   3.066   2.960  0.1884  0.8621 -0.3708
 5511TIP3   OH238167   1.693   1.974   2.899 -0.0843 -0.4206 -0.4194
 5511TIP3    H138168   1.619   1.960   2.840 -0.7973  1.3514 -0.0102
 5511TIP3    H238169   1.682   1.907   2.967 -0.3192 -1.2654 -1.2629
 5512TIP3   OH238170   2.409   6.655   1.246  0.2870  0.0159  0.4070
 5512TIP3    H138171   2.423   6.574   1.197  1.5402  0.9184 -0.7872
 5512TIP3    H238172   2.387   6.625   1.335 -2.9786 -1.6797 -0.8239
 5513TIP3   OH238173   2.868   0.935   3.787  0.0244  0.6274 -0.4194
 5513TIP3    H138174   2.840   1.026   3.776 -0.7557  0.3829 -0.5183
 5513TIP3    H238175   2.807   0.884   3.734 -0.8480 -0.1582  1.2663
 5514TIP3   OH238176   2.168   4.406   8.116 -0.1672 -0.3961 -0.1969
 5514TIP3    H138177   2.221   4.349   8.172 -0.3781 -0.4349 -0.0380
 5514TIP3    H238178   2.172   4.366   8.030  2.1231  0.8991 -0.7920
 5515TIP3   OH238179   0.615   3.886   2.291 -0.1227 -0.0934  0.6103
 5515TIP3    H138180   0.546   3.825   2.263  1.1465 -1.0688 -0.5389
 5515TIP3    H238181   0.571   3.971   2.298 -1.6353 -0.8532  0.8701
 5516TIP3   OH238182   3.388   2.678   0.482 -0.2181 -0.0839 -0.0659
 5516TIP3    H138183   3.327   2.712   0.416  0.9418 -1.2814 -1.8445
 5516TIP3    H238184   3.332   2.646   0.553 -1.5593  0.2570 -0.9381
 5517TIP3   OH238185   0.292   5.373   2.671 -0.4981  0.2351 -0.4384
 5517TIP3    H138186   0.247   5.432   2.611  0.2929  0.2610 -1.0330
 5517TIP3    H238187   0.226   5.308   2.696 -1.2176  1.0476 -0.2145
 5518TIP3   OH238188   3.747   2.701   0.215  0.2508  0.1323  0.5598
 5518TIP3    H138189   3.794   2.662   0.289  1.3745  0.3815  0.0139
 5518TIP3    H238190   3.781   2.654   0.139 -1.4784 -0.6847  0.2446
 5519TIP3   OH238191   1.840   5.733   2.381 -0.3783  0.2533  0.0826
 5519TIP3    H138192   1.751   5.731   2.417 -0.2011 -1.7248  0.4912
 5519TIP3    H238193   1.877   5.648   2.403  1.4724  0.8621 -0.5018
 5520TIP3   OH238194   6.487   5.741   0.193  0.3247  0.0904  0.5247
 5520TIP3    H138195   6.461   5.650   0.208 -0.5332  0.3046  0.3931
 5520TIP3    H238196   6.557   5.736   0.129  0.4484 -0.4913  0.6988
 5521TIP3   OH238197   6.052   0.203   2.740  0.0092  0.3840  0.2160
 5521TIP3    H138198   6.070   0.293   2.769 -2.4281  0.7418  0.7729
 5521TIP3    H238199   6.050   0.153   2.821 -1.4702  0.3798  0.1902
 5522TIP3   OH238200   3.236   4.847   8.082  0.5071  0.1959 -0.4193
 5522TIP3    H138201   3.294   4.837   8.006 -0.1438 -1.4310 -0.7331
 5522TIP3    H238202   3.220   4.758   8.112 -1.5543  0.6125 -0.1470
 5523TIP3   OH238203   4.887   3.898   1.825  0.1642 -0.5683  0.5426
 5523TIP3    H138204   4.907   3.885   1.732  0.9495  2.0970  0.2750
 5523TIP3    H238205   4.964   3.864   1.871  0.1115 -1.1844  0.1891
 5524TIP3   OH238206   0.505   6.435   7.197 -0.4492 -0.5748 -0.1017
 5524TIP3    H138207   0.570   6.472   7.256 -0.7714 -0.4099  0.1590
 5524TIP3    H238208   0.437   6.503   7.192  0.9015  0.7576 -2.9896
 5525TIP3   OH238209   4.158   4.270   1.786 -1.0638  0.2931  0.1806
 5525TIP3    H138210   4.100   4.320   1.729 -2.3546  1.2800  2.2149
 5525TIP3    H238211   4.103   4.248   1.862  0.2606 -1.8530  0.5946
 5526TIP3   OH238212   1.418   4.456   2.581 -0.0930 -0.2019 -0.1937
 5526TIP3    H138213   1.479   4.406   2.528 -0.5098  0.0734 -0.9509
 5526TIP3    H238214   1.421   4.416   2.667  2.7223  1.0728  0.4012
 5527TIP3   OH238215   2.430   0.124   2.754  0.6199 -0.5062  0.5638
 5527TIP3    H138216   2.504   0.125   2.815 -0.8469 -0.6971  2.4269
 5527TIP3    H238217   2.420   0.215   2.728  0.0602 -0.0819  2.1731
 5528TIP3   OH238218   6.894   6.556   1.072 -0.2623  0.0954 -0.4845
 5528TIP3    H138219   6.953   6.527   1.142  0.6876  0.6697 -1.0279
 5528TIP3    H238220   6.808   6.561   1.114  0.0177 -1.0313  0.2523
 5529TIP3   OH238221   7.046   1.946   0.159 -0.4741  1.0640 -0.0164
 5529TIP3    H138222   6.985   1.884   0.198  0.1426  0.9123  0.7575
 5529TIP3    H238223   7.098   1.978   0.234  0.1663  1.4285 -0.6027
 5530TIP3   OH238224   0.836   3.643   0.611  0.2237  0.3535 -0.0560
 5530TIP3    H138225   0.887   3.573   0.570 -0.4533 -0.4212  0.4126
 5530TIP3    H238226   0.898   3.717   0.617  1.0531 -0.3155 -0.1999
 5531TIP3   OH238227   3.145   3.548   7.571  0.3984 -0.0362 -0.2649
 5531TIP3    H138228   3.056   3.538   7.605  0.7863  0.9781  1.1518
 5531TIP3    H238229   3.143   3.631   7.524  0.1615 -0.8851 -1.8145
 5532TIP3   OH238230   3.870   1.639   2.526  0.4648  0.7774 -0.3219
 5532TIP3    H138231   3.794   1.582   2.513 -0.9382  1.9125  2.0291
 5532TIP3    H238232   3.919   1.634   2.445 -1.0221 -1.6435 -1.1581
 5533TIP3   OH238233   5.168   3.027   8.108  0.0988  0.4638  0.5424
 5533TIP3    H138234   5.151   2.963   8.038 -0.1131 -1.1202  1.9937
 5533TIP3    H238235   5.193   3.107   8.061  0.1410 -0.5941 -1.3423
 5534TIP3   OH238236   2.356   0.744   7.967  0.3825  0.1751 -0.2551
 5534TIP3    H138237   2.273   0.705   7.938  0.2872 -0.3324  0.6641
 5534TIP3    H238238   2.413   0.737   7.891  0.3567 -1.7609 -0.1544
 5535TIP3   OH238239   2.602   0.633   2.131 -0.4077  0.5020  0.0664
 5535TIP3    H138240   2.677   0.687   2.155  0.3994 -0.3592 -0.4661
 5535TIP3    H238241   2.638   0.545   2.121 -1.4373  0.1279 -0.4771
 5536TIP3   OH238242   5.995   0.332   1.862 -0.4138 -0.7968 -0.8603
 5536TIP3    H138243   6.005   0.238   1.852  0.0551 -0.7005 -1.3331
 5536TIP3    H238244   6.083   0.365   1.877 -0.6100 -0.4634 -0.3835
 5537TIP3   OH238245   5.409   5.705   3.969 -0.3314 -0.0301  0.3858
 5537TIP3    H138246   5.324   5.748   3.956  0.8473  1.9991 -1.2075
 5537TIP3    H238247   5.466   5.775   4.001  1.2773 -0.7739 -0.7503
 5538TIP3   OH238248   3.175   1.040   0.348  0.0166 -0.3821  0.0267
 5538TIP3    H138249   3.145   1.130   0.341 -1.3079 -0.8756 -1.1075
 5538TIP3    H238250   3.263   1.047   0.386 -0.4814  1.2909  0.9671
 5539TIP3   OH238251   5.327   1.729   0.114  0.6671  0.1397  0.1175
 5539TIP3    H138252   5.380   1.666   0.162 -0.7516 -0.2367  1.2896
 5539TIP3    H238253   5.300   1.683   0.035  0.3760 -0.4249  0.5338
 5540TIP3   OH238254   2.192   5.631   1.669  0.3668 -0.1610  0.1258
 5540TIP3    H138255   2.198   5.593   1.757  1.0669 -0.9136 -0.2361
 5540TIP3    H238256   2.271   5.601   1.624  0.9184  1.6620 -0.2131
 5541TIP3   OH238257   0.686   5.152   0.521 -0.2441 -0.0634  0.0454
 5541TIP3    H138258   0.601   5.171   0.562 -0.7701 -0.5894 -0.7706
 5541TIP3    H238259   0.747   5.148   0.594 -0.5480  2.2053  0.4966
 5542TIP3   OH238260   6.955   2.621   7.677  0.1010  0.2349 -0.0477
 5542TIP3    H138261   6.906   2.697   7.647 -0.0802  0.0588 -0.2009
 5542TIP3    H238262   7.013   2.599   7.604 -1.2932 -1.0164 -0.8391
 5543TIP3   OH238263   4.976   4.103   7.544  0.2750  1.0413 -0.0196
 5543TIP3    H138264   4.987   4.128   7.452 -1.1228 -1.1334 -0.8833
 5543TIP3    H238265   5.044   4.038   7.559 -0.6900 -0.0518 -0.1856
 5544TIP3   OH238266   6.161   5.826   7.963 -0.0722  0.4179 -0.2731
 5544TIP3    H138267   6.246   5.783   7.960 -0.4101 -0.2175 -1.6742
 5544TIP3    H238268   6.174   5.908   7.915 -0.4514 -0.1072 -1.3045
 5545TIP3   OH238269   6.633   2.695   0.296  0.0175 -0.2349 -0.1325
 5545TIP3    H138270   6.601   2.765   0.240 -0.4465  1.0042  1.5883
 5545TIP3    H238271   6.596   2.615   0.259  0.3197  0.4405 -1.9686
 5546TIP3   OH238272   3.753   3.202   2.092  0.1565  0.6473  0.4175
 5546TIP3    H138273   3.740   3.154   2.010 -1.2497 -0.7324  1.3918
 5546TIP3    H238274   3.673   3.252   2.103  0.0752  0.3412  1.2576
 5547TIP3   OH238275   1.597   1.300   3.381  0.6618  0.4089  0.1980
 5547TIP3    H138276   1.534   1.372   3.382  0.0697 -0.0932  1.1853
 5547TIP3    H238277   1.550   1.226   3.342  1.1404  0.4500 -0.4648
 5548TIP3   OH238278   1.645   4.909   1.187 -0.1526 -0.9079 -0.1929
 5548TIP3    H138279   1.591   4.935   1.261 -2.0339  3.3177 -2.7225
 5548TIP3    H238280   1.730   4.951   1.203 -0.3424 -0.5455 -0.1340
 5549TIP3   OH238281   5.643   4.304   2.283 -0.0721  0.1909 -0.1007
 5549TIP3    H138282   5.720   4.273   2.237  0.4184  1.3776 -0.1215
 5549TIP3    H238283   5.569   4.262   2.239  0.5248 -0.4928 -0.4554
 5550TIP3   OH238284   6.065   1.713   3.441  0.2292 -0.4693 -0.5478
 5550TIP3    H138285   6.054   1.628   3.398  0.6668 -0.8517  0.0709
 5550TIP3    H238286   6.043   1.696   3.533 -0.8638  0.3708 -0.6357
 5551TIP3   OH238287   4.389   1.713   7.445 -0.0800 -0.7468 -0.1135
 5551TIP3    H138288   4.477   1.673   7.450  0.5606  0.3995 -1.5034
 5551TIP3    H238289   4.332   1.641   7.417  0.4510 -1.4322  0.5050
 5552TIP3   OH238290   0.652   1.096   2.841  0.0239  0.4087  0.1016
 5552TIP3    H138291   0.612   1.067   2.759  1.5312 -0.7052 -0.2847
 5552TIP3    H238292   0.719   1.030   2.860 -1.5639 -0.4883  3.2913
 5553TIP3   OH238293   5.584   5.417   8.066 -0.1178 -0.5662  0.3358
 5553TIP3    H138294   5.671   5.457   8.071 -0.1801 -0.5424  1.4540
 5553TIP3    H238295   5.539   5.466   7.997  0.3649  0.2085  0.5570
 5554TIP3   OH238296   2.465   1.030   2.555  0.0755 -0.7629 -0.5307
 5554TIP3    H138297   2.392   1.059   2.608 -2.6017 -3.4086 -2.4618
 5554TIP3    H238298   2.524   0.987   2.617 -0.4236  0.5299  0.9147
 5555TIP3   OH238299   4.582   5.035   3.154 -0.0698 -0.3112 -0.0726
 5555TIP3    H138300   4.548   4.968   3.214 -1.1157  0.8859  0.7027
 5555TIP3    H238301   4.555   5.004   3.067 -1.3938 -0.4389  0.3520
 5556TIP3   OH238302   1.811   4.030   1.472 -0.2482 -0.0650 -0.0399
 5556TIP3    H138303   1.874   4.101   1.457  0.3694 -0.6504 -0.2579
 5556TIP3    H238304   1.738   4.052   1.415 -0.7567  1.2229  1.0509
 5557TIP3   OH238305   5.030   5.958   1.825  0.0959 -0.2435 -0.2499
 5557TIP3    H138306   5.046   6.010   1.904  0.8475  1.5426 -1.5030
 5557TIP3    H238307   4.936   5.963   1.811  0.2165  1.3327 -0.6621
 5558TIP3   OH238308   1.063   3.073   1.089  0.2333 -0.2121  0.0122
 5558TIP3    H138309   1.141   3.045   1.042  1.0939  0.5874  0.8923
 5558TIP3    H238310   1.054   3.010   1.161  0.8506  0.4404  0.6751
 5559TIP3   OH238311   4.446   1.188   1.524  0.4531 -0.2797 -0.3469
 5559TIP3    H138312   4.521   1.225   1.478  0.3923 -1.1881 -1.2159
 5559TIP3    H238313   4.370   1.215   1.473  0.1903  0.4158  0.3836
 5560TIP3   OH238314   3.296   5.219   4.235 -0.0109 -0.5556  0.2631
 5560TIP3    H138315   3.287   5.150   4.170 -0.4302  1.5951 -2.1391
 5560TIP3    H238316   3.208   5.234   4.267 -1.2825  2.8495 -3.8682
 5561TIP3   OH238317   2.443   2.906   8.246 -0.3833 -0.2088  0.1673
 5561TIP3    H138318   2.359   2.860   8.245  0.3868 -1.6801 -1.9432
 5561TIP3    H238319   2.497   2.859   8.183  0.9857  2.6537 -0.9449
 5562TIP3   OH238320   5.548   0.811   1.636 -0.4829 -0.1921  0.9100
 5562TIP3    H138321   5.510   0.874   1.575 -0.0069 -1.8900 -1.2551
 5562TIP3    H238322   5.478   0.748   1.651  0.0191 -0.8379  0.5568
 5563TIP3   OH238323   1.700   7.035   0.758 -0.5744 -1.1549 -0.3152
 5563TIP3    H138324   1.669   7.118   0.795  0.7547 -1.2015  0.9997
 5563TIP3    H238325   1.726   7.058   0.669  0.5018  0.0442  0.2723
 5564TIP3   OH238326   0.934   0.246   1.624 -0.1019  0.0063 -0.2590
 5564TIP3    H138327   0.973   0.304   1.690 -0.5561 -1.6782  1.5731
 5564TIP3    H238328   0.902   0.171   1.674 -0.5822 -1.2948 -2.4116
 5565TIP3   OH238329   3.902   4.922   7.563 -0.7527 -0.1639  0.6971
 5565TIP3    H138330   3.853   5.003   7.577 -1.3794 -0.7874  2.2594
 5565TIP3    H238331   3.855   4.878   7.492 -0.8591  0.4685  0.3631
 5566TIP3   OH238332   5.642   2.396   1.524 -0.3374  0.2640  0.0889
 5566TIP3    H138333   5.698   2.411   1.600  0.6365 -0.0789 -0.5370
 5566TIP3    H238334   5.602   2.310   1.540  1.3400 -0.6878 -0.6437
 5567TIP3   OH238335   3.081   2.899   2.304 -0.6857  0.0700  0.0995
 5567TIP3    H138336   3.039   2.962   2.245 -0.3615 -0.8236 -1.1280
 5567TIP3    H238337   3.172   2.928   2.310 -0.4106 -0.5444 -0.8785
 5568TIP3   OH238338   3.811   1.347   1.594  0.0644 -0.0883 -0.2646
 5568TIP3    H138339   3.845   1.368   1.507  0.3067 -0.2006 -0.1954
 5568TIP3    H238340   3.762   1.266   1.582  1.2121 -0.8409 -0.0347
 5569TIP3   OH238341   6.335   5.954   8.208 -0.2174  0.1821  0.1171
 5569TIP3    H138342   6.302   5.992   8.127 -2.0623  0.2787  0.8768
 5569TIP3    H238343   6.430   5.952   8.196 -0.0833  3.8041 -0.5015
 5570TIP3   OH238344   3.097   3.084   1.739  0.0122 -0.4798  0.3503
 5570TIP3    H138345   3.137   3.037   1.666  0.5152 -0.9807  0.9297
 5570TIP3    H238346   3.042   3.018   1.783 -2.2261  0.4141 -0.9483
 5571TIP3   OH238347   6.118   1.895   0.953 -0.0132  0.0717  0.2185
 5571TIP3    H138348   6.025   1.905   0.969  0.2469 -0.9056  2.9054
 5571TIP3    H238349   6.128   1.803   0.927  0.2100  0.0619  0.3315
 5572TIP3   OH238350   1.920   0.814   7.454 -0.1781  0.1259 -0.1179
 5572TIP3    H138351   2.004   0.823   7.500 -0.1056 -2.1087  0.3099
 5572TIP3    H238352   1.942   0.765   7.375 -0.7239  1.7241 -1.2991
 5573TIP3   OH238353   4.453   1.227   7.818 -0.5100  0.1638  0.3793
 5573TIP3    H138354   4.450   1.132   7.815 -1.9241  0.1910 -2.3946
 5573TIP3    H238355   4.378   1.252   7.873 -2.3438 -0.3565 -1.7492
 5574TIP3   OH238356   6.412   0.555   0.395  0.2467  0.0842  0.5293
 5574TIP3    H138357   6.361   0.503   0.334 -3.4656 -0.7357  3.9171
 5574TIP3    H238358   6.383   0.645   0.380 -0.5331 -0.0953  0.9034
 5575TIP3   OH238359   6.800   5.485   0.355  0.2741 -0.3978 -0.0555
 5575TIP3    H138360   6.879   5.485   0.409  1.2043 -0.0958 -1.3521
 5575TIP3    H238361   6.798   5.572   0.314 -0.1461 -0.7647 -0.8445
 5576TIP3   OH238362   5.312   5.791   3.154  0.6950  0.6059  0.3903
 5576TIP3    H138363   5.247   5.723   3.168  0.2534  0.4980 -1.8365
 5576TIP3    H238364   5.266   5.873   3.173  0.6185  0.4185  1.0441
 5577TIP3   OH238365   6.263   4.728   0.644  0.3809  0.3895 -0.0964
 5577TIP3    H138366   6.247   4.767   0.558 -0.6452 -1.1918 -0.6695
 5577TIP3    H238367   6.354   4.700   0.641  0.4960  0.8000 -0.4741
 5578TIP3   OH238368   0.847   2.439   6.988  0.9480  0.0216  0.1031
 5578TIP3    H138369   0.934   2.467   6.961  0.2691  0.0386 -2.3006
 5578TIP3    H238370   0.804   2.518   7.020  1.3959  0.2495  0.1441
 5579TIP3   OH238371   2.213   4.536   1.135  0.1138 -0.0970  0.3344
 5579TIP3    H138372   2.155   4.464   1.111 -1.4714  1.2828 -0.1261
 5579TIP3    H238373   2.265   4.502   1.208  1.0735 -2.4862 -1.2959
 5580TIP3   OH238374   6.068   5.274   1.650  0.6878  0.8555 -0.5489
 5580TIP3    H138375   6.120   5.196   1.671  1.4140  1.2943 -0.7149
 5580TIP3    H238376   6.118   5.320   1.583  0.0030  1.2006 -0.8347
 5581TIP3   OH238377   6.723   4.624   0.442  0.2554 -0.1946  0.1382
 5581TIP3    H138378   6.760   4.663   0.363 -0.6421 -0.2220 -0.3144
 5581TIP3    H238379   6.798   4.601   0.495  0.9174 -1.1087 -1.1551
 5582TIP3   OH238380   0.503   1.001   2.633  0.1056 -0.0186  0.3470
 5582TIP3    H138381   0.466   1.003   2.545  0.8729 -0.5439 -0.0068
 5582TIP3    H238382   0.431   0.975   2.690 -0.6098  1.1555 -0.0035
 5583TIP3   OH238383   5.715   4.315   7.827 -0.0996  0.2451  0.3980
 5583TIP3    H138384   5.732   4.409   7.822  1.1178  0.0351  0.2929
 5583TIP3    H238385   5.675   4.303   7.914  1.3570  0.6473  1.1573
 5584TIP3   OH238386   3.527   0.328   0.180 -0.3772 -0.3577  0.1797
 5584TIP3    H138387   3.499   0.248   0.225  0.1973 -0.2170  0.8062
 5584TIP3    H238388   3.601   0.359   0.231 -1.5087  1.4117  0.8235
 5585TIP3   OH238389   2.187   4.898   0.679 -0.0105  0.0943 -0.0790
 5585TIP3    H138390   2.158   4.810   0.702  0.7188 -0.4333 -1.0973
 5585TIP3    H238391   2.113   4.936   0.632 -0.7084  0.4190  1.2287
 5586TIP3   OH238392   0.712   2.261   7.986 -0.7099  0.2527  0.0294
 5586TIP3    H138393   0.781   2.311   7.942  0.3371 -0.5936  0.6576
 5586TIP3    H238394   0.696   2.309   8.067  3.2703 -2.3664  2.7586
 5587TIP3   OH238395   0.146   1.928   2.426 -0.6373 -0.2447 -0.2833
 5587TIP3    H138396   0.152   1.958   2.517 -2.4608 -0.2476 -0.1371
 5587TIP3    H238397   0.179   2.001   2.374 -0.5912  0.1631  0.3136
 5588TIP3   OH238398   5.159   0.382   2.802  0.2495  0.2555 -0.4983
 5588TIP3    H138399   5.072   0.370   2.764  0.7007  0.4798 -1.6514
 5588TIP3    H238400   5.166   0.312   2.867 -1.1048  0.7582  0.2357
 5589TIP3   OH238401   0.566   0.020   0.155  0.2272 -0.0413  0.5229
 5589TIP3    H138402   0.646   0.022   0.207  0.7052  1.4101 -0.1957
 5589TIP3    H238403   0.507   0.081   0.200  0.0732  0.0327  0.2235
 5590TIP3   OH238404   0.354   6.331   8.151  0.0176 -0.2241  0.1631
 5590TIP3    H138405   0.397   6.295   8.229  0.7525 -1.2044 -0.6529
 5590TIP3    H238406   0.347   6.256   8.091  1.3191  0.8937 -1.4969
 5591TIP3   OH238407   6.103   3.036   1.868  0.4379 -0.2354  0.3803
 5591TIP3    H138408   6.180   3.074   1.826  0.3289 -2.6697 -2.3298
 5591TIP3    H238409   6.125   2.943   1.878 -1.0165 -0.4195  2.4402
 5592TIP3   OH238410   6.910   3.735   2.760 -0.0657 -0.4659 -0.5931
 5592TIP3    H138411   6.985   3.694   2.803  1.3447 -0.0769 -2.5505
 5592TIP3    H238412   6.833   3.690   2.797  1.0783 -0.7368  1.6123
 5593TIP3   OH238413   1.691   3.372   0.814  0.2475 -0.5200  0.2588
 5593TIP3    H138414   1.713   3.280   0.795 -0.1494 -0.4696 -0.4841
 5593TIP3    H238415   1.769   3.421   0.790  0.3397 -0.6304  0.3323
 5594TIP3   OH238416   2.358   2.304   0.083  0.3318 -0.5418 -0.3001
 5594TIP3    H138417   2.411   2.245   0.137  0.6196  0.0487  0.0852
 5594TIP3    H238418   2.403   2.388   0.089 -0.8549  0.0832  0.3733
 5595TIP3   OH238419   5.883   1.834   2.392 -0.4372 -0.3229  0.4539
 5595TIP3    H138420   5.787   1.829   2.390 -0.7435  2.8821 -1.7991
 5595TIP3    H238421   5.901   1.900   2.460  0.3904 -2.1498  2.1027
 5596TIP3   OH238422   5.961   3.927   0.678  0.1728  0.8014 -0.0228
 5596TIP3    H138423   5.890   3.895   0.734  1.7367  0.1047  1.6850
 5596TIP3    H238424   5.963   4.022   0.695 -0.8585  0.9753 -0.7554
 5597TIP3   OH238425   5.057   6.528   0.325  0.4601 -0.0131 -0.6479
 5597TIP3    H138426   5.031   6.441   0.354  1.7158 -1.1897 -2.8069
 5597TIP3    H238427   4.982   6.560   0.275  0.4976 -0.4381 -0.9810
 5598TIP3   OH238428   0.336   1.247   1.770 -0.3006  0.6581 -0.1872
 5598TIP3    H138429   0.412   1.188   1.774  1.0912  2.3356 -0.6301
 5598TIP3    H238430   0.332   1.274   1.678  0.0670  2.4350  0.2897
 5599TIP3   OH238431   4.834   4.129   3.045  1.0218  0.1246 -0.1754
 5599TIP3    H138432   4.753   4.138   3.096  0.4452 -0.2999 -0.9956
 5599TIP3    H238433   4.900   4.103   3.110  1.1148  2.8172  0.9821
 5600TIP3   OH238434   6.479   0.524   3.281 -0.3744 -0.0187 -0.3245
 5600TIP3    H138435   6.435   0.453   3.232 -0.5947  0.5561 -0.9804
 5600TIP3    H238436   6.484   0.596   3.218 -1.9808  1.2723  0.9289
 5601TIP3   OH238437   4.678   3.015   0.399  0.3868  0.2993  0.0279
 5601TIP3    H138438   4.665   3.110   0.405 -0.5502  0.5651 -3.6571
 5601TIP3    H238439   4.613   2.986   0.335  1.0689 -2.7896  0.5659
 5602TIP3   OH238440   4.004   0.509   3.415  0.4337 -0.0594  0.9010
 5602TIP3    H138441   4.029   0.433   3.469  0.6143  0.0931  1.0332
 5602TIP3    H238442   4.083   0.562   3.411  0.6814 -0.4744 -0.2184
 5603TIP3   OH238443   3.307   2.028   8.277 -0.0469  0.0981 -0.2228
 5603TIP3    H138444   3.270   2.047   8.363 -1.0292 -0.0786 -0.5960
 5603TIP3    H238445   3.402   2.035   8.290 -0.2157  1.0753  0.6286
 5604TIP3   OH238446   0.189   2.823   7.782  0.1899  0.3258 -0.2933
 5604TIP3    H138447   0.187   2.767   7.704  0.4766 -0.7737  0.4485
 5604TIP3    H238448   0.280   2.817   7.812 -0.1215 -0.0051  0.6182
 5605TIP3   OH238449   3.162   3.155   1.044 -0.3757  0.4485 -0.1976
 5605TIP3    H138450   3.223   3.226   1.026 -0.6896  0.1739 -2.6255
 5605TIP3    H238451   3.128   3.174   1.131  1.2161  2.0147  0.1265
 5606TIP3   OH238452   0.234   6.059   1.397 -0.1639 -0.0289 -0.3338
 5606TIP3    H138453   0.209   5.968   1.383  1.3347 -0.5428  0.0711
 5606TIP3    H238454   0.220   6.102   1.312 -0.2412 -0.8061 -0.7176
 5607TIP3   OH238455   4.934   3.167   8.118  0.2049  0.3504  0.0415
 5607TIP3    H138456   4.920   3.133   8.030 -0.4614 -3.7908  1.5163
 5607TIP3    H238457   5.024   3.144   8.139 -0.3959 -1.1739  1.2354
 5608TIP3   OH238458   4.729   2.379   8.139  0.4807 -0.3044  0.3140
 5608TIP3    H138459   4.768   2.442   8.199 -0.0602 -0.1949  0.5511
 5608TIP3    H238460   4.710   2.303   8.194  1.5071 -0.8464 -0.0457
 5609TIP3   OH238461   5.437   0.476   1.553 -0.1554 -0.1554  0.2321
 5609TIP3    H138462   5.410   0.406   1.493  0.1068  1.3266 -1.7182
 5609TIP3    H238463   5.357   0.527   1.568 -0.2191 -0.5220  1.1822
 5610TIP3   OH238464   6.612   6.609   0.197  0.7561  0.5447 -0.5893
 5610TIP3    H138465   6.663   6.687   0.218  0.9059  0.4724 -0.6801
 5610TIP3    H238466   6.652   6.539   0.248  1.6052  0.2106 -1.6615
 5611TIP3   OH238467   3.191   4.028   1.174  0.0273  0.2018  0.4449
 5611TIP3    H138468   3.176   4.082   1.096 -2.4227 -0.9144  0.0406
 5611TIP3    H238469   3.153   4.079   1.245 -0.7734 -0.2161  0.3310
 5612TIP3   OH238470   3.792   5.996   2.519 -0.1460 -0.0265 -0.4273
 5612TIP3    H138471   3.836   6.080   2.503  2.4639 -1.4137 -1.0320
 5612TIP3    H238472   3.817   5.972   2.608  0.2206 -0.7764 -0.7253
 5613TIP3   OH238473   3.075   1.475   0.028 -0.2690 -0.0731  0.1228
 5613TIP3    H138474   3.034   1.558   0.051  0.4149  1.2833 -3.0634
 5613TIP3    H238475   3.168   1.488   0.048 -0.2466 -0.3260  0.1862
 5614TIP3   OH238476   4.782   1.841   2.393 -0.0556  0.2791  0.5407
 5614TIP3    H138477   4.816   1.891   2.467 -1.4586  2.9279 -0.4787
 5614TIP3    H238478   4.843   1.860   2.321  1.2605 -2.2135  0.9120
 5615TIP3   OH238479   1.690   2.995   0.368  0.2112 -0.2953 -0.0534
 5615TIP3    H138480   1.634   3.071   0.381  0.0466  0.0265 -2.3418
 5615TIP3    H238481   1.662   2.934   0.437 -1.8880  0.4583 -0.1493
 5616TIP3   OH238482   2.767   1.622   8.151 -0.2211 -0.1108  0.0964
 5616TIP3    H138483   2.740   1.533   8.130 -0.0927  0.2809 -1.9892
 5616TIP3    H238484   2.709   1.649   8.222 -0.5994 -1.6640  0.4217
 5617TIP3   OH238485   5.814   5.447   0.417 -0.1052  0.0101 -0.7130
 5617TIP3    H138486   5.894   5.411   0.454 -1.6091 -1.8904  0.9092
 5617TIP3    H238487   5.844   5.502   0.345  2.7872  1.2238  1.2135
 5618TIP3   OH238488   0.485   3.406   0.612 -0.3989  0.0795  0.2223
 5618TIP3    H138489   0.482   3.502   0.617 -3.3771  0.0453  0.9743
 5618TIP3    H238490   0.558   3.381   0.668 -0.1341  1.8888  0.7445
 5619TIP3   OH238491   6.951   0.358   2.427  0.2901  0.1525 -0.1725
 5619TIP3    H138492   6.963   0.432   2.486  1.9503  0.0820 -0.3743
 5619TIP3    H238493   7.021   0.297   2.449 -0.4984 -0.9648 -0.6277
 5620TIP3   OH238494   2.279   3.331   0.453  0.1512 -0.3973 -0.2135
 5620TIP3    H138495   2.295   3.395   0.521  1.8050  0.6061 -1.4689
 5620TIP3    H238496   2.249   3.252   0.499 -0.4578  0.7815  1.4695
 5621TIP3   OH238497   1.067   3.544   8.216 -0.0707  0.1223  0.2011
 5621TIP3    H138498   1.091   3.579   8.302  0.0900  1.3237 -0.3186
 5621TIP3    H238499   1.010   3.611   8.178  1.3411  0.4756 -1.3833
 5622TIP3   OH238500   4.671   2.466   2.555  0.7361 -0.7012  0.0381
 5622TIP3    H138501   4.743   2.521   2.584  0.0967 -0.2709  0.8751
 5622TIP3    H238502   4.619   2.522   2.497  0.0389 -0.3676  0.9564
 5623TIP3   OH238503   1.627   3.024   2.008 -0.1712  0.2567  1.0141
 5623TIP3    H138504   1.608   2.982   1.924 -1.0111 -0.1818  1.4061
 5623TIP3    H238505   1.603   2.958   2.073  0.2028  0.6977  1.6085
 5624TIP3   OH238506   0.138   2.896   2.262  0.5825  0.1659  0.2879
 5624TIP3    H138507   0.188   2.923   2.184 -1.6599  0.4931 -1.1327
 5624TIP3    H238508   0.122   2.978   2.309 -0.4828  0.3928 -0.4462
 5625TIP3   OH238509   2.826   6.920   2.916 -0.1097  0.3699 -0.4573
 5625TIP3    H138510   2.738   6.950   2.941 -0.2898 -1.8384  2.0669
 5625TIP3    H238511   2.811   6.831   2.883  1.1302  0.1544 -0.4572
 5626TIP3   OH238512   5.366   6.701   0.697  0.3349 -0.3146  0.2026
 5626TIP3    H138513   5.301   6.750   0.749  0.5062 -0.8993  0.9885
 5626TIP3    H238514   5.431   6.674   0.761  2.0911  1.3780 -0.7739
 5627TIP3   OH238515   4.827   1.863   0.846  0.1148 -0.2085 -0.4453
 5627TIP3    H138516   4.813   1.769   0.857 -1.2737 -0.0948 -0.9729
 5627TIP3    H238517   4.837   1.875   0.751  0.0157  0.2002 -0.4075
 5628TIP3   OH238518   6.858   1.769   2.881 -0.5936  0.6631 -0.5677
 5628TIP3    H138519   6.881   1.777   2.974 -0.0329  0.0775 -0.6480
 5628TIP3    H238520   6.929   1.717   2.844 -1.5854 -0.3769 -1.0307
 5629TIP3   OH238521   0.973   2.250   2.641  0.5103 -0.3362  0.1889
 5629TIP3    H138522   0.930   2.331   2.614  1.2549 -0.2021 -0.6032
 5629TIP3    H238523   0.968   2.193   2.565 -0.5289 -1.2847  0.9163
 5630TIP3   OH238524   0.423   5.510   0.032  0.5066  0.5893 -0.0918
 5630TIP3    H138525   0.385   5.548  -0.047  1.1893 -0.6446 -1.0629
 5630TIP3    H238526   0.393   5.566   0.103 -0.2118  1.6781 -1.2127
 5631TIP3   OH238527   3.692   2.663   0.556  0.0260  0.1171  0.1455
 5631TIP3    H138528   3.610   2.617   0.540  0.6712 -1.0975  0.1941
 5631TIP3    H238529   3.758   2.611   0.509  0.8133  0.9087  0.3387
 5632TIP3   OH238530   5.099   3.593   1.069  0.0054 -0.2890  0.1656
 5632TIP3    H138531   5.140   3.648   1.002 -1.4061  1.4369  0.6509
 5632TIP3    H238532   5.158   3.598   1.144  0.6139 -0.6425 -0.2819
 5633TIP3   OH238533   2.747   7.023   0.702  0.2498 -0.1817 -0.0028
 5633TIP3    H138534   2.667   6.975   0.726 -0.4930  1.7401  1.6390
 5633TIP3    H238535   2.716   7.096   0.648  1.0672 -0.1590 -0.4565
 5634TIP3   OH238536   6.567   3.928   2.589  0.1356 -0.2901 -0.0281
 5634TIP3    H138537   6.524   3.922   2.503  0.4489 -0.3484 -0.1812
 5634TIP3    H238538   6.619   4.009   2.584  0.4624 -0.5003 -0.0337
 5635TIP3   OH238539   6.420   6.650   2.910 -0.5244  0.3007  0.2660
 5635TIP3    H138540   6.478   6.696   2.849 -0.4088  1.6963  1.3651
 5635TIP3    H238541   6.434   6.557   2.891  1.8916  0.5777  0.2811
 5636TIP3   OH238542   6.387   0.619   0.681 -0.4236  0.8776 -0.0374
 5636TIP3    H138543   6.351   0.612   0.592 -0.0103 -0.7319 -0.1081
 5636TIP3    H238544   6.481   0.622   0.668 -0.3634  0.6393  0.3577
 5637TIP3   OH238545   3.152   1.529   0.849 -0.4653 -0.0869 -0.5430
 5637TIP3    H138546   3.154   1.611   0.900  0.4791  0.2119 -1.0391
 5637TIP3    H238547   3.181   1.555   0.762  1.1453 -1.1824 -0.3605
 5638TIP3   OH238548   6.149   0.312   0.074  0.4498 -0.4869  0.0358
 5638TIP3    H138549   6.204   0.389   0.089  0.5307 -0.5548  0.0895
 5638TIP3    H238550   6.142   0.306  -0.021 -3.1075  2.1226 -0.0638
 5639TIP3   OH238551   2.959   1.310   3.074 -0.1853 -0.2787  0.5106
 5639TIP3    H138552   2.965   1.391   3.023 -0.5137 -0.6780 -0.1655
 5639TIP3    H238553   3.046   1.301   3.114  0.1999 -0.1678 -0.2881
 5640TIP3   OH238554   6.695   5.488   0.620  0.4162 -0.1836  0.5677
 5640TIP3    H138555   6.713   5.576   0.653  3.7679 -1.0227  1.4552
 5640TIP3    H238556   6.720   5.491   0.528 -0.9217  0.1231  0.1998
 5641TIP3   OH238557   3.199   3.994   8.053  0.0661 -0.1867  0.3365
 5641TIP3    H138558   3.158   3.914   8.086  1.7248 -1.0586  0.3780
 5641TIP3    H238559   3.141   4.065   8.082 -2.9088 -1.4827 -1.9605
 5642TIP3   OH238560   1.367   4.907   0.443 -0.0119  0.2915 -0.2841
 5642TIP3    H138561   1.273   4.897   0.430  0.1074 -1.4795  0.0346
 5642TIP3    H238562   1.375   4.967   0.517 -0.9044 -0.2380  0.2477
 5643TIP3   OH238563   3.963   3.182   2.352 -0.2411  0.4817 -0.3497
 5643TIP3    H138564   4.002   3.177   2.440  1.3073 -0.6223 -1.0702
 5643TIP3    H238565   3.881   3.132   2.360  1.1020 -1.8076 -0.1191
 5644TIP3   OH238566   1.411   2.646   3.169 -0.4368  0.3852 -0.1359
 5644TIP3    H138567   1.499   2.629   3.204 -0.8637 -0.5224  0.5607
 5644TIP3    H238568   1.418   2.623   3.076  0.0437  0.2609 -0.0743
 5645TIP3   OH238569   0.254   4.772   7.796 -0.0487 -0.5401 -0.4716
 5645TIP3    H138570   0.313   4.776   7.720  0.0145 -1.0053 -0.4500
 5645TIP3    H238571   0.280   4.846   7.850 -0.5563  0.2246 -1.2375
 5646TIP3   OH238572   2.260   1.750   1.842 -0.0631  0.6062 -0.3126
 5646TIP3    H138573   2.321   1.722   1.774 -1.3855  1.0373 -1.7209
 5646TIP3    H238574   2.241   1.670   1.892  0.0746  0.0438 -1.1376
 5647TIP3   OH238575   2.306   0.524   1.152 -0.8169  0.5154 -0.0363
 5647TIP3    H138576   2.320   0.613   1.120 -1.0380  0.3585 -0.5816
 5647TIP3    H238577   2.327   0.529   1.246 -1.8947  1.4049  0.1929
 5648TIP3   OH238578   5.867   6.074   3.658  0.1964 -0.0106 -0.3725
 5648TIP3    H138579   5.918   6.113   3.587  0.3907  1.4558  0.5312
 5648TIP3    H238580   5.884   6.130   3.734  0.4389 -1.8487  1.0005
 5649TIP3   OH238581   0.051   2.247   3.049  0.6930 -0.1711  0.1982
 5649TIP3    H138582  -0.011   2.202   3.107  0.0900  1.5632  0.9995
 5649TIP3    H238583   0.090   2.315   3.105  1.0732  0.7110 -1.0927
 5650TIP3   OH238584   0.245   1.847   1.212  0.6998 -0.5227 -0.3800
 5650TIP3    H138585   0.334   1.832   1.246  0.3585 -2.2395 -0.1666
 5650TIP3    H238586   0.189   1.796   1.270 -0.2442 -0.9153 -1.6142
 5651TIP3   OH238587   6.569   4.318   2.643 -0.4068  0.1674 -0.6160
 5651TIP3    H138588   6.581   4.355   2.730 -2.1320 -3.1364  1.2183
 5651TIP3    H238589   6.477   4.291   2.641 -0.1392 -0.8461 -3.0380
 5652TIP3   OH238590   0.708   5.881   7.226 -0.0705 -0.1417  0.2235
 5652TIP3    H138591   0.782   5.821   7.221 -0.0889 -0.1692  0.2724
 5652TIP3    H238592   0.741   5.955   7.278 -0.6349 -0.9961  1.8732
 5653TIP3   OH238593   0.053   6.360   1.868  0.1944  0.3375 -0.1402
 5653TIP3    H138594   0.023   6.429   1.927 -1.8692 -0.9347  0.3977
 5653TIP3    H238595   0.148   6.374   1.860  0.8284  0.0074  4.2915
 5654TIP3   OH238596   5.215   2.902   0.540  0.2526  0.4442 -0.0742
 5654TIP3    H138597   5.135   2.942   0.506  0.8683  1.1748 -0.7092
 5654TIP3    H238598   5.191   2.871   0.627 -1.4215 -1.6377 -1.1746
 5655TIP3   OH238599   4.535   3.181   1.734  0.1928 -0.2754 -0.5051
 5655TIP3    H138600   4.610   3.230   1.768 -0.6497  1.3397 -0.8472
 5655TIP3    H238601   4.468   3.248   1.719 -0.4569 -1.2990 -2.5905
 5656TIP3   OH238602   4.936   5.456   1.641  0.7839  0.3150 -0.8375
 5656TIP3    H138603   4.892   5.460   1.726 -1.0417 -0.6698 -1.6828
 5656TIP3    H238604   5.015   5.404   1.658 -0.7956 -2.0528 -0.1839
 5657TIP3   OH238605   1.567   2.426   2.796 -0.0055 -0.3449 -0.4774
 5657TIP3    H138606   1.486   2.465   2.828  0.3901 -0.3137  0.5248
 5657TIP3    H238607   1.585   2.354   2.857 -1.4335 -3.0727 -2.9832
 5658TIP3   OH238608   5.470   1.959   2.156 -0.1665  0.3714 -0.4094
 5658TIP3    H138609   5.543   1.932   2.212  0.8054  1.7640 -0.9656
 5658TIP3    H238610   5.403   1.991   2.217  0.0079 -0.1206  0.0485
 5659TIP3   OH238611   4.684   4.837   2.359 -0.2772 -0.1828  0.4881
 5659TIP3    H138612   4.634   4.917   2.374 -0.7235 -0.5184  0.8223
 5659TIP3    H238613   4.690   4.829   2.264  0.1823  0.4977  0.4550
 5660TIP3   OH238614   1.565   0.045   2.938  0.1743  0.0002 -0.1943
 5660TIP3    H138615   1.532   0.134   2.947 -0.3189 -0.1328 -0.5910
 5660TIP3    H238616   1.659   0.052   2.953  0.1963  0.6442 -0.6025
 5661TIP3   OH238617   5.145   0.333   0.303 -0.2699 -0.6575 -0.2268
 5661TIP3    H138618   5.233   0.362   0.279 -0.1212 -0.0848  0.9433
 5661TIP3    H238619   5.149   0.320   0.398 -1.3764 -0.8890 -0.1956
 5662TIP3   OH238620   0.815   1.833   3.159 -0.4134 -0.4769 -0.2551
 5662TIP3    H138621   0.830   1.787   3.077  0.5075  1.9162 -1.4981
 5662TIP3    H238622   0.731   1.877   3.148  0.0189  0.3791 -0.1713
 5663TIP3   OH238623   2.274   1.076   0.072 -0.2768  0.2538 -0.7715
 5663TIP3    H138624   2.356   1.074   0.121  0.8577 -0.0376 -2.5957
 5663TIP3    H238625   2.295   1.033  -0.011 -2.1438  0.6318 -1.4801
 5664TIP3   OH238626   6.869   5.032   3.110 -0.4967  0.2486 -1.2615
 5664TIP3    H138627   6.881   4.937   3.103 -0.3296  0.1818 -0.2422
 5664TIP3    H238628   6.876   5.050   3.204 -1.7744  1.1096 -1.3055
 5665TIP3   OH238629   2.118   4.640   0.793  0.2880  0.6274 -0.6892
 5665TIP3    H138630   2.155   4.552   0.803  0.4893  0.6357 -1.3077
 5665TIP3    H238631   2.027   4.631   0.818  0.3376  0.2677 -0.6299
 5666TIP3   OH238632   2.912   4.167   0.316  0.5861  0.3479 -0.2468
 5666TIP3    H138633   2.850   4.099   0.342  0.4325  0.0163 -1.4195
 5666TIP3    H238634   2.858   4.244   0.300  0.5038  0.1459 -0.9678
 5667TIP3   OH238635   0.285   3.655   0.127  0.3415  0.1030 -0.4724
 5667TIP3    H138636   0.245   3.579   0.086  0.7922 -0.2899 -0.1880
 5667TIP3    H238637   0.221   3.726   0.114  0.4135 -0.0408 -1.7122
 5668TIP3   OH238638   2.104   3.342   1.902 -0.1726 -0.1661 -0.5243
 5668TIP3    H138639   2.083   3.388   1.983  0.8056 -2.5600  1.2028
 5668TIP3    H238640   2.184   3.385   1.870 -1.0750  1.3964 -0.8127
 5669TIP3   OH238641   6.698   1.517   7.648 -0.2717  0.1121 -0.1730
 5669TIP3    H138642   6.687   1.424   7.669  0.0324  0.4349  1.5794
 5669TIP3    H238643   6.747   1.553   7.722 -3.4307  2.4080  0.9897
 5670TIP3   OH238644   0.054   1.751   8.031  0.1944  0.0777 -0.0743
 5670TIP3    H138645   0.014   1.804   7.962 -2.8999  0.5497  1.8675
 5670TIP3    H238646   0.050   1.661   7.998  0.8823  0.5147 -1.3875
 5671TIP3   OH238647   0.899   4.507   1.798  0.1365 -0.4184 -0.4579
 5671TIP3    H138648   0.932   4.467   1.718  1.6011 -2.0086  0.8548
 5671TIP3    H238649   0.908   4.439   1.865 -1.3680  0.7184  1.0135
 5672TIP3   OH238650   2.788   4.546   1.393  0.4281 -0.1485 -0.2695
 5672TIP3    H138651   2.706   4.555   1.345 -0.6562 -0.4018  1.4509
 5672TIP3    H238652   2.789   4.456   1.424  0.6111  0.2673  0.9893
 5673TIP3   OH238653   4.812   3.360   1.026  0.4804 -0.2057  0.0309
 5673TIP3    H138654   4.795   3.396   0.939  1.1484 -0.5056 -0.2344
 5673TIP3    H238655   4.744   3.295   1.040 -1.8275  2.2713  1.2336
 5674TIP3   OH238656   3.838   1.478   8.127 -0.1618  0.5704  0.1370
 5674TIP3    H138657   3.866   1.490   8.217 -0.1234 -0.8023  0.3278
 5674TIP3    H238658   3.742   1.472   8.131 -0.1211 -0.1256  0.1769
 5675TIP3   OH238659   0.224   2.936   3.643  0.3039 -0.2136  0.0956
 5675TIP3    H138660   0.274   2.918   3.723  0.0232 -2.5838 -0.1832
 5675TIP3    H238661   0.145   2.980   3.674  1.1464  0.7782  0.8843
 5676TIP3   OH238662   1.359   5.615   1.311  0.3095 -0.6035 -0.0233
 5676TIP3    H138663   1.448   5.611   1.345  0.2777  0.3016  0.2145
 5676TIP3    H238664   1.316   5.538   1.346  0.2720  0.2890  2.0437
 5677TIP3   OH238665   0.710   3.290   0.758 -0.1302 -0.6445 -0.3130
 5677TIP3    H138666   0.790   3.327   0.795  0.8219  0.4473 -3.2244
 5677TIP3    H238667   0.735   3.203   0.728  0.1862 -0.0891 -1.7396
 5678TIP3   OH238668   2.437   5.575   1.534  0.3050  0.1067  0.0473
 5678TIP3    H138669   2.492   5.506   1.495 -2.3866 -0.7772 -2.5666
 5678TIP3    H238670   2.441   5.647   1.472  0.0743  0.7885  0.8151
 5679TIP3   OH238671   4.095   6.126   3.351  0.5587  0.4924 -0.4194
 5679TIP3    H138672   4.116   6.220   3.358  1.5269  0.2399  0.3627
 5679TIP3    H238673   4.119   6.091   3.437 -0.4005 -0.3728 -0.4863
 5680TIP3   OH238674   2.358   2.079   1.368  0.1857 -0.5542 -0.2317
 5680TIP3    H138675   2.306   2.159   1.375  0.3653 -0.4790  0.2770
 5680TIP3    H238676   2.355   2.057   1.275 -0.8288 -0.5922 -0.2067
 5681TIP3   OH238677   0.260   0.320   0.944 -0.3759  0.5315 -0.2643
 5681TIP3    H138678   0.355   0.316   0.934 -0.2150  0.8797  0.9609
 5681TIP3    H238679   0.226   0.317   0.855  0.8365  1.7628 -0.8033
 5682TIP3   OH238680   0.837   3.656   7.827  0.0654 -0.1341 -0.4423
 5682TIP3    H138681   0.780   3.624   7.897  0.3104 -0.4639 -0.3941
 5682TIP3    H238682   0.780   3.661   7.750  0.2460 -1.6302 -0.7040
 5683TIP3   OH238683   4.000   2.567   1.616 -0.2189 -0.0859  0.1135
 5683TIP3    H138684   3.924   2.531   1.663 -1.1087  0.3321 -0.9736
 5683TIP3    H238685   3.963   2.615   1.543  1.0369  1.3659  0.3693
 5684TIP3   OH238686   4.073   6.423   0.069  0.0215  0.3040 -0.3385
 5684TIP3    H138687   4.010   6.473   0.016  0.1236  2.7044  1.6072
 5684TIP3    H238688   4.018   6.375   0.131 -0.0283  1.8483  0.8967
 5685TIP3   OH238689   6.079   4.485   1.468  0.3637 -0.0844 -0.0708
 5685TIP3    H138690   6.166   4.481   1.430  0.4723  0.1060  0.1604
 5685TIP3    H238691   6.063   4.578   1.485 -0.4128  0.0430 -1.3352
 5686TIP3   OH238692   1.131   2.090   3.513 -0.3365  0.2348  0.1879
 5686TIP3    H138693   1.202   2.130   3.463 -1.2639  1.3021 -0.3485
 5686TIP3    H238694   1.083   2.037   3.448 -0.9181  0.7589  0.1783
 5687TIP3   OH238695   1.654   6.496   7.318  0.6039  0.0369  0.5783
 5687TIP3    H138696   1.633   6.404   7.306  0.9190  0.0609 -0.2407
 5687TIP3    H238697   1.571   6.537   7.344  0.0559 -0.1874 -0.7560
 5688TIP3   OH238698   4.693   3.515   1.548  0.0020 -0.1320  0.5139
 5688TIP3    H138699   4.647   3.447   1.500 -1.9609  0.7109  1.0962
 5688TIP3    H238700   4.682   3.491   1.640  1.8920 -0.5963  0.6604
 5689TIP3   OH238701   5.654   6.333   3.083  0.0950  0.3746 -0.5094
 5689TIP3    H138702   5.724   6.321   3.146 -0.8010  2.6184  1.0513
 5689TIP3    H238703   5.696   6.377   3.008  0.6612  0.2035 -0.2930
 5690TIP3   OH238704   1.291   6.515   2.918  0.0277  0.2372 -0.5547
 5690TIP3    H138705   1.277   6.595   2.868  0.4373  0.2377 -0.6671
 5690TIP3    H238706   1.307   6.544   3.007 -0.2286  0.2576 -0.5132
 5691TIP3   OH238707   6.579   5.425   7.832 -0.6054  0.0070 -0.2613
 5691TIP3    H138708   6.500   5.474   7.855 -0.5037  0.6480 -1.2251
 5691TIP3    H238709   6.628   5.484   7.776 -0.5288 -1.2247 -1.5491
 5692TIP3   OH238710   3.533   5.778   1.991  0.1177 -0.1450  0.1335
 5692TIP3    H138711   3.508   5.858   1.946  1.9728  0.0580 -0.6182
 5692TIP3    H238712   3.486   5.782   2.074 -1.2731  0.7821 -0.6474
 5693TIP3   OH238713   0.529   0.981   7.308 -0.0011 -0.7620 -0.1536
 5693TIP3    H138714   0.500   1.069   7.333  0.6425 -0.2944 -1.0140
 5693TIP3    H238715   0.448   0.929   7.306 -0.2486 -0.5328  1.5773
 5694TIP3   OH238716   4.783   2.107   2.897 -0.1043  0.1028 -0.0805
 5694TIP3    H138717   4.725   2.143   2.963 -1.5469 -0.1751 -1.1381
 5694TIP3    H238718   4.780   2.012   2.910 -1.7309 -0.0938 -1.5301
 5695TIP3   OH238719   2.549   4.798   1.329 -0.2660 -0.2233 -0.1446
 5695TIP3    H138720   2.541   4.787   1.424  1.4957  1.4271  0.2492
 5695TIP3    H238721   2.635   4.838   1.317 -1.8756  3.0444 -2.1049
 5696TIP3   OH238722   1.708   3.082   8.175 -0.2493  0.1623 -0.1761
 5696TIP3    H138723   1.669   3.117   8.095  0.5118  0.2029 -0.5313
 5696TIP3    H238724   1.802   3.081   8.158 -0.2175 -2.0682 -0.1981
 5697TIP3   OH238725   2.143   2.677   1.851  0.4345 -0.8116  0.5695
 5697TIP3    H138726   2.192   2.709   1.776  0.5641 -1.3789  0.4104
 5697TIP3    H238727   2.057   2.654   1.816  0.6638 -1.5673  0.4897
 5698TIP3   OH238728   1.060   0.089   7.745 -0.0700  0.0711  0.2803
 5698TIP3    H138729   1.088   0.002   7.716  2.3154  0.6203  0.7882
 5698TIP3    H238730   0.973   0.074   7.784 -1.3988 -1.4262 -2.9022
 5699TIP3   OH238731   4.442   3.199   2.771 -0.0858 -0.3043 -0.2390
 5699TIP3    H138732   4.509   3.242   2.825  0.9447 -0.6642 -1.1806
 5699TIP3    H238733   4.362   3.206   2.822  1.2158 -2.5319  2.4030
 5700TIP3   OH238734   4.061   2.721   7.435  0.0365 -0.0946 -0.1068
 5700TIP3    H138735   4.151   2.693   7.446  0.3103  0.6149 -0.5168
 5700TIP3    H238736   4.052   2.799   7.490  0.2664  1.0479 -1.6172
 5701TIP3   OH238737   4.715   5.558   1.849  0.5738  0.3053  0.5096
 5701TIP3    H138738   4.693   5.641   1.806  2.9299  1.0654  0.6204
 5701TIP3    H238739   4.767   5.584   1.925  3.9829 -1.2815 -1.0862
 5702TIP3   OH238740   5.305   5.028   0.096 -0.0654 -0.1337 -0.1993
 5702TIP3    H138741   5.295   5.012   0.002 -0.8547  0.3868 -0.2159
 5702TIP3    H238742   5.243   4.968   0.137 -1.6240  1.4415 -0.1648
 5703TIP3   OH238743   2.241   6.008   1.627 -0.0477 -0.4851  0.0026
 5703TIP3    H138744   2.219   6.100   1.614 -0.2348 -0.7663 -2.1601
 5703TIP3    H238745   2.171   5.974   1.682 -0.0532  0.6219  0.7008
 5704TIP3   OH238746   0.400   2.165   1.505  0.2400 -0.0381 -0.1610
 5704TIP3    H138747   0.400   2.137   1.414  0.0827 -0.3020 -0.0804
 5704TIP3    H238748   0.459   2.104   1.549  1.5035  1.0009 -0.3611
 5705TIP3   OH238749   3.471   6.027   1.906 -0.3686  0.6556  0.2228
 5705TIP3    H138750   3.407   6.016   1.836 -0.9730 -0.6182  0.9518
 5705TIP3    H238751   3.439   6.103   1.955 -1.6711 -0.2932  0.9071
 5706TIP3   OH238752   0.455   6.649   7.475  0.0694  0.3448  0.0319
 5706TIP3    H138753   0.478   6.707   7.547 -0.5019 -2.6703  2.8376
 5706TIP3    H238754   0.539   6.619   7.440  0.3305  1.1449 -0.0710
 5707TIP3   OH238755   0.562   4.341   7.600 -0.7498  0.3975 -1.0860
 5707TIP3    H138756   0.566   4.436   7.613  2.1615  0.0734  1.2320
 5707TIP3    H238757   0.537   4.331   7.508  0.2076  3.4395 -1.8005
 5708TIP3   OH238758   3.530   3.101   2.887 -0.2594  0.9182  0.3792
 5708TIP3    H138759   3.514   3.045   2.963 -1.8903 -0.4937 -0.9168
 5708TIP3    H238760   3.448   3.149   2.875 -0.6737 -0.1359 -1.4226
 5709TIP3   OH238761   5.949   3.305   2.029 -0.2371 -0.3388  0.4313
 5709TIP3    H138762   5.933   3.210   2.026 -1.7019 -0.0932 -1.8850
 5709TIP3    H238763   5.993   3.324   1.946  2.1066  0.7582  1.8225
 5710TIP3   OH238764   3.737   3.282   7.552  0.6094  0.3117 -0.8696
 5710TIP3    H138765   3.823   3.270   7.592 -1.1144 -0.3893  3.1927
 5710TIP3    H238766   3.722   3.377   7.553  0.7179  0.3252 -0.0059
 5711TIP3   OH238767   3.881   4.450   1.359  0.5098  0.2512  0.2980
 5711TIP3    H138768   3.844   4.431   1.273  1.6812  1.1810 -0.4338
 5711TIP3    H238769   3.906   4.543   1.354  2.6032 -0.2506  0.8819
 5712TIP3   OH238770   3.416   2.447   1.779  0.1982  0.8067  0.2980
 5712TIP3    H138771   3.419   2.355   1.802 -2.0536  0.9888  1.6198
 5712TIP3    H238772   3.463   2.492   1.849  1.9497  0.6749 -0.7271
 5713TIP3   OH238773   5.922   6.801   1.414  0.1047  0.1752 -0.3188
 5713TIP3    H138774   5.980   6.791   1.490 -0.9750 -0.6918  0.4301
 5713TIP3    H238775   5.981   6.821   1.341  1.2404  0.3059  0.6031
 5714TIP3   OH238776   5.598   6.611   8.181 -0.3717  0.2077  0.0851
 5714TIP3    H138777   5.605   6.686   8.240 -0.1520  0.6416 -0.4941
 5714TIP3    H238778   5.517   6.567   8.209 -0.1758  0.3013  0.8303
 5715TIP3   OH238779   0.303   3.954   0.918  0.3757  0.2649 -0.4640
 5715TIP3    H138780   0.383   3.985   0.876 -0.2427  1.2342 -0.9692
 5715TIP3    H238781   0.331   3.926   1.005  1.5474 -1.0721 -1.2331
 5716TIP3   OH238782   5.285   4.183   0.451 -0.3518  0.3179  0.0080
 5716TIP3    H138783   5.335   4.214   0.375  1.2826  3.1399  2.0511
 5716TIP3    H238784   5.326   4.099   0.472  1.7866  1.2677 -0.0386
 5717TIP3   OH238785   1.253   6.040   3.176  0.1035  0.1941  0.1314
 5717TIP3    H138786   1.310   6.117   3.178 -0.7860  0.8802 -0.4445
 5717TIP3    H238787   1.203   6.045   3.258  0.0414  0.2356  0.0914
 5718TIP3   OH238788   3.819   0.067   1.518 -0.5380  0.7352 -0.7780
 5718TIP3    H138789   3.769   0.058   1.599  1.5389 -0.3984  0.4611
 5718TIP3    H238790   3.770   0.131   1.466 -3.1237 -0.1445  0.3937
 5719TIP3   OH238791   6.482   6.224   1.383  0.1025 -0.3020  0.1275
 5719TIP3    H138792   6.532   6.210   1.302  1.3448  0.4426  0.7266
 5719TIP3    H238793   6.528   6.295   1.427 -3.0053  2.2880 -0.4564
 5720TIP3   OH238794   1.621   4.814   2.763 -0.3976  0.2809 -0.0448
 5720TIP3    H138795   1.660   4.802   2.850  1.4122  1.4663 -0.6244
 5720TIP3    H238796   1.539   4.861   2.780  0.2149  1.0139  1.0001
 5721TIP3   OH238797   6.500   5.691   2.890  0.4678 -0.4851 -0.4985
 5721TIP3    H138798   6.451   5.699   2.971  2.9737  2.4089  0.9371
 5721TIP3    H238799   6.577   5.639   2.914  0.7005 -0.5147 -1.2873
 5722TIP3   OH238800   2.151   5.092   1.497 -0.5290  0.8671 -0.1413
 5722TIP3    H138801   2.112   5.066   1.580  0.2983  0.2806  0.0738
 5722TIP3    H238802   2.245   5.080   1.510 -0.4657 -0.5399 -1.5928
 5723TIP3   OH238803   0.707   1.678   1.484 -0.2116  0.0532 -0.1584
 5723TIP3    H138804   0.800   1.667   1.467 -0.0294 -0.7497  1.2282
 5723TIP3    H238805   0.670   1.590   1.478 -0.6065  0.1404  0.7794
 5724TIP3   OH238806   0.341   5.996   2.371 -0.7509  0.0878 -0.3402
 5724TIP3    H138807   0.323   5.905   2.394 -0.2991  0.2912  0.9029
 5724TIP3    H238808   0.378   5.992   2.283 -0.7524 -0.9234 -0.3033
 5725TIP3   OH238809   6.156   5.137   3.262  0.3981 -0.3365  0.3137
 5725TIP3    H138810   6.076   5.147   3.315  0.4575 -0.2880  0.3931
 5725TIP3    H238811   6.123   5.120   3.174  0.2477 -3.0780  0.8120
 5726TIP3   OH238812   6.637   4.813   3.756 -0.4412  0.3190  0.0115
 5726TIP3    H138813   6.607   4.796   3.667 -1.5399 -3.6228  0.9058
 5726TIP3    H238814   6.558   4.840   3.803 -0.5813 -0.6735  0.3764
 5727TIP3   OH238815   2.437   1.270   0.368 -0.3309  0.2231 -0.4442
 5727TIP3    H138816   2.510   1.283   0.429  0.4756  0.2169 -1.3730
 5727TIP3    H238817   2.427   1.354   0.324 -1.6588  0.5675  0.4665
 5728TIP3   OH238818   2.401   3.163   0.792  0.0964  0.7062  0.4205
 5728TIP3    H138819   2.450   3.081   0.787  0.6815  0.9726  1.5183
 5728TIP3    H238820   2.350   3.166   0.710  1.2254 -0.0054 -0.3369
 5729TIP3   OH238821   5.015   4.590   2.768  0.6869  0.0895  0.7439
 5729TIP3    H138822   5.109   4.582   2.756  0.5820  0.9294 -0.8431
 5729TIP3    H238823   4.977   4.548   2.690 -0.2516 -0.0471  1.2563
 5730TIP3   OH238824   1.661   1.330   2.265  0.2611  0.2009 -0.0609
 5730TIP3    H138825   1.698   1.416   2.282 -0.9119  0.5479  0.8541
 5730TIP3    H238826   1.567   1.341   2.275  0.0513 -1.1026 -0.3163
 5731TIP3   OH238827   3.119   1.191   0.661 -0.2469  0.1251 -0.1101
 5731TIP3    H138828   3.180   1.265   0.651 -0.0243 -0.1691 -1.0829
 5731TIP3    H238829   3.175   1.114   0.663 -0.5401 -0.0919 -0.2323
 5732TIP3   OH238830   5.241   3.649   2.526 -0.4204 -0.4073 -0.1921
 5732TIP3    H138831   5.269   3.638   2.436 -0.2916  0.0441 -0.2097
 5732TIP3    H238832   5.322   3.656   2.576 -0.4722 -1.6397  0.0960
 5733TIP3   OH238833   4.330   6.084   2.588  0.0368 -0.5290  1.0721
 5733TIP3    H138834   4.381   6.005   2.603 -0.3943 -1.0649 -0.1543
 5733TIP3    H238835   4.324   6.091   2.493 -1.1288  0.2051  1.1775
 5734TIP3   OH238836   3.120   4.227   7.234  0.0691  0.0978  0.4344
 5734TIP3    H138837   3.089   4.232   7.144  2.1981 -0.9616 -0.4274
 5734TIP3    H238838   3.087   4.144   7.267  2.5576 -1.4809 -0.7908
 5735TIP3   OH238839   4.329   4.945   0.812 -0.0082  0.3643 -0.3738
 5735TIP3    H138840   4.316   4.851   0.799 -0.7985  0.3955  0.0965
 5735TIP3    H238841   4.283   4.964   0.894  3.1927  0.5332  1.5158
 5736TIP3   OH238842   4.378   4.075   2.246 -0.0294  0.5949 -0.5647
 5736TIP3    H138843   4.331   4.144   2.292 -1.2416 -0.6719  0.1939
 5736TIP3    H238844   4.329   4.062   2.165 -0.5894 -0.2161 -0.1162
 5737TIP3   OH238845   0.700   3.543   2.566 -0.3038  0.4491  0.0659
 5737TIP3    H138846   0.667   3.630   2.588  0.8767  0.6249  1.3269
 5737TIP3    H238847   0.733   3.509   2.649 -1.3634 -1.5069 -0.2548
 5738TIP3   OH238848   5.102   1.274   3.042  0.5882 -0.4539  0.1327
 5738TIP3    H138849   5.105   1.370   3.036  3.0135 -0.4438  0.3950
 5738TIP3    H238850   5.088   1.246   2.952 -1.8294  0.1058  0.2630
 5739TIP3   OH238851   3.947   5.048   0.490 -0.1424 -0.1140 -0.0428
 5739TIP3    H138852   4.026   5.048   0.435  0.3004  0.8031  0.5589
 5739TIP3    H238853   3.951   4.965   0.537  1.0355  0.3639  0.7457
 5740TIP3   OH238854   0.310   0.677   0.769  0.4505 -0.3330  0.1300
 5740TIP3    H138855   0.367   0.652   0.842  1.7758  1.4933 -0.1869
 5740TIP3    H238856   0.272   0.761   0.795 -2.9921 -1.9166  0.7346
 5741TIP3   OH238857   0.063   2.072   0.385  0.1729 -0.2293 -0.1675
 5741TIP3    H138858   0.137   2.086   0.445 -0.3755  1.2270  0.2132
 5741TIP3    H238859  -0.012   2.056   0.443  0.3106 -2.7064 -0.5556
 5742TIP3   OH238860   1.843   2.623   7.752 -0.1669  0.0525 -0.1734
 5742TIP3    H138861   1.800   2.539   7.764 -0.3360  0.2444  0.5987
 5742TIP3    H238862   1.776   2.680   7.715 -0.3263  0.1142  0.2135
 5743TIP3   OH238863   0.468   0.816   0.343  0.4575  0.1027 -0.1175
 5743TIP3    H138864   0.402   0.871   0.387 -0.9575  0.1030 -2.1172
 5743TIP3    H238865   0.521   0.879   0.294  0.7128 -0.0718 -0.0612
 5744TIP3   OH238866   5.504   7.004   3.120  0.2028 -0.3472  1.2092
 5744TIP3    H138867   5.485   6.980   3.211 -0.2653  0.8187  1.4340
 5744TIP3    H238868   5.599   6.992   3.112  0.1200 -1.3636  1.5613
 5745TIP3   OH238869   0.681   1.438   0.161 -0.0630 -0.2551 -0.1659
 5745TIP3    H138870   0.622   1.362   0.155  0.5444 -0.7456 -0.0678
 5745TIP3    H238871   0.769   1.400   0.156  0.2715  0.3260  1.0130
 5746TIP3   OH238872   6.664   4.885   1.936 -0.5511 -0.1193 -0.0626
 5746TIP3    H138873   6.577   4.855   1.963 -0.8945  0.1693 -0.8107
 5746TIP3    H238874   6.659   4.890   1.841 -0.3968  1.8961 -0.0169
 5747TIP3   OH238875   5.943   3.140   0.068  0.2450  0.0815  0.4176
 5747TIP3    H138876   5.866   3.157   0.122 -0.7491 -0.6690 -0.7261
 5747TIP3    H238877   5.978   3.058   0.102  0.9132  0.7014  1.3052
 5748TIP3   OH238878   0.940   6.763   3.495  0.5593  0.1044  0.2736
 5748TIP3    H138879   1.030   6.777   3.527  0.0125  1.0468  1.4902
 5748TIP3    H238880   0.905   6.852   3.485 -1.0840 -0.2381  2.3895
 5749TIP3   OH238881   1.041   0.572   7.881  0.3783 -0.4190  0.2020
 5749TIP3    H138882   1.052   0.628   7.958 -3.2795 -1.5940  1.7987
 5749TIP3    H238883   0.992   0.626   7.819 -1.2287 -1.0676  0.8630
 5750TIP3   OH238884   4.006   2.417   2.050  0.1836  0.0850 -0.0419
 5750TIP3    H138885   3.954   2.382   1.977  1.2264  0.7712 -1.1487
 5750TIP3    H238886   4.089   2.442   2.010  0.4707  1.2647  1.2408
 5751TIP3   OH238887   0.060   3.876   0.822  0.9118 -0.2027 -0.3227
 5751TIP3    H138888   0.138   3.907   0.868  0.5518  0.5662 -0.2094
 5751TIP3    H238889   0.070   3.781   0.818  1.1125 -0.2519  1.0447
 5752TIP3   OH238890   2.230   4.391   0.834 -0.3503 -0.0051 -0.1460
 5752TIP3    H138891   2.308   4.430   0.873  0.9393 -1.1069 -1.5162
 5752TIP3    H238892   2.264   4.325   0.774 -2.3642 -0.7703 -0.5075
 5753TIP3   OH238893   3.137   3.773   1.098 -0.3376  0.3891 -0.6384
 5753TIP3    H138894   3.224   3.733   1.101 -0.3793  0.3420  0.8631
 5753TIP3    H238895   3.152   3.864   1.122 -0.3624  1.1302 -3.1912
 5754TIP3   OH238896   2.468   4.220   3.470  0.0683 -0.6194 -0.4258
 5754TIP3    H138897   2.487   4.253   3.381 -1.1342 -0.2072 -0.5408
 5754TIP3    H238898   2.464   4.125   3.460 -4.6497 -0.5065 -1.8638
 5755TIP3   OH238899   2.613   4.507   1.970  0.0092 -0.0883 -0.0477
 5755TIP3    H138900   2.533   4.537   1.927  0.5043 -0.1335 -1.0106
 5755TIP3    H238901   2.684   4.555   1.928  0.4408  0.5636  1.3590
 5756TIP3   OH238902   2.955   2.377   0.163  0.1673  0.3510  0.2643
 5756TIP3    H138903   2.931   2.405   0.252  0.1056  2.2732 -0.3123
 5756TIP3    H238904   2.871   2.364   0.119  0.2014  0.1638  0.2532
 5757TIP3   OH238905   3.724   4.567   3.564 -0.2616  0.4095  0.6239
 5757TIP3    H138906   3.770   4.601   3.640 -0.8282  0.6667  0.8586
 5757TIP3    H238907   3.769   4.485   3.543  1.7978  1.7570 -0.5829
 5758TIP3   OH238908   3.861   0.301   2.462 -0.0753 -0.6358 -0.2284
 5758TIP3    H138909   3.932   0.346   2.508  0.1987 -0.3580 -0.9074
 5758TIP3    H238910   3.781   0.341   2.496  0.1608  0.4013 -0.8208
 5759TIP3   OH238911   5.979   4.446   3.286  0.1100  0.1093  0.4198
 5759TIP3    H138912   5.890   4.458   3.319  0.3126 -1.2620  1.5191
 5759TIP3    H238913   6.028   4.520   3.321 -0.4953  0.6642  0.1162
 5760TIP3   OH238914   1.267   5.256   2.191  0.0237 -0.0555 -0.6774
 5760TIP3    H138915   1.199   5.241   2.255 -0.2649 -2.4492 -1.4566
 5760TIP3    H238916   1.237   5.333   2.142 -0.1210  1.3344  1.4641
 5761TIP3   OH238917   7.050   4.589   3.023 -0.0097 -0.0816 -0.2829
 5761TIP3    H138918   7.084   4.602   3.111  1.1581  2.7373 -1.0203
 5761TIP3    H238919   7.118   4.541   2.977 -0.5006 -1.3099  0.2446
 5762TIP3   OH238920   4.647   0.974   8.020 -0.3736 -0.4520  0.7572
 5762TIP3    H138921   4.559   0.941   8.004 -0.0659 -1.4473  1.0481
 5762TIP3    H238922   4.635   1.046   8.082 -0.9419 -0.9174  1.1997
 5763TIP3   OH238923   4.093   0.913   0.691  0.2570  0.6662 -0.2908
 5763TIP3    H138924   4.178   0.926   0.649 -0.3374  2.2646 -1.0912
 5763TIP3    H238925   4.030   0.945   0.626 -1.0547 -1.3147 -0.0931
 5764TIP3   OH238926   2.826   5.113   0.508  0.0405  0.3731 -0.2052
 5764TIP3    H138927   2.871   5.145   0.586  0.4848  0.7080 -0.5980
 5764TIP3    H238928   2.733   5.133   0.524  0.2171  1.1290 -0.0887
 5765TIP3   OH238929   7.061   2.940   0.139  0.6623  0.0247  0.1435
 5765TIP3    H138930   7.014   3.013   0.098  0.0529 -0.2995  0.2537
 5765TIP3    H238931   7.050   2.955   0.233  2.0344  0.7534  0.2131
 5766TIP3   OH238932   2.080   6.196   8.044  0.1020  0.4205 -0.4287
 5766TIP3    H138933   2.065   6.259   8.114  2.8000  0.5733  0.1417
 5766TIP3    H238934   2.096   6.113   8.090 -1.1498 -0.1964 -1.0575
 5767TIP3   OH238935   1.444   1.865   0.083 -1.0388  0.3322  0.4311
 5767TIP3    H138936   1.526   1.914   0.091 -1.0347  0.4593 -0.2931
 5767TIP3    H238937   1.428   1.860  -0.011 -1.1871 -0.8335  0.5012
 5768TIP3   OH238938   6.280   6.448   1.405 -0.6974 -0.7083 -0.4305
 5768TIP3    H138939   6.319   6.364   1.382 -1.2808 -1.0384 -0.2379
 5768TIP3    H238940   6.194   6.446   1.364 -1.4867 -1.0075  1.1655
 5769TIP3   OH238941   3.454   5.627   0.272 -0.5424 -0.3449 -0.7656
 5769TIP3    H138942   3.480   5.618   0.180  0.6008  0.8451 -0.5742
 5769TIP3    H238943   3.360   5.645   0.268 -0.8758 -1.9833 -1.5942
 5770TIP3   OH238944   3.299   5.251   0.620  0.8374 -0.3460  0.3458
 5770TIP3    H138945   3.250   5.319   0.666  1.0043  0.3446 -0.4714
 5770TIP3    H238946   3.242   5.174   0.623 -0.0660  0.2844 -0.1072
 5771TIP3   OH238947   3.788   4.408   1.100  0.1704  0.4530  0.2046
 5771TIP3    H138948   3.869   4.398   1.049  0.7386 -0.7079  1.2670
 5771TIP3    H238949   3.728   4.343   1.063 -0.1659  1.0545 -0.3340
 5772TIP3   OH238950   6.096   4.305   2.753  0.0418  0.1380 -0.5473
 5772TIP3    H138951   6.077   4.288   2.661 -0.7193  0.9122 -0.5480
 5772TIP3    H238952   6.020   4.271   2.800  0.3389 -0.0762 -0.2160
 5773TIP3   OH238953   0.650   2.693   0.058 -0.4832 -0.2511  0.4034
 5773TIP3    H138954   0.721   2.703   0.122  0.8041 -1.4487 -0.7589
 5773TIP3    H238955   0.635   2.781   0.025  2.4221 -0.2633 -1.2827
 5774TIP3   OH238956   3.226   5.832   8.047  0.1023  0.5445 -0.1317
 5774TIP3    H138957   3.236   5.750   8.096 -0.2523  0.8627  0.4891
 5774TIP3    H238958   3.273   5.817   7.965 -0.4779 -0.5039 -0.2884
 5775TIP3   OH238959   1.033   1.731   1.330 -0.7777 -0.1029  0.2157
 5775TIP3    H138960   1.081   1.740   1.247  1.6131  2.5486  1.6642
 5775TIP3    H238961   1.039   1.638   1.351  2.7140 -0.1644 -0.4024
 5776TIP3   OH238962   5.250   2.657   7.713  0.4623 -0.5218  0.5131
 5776TIP3    H138963   5.297   2.606   7.779 -2.3823 -1.9972  1.5468
 5776TIP3    H238964   5.193   2.594   7.669 -0.4117  1.1066 -0.8255
 5777TIP3   OH238965   6.107   0.113   1.313  0.2552  0.2038  1.0306
 5777TIP3    H138966   6.127   0.206   1.313  0.3051  0.1977  0.5275
 5777TIP3    H238967   6.013   0.108   1.298  0.2079  0.1767  1.3234
 5778TIP3   OH238968   5.057   1.394   1.496  0.2381  0.9618  0.2628
 5778TIP3    H138969   4.970   1.433   1.496 -0.0205  0.3885  0.5465
 5778TIP3    H238970   5.114   1.464   1.527 -0.5015  0.5256  2.7881
 5779TIP3   OH238971   0.502   1.114   7.655  0.1442  0.5699 -0.3184
 5779TIP3    H138972   0.590   1.108   7.618  0.9705  0.0026  1.5746
 5779TIP3    H238973   0.488   1.207   7.670  0.8231  0.5945  0.2144
 5780TIP3   OH238974   6.319   3.286   2.335 -0.1741 -0.0276 -0.5947
 5780TIP3    H138975   6.300   3.216   2.273 -0.0521 -0.5016 -0.1050
 5780TIP3    H238976   6.294   3.367   2.290 -1.4655 -0.4821 -0.7123
 5781TIP3   OH238977   4.326   5.069   2.133 -0.5977 -0.3113  0.4474
 5781TIP3    H138978   4.364   5.155   2.152  0.4994 -0.8083  0.5590
 5781TIP3    H238979   4.284   5.043   2.215  1.4088 -1.0611  1.2821
 5782TIP3   OH238980   7.011   6.963   8.277  0.0073  0.8523 -0.7510
 5782TIP3    H138981   7.083   7.016   8.242  1.0506 -1.4314 -2.3477
 5782TIP3    H238982   7.050   6.877   8.291 -1.7017  0.3512  1.3764
 5783TIP3   OH238983   2.558   0.446   0.886  0.4666 -0.1949  0.3330
 5783TIP3    H138984   2.635   0.405   0.848 -0.2590  0.3716 -1.8892
 5783TIP3    H238985   2.493   0.446   0.815 -1.0744  0.6761  1.6692
 5784TIP3   OH238986   1.253   6.752   3.222  0.1539  0.0602 -0.1257
 5784TIP3    H138987   1.331   6.748   3.277  0.4887 -0.1515 -0.6123
 5784TIP3    H238988   1.283   6.787   3.138 -0.6903  2.1617  0.3944
 5785TIP3   OH238989   6.225   1.736   2.529  0.4620  0.4410 -0.7970
 5785TIP3    H138990   6.136   1.740   2.565  0.8255 -0.0897  0.2067
 5785TIP3    H238991   6.251   1.827   2.519  0.3742  0.6178  0.4043
 5786TIP3   OH238992   2.977   5.529   0.477 -0.0932  0.0437 -0.4409
 5786TIP3    H138993   2.972   5.568   0.565 -0.3454 -1.5047  0.2594
 5786TIP3    H238994   2.886   5.527   0.447 -0.0289  0.3890 -0.6663
 5787TIP3   OH238995   5.238   2.710   1.847  0.3375 -0.1185 -0.1098
 5787TIP3    H138996   5.151   2.750   1.851 -0.2360 -1.3660  0.8196
 5787TIP3    H238997   5.245   2.660   1.929  2.2445  0.5504  0.1869
 5788TIP3   OH238998   2.799   6.337   0.884 -0.2363  0.4022  0.5028
 5788TIP3    H138999   2.733   6.273   0.855  1.6406 -1.4895  0.1209
 5788TIP3    H239000   2.794   6.335   0.979 -0.3148 -0.1790  0.4899
 5789TIP3   OH239001   6.439   1.999   3.757  0.3437 -0.4832 -0.3862
 5789TIP3    H139002   6.514   1.961   3.802 -0.5412 -1.0096  0.7036
 5789TIP3    H239003   6.425   2.083   3.802  0.1452 -0.4919 -0.4296
 5790TIP3   OH239004   6.275   5.974   2.140  0.2658 -0.5986 -0.6972
 5790TIP3    H139005   6.320   6.040   2.193 -1.5111  1.3462 -1.4377
 5790TIP3    H239006   6.306   5.890   2.173  1.3091  0.5721  1.5107
 5791TIP3   OH239007   0.650   3.276   1.248 -0.0396  0.8716 -0.5713
 5791TIP3    H139008   0.619   3.367   1.246 -1.3369  0.5301  1.2508
 5791TIP3    H239009   0.744   3.283   1.233 -0.0536  2.5730 -0.1111
 5792TIP3   OH239010   7.055   2.614   2.130  0.1120  0.3194  0.5579
 5792TIP3    H139011   7.028   2.611   2.222  2.4694 -3.3222  1.3512
 5792TIP3    H239012   6.975   2.632   2.082 -1.4807  0.8952  3.2194
 5793TIP3   OH239013   5.307   3.469   0.488 -0.1987 -0.3440 -0.1746
 5793TIP3    H139014   5.273   3.495   0.573 -1.6804 -1.0944 -0.4918
 5793TIP3    H239015   5.266   3.384   0.471  0.3514 -0.3814 -1.4703
 5794TIP3   OH239016   4.755   7.023   1.572  0.2897 -0.1574  0.7549
 5794TIP3    H139017   4.838   7.008   1.527 -1.1247 -1.3246 -1.6462
 5794TIP3    H239018   4.690   6.975   1.520 -2.0426  1.4001  2.0522
 5795TIP3   OH239019   1.058   5.762   1.163 -0.0051  0.6839 -0.0840
 5795TIP3    H139020   1.047   5.740   1.070  0.5860  1.0766 -0.2533
 5795TIP3    H239021   1.151   5.786   1.171 -0.0858  0.7912  0.5789
 5796TIP3   OH239022   2.830   3.690   8.254 -0.8441 -0.4758  0.3599
 5796TIP3    H139023   2.760   3.753   8.271 -1.4177 -0.9785 -0.0927
 5796TIP3    H239024   2.859   3.663   8.342 -1.1924 -0.2346  0.5533
 5797TIP3   OH239025   1.837   6.683   0.643 -0.8188  0.1277 -0.2312
 5797TIP3    H139026   1.847   6.590   0.662 -0.3161  0.4657  1.2866
 5797TIP3    H239027   1.747   6.692   0.612 -0.8815 -0.8470 -0.3674
 5798TIP3   OH239028   3.957   2.642   1.051  0.1761  0.0479 -0.2462
 5798TIP3    H139029   4.034   2.596   1.017 -0.4357 -0.4796 -0.9484
 5798TIP3    H239030   3.888   2.622   0.989 -0.9144 -0.6982  1.1472
 5799TIP3   OH239031   4.018   2.479   0.610 -0.3006 -0.2333  0.2631
 5799TIP3    H139032   3.967   2.443   0.683 -2.1574 -0.2168 -0.9390
 5799TIP3    H239033   4.105   2.441   0.620 -0.6050 -0.5351  2.2422
 5800TIP3   OH239034   3.549   1.530   0.818 -0.1220 -0.4375 -0.4889
 5800TIP3    H139035   3.509   1.617   0.824  1.3870  0.2938 -0.6908
 5800TIP3    H239036   3.474   1.470   0.817 -1.3601  0.9774 -3.4273
 5801TIP3   OH239037   5.432   4.021   7.959 -0.2757 -0.2605 -0.3489
 5801TIP3    H139038   5.341   4.014   7.990 -0.3527 -0.6380 -0.6531
 5801TIP3    H239039   5.425   4.010   7.864  0.0794 -0.1924 -0.3828
 5802TIP3   OH239040   1.251   3.317   2.347 -0.5161  0.1008 -0.2177
 5802TIP3    H139041   1.163   3.298   2.381 -0.8196 -0.7184 -1.4003
 5802TIP3    H239042   1.236   3.371   2.270  0.0064 -0.1519 -0.5050
 5803TIP3   OH239043   3.338   0.625   3.591 -0.2498 -0.5726 -0.0855
 5803TIP3    H139044   3.381   0.587   3.668  0.1347  0.8430  0.4302
 5803TIP3    H239045   3.288   0.553   3.553 -0.5493 -1.2778  1.5722
 5804TIP3   OH239046   0.267   1.009   7.617  0.0483  0.1697  0.2989
 5804TIP3    H139047   0.353   1.050   7.628  0.5671 -1.2874  2.2287
 5804TIP3    H239048   0.209   1.057   7.675  0.4170 -1.0630  1.7444
 5805TIP3   OH239049   4.080   1.100   1.486  0.4456  0.2636  0.3391
 5805TIP3    H139050   4.146   1.169   1.498  1.2242 -0.5717  0.9872
 5805TIP3    H239051   4.055   1.075   1.575  1.5115 -1.5329  0.1876
 5806TIP3   OH239052   5.746   5.029   0.096 -0.3160  0.0310  0.2537
 5806TIP3    H139053   5.790   5.097   0.147  0.8106 -0.0912 -0.5182
 5806TIP3    H239054   5.726   5.071   0.012 -0.5657 -0.2769  0.1576
 5807TIP3   OH239055   7.054   1.713   2.433 -0.0761  0.5959  0.0039
 5807TIP3    H139056   6.978   1.733   2.488  0.0151 -1.6279  1.0151
 5807TIP3    H239057   7.091   1.799   2.413 -2.9185  1.7817 -0.6884
 5808TIP3   OH239058   4.097   5.921   0.006 -0.5441 -0.2067 -0.2859
 5808TIP3    H139059   4.106   5.870   0.087 -0.9864 -0.6562 -0.5134
 5808TIP3    H239060   4.146   6.001   0.023  1.3802 -1.2756 -0.4178
 5809TIP3   OH239061   1.157   1.022   2.516 -0.9484 -0.4224 -0.2398
 5809TIP3    H139062   1.083   1.018   2.455 -1.5792  0.3522  0.4610
 5809TIP3    H239063   1.227   1.064   2.466 -0.7652 -1.6612 -1.0927
 5810TIP3   OH239064   2.084   5.406   8.046 -0.3006  0.0733 -0.7195
 5810TIP3    H139065   2.033   5.384   7.968  0.5134 -1.0110 -0.9621
 5810TIP3    H239066   2.064   5.498   8.062 -1.6532 -0.0938 -1.3117
 5811TIP3   OH239067   6.153   2.963   0.401  0.1277  0.1838 -0.1877
 5811TIP3    H139068   6.061   2.941   0.387 -0.0553 -0.0790  1.2825
 5811TIP3    H239069   6.151   3.052   0.436  0.4776  0.3912 -0.6877
 5812TIP3   OH239070   4.040   3.650   7.971 -0.0985 -0.1979  1.1395
 5812TIP3    H139071   4.084   3.734   7.985  1.1036 -0.8217  1.3182
 5812TIP3    H239072   3.990   3.634   8.051  1.3529 -0.6059  2.0085
 5813TIP3   OH239073   3.476   4.984   3.215 -0.1441  0.4727  0.3734
 5813TIP3    H139074   3.389   4.945   3.221  0.4012 -0.6206  1.4580
 5813TIP3    H239075   3.527   4.942   3.284  1.3816  0.7825 -0.5134
 5814TIP3   OH239076   0.269   0.175   3.017  0.3742 -0.0795 -0.4499
 5814TIP3    H139077   0.342   0.236   3.031 -1.3410  2.5988 -2.2705
 5814TIP3    H239078   0.198   0.212   3.069 -0.2712 -1.5377 -0.2619
 5815TIP3   OH239079   0.632   5.884   8.226  0.0023 -0.2173 -0.5864
 5815TIP3    H139080   0.604   5.888   8.317 -1.3057 -0.3359 -0.9643
 5815TIP3    H239081   0.674   5.969   8.210 -0.9525  0.3306 -0.2509
 5816TIP3   OH239082   5.770   5.690   8.230  0.3409  0.7554 -0.4018
 5816TIP3    H139083   5.820   5.745   8.289 -0.5698  1.5934 -0.3828
 5816TIP3    H239084   5.815   5.698   8.146  1.1032  0.2889 -0.0456
 5817TIP3   OH239085   1.598   1.310   3.035 -0.2485  0.2021 -0.1994
 5817TIP3    H139086   1.568   1.379   3.095 -0.2697  1.3243 -1.4478
 5817TIP3    H239087   1.684   1.340   3.005 -0.8223  0.3764 -1.7576
 5818TIP3   OH239088   4.623   1.826   7.704 -0.6705 -0.1352 -0.3264
 5818TIP3    H139089   4.542   1.855   7.745  0.0290 -0.2989  1.2522
 5818TIP3    H239090   4.689   1.831   7.774  1.2815  2.3919 -2.1546
 5819TIP3   OH239091   2.642   5.141   1.101 -0.3099  0.0621 -0.1020
 5819TIP3    H139092   2.722   5.192   1.119 -0.2349  0.7885 -2.2511
 5819TIP3    H239093   2.595   5.193   1.036 -1.9171 -1.0201  0.1452
 5820TIP3   OH239094   6.735   6.404   0.351  0.2971 -0.0902  0.1923
 5820TIP3    H139095   6.743   6.314   0.380 -1.1536 -0.4012 -0.2821
 5820TIP3    H239096   6.671   6.444   0.411  0.5772  0.4874  0.1163
 5821TIP3   OH239097   3.243   4.309   1.932 -0.2647 -0.5998 -0.6400
 5821TIP3    H139098   3.231   4.214   1.933  0.0098 -0.6696  1.6227
 5821TIP3    H239099   3.156   4.344   1.913 -0.9294 -1.3052  0.9037
 5822TIP3   OH239100   2.137   6.561   2.810 -0.0949 -0.0606  0.5613
 5822TIP3    H139101   2.127   6.522   2.724  0.4434  0.2410  0.3586
 5822TIP3    H239102   2.089   6.502   2.869 -0.0752 -0.5134  0.1286
 5823TIP3   OH239103   4.600   0.520   1.188 -0.0825 -0.4551  0.1169
 5823TIP3    H139104   4.638   0.499   1.273 -0.7160  0.7782  0.7258
 5823TIP3    H239105   4.575   0.612   1.194  0.4331 -0.1550 -1.6310
 5824TIP3   OH239106   6.075   5.433   2.522 -0.0115  0.1527  0.1162
 5824TIP3    H139107   6.020   5.506   2.548 -0.6803 -0.0152 -0.7707
 5824TIP3    H239108   6.035   5.400   2.441  1.3998  0.0406 -0.5706
 5825TIP3   OH239109   1.909   3.999   7.920 -0.1153  0.0473  0.2444
 5825TIP3    H139110   1.851   3.923   7.914 -2.4025  1.7026 -0.0423
 5825TIP3    H239111   1.955   3.987   8.003 -1.4753 -0.9790  0.9103
 5826TIP3   OH239112   2.243   0.256   1.463  0.0400 -0.1223  0.4603
 5826TIP3    H139113   2.215   0.345   1.485  0.1571 -0.3405  1.5974
 5826TIP3    H239114   2.329   0.247   1.505 -0.7762 -1.3660  1.9986
 5827TIP3   OH239115   4.722   5.348   0.442 -0.1820 -0.4017 -0.4180
 5827TIP3    H139116   4.682   5.309   0.519  2.0396 -1.1014  0.4674
 5827TIP3    H239117   4.815   5.326   0.449  0.7993  2.8468 -1.2176
 5828TIP3   OH239118   6.417   2.233   1.253 -0.6507  0.1124 -0.5870
 5828TIP3    H139119   6.494   2.215   1.199  0.1386 -0.7498  0.7350
 5828TIP3    H239120   6.355   2.163   1.230 -0.8599  0.5375 -1.3265
 5829TIP3   OH239121   0.460   2.261   7.621  0.5655 -0.0259 -0.0074
 5829TIP3    H139122   0.517   2.241   7.547  0.4452 -1.3466  0.2403
 5829TIP3    H239123   0.373   2.236   7.592  0.3908  0.2404  0.2838
 5830TIP3   OH239124   0.120   0.206   7.823 -0.4152 -0.4236 -0.0985
 5830TIP3    H139125   0.109   0.279   7.763 -1.1575 -0.7293 -0.3510
 5830TIP3    H239126   0.059   0.140   7.792  0.9355 -1.5543 -0.4747
 5831TIP3   OH239127   3.673   6.950   0.046 -0.4053 -0.6688  0.3753
 5831TIP3    H139128   3.592   6.899   0.047 -0.9178  0.1103  0.0076
 5831TIP3    H239129   3.692   6.962  -0.047  0.0092 -0.6494  0.4611
 5832TIP3   OH239130   2.966   6.754   1.470  0.0171  0.3305 -0.1315
 5832TIP3    H139131   3.025   6.772   1.544 -3.3123  0.6815  2.6595
 5832TIP3    H239132   2.981   6.662   1.450  0.0775 -0.1446  1.9245
 5833TIP3   OH239133   5.332   0.672   8.011 -0.9258  0.4022 -0.1832
 5833TIP3    H139134   5.352   0.588   8.053 -3.0854  0.2401  0.6481
 5833TIP3    H239135   5.415   0.699   7.972  0.3294 -1.1302  1.2486
 5834TIP3   OH239136   1.614   1.118   2.079 -0.2914  0.3563  0.4379
 5834TIP3    H139137   1.636   1.208   2.104 -0.9091  1.0777 -1.4469
 5834TIP3    H239138   1.696   1.082   2.047 -0.2461  0.5737  0.3056
 5835TIP3   OH239139   1.916   3.693   2.072 -0.4831  0.4885  0.6555
 5835TIP3    H139140   1.961   3.774   2.046 -0.4398 -0.4678 -2.6667
 5835TIP3    H239141   1.986   3.633   2.096 -0.4816  1.1331  2.4397
 5836TIP3   OH239142   0.900   6.829   8.045 -0.7801 -0.6391  0.2197
 5836TIP3    H139143   0.951   6.897   8.088 -1.9447 -0.2721  1.0360
 5836TIP3    H239144   0.894   6.858   7.954 -0.9029  0.1304  0.4683
 5837TIP3   OH239145   5.999   6.692   1.969 -0.2879 -0.0401  0.1287
 5837TIP3    H139146   6.022   6.760   2.031  0.3727  0.7461 -0.9465
 5837TIP3    H239147   6.010   6.733   1.883 -1.0331 -1.1383 -0.5173
 5838TIP3   OH239148   2.790   5.698   8.150  0.4270 -0.2480  0.0424
 5838TIP3    H139149   2.737   5.776   8.168 -1.3643 -1.5626  0.7129
 5838TIP3    H239150   2.808   5.703   8.056 -1.5747 -0.1317 -0.3728
 5839TIP3   OH239151   2.471   5.642   3.074 -0.2571  0.0660 -0.0669
 5839TIP3    H139152   2.545   5.637   3.014  0.5421 -0.5504  0.9244
 5839TIP3    H239153   2.479   5.729   3.114  0.7028 -0.4467  0.9367
 5840TIP3   OH239154   5.196   0.568   2.372 -0.0958 -0.3141 -0.2798
 5840TIP3    H139155   5.278   0.613   2.391 -0.2924 -0.2645  0.4624
 5840TIP3    H239156   5.165   0.536   2.456 -1.4974  0.7834 -0.3290
 5841TIP3   OH239157   4.368   0.735   2.421 -0.6699 -0.3288  0.7301
 5841TIP3    H139158   4.310   0.730   2.345 -0.3125  0.2516  0.4169
 5841TIP3    H239159   4.455   0.715   2.388 -0.3630  0.8181  0.7949
 5842TIP3   OH239160   4.962   5.550   0.892 -0.3955  0.1180 -0.0796
 5842TIP3    H139161   5.023   5.482   0.921 -1.4379 -1.4608 -1.4025
 5842TIP3    H239162   5.006   5.633   0.913  1.0954 -0.9410  1.2121
 5843TIP3   OH239163   5.671   3.281   1.785  0.0716 -0.4339 -0.1534
 5843TIP3    H139164   5.632   3.352   1.835 -2.1127 -1.3558 -0.4420
 5843TIP3    H239165   5.609   3.263   1.714 -0.1901 -3.4388  0.6622
 5844TIP3   OH239166   1.136   6.535   0.635  0.4728 -0.5455  0.2075
 5844TIP3    H139167   1.085   6.615   0.628  1.6853  0.5296  2.6291
 5844TIP3    H239168   1.212   6.549   0.578 -1.0405 -1.5180 -2.1761
 5845TIP3   OH239169   3.995   5.474   3.086  0.2413  0.1806  0.7002
 5845TIP3    H139170   4.009   5.502   2.996  0.1804 -1.9738 -0.0519
 5845TIP3    H239171   3.938   5.398   3.078 -0.2791  0.3229  2.6258
 5846TIP3   OH239172   0.866   2.595   7.961 -0.3372 -0.2951 -0.3648
 5846TIP3    H139173   0.882   2.682   7.925 -2.7310  0.4341  0.1646
 5846TIP3    H239174   0.867   2.536   7.886  0.8789  0.2300 -0.7774
 5847TIP3   OH239175   2.452   5.822   3.808 -0.0097 -0.2755  0.3634
 5847TIP3    H139176   2.461   5.772   3.889 -0.5664 -0.6463  0.2021
 5847TIP3    H239177   2.407   5.763   3.748 -0.8661  0.4858  0.2341
 5848TIP3   OH239178   1.858   0.822   0.881 -0.9702  0.0468 -0.3565
 5848TIP3    H139179   1.780   0.770   0.865 -1.0953  0.3654 -0.7941
 5848TIP3    H239180   1.897   0.835   0.795 -1.0517  0.8525 -0.2803
 5849TIP3   OH239181   5.028   5.955   1.521  0.6169  0.4064  0.0937
 5849TIP3    H139182   4.940   5.986   1.542  0.7720 -0.2992  1.9842
 5849TIP3    H239183   5.082   5.984   1.594  1.5759 -0.7678 -0.1095
 5850TIP3   OH239184   6.996   5.324   2.526  0.9894 -0.0251 -0.2140
 5850TIP3    H139185   7.061   5.255   2.518  0.4708 -0.5800  0.2661
 5850TIP3    H239186   6.926   5.299   2.466  1.7276  1.1963 -1.6479
 5851TIP3   OH239187   1.915   2.236   3.115  0.0228 -0.1684  0.4232
 5851TIP3    H139188   2.010   2.246   3.103  0.4143 -2.0398  1.4492
 5851TIP3    H239189   1.900   2.258   3.207 -0.4450 -0.3063  0.3802
 5852TIP3   OH239190   3.002   5.839   1.534  0.5110 -0.5630 -0.5613
 5852TIP3    H139191   2.965   5.763   1.579  0.3775 -1.0211 -1.4383
 5852TIP3    H239192   2.926   5.891   1.508  0.6080  0.0239  0.2637
 5853TIP3   OH239193   3.374   6.339   8.164  0.8344 -0.1816 -0.1342
 5853TIP3    H139194   3.279   6.344   8.177  0.9759  1.1371  0.5825
 5853TIP3    H239195   3.392   6.246   8.151 -0.4751 -0.5284  0.3950
 5854TIP3   OH239196   4.506   2.579   8.148  0.1448  0.2120 -0.1172
 5854TIP3    H139197   4.519   2.521   8.223  1.8098 -1.0725 -1.2977
 5854TIP3    H239198   4.423   2.551   8.110 -0.1839  0.1510  0.6275
 5855TIP3   OH239199   1.435   3.783   7.646  0.2163  0.2946 -0.4839
 5855TIP3    H139200   1.499   3.761   7.578  1.6529 -0.1301  0.9430
 5855TIP3    H239201   1.488   3.799   7.724 -1.4750 -0.9057  0.9832
 5856TIP3   OH239202   3.829   3.651   1.531 -0.2452  0.0393  0.1232
 5856TIP3    H139203   3.846   3.722   1.470  1.7163  0.7811  1.4187
 5856TIP3    H239204   3.798   3.694   1.611 -0.5239 -0.6962  0.4240
 5857TIP3   OH239205   3.983   2.347   7.985 -0.1531  0.0432 -0.1781
 5857TIP3    H139206   4.054   2.326   8.046 -0.6924  1.4495  0.9768
 5857TIP3    H239207   4.028   2.384   7.909  0.3339  1.6085  0.8464
 5858TIP3   OH239208   0.061   0.355   7.346  0.3267  0.2264 -0.6031
 5858TIP3    H139209  -0.001   0.337   7.417  0.2555 -0.5935 -0.8619
 5858TIP3    H239210   0.056   0.450   7.333  1.5930  0.6619  1.6192
 5859TIP3   OH239211   6.149   6.366   2.057 -0.0100 -0.0119 -0.1637
 5859TIP3    H139212   6.191   6.452   2.050 -0.3172  0.2278  0.8425
 5859TIP3    H239213   6.172   6.335   2.145 -0.2142 -0.7988 -0.3765
 5860TIP3   OH239214   0.655   5.708   8.015  0.2690  0.5938  0.2609
 5860TIP3    H139215   0.617   5.751   8.092 -0.8894  2.3533 -1.2049
 5860TIP3    H239216   0.657   5.777   7.948 -0.4107 -1.3009 -1.8303
 5861TIP3   OH239217   3.148   3.155   2.160  0.4304  0.2338  0.9815
 5861TIP3    H139218   3.187   3.125   2.078 -0.1291  0.2973  0.6950
 5861TIP3    H239219   3.054   3.145   2.148  0.2341  1.9098  0.9558
 5862TIP3   OH239220   5.275   0.569   1.972 -0.2679  0.5761 -0.0318
 5862TIP3    H139221   5.370   0.570   1.972 -0.2098 -1.2650  1.2794
 5862TIP3    H239222   5.251   0.600   1.884  1.4781  1.7176 -0.1605
 5863TIP3   OH239223   4.415   2.726   0.276  0.5299  0.0471  0.5656
 5863TIP3    H139224   4.352   2.740   0.205  0.5509  0.2937  0.5963
 5863TIP3    H239225   4.489   2.783   0.254  0.2941  0.5617  1.0920
 5864TIP3   OH239226   5.264   2.891   0.055 -0.1832 -0.0076  0.3483
 5864TIP3    H139227   5.342   2.866   0.105 -1.2514 -1.5128  1.3444
 5864TIP3    H239228   5.299   2.931  -0.025  1.6294 -1.5587  0.2794
 5865TIP3   OH239229   4.539   4.175   2.596  0.1387 -0.1532 -0.0782
 5865TIP3    H139230   4.627   4.138   2.601  0.4724  0.5371 -0.6220
 5865TIP3    H239231   4.548   4.249   2.535 -1.2221 -1.2873 -1.7482
 5866TIP3   OH239232   0.745   1.362   0.661  0.0214 -0.2315  0.0244
 5866TIP3    H139233   0.730   1.456   0.660  0.6487 -0.1311 -0.2766
 5866TIP3    H239234   0.812   1.347   0.595 -0.3133 -0.9343 -0.1722
 5867TIP3   OH239235   4.814   0.215   2.096 -0.3613 -0.5064 -0.3539
 5867TIP3    H139236   4.825   0.306   2.071  1.1450 -0.3076  0.8537
 5867TIP3    H239237   4.827   0.165   2.015 -1.7904  0.3367 -1.1438
 5868TIP3   OH239238   0.450   1.697   2.450 -0.0801  0.1370  0.1653
 5868TIP3    H139239   0.358   1.681   2.468  0.1148 -2.2560 -0.6364
 5868TIP3    H239240   0.490   1.709   2.536 -0.3353 -4.0398  1.0423
 5869TIP3   OH239241   4.420   4.452   0.831  0.1325  0.5016  0.1748
 5869TIP3    H139242   4.499   4.432   0.780  0.6595 -0.0833  1.1871
 5869TIP3    H239243   4.373   4.369   0.836  0.1145  0.5427  0.6899
 5870TIP3   OH239244   4.746   4.183   0.779  0.0333 -0.2327  0.4764
 5870TIP3    H139245   4.724   4.265   0.821 -1.1351  0.3603 -1.1742
 5870TIP3    H239246   4.680   4.121   0.811  0.1752 -0.2296  0.7820
 5871TIP3   OH239247   2.749   2.413   8.023 -0.1323  0.3190  0.4088
 5871TIP3    H139248   2.791   2.413   7.937 -0.4959 -0.1822  0.2289
 5871TIP3    H239249   2.761   2.324   8.056 -1.0652  0.1677  0.3491
 5872TIP3   OH239250   4.012   0.419   0.279 -0.2899 -0.3346 -0.3477
 5872TIP3    H139251   4.014   0.409   0.184  0.9282 -0.8827 -0.2762
 5872TIP3    H239252   4.040   0.509   0.294  1.6771 -0.8779 -0.4460
 5873TIP3   OH239253   6.126   5.771   2.542  0.6105 -0.2129 -0.3005
 5873TIP3    H139254   6.122   5.735   2.631  1.7866 -0.7008 -0.4310
 5873TIP3    H239255   6.040   5.751   2.505  0.0918  0.0107  0.7168
 5874TIP3   OH239256   0.396   5.998   0.152 -0.3336 -0.5636  0.3951
 5874TIP3    H139257   0.408   6.091   0.168 -1.7473 -0.4456  0.9535
 5874TIP3    H239258   0.329   5.994   0.084 -1.1426 -1.1590  1.1989
 5875TIP3   OH239259   1.040   0.608   0.119 -0.1567  0.0410 -0.3205
 5875TIP3    H139260   1.054   0.636   0.210  0.9412  0.2241 -0.5284
 5875TIP3    H239261   1.115   0.551   0.100  2.1548  3.4666 -2.4864
 5876TIP3   OH239262   5.852   1.342   0.564  0.4426  0.4273  0.0944
 5876TIP3    H139263   5.772   1.308   0.604 -0.0188  1.8140  0.3994
 5876TIP3    H239264   5.923   1.306   0.616  0.3276 -3.6215 -2.1597
 5877TIP3   OH239265   2.275   6.698   2.194 -0.4473  0.1527  0.6474
 5877TIP3    H139266   2.181   6.686   2.205 -0.5213 -0.2554 -0.3387
 5877TIP3    H239267   2.288   6.701   2.099  0.8090 -2.2903  0.6550
 5878TIP3   OH239268   2.193   1.675   0.750 -0.4070  0.5255 -0.3424
 5878TIP3    H139269   2.230   1.732   0.818  2.0647 -0.3317 -0.8404
 5878TIP3    H239270   2.167   1.736   0.680 -1.7880  1.3100  0.7948
 5879TIP3   OH239271   5.105   6.807   3.121  0.2901 -0.0126  0.3919
 5879TIP3    H139272   5.173   6.744   3.144  0.3789  0.6504  2.0834
 5879TIP3    H239273   5.126   6.884   3.173 -0.0044  1.3306 -1.3549
 5880TIP3   OH239274   1.881   1.454   1.697  0.0515 -0.6193 -0.2856
 5880TIP3    H139275   1.817   1.478   1.763  1.2311 -0.5653  0.8823
 5880TIP3    H239276   1.946   1.401   1.744  0.5602 -1.1845 -1.5535
 5881TIP3   OH239277   6.775   1.133   1.823 -0.4706  0.0113 -0.2130
 5881TIP3    H139278   6.718   1.058   1.838  0.0957 -0.1591  1.2540
 5881TIP3    H239279   6.751   1.196   1.890  0.7671  0.0949  0.1890
 5882TIP3   OH239280   6.944   5.651   0.906 -0.0633  0.1230  0.3612
 5882TIP3    H139281   7.034   5.667   0.879 -0.7698  1.4248 -1.4434
 5882TIP3    H239282   6.951   5.589   0.978  2.2877  0.6162  0.6284
 5883TIP3   OH239283   6.447   0.634   1.087  0.9290 -0.3647  0.7504
 5883TIP3    H139284   6.505   0.595   1.022  1.1625 -0.0303  0.7572
 5883TIP3    H239285   6.500   0.702   1.130  0.1505  0.8255 -0.1272
 5884TIP3   OH239286   0.678   4.708   0.058 -0.3652  0.0302  0.3362
 5884TIP3    H139287   0.725   4.625   0.054 -1.0922 -0.3370 -1.7167
 5884TIP3    H239288   0.588   4.684   0.081 -0.6590  0.1894 -0.6020
 5885TIP3   OH239289   4.815   0.413   1.696 -0.3090 -0.0488  0.3647
 5885TIP3    H139290   4.756   0.419   1.621 -0.0213 -2.2116 -0.0875
 5885TIP3    H239291   4.803   0.497   1.742 -1.6055  0.7102 -1.2421
 5886TIP3   OH239292   6.697   3.604   0.414 -0.2420 -0.2059 -0.2458
 5886TIP3    H139293   6.738   3.566   0.492  0.1971  0.5951 -0.0797
 5886TIP3    H239294   6.738   3.557   0.341  0.0672 -0.2739 -0.0293
 5887TIP3   OH239295   5.858   6.931   0.957 -0.1990  0.5908 -0.3319
 5887TIP3    H139296   5.852   6.965   1.046  1.0534  1.5482 -0.5726
 5887TIP3    H239297   5.866   6.836   0.968  1.6666  0.8209  0.7049
 5888TIP3   OH239298   0.120   6.949   1.348 -0.1330 -0.2118  0.2731
 5888TIP3    H139299   0.081   7.032   1.320 -1.5897 -1.0741 -0.3947
 5888TIP3    H239300   0.153   6.911   1.267  1.0619 -0.0381  0.6643
 5889TIP3   OH239301   5.254   3.475   1.278  0.6257 -0.2838  0.0017
 5889TIP3    H139302   5.335   3.505   1.318  0.4516  1.5179 -0.8852
 5889TIP3    H239303   5.188   3.485   1.347  0.7610  0.4063  0.0310
 5890TIP3   OH239304   1.841   5.058   8.171 -0.8098 -0.1652 -0.4092
 5890TIP3    H139305   1.807   5.147   8.159 -2.0976 -0.7487 -1.3815
 5890TIP3    H239306   1.772   5.002   8.136  0.0206 -1.5504  0.1185
 5891TIP3   OH239307   1.994   5.112   2.915 -0.0245  1.2470  0.4335
 5891TIP3    H139308   2.008   5.017   2.909  0.8782  1.2420  2.0391
 5891TIP3    H239309   1.899   5.122   2.918 -0.1388  0.4254 -0.0670
 5892TIP3   OH239310   2.139   6.363   0.789  0.5773  0.0549 -0.0701
 5892TIP3    H139311   2.152   6.376   0.695 -0.0411  0.2738 -0.1302
 5892TIP3    H239312   2.140   6.451   0.825  1.6138 -0.0758  0.2453
 5893TIP3   OH239313   5.687   6.727   2.359  0.5452 -0.0901 -0.2522
 5893TIP3    H139314   5.733   6.771   2.288  1.0224 -0.9165 -0.4602
 5893TIP3    H239315   5.696   6.787   2.434 -0.9449  1.3292 -1.1485
 5894TIP3   OH239316   1.994   3.644   0.155  0.6021 -0.0230 -0.1478
 5894TIP3    H139317   1.972   3.552   0.144  0.9813 -0.0870 -0.3843
 5894TIP3    H239318   2.088   3.645   0.173  0.5755  0.3062 -0.0138
 5895TIP3   OH239319   6.820   0.308   0.080  0.9645  0.2640  0.5891
 5895TIP3    H139320   6.897   0.364   0.065 -0.3923  1.7860 -1.2293
 5895TIP3    H239321   6.767   0.356   0.144  0.3935  0.4650 -0.0209
 5896TIP3   OH239322   4.886   6.865   3.413  0.0680 -0.2468 -0.0448
 5896TIP3    H139323   4.967   6.899   3.451 -0.0103 -1.6865  1.5145
 5896TIP3    H239324   4.819   6.927   3.441  0.3708  0.0264  0.0949
 5897TIP3   OH239325   0.050   4.792   1.744  0.1365  0.1962 -0.4179
 5897TIP3    H139326   0.125   4.808   1.687  1.3771 -0.6067  0.8828
 5897TIP3    H239327   0.032   4.699   1.734 -0.9100  0.4525 -0.9610
 5898TIP3   OH239328   5.800   4.325   7.538 -0.0983 -0.4467  0.1579
 5898TIP3    H139329   5.733   4.393   7.545 -0.2407 -0.4193 -1.2696
 5898TIP3    H239330   5.752   4.243   7.553 -0.1780 -0.3313  0.5466
 5899TIP3   OH239331   0.896   1.181   0.259  0.1297 -0.1149  0.6751
 5899TIP3    H139332   0.930   1.097   0.288  1.7151 -0.3683 -1.7115
 5899TIP3    H239333   0.812   1.160   0.219 -0.3790 -0.2444  1.7574
 5900TIP3   OH239334   4.505   0.289   1.737  1.0044 -0.0917 -0.1539
 5900TIP3    H139335   4.452   0.243   1.803 -0.0530 -0.9262 -1.5347
 5900TIP3    H239336   4.544   0.362   1.785  0.1799 -0.6077  1.3729
 5901TIP3   OH239337   5.708   6.283   2.432  0.4664  0.4783  0.2069
 5901TIP3    H139338   5.716   6.340   2.356  1.7672  1.6613  1.1929
 5901TIP3    H239339   5.708   6.343   2.507 -2.0431 -0.5453  1.1472
 5902TIP3   OH239340   2.203   5.205   1.223 -0.3297 -0.1106  0.0029
 5902TIP3    H139341   2.169   5.208   1.312  1.3530  0.2864  0.6562
 5902TIP3    H239342   2.262   5.130   1.222  0.0693  0.2048 -0.6221
 5903TIP3   OH239343   6.562   2.919   7.502  0.4696  0.8682  0.1134
 5903TIP3    H139344   6.506   2.993   7.523  3.0447  2.6333  1.2316
 5903TIP3    H239345   6.507   2.862   7.447 -2.4814  2.2135  1.4519
 5904TIP3   OH239346   2.788   6.218   0.577 -0.7355 -0.1412 -0.2839
 5904TIP3    H139347   2.715   6.229   0.638 -0.5404 -1.5079  0.2331
 5904TIP3    H239348   2.859   6.182   0.630 -0.3038 -0.6007 -1.1467
 5905TIP3   OH239349   3.854   3.516   2.109 -0.0099 -0.1161  0.4150
 5905TIP3    H139350   3.896   3.431   2.097 -0.0465  0.1879 -2.8581
 5905TIP3    H239351   3.919   3.579   2.080 -1.0361  0.6907 -0.2215
 5906TIP3   OH239352   6.675   3.284   0.846 -0.1204  0.0800  0.3766
 5906TIP3    H139353   6.607   3.217   0.837 -1.5048  1.3595  0.8650
 5906TIP3    H239354   6.627   3.365   0.863  1.5584  0.9485  1.2662
 5907TIP3   OH239355   3.591   4.555   2.205  0.6018  0.1947 -0.7855
 5907TIP3    H139356   3.663   4.492   2.209  0.7064  0.2195 -2.1175
 5907TIP3    H239357   3.626   4.634   2.246  0.7775 -0.3059  0.0552
 5908TIP3   OH239358   3.923   2.284   1.464  0.1344  0.1529  0.5295
 5908TIP3    H139359   3.840   2.249   1.434  0.1312 -0.2621  1.0163
 5908TIP3    H239360   3.931   2.254   1.554  0.8961  0.0356  0.4287
 5909TIP3   OH239361   4.621   6.496   3.857  0.8470  0.4355  0.0548
 5909TIP3    H139362   4.597   6.587   3.838 -0.5788  0.3686  1.3304
 5909TIP3    H239363   4.544   6.460   3.902  2.0427 -0.8738  1.1406
 5910TIP3   OH239364   3.765   4.445   1.942 -0.7139 -0.4898 -0.2979
 5910TIP3    H139365   3.804   4.370   1.986  1.3771  0.3293 -0.6518
 5910TIP3    H239366   3.675   4.418   1.923 -0.1572 -2.7144  0.0096
 5911TIP3   OH239367   5.823   3.581   2.001  0.1061  0.3217 -0.0593
 5911TIP3    H139368   5.909   3.565   1.964 -0.2648 -0.3618 -0.6389
 5911TIP3    H239369   5.767   3.600   1.926 -0.4629 -0.2178  0.2215
 5912TIP3   OH239370   0.373   0.274   1.636  0.2205 -0.0381 -0.1450
 5912TIP3    H139371   0.322   0.246   1.713  0.8344 -1.0106 -0.0748
 5912TIP3    H239372   0.310   0.275   1.565 -0.6581  2.1367  0.5924
 5913TIP3   OH239373   1.357   0.570   1.575  0.7857 -0.2325 -0.5659
 5913TIP3    H139374   1.404   0.489   1.597  0.0514 -0.8033 -1.0172
 5913TIP3    H239375   1.338   0.561   1.481 -2.9667 -1.5678  0.1203
 5914TIP3   OH239376   6.210   6.431   0.670  0.2564  0.4913 -0.1273
 5914TIP3    H139377   6.177   6.494   0.734 -0.6022  2.5880 -2.4818
 5914TIP3    H239378   6.293   6.399   0.707  0.6508  2.9151  1.2355
 5915TIP3   OH239379   0.858   2.173   7.068  0.2527  0.0540 -0.2193
 5915TIP3    H139380   0.833   2.262   7.045 -0.1813  0.2991  1.1256
 5915TIP3    H239381   0.807   2.153   7.146 -0.2441 -1.6729 -0.9454
 5916TIP3   OH239382   5.761   0.960   1.872  0.2527  0.4584 -0.0247
 5916TIP3    H139383   5.850   0.970   1.838 -0.2285 -0.6224 -1.7287
 5916TIP3    H239384   5.768   0.890   1.936  0.4940 -0.2466 -0.8012
 5917TIP3   OH239385   3.019   2.351   1.934 -0.4043 -1.0154 -0.5713
 5917TIP3    H139386   3.018   2.447   1.929 -0.3368 -1.0013 -0.3175
 5917TIP3    H239387   3.021   2.323   1.842  2.3415 -0.7298 -0.7032
 5918TIP3   OH239388   1.640   3.778   7.464 -0.1182 -0.5494 -0.5016
 5918TIP3    H139389   1.714   3.828   7.499 -0.4942  0.7021 -1.4173
 5918TIP3    H239390   1.656   3.773   7.370 -2.1064  1.4609 -1.0434
 5919TIP3   OH239391   3.897   2.766   2.964  0.2190 -0.2233 -0.4007
 5919TIP3    H139392   3.929   2.850   2.998  0.7008 -0.3633 -0.4905
 5919TIP3    H239393   3.818   2.748   3.014 -0.1640  0.5261 -0.7162
 5920TIP3   OH239394   1.563   3.459   7.953 -0.0867  0.2975 -0.2598
 5920TIP3    H139395   1.560   3.426   8.043  0.3065 -1.2037 -0.7776
 5920TIP3    H239396   1.472   3.464   7.925 -0.4358  3.2451  1.0411
 5921TIP3   OH239397   3.572   3.484   0.817 -0.0984 -0.3354  0.0480
 5921TIP3    H139398   3.520   3.441   0.885 -0.4747  0.3671  0.2077
 5921TIP3    H239399   3.608   3.562   0.860 -1.7906  1.1021 -1.0310
 5922TIP3   OH239400   6.460   3.406   2.773  0.1278 -0.4474  0.0007
 5922TIP3    H139401   6.495   3.494   2.767  0.1678 -0.4750 -0.1869
 5922TIP3    H239402   6.493   3.361   2.695  0.1793 -0.6528  0.1380
 5923TIP3   OH239403   0.339   2.653   2.265 -0.0481  0.1291  0.2563
 5923TIP3    H139404   0.416   2.703   2.289 -0.5856  0.4154  1.4774
 5923TIP3    H239405   0.283   2.715   2.218  0.0751  0.1759  0.1737
 5924TIP3   OH239406   5.469   6.596   0.184 -0.0897  0.0431  0.3998
 5924TIP3    H139407   5.425   6.671   0.226 -1.9932  0.1265 -1.5524
 5924TIP3    H239408   5.397   6.537   0.161  0.7514  0.1496 -2.9482
 5925TIP3   OH239409   1.077   1.287   1.965  0.2697 -0.0604  0.0781
 5925TIP3    H139410   1.094   1.364   1.910 -1.1749  0.3626  0.1903
 5925TIP3    H239411   1.097   1.316   2.054 -0.0332  0.1134  0.0910
 5926TIP3   OH239412   2.801   0.890   0.035  0.0964 -0.1111 -0.0012
 5926TIP3    H139413   2.873   0.838  -0.002  1.4243  0.9409  1.0543
 5926TIP3    H239414   2.826   0.905   0.126 -1.3254  0.5316  0.3049
 5927TIP3   OH239415   5.369   1.292   2.731 -0.5035  0.0142  0.0940
 5927TIP3    H139416   5.432   1.222   2.716 -1.0744 -0.1299 -2.0151
 5927TIP3    H239417   5.291   1.248   2.764  0.0662  0.0591  1.5991
 5928TIP3   OH239418   2.567   3.459   1.507 -0.1947  0.0042 -0.0590
 5928TIP3    H139419   2.614   3.542   1.496 -0.3686  0.0561 -0.4154
 5928TIP3    H239420   2.487   3.483   1.554  0.0722 -0.0668  0.4426
 5929TIP3   OH239421   5.970   1.563   0.641 -0.0470 -0.2303 -0.0507
 5929TIP3    H139422   5.902   1.500   0.616 -0.9956  1.0588 -0.8625
 5929TIP3    H239423   6.035   1.557   0.571  0.7418 -1.4889  0.7431
 5930TIP3   OH239424   4.898   0.916   8.177  0.1538  0.3725 -0.0777
 5930TIP3    H139425   4.974   0.865   8.151  0.4378  1.0245 -0.5669
 5930TIP3    H239426   4.840   0.914   8.101 -0.8214 -1.0187  0.6739
 5931TIP3   OH239427   6.662   4.438   2.920  0.2856 -0.5022  0.4364
 5931TIP3    H139428   6.694   4.453   3.008  0.2132 -2.1261  0.7636
 5931TIP3    H239429   6.577   4.395   2.932  1.3831 -3.0319 -0.3710
 5932TIP3   OH239430   3.664   5.601   1.309  0.0797 -0.2388  0.8652
 5932TIP3    H139431   3.644   5.550   1.230 -0.0573 -0.4717  1.0491
 5932TIP3    H239432   3.758   5.616   1.305  0.1898 -0.8591  1.0143
 5933TIP3   OH239433   6.074   6.282   2.473 -0.6354  0.0569 -0.3660
 5933TIP3    H139434   6.164   6.288   2.506 -1.5647  0.3090  2.3841
 5933TIP3    H239435   6.057   6.368   2.435 -0.0169  0.3294 -0.0498
 5934TIP3   OH239436   0.571   2.988   7.197 -0.5646 -0.5353 -0.9256
 5934TIP3    H139437   0.574   2.894   7.216 -0.0825 -0.6893 -1.7306
 5934TIP3    H239438   0.641   3.026   7.249 -0.2643 -0.7349 -1.1798
 5935TIP3   OH239439   6.036   4.721   2.310  0.4783 -0.0762 -0.0667
 5935TIP3    H139440   6.011   4.772   2.233  1.6619  0.2786 -0.2399
 5935TIP3    H239441   6.037   4.630   2.280 -0.3006 -0.0688 -0.1255
 5936TIP3   OH239442   3.769   0.432   0.692 -0.0113 -0.4057 -0.3567
 5936TIP3    H139443   3.742   0.373   0.762  1.7283  0.9884  1.5824
 5936TIP3    H239444   3.698   0.496   0.686  0.6210  0.5219  1.4440
 5937TIP3   OH239445   2.019   6.298   3.783  0.0361 -0.4190 -0.4700
 5937TIP3    H139446   2.031   6.275   3.875 -1.4737 -0.1710 -0.1825
 5937TIP3    H239447   2.007   6.393   3.784  0.8943 -0.3016 -1.0307
 5938TIP3   OH239448   5.489   5.812   2.599 -0.0372  0.5340 -0.0386
 5938TIP3    H139449   5.542   5.743   2.559 -1.9054 -1.0074  0.0211
 5938TIP3    H239450   5.481   5.787   2.691 -0.0043  1.3191  0.1856
 5939TIP3   OH239451   6.209   1.403   2.649 -0.3983 -0.1445 -0.0145
 5939TIP3    H139452   6.203   1.464   2.575 -0.0643 -0.1234 -0.0241
 5939TIP3    H239453   6.276   1.340   2.623 -0.7398 -0.5120  0.0006
 5940TIP3   OH239454   6.198   3.929   2.801 -0.0493  0.1379 -0.2215
 5940TIP3    H139455   6.134   3.919   2.872  0.1904  1.0933  0.1538
 5940TIP3    H239456   6.155   3.988   2.739  0.2725  0.3972 -0.2002
 5941TIP3   OH239457   0.805   1.438   2.261 -0.1411 -0.2190  0.0264
 5941TIP3    H139458   0.805   1.481   2.175 -0.0115 -0.0440  0.1124
 5941TIP3    H239459   0.809   1.345   2.241  0.0739 -0.1719 -0.1539
 5942TIP3   OH239460   0.226   3.417   0.704  0.6549 -0.2064  0.1179
 5942TIP3    H139461   0.314   3.418   0.666  0.9132 -2.4356  0.4915
 5942TIP3    H239462   0.229   3.346   0.769 -1.3660 -0.2332  0.2471
 5943TIP3   OH239463   0.788   2.417   2.501 -0.2291 -0.4382 -0.6245
 5943TIP3    H139464   0.780   2.380   2.413  0.6838  0.7690 -1.2341
 5943TIP3    H239465   0.789   2.511   2.488 -1.2098 -0.1889  0.7939
 5944TIP3   OH239466   6.139   0.376   1.435  0.1370  0.2005  0.5695
 5944TIP3    H139467   6.056   0.407   1.470 -1.0269 -0.9343 -1.0554
 5944TIP3    H239468   6.147   0.418   1.349  0.0386 -1.4974 -0.3199
 5945TIP3   OH239469   0.824   0.381   1.001 -0.2614  0.0039 -0.5447
 5945TIP3    H139470   0.853   0.384   0.910  0.9603  0.5493 -0.1634
 5945TIP3    H239471   0.849   0.294   1.032  0.8533  0.3998 -0.2763
 5946TIP3   OH239472   2.461   0.168   7.224  0.6561  0.2925 -0.4093
 5946TIP3    H139473   2.439   0.094   7.168  2.7847 -1.0073  0.3600
 5946TIP3    H239474   2.432   0.142   7.312  1.8264  0.1501 -0.0543
 5947TIP3   OH239475   2.815   0.323   2.755  0.3429 -0.3199 -0.4101
 5947TIP3    H139476   2.757   0.349   2.684 -1.0996  0.6726  1.0410
 5947TIP3    H239477   2.798   0.388   2.824  0.6366 -2.0426  1.3640
 5948TIP3   OH239478   4.090   5.768   7.769 -0.0334  0.1648  0.1392
 5948TIP3    H139479   4.041   5.725   7.699  0.6227 -0.7346  0.2097
 5948TIP3    H239480   4.168   5.713   7.781  0.2291  0.7118  1.0713
 5949TIP3   OH239481   3.948   1.450   1.842 -0.2297  0.0786  0.2041
 5949TIP3    H139482   4.021   1.456   1.780  1.0647 -1.0803  1.5225
 5949TIP3    H239483   3.872   1.428   1.788  0.7996 -0.6698 -1.0163
 5950TIP3   OH239484   4.984   1.133   2.110  0.1490  0.4437 -0.9270
 5950TIP3    H139485   4.973   1.132   2.015 -0.8357 -2.0381 -0.8655
 5950TIP3    H239486   5.066   1.085   2.125 -0.0135  0.2914 -0.5137
 5951TIP3   OH239487   6.321   5.377   1.786  0.0082  0.4819 -0.6049
 5951TIP3    H139488   6.258   5.306   1.789  1.4305 -0.8423 -0.5066
 5951TIP3    H239489   6.337   5.399   1.878 -0.0600  0.6001 -0.6202
 5952TIP3   OH239490   6.733   6.868   3.923 -0.4038 -0.0489  0.0892
 5952TIP3    H139491   6.823   6.848   3.896 -0.5831  1.4213 -1.8183
 5952TIP3    H239492   6.741   6.942   3.982 -0.4024  0.6808 -0.8110
 5953TIP3   OH239493   2.393   0.136   8.251  0.7379  0.5051 -0.4896
 5953TIP3    H139494   2.361   0.197   8.185 -0.7477  1.9147  1.4037
 5953TIP3    H239495   2.488   0.144   8.247  0.6824  0.7896 -2.1910
 5954TIP3   OH239496   6.928   4.319   0.550  0.4281 -0.6648  0.0999
 5954TIP3    H139497   6.835   4.304   0.568  0.5866  0.6677  2.3828
 5954TIP3    H239498   6.974   4.251   0.600  0.7163 -0.1892  0.4984
 5955TIP3   OH239499   0.138   6.697   1.431 -0.3209  0.2151  0.1428
 5955TIP3    H139500   0.147   6.791   1.417 -1.0492  0.1755 -0.6808
 5955TIP3    H239501   0.224   6.669   1.463  0.8313  0.6975 -2.3163
 5956TIP3   OH239502   4.190   5.710   8.123 -0.3410 -0.5915  0.2673
 5956TIP3    H139503   4.217   5.636   8.178 -0.7902 -1.3203 -0.4689
 5956TIP3    H239504   4.159   5.776   8.185 -1.4192 -1.6365  0.8658
 5957TIP3   OH239505   6.515   3.049   1.253 -0.0148 -0.1692 -0.2748
 5957TIP3    H139506   6.421   3.034   1.254  0.1729 -1.6888 -1.4740
 5957TIP3    H239507   6.553   2.970   1.292  0.8050 -0.1285 -0.9520
 5958TIP3   OH239508   1.357   4.381   7.043  0.3407  0.1465 -0.0798
 5958TIP3    H139509   1.300   4.360   6.969  1.2906  4.0965 -2.1951
 5958TIP3    H239510   1.444   4.388   7.005  0.7291  3.2070  1.0642
 5959TIP3   OH239511   4.364   3.443   0.502 -0.2671 -0.1625 -0.1070
 5959TIP3    H139512   4.301   3.434   0.574  0.8999 -2.1549  0.7502
 5959TIP3    H239513   4.351   3.364   0.450 -0.2086  0.6560 -1.4050
 5960TIP3   OH239514   5.627   6.969   7.559  0.2327  0.7060  0.3184
 5960TIP3    H139515   5.710   7.005   7.528  0.3162  0.5771  0.3899
 5960TIP3    H239516   5.585   6.936   7.480 -0.8042  2.8495 -0.0753
 5961TIP3   OH239517   4.019   1.819   0.307 -0.1120  0.0570 -0.2236
 5961TIP3    H139518   4.068   1.794   0.385  0.1930 -0.8508 -0.6912
 5961TIP3    H239519   4.045   1.910   0.290 -1.3562  0.8150  1.5962
 5962TIP3   OH239520   3.120   1.247   3.483  0.1173  0.5673  0.0873
 5962TIP3    H139521   3.127   1.341   3.470  0.3039  0.3673 -1.5801
 5962TIP3    H239522   3.155   1.209   3.402  0.5448 -0.9444  0.9315
 5963TIP3   OH239523   1.562   3.012   3.270  0.6462  0.4728  0.1083
 5963TIP3    H139524   1.600   3.050   3.349 -1.5584  0.1719  1.3987
 5963TIP3    H239525   1.544   3.087   3.214  0.5355  0.8864  0.6810
 5964TIP3   OH239526   0.971   4.898   2.101  0.1917 -0.6126 -0.7786
 5964TIP3    H139527   1.055   4.854   2.115 -0.4707 -1.0547  2.7593
 5964TIP3    H239528   0.912   4.829   2.072  0.1376 -1.2509  0.7432
 5965TIP3   OH239529   5.736   6.064   2.605  0.0615 -0.2347  0.0316
 5965TIP3    H139530   5.721   6.130   2.538 -0.8034  0.3503  0.7709
 5965TIP3    H239531   5.824   6.083   2.639 -0.0035  0.2531 -0.0694
 5966TIP3   OH239532   1.040   6.647   7.752 -0.0408  0.5782 -0.1355
 5966TIP3    H139533   0.946   6.626   7.755 -0.0697  0.5015 -1.2862
 5966TIP3    H239534   1.075   6.610   7.833 -0.5044 -1.9540 -0.9908
 5967TIP3   OH239535   2.132   0.151   0.994 -0.1806  0.2110  0.4532
 5967TIP3    H139536   2.052   0.101   1.012  0.2153 -0.2962  0.8241
 5967TIP3    H239537   2.185   0.091   0.941  0.7105 -0.1461  1.7086
 5968TIP3   OH239538   1.968   3.811   2.882 -0.0985 -0.1038 -0.7151
 5968TIP3    H139539   2.002   3.746   2.821 -0.1273 -0.3686 -0.4520
 5968TIP3    H239540   1.924   3.759   2.950  3.0927 -0.0766  1.5983
 5969TIP3   OH239541   3.255   0.749   2.302  0.4412 -0.1126  0.2537
 5969TIP3    H139542   3.189   0.700   2.252 -0.2161 -1.8045  2.5819
 5969TIP3    H239543   3.329   0.689   2.310  1.2083  0.7640 -0.0661
 5970TIP3   OH239544   3.606   2.956   1.120 -0.5740 -0.7614 -0.6533
 5970TIP3    H139545   3.530   2.937   1.175 -1.2739  0.6493 -1.0709
 5970TIP3    H239546   3.571   2.956   1.031 -0.2819  0.6743 -0.7897
 5971TIP3   OH239547   0.128   3.988   7.592 -0.0285  0.1857  0.2955
 5971TIP3    H139548   0.036   4.012   7.593 -0.3187 -0.8243 -0.1841
 5971TIP3    H239549   0.167   4.043   7.525 -0.2696  0.6414  0.5268
 5972TIP3   OH239550   5.481   4.124   1.022  0.3365 -0.2456  0.2670
 5972TIP3    H139551   5.572   4.143   0.998 -0.0025  1.2654  0.0460
 5972TIP3    H239552   5.479   4.135   1.117  0.2357  0.5182  0.1873
 5973TIP3   OH239553   3.861   4.682   1.096 -0.0199  0.1182  0.0282
 5973TIP3    H139554   3.823   4.723   1.174  0.0273  0.4571 -0.1243
 5973TIP3    H239555   3.812   4.601   1.086  0.8726 -0.5870  1.1822
 5974TIP3   OH239556   5.422   6.396   8.196 -0.3214 -0.6039 -0.2375
 5974TIP3    H139557   5.397   6.401   8.104 -1.3339 -0.4298  0.0424
 5974TIP3    H239558   5.343   6.420   8.245  0.3957 -0.0080  0.6666
 5975TIP3   OH239559   0.216   5.850   2.985 -0.5909  0.0304 -0.1675
 5975TIP3    H139560   0.131   5.818   3.016 -0.5907 -0.4454 -0.6287
 5975TIP3    H239561   0.207   5.945   2.981 -0.6814  0.0806  0.9905
 5976TIP3   OH239562   0.427   4.992   0.457 -0.4832  0.0666  0.1315
 5976TIP3    H139563   0.433   4.917   0.516  0.4414  0.0783  0.0681
 5976TIP3    H239564   0.349   5.039   0.486 -0.0271  0.0921  1.3568
 5977TIP3   OH239565   3.787   5.789   0.157 -0.3199 -0.4277 -0.3803
 5977TIP3    H139566   3.794   5.874   0.113  0.7710 -1.0844 -1.5533
 5977TIP3    H239567   3.825   5.727   0.095  1.4985 -1.3871  1.5826
 5978TIP3   OH239568   2.252   4.394   2.505  0.1578  0.0359  0.0242
 5978TIP3    H139569   2.228   4.307   2.472 -1.4786 -0.5263  2.4218
 5978TIP3    H239570   2.231   4.454   2.433  0.3450 -1.4310 -1.3057
 5979TIP3   OH239571   4.997   7.063   1.436 -0.6039 -0.9211 -0.3785
 5979TIP3    H139572   4.974   7.073   1.343 -1.9981 -1.0481 -0.0590
 5979TIP3    H239573   5.076   7.009   1.435  0.2667  0.2962 -1.5542
 5980TIP3   OH239574   2.373   6.032   8.030 -0.0891 -0.0091 -0.0430
 5980TIP3    H139575   2.376   6.118   7.988 -0.1938  0.9262  1.7737
 5980TIP3    H239576   2.304   5.985   7.983 -3.2563  2.4963  1.6594
 5981TIP3   OH239577   4.546   6.781   2.474 -0.2182 -0.0968  0.0839
 5981TIP3    H139578   4.509   6.863   2.505  0.0184 -0.0120  0.1411
 5981TIP3    H239579   4.591   6.744   2.550 -1.7783 -1.1318  0.5542
 5982TIP3   OH239580   6.295   0.368   0.836 -0.6746  0.6058  0.1163
 5982TIP3    H139581   6.203   0.383   0.816 -0.4068  3.2315  0.4510
 5982TIP3    H239582   6.340   0.447   0.804  1.4485 -0.5534  0.0433
 5983TIP3   OH239583   0.323   5.035   2.709  0.1734  0.1691  0.2724
 5983TIP3    H139584   0.286   5.111   2.753 -0.1829 -0.3566  0.9009
 5983TIP3    H239585   0.252   5.001   2.655  0.8358  1.2667 -1.3610
 5984TIP3   OH239586   4.803   6.389   0.818 -0.0875  0.0968 -0.1636
 5984TIP3    H139587   4.877   6.443   0.791 -1.1014  1.4716 -0.3105
 5984TIP3    H239588   4.808   6.388   0.914  1.2262 -1.4990 -0.1860
 5985TIP3   OH239589   1.454   3.528   1.792  0.3313  0.1475 -0.7244
 5985TIP3    H139590   1.451   3.623   1.808  0.7601  0.1723 -0.7705
 5985TIP3    H239591   1.417   3.489   1.871 -0.3126  0.3676 -0.9057
 5986TIP3   OH239592   3.491   0.026   1.556  0.1735  0.5980  0.8962
 5986TIP3    H139593   3.524  -0.000   1.642 -0.2138 -0.2705  0.7847
 5986TIP3    H239594   3.422   0.090   1.575 -0.0593  0.2467  1.2377
 5987TIP3   OH239595   3.440   6.827   2.425  0.4426  0.2444 -0.2617
 5987TIP3    H139596   3.457   6.844   2.518  0.6385  0.5515 -0.3536
 5987TIP3    H239597   3.412   6.735   2.423 -2.4002  0.9909  0.4718
 5988TIP3   OH239598   2.664   0.607   0.190  0.2285  0.7473 -0.5051
 5988TIP3    H139599   2.614   0.530   0.161  1.4583 -0.6059  0.8188
 5988TIP3    H239600   2.609   0.648   0.256  0.9113 -0.9018  1.1576
 5989TIP3   OH239601   5.407   3.935   1.418  0.3833 -0.5431 -0.1716
 5989TIP3    H139602   5.360   3.956   1.498 -1.9774 -1.5742 -1.1991
 5989TIP3    H239603   5.344   3.886   1.365  2.8423 -2.5975 -1.3945
 5990TIP3   OH239604   1.768   0.742   7.683 -0.4675  0.1098  0.1868
 5990TIP3    H139605   1.811   0.764   7.600  0.7579  0.8694  0.9902
 5990TIP3    H239606   1.678   0.774   7.673 -0.5892 -0.5835 -1.1486
 5991TIP3   OH239607   5.860   1.553   0.002 -0.0739 -0.3222 -0.0232
 5991TIP3    H139608   5.822   1.616   0.062  1.0727 -1.4737  1.9982
 5991TIP3    H239609   5.787   1.528  -0.056 -0.6085  2.6017 -0.7856
 5992TIP3   OH239610   0.277   4.409   0.604 -0.1084  0.0920 -0.3474
 5992TIP3    H139611   0.303   4.500   0.618  1.5582 -0.4547  0.3074
 5992TIP3    H239612   0.213   4.392   0.674 -2.4677  1.4698 -2.0252
 5993TIP3   OH239613   2.367   5.344   0.169 -0.0166  0.1059  0.4079
 5993TIP3    H139614   2.375   5.403   0.244 -2.5295 -0.3272  1.1070
 5993TIP3    H239615   2.342   5.402   0.097 -0.3372  0.1699  0.5703
 5994TIP3   OH239616   5.934   6.921   2.769  0.4994  0.1501  0.0122
 5994TIP3    H139617   5.942   7.003   2.817  0.3027  0.3361 -0.2665
 5994TIP3    H239618   6.024   6.895   2.750  0.5488  0.7900 -0.7100
 5995TIP3   OH239619   0.210   3.255   3.179 -0.2865  0.2397  0.1757
 5995TIP3    H139620   0.287   3.198   3.178 -0.3072  0.1929 -1.6990
 5995TIP3    H239621   0.238   3.334   3.133 -1.1423  0.5414  0.1523
 5996TIP3   OH239622   6.561   0.874   7.755  0.2231 -0.8294  0.1416
 5996TIP3    H139623   6.471   0.874   7.789  0.7021  0.2819  1.5087
 5996TIP3    H239624   6.557   0.927   7.676 -0.1964 -0.1248  0.6206
 5997TIP3   OH239625   5.228   4.877   1.375  0.1730 -0.9095 -0.5426
 5997TIP3    H139626   5.150   4.931   1.371  0.5108 -0.4486 -1.2043
 5997TIP3    H239627   5.259   4.886   1.465 -1.4143 -2.4016  0.2107
 5998TIP3   OH239628   0.090   4.042   0.471  0.4551 -0.0481 -0.4512
 5998TIP3    H139629   0.008   3.996   0.451  0.2022 -0.7098  1.8251
 5998TIP3    H239630   0.085   4.123   0.421 -1.3272 -0.3341 -0.8011
 5999TIP3   OH239631   6.600   2.102   0.492  0.4618  0.0328 -0.7035
 5999TIP3    H139632   6.614   2.008   0.498 -0.3179 -0.0621 -0.2272
 5999TIP3    H239633   6.506   2.111   0.476  0.8533  0.6400 -3.1225
 6000TIP3   OH239634   4.096   1.577   0.683 -0.2538  0.0844 -0.0229
 6000TIP3    H139635   4.140   1.581   0.768  0.4002  2.3422 -0.3966
 6000TIP3    H239636   4.016   1.528   0.699  0.7385 -1.1653  1.4493
 6001TIP3   OH239637   0.922   6.616   2.614  0.3243 -0.0386 -0.4976
 6001TIP3    H139638   1.003   6.667   2.619  0.8815 -0.9309 -0.2810
 6001TIP3    H239639   0.936   6.542   2.673  0.1652 -1.3067 -1.9935
 6002TIP3   OH239640   1.329   2.146   8.119  0.0721  0.5452 -0.6392
 6002TIP3    H139641   1.305   2.139   8.027 -1.1797 -0.4061 -0.2632
 6002TIP3    H239642   1.246   2.147   8.166  0.6978  0.7545  0.5053
 6003TIP3   OH239643   4.904   5.547   2.045 -0.3485 -0.2015 -0.1192
 6003TIP3    H139644   4.963   5.564   2.119  0.0423 -0.2112 -0.4269
 6003TIP3    H239645   4.927   5.458   2.017  0.6616  0.4106 -1.3072
 6004TIP3   OH239646   1.744   4.489   0.678 -0.2900 -0.3257 -0.4938
 6004TIP3    H139647   1.828   4.468   0.721 -1.0331 -1.4877  0.4520
 6004TIP3    H239648   1.755   4.458   0.588  0.3368 -0.3930 -0.4018
 6005TIP3   OH239649   4.982   1.963   3.094 -0.3702 -0.3703  0.0114
 6005TIP3    H139650   4.964   2.057   3.094 -1.4127 -0.5519 -0.7521
 6005TIP3    H239651   4.986   1.941   3.001 -0.6632 -1.1767  0.1875
 6006TIP3   OH239652   5.385   6.073   2.092  0.3357  0.3235 -0.0929
 6006TIP3    H139653   5.418   6.044   2.177  1.8094 -1.5079 -1.2210
 6006TIP3    H239654   5.402   6.167   2.090  1.1410  0.2192  1.2579
 6007TIP3   OH239655   4.635   3.315   0.342 -0.0653  1.0324 -0.2476
 6007TIP3    H139656   4.666   3.395   0.385 -1.0556  1.3710 -0.1570
 6007TIP3    H239657   4.542   3.330   0.326 -0.7463 -0.8795  1.5417
 6008TIP3   OH239658   2.941   1.363   2.747 -0.8645  0.6736  0.2074
 6008TIP3    H139659   2.962   1.429   2.812 -1.6787  0.9871  0.1655
 6008TIP3    H239660   2.856   1.390   2.712 -2.1787 -1.4136  1.5540
 6009TIP3   OH239661   0.475   0.628   7.708  0.0254 -0.1748 -0.0287
 6009TIP3    H139662   0.522   0.561   7.657 -2.7172 -1.9657 -0.3884
 6009TIP3    H239663   0.532   0.643   7.784  2.0612 -0.8020 -1.3283
 6010TIP3   OH239664   1.477   6.232   3.253 -0.3237 -0.0569 -0.1361
 6010TIP3    H139665   1.477   6.234   3.348  0.4282 -0.9346 -0.1046
 6010TIP3    H239666   1.510   6.318   3.227 -1.0347  0.3774  0.3726
 6011TIP3   OH239667   4.620   2.972   2.604  0.4071  0.5116 -0.1411
 6011TIP3    H139668   4.541   2.958   2.657  0.8624 -1.3097  0.1288
 6011TIP3    H239669   4.678   3.023   2.661 -0.3654  1.4342 -0.1569
 6012TIP3   OH239670   5.204   1.796   1.454 -0.3851 -0.3580 -0.0262
 6012TIP3    H139671   5.218   1.713   1.500  0.0512 -0.1873  0.1549
 6012TIP3    H239672   5.155   1.772   1.375 -1.3781 -0.6253  0.6515
 6013TIP3   OH239673   0.560   1.872   3.690 -0.6648 -0.0006 -0.2164
 6013TIP3    H139674   0.565   1.928   3.767 -1.5155  0.0552 -0.1998
 6013TIP3    H239675   0.483   1.903   3.642  0.8544  1.1983 -2.0527
 6014TIP3   OH239676   3.462   1.034   7.661 -0.5694  0.7383  0.0708
 6014TIP3    H139677   3.459   1.035   7.757  0.4502  2.4197  0.1312
 6014TIP3    H239678   3.530   1.098   7.639  0.9920 -1.4133 -1.7249
 6015TIP3   OH239679   1.565   2.577   0.131  0.0077  0.7320 -0.0066
 6015TIP3    H139680   1.608   2.506   0.179 -1.8290  0.2264  1.0189
 6015TIP3    H239681   1.602   2.657   0.167 -0.2867  0.3218  1.2799
 6016TIP3   OH239682   6.260   0.153   2.548  0.1127  0.5427 -0.4098
 6016TIP3    H139683   6.217   0.071   2.524 -0.4761  0.8327 -0.3622
 6016TIP3    H239684   6.206   0.190   2.618  0.8596  0.5493  0.1870
 6017TIP3   OH239685   2.009   3.205   7.867 -0.0395  0.0400 -0.2113
 6017TIP3    H139686   1.993   3.169   7.955  1.2001 -0.7718 -0.2815
 6017TIP3    H239687   2.039   3.129   7.816  4.4394  1.3089  0.0865
 6018TIP3   OH239688   0.949   3.536   1.570 -0.3839  0.2724  0.1812
 6018TIP3    H139689   1.012   3.525   1.499  1.0644 -2.1316  1.6939
 6018TIP3    H239690   0.886   3.464   1.557 -1.1392  0.8900  0.3396
 6019TIP3   OH239691   4.244   3.284   3.373  0.5748 -0.0123 -0.7858
 6019TIP3    H139692   4.305   3.343   3.418  0.0219 -0.4749  0.6266
 6019TIP3    H239693   4.252   3.307   3.281 -0.2498  2.8547 -0.2130
 6020TIP3   OH239694   4.864   6.650   0.101 -0.4414 -0.0043 -0.3317
 6020TIP3    H139695   4.809   6.659   0.179 -1.6095  1.0962 -1.2479
 6020TIP3    H239696   4.840   6.565   0.064 -0.9189  0.0962 -0.2566
 6021TIP3   OH239697   2.199   2.593   2.126  0.2027 -0.0569 -0.1148
 6021TIP3    H139698   2.180   2.640   2.045  1.0506 -1.1603 -0.9736
 6021TIP3    H239699   2.122   2.538   2.140 -0.2054  0.5743  0.1683
 6022TIP3   OH239700   1.873   0.638   0.316  0.3558  0.0764  0.1064
 6022TIP3    H139701   1.873   0.542   0.317  0.6758  0.0655 -0.4901
 6022TIP3    H239702   1.921   0.661   0.236 -1.7318  0.7095 -1.0387
 6023TIP3   OH239703   5.634   1.542   2.497  0.0303 -0.0707 -0.2031
 6023TIP3    H139704   5.625   1.577   2.586  0.1863 -0.0427 -0.1985
 6023TIP3    H239705   5.555   1.490   2.484  0.0857 -0.2122  0.0154
 6024TIP3   OH239706   4.911   3.486   8.234 -0.1352 -0.1838  0.5642
 6024TIP3    H139707   4.931   3.523   8.319  0.0729  1.1004 -0.0267
 6024TIP3    H239708   4.966   3.534   8.173 -0.6985 -0.6919 -0.3702
 6025TIP3   OH239709   3.414   2.206   2.797 -0.7886  0.0553 -0.0346
 6025TIP3    H139710   3.367   2.240   2.873  0.4195  2.5287 -0.2940
 6025TIP3    H239711   3.488   2.158   2.833 -0.9371  0.1244  0.3621
 6026TIP3   OH239712   3.964   0.158   3.267  0.1715  0.4258  0.7069
 6026TIP3    H139713   4.025   0.085   3.260 -0.5276 -0.2648  1.5591
 6026TIP3    H239714   3.978   0.194   3.354 -1.8614 -0.9201  1.6800
 6027TIP3   OH239715   0.061   4.239   2.705  0.1050  0.5854  0.0620
 6027TIP3    H139716  -0.022   4.233   2.753  0.5562  0.7274  0.8706
 6027TIP3    H239717   0.092   4.148   2.700 -0.5650  0.3946 -1.1089
 6028TIP3   OH239718   4.637   6.427   0.154  0.4918 -0.1042 -0.0702
 6028TIP3    H139719   4.563   6.445   0.097 -0.9780 -2.6417  0.8607
 6028TIP3    H239720   4.693   6.368   0.103  0.9704  0.4153 -0.1453
 6029TIP3   OH239721   3.377   5.379   1.458  0.1602 -0.2978  0.2376
 6029TIP3    H139722   3.445   5.420   1.404  0.1185 -0.2217  0.2432
 6029TIP3    H239723   3.347   5.449   1.516 -0.3917 -0.1579 -0.2104
 6030TIP3   OH239724   1.792   2.944   2.344 -0.0969  0.1519 -0.1319
 6030TIP3    H139725   1.747   2.861   2.363 -1.3991  0.4317 -1.7616
 6030TIP3    H239726   1.748   3.008   2.401  0.4577 -0.1316  0.6368
 6031TIP3   OH239727   2.274   3.850   8.139 -0.3197 -0.5901  0.6215
 6031TIP3    H139728   2.311   3.769   8.103 -0.3175  0.9045 -3.1078
 6031TIP3    H239729   2.181   3.846   8.117 -0.0089  1.1274 -1.2845
 6032TIP3   OH239730   5.930   2.024   2.978  0.1351  0.4466 -0.1088
 6032TIP3    H139731   5.851   1.971   2.969 -0.1931  0.8550  0.3383
 6032TIP3    H239732   5.898   2.114   2.982  0.7580  0.8062 -2.1741
 6033TIP3   OH239733   2.060   3.466   2.201 -0.4430 -0.3829  0.0605
 6033TIP3    H139734   2.105   3.484   2.283 -1.5878  0.2593  0.5711
 6033TIP3    H239735   2.081   3.375   2.181  1.0648 -0.0995  0.2618
 6034TIP3   OH239736   4.368   2.822   1.016  0.0937  0.2624  0.6611
 6034TIP3    H139737   4.356   2.916   1.033  0.5130  0.0312  2.3655
 6034TIP3    H239738   4.430   2.793   1.082 -0.6973 -1.4224  0.7229
 6035TIP3   OH239739   4.348   4.991   2.966 -0.3960 -0.0023 -0.2467
 6035TIP3    H139740   4.326   4.989   3.059 -1.8870  0.0585 -0.5700
 6035TIP3    H239741   4.391   4.907   2.950 -0.7594 -0.3110  0.3581
 6036TIP3   OH239742   6.125   0.343   1.057  0.2162  0.2418  0.3621
 6036TIP3    H139743   6.138   0.424   1.107  2.8160 -0.8572  1.6684
 6036TIP3    H239744   6.174   0.357   0.976  0.1864  0.1982  0.3372
 6037TIP3   OH239745   0.165   5.268   7.282  1.1865 -0.3482 -0.6942
 6037TIP3    H139746   0.112   5.344   7.260 -0.2730 -1.1674 -0.1387
 6037TIP3    H239747   0.210   5.292   7.363  0.4075 -0.2108 -0.2930
 6038TIP3   OH239748   5.765   2.043   3.280 -0.2646 -0.3424  0.1395
 6038TIP3    H139749   5.699   1.981   3.310 -0.6139 -0.4642 -0.8569
 6038TIP3    H239750   5.728   2.081   3.200  0.1999  0.7178  0.4043
 6039TIP3   OH239751   2.598   5.937   8.165 -0.1330  0.2367 -0.0230
 6039TIP3    H139752   2.530   5.963   8.103 -0.4460 -1.0505 -0.2530
 6039TIP3    H239753   2.567   5.970   8.249 -1.4673 -0.9853  0.0051
 6040TIP3   OH239754   0.485   3.304   0.026  0.0792  0.3054  0.6174
 6040TIP3    H139755   0.537   3.366  -0.024  0.0299 -0.9929 -1.1367
 6040TIP3    H239756   0.395   3.319  -0.003  0.2235 -1.5153 -0.9793
 6041TIP3   OH239757   3.121   1.788   7.391 -0.4302 -0.1615  0.2378
 6041TIP3    H139758   3.197   1.736   7.364 -1.2149 -1.3079  0.1857
 6041TIP3    H239759   3.047   1.750   7.343 -0.6309  2.9213 -2.1716
 6042TIP3   OH239760   4.930   6.259   0.339 -0.3353 -0.0316 -0.3524
 6042TIP3    H139761   4.877   6.192   0.296 -0.0084 -0.8965  0.5567
 6042TIP3    H239762   4.943   6.226   0.428 -0.2577  1.2951  0.1580
 6043TIP3   OH239763   6.307   2.417   3.064 -0.5919  0.2581  0.4993
 6043TIP3    H139764   6.227   2.381   3.102 -1.1184  2.0506  1.2236
 6043TIP3    H239765   6.367   2.424   3.138  0.0626 -0.5558  0.0633
 6044TIP3   OH239766   1.888   0.087   0.294 -0.4226 -0.4215 -0.1396
 6044TIP3    H139767   1.961   0.105   0.353  0.0535  0.2614 -0.9086
 6044TIP3    H239768   1.824   0.042   0.348  0.4555 -0.7966  0.6211
 6045TIP3   OH239769   2.168   4.059   1.066  0.1587  0.0731  0.1832
 6045TIP3    H139770   2.241   3.998   1.057 -0.2774 -0.6060  1.1583
 6045TIP3    H239771   2.125   4.057   0.980  1.2096  0.4046 -0.3649
 6046TIP3   OH239772   5.493   4.770   2.046  0.2701  0.2060  0.4275
 6046TIP3    H139773   5.542   4.837   1.999 -2.6993  1.1707 -1.5829
 6046TIP3    H239774   5.549   4.693   2.043  1.9085  1.3876 -1.1284
 6047TIP3   OH239775   1.676   2.877   2.929 -0.1512  0.4667  0.1100
 6047TIP3    H139776   1.597   2.930   2.932  0.8943  2.0926  1.0607
 6047TIP3    H239777   1.664   2.818   2.854 -1.6378  1.6628 -0.6416
 6048TIP3   OH239778   0.787   0.696   1.973  0.1478 -0.0430 -0.0421
 6048TIP3    H139779   0.778   0.626   1.908  0.1534 -1.3494  1.3211
 6048TIP3    H239780   0.849   0.662   2.037  0.4183  1.3680  0.4820
 6049TIP3   OH239781   5.089   1.595   0.289  0.2367  0.0422 -0.0904
 6049TIP3    H139782   5.182   1.590   0.270  0.3496  0.6041  0.2857
 6049TIP3    H239783   5.059   1.504   0.286  1.0464 -0.2828  0.9911
 6050TIP3   OH239784   1.576   4.381   0.100 -0.2294 -0.2706  0.0896
 6050TIP3    H139785   1.600   4.474   0.099 -1.3377  0.0296  0.1441
 6050TIP3    H239786   1.660   4.335   0.099  0.3448  0.7288  0.5642
 6051TIP3   OH239787   5.705   6.081   1.216  0.5093 -0.1992 -0.1599
 6051TIP3    H139788   5.683   6.143   1.285 -1.4384 -0.5511 -0.4069
 6051TIP3    H239789   5.755   6.012   1.260 -1.2244 -0.7304  1.0900
 6052TIP3   OH239790   0.526   5.796   0.275 -0.2568  0.1365 -0.4320
 6052TIP3    H139791   0.475   5.871   0.243 -0.3035  0.3890  0.2291
 6052TIP3    H239792   0.612   5.833   0.295 -0.7915  0.3985  1.5675
 6053TIP3   OH239793   6.992   2.029   1.478  0.3013  0.3132 -0.1361
 6053TIP3    H139794   6.901   2.046   1.456 -0.6268 -2.8891  0.7463
 6053TIP3    H239795   6.997   2.042   1.572  0.0822 -1.7606  0.2113
 6054TIP3   OH239796   1.935   6.290   1.140  0.0308 -0.5757  0.0944
 6054TIP3    H139797   1.897   6.355   1.082 -0.5221 -0.1715  0.8885
 6054TIP3    H239798   1.891   6.208   1.116 -0.7477 -0.2669  0.4455
 6055TIP3   OH239799   1.552   2.425   2.448  0.0826 -0.1481  0.4735
 6055TIP3    H139800   1.590   2.407   2.362 -0.7069  1.7513 -0.3546
 6055TIP3    H239801   1.570   2.347   2.500 -0.5475 -1.9087 -1.8061
 6056TIP3   OH239802   1.556   6.927   7.906 -0.1994  0.4640  0.4778
 6056TIP3    H139803   1.545   6.885   7.991  2.6759 -1.8039 -0.1051
 6056TIP3    H239804   1.467   6.945   7.876 -1.3473 -0.2901  3.1629
 6057TIP3   OH239805   5.051   2.544   0.790  0.7059 -0.3812 -0.4822
 6057TIP3    H139806   5.146   2.545   0.778  0.8122  1.6814  0.2395
 6057TIP3    H239807   5.022   2.631   0.764 -0.6902 -0.1851  1.5252
 6058TIP3   OH239808   3.121   3.952   2.611  0.1050  0.0152 -0.3608
 6058TIP3    H139809   3.148   3.912   2.693 -0.3277 -0.1029 -0.2741
 6058TIP3    H239810   3.193   3.935   2.551  0.4833  0.2203  0.0304
 6059TIP3   OH239811   6.492   3.311   1.196 -0.0489  0.0951  0.0734
 6059TIP3    H139812   6.534   3.226   1.207 -2.1346 -0.7730  2.1142
 6059TIP3    H239813   6.425   3.296   1.130  0.5985  0.6125 -0.7283
 6060TIP3   OH239814   3.060   5.996   8.147  0.0926 -0.5056  0.4134
 6060TIP3    H139815   2.976   5.971   8.109 -0.1554  2.9001 -1.6338
 6060TIP3    H239816   3.124   5.939   8.105 -0.6975  0.2064 -1.8628
 6061TIP3   OH239817   2.878   5.895   7.923  0.4927  0.3571  0.3404
 6061TIP3    H139818   2.955   5.853   7.883  0.6710  1.0978 -0.1168
 6061TIP3    H239819   2.803   5.849   7.886  0.6552  0.9946 -0.8383
 6062TIP3   OH239820   1.879   0.571   1.632 -0.2516  0.1801  0.5881
 6062TIP3    H139821   1.805   0.568   1.570 -0.8568  0.4523  1.2857
 6062TIP3    H239822   1.882   0.662   1.661 -0.6352 -0.1638  1.7446
 6063TIP3   OH239823   6.180   3.956   8.215 -0.9240 -0.1946  0.0602
 6063TIP3    H139824   6.179   3.946   8.120  0.5572 -2.1659  0.1872
 6063TIP3    H239825   6.103   4.010   8.235 -1.1378  0.4391 -2.2404
 6064TIP3   OH239826   0.189   1.392   2.917 -0.6448 -0.2737 -0.3125
 6064TIP3    H139827   0.142   1.308   2.915  0.2336 -0.8977  1.9432
 6064TIP3    H239828   0.281   1.368   2.932 -0.2226  1.0742 -0.5875
 6065TIP3   OH239829   4.981   3.174   3.070 -0.7452  0.3563 -0.0092
 6065TIP3    H139830   5.039   3.213   3.135 -1.4234  0.2703  0.6550
 6065TIP3    H239831   4.989   3.232   2.994  0.2997  0.2739  0.0183
 6066TIP3   OH239832   3.010   1.390   7.612  0.2390 -0.2938  0.5068
 6066TIP3    H139833   3.090   1.427   7.573 -0.0835  0.1890  0.2972
 6066TIP3    H239834   3.017   1.296   7.595  0.6146 -0.2147  0.2106
 6067TIP3   OH239835   0.794   2.990   3.211  0.7417 -0.1603 -0.5991
 6067TIP3    H139836   0.791   2.895   3.199 -0.2668 -0.1770 -0.2846
 6067TIP3    H239837   0.785   3.025   3.123  0.1432 -0.3494 -0.6169
 6068TIP3   OH239838   2.787   3.771   6.977 -0.6898  0.2029 -0.3316
 6068TIP3    H139839   2.781   3.713   7.053 -0.8586  1.1081  0.3617
 6068TIP3    H239840   2.881   3.774   6.956 -0.7964 -1.3683 -1.2368
 6069TIP3   OH239841   3.165   2.144   7.582  0.2662 -0.3711  0.5628
 6069TIP3    H139842   3.246   2.193   7.571 -0.3978  0.4084 -1.3938
 6069TIP3    H239843   3.119   2.188   7.653  1.5516 -0.8592  1.7262
 6070TIP3   OH239844   1.411   5.178   1.735 -0.4502  0.2358  0.4303
 6070TIP3    H139845   1.348   5.120   1.693 -1.2846  1.1030  0.4644
 6070TIP3    H239846   1.395   5.168   1.828 -0.4285  0.3396  0.4456
 6071TIP3   OH239847   5.803   3.332   0.734 -0.3705 -0.0509 -0.2581
 6071TIP3    H139848   5.715   3.336   0.697 -0.0299  2.5974 -0.9911
 6071TIP3    H239849   5.789   3.336   0.829 -1.0999  2.6198 -0.3809
 6072TIP3   OH239850   5.048   6.349   2.032 -0.1245 -0.1710  0.3287
 6072TIP3    H139851   5.058   6.322   1.941 -2.2671 -0.3550  0.0977
 6072TIP3    H239852   5.062   6.444   2.031 -0.8542 -0.0606 -0.3401
 6073TIP3   OH239853   6.208   6.463   3.617  0.2379  0.5161 -0.1199
 6073TIP3    H139854   6.222   6.537   3.676 -0.3588  0.4572  0.0967
 6073TIP3    H239855   6.292   6.417   3.617  0.3154  0.6493  0.4940
 6074TIP3   OH239856   4.250   2.049   0.578  0.7455  0.4102  0.0535
 6074TIP3    H139857   4.344   2.057   0.596  0.9989  1.7904 -1.6783
 6074TIP3    H239858   4.240   1.960   0.546  1.3943  0.1321  0.5866
 6075TIP3   OH239859   0.631   0.573   0.596  0.8389 -0.7671  0.3305
 6075TIP3    H139860   0.541   0.544   0.612  0.8798 -1.0307  0.0965
 6075TIP3    H239861   0.685   0.505   0.637  0.9326 -0.7072  0.3056
 6076TIP3   OH239862   6.792   5.077   8.054 -0.0644 -0.4483 -0.0168
 6076TIP3    H139863   6.855   5.007   8.037 -0.1113 -0.3136 -0.7808
 6076TIP3    H239864   6.730   5.073   7.981  0.3403  0.8361 -0.4640
 6077TIP3   OH239865   0.985   3.167   0.721  0.0125 -0.2157 -0.7352
 6077TIP3    H139866   0.990   3.231   0.791  0.9342 -0.9026 -0.1540
 6077TIP3    H239867   1.047   3.198   0.655 -1.5757  0.9811 -1.7701
 6078TIP3   OH239868   4.791   4.640   1.860 -0.2512 -0.5826  0.1006
 6078TIP3    H139869   4.833   4.663   1.943 -1.2205  1.2046  0.1349
 6078TIP3    H239870   4.706   4.684   1.862 -1.6716 -3.0867 -0.5091
 6079TIP3   OH239871   3.367   3.458   1.116  0.6892  0.4228 -0.2693
 6079TIP3    H139872   3.346   3.473   1.208  1.7109  3.3419 -0.4071
 6079TIP3    H239873   3.446   3.404   1.118 -0.2104 -0.9174  0.4732
 6080TIP3   OH239874   5.390   1.688   2.946  0.5137  0.5570  0.0791
 6080TIP3    H139875   5.468   1.644   2.979  0.5101 -0.4699 -1.2181
 6080TIP3    H239876   5.356   1.735   3.022  0.0279 -2.3502  1.8135
 6081TIP3   OH239877   3.179   4.038   0.246 -0.2671  0.2107  0.2577
 6081TIP3    H139878   3.240   4.101   0.211  0.6664  0.7087  2.5754
 6081TIP3    H239879   3.095   4.084   0.248  0.3461  1.3685  1.6621
 6082TIP3   OH239880   1.488   1.967   1.021 -0.2777 -0.3572  0.2022
 6082TIP3    H139881   1.518   1.944   1.109  2.0851 -2.1584 -0.9530
 6082TIP3    H239882   1.536   1.908   0.963 -0.5962  1.7538 -2.4255
 6083TIP3   OH239883   3.257   3.271   0.779  0.2412 -0.0287 -0.2261
 6083TIP3    H139884   3.166   3.245   0.765 -0.2737  1.7391 -0.4777
 6083TIP3    H239885   3.250   3.357   0.821  1.8054 -0.2632  0.5720
 6084TIP3   OH239886   2.764   6.720   0.006  0.2591  0.2194 -0.6999
 6084TIP3    H139887   2.756   6.810  -0.028  2.1286 -0.1980 -2.4556
 6084TIP3    H239888   2.834   6.724   0.070 -0.7951  0.2935  0.4829
 6085TIP3   OH239889   0.516   5.488   1.795 -0.5646  0.7133 -0.4488
 6085TIP3    H139890   0.564   5.441   1.864  0.4658  1.6245 -0.5115
 6085TIP3    H239891   0.580   5.550   1.760 -2.2448  3.2434  0.6604
 6086TIP3   OH239892   0.806   0.486   2.876 -0.0929 -0.2465  0.4161
 6086TIP3    H139893   0.852   0.544   2.937 -1.3536 -0.4054  1.5918
 6086TIP3    H239894   0.729   0.537   2.849 -0.3185 -0.7413  0.1075
 6087TIP3   OH239895   5.066   1.130   1.371 -0.2917 -0.9818 -0.5299
 6087TIP3    H139896   5.019   1.149   1.290  1.4582  2.3867 -0.9556
 6087TIP3    H239897   4.998   1.130   1.439 -1.4348 -0.8407 -1.6329
 6088TIP3   OH239898   6.109   6.305   8.154 -0.1261  0.0399 -0.1082
 6088TIP3    H139899   6.191   6.292   8.106  0.4606  3.2230 -0.2265
 6088TIP3    H239900   6.091   6.399   8.144 -2.9392 -0.2602  1.2949
 6089TIP3   OH239901   2.049   2.162   7.243 -0.1089 -0.3367  0.2629
 6089TIP3    H139902   2.058   2.078   7.288  2.5814  0.9416  2.4362
 6089TIP3    H239903   2.136   2.178   7.205 -0.4210  1.6244  0.3004
 6090TIP3   OH239904   0.808   1.984   8.005 -0.4205  0.0822 -0.1753
 6090TIP3    H139905   0.787   1.920   8.073 -0.0730 -0.2133 -0.3428
 6090TIP3    H239906   0.738   2.050   8.012 -0.0057  0.4319  0.9246
 6091TIP3   OH239907   5.529   3.064   0.999  0.3064  1.1422  0.5001
 6091TIP3    H139908   5.465   3.063   1.070 -1.2628  1.2541 -0.8454
 6091TIP3    H239909   5.509   3.143   0.949  1.0654  0.8183 -0.3502
 6092TIP3   OH239910   6.503   3.614   0.160 -0.6631  0.5275  0.1735
 6092TIP3    H139911   6.431   3.653   0.210 -0.7320  0.7403 -0.0912
 6092TIP3    H239912   6.524   3.678   0.093 -1.1184 -0.0985 -0.5891
 6093TIP3   OH239913   0.703   1.953   2.265  0.0041 -0.3914  0.7075
 6093TIP3    H139914   0.642   2.015   2.304 -0.1066 -1.3422  2.1594
 6093TIP3    H239915   0.659   1.868   2.274  0.2134 -0.7131 -1.0859
 6094TIP3   OH239916   3.471   6.550   2.461  0.1421  0.2336  0.9104
 6094TIP3    H139917   3.453   6.461   2.492 -1.0920  0.0261 -0.2838
 6094TIP3    H239918   3.533   6.586   2.524 -0.1388 -1.1155  1.9964
 6095TIP3   OH239919   3.726   1.799   1.189 -0.0208  0.1744  0.5040
 6095TIP3    H139920   3.817   1.804   1.217 -0.0732  1.0848  0.5250
 6095TIP3    H239921   3.677   1.785   1.270  0.0290  0.5236  0.5961
 6096TIP3   OH239922   4.230   2.482   7.252 -0.2659  0.3787  0.3019
 6096TIP3    H139923   4.185   2.531   7.184  1.1210 -0.2469 -1.1197
 6096TIP3    H239924   4.164   2.420   7.284 -1.1471  1.1653  0.0562
 6097TIP3   OH239925   0.766   4.216   2.490  0.3885 -0.1484 -0.2609
 6097TIP3    H139926   0.740   4.223   2.582 -0.3547 -2.7597 -0.1862
 6097TIP3    H239927   0.690   4.248   2.441  0.2368 -0.0483  0.0349
 6098TIP3   OH239928   5.300   0.762   0.999 -0.6124 -0.6699 -0.4673
 6098TIP3    H139929   5.258   0.676   1.004  0.7196 -1.4245 -1.6882
 6098TIP3    H239930   5.318   0.775   0.906  1.3312 -0.1154 -0.0520
 6099TIP3   OH239931   4.136   2.257   0.882  0.0072 -0.1302 -0.0067
 6099TIP3    H139932   4.043   2.275   0.872 -0.2498 -1.0372  0.5911
 6099TIP3    H239933   4.176   2.290   0.801 -0.9888 -0.7428 -0.7816
 6100TIP3   OH239934   1.751   0.983   1.540  0.1139 -0.0531  0.8408
 6100TIP3    H139935   1.786   1.069   1.517  0.0197  0.6759  3.1329
 6100TIP3    H239936   1.667   0.978   1.494  0.1183  1.0990  0.6916
 6101TIP3   OH239937   3.219   3.391   2.319 -0.3417  0.4196  0.0255
 6101TIP3    H139938   3.264   3.380   2.403  0.2843  0.5300 -0.2854
 6101TIP3    H239939   3.193   3.303   2.294 -1.1627  0.4624  0.6641
 6102TIP3   OH239940   2.349   6.670   1.530  0.0057  0.9400 -0.4295
 6102TIP3    H139941   2.371   6.754   1.488  1.2797  0.6285 -0.4276
 6102TIP3    H239942   2.275   6.691   1.588 -1.5517  1.4613 -2.4904
 6103TIP3   OH239943   0.793   3.366   0.061  0.0947 -0.1112 -0.4143
 6103TIP3    H139944   0.808   3.308  -0.014 -1.1360  0.6027 -1.2637
 6103TIP3    H239945   0.854   3.336   0.127  0.0943 -1.8299 -1.1275
 6104TIP3   OH239946   7.028   4.361   1.907  0.7051 -0.1362 -0.3733
 6104TIP3    H139947   7.110   4.390   1.866  0.4660 -0.5264 -1.1605
 6104TIP3    H239948   6.997   4.291   1.849 -1.3241  1.4693 -1.3432
 6105TIP3   OH239949   5.607   1.898   0.509 -0.7038 -0.1826  0.6363
 6105TIP3    H139950   5.593   1.806   0.535 -0.4977 -0.6380 -0.7585
 6105TIP3    H239951   5.674   1.930   0.570  0.6718 -1.5783 -0.0459
 6106TIP3   OH239952   1.470   3.087   2.917  0.1985  0.0809 -0.2419
 6106TIP3    H139953   1.502   3.144   2.847  1.4778 -0.3663 -0.0489
 6106TIP3    H239954   1.429   3.147   2.980 -1.3456  0.4418 -1.5463
 6107TIP3   OH239955   2.821   6.100   3.025 -0.3873  0.4715 -0.5705
 6107TIP3    H139956   2.792   6.184   3.061  0.1676  0.6188 -0.4617
 6107TIP3    H239957   2.750   6.074   2.966 -0.8207  0.7398 -0.1808
 6108TIP3   OH239958   3.530   1.484   2.246  0.0970  0.9429 -0.4490
 6108TIP3    H139959   3.598   1.468   2.181 -1.3794  0.3595 -1.9394
 6108TIP3    H239960   3.569   1.458   2.329  2.3825  2.5736 -0.8997
 6109TIP3   OH239961   2.788   3.477   8.111 -0.2419 -0.3300  0.5075
 6109TIP3    H139962   2.783   3.554   8.167 -2.2573 -0.1218  0.1345
 6109TIP3    H239963   2.861   3.426   8.146  0.8164  1.4880  1.0616
 6110TIP3   OH239964   6.142   1.458   1.855  0.3090 -0.5074 -0.1409
 6110TIP3    H139965   6.111   1.371   1.829  0.5581 -0.0920 -1.9465
 6110TIP3    H239966   6.085   1.483   1.928 -0.1658 -1.9219  0.0025
 6111TIP3   OH239967   3.772   3.273   1.705  0.0857 -0.1381 -0.5013
 6111TIP3    H139968   3.702   3.331   1.733  1.3189  0.8220  0.7316
 6111TIP3    H239969   3.774   3.280   1.610  0.1729  1.8344 -0.3783
 6112TIP3   OH239970   1.019   2.851   1.248 -0.4338 -0.4686  0.0218
 6112TIP3    H139971   1.018   2.835   1.342 -1.4793 -0.3947  0.0367
 6112TIP3    H239972   1.083   2.789   1.214 -0.0870 -0.5314  0.7784
 6113TIP3   OH239973   3.793   6.070   0.026  0.0480 -0.1383  0.1189
 6113TIP3    H139974   3.775   6.156  -0.012 -0.8616 -0.5941 -0.5321
 6113TIP3    H239975   3.869   6.037  -0.023 -1.8543 -1.2552 -2.3346
 6114TIP3   OH239976   2.437   1.200   7.954 -0.3661 -0.2715  0.2189
 6114TIP3    H139977   2.479   1.164   7.876 -0.1701  1.3132 -0.4508
 6114TIP3    H239978   2.389   1.276   7.922 -0.5810  0.1970  1.5921
 6115TIP3   OH239979   4.803   6.274   2.139 -0.9252  0.2125 -0.2891
 6115TIP3    H139980   4.895   6.282   2.114 -0.1849 -2.5399  1.1872
 6115TIP3    H239981   4.770   6.202   2.086 -2.2260  1.0971 -0.7113
 6116TIP3   OH239982   2.518   0.092   7.579 -0.1321 -0.0900 -0.1250
 6116TIP3    H139983   2.530   0.070   7.671 -0.2464 -0.0339 -0.0963
 6116TIP3    H239984   2.442   0.151   7.578 -1.3320 -1.5714 -0.4658
 6117TIP3   OH239985   4.809   1.380   1.928  0.2700  0.0931  0.5876
 6117TIP3    H139986   4.790   1.343   1.842 -0.6040 -1.1063  1.2545
 6117TIP3    H239987   4.903   1.362   1.941 -0.1451 -2.1601  0.9530
 6118TIP3   OH239988   4.738   4.932   0.529 -0.0815 -0.0195  0.1749
 6118TIP3    H139989   4.743   4.937   0.624 -2.4990 -0.2516  0.3734
 6118TIP3    H239990   4.648   4.958   0.508  0.0618 -1.0100 -1.9491
 6119TIP3   OH239991   3.284   1.051   1.031  0.7035 -0.3158 -0.6430
 6119TIP3    H139992   3.235   0.986   1.082  1.0635 -0.4121 -0.4149
 6119TIP3    H239993   3.226   1.127   1.028  1.1261  0.0928  0.8814
 6120TIP3   OH239994   1.259   1.907   3.660  0.7191  0.4324  0.8336
 6120TIP3    H139995   1.232   1.910   3.752 -2.7733 -1.5923  0.0690
 6120TIP3    H239996   1.215   1.982   3.620 -1.9494 -1.4315  0.0411
 6121TIP3   OH239997   4.722   4.845   2.072 -0.0972  0.1865  0.2960
 6121TIP3    H139998   4.673   4.927   2.088  0.8100  1.1521 -1.6313
 6121TIP3    H239999   4.666   4.795   2.012 -0.5691 -0.5819  1.3366
 6122TIP3   OH240000   1.178   2.410   0.383  0.8027  0.2506  0.6194
 6122TIP3    H140001   1.196   2.439   0.294 -0.0961  1.4203  0.7888
 6122TIP3    H240002   1.135   2.325   0.372 -1.4244  1.4035 -0.2460
 6123TIP3   OH240003   5.709   1.869   2.961  0.3965 -0.0277 -0.3669
 6123TIP3    H140004   5.700   1.787   3.010  1.2478 -0.6431 -1.2000
 6123TIP3    H240005   5.623   1.910   2.967  0.3290 -0.3263  1.1844
 6124TIP3   OH240006   6.029   6.590   1.104  0.0926 -0.1323  0.0669
 6124TIP3    H140007   6.086   6.665   1.121  0.9323 -0.9930  1.1978
 6124TIP3    H240008   6.034   6.537   1.184  0.6448 -2.1168 -1.2116
 6125TIP3   OH240009   0.703   6.550   7.381 -0.2070  0.3648 -0.1481
 6125TIP3    H140010   0.701   6.643   7.362 -2.7160  0.4637  0.2722
 6125TIP3    H240011   0.789   6.521   7.349  1.1201  2.9705  0.7447
 6126TIP3   OH240012   5.757   3.063   1.238  0.1632 -0.3167  0.4009
 6126TIP3    H140013   5.828   3.061   1.174 -1.5680 -1.6544 -1.6035
 6126TIP3    H240014   5.731   2.972   1.248 -3.1546  0.3217 -1.2289
 6127TIP3   OH240015   3.660   6.634   2.637  0.0041  0.4105 -0.2696
 6127TIP3    H140016   3.637   6.726   2.652  2.3478  1.1138 -0.5792
 6127TIP3    H240017   3.713   6.610   2.712 -1.6246 -1.1513  0.4549
 6128TIP3   OH240018   6.602   2.457   2.698  0.3118 -0.1985  0.0690
 6128TIP3    H140019   6.513   2.440   2.728 -0.3789  1.9961 -0.5201
 6128TIP3    H240020   6.609   2.409   2.615  0.1740 -1.4652  0.7723
 6129TIP3   OH240021   4.119   5.352   7.822 -0.5400 -0.7858  0.1900
 6129TIP3    H140022   4.162   5.437   7.809  0.6836 -1.7178 -2.7151
 6129TIP3    H240023   4.037   5.373   7.867  0.1819  1.7769  0.4679
 6130TIP3   OH240024   1.847   4.122   2.064  0.0979  0.0749  0.0880
 6130TIP3    H140025   1.861   4.159   1.977  1.0500  0.1754  0.2689
 6130TIP3    H240026   1.927   4.072   2.082 -0.3959 -0.5399  0.6117
 6131TIP3   OH240027   2.959   5.958   7.549  0.2705  0.0475 -0.0669
 6131TIP3    H140028   2.872   5.924   7.529 -0.4285  1.2127  0.8268
 6131TIP3    H240029   2.960   6.047   7.512  1.4375 -0.2747 -0.8924
 6132TIP3   OH240030   4.142   3.818   2.840 -0.7764 -0.2616  0.1316
 6132TIP3    H140031   4.162   3.726   2.857 -0.9251 -0.7900 -2.1908
 6132TIP3    H240032   4.050   3.818   2.812 -0.7627  0.5928  0.0532
 6133TIP3   OH240033   2.249   0.238   7.633 -0.1112  0.3310  0.1702
 6133TIP3    H140034   2.196   0.298   7.685  1.0828  1.7472 -0.1783
 6133TIP3    H240035   2.265   0.285   7.551  0.1649 -0.8142 -0.4536
 6134TIP3   OH240036   3.766   1.814   1.673  0.0197  0.3634  0.3198
 6134TIP3    H140037   3.859   1.822   1.689 -0.1598  0.2084  1.5340
 6134TIP3    H240038   3.740   1.734   1.719 -0.3098 -0.9235 -1.9266
 6135TIP3   OH240039   3.128   1.080   3.954  0.3815 -0.6313 -0.7139
 6135TIP3    H140040   3.057   1.095   4.017  0.3076  1.8131 -1.2909
 6135TIP3    H240041   3.117   1.149   3.889  2.2799 -1.2570 -1.7757
 6136TIP3   OH240042   1.009   2.022   1.478  0.4314 -0.4128  0.1955
 6136TIP3    H140043   1.024   2.061   1.392  0.7433 -0.5288  0.1949
 6136TIP3    H240044   1.009   1.928   1.461 -0.1505 -0.4186  0.2225
 6137TIP3   OH240045   4.576   6.267   0.755 -1.3729  0.1338 -0.3213
 6137TIP3    H140046   4.556   6.355   0.725 -0.2865  0.6471  0.3921
 6137TIP3    H240047   4.648   6.278   0.817 -0.2853 -1.3902 -1.2433
 6138TIP3   OH240048   2.646   5.350   1.873  0.3244  0.0275 -0.0274
 6138TIP3    H140049   2.658   5.256   1.887 -2.4779 -0.9411 -2.9120
 6138TIP3    H240050   2.574   5.374   1.932 -1.5075 -0.6280 -1.8748
 6139TIP3   OH240051   5.481   6.219   0.499 -0.1165  0.5698 -0.0007
 6139TIP3    H140052   5.530   6.178   0.571  2.4559 -1.3426 -2.6157
 6139TIP3    H240053   5.511   6.310   0.499  0.0801  0.5248  1.1276
 6140TIP3   OH240054   2.729   5.367   1.610  0.2317  0.0257 -0.2069
 6140TIP3    H140055   2.817   5.345   1.639  0.2045  1.9255  1.5739
 6140TIP3    H240056   2.672   5.340   1.682 -0.3717  0.8048 -0.3743
 6141TIP3   OH240057   0.865   3.816   2.173  0.1595 -0.5154 -0.0498
 6141TIP3    H140058   0.774   3.815   2.201  0.0621  1.2381 -0.1658
 6141TIP3    H240059   0.860   3.812   2.077  0.2695 -1.6221 -0.0158
 6142TIP3   OH240060   2.063   2.174   2.695 -0.3115  0.4696  0.1064
 6142TIP3    H140061   2.135   2.218   2.741 -0.4117  1.2428 -0.4628
 6142TIP3    H240062   2.056   2.089   2.738  0.6632  0.5506  0.4579
 6143TIP3   OH240063   0.202   6.014   8.247  0.1238  0.0995  0.1491
 6143TIP3    H140064   0.228   6.022   8.155  0.0329 -0.0803  0.1053
 6143TIP3    H240065   0.113   5.979   8.243  0.5490 -1.0518  0.3142
 6144TIP3   OH240066   0.005   1.497   7.950  0.0232 -0.6371 -0.0300
 6144TIP3    H140067   0.024   1.476   8.042  0.7404 -0.2701 -0.0928
 6144TIP3    H240068   0.069   1.445   7.900  0.7792  0.4811 -0.2489
 6145TIP3   OH240069   4.749   6.069   0.234  0.2606  0.0066  0.2315
 6145TIP3    H140070   4.685   6.058   0.165  2.9576 -0.8624 -2.3702
 6145TIP3    H240071   4.747   5.986   0.282 -1.1088  0.3258  0.7561
 6146TIP3   OH240072   5.127   7.049   3.260 -0.4693  0.1800  0.0980
 6146TIP3    H140073   5.132   7.005   3.345 -0.0370  0.7526  0.3703
 6146TIP3    H240074   5.139   7.141   3.280  1.1743  0.1793 -0.7430
 6147TIP3   OH240075   4.910   1.319   0.635  0.0282 -1.2523 -0.4457
 6147TIP3    H140076   4.867   1.269   0.565 -1.7327  0.6840 -0.8560
 6147TIP3    H240077   4.965   1.255   0.680  1.8051 -2.4803 -3.9870
 6148TIP3   OH240078   6.784   3.509   0.657 -0.0607 -0.4930 -0.7080
 6148TIP3    H140079   6.798   3.418   0.629 -0.8374 -0.4133 -1.3908
 6148TIP3    H240080   6.713   3.503   0.721  1.3249 -0.6044  0.8992
 6149TIP3   OH240081   0.316   0.004   0.924  0.8949 -0.4271 -0.6020
 6149TIP3    H140082   0.282   0.067   0.860 -3.8607 -2.8665 -0.9354
 6149TIP3    H240083   0.263   0.019   1.003  1.8559 -1.9443  0.3889
 6150TIP3   OH240084   5.846   4.091   1.808 -0.2017 -0.1041  0.1258
 6150TIP3    H140085   5.850   4.105   1.713  0.7719 -2.1877 -0.1895
 6150TIP3    H240086   5.937   4.083   1.835 -0.4805 -4.0530  0.4062
 6151TIP3   OH240087   7.021   4.545   2.139  0.4614  0.2323  0.2046
 6151TIP3    H140088   6.991   4.507   2.057  0.2503  0.8166  0.0020
 6151TIP3    H240089   6.972   4.627   2.147  2.1139  1.3157 -0.2301
 6152TIP3   OH240090   5.974   3.616   1.342  0.2939 -0.0513 -0.0941
 6152TIP3    H140091   6.047   3.655   1.391  0.4393  0.3284 -0.5925
 6152TIP3    H240092   6.016   3.553   1.284  0.1738 -0.1814 -0.0383
 6153TIP3   OH240093   4.523   5.081   2.405 -0.3294 -0.2442 -0.5435
 6153TIP3    H140094   4.458   5.123   2.461  2.7750  0.8065  2.6414
 6153TIP3    H240095   4.564   5.153   2.357 -2.3493 -1.0494 -3.8562
 6154TIP3   OH240096   5.938   6.489   2.197 -0.0192 -0.0122 -0.2717
 6154TIP3    H140097   6.018   6.541   2.199  0.9130 -1.4143  1.1581
 6154TIP3    H240098   5.963   6.408   2.152 -0.7403 -0.3178 -0.1326
 6155TIP3   OH240099   0.208   2.272   1.667  0.0305 -0.3450 -0.4265
 6155TIP3    H140100   0.130   2.217   1.673 -2.7189  3.0735 -1.3668
 6155TIP3    H240101   0.263   2.229   1.601 -2.9510 -0.9410 -2.7612
 6156TIP3   OH240102   4.462   2.115   8.133  0.4609  0.8177 -0.4610
 6156TIP3    H140103   4.433   2.159   8.054 -1.0538  0.1591 -0.3061
 6156TIP3    H240104   4.384   2.112   8.189  0.7051 -1.2696 -0.1374
 6157TIP3   OH240105   5.288   6.987   2.552 -0.3484 -0.1353 -0.3128
 6157TIP3    H140106   5.280   7.082   2.562  1.0545  0.0433 -0.6410
 6157TIP3    H240107   5.286   6.973   2.457 -2.2727 -0.6479 -0.2508
 6158TIP3   OH240108   5.103   1.578   2.015  0.0338  0.1121  0.0980
 6158TIP3    H140109   5.046   1.543   2.083 -1.4228 -1.7684 -1.9525
 6158TIP3    H240110   5.190   1.579   2.054 -0.6745 -1.3598  1.8379
 6159TIP3   OH240111   4.933   5.848   2.126 -0.1872 -0.5221  0.1342
 6159TIP3    H140112   4.978   5.763   2.131 -0.4669 -0.6545  0.5274
 6159TIP3    H240113   5.002   5.911   2.107  0.0136 -0.8488 -0.2249
 6160TIP3   OH240114   2.975   0.925   1.354  0.2487 -0.0933 -0.3343
 6160TIP3    H140115   2.897   0.869   1.352  0.7706 -0.8187 -0.9449
 6160TIP3    H240116   3.025   0.899   1.277  0.3481  1.4630 -0.8294
 6161TIP3   OH240117   2.568   1.689   0.097 -0.2518 -0.5133  0.2896
 6161TIP3    H140118   2.585   1.776   0.060  0.5485  0.0098  1.8036
 6161TIP3    H240119   2.473   1.679   0.091 -0.1683 -0.5364 -1.9783
 6162TIP3   OH240120   2.993   2.048   2.310  0.5455 -0.1175 -0.0518
 6162TIP3    H140121   3.043   2.129   2.297  1.0379 -0.3111  0.5631
 6162TIP3    H240122   3.010   2.024   2.402 -0.2007 -0.5123 -0.0101
 6163TIP3   OH240123   3.467   2.374   7.844  0.2087  0.0183 -0.3120
 6163TIP3    H140124   3.455   2.355   7.750 -0.3909  0.5612 -0.3535
 6163TIP3    H240125   3.409   2.313   7.888  0.3665 -0.1259 -0.3055
 6164TIP3   OH240126   3.069   6.315   2.395 -0.4448 -0.2018  0.3514
 6164TIP3    H140127   3.117   6.347   2.319 -0.4026 -0.3801  0.3027
 6164TIP3    H240128   3.128   6.253   2.437 -0.5245 -0.2132  0.4478
 6165TIP3   OH240129   2.586   6.421   1.292 -0.0523 -0.3412  0.5576
 6165TIP3    H140130   2.509   6.442   1.345 -0.3037  1.4182 -0.4321
 6165TIP3    H240131   2.551   6.408   1.204  0.6966 -0.4362  0.2700
 6166TIP3   OH240132   2.204   3.166   2.154  0.6666  0.2686  0.1753
 6166TIP3    H140133   2.240   3.143   2.069  0.5322 -0.2643  0.2619
 6166TIP3    H240134   2.251   3.111   2.216  0.5904  0.4773  0.4208
 6167TIP3   OH240135   5.362   3.338   1.048  0.4991  0.2567 -0.3268
 6167TIP3    H140136   5.338   3.426   1.078  1.1726  0.4169 -0.2561
 6167TIP3    H240137   5.360   3.285   1.128 -2.2505 -0.3556 -0.6801
 6168TIP3   OH240138   5.112   3.850   2.141 -0.2897 -0.0534  0.3248
 6168TIP3    H140139   5.202   3.876   2.160  0.8694 -2.0308 -1.8835
 6168TIP3    H240140   5.072   3.929   2.104  0.4721  0.8760  1.4217
 6169TIP3   OH240141   1.043   1.170   2.716  0.4164  0.1542  0.5189
 6169TIP3    H140142   1.057   1.095   2.658 -0.1972 -0.3379  0.9889
 6169TIP3    H240143   1.048   1.132   2.804 -2.8124  0.0821  0.7717
 6170TIP3   OH240144   7.010   0.188   1.876  0.2336  0.1693 -0.5521
 6170TIP3    H140145   6.950   0.181   1.951 -0.3977 -0.0541 -1.0671
 6170TIP3    H240146   6.953   0.207   1.802  0.4929 -2.1354 -1.4474
 6171TIP3   OH240147   0.276   0.377   8.042  0.3386  0.6200 -0.3689
 6171TIP3    H140148   0.350   0.348   8.095  1.9885  0.0442 -2.8313
 6171TIP3    H240149   0.256   0.303   7.984 -1.7063  1.0311 -0.2957
 6172TIP3   OH240150   3.680   0.371   2.090 -0.9634  0.3460  0.3794
 6172TIP3    H140151   3.661   0.406   2.003 -0.5456  0.5394  0.3663
 6172TIP3    H240152   3.599   0.327   2.116 -1.5050  1.3446  0.4128
 6173TIP3   OH240153   4.365   0.393   0.286  0.2215  0.2869  0.4400
 6173TIP3    H140154   4.339   0.477   0.323  0.3475  0.6569 -0.2936
 6173TIP3    H240155   4.324   0.328   0.342 -2.3183  0.8382 -0.6746
 6174TIP3   OH240156   2.332   0.544   7.697 -0.9996  0.2387  0.1069
 6174TIP3    H140157   2.338   0.573   7.606  2.4634 -1.1587 -0.2996
 6174TIP3    H240158   2.245   0.507   7.705 -1.4028  0.3466 -2.6901
 6175TIP3   OH240159   5.664   2.904   1.697 -0.3757  0.3342  0.0954
 6175TIP3    H140160   5.584   2.853   1.713 -0.8872  1.6802  2.2929
 6175TIP3    H240161   5.676   2.954   1.778  2.0801  1.0220 -0.6306
 6176TIP3   OH240162   1.158   5.575   8.246  0.0596 -0.4708  0.3140
 6176TIP3    H140163   1.169   5.535   8.160 -1.7056  0.4463 -0.3863
 6176TIP3    H240164   1.100   5.514   8.293  3.3056 -2.5231  2.0343
 6177TIP3   OH240165   6.825   1.790   1.096  0.6574  0.3781  0.0979
 6177TIP3    H140166   6.886   1.843   1.044  0.7630  0.8616  0.7112
 6177TIP3    H240167   6.751   1.848   1.113  0.6817  0.2653  0.6030
 6178TIP3   OH240168   4.512   2.807   3.087  0.0043 -0.1858 -0.1792
 6178TIP3    H140169   4.428   2.794   3.043 -1.0024  1.1497  1.2393
 6178TIP3    H240170   4.524   2.902   3.090  1.1915 -0.3247  0.3234
 6179TIP3   OH240171   1.735   6.765   1.488  0.4070 -0.0522 -0.0917
 6179TIP3    H140172   1.784   6.759   1.405 -2.0205 -0.0174 -1.6248
 6179TIP3    H240173   1.693   6.851   1.485 -1.6000 -0.9752  0.0080
 6180TIP3   OH240174   3.536   5.518   0.011  0.8930 -0.1458 -0.1074
 6180TIP3    H140175   3.490   5.437  -0.008  0.8021 -0.1330  0.0486
 6180TIP3    H240176   3.557   5.555  -0.074  2.2433 -1.0534 -0.1964
 6181TIP3   OH240177   4.531   5.296   0.643  0.1881 -0.1929 -0.1415
 6181TIP3    H140178   4.460   5.359   0.631 -0.0385 -0.5648 -0.8760
 6181TIP3    H240179   4.573   5.321   0.725 -1.9957 -1.1289  1.3392
 6182TIP3   OH240180   3.942   3.909   1.515  0.1065  0.1958  0.1003
 6182TIP3    H140181   3.925   3.876   1.603  0.3231  1.5954  0.6940
 6182TIP3    H240182   4.027   3.952   1.521  0.1005  0.3517 -0.7834
 6183TIP3   OH240183   1.075   4.594   1.530  0.4389  0.5044  0.4933
 6183TIP3    H140184   1.000   4.565   1.478 -0.0889 -1.1931  2.1137
 6183TIP3    H240185   1.141   4.525   1.519 -0.6789 -1.3916  4.0739
 6184TIP3   OH240186   4.377   6.276   3.135  0.2101  0.1387  0.7437
 6184TIP3    H140187   4.345   6.193   3.100 -0.1184 -0.1938  1.7906
 6184TIP3    H240188   4.300   6.333   3.136  0.6341  0.8066 -0.8849
 6185TIP3   OH240189   1.726   4.105   0.160 -0.2903  0.0335 -0.6798
 6185TIP3    H140190   1.802   4.147   0.118  0.3824 -1.2722 -0.8089
 6185TIP3    H240191   1.728   4.015   0.128 -1.3917 -0.2488  0.0166
 6186TIP3   OH240192   2.573   1.239   7.227  0.5112  0.2228  0.2939
 6186TIP3    H140193   2.586   1.208   7.138 -1.2403 -1.0495  0.4174
 6186TIP3    H240194   2.515   1.314   7.219 -2.1116 -1.6461  0.4441
 6187TIP3   OH240195   0.808   1.840   1.832 -0.3520  0.5522 -0.0264
 6187TIP3    H140196   0.728   1.790   1.815 -0.1439  0.5303 -1.0115
 6187TIP3    H240197   0.808   1.853   1.926 -0.7304 -0.7842  0.1845
 6188TIP3   OH240198   0.436   4.120   1.472 -0.0161 -0.0192  0.2204
 6188TIP3    H140199   0.383   4.196   1.448 -1.5544 -0.5761  1.6224
 6188TIP3    H240200   0.483   4.147   1.552 -1.5028 -0.8659  1.4395
 6189TIP3   OH240201   1.263   2.031   7.125 -0.7373  0.2678 -0.0501
 6189TIP3    H140202   1.354   2.055   7.140 -1.0893  1.6085  0.1240
 6189TIP3    H240203   1.260   1.936   7.137  0.5014  0.2925  0.5868
 6190TIP3   OH240204   6.394   1.937   0.965  0.0393  0.1096 -0.5140
 6190TIP3    H140205   6.397   2.009   0.902  0.5850  1.1803  0.6710
 6190TIP3    H240206   6.300   1.922   0.980 -0.1593  2.5658  1.3205
 6191TIP3   OH240207   6.491   0.611   1.806 -0.1342  0.2680  0.3851
 6191TIP3    H140208   6.415   0.635   1.858 -0.9822  0.3185 -0.8221
 6191TIP3    H240209   6.566   0.644   1.855 -0.8641 -0.0513  1.7512
 6192TIP3   OH240210   2.628   0.919   2.748  0.0802  0.4316 -0.2886
 6192TIP3    H140211   2.632   0.843   2.807 -1.2601 -0.5375 -1.3958
 6192TIP3    H240212   2.690   0.982   2.787  2.3570 -1.7421 -0.1004
 6193TIP3   OH240213   2.695   5.062   7.942 -0.3736  0.2988 -0.5252
 6193TIP3    H140214   2.724   5.063   8.034  3.7793  1.5057 -1.6274
 6193TIP3    H240215   2.726   4.978   7.908 -1.4290  0.0883 -1.0184
 6194TIP3   OH240216   5.178   3.618   3.287  0.0097 -0.5360 -0.2500
 6194TIP3    H140217   5.260   3.667   3.287  1.7912 -3.1866  2.1042
 6194TIP3    H240218   5.110   3.684   3.275  2.3112  2.2171  0.9062
 6195TIP3   OH240219   2.560   5.474   1.218  0.3618 -0.1562  0.1522
 6195TIP3    H140220   2.530   5.403   1.161  0.1168  0.0832 -0.0215
 6195TIP3    H240221   2.649   5.493   1.187  0.7960 -1.0188  0.8160
 6196TIP3   OH240222   3.249   2.761   0.273 -0.8126 -0.1922  0.6044
 6196TIP3    H140223   3.158   2.791   0.278 -0.5236  0.5709  1.5433
 6196TIP3    H240224   3.243   2.675   0.232 -2.3274 -1.6081  3.4516
 6197TIP3   OH240225   0.037   3.060   3.206  0.0051  0.2834 -0.7482
 6197TIP3    H140226  -0.044   3.069   3.256  0.4595  1.4634 -0.1843
 6197TIP3    H240227   0.087   3.140   3.226  3.2368 -2.1795  2.3652
 6198TIP3   OH240228   3.318   4.315   1.628  0.4616  0.7759  0.1926
 6198TIP3    H140229   3.360   4.370   1.562  3.6350 -0.1849  1.2358
 6198TIP3    H240230   3.325   4.365   1.709  1.8236 -0.3812  0.8250
 6199TIP3   OH240231   6.747   1.084   2.674  0.0283  0.3332 -0.2736
 6199TIP3    H140232   6.741   1.178   2.686  0.6451  0.2697  0.6230
 6199TIP3    H240233   6.674   1.048   2.724 -0.3049  0.3426 -0.7510
 6200TIP3   OH240234   5.381   1.444   2.491 -0.2444  0.5729  0.2126
 6200TIP3    H140235   5.361   1.381   2.560 -0.3902  0.7633  0.3457
 6200TIP3    H240236   5.344   1.406   2.411 -1.6792  1.1973  0.5553
 6201TIP3   OH240237   4.327   2.712   7.504  0.3988  0.0218  0.5174
 6201TIP3    H140238   4.366   2.626   7.520  0.7262  0.0079 -0.3076
 6201TIP3    H240239   4.355   2.735   7.416  1.7465  1.7244  1.3189
 6202TIP3   OH240240   2.958   6.914   0.071  0.0265  0.7314  0.0906
 6202TIP3    H140241   2.996   6.882   0.152 -2.1312 -0.4116  0.7369
 6202TIP3    H240242   2.993   7.002   0.060  2.4673 -0.0672  0.7770
 6203TIP3   OH240243   4.226   2.536   1.140  0.3879  0.8938  0.3525
 6203TIP3    H140244   4.160   2.480   1.181  0.2494  0.4864 -0.4038
 6203TIP3    H240245   4.263   2.587   1.212  0.2861  0.0632  1.0047
 6204TIP3   OH240246   2.345   1.401   7.806  0.2501  0.0172 -0.2670
 6204TIP3    H140247   2.250   1.407   7.791  0.1112 -0.2476  0.4666
 6204TIP3    H240248   2.375   1.492   7.802 -0.2003  0.2137  0.4862
 6205TIP3   OH240249   2.481   2.765   0.212  0.5553 -0.3979 -0.0694
 6205TIP3    H140250   2.423   2.827   0.255  1.5091  0.2761  0.2857
 6205TIP3    H240251   2.462   2.774   0.119  1.1699  0.9591 -0.0837
 6206TIP3   OH240252   3.713   0.198   0.897 -0.5742  0.0357  0.2670
 6206TIP3    H140253   3.723   0.157   0.983  1.3517  0.6130  0.3735
 6206TIP3    H240254   3.645   0.146   0.854  0.3344 -2.0310  1.1318
 6207TIP3   OH240255   4.785   3.595   1.844 -0.5991 -0.0363 -0.0758
 6207TIP3    H140256   4.784   3.598   1.940 -0.4386  0.0221 -0.0739
 6207TIP3    H240257   4.721   3.661   1.817 -0.7035 -0.1111 -0.0079
 6208TIP3   OH240258   4.422   1.551   1.633 -0.2328 -0.4889 -0.0947
 6208TIP3    H140259   4.326   1.540   1.635 -0.1564 -1.4557 -0.8009
 6208TIP3    H240260   4.446   1.569   1.723 -1.0669 -0.4040  0.1235
 6209TIP3   OH240261   3.169   6.002   1.809  0.3760 -0.1190 -0.5032
 6209TIP3    H140262   3.151   6.043   1.894  0.3770 -2.1758  0.5649
 6209TIP3    H240263   3.084   5.992   1.768  0.2227 -0.2938 -0.1470
 6210TIP3   OH240264   0.596   0.681   2.814  0.0097 -0.3970  0.4689
 6210TIP3    H140265   0.520   0.703   2.760 -0.0844 -1.2930  0.2250
 6210TIP3    H240266   0.570   0.704   2.903  0.2716  1.3632  0.1204
 6211TIP3   OH240267   0.625   2.306   0.498 -0.0256 -0.2359  0.2974
 6211TIP3    H140268   0.628   2.375   0.564  0.6351 -0.7970  0.8792
 6211TIP3    H240269   0.682   2.237   0.534 -1.3577 -1.4451  0.1621
 6212TIP3   OH240270   5.158   0.976   2.528  0.3407  0.2661 -0.2635
 6212TIP3    H140271   5.078   1.027   2.514  1.3874  2.5287  1.2604
 6212TIP3    H240272   5.213   0.997   2.452  0.2024  0.2309 -0.3736
 6213TIP3   OH240273   1.487   4.631   1.556  0.0209  1.2750 -0.1420
 6213TIP3    H140274   1.437   4.679   1.622 -2.0384 -1.4671  0.5243
 6213TIP3    H240275   1.529   4.560   1.605 -0.0640  0.2401 -1.5135
 6214TIP3   OH240276   1.681   7.036   2.181 -0.0247  0.1760 -0.7855
 6214TIP3    H140277   1.678   6.959   2.237  1.6683  1.1987  0.8037
 6214TIP3    H240278   1.767   7.074   2.195 -0.6280  2.1215 -1.8680
 6215TIP3   OH240279   4.944   7.058   1.169  0.1749  0.2136  0.4950
 6215TIP3    H140280   5.015   7.015   1.121 -0.5742  0.4457 -0.8828
 6215TIP3    H240281   4.865   7.012   1.141 -0.9053  3.3436 -2.3311
 6216TIP3   OH240282   5.519   6.422   1.252 -0.9157 -0.0906  0.6789
 6216TIP3    H140283   5.506   6.512   1.220 -1.3179 -0.5332 -0.4586
 6216TIP3    H240284   5.516   6.430   1.347  1.7718  1.5216  0.7520
 6217TIP3   OH240285   1.224   1.663   1.693  0.3306 -0.4209  0.1049
 6217TIP3    H140286   1.285   1.610   1.642 -0.8742 -1.6496 -0.1247
 6217TIP3    H240287   1.280   1.725   1.740  1.6277 -0.5869 -1.1354
 6218TIP3   OH240288   2.464   4.023   0.524  0.0026  0.8325 -0.1841
 6218TIP3    H140289   2.558   4.043   0.528  0.0520  0.5547  0.2124
 6218TIP3    H240290   2.425   4.078   0.592 -0.2836  1.7652 -1.0943
 6219TIP3   OH240291   1.246   3.275   8.262 -0.1893 -0.6070 -0.1740
 6219TIP3    H140292   1.259   3.343   8.329  0.7871  1.5221 -2.3428
 6219TIP3    H240293   1.155   3.287   8.233 -0.8705 -2.0647  1.2526
 6220TIP3   OH240294   0.748   6.447   2.499  0.2544 -0.0735  0.2018
 6220TIP3    H140295   0.812   6.511   2.530 -0.2965  0.1448  0.9249
 6220TIP3    H240296   0.756   6.374   2.562 -2.7107  1.4586  2.5980
 6221TIP3   OH240297   1.332   2.697   0.381  0.0582 -0.8541 -0.1900
 6221TIP3    H140298   1.289   2.675   0.298 -1.3527 -1.9315  0.7869
 6221TIP3    H240299   1.349   2.612   0.422  0.9937 -0.3383  0.5169
 6222TIP3   OH240300   2.585   0.220   8.026 -0.0849 -0.2309  0.0660
 6222TIP3    H140301   2.630   0.217   8.110  0.7719 -1.5343 -0.4085
 6222TIP3    H240302   2.650   0.254   7.964 -0.4155 -0.1420 -0.2418
 6223TIP3   OH240303   1.099   3.792   1.611 -0.3806  0.1210  0.7800
 6223TIP3    H140304   1.193   3.781   1.598 -0.3217 -1.1245  2.0414
 6223TIP3    H240305   1.070   3.709   1.650 -1.9513  0.5873  0.6724
 6224TIP3   OH240306   5.302   6.005   8.052  0.0673  0.1670 -0.2184
 6224TIP3    H140307   5.285   6.088   8.006  0.4739 -0.5709 -1.7700
 6224TIP3    H240308   5.382   5.971   8.011  0.0003 -0.9180  0.5173
 6225TIP3   OH240309   6.496   6.843   1.109 -0.0267 -0.0035 -0.5731
 6225TIP3    H140310   6.582   6.814   1.138 -0.2369  0.7082  0.8960
 6225TIP3    H240311   6.477   6.920   1.164 -1.6393 -0.2139 -0.7781
 6226TIP3   OH240312   4.296   0.893   2.759  0.0229 -0.2132 -0.2012
 6226TIP3    H140313   4.256   0.822   2.709 -3.7398  1.0114  0.6958
 6226TIP3    H240314   4.230   0.963   2.759  1.6095  1.5241  2.7245
 6227TIP3   OH240315   5.896   2.342   2.593  0.2115  0.2783 -0.5262
 6227TIP3    H140316   5.813   2.298   2.609 -0.9358  1.8895 -1.8338
 6227TIP3    H240317   5.879   2.435   2.608  2.0095  0.5776  0.0010
 6228TIP3   OH240318   6.884   3.804   0.680  0.5352  0.2149 -0.4695
 6228TIP3    H140319   6.970   3.837   0.706  0.8337  0.1581 -1.3754
 6228TIP3    H240320   6.893   3.709   0.684  0.9440  0.1817 -1.9098
 6229TIP3   OH240321   5.766   5.245   0.244 -0.1359 -0.4748 -0.0260
 6229TIP3    H140322   5.775   5.312   0.176 -0.1379 -0.1758  0.2673
 6229TIP3    H240323   5.725   5.291   0.317  0.3521 -0.6609  0.3711
 6230TIP3   OH240324   3.538   6.068   0.239 -0.0999  0.0603 -0.3230
 6230TIP3    H140325   3.548   6.141   0.178  0.5679 -0.5741 -0.9975
 6230TIP3    H240326   3.444   6.061   0.253 -0.3345 -0.2483 -1.8849
 6231TIP3   OH240327   3.426   0.286   3.045  0.0378  0.0957 -0.7059
 6231TIP3    H140328   3.465   0.200   3.065 -1.8164 -0.8680 -1.0657
 6231TIP3    H240329   3.348   0.290   3.100  0.5006  1.9136 -0.1218
 6232TIP3   OH240330   2.710   4.280   2.510 -0.1178 -0.0140 -0.3486
 6232TIP3    H140331   2.798   4.290   2.475 -0.2876 -1.3065 -1.1921
 6232TIP3    H240332   2.721   4.225   2.588  0.0425  1.4408  0.6921
 6233TIP3   OH240333   3.843   6.307   2.646 -0.0916 -0.2679 -0.4515
 6233TIP3    H140334   3.839   6.395   2.681 -1.8222 -0.5877  0.2389
 6233TIP3    H240335   3.937   6.287   2.641  0.2772  0.9721  0.9714
 6234TIP3   OH240336   5.630   4.141   7.620 -0.0250  0.6027 -0.3097
 6234TIP3    H140337   5.634   4.208   7.688  1.5026  0.8984 -0.6502
 6234TIP3    H240338   5.552   4.090   7.641 -1.4519  2.6790 -0.2403
 6235TIP3   OH240339   1.328   4.369   0.238  0.2297  0.5047 -0.3164
 6235TIP3    H140340   1.413   4.358   0.195  1.0686 -0.8140  1.5332
 6235TIP3    H240341   1.345   4.432   0.308 -0.1020 -0.2994  0.5160
 6236TIP3   OH240342   6.227   6.025   1.419 -0.0937 -0.0699  0.0749
 6236TIP3    H140343   6.211   6.098   1.360 -0.3440  1.0705  1.5005
 6236TIP3    H240344   6.322   6.026   1.434 -0.0689 -0.1781 -0.0736
 6237TIP3   OH240345   1.367   4.611   3.460  0.2587 -0.1174  0.3242
 6237TIP3    H140346   1.367   4.516   3.473  2.2228 -0.3434 -0.9503
 6237TIP3    H240347   1.324   4.646   3.539 -2.5770 -2.1075 -0.1639
 6238TIP3   OH240348   5.106   3.558   8.054 -0.0603 -0.2244  0.4210
 6238TIP3    H140349   5.118   3.569   7.959 -0.3720 -1.2705  0.2399
 6238TIP3    H240350   5.195   3.548   8.088 -0.0007 -0.8712  0.0895
 6239TIP3   OH240351   0.271   3.907   1.562  0.1122  0.3161 -0.2824
 6239TIP3    H140352   0.314   3.843   1.506  1.1568  0.0264  0.8080
 6239TIP3    H240353   0.300   3.992   1.529 -1.6621  0.3217 -2.0464
 6240TIP3   OH240354   0.592   2.994   0.847  0.5021  0.0278  0.1597
 6240TIP3    H140355   0.673   2.953   0.879  0.3997 -0.4806 -0.2134
 6240TIP3    H240356   0.582   3.073   0.900  1.2300  0.0790  0.2314
 6241TIP3   OH240357   0.391   5.010   7.925  0.1126  0.5934  0.2599
 6241TIP3    H140358   0.425   5.078   7.868  1.7345  0.5494  1.1100
 6241TIP3    H240359   0.469   4.974   7.968 -0.6589 -1.8946 -0.2542
 6242TIP3   OH240360   6.906   7.051   0.351 -0.0732  0.1826 -0.0926
 6242TIP3    H140361   6.853   7.108   0.408  0.4416  2.6983 -1.9806
 6242TIP3    H240362   6.992   7.049   0.393 -0.3990 -0.2176  0.5907
 6243TIP3   OH240363   1.233   2.532   3.354  0.0905  0.2538 -0.3289
 6243TIP3    H140364   1.297   2.557   3.287  1.6849 -0.9012  0.6945
 6243TIP3    H240365   1.230   2.608   3.413 -0.8324  1.0142 -1.3358
 6244TIP3   OH240366   1.461   4.881   2.045  0.4030 -0.3747 -0.0129
 6244TIP3    H140367   1.424   4.952   1.993  0.1055 -0.3499  0.2235
 6244TIP3    H240368   1.420   4.892   2.132  2.8284  1.1608  1.0372
 6245TIP3   OH240369   0.532   0.738   3.100  0.0112  0.6197  0.1515
 6245TIP3    H140370   0.475   0.694   3.163 -0.3891  0.8845 -0.0284
 6245TIP3    H240371   0.600   0.779   3.155  0.6962 -0.6384  0.2945
 6246TIP3   OH240372   2.461   3.255   2.771  0.3075  0.2440 -0.1817
 6246TIP3    H140373   2.385   3.211   2.810  2.8787 -1.6747  3.3002
 6246TIP3    H240374   2.456   3.345   2.804  0.4296 -0.3600  1.5792
 6247TIP3   OH240375   3.333   2.153   7.981  0.2046  0.1124 -0.4989
 6247TIP3    H140376   3.305   2.129   8.069 -1.7472  0.2291 -1.0603
 6247TIP3    H240377   3.412   2.100   7.967 -0.4338 -1.2345  0.6569
 6248TIP3   OH240378   2.281   3.110   0.090 -0.2354 -0.0243 -0.3552
 6248TIP3    H140379   2.331   3.041   0.047 -0.9067 -1.0568  0.4902
 6248TIP3    H240380   2.313   3.191   0.049  0.4859 -0.8224 -1.4366
 6249TIP3   OH240381   1.719   5.290   8.093 -0.1235 -0.1674 -0.4030
 6249TIP3    H140382   1.701   5.380   8.119  0.1273 -0.5857  1.3335
 6249TIP3    H240383   1.654   5.271   8.025 -1.5402  0.6607  0.6668
 6250TIP3   OH240384   2.420   4.561   0.937  0.7333 -0.1308 -0.1138
 6250TIP3    H140385   2.362   4.540   1.009 -0.9560 -1.0479 -1.6625
 6250TIP3    H240386   2.433   4.656   0.944  1.5897 -0.3430  2.0270
 6251TIP3   OH240387   1.265   2.787   1.046 -0.1785 -1.1017 -0.4770
 6251TIP3    H140388   1.351   2.815   1.075 -0.1109 -0.4923 -1.2355
 6251TIP3    H240389   1.267   2.795   0.951 -1.1163 -0.9358 -0.4962
 6252TIP3   OH240390   1.288   5.072   0.649 -0.1471  0.5019 -0.5607
 6252TIP3    H140391   1.222   5.137   0.673 -0.7244  0.2813 -1.5095
 6252TIP3    H240392   1.351   5.075   0.721  0.1567  2.5124 -0.8572
 6253TIP3   OH240393   4.163   1.530   7.456  0.1396 -0.2946  0.1742
 6253TIP3    H140394   4.095   1.581   7.501  0.0487 -2.2021  2.4199
 6253TIP3    H240395   4.148   1.440   7.486  2.2639 -1.1282 -1.0902
 6254TIP3   OH240396   0.970   0.383   8.114  0.2712 -0.2872  0.4223
 6254TIP3    H140397   0.979   0.469   8.073  0.1109 -0.2986  0.3638
 6254TIP3    H240398   1.043   0.332   8.078  0.3023 -0.2088  0.3734
 6255TIP3   OH240399   3.156   1.536   2.239 -0.4308 -0.1027 -0.4684
 6255TIP3    H140400   3.236   1.549   2.187  0.7662 -3.2065  0.3446
 6255TIP3    H240401   3.097   1.489   2.180 -1.0607  0.7815 -0.5575
 6256TIP3   OH240402   2.748   2.082   2.209  0.1216  0.0868  0.0689
 6256TIP3    H140403   2.770   2.155   2.152  1.0584 -0.9903 -0.9990
 6256TIP3    H240404   2.832   2.042   2.231 -0.4631 -2.3745 -1.7260
 6257TIP3   OH240405   4.216   4.543   1.322  0.2035  0.2403  0.2459
 6257TIP3    H140406   4.285   4.606   1.301 -1.0009  1.4593 -0.2194
 6257TIP3    H240407   4.141   4.597   1.347 -0.1398 -1.0790  2.2286
 6258TIP3   OH240408   2.478   1.188   1.802 -0.4972 -0.0684 -0.0557
 6258TIP3    H140409   2.423   1.136   1.860  0.3399 -2.6082 -1.3640
 6258TIP3    H240410   2.438   1.177   1.716  1.8199 -1.8920 -1.0275
 6259TIP3   OH240411   3.452   2.725   1.443  0.3967 -0.1719  0.2476
 6259TIP3    H140412   3.446   2.634   1.412 -3.0089 -0.1342  0.4284
 6259TIP3    H240413   3.425   2.778   1.368 -2.9838  0.2233  1.5719
 6260TIP3   OH240414   0.246   6.890   1.929  0.0128  0.0822  0.2370
 6260TIP3    H140415   0.220   6.798   1.934  0.9431 -0.1781  0.4483
 6260TIP3    H240416   0.266   6.904   1.836  1.3279 -0.3593  0.4300
 6261TIP3   OH240417   0.854   5.088   2.279 -0.4546 -0.6856  0.0174
 6261TIP3    H140418   0.909   5.013   2.259 -1.4142 -1.2362 -0.6496
 6261TIP3    H240419   0.822   5.117   2.193 -1.1440 -0.3439  0.3841
 6262TIP3   OH240420   5.906   6.755   0.008 -0.5459 -0.4840  0.1415
 6262TIP3    H140421   5.940   6.775   0.095  0.0949 -0.8100 -0.0243
 6262TIP3    H240422   5.951   6.674  -0.017 -1.5479 -1.0038 -0.0414
 6263TIP3   OH240423   2.897   6.708   0.667  0.0678 -0.0207  0.7772
 6263TIP3    H140424   2.848   6.750   0.737 -1.1779  0.6320 -0.4551
 6263TIP3    H240425   2.935   6.630   0.709 -0.9644  0.1283  2.0671
 6264TIP3   OH240426   3.970   2.905   2.029  0.5131  0.3179 -0.0472
 6264TIP3    H140427   3.907   2.836   2.011 -1.9587  2.5090 -0.4184
 6264TIP3    H240428   3.975   2.909   2.125 -0.7186  0.7494  0.0140
 6265TIP3   OH240429   3.769   0.893   0.773  0.3368 -0.9834  0.0011
 6265TIP3    H140430   3.839   0.860   0.830 -0.5412 -0.4144  1.4426
 6265TIP3    H240431   3.700   0.920   0.833 -1.7937 -2.9605 -1.4160
 6266TIP3   OH240432   2.101   6.088   3.621  0.0197  0.1616 -0.3621
 6266TIP3    H140433   2.083   6.170   3.666  1.1297 -0.6788  1.7275
 6266TIP3    H240434   2.025   6.033   3.640  0.3839 -0.1153  0.3018
 6267TIP3   OH240435   1.526   5.381   2.668 -0.0162  0.0172 -0.3339
 6267TIP3    H140436   1.508   5.376   2.762 -0.4516  2.3419 -0.2310
 6267TIP3    H240437   1.470   5.313   2.629 -0.9119 -0.0148  0.9489
 6268TIP3   OH240438   0.476   4.408   1.911 -0.4480 -0.0962  0.5679
 6268TIP3    H140439   0.520   4.491   1.892 -0.2519 -0.1913  0.6067
 6268TIP3    H240440   0.476   4.403   2.007 -2.4937  0.9622  0.6757
 6269TIP3   OH240441   6.051   4.953   1.915 -0.2612  0.3769 -0.2785
 6269TIP3    H140442   6.025   5.029   1.966  1.1686  1.0745 -0.5349
 6269TIP3    H240443   6.105   4.988   1.845 -0.8231 -0.7357 -1.3021
 6270TIP3   OH240444   1.213   0.029   0.949  0.1378 -0.3842  0.1691
 6270TIP3    H140445   1.157   0.054   0.876 -0.1821  0.3294  0.6479
 6270TIP3    H240446   1.170  -0.048   0.986 -1.6398  1.2321  1.6954
 6271TIP3   OH240447   2.123   0.854   7.795  0.2780  0.2480  0.3957
 6271TIP3    H140448   2.187   0.925   7.796 -0.0296  0.5910 -1.3475
 6271TIP3    H240449   2.155   0.793   7.728 -0.6723 -0.0870  0.2287
 6272TIP3   OH240450   2.747   5.486   3.324  0.0454 -0.1489 -0.4157
 6272TIP3    H140451   2.785   5.561   3.279  0.4968  0.6484  1.2204
 6272TIP3    H240452   2.659   5.513   3.348  0.1047 -0.2458 -0.0798
 6273TIP3   OH240453   2.797   3.072   1.228 -0.0704  0.7655  0.2382
 6273TIP3    H140454   2.706   3.102   1.229  0.4229  2.4526 -1.3922
 6273TIP3    H240455   2.836   3.114   1.152  2.5070  1.2929  1.7319
 6274TIP3   OH240456   2.755   1.676   0.313 -0.1207 -0.3285  0.4889
 6274TIP3    H140457   2.700   1.673   0.235 -0.7963 -2.2195  0.9875
 6274TIP3    H240458   2.708   1.734   0.374  0.3671  1.0836 -0.4158
 6275TIP3   OH240459   1.585   0.163   2.530  0.2457 -0.0962  0.1906
 6275TIP3    H140460   1.625   0.239   2.487  0.2063  0.5275  1.2149
 6275TIP3    H240461   1.493   0.186   2.540 -0.2543 -1.1912 -1.4111
 6276TIP3   OH240462   4.676   2.329   7.708  0.3089  0.1478  0.6889
 6276TIP3    H140463   4.770   2.340   7.721  0.5923 -1.3285  0.0682
 6276TIP3    H240464   4.665   2.317   7.614 -0.5397  0.5587  0.7240
 6277TIP3   OH240465   0.029   0.958   2.349  0.1591  0.0802 -0.4132
 6277TIP3    H140466  -0.036   1.017   2.310 -0.0622  1.6225  2.0515
 6277TIP3    H240467   0.004   0.871   2.319 -3.2766  0.5603  0.5826
 6278TIP3   OH240468   1.643   5.575   1.401 -0.0283  0.8306 -0.1204
 6278TIP3    H140469   1.645   5.520   1.479 -0.5380  1.2539  0.1898
 6278TIP3    H240470   1.726   5.555   1.356 -0.4460 -0.6120 -0.3040
 6279TIP3   OH240471   1.920   4.479   7.744 -0.1247 -0.2689 -0.2539
 6279TIP3    H140472   1.866   4.417   7.794 -2.4191  2.1153  0.4243
 6279TIP3    H240473   1.940   4.433   7.663 -2.8662 -1.4659 -0.3500
 6280TIP3   OH240474   3.083   6.359   3.637  0.0534  0.5309  0.4377
 6280TIP3    H140475   3.060   6.367   3.545  0.7734  0.7837  0.2712
 6280TIP3    H240476   3.179   6.366   3.638  0.0852  0.0788  1.1552
 6281TIP3   OH240477   4.400   4.078   0.249 -0.2770 -0.0526  0.2812
 6281TIP3    H140478   4.427   4.139   0.318 -0.4174  0.8551 -0.4355
 6281TIP3    H240479   4.465   4.008   0.252 -1.2008 -0.9073  2.3993
 6282TIP3   OH240480   1.393   5.304   8.017 -0.1001  0.6843  0.0824
 6282TIP3    H140481   1.468   5.297   7.958 -1.4442  0.5173 -1.6764
 6282TIP3    H240482   1.326   5.350   7.966 -0.6998  2.2086  2.1332
 6283TIP3   OH240483   1.815   0.210   1.046  0.2932  0.0872 -0.5673
 6283TIP3    H140484   1.827   0.280   1.110  1.3239 -0.2901 -0.3384
 6283TIP3    H240485   1.793   0.133   1.099 -2.1939  0.4856 -0.8896
 6284TIP3   OH240486   1.113   1.979   2.091 -0.5892  0.0706  0.8105
 6284TIP3    H140487   1.100   2.008   2.001  0.1444 -0.9232  0.3696
 6284TIP3    H240488   1.102   2.059   2.143  0.4944  0.9831 -0.2948
 6285TIP3   OH240489   1.909   3.385   0.065 -0.2690  0.1306 -0.5605
 6285TIP3    H140490   1.969   3.359   0.135 -0.8317 -1.1670 -0.5415
 6285TIP3    H240491   1.961   3.379  -0.015  0.1754  0.9389 -0.3427
 6286TIP3   OH240492   6.232   5.426   3.292  0.2163 -0.4289 -0.4292
 6286TIP3    H140493   6.156   5.482   3.279  0.5752  0.0240 -0.6139
 6286TIP3    H240494   6.197   5.337   3.288 -0.1493 -0.2530 -1.6234
 6287TIP3   OH240495   0.264   6.860   7.799  0.1714 -0.0410  1.0198
 6287TIP3    H140496   0.176   6.876   7.764 -0.0068 -1.9137  0.5472
 6287TIP3    H240497   0.294   6.947   7.826 -0.8724  1.0138 -0.9971
 6288TIP3   OH240498   6.235   2.318   2.137  0.7948  0.3771 -0.9174
 6288TIP3    H140499   6.163   2.364   2.094  0.8217  0.3674 -0.9721
 6288TIP3    H240500   6.193   2.261   2.201  0.7131 -0.1149 -1.3981
 6289TIP3   OH240501   4.396   4.491   3.272 -0.1070  0.6496 -0.1866
 6289TIP3    H140502   4.407   4.409   3.224  1.1117 -0.4988  1.9126
 6289TIP3    H240503   4.484   4.527   3.281  0.0128 -0.0746  2.5656
 6290TIP3   OH240504   3.508   4.372   7.788  0.1232 -0.3132  0.2792
 6290TIP3    H140505   3.547   4.372   7.701 -0.8703 -0.4817 -0.1730
 6290TIP3    H240506   3.502   4.465   7.812 -1.3389 -0.1318 -0.6437
 6291TIP3   OH240507   0.433   5.954   3.137 -0.1952 -0.2015 -0.1051
 6291TIP3    H140508   0.368   5.917   3.078 -0.3660  1.0147 -0.7324
 6291TIP3    H240509   0.497   5.884   3.150 -1.6493 -1.4408  0.5939
 6292TIP3   OH240510   3.562   0.480   1.887 -0.3809 -0.2198  0.2600
 6292TIP3    H140511   3.504   0.455   1.816 -0.2049 -1.2250  0.4558
 6292TIP3    H240512   3.537   0.570   1.908 -0.2294  0.2143 -1.2655
 6293TIP3   OH240513   2.448   2.186   2.671  0.0618 -0.2383 -0.3682
 6293TIP3    H140514   2.408   2.241   2.604  0.6060 -0.4038 -0.8382
 6293TIP3    H240515   2.435   2.234   2.752 -0.3925  0.0822 -0.6252
 6294TIP3   OH240516   4.011   1.121   1.768  0.1476  0.2737 -0.4401
 6294TIP3    H140517   3.997   1.079   1.852 -1.1239  2.5549  0.5791
 6294TIP3    H240518   4.095   1.166   1.777 -0.3785  1.2073 -0.0424
 6295TIP3   OH240519   4.823   6.768   0.805  0.6776 -0.0485  0.6574
 6295TIP3    H140520   4.795   6.857   0.783  1.0115  0.1603  1.0559
 6295TIP3    H240521   4.751   6.732   0.857  0.4644 -0.0799  0.3467
 6296TIP3   OH240522   6.805   1.002   0.101 -0.8479 -0.4176  0.5417
 6296TIP3    H140523   6.834   1.065   0.167  0.3591 -0.6313  0.2344
 6296TIP3    H240524   6.719   0.974   0.132  0.2500 -1.5741  2.8401
 6297TIP3   OH240525   0.897   2.834   0.914 -0.2307 -0.1738 -0.0405
 6297TIP3    H140526   0.986   2.869   0.909  0.2113 -1.2582 -0.1126
 6297TIP3    H240527   0.878   2.802   0.826  0.4732 -2.5970  0.5979
 6298TIP3   OH240528   4.406   1.057   0.822  0.7655  0.3635  0.1407
 6298TIP3    H140529   4.323   1.101   0.842  0.3765 -0.6190  0.7759
 6298TIP3    H240530   4.385   0.964   0.829  2.1674  0.1060  1.3925
 6299TIP3   OH240531   3.332   2.883   1.211 -0.3421 -0.2264 -0.2989
 6299TIP3    H140532   3.240   2.902   1.229  0.2480  1.6276  1.0337
 6299TIP3    H240533   3.330   2.820   1.139 -2.6614 -1.2036  0.5449
 6300TIP3   OH240534   0.277   2.529   2.972  0.4393  0.1633  0.3690
 6300TIP3    H140535   0.243   2.449   2.931  2.0213 -1.2978  1.7656
 6300TIP3    H240536   0.217   2.546   3.045 -1.1043  1.5212 -1.1183
 6301TIP3   OH240537   4.043   4.806   0.655  0.6795 -0.1579  0.3521
 6301TIP3    H140538   4.038   4.876   0.721  0.1125 -0.1331  0.2890
 6301TIP3    H240539   4.135   4.783   0.652  0.9198  0.7545  0.2075
 6302TIP3   OH240540   4.917   6.850   2.818 -0.5645  0.0556 -0.1886
 6302TIP3    H140541   4.864   6.775   2.846  0.6084 -0.7298  0.0017
 6302TIP3    H240542   5.007   6.817   2.818 -0.0526  1.3927 -0.3696
 6303TIP3   OH240543   5.745   6.837   2.127 -0.3873  0.4506  0.0689
 6303TIP3    H140544   5.813   6.893   2.090 -1.2202  1.2851 -0.2471
 6303TIP3    H240545   5.665   6.860   2.079 -1.0014 -0.1468  0.7619
 6304TIP3   OH240546   1.365   5.053   1.051 -0.0121  0.0045 -0.2274
 6304TIP3    H140547   1.427   4.983   1.028  0.2120  0.8519 -2.4030
 6304TIP3    H240548   1.414   5.134   1.036 -1.0146  0.6665 -0.0377
 6305TIP3   OH240549   0.760   0.913   2.367 -0.4981  0.1949 -0.0915
 6305TIP3    H140550   0.745   0.987   2.426 -0.6362 -1.3220  1.8820
 6305TIP3    H240551   0.830   0.943   2.309  0.1571  1.5362  1.3086
 6306TIP3   OH240552   6.470   3.323   0.442  0.1968 -0.8479  0.3052
 6306TIP3    H140553   6.555   3.352   0.411 -0.2216 -0.8254 -0.8425
 6306TIP3    H240554   6.414   3.324   0.365 -1.6196  1.8868  1.5390
 6307TIP3   OH240555   3.708   0.862   1.133 -0.3514 -0.7717  0.3112
 6307TIP3    H140556   3.670   0.823   1.213 -0.9876  1.6428  1.2659
 6307TIP3    H240557   3.634   0.873   1.074  0.1025 -2.4544 -0.6620
 6308TIP3   OH240558   6.233   4.907   0.330 -0.1367  0.2073 -0.3408
 6308TIP3    H140559   6.312   4.871   0.290 -0.7020 -2.5688  0.8368
 6308TIP3    H240560   6.161   4.860   0.287 -1.0858  1.4617 -0.1827
 6309TIP3   OH240561   2.700   5.969   2.275 -0.3013 -0.0720  0.1031
 6309TIP3    H140562   2.649   5.962   2.356 -1.4212 -1.2461 -0.6527
 6309TIP3    H240563   2.753   6.047   2.287 -0.3659 -0.2654  2.0027
 6310TIP3   OH240564   5.624   0.065   2.628  0.1144  0.2519  0.0277
 6310TIP3    H140565   5.575   0.059   2.546  0.8445 -0.1407 -0.3910
 6310TIP3    H240566   5.557   0.070   2.696 -0.5716  3.0559 -0.7050
 6311TIP3   OH240567   4.731   3.042   0.894 -0.5512  0.1835  0.0077
 6311TIP3    H140568   4.668   3.100   0.937 -0.1037  0.3022  0.5042
 6311TIP3    H240569   4.677   2.969   0.863 -1.0055  0.5006  0.0266
 6312TIP3   OH240570   6.356   4.972   1.299  0.3104  0.0279 -0.2508
 6312TIP3    H140571   6.387   4.882   1.294  0.7210  0.2081 -1.0297
 6312TIP3    H240572   6.343   4.998   1.208 -0.3415  0.5732 -0.0050
 6313TIP3   OH240573   0.556   6.974   2.533 -0.0107  0.9499 -0.3298
 6313TIP3    H140574   0.648   6.969   2.557 -0.5020 -2.5059  1.4483
 6313TIP3    H240575   0.555   6.959   2.438  1.2150 -1.0066 -0.0823
 6314TIP3   OH240576   2.187   3.092   0.564  0.7292 -0.0463 -0.4230
 6314TIP3    H140577   2.181   3.005   0.602  1.1605 -0.6634 -1.7374
 6314TIP3    H240578   2.098   3.125   0.564  0.6902 -0.1126  0.9094
 6315TIP3   OH240579   0.358   3.377   2.535  0.2594  0.9234 -0.0915
 6315TIP3    H140580   0.401   3.370   2.620 -0.8951  0.8030  0.5103
 6315TIP3    H240581   0.425   3.411   2.476  1.2551  0.4273  0.7260
 6316TIP3   OH240582   3.018   5.406   3.172 -0.2354 -0.3629  0.0046
 6316TIP3    H140583   2.986   5.425   3.260 -1.2782  0.4268 -0.5130
 6316TIP3    H240584   2.973   5.470   3.116  0.9708 -0.3565 -1.0063
 6317TIP3   OH240585   5.445   0.481   2.531  0.3253  0.0032 -0.0060
 6317TIP3    H140586   5.468   0.574   2.533  2.4569 -0.3638 -2.7334
 6317TIP3    H240587   5.492   0.445   2.456 -1.7139 -2.9883 -0.0398
 6318TIP3   OH240588   1.212   5.027   1.645 -0.8125 -0.6744  0.2156
 6318TIP3    H140589   1.240   4.962   1.580 -1.3630 -0.7626  0.0691
 6318TIP3    H240590   1.157   5.088   1.596 -3.1481 -2.0115  1.0286
 6319TIP3   OH240591   3.570   0.610   0.703  0.2203 -0.5300  0.2772
 6319TIP3    H140592   3.616   0.659   0.635 -0.9173  1.0670  0.5929
 6319TIP3    H240593   3.510   0.674   0.741  0.8113 -1.3748  2.7892
 6320TIP3   OH240594   4.716   3.562   0.424  0.0946 -0.2630 -0.2658
 6320TIP3    H140595   4.743   3.649   0.393  0.0433 -0.5548 -1.1768
 6320TIP3    H240596   4.660   3.579   0.499  0.9769  0.4472  0.2454
 6321TIP3   OH240597   4.049   6.362   0.923 -0.3997 -0.3498 -0.4423
 6321TIP3    H140598   3.956   6.359   0.946 -0.2343 -0.7473  0.1785
 6321TIP3    H240599   4.089   6.418   0.988 -0.1580 -0.3826 -0.5601
 6322TIP3   OH240600   4.149   1.865   7.507 -0.4680 -0.5551 -0.6876
 6322TIP3    H140601   4.145   1.952   7.468  1.1197 -0.0101  0.2803
 6322TIP3    H240602   4.242   1.845   7.511 -0.6627 -1.2320  1.3922
 6323TIP3   OH240603   0.137   3.510   2.727  0.0865 -0.2488 -0.2817
 6323TIP3    H140604   0.109   3.425   2.760  1.9056 -0.8699 -0.2787
 6323TIP3    H240605   0.110   3.572   2.796 -2.7462 -0.5271 -1.0188
 6324TIP3   OH240606   5.235   5.562   2.973 -0.4686  0.0204  1.0676
 6324TIP3    H140607   5.186   5.480   2.984 -0.8361  0.2153  0.9271
 6324TIP3    H240608   5.192   5.624   3.033 -0.1586  0.0959  1.2137
 6325TIP3   OH240609   5.258   5.923   1.348  0.3025  0.5235  0.4103
 6325TIP3    H140610   5.181   5.930   1.404  0.3059 -1.1729  0.6794
 6325TIP3    H240611   5.323   5.980   1.389  0.5295 -1.1593  2.5879
 6326TIP3   OH240612   3.668   5.370   7.402 -0.0727 -0.3131  0.1686
 6326TIP3    H140613   3.680   5.461   7.373 -0.8297  0.3882  1.9442
 6326TIP3    H240614   3.586   5.343   7.361  0.9020 -0.7535 -1.5919
 6327TIP3   OH240615   6.612   2.002   2.431 -0.1917 -0.0507  0.1817
 6327TIP3    H140616   6.644   2.057   2.502 -0.5137 -1.1161  1.1789
 6327TIP3    H240617   6.557   2.060   2.378  0.5706  0.9123  0.4228
 6328TIP3   OH240618   2.878   2.007   0.435 -0.2634  0.1847 -0.6362
 6328TIP3    H140619   2.817   1.949   0.481 -2.0589  0.9242 -1.9487
 6328TIP3    H240620   2.962   1.962   0.439 -1.1961 -1.5950 -0.0083
 6329TIP3   OH240621   5.905   4.776   0.841 -0.2245 -0.0635 -0.4489
 6329TIP3    H140622   5.905   4.681   0.839  0.6117 -0.0694 -2.5759
 6329TIP3    H240623   5.880   4.802   0.752 -0.3892  1.7076  0.0734
 6330TIP3   OH240624   2.705   5.546   0.432 -0.2598 -0.4253  0.2446
 6330TIP3    H140625   2.673   5.471   0.383 -1.1826  0.0448  0.0974
 6330TIP3    H240626   2.683   5.622   0.377 -0.7010  0.0543  1.0626
 6331TIP3   OH240627   6.778   4.122   2.033 -0.5976 -0.6001  0.1183
 6331TIP3    H140628   6.709   4.186   2.021 -0.3825 -0.6041 -1.2793
 6331TIP3    H240629   6.836   4.161   2.099 -0.4474  0.6800 -0.7362
 6332TIP3   OH240630   4.986   3.816   7.790 -0.5722  0.6352 -0.0731
 6332TIP3    H140631   5.038   3.844   7.715  0.5548 -2.4716 -0.5997
 6332TIP3    H240632   5.026   3.860   7.865 -0.2979  2.0310 -1.0044
 6333TIP3   OH240633   6.772   4.090   0.944 -0.1724  0.4078 -0.3514
 6333TIP3    H140634   6.721   4.049   1.014 -1.1793 -1.2594 -1.9783
 6333TIP3    H240635   6.707   4.116   0.879  0.8897 -0.2713 -1.7431
 6334TIP3   OH240636   0.524   6.796   7.702  0.8405 -0.7181 -0.5033
 6334TIP3    H140637   0.588   6.789   7.772  0.3448 -1.8178 -0.1329
 6334TIP3    H240638   0.441   6.812   7.747  0.5695 -1.1028 -0.8579
 6335TIP3   OH240639   5.770   1.918   1.587  0.1890 -0.3207  0.4667
 6335TIP3    H140640   5.718   1.849   1.628 -0.9570  1.3128  1.9451
 6335TIP3    H240641   5.742   1.919   1.496 -0.0016 -1.5834  0.4994
 6336TIP3   OH240642   1.880   0.448   8.137  0.0090  0.2077  0.2658
 6336TIP3    H140643   1.942   0.515   8.166  0.3579 -0.4782  1.1059
 6336TIP3    H240644   1.851   0.480   8.051  0.7489  1.0502  0.3068
 6337TIP3   OH240645   6.741   0.826   1.563 -0.2478 -0.1517 -0.0260
 6337TIP3    H140646   6.812   0.784   1.612 -1.2924  1.0237  2.6846
 6337TIP3    H240647   6.667   0.826   1.624 -1.7288  1.2136 -1.7281
 6338TIP3   OH240648   1.050   2.175   0.309 -0.0077  0.3280  0.1051
 6338TIP3    H140649   0.957   2.194   0.304 -0.5610 -2.0996 -0.5452
 6338TIP3    H240650   1.086   2.210   0.228 -0.9692 -1.3048 -1.0943
 6339TIP3   OH240651   6.424   6.810   2.244  0.4554 -0.8933  0.4979
 6339TIP3    H140652   6.504   6.856   2.270 -1.1552  0.7176  3.0499
 6339TIP3    H240653   6.399   6.759   2.321 -0.8329 -1.5939 -0.3508
 6340TIP3   OH240654   1.097   3.462   0.575 -0.7040 -0.3892 -0.5751
 6340TIP3    H140655   1.089   3.515   0.496  1.7678  1.2242  0.1332
 6340TIP3    H240656   1.134   3.379   0.545 -0.3324 -0.0068 -1.2020
 6341TIP3   OH240657   0.768   3.433   1.852  0.5115  0.1055  0.0915
 6341TIP3    H140658   0.856   3.469   1.845  1.3330 -1.9891 -1.6984
 6341TIP3    H240659   0.745   3.411   1.761 -1.2203 -0.7978  0.7170
 6342TIP3   OH240660   2.320   6.413   1.420  0.4795 -0.1126 -0.4404
 6342TIP3    H140661   2.272   6.449   1.495 -0.8831 -2.2925 -0.1700
 6342TIP3    H240662   2.252   6.370   1.368  1.9102 -1.7170 -1.0334
 6343TIP3   OH240663   3.217   2.412   3.239  0.2350  0.3603 -0.3588
 6343TIP3    H140664   3.172   2.336   3.275 -0.4570  1.6474  1.6883
 6343TIP3    H240665   3.179   2.487   3.286  2.3302  1.7830 -0.7933
 6344TIP3   OH240666   2.778   5.138   8.192  0.0003 -0.0739  0.4726
 6344TIP3    H140667   2.867   5.103   8.190 -0.3947 -1.2173 -2.3183
 6344TIP3    H240668   2.789   5.233   8.194  1.2360 -0.2094  1.0029
 6345TIP3   OH240669   0.252   6.016   7.440  0.0393 -0.3299 -0.6896
 6345TIP3    H140670   0.313   6.031   7.368  0.2055 -0.3129 -0.5456
 6345TIP3    H240671   0.233   6.104   7.473  0.6876 -0.3933 -0.1145
 6346TIP3   OH240672   6.013   0.978   3.142  0.1454 -0.4086  0.1730
 6346TIP3    H140673   5.938   0.945   3.190 -0.7257  1.6200  0.3377
 6346TIP3    H240674   6.085   0.977   3.205 -0.4593  0.2283  0.8894
 6347TIP3   OH240675   0.017   0.354   1.097 -0.1823  0.4555 -0.1703
 6347TIP3    H140676   0.102   0.357   1.054 -0.3450  0.2279 -0.5074
 6347TIP3    H240677  -0.046   0.359   1.026 -0.4564  1.1566  0.1106
 6348TIP3   OH240678   3.355   6.613   8.085 -0.4236  0.5047 -0.0532
 6348TIP3    H140679   3.291   6.667   8.131 -0.0524  0.9735 -0.0789
 6348TIP3    H240680   3.363   6.534   8.138  0.0274  1.0582  0.7133
 6349TIP3   OH240681   2.267   6.720   0.373  0.2389  0.3605  0.4114
 6349TIP3    H140682   2.326   6.679   0.309  0.4067  1.0831  0.0971
 6349TIP3    H240683   2.180   6.690   0.347  0.3532  0.2430  0.1542
 6350TIP3   OH240684   1.778   2.861   0.755 -0.2563  0.2502  0.0307
 6350TIP3    H140685   1.855   2.864   0.812 -0.0525  1.2829 -0.2956
 6350TIP3    H240686   1.789   2.780   0.705  1.5922  1.3086 -1.3739
 6351TIP3   OH240687   4.189   1.868   1.218  0.2801  0.5724 -0.1224
 6351TIP3    H140688   4.170   1.944   1.163  1.1656 -1.2519 -3.2182
 6351TIP3    H240689   4.284   1.872   1.233  0.0091  1.2065  1.6434
 6352TIP3   OH240690   6.531   1.070   3.583 -0.0110  0.2425  0.2892
 6352TIP3    H140691   6.485   1.002   3.535  0.0983  0.7134 -0.5018
 6352TIP3    H240692   6.545   1.140   3.519 -1.5776  1.7241  1.4754
 6353TIP3   OH240693   5.281   5.625   2.527 -0.1541 -0.1951  0.3594
 6353TIP3    H140694   5.358   5.664   2.567  1.2491 -2.3136 -0.1099
 6353TIP3    H240695   5.245   5.694   2.471  0.5903  1.2535  1.5796
 6354TIP3   OH240696   1.746   6.422   0.884  0.0060  0.4431 -0.2273
 6354TIP3    H140697   1.737   6.328   0.897 -1.8672  0.5913 -0.2678
 6354TIP3    H240698   1.786   6.430   0.797 -1.4765 -0.3015 -1.0083
 6355TIP3   OH240699   0.687   0.242   2.481 -0.5680  0.0469 -0.0706
 6355TIP3    H140700   0.662   0.289   2.561  1.6275 -1.1692  1.4507
 6355TIP3    H240701   0.757   0.296   2.443  0.9989 -1.1662  0.9383
 6356TIP3   OH240702   3.414   6.481   7.833  0.5300  0.4249  0.4470
 6356TIP3    H140703   3.356   6.531   7.775  1.7615  0.7505 -0.5267
 6356TIP3    H240704   3.384   6.505   7.921 -0.9339  0.4371 -0.0218
 6357TIP3   OH240705   0.883   1.356   3.607  1.3466  0.9564 -0.3656
 6357TIP3    H140706   0.815   1.326   3.548  1.1100  0.0788  0.3171
 6357TIP3    H240707   0.895   1.283   3.668  1.4540  1.8858  0.7730
 6358TIP3   OH240708   0.996   6.557   2.165 -0.0561 -0.0264  0.0045
 6358TIP3    H140709   1.087   6.561   2.137 -0.2134 -1.3051 -0.7962
 6358TIP3    H240710   0.988   6.472   2.208 -0.5571  0.6543  1.3138
 6359TIP3   OH240711   1.215   2.171   7.860 -0.3237  0.2698 -0.2829
 6359TIP3    H140712   1.197   2.099   7.800  0.3374 -0.0175 -0.1386
 6359TIP3    H240713   1.302   2.203   7.833 -0.7058  1.1594 -0.4963
 6360TIP3   OH240714   0.551   5.108   1.525  0.0919  0.9405 -0.2294
 6360TIP3    H140715   0.462   5.139   1.543 -0.0177  0.8013 -0.5179
 6360TIP3    H240716   0.569   5.138   1.436 -0.2221 -0.2549 -0.7185
 6361TIP3   OH240717   0.467   0.892   3.471 -0.5207  0.1132  0.2043
 6361TIP3    H140718   0.481   0.932   3.557  2.9258 -0.3451 -0.0236
 6361TIP3    H240719   0.461   0.966   3.410 -0.9231  0.3833  0.5646
 6362TIP3   OH240720   6.613   6.041   3.382  0.0531  0.3074  0.3995
 6362TIP3    H140721   6.585   6.066   3.471 -2.0768  1.0141 -0.4075
 6362TIP3    H240722   6.699   6.082   3.371  1.3995 -1.5787  2.8772
 6363TIP3   OH240723   5.971   3.616   0.853  0.2010  0.3519  0.2413
 6363TIP3    H140724   5.904   3.627   0.786  1.3567 -0.7053 -1.1312
 6363TIP3    H240725   5.941   3.540   0.904 -1.1597  1.7158  1.5982
 6364TIP3   OH240726   2.336   4.570   1.853  0.0605 -0.6774 -0.2304
 6364TIP3    H140727   2.279   4.580   1.929 -0.2619  0.8445 -0.6326
 6364TIP3    H240728   2.321   4.480   1.823 -0.5680 -0.9647  0.8854
 6365TIP3   OH240729   1.484   3.520   3.185  0.2283 -0.4994  0.6614
 6365TIP3    H140730   1.501   3.598   3.132 -0.9810 -0.2221  0.6651
 6365TIP3    H240731   1.537   3.533   3.264  0.6861 -0.0921  0.2944
 6366TIP3   OH240732   1.429   4.268   1.922 -0.3973 -0.1631 -0.6577
 6366TIP3    H140733   1.348   4.221   1.940 -0.4816 -0.2182 -1.1679
 6366TIP3    H240734   1.496   4.219   1.971 -0.9816  1.2326  1.7095
 6367TIP3   OH240735   6.793   5.524   2.015  0.4693  0.2561 -0.7138
 6367TIP3    H140736   6.821   5.612   1.990  3.7865 -0.8998 -1.4924
 6367TIP3    H240737   6.799   5.473   1.934 -1.4981 -0.7321 -0.2978
 6368TIP3   OH240738   1.746   5.231   1.204 -0.5252  0.2034 -0.1488
 6368TIP3    H140739   1.682   5.214   1.273 -0.1547  1.1946  0.4696
 6368TIP3    H240740   1.810   5.160   1.214 -0.7451  0.0445  0.1916
 6369TIP3   OH240741   0.173   6.036   1.715 -0.0808  0.1360 -0.2991
 6369TIP3    H140742   0.146   6.031   1.624 -1.0159  1.2712 -0.0935
 6369TIP3    H240743   0.180   5.944   1.743 -0.5248 -0.2078 -1.2907
 6370TIP3   OH240744   2.143   2.241   1.724  0.2714  0.0493 -0.0485
 6370TIP3    H140745   2.165   2.157   1.683 -0.3556  1.3095 -3.3034
 6370TIP3    H240746   2.047   2.239   1.732  0.2503  0.4265 -0.1756
 6371TIP3   OH240747   0.522   1.762   7.827  0.1338 -0.9859  0.6230
 6371TIP3    H140748   0.456   1.814   7.872  1.0301 -0.4500  1.3685
 6371TIP3    H240749   0.476   1.684   7.796 -0.9194 -0.4308  0.7600
 6372TIP3   OH240750   7.058   2.801   3.057  0.1507  0.2742 -0.1394
 6372TIP3    H140751   7.051   2.821   3.151 -0.8318 -0.6337  0.0010
 6372TIP3    H240752   6.980   2.841   3.018 -0.5713 -1.1426 -0.2206
 6373TIP3   OH240753   6.695   5.623   7.703  0.0731  0.0461  0.3666
 6373TIP3    H140754   6.787   5.644   7.723  0.7490 -0.5174 -1.8362
 6373TIP3    H240755   6.656   5.706   7.678  0.5110  0.0184 -0.4481
 6374TIP3   OH240756   6.033   3.649   0.500 -0.4139 -0.8200  0.9161
 6374TIP3    H140757   5.986   3.566   0.491  0.0657 -0.9301 -1.3692
 6374TIP3    H240758   5.964   3.715   0.500 -0.7560 -1.1695  1.8382
 6375TIP3   OH240759   4.608   0.592   2.375  0.3470  0.0665  0.5448
 6375TIP3    H140760   4.700   0.615   2.387  0.6470 -1.6094  1.7166
 6375TIP3    H240761   4.579   0.562   2.461 -0.7394 -1.2773 -0.2546
 6376TIP3   OH240762   1.960   4.088   0.895 -0.6353  0.0530 -0.2327
 6376TIP3    H140763   1.963   4.012   0.837  2.0837  0.5273 -0.8177
 6376TIP3    H240764   1.901   4.062   0.966  0.8980 -2.9805  0.0709
 6377TIP3   OH240765   1.172   2.282   0.101 -0.6490  0.2685 -0.0281
 6377TIP3    H140766   1.162   2.369   0.062 -1.0829  0.3717  0.3028
 6377TIP3    H240767   1.261   2.281   0.135 -0.2161  0.1345 -1.1080
 6378TIP3   OH240768   7.000   5.011   0.516 -0.1216  0.3682 -0.6377
 6378TIP3    H140769   6.963   5.098   0.532  0.7036  0.8329 -1.1702
 6378TIP3    H240770   6.924   4.954   0.506 -0.6728  0.9782 -0.0503
 6379TIP3   OH240771   0.693   4.959   1.241 -0.5037 -0.5692 -0.3191
 6379TIP3    H140772   0.764   4.993   1.186  1.2886 -1.0733  1.5727
 6379TIP3    H240773   0.629   5.030   1.245 -1.0641 -0.7419 -3.5448
 6380TIP3   OH240774   5.316   4.988   2.818 -0.1068 -0.2814 -0.1413
 6380TIP3    H140775   5.262   4.916   2.786 -0.0438 -0.4175  0.0650
 6380TIP3    H240776   5.254   5.059   2.834 -0.3426 -0.7271  0.9621
 6381TIP3   OH240777   2.206   0.211   3.028  0.2580 -0.4632  0.1117
 6381TIP3    H140778   2.250   0.180   3.107 -0.2098 -1.1282  0.1229
 6381TIP3    H240779   2.182   0.131   2.981 -3.6720 -0.3774  1.6076
 6382TIP3   OH240780   5.679   1.086   0.567 -0.0126 -0.1041 -0.0115
 6382TIP3    H140781   5.673   1.001   0.523  2.2272  0.6312 -1.9381
 6382TIP3    H240782   5.685   1.150   0.496  1.8079  1.3606  1.3592
 6383TIP3   OH240783   5.762   7.066   3.903  0.0819 -0.1518 -0.4039
 6383TIP3    H140784   5.807   7.036   3.824 -0.8109  0.5339 -1.1989
 6383TIP3    H240785   5.791   7.156   3.915  0.4739 -0.3607  0.2541
 6384TIP3   OH240786   4.756   5.549   0.711 -0.0966 -0.1790  0.0370
 6384TIP3    H140787   4.844   5.567   0.744  0.5050 -0.9661 -1.0702
 6384TIP3    H240788   4.740   5.458   0.733  1.5208 -1.7236 -4.1693
 6385TIP3   OH240789   0.211   6.325   2.647  0.5221  0.0434  0.2181
 6385TIP3    H140790   0.159   6.352   2.723  1.2790  2.4338 -0.0335
 6385TIP3    H240791   0.290   6.378   2.653  1.1460 -0.6304 -1.5800
 6386TIP3   OH240792   6.425   5.903   1.184 -0.1460  0.7767  0.2461
 6386TIP3    H140793   6.344   5.911   1.133  0.4259 -1.4658 -1.1370
 6386TIP3    H240794   6.442   5.992   1.215 -2.2294  1.6239 -0.8414
 6387TIP3   OH240795   5.503   6.231   1.742 -0.4829  0.1835  0.1394
 6387TIP3    H140796   5.421   6.200   1.704 -1.6494 -1.0157  3.2677
 6387TIP3    H240797   5.533   6.158   1.797  1.7158  1.2758  0.5011
 6388TIP3   OH240798   1.047   5.243   2.376 -0.6473 -0.1666  0.1725
 6388TIP3    H140799   0.975   5.183   2.359 -1.2317 -0.2864  2.6116
 6388TIP3    H240800   1.010   5.310   2.434  0.6229  1.1269 -0.4290
 6389TIP3   OH240801   3.936   6.650   8.164 -0.2952 -0.4645  0.8137
 6389TIP3    H140802   3.959   6.714   8.231  0.4865  1.4157 -1.1380
 6389TIP3    H240803   3.851   6.679   8.132  0.5097  0.2547 -0.7710
 6390TIP3   OH240804   1.404   6.090   0.148  0.4863  0.4210  0.1197
 6390TIP3    H140805   1.353   6.082   0.067  0.7253  1.6594 -0.1759
 6390TIP3    H240806   1.444   6.004   0.159 -0.1042  0.0192 -0.6966
 6391TIP3   OH240807   1.225   6.820   2.060 -0.4446  0.2930 -0.5122
 6391TIP3    H140808   1.285   6.864   2.121  0.1859  0.3251 -1.1439
 6391TIP3    H240809   1.244   6.726   2.072 -1.8544  0.1387  0.9029
 6392TIP3   OH240810   6.643   4.679   3.506  0.2206 -0.1136  0.0517
 6392TIP3    H140811   6.704   4.698   3.435  1.1443  0.4580  0.9784
 6392TIP3    H240812   6.656   4.586   3.524  0.6064 -0.0610  0.0510
 6393TIP3   OH240813   0.944   5.021   7.763  0.0187 -0.6476  0.0029
 6393TIP3    H140814   0.953   5.112   7.736 -0.5183 -0.5201  0.2420
 6393TIP3    H240815   0.869   4.989   7.713 -0.7530 -0.5156  1.0439
 6394TIP3   OH240816   1.143   5.545   1.584  0.4478  0.1524  0.0712
 6394TIP3    H140817   1.183   5.468   1.543 -1.1173 -0.4886 -0.3338
 6394TIP3    H240818   1.213   5.583   1.637  1.9137 -0.2398 -1.4885
 6395TIP3   OH240819   3.543   1.387   0.142 -0.0869  0.1682  0.0599
 6395TIP3    H140820   3.569   1.409   0.053  3.2999 -0.2232  0.8047
 6395TIP3    H240821   3.536   1.292   0.143  3.7228 -0.2553  0.9175
 6396TIP3   OH240822   0.746   4.852   7.130 -0.6769  0.0423  1.0823
 6396TIP3    H140823   0.771   4.907   7.205  1.1222  0.4095  0.2653
 6396TIP3    H240824   0.824   4.800   7.112 -1.9285 -1.9054  1.0371
 6397TIP3   OH240825   1.433   2.296   1.465 -0.2804  1.0185 -0.0509
 6397TIP3    H140826   1.410   2.336   1.381 -0.4487  2.4628  0.6516
 6397TIP3    H240827   1.352   2.254   1.495 -0.7331  2.0734  0.2309
 6398TIP3   OH240828   4.827   2.393   0.715  0.4151 -0.0326 -0.3498
 6398TIP3    H140829   4.897   2.450   0.744  2.0824 -0.7119 -2.7521
 6398TIP3    H240830   4.853   2.306   0.744 -1.4632  0.1105  2.1412
 6399TIP3   OH240831   3.620   1.007   0.145  0.2090 -0.4738  0.0528
 6399TIP3    H140832   3.664   0.929   0.113  1.7483  0.9639 -1.5899
 6399TIP3    H240833   3.575   1.043   0.067  0.4544  0.8345  0.4817
 6400TIP3   OH240834   2.840   2.418   1.062  0.5795  0.0553 -0.2903
 6400TIP3    H140835   2.790   2.337   1.069  0.0801  0.2876 -1.0766
 6400TIP3    H240836   2.775   2.488   1.075  0.5572  0.3755 -1.9402
 6401TIP3   OH240837   2.830   1.646   2.649  0.0354  0.5927 -0.0610
 6401TIP3    H140838   2.806   1.720   2.704 -1.3257 -0.0286  0.2242
 6401TIP3    H240839   2.885   1.683   2.580 -0.8697  1.9167 -0.0952
 6402TIP3   OH240840   3.166   6.698   8.277 -0.3666 -0.1232 -0.4191
 6402TIP3    H140841   3.081   6.735   8.251 -0.3484  1.4200  1.4043
 6402TIP3    H240842   3.145   6.643   8.353  0.3327  1.3479  0.9188
 6403TIP3   OH240843   2.796   6.092   2.719 -0.3433  0.1949 -0.3960
 6403TIP3    H140844   2.716   6.065   2.765 -0.6693  2.8224  0.7483
 6403TIP3    H240845   2.786   6.057   2.631 -2.1640 -0.5794  0.0639
 6404TIP3   OH240846   5.848   5.405   7.688 -0.1910  0.7051  0.3853
 6404TIP3    H140847   5.915   5.340   7.665  0.4367  1.0539  1.2044
 6404TIP3    H240848   5.765   5.358   7.677  0.2796 -0.5386  1.7877
 6405TIP3   OH240849   4.293   5.926   2.222  0.1067  0.0750 -0.1520
 6405TIP3    H140850   4.262   5.876   2.147  1.9981 -2.0091  0.3342
 6405TIP3    H240851   4.278   5.870   2.298  2.1846  0.2257  0.4454
 6406TIP3   OH240852   4.682   0.670   0.353  0.1136 -0.7326  0.1210
 6406TIP3    H140853   4.708   0.637   0.267 -2.5315  0.1508 -1.1425
 6406TIP3    H240854   4.757   0.721   0.383  0.5222  0.3870 -2.5109
 6407TIP3   OH240855   4.959   0.120   0.209 -0.0475  0.2104 -0.1881
 6407TIP3    H140856   5.004   0.204   0.205  0.7124 -0.0422  1.7116
 6407TIP3    H240857   4.984   0.084   0.294 -1.1029 -1.5208 -0.5590
 6408TIP3   OH240858   4.525   4.343   0.138 -0.4325  0.3069 -0.0499
 6408TIP3    H140859   4.557   4.281   0.204  0.4855  1.2568  0.4202
 6408TIP3    H240860   4.443   4.304   0.107 -0.4806 -0.5488  1.0833
 6409TIP3   OH240861   6.071   0.724   7.956 -0.4426 -0.2580  0.2937
 6409TIP3    H140862   6.088   0.790   8.023 -0.2575  0.8607 -0.8157
 6409TIP3    H240863   5.976   0.726   7.945 -0.2993  0.9385 -0.8183
 6410TIP3   OH240864   1.272   0.607   1.037  0.1155  0.4948  0.2949
 6410TIP3    H140865   1.278   0.698   1.066 -3.2656  0.7108  0.8229
 6410TIP3    H240866   1.192   0.605   0.984  1.7514 -1.6099 -2.2998
 6411TIP3   OH240867   3.900   4.996   2.715  0.3003  0.3945  0.6009
 6411TIP3    H140868   3.990   5.008   2.684 -0.2704  1.7119 -0.6509
 6411TIP3    H240869   3.869   5.084   2.733 -1.2408  0.1188 -0.4840
 6412TIP3   OH240870   0.107   1.651   1.012 -0.4340  0.5776 -0.7941
 6412TIP3    H140871   0.195   1.686   0.995  0.3120 -0.8366 -0.0273
 6412TIP3    H240872   0.106   1.634   1.107 -1.6444  0.8170 -0.7441
 6413TIP3   OH240873   0.709   0.405   0.173 -0.5096 -0.3374 -0.4380
 6413TIP3    H140874   0.707   0.344   0.247 -0.5444 -0.4659 -0.5460
 6413TIP3    H240875   0.631   0.459   0.186 -1.0043 -0.9359 -0.8716
 6414TIP3   OH240876   4.132   6.268   2.656 -0.2738  0.1416 -0.0454
 6414TIP3    H140877   4.187   6.303   2.726  1.5437 -0.2782 -1.1665
 6414TIP3    H240878   4.182   6.193   2.623 -2.1861 -1.0817 -0.2799
 6415TIP3   OH240879   1.904   3.758   1.509 -0.3871 -0.1201  0.2022
 6415TIP3    H140880   1.857   3.734   1.429  0.3958  0.5402 -0.4845
 6415TIP3    H240881   1.889   3.851   1.519  0.6910  0.0951 -0.0003
 6416TIP3   OH240882   5.110   5.986   3.248 -0.1010 -0.4413  0.3118
 6416TIP3    H140883   5.091   6.027   3.332  0.5939 -1.6227  1.0621
 6416TIP3    H240884   5.163   6.051   3.202 -1.3938  0.6756  0.3033
 6417TIP3   OH240885   6.748   2.954   2.508 -0.7667 -0.3970 -0.1598
 6417TIP3    H140886   6.830   2.928   2.549  0.2684  1.2993 -1.0213
 6417TIP3    H240887   6.693   2.983   2.581  0.0769  0.1192  0.2899
 6418TIP3   OH240888   4.987   2.869   1.841  0.0653  0.2719  0.4227
 6418TIP3    H140889   5.009   2.942   1.783  0.7601  1.0500  1.6083
 6418TIP3    H240890   4.953   2.912   1.920  1.9326 -0.5529  1.7674
 6419TIP3   OH240891   4.507   1.534   1.353 -0.4007 -0.1075  0.3584
 6419TIP3    H140892   4.421   1.527   1.313  0.0945 -2.4840 -0.5137
 6419TIP3    H240893   4.491   1.531   1.447 -1.2844 -0.2406  0.2086
 6420TIP3   OH240894   3.181   0.053   1.408 -0.0145 -0.3430  0.0673
 6420TIP3    H140895   3.090   0.026   1.397 -0.0437 -0.0639 -0.3975
 6420TIP3    H240896   3.176   0.146   1.430  0.2081  0.0286 -1.3722
 6421TIP3   OH240897   2.637   0.657   1.042 -0.3591  0.2670  0.6412
 6421TIP3    H140898   2.625   0.580   0.986  2.6774  0.9278 -1.1900
 6421TIP3    H240899   2.553   0.703   1.037 -0.3962  0.1869 -3.4201
 6422TIP3   OH240900   3.541   0.318   2.518  0.2148  0.0639 -0.2013
 6422TIP3    H140901   3.506   0.293   2.603 -2.7352  1.8360 -0.7489
 6422TIP3    H240902   3.596   0.394   2.536 -0.3225  0.3735  0.1549
 6423TIP3   OH240903   2.567   1.176   3.534  0.3751 -0.1341 -0.0609
 6423TIP3    H140904   2.577   1.123   3.455 -0.4668  0.1938 -0.4034
 6423TIP3    H240905   2.540   1.113   3.601 -0.1946 -0.2160 -0.3610
 6424TIP3   OH240906   5.294   5.047   7.876 -0.1708  0.2236 -0.0817
 6424TIP3    H140907   5.267   5.096   7.798  0.2131  0.4282 -0.0890
 6424TIP3    H240908   5.313   5.115   7.941 -0.7104  0.0481  0.2657
 6425TIP3   OH240909   3.312   0.752   0.363  0.0914  0.5419  0.1013
 6425TIP3    H140910   3.346   0.841   0.371  0.2099  0.6488 -1.2972
 6425TIP3    H240911   3.376   0.707   0.307 -0.4843 -0.1346 -0.0316
 6426TIP3   OH240912   2.693   6.400   1.911  0.0030  0.3720 -0.1400
 6426TIP3    H140913   2.684   6.338   1.839  0.2509 -2.0426  1.7920
 6426TIP3    H240914   2.733   6.477   1.871  1.2185 -1.2904 -2.3632
 6427TIP3   OH240915   4.152   1.484   7.177 -0.2009 -0.6773 -0.1080
 6427TIP3    H140916   4.167   1.519   7.265  1.7260 -0.6359 -0.4021
 6427TIP3    H240917   4.071   1.526   7.149  0.6650  1.6183  0.5465
 6428TIP3   OH240918   5.294   4.991   0.773  0.5981  0.4451 -0.0809
 6428TIP3    H140919   5.355   4.919   0.754 -0.1958  0.6704 -4.7154
 6428TIP3    H240920   5.337   5.068   0.737 -1.2115  1.0835 -0.9665
 6429TIP3   OH240921   3.429   3.709   1.020 -0.3876 -0.2637  0.0388
 6429TIP3    H140922   3.489   3.723   1.093 -0.4227 -1.8322  0.4068
 6429TIP3    H240923   3.416   3.614   1.017 -0.6318 -0.2242 -1.8139
 6430TIP3   OH240924   1.542   6.217   1.444  0.0888 -0.1491  0.3865
 6430TIP3    H140925   1.477   6.157   1.481 -0.2771 -0.6564 -1.0150
 6430TIP3    H240926   1.589   6.165   1.379 -1.7938  1.5461 -2.6051
 6431TIP3   OH240927   1.523   6.427   0.037 -0.3591 -0.0360 -0.5082
 6431TIP3    H140928   1.496   6.509   0.078 -0.5790 -0.1196 -0.4809
 6431TIP3    H240929   1.479   6.359   0.089  1.5272 -0.3101  0.8455
 6432TIP3   OH240930   7.060   6.607   7.638 -0.0334 -0.1798 -0.4567
 6432TIP3    H140931   7.122   6.604   7.565  0.3280  0.2217 -0.1727
 6432TIP3    H240932   7.064   6.697   7.669 -0.9743 -0.0816 -0.6076
 6433TIP3   OH240933   2.456   3.134   1.988  0.3431  0.4329 -0.0187
 6433TIP3    H140934   2.484   3.076   2.059 -0.4498  1.0284  0.7984
 6433TIP3    H240935   2.506   3.214   2.003  3.3074 -0.7299 -2.5490
 6434TIP3   OH240936   3.019   0.586   2.649  0.2218 -0.1433  0.3468
 6434TIP3    H140937   2.990   0.526   2.581  2.5357  0.4499 -1.2997
 6434TIP3    H240938   2.974   0.668   2.629 -0.2920 -0.3871  0.4930
 6435TIP3   OH240939   0.340   4.327   2.636 -0.5236 -0.0483 -0.0651
 6435TIP3    H140940   0.382   4.295   2.716  0.3315  2.9263  0.8082
 6435TIP3    H240941   0.249   4.298   2.644  0.5127 -4.0244 -0.5327
 6436TIP3   OH240942   1.226   2.102   7.473 -0.6621 -0.4703  0.0063
 6436TIP3    H140943   1.144   2.101   7.425 -0.6256 -0.4133 -0.0582
 6436TIP3    H240944   1.289   2.140   7.412 -1.0840  1.7772  0.8650
 6437TIP3   OH240945   0.082   0.699   3.772  0.3970 -0.4779  0.0556
 6437TIP3    H140946   0.035   0.647   3.706  0.6590  0.5242 -0.9629
 6437TIP3    H240947   0.013   0.749   3.816  0.4250  0.9561 -1.4072
 6438TIP3   OH240948   3.964   5.404   2.054  0.0587  0.1443 -0.3269
 6438TIP3    H140949   3.912   5.484   2.058 -0.1616  0.0157 -0.6355
 6438TIP3    H240950   3.902   5.333   2.069  0.4025  0.0772  0.8614
 6439TIP3   OH240951   2.821   1.953   1.408  0.5773  0.0717 -0.1862
 6439TIP3    H140952   2.880   1.918   1.475  0.1959 -1.1704 -0.4789
 6439TIP3    H240953   2.783   1.876   1.367 -0.7884  0.8426 -0.4264
 6440TIP3   OH240954   1.690   6.023   2.855 -0.6179 -0.5933  0.0941
 6440TIP3    H140955   1.662   6.037   2.946 -1.8751 -1.1842 -0.1843
 6440TIP3    H240956   1.786   6.033   2.858 -0.6945  0.0523  1.3526
 6441TIP3   OH240957   1.827   5.190   2.443 -0.8294  0.0435 -0.0902
 6441TIP3    H140958   1.799   5.258   2.381 -0.9923  0.6627  0.6408
 6441TIP3    H240959   1.880   5.237   2.507 -0.7137 -0.5753  0.2758
 6442TIP3   OH240960   2.245   2.703   1.573  0.3942 -0.0691 -0.2722
 6442TIP3    H140961   2.189   2.630   1.547 -0.3155  0.2971  0.2068
 6442TIP3    H240962   2.319   2.698   1.513 -1.1285  0.6878 -2.3367
 6443TIP3   OH240963   0.536   2.497   3.343  0.2648  0.2143 -0.1485
 6443TIP3    H140964   0.479   2.460   3.410  1.4392  1.9316  1.9383
 6443TIP3    H240965   0.510   2.453   3.262 -2.8820 -0.2368  0.9650
 6444TIP3   OH240966   2.351   3.788   2.223 -0.0278 -0.5494  0.3445
 6444TIP3    H140967   2.384   3.702   2.251 -2.2616 -1.0841  1.6285
 6444TIP3    H240968   2.386   3.849   2.287  1.3033 -0.5319 -0.3790
 6445TIP3   OH240969   1.481   4.734   2.534  0.5724 -0.2447  0.2938
 6445TIP3    H140970   1.445   4.652   2.569 -0.4810  0.2336  0.3741
 6445TIP3    H240971   1.538   4.766   2.604  0.0331 -0.3052  0.7739
 6446TIP3   OH240972   6.576   3.644   2.727  0.8014  0.5581  0.0851
 6446TIP3    H140973   6.652   3.632   2.671  0.2626  0.2925 -0.5920
 6446TIP3    H240974   6.538   3.727   2.699 -1.0076 -0.8181 -1.8161
 6447TIP3   OH240975   4.764   7.034   0.754  0.5237  0.4476  0.3630
 6447TIP3    H140976   4.669   7.036   0.758  0.5302  0.0900  0.8841
 6447TIP3    H240977   4.792   7.086   0.829  0.7580  2.3603 -0.9997
 6448TIP3   OH240978   1.631   4.345   6.973  0.2770 -0.0117  0.1958
 6448TIP3    H140979   1.654   4.278   7.037 -1.2762 -0.8069 -0.0209
 6448TIP3    H240980   1.675   4.319   6.893  0.1671 -0.4321  0.2716
 6449TIP3   OH240981   6.967   6.128   7.683  0.0092 -0.4303  0.1932
 6449TIP3    H140982   6.981   6.164   7.596  0.7166 -2.0131 -0.3973
 6449TIP3    H240983   6.922   6.197   7.731  1.2971  1.2071 -0.8399
 6450TIP3   OH240984   3.426   1.771   0.172 -0.0910  0.2008  0.1429
 6450TIP3    H140985   3.434   1.795   0.080  0.6405 -1.6960 -0.3482
 6450TIP3    H240986   3.476   1.837   0.219  0.6444  0.4513 -0.9621
 6451TIP3   OH240987   3.962   1.213   0.736 -0.2024 -0.1968 -0.2739
 6451TIP3    H140988   3.958   1.121   0.710 -1.6726 -0.1905 -0.1188
 6451TIP3    H240989   3.983   1.261   0.655 -2.6166 -0.3774 -1.0670
 6452TIP3   OH240990   0.983   0.596   2.154 -1.0260  0.0760 -0.2908
 6452TIP3    H140991   1.056   0.573   2.096 -0.3245  0.4213  0.4298
 6452TIP3    H240992   1.022   0.656   2.218 -1.2854 -1.7634  1.7077
 6453TIP3   OH240993   1.614   4.317   1.385 -0.4613  0.7005  0.5670
 6453TIP3    H140994   1.654   4.390   1.339  1.0272 -0.1765  0.3958
 6453TIP3    H240995   1.521   4.323   1.364  0.0088  0.9483 -1.7325
 6454TIP3   OH240996   5.927   2.911   1.565  0.1891 -0.0451 -0.6588
 6454TIP3    H140997   5.851   2.854   1.574 -0.5871  1.0677  0.2092
 6454TIP3    H240998   5.901   2.991   1.611  1.8316  0.4136 -0.4908
 6455TIP3   OH240999   5.214   7.061   2.858  0.0307 -0.1593  0.0043
 6455TIP3    H141000   5.306   7.033   2.856 -0.4831 -1.9553  0.2306
 6455TIP3    H241001   5.201   7.092   2.948  0.2143 -0.6350  0.1977
 6456TIP3   OH241002   4.459   0.596   1.498  0.2531 -0.6797  0.6291
 6456TIP3    H141003   4.444   0.675   1.551 -0.2016  0.3628 -0.9806
 6456TIP3    H241004   4.377   0.584   1.450  0.6664 -1.5778  0.1352
 6457TIP3   OH241005   0.416   1.034   7.905  0.3108  0.0082  0.0570
 6457TIP3    H141006   0.449   1.118   7.937  0.6477 -0.2585  0.4281
 6457TIP3    H241007   0.457   1.023   7.819 -0.3149  0.5633 -0.3193
 6458TIP3   OH241008   4.634   3.239   7.365  0.0118  0.5355  0.2329
 6458TIP3    H141009   4.715   3.193   7.388 -0.0438  0.9429  1.2794
 6458TIP3    H241010   4.615   3.294   7.441 -0.9825  0.8231 -0.2088
 6459TIP3   OH241011   2.584   2.211   1.845  0.5128  0.0187  0.2638
 6459TIP3    H141012   2.502   2.255   1.821  0.4215 -1.0547 -1.6190
 6459TIP3    H241013   2.621   2.183   1.761  1.1745 -2.3983  1.2803
 6460TIP3   OH241014   4.939   2.512   1.078 -0.4801 -0.0575  0.0685
 6460TIP3    H141015   5.006   2.479   1.138 -0.1066  1.6780  0.6746
 6460TIP3    H241016   4.988   2.534   0.998 -0.4393  0.5030  0.2426
 6461TIP3   OH241017   5.814   5.159   1.142 -0.3447  0.4965  0.3749
 6461TIP3    H141018   5.865   5.083   1.114 -2.2819 -1.2975  1.3446
 6461TIP3    H241019   5.851   5.184   1.226  0.9654  1.3282 -0.4281
 6462TIP3   OH241020   2.249   3.502   2.387 -0.1832  0.2270 -0.2351
 6462TIP3    H141021   2.249   3.583   2.438 -0.4490  0.3400 -0.4088
 6462TIP3    H241022   2.255   3.432   2.452  0.0294  0.3877 -0.0839
 6463TIP3   OH241023   1.322   4.557   7.585  0.1381  0.2397 -0.8689
 6463TIP3    H141024   1.277   4.548   7.670 -0.5852  1.9555 -1.0191
 6463TIP3    H241025   1.251   4.562   7.521  0.5993  1.0049 -1.3338
 6464TIP3   OH241026   6.682   3.093   1.894  1.1236  0.3559  0.2973
 6464TIP3    H141027   6.648   3.095   1.804  0.6580 -0.8100  0.4251
 6464TIP3    H241028   6.730   3.010   1.899 -0.2512 -0.4089  1.5981
 6465TIP3   OH241029   2.163   6.819   8.062  0.4114 -0.4389  0.6410
 6465TIP3    H141030   2.124   6.749   8.009 -0.4046  0.4974 -0.0202
 6465TIP3    H241031   2.101   6.891   8.056  2.3073  1.2044 -0.6287
 6466TIP3   OH241032   6.182   5.279   0.281 -0.4798 -0.1685 -0.3314
 6466TIP3    H141033   6.180   5.221   0.358  0.8421 -2.1357 -1.6673
 6466TIP3    H241034   6.124   5.352   0.304  0.5654 -0.1911  2.8772
 6467TIP3   OH241035   6.493   2.030   7.947  0.3903  0.2100 -0.3578
 6467TIP3    H141036   6.570   1.974   7.959  0.2922  0.3474  1.0876
 6467TIP3    H241037   6.526   2.108   7.904  1.2655  0.6855  1.1227
 6468TIP3   OH241038   2.033   5.342   1.595 -0.1267  0.3345 -0.7961
 6468TIP3    H141039   1.946   5.320   1.629  0.2195 -1.7051 -1.1157
 6468TIP3    H241040   2.052   5.272   1.533  1.2397  1.4374 -1.6678
 6469TIP3   OH241041   4.149   4.376   8.007  0.6444 -0.6193 -0.1817
 6469TIP3    H141042   4.241   4.397   8.019  0.4896 -0.1466  0.2370
 6469TIP3    H241043   4.122   4.426   7.930 -0.1811  2.3824  1.8364
 6470TIP3   OH241044   4.499   4.554   0.414  0.1736 -0.4008 -0.0854
 6470TIP3    H141045   4.405   4.542   0.425  0.0794 -1.0457 -1.3345
 6470TIP3    H241046   4.526   4.609   0.487 -1.2091 -0.0483  0.1742
 6471TIP3   OH241047   5.396   4.243   1.694 -0.2149  0.6022  0.0418
 6471TIP3    H141048   5.318   4.254   1.748 -0.2400  1.2694 -0.1294
 6471TIP3    H241049   5.382   4.159   1.650 -0.6953  0.5740  0.2439
 6472TIP3   OH241050   2.275   0.698   0.138 -0.2734 -0.2154  0.3130
 6472TIP3    H141051   2.241   0.679   0.225 -0.7581  0.0489  0.1838
 6472TIP3    H241052   2.291   0.792   0.138  0.0030 -0.2605  0.2108
 6473TIP3   OH241053   0.563   4.613   7.636 -0.4181  0.2902  0.0224
 6473TIP3    H141054   0.574   4.681   7.570 -0.8217  0.7650  0.4373
 6473TIP3    H241055   0.616   4.643   7.710 -0.3380 -0.0122  0.0905
 6474TIP3   OH241056   4.234   3.387   7.531 -0.4794  0.3533  0.0307
 6474TIP3    H141057   4.178   3.312   7.551  0.5291 -0.4795 -0.1731
 6474TIP3    H241058   4.289   3.398   7.608 -0.7683  1.0438  0.1510
 6475TIP3   OH241059   2.558   3.316   7.971 -0.0014 -0.6640  0.3610
 6475TIP3    H141060   2.576   3.338   8.063 -1.2525  0.5892  0.3333
 6475TIP3    H241061   2.608   3.236   7.956 -1.6058 -2.2681  2.8266
 6476TIP3   OH241062   5.091   4.027   7.309  0.4938 -0.1030  0.1045
 6476TIP3    H141063   5.168   3.978   7.337 -0.8763 -1.0794  2.3317
 6476TIP3    H241064   5.020   3.964   7.310 -0.6384  1.1068 -0.5363
 6477TIP3   OH241065   5.789   3.197   8.103 -0.3962 -0.4985 -0.3301
 6477TIP3    H141066   5.865   3.193   8.161 -0.3502  0.4302 -0.2969
 6477TIP3    H241067   5.812   3.142   8.028  0.1645 -0.5053 -0.1553
 6478TIP3   OH241068   6.859   3.975   2.496 -0.0437  0.4029 -0.4898
 6478TIP3    H141069   6.870   4.062   2.458 -0.1431  0.9436  0.6763
 6478TIP3    H241070   6.819   3.923   2.426  1.7717  0.7503 -1.8484
 6479TIP3   OH241071   3.598   4.471   0.854  0.4097 -0.0317  0.2444
 6479TIP3    H141072   3.644   4.552   0.832  0.3484 -0.1615 -0.3837
 6479TIP3    H241073   3.512   4.500   0.884  0.4175  0.1419  0.0994
 6480TIP3   OH241074   0.096   1.310   0.653 -0.4248 -0.1423  0.2076
 6480TIP3    H141075   0.039   1.236   0.676 -1.3506 -0.1869 -2.0378
 6480TIP3    H241076   0.043   1.388   0.671 -0.9958 -0.1663 -1.2976
 6481TIP3   OH241077   5.535   1.323   2.116  0.6853  0.2829 -0.1032
 6481TIP3    H141078   5.602   1.256   2.133  1.7982  0.9623 -1.5574
 6481TIP3    H241079   5.502   1.302   2.029 -0.1894  0.6289  0.1395
 6482TIP3   OH241080   2.208   2.508   3.008  0.2368 -0.0236 -0.0618
 6482TIP3    H141081   2.222   2.428   3.059  1.4185  2.0852  3.3215
 6482TIP3    H241082   2.292   2.524   2.966 -0.7642 -1.8096 -2.9834
 6483TIP3   OH241083   5.012   4.884   7.966  0.4179  0.7115  0.6298
 6483TIP3    H141084   5.084   4.822   7.950  0.1070 -0.2774  2.6548
 6483TIP3    H241085   5.056   4.965   7.993  0.7985  0.6710  0.1377
 6484TIP3   OH241086   7.034   5.893   8.171 -0.4170 -0.2024  0.0973
 6484TIP3    H141087   6.952   5.887   8.220 -0.4497  2.0161  0.3992
 6484TIP3    H241088   7.049   5.803   8.140 -2.9234 -0.7046  0.0492
 6485TIP3   OH241089   2.466   6.107   1.068  0.3412  0.2184  0.1371
 6485TIP3    H141090   2.532   6.060   1.118 -0.0803  0.9654  1.4525
 6485TIP3    H241091   2.391   6.113   1.127 -1.6181 -2.1253 -1.8994
 6486TIP3   OH241092   4.092   2.112   0.229 -0.0253  0.9223 -0.2611
 6486TIP3    H141093   4.145   2.150   0.299  1.0426  0.5180 -0.8360
 6486TIP3    H241094   4.022   2.176   0.215 -0.0033  1.2122  0.8664
 6487TIP3   OH241095   1.316   3.190   8.026 -0.0701  0.2731 -0.1345
 6487TIP3    H141096   1.312   3.228   8.114 -0.3832  0.3524 -0.1809
 6487TIP3    H241097   1.258   3.113   8.031  0.3630 -0.0548 -0.1108
 6488TIP3   OH241098   5.028   2.706   0.328 -0.3449 -0.4001  0.1773
 6488TIP3    H141099   4.971   2.660   0.390  0.0839 -0.7109  0.3481
 6488TIP3    H241100   5.060   2.637   0.269  1.0344 -0.5082  0.9966
 6489TIP3   OH241101   1.792   2.102   1.042 -0.3680 -0.3845  0.5183
 6489TIP3    H141102   1.703   2.066   1.043 -0.9390  0.9168 -0.2457
 6489TIP3    H241103   1.811   2.122   1.133 -0.6598 -1.1605  0.7506
 6490TIP3   OH241104   1.395   0.135   2.183 -0.2395 -0.1854 -0.2126
 6490TIP3    H141105   1.485   0.157   2.206 -0.1853 -0.3055 -0.3084
 6490TIP3    H241106   1.384   0.045   2.213 -0.2922 -0.2095 -0.3057
 6491TIP3   OH241107   5.070   3.024   2.328 -0.3499  0.0210  0.5478
 6491TIP3    H141108   5.135   2.999   2.394 -1.2043  1.1592  1.8694
 6491TIP3    H241109   4.999   2.962   2.341  0.7567 -1.8353 -1.5256
 6492TIP3   OH241110   4.126   4.119   2.110  0.0862  0.4204 -0.7413
 6492TIP3    H141111   4.054   4.171   2.074 -0.9249 -0.6134 -0.3028
 6492TIP3    H241112   4.154   4.167   2.188 -1.0763  0.1609 -0.1374
 6493TIP3   OH241113   6.084   4.455   0.067  0.3367  0.2832  0.2375
 6493TIP3    H141114   6.094   4.406   0.149  3.2649 -2.2993 -1.4331
 6493TIP3    H241115   6.015   4.409   0.020 -2.1991  2.4889  1.5721
 6494TIP3   OH241116   4.301   5.579   1.568  0.5957 -0.7377 -0.7618
 6494TIP3    H141117   4.384   5.615   1.535  0.1954 -1.5195 -2.7804
 6494TIP3    H241118   4.252   5.655   1.599  2.3427 -0.3367  1.2401
 6495TIP3   OH241119   2.524   5.893   3.139 -0.4664  0.3605 -0.2382
 6495TIP3    H141120   2.551   5.953   3.069  0.2900 -0.1574 -0.4062
 6495TIP3    H241121   2.548   5.940   3.219  0.7528  0.0224 -0.3804
 6496TIP3   OH241122   4.637   4.063   2.275  0.1869 -0.0668  0.6523
 6496TIP3    H141123   4.670   4.043   2.188  0.4599  1.5388  0.3646
 6496TIP3    H241124   4.543   4.078   2.262 -0.3007 -2.3579  1.0952
 6497TIP3   OH241125   3.687   6.802   2.333  0.0505 -0.2802  0.3305
 6497TIP3    H141126   3.598   6.822   2.363 -0.0766 -0.8843  0.3761
 6497TIP3    H241127   3.709   6.874   2.274 -0.2508  0.1636  0.7531
 6498TIP3   OH241128   4.287   0.003   8.256 -0.5318 -0.6942 -0.2266
 6498TIP3    H141129   4.256   0.090   8.233 -0.0417 -0.7111 -0.9722
 6498TIP3    H241130   4.341   0.016   8.334  0.2123 -0.2094 -0.8162
 6499TIP3   OH241131   0.933   0.732   7.277 -0.0760 -0.8645  0.3489
 6499TIP3    H141132   0.996   0.743   7.206 -0.5879 -3.3581 -0.5851
 6499TIP3    H241133   0.983   0.692   7.348 -0.0160 -0.2667  0.6487
 6500TIP3   OH241134   4.795   2.622   2.305  0.4696  0.3288 -0.0173
 6500TIP3    H141135   4.811   2.705   2.348  1.3999  0.3155 -0.3220
 6500TIP3    H241136   4.851   2.560   2.350 -2.1950 -0.7843  2.0670
 6501TIP3   OH241137   6.007   1.991   1.458 -0.5817 -0.0516  0.4216
 6501TIP3    H141138   5.944   1.925   1.485 -0.1194 -1.4589 -1.6507
 6501TIP3    H241139   5.966   2.074   1.480 -2.8206 -0.9278 -0.1540
 6502TIP3   OH241140   2.082   4.302   1.104  0.3837 -0.3344 -0.4783
 6502TIP3    H141141   1.996   4.274   1.072  1.2669 -1.2909 -2.1709
 6502TIP3    H241142   2.131   4.221   1.115  0.5607  0.0675  2.2057
 6503TIP3   OH241143   4.925   3.936   0.762 -0.6802  0.4254 -0.1840
 6503TIP3    H141144   4.973   3.932   0.680  2.5331 -1.3273  1.5423
 6503TIP3    H241145   4.913   4.029   0.779  1.1940  0.9141 -1.2906
 6504TIP3   OH241146   3.249   6.395   0.688  0.6186  0.2821 -0.7109
 6504TIP3    H141147   3.285   6.385   0.599 -0.1232  0.4322 -1.0350
 6504TIP3    H241148   3.236   6.489   0.698  0.7958  0.2747 -0.3996
 6505TIP3   OH241149   1.546   5.061   0.778  0.5071 -0.1751 -0.3722
 6505TIP3    H141150   1.569   4.978   0.735  0.7645 -0.3288  0.0488
 6505TIP3    H241151   1.622   5.081   0.833  0.6564  0.6011 -0.8477
 6506TIP3   OH241152   0.186   1.247   0.123  0.1718 -0.3677 -0.1609
 6506TIP3    H141153   0.179   1.256   0.219  0.7409  0.5189 -0.1961
 6506TIP3    H241154   0.208   1.155   0.110  1.1893 -0.2567  0.6361
 6507TIP3   OH241155   2.293   6.252   2.071 -0.6355  0.0831  0.0945
 6507TIP3    H141156   2.354   6.325   2.084 -2.1807  1.5143 -0.3768
 6507TIP3    H241157   2.345   6.186   2.025  0.8311  0.8428  0.6003
 6508TIP3   OH241158   3.453   0.428   0.500 -0.0519  0.0845  0.0072
 6508TIP3    H141159   3.375   0.455   0.549  0.0865 -1.8341  1.4188
 6508TIP3    H241160   3.481   0.346   0.543  2.2442  0.2682 -0.9939
 6509TIP3   OH241161   4.493   4.599   3.633  0.4175  0.0129 -0.2031
 6509TIP3    H141162   4.442   4.651   3.571  0.4912 -0.3773 -0.5954
 6509TIP3    H241163   4.430   4.539   3.673  0.5721 -0.5190 -0.7405
 6510TIP3   OH241164   5.309   4.725   2.384  0.5103 -0.5068  0.1255
 6510TIP3    H141165   5.387   4.725   2.328  0.8592  2.3589  0.4821
 6510TIP3    H241166   5.340   4.754   2.469 -1.0078  1.4256  0.0896
 6511TIP3   OH241167   6.680   1.255   0.205  0.2394 -0.1608 -0.5518
 6511TIP3    H141168   6.673   1.262   0.110  1.4719 -0.3403 -0.6690
 6511TIP3    H241169   6.643   1.336   0.238  0.5128  0.2469 -1.2299
 6512TIP3   OH241170   3.231   4.310   0.434 -0.1535 -0.4203 -0.0616
 6512TIP3    H141171   3.232   4.299   0.339  0.1020 -0.6115 -0.0369
 6512TIP3    H241172   3.162   4.375   0.450 -2.1553 -2.4048 -0.1474
 6513TIP3   OH241173   3.279   0.128   0.941  0.3501  0.2834 -0.1895
 6513TIP3    H141174   3.314   0.162   1.023 -0.8867  0.9456  0.0852
 6513TIP3    H241175   3.228   0.201   0.905  0.4617 -0.1677 -1.2943
 6514TIP3   OH241176   4.272   5.510   0.901 -0.4526 -0.5895  0.2460
 6514TIP3    H141177   4.298   5.460   0.823  0.2234  0.5099 -0.2628
 6514TIP3    H241178   4.260   5.599   0.869  2.4958  0.5144  1.8103
 6515TIP3   OH241179   1.310   0.126   1.934  0.1309  0.2461  0.0626
 6515TIP3    H141180   1.344   0.213   1.911 -0.9139  0.7064  0.2064
 6515TIP3    H241181   1.337   0.114   2.025  0.0934  0.5168  0.1115
 6516TIP3   OH241182   4.550   2.403   0.080  0.6851  0.0508  0.3341
 6516TIP3    H141183   4.602   2.439   0.151 -2.3715  1.0202  2.2516
 6516TIP3    H241184   4.548   2.309   0.097  1.1154  0.0999  0.6757
 6517TIP3   OH241185   3.536   2.932   1.939 -0.7898  0.1546 -0.7395
 6517TIP3    H141186   3.550   2.852   1.889 -2.3161 -1.2150  0.9111
 6517TIP3    H241187   3.623   2.973   1.943  0.7888 -2.9520  0.8548
 6518TIP3   OH241188   2.735   3.386   1.743  0.0432  0.4471  0.0596
 6518TIP3    H141189   2.710   3.391   1.650  1.2712  1.0516 -0.2537
 6518TIP3    H241190   2.829   3.366   1.741 -0.0747 -0.2691  1.1893
 6519TIP3   OH241191   0.202   5.726   7.215 -0.0989  0.2858 -0.1219
 6519TIP3    H141192   0.269   5.769   7.162  0.9597 -0.8606  0.2213
 6519TIP3    H241193   0.238   5.639   7.232 -2.3502 -0.9529 -1.2216
 6520TIP3   OH241194   1.312   3.916   7.921 -0.3165  0.3046 -0.5317
 6520TIP3    H141195   1.360   3.983   7.872 -1.3714  0.8643 -0.8142
 6520TIP3    H241196   1.268   3.863   7.855 -2.3605  1.5226 -0.2316
 6521TIP3   OH241197   3.507   0.404   0.906 -0.6677 -0.5668 -0.8348
 6521TIP3    H141198   3.544   0.482   0.865 -0.1216 -0.3393  0.0637
 6521TIP3    H241199   3.468   0.355   0.833  0.2539 -0.1688 -1.6210
 6522TIP3   OH241200   6.373   3.669   3.508 -0.0735  0.5388  0.0192
 6522TIP3    H141201   6.344   3.746   3.459 -2.4755 -0.6206 -0.5021
 6522TIP3    H241202   6.411   3.612   3.442 -2.4313 -0.6063 -0.4415
 6523TIP3   OH241203   2.236   2.263   7.078 -0.0996  0.4144 -0.0760
 6523TIP3    H141204   2.238   2.352   7.043  1.1503  0.7217  0.7141
 6523TIP3    H241205   2.323   2.228   7.059 -0.7189 -0.8031 -0.7525
 6524TIP3   OH241206   4.686   1.674   1.183 -0.1462 -0.5944 -0.6855
 6524TIP3    H141207   4.604   1.697   1.139 -0.5710  2.4122  1.3993
 6524TIP3    H241208   4.658   1.635   1.266  0.5433 -0.2925 -0.3073
 6525TIP3   OH241209   6.477   3.336   3.188 -0.1324 -0.6043 -0.0478
 6525TIP3    H141210   6.532   3.288   3.126 -0.4916 -2.0870  0.7421
 6525TIP3    H241211   6.400   3.281   3.200 -0.1688 -0.2564  1.5417
 6526TIP3   OH241212   2.094   0.473   2.746 -0.0941 -0.3196  0.3365
 6526TIP3    H141213   2.086   0.484   2.840 -1.0645 -1.8852  0.4772
 6526TIP3    H241214   2.010   0.437   2.718  0.4121 -0.5456 -1.0202
 6527TIP3   OH241215   0.336   2.819   0.492 -0.3679 -0.5920 -0.0913
 6527TIP3    H141216   0.332   2.762   0.415  1.0367  0.2294 -0.8032
 6527TIP3    H241217   0.425   2.811   0.524 -0.4360  0.4411  0.3907
 6528TIP3   OH241218   1.365   1.069   0.819 -0.1929  0.1389 -0.5068
 6528TIP3    H141219   1.439   1.038   0.767  2.0756  3.5850  0.3687
 6528TIP3    H241220   1.343   1.155   0.782 -3.4991 -0.4902 -0.3561
 6529TIP3   OH241221   6.781   3.497   2.994  0.1428  0.1532  0.0886
 6529TIP3    H141222   6.860   3.463   3.036  0.1336  0.7968  0.6346
 6529TIP3    H241223   6.753   3.426   2.937  0.4219 -0.5556  0.8140
 6530TIP3   OH241224   6.152   1.617   8.223  0.1536  0.0456  0.3285
 6530TIP3    H141225   6.202   1.540   8.248 -0.4672  0.0233  1.5525
 6530TIP3    H241226   6.061   1.593   8.240 -0.1386  0.6934 -0.2556
 6531TIP3   OH241227   1.490   0.837   2.496  0.0949 -0.3027 -0.3877
 6531TIP3    H141228   1.533   0.914   2.533 -0.9046  0.2020 -0.2273
 6531TIP3    H241229   1.498   0.849   2.401 -1.2240  0.7447 -0.4145
 6532TIP3   OH241230   4.891   5.662   7.925 -0.3386 -0.2724 -0.0130
 6532TIP3    H141231   4.822   5.627   7.981  0.2534 -1.8742 -0.2084
 6532TIP3    H241232   4.961   5.596   7.930  1.1176  1.1922  0.0420
 6533TIP3   OH241233   0.226   3.097   0.488  0.6537  0.4375  0.1885
 6533TIP3    H141234   0.229   3.002   0.476 -0.4360  0.3674  0.4104
 6533TIP3    H241235   0.167   3.111   0.561  0.4792  1.3125 -0.1022
 6534TIP3   OH241236   6.042   4.451   1.998  0.3725  0.3782  0.4309
 6534TIP3    H141237   6.078   4.418   1.916  0.5986  1.4255  0.0867
 6534TIP3    H241238   6.073   4.542   2.003 -1.5357  1.0706  0.5110
 6535TIP3   OH241239   2.581   3.554   7.832  1.0005 -0.0567  0.3196
 6535TIP3    H141240   2.576   3.464   7.864 -2.0336 -0.3661 -0.7226
 6535TIP3    H241241   2.673   3.565   7.807  2.0528 -1.9410  2.8591
 6536TIP3   OH241242   0.020   1.926   1.072  0.6149  0.0719 -0.1339
 6536TIP3    H141243   0.045   1.835   1.056 -1.4603 -0.6703  0.5267
 6536TIP3    H241244   0.085   1.958   1.134  0.9615 -1.1952  0.1792
 6537TIP3   OH241245   3.754   3.927   2.153  0.1226  0.3437 -0.3873
 6537TIP3    H141246   3.701   3.942   2.074 -2.1637 -0.1459  0.9896
 6537TIP3    H241247   3.707   3.860   2.202  2.1459 -0.2471  0.8475
 6538TIP3   OH241248   3.376   6.330   0.443  0.2414 -1.3760 -0.0131
 6538TIP3    H141249   3.464   6.295   0.456  0.2809 -0.9138  1.0562
 6538TIP3    H241250   3.390   6.415   0.401  0.1810 -2.2122 -1.8400
 6539TIP3   OH241251   3.407   6.003   2.449  0.2031  0.0858  0.4045
 6539TIP3    H141252   3.419   5.909   2.442 -0.2051  0.1400 -1.6981
 6539TIP3    H241253   3.465   6.030   2.520  1.7026 -1.5097 -0.1434
 6540TIP3   OH241254   2.587   4.266   3.227 -0.4776 -0.5156  0.4494
 6540TIP3    H141255   2.609   4.173   3.228  0.3518 -0.4189 -1.8525
 6540TIP3    H241256   2.667   4.310   3.197 -0.3962  1.1549  2.8033
 6541TIP3   OH241257   4.651   2.475   0.918 -0.2694 -0.3706  0.9915
 6541TIP3    H141258   4.710   2.434   0.856 -1.5823 -0.8772  0.0410
 6541TIP3    H241259   4.568   2.483   0.871 -0.5138  1.9350  1.6617
 6542TIP3   OH241260   5.157   4.817   0.506  0.1222 -0.2611  0.4903
 6542TIP3    H141261   5.105   4.896   0.487 -1.7646 -1.6951 -0.7824
 6542TIP3    H241262   5.227   4.819   0.441  1.3471  1.3396  1.7658
 6543TIP3   OH241263   0.197   2.674   0.198 -0.4494 -0.4840  0.8006
 6543TIP3    H141264   0.195   2.769   0.209 -0.7622 -0.1428 -1.6875
 6543TIP3    H241265   0.105   2.649   0.187 -0.1740 -0.5395 -1.9518
 6544TIP3   OH241266   6.513   6.584   8.081  0.1527  0.1264  0.2806
 6544TIP3    H141267   6.554   6.547   8.003 -0.2385  0.7931 -0.2480
 6544TIP3    H241268   6.464   6.511   8.119 -1.7542  0.3901 -1.5136
 6545TIP3   OH241269   1.785   2.191   2.674 -0.1251  0.2351  0.0055
 6545TIP3    H141270   1.866   2.151   2.708 -0.5568 -0.0186  0.7575
 6545TIP3    H241271   1.793   2.283   2.697  0.5083  0.4521 -1.0243
 6546TIP3   OH241272   4.816   1.646   1.792 -0.1766  0.4116  0.5981
 6546TIP3    H141273   4.803   1.560   1.832 -0.3866  0.0199 -0.2732
 6546TIP3    H241274   4.911   1.651   1.778 -0.2932 -0.3272 -0.6765
 6547TIP3   OH241275   4.616   3.176   8.022  0.5425 -0.1951  0.2655
 6547TIP3    H141276   4.536   3.184   7.970  1.2265  0.7831 -0.6767
 6547TIP3    H241277   4.671   3.115   7.973  1.1412  0.6310 -0.1167
 6548TIP3   OH241278   3.589   3.367   7.305  0.1126 -0.9147  0.0954
 6548TIP3    H141279   3.499   3.340   7.285 -1.0939  3.1936 -1.0027
 6548TIP3    H241280   3.598   3.350   7.399 -2.2230 -0.6068  0.4538
 6549TIP3   OH241281   3.237   0.589   1.321 -0.3179 -0.2705  0.1070
 6549TIP3    H141282   3.255   0.675   1.359  0.4543 -0.2456 -0.2882
 6549TIP3    H241283   3.155   0.561   1.362 -0.0353  0.1927  1.0253
 6550TIP3   OH241284   5.865   6.550   0.501  0.4288 -0.0328 -0.6763
 6550TIP3    H141285   5.898   6.640   0.506 -1.3978  0.6750 -0.5753
 6550TIP3    H241286   5.822   6.545   0.415 -0.5936 -0.3769 -0.1622
 6551TIP3   OH241287   4.862   4.110   0.432  0.4224 -0.3806  0.0637
 6551TIP3    H141288   4.899   4.153   0.355 -1.8705 -1.4141 -1.7671
 6551TIP3    H241289   4.898   4.157   0.507  1.7551  1.5148 -1.6794
 6552TIP3   OH241290   6.230   6.100   2.933 -0.5309 -0.4282  0.2319
 6552TIP3    H141291   6.219   6.081   2.840 -1.8302  0.6716  0.1407
 6552TIP3    H241292   6.142   6.098   2.969 -0.2701  1.1219  1.0336
 6553TIP3   OH241293   5.368   4.362   2.967  0.0606 -0.5326 -0.0518
 6553TIP3    H141294   5.315   4.441   2.981  0.9599 -0.1452  1.4348
 6553TIP3    H241295   5.326   4.296   3.021 -0.3283 -0.9148 -0.8114
 6554TIP3   OH241296   4.648   0.554   2.097 -0.2091  0.0520  0.1454
 6554TIP3    H141297   4.600   0.474   2.122  1.9507 -0.8804  1.6630
 6554TIP3    H241298   4.673   0.593   2.181  1.2821  0.7140 -0.5812
 6555TIP3   OH241299   4.910   3.393   2.252  0.4343  0.5020  0.1784
 6555TIP3    H141300   4.974   3.464   2.252 -0.4179  1.3499 -1.5130
 6555TIP3    H241301   4.915   3.357   2.163 -0.8229  0.0224  0.2842
 6556TIP3   OH241302   5.545   2.713   0.623 -0.0295  1.0960 -0.3020
 6556TIP3    H141303   5.510   2.757   0.546 -0.5066 -0.4256 -0.9973
 6556TIP3    H241304   5.557   2.783   0.687 -1.9251  2.0435 -0.9094
 6557TIP3   OH241305   0.245   0.582   1.436 -0.5372  0.2583 -0.1166
 6557TIP3    H141306   0.301   0.652   1.469  0.0959 -0.5310  0.5128
 6557TIP3    H241307   0.282   0.560   1.350 -0.8932  0.8501 -0.4315
 6558TIP3   OH241308   5.586   4.100   1.926  0.1715 -0.3846 -0.1155
 6558TIP3    H141309   5.681   4.112   1.929  0.0411  1.7460 -1.9835
 6558TIP3    H241310   5.567   4.080   1.834 -1.1803 -0.9737  0.2696
 6559TIP3   OH241311   5.817   0.145   2.225  0.2459  0.0809 -0.1734
 6559TIP3    H141312   5.844   0.174   2.312  0.0915  1.5179 -0.5700
 6559TIP3    H241313   5.898   0.140   2.174  0.1199  1.5918 -0.5770
 6560TIP3   OH241314   0.880   2.847   0.178  0.1291 -0.4536 -0.0083
 6560TIP3    H141315   0.887   2.754   0.201  1.3088 -0.4622 -0.3295
 6560TIP3    H241316   0.960   2.865   0.129 -0.4340  0.5619 -0.5802
 6561TIP3   OH241317   2.536   2.933   7.510 -0.1438 -0.4931  0.0483
 6561TIP3    H141318   2.505   2.844   7.495 -0.8055 -0.2107 -0.2741
 6561TIP3    H241319   2.457   2.985   7.520  0.2175  0.2737 -0.9669
 6562TIP3   OH241320   0.495   3.616   1.643 -0.2493 -0.4062 -0.1874
 6562TIP3    H141321   0.562   3.549   1.657 -0.5873 -0.5182  1.0111
 6562TIP3    H241322   0.535   3.676   1.580  2.1824  1.0594  2.4496
 6563TIP3   OH241323   2.427   2.959   6.812  0.0993 -0.1083 -0.3992
 6563TIP3    H141324   2.401   2.973   6.721  0.9714  0.1514 -0.6176
 6563TIP3    H241325   2.464   3.043   6.840  0.5127 -0.4063 -0.0354
 6564TIP3   OH241326   2.124   1.154   7.856  0.2873 -0.3857 -0.1122
 6564TIP3    H141327   2.095   1.240   7.826  0.2073 -0.6349 -0.7782
 6564TIP3    H241328   2.134   1.163   7.950 -2.6196 -0.4475  0.3043
 6565TIP3   OH241329   0.560   0.348   2.179 -0.5619  0.0774  1.2185
 6565TIP3    H141330   0.655   0.356   2.189 -0.1546  1.7115 -2.3384
 6565TIP3    H241331   0.526   0.435   2.201 -0.7408  0.5910 -0.8878
 6566TIP3   OH241332   0.652   3.459   2.170  0.0237  0.3283 -0.0469
 6566TIP3    H141333   0.695   3.494   2.248 -0.0707 -0.5683  0.4249
 6566TIP3    H241334   0.724   3.426   2.117  0.2906  2.7184 -1.3223
 6567TIP3   OH241335   1.866   5.935   3.631 -0.4324  0.4295  0.5803
 6567TIP3    H141336   1.812   6.003   3.670 -1.3078 -0.2431  0.5673
 6567TIP3    H241337   1.808   5.859   3.622 -0.0992  0.3312 -1.4006
 6568TIP3   OH241338   4.723   3.084   2.849 -0.0106  0.1532  0.5174
 6568TIP3    H141339   4.710   3.172   2.884  2.7525  0.4330  1.0541
 6568TIP3    H241340   4.754   3.033   2.923  0.4803 -0.7120 -0.2557
 6569TIP3   OH241341   5.280   5.898   0.934 -0.0573  0.4387  0.0975
 6569TIP3    H141342   5.360   5.951   0.937 -0.2111  0.6599  2.0777
 6569TIP3    H241343   5.223   5.944   0.872  0.5845  1.4382  0.2193
 6570TIP3   OH241344   4.717   1.504   7.744 -0.7835 -0.1749  0.2155
 6570TIP3    H141345   4.738   1.597   7.760 -0.4671 -0.1038 -0.5625
 6570TIP3    H241346   4.793   1.471   7.696 -0.1200 -1.2891  1.9725
 6571TIP3   OH241347   4.279   6.221   2.054 -0.3465  0.6858  0.3094
 6571TIP3    H141348   4.274   6.270   2.137  0.1593 -0.5281  1.0809
 6571TIP3    H241349   4.202   6.165   2.055  0.1076  0.0519  0.3766
 6572TIP3   OH241350   3.607   2.011   2.864 -0.2338 -0.4642  0.0099
 6572TIP3    H141351   3.623   1.942   2.928 -0.0761 -0.0407  0.4344
 6572TIP3    H241352   3.686   2.066   2.868 -0.3341 -0.2871 -0.3627
 6573TIP3   OH241353   2.844   0.084   2.289  0.0270  0.1537 -0.1941
 6573TIP3    H141354   2.767   0.125   2.328 -0.9343 -1.5110 -0.2276
 6573TIP3    H241355   2.817   0.062   2.200  1.0051  0.7473 -0.6479
 6574TIP3   OH241356   4.213   2.560   8.040  0.3492  0.8360  0.0675
 6574TIP3    H141357   4.129   2.538   8.081  0.8544 -2.0632 -0.2197
 6574TIP3    H241358   4.229   2.488   7.979  3.1785  1.1455  0.3320
 6575TIP3   OH241359   3.710   5.659   2.651  0.0437  0.0630  0.0217
 6575TIP3    H141360   3.726   5.637   2.559 -1.6624  0.7891 -0.4869
 6575TIP3    H241361   3.703   5.574   2.695 -1.3196 -0.3675 -0.9507
 6576TIP3   OH241362   0.573   0.497   7.443 -0.0685 -0.3255  0.0192
 6576TIP3    H141363   0.610   0.511   7.355 -1.3062 -0.4666 -0.5472
 6576TIP3    H241364   0.479   0.483   7.427 -0.5562  1.0730  1.5079
 6577TIP3   OH241365   1.602   2.082   7.455  0.2337 -0.1025  0.4026
 6577TIP3    H141366   1.675   2.123   7.409  1.3424 -2.0875  0.2746
 6577TIP3    H241367   1.637   2.060   7.542 -0.6925  0.2764  0.8881
 6578TIP3   OH241368   4.306   4.138   1.037  0.2217  0.3404  0.0889
 6578TIP3    H141369   4.285   4.198   1.108  1.8509  1.3402 -0.2155
 6578TIP3    H241370   4.346   4.062   1.081 -0.5511  0.0909  0.3698
 6579TIP3   OH241371   3.546   0.346   7.900  0.1309  0.4040  0.3504
 6579TIP3    H141372   3.476   0.281   7.890 -0.4884  1.3977 -3.7745
 6579TIP3    H241373   3.502   0.431   7.888  1.7556  1.1412 -0.8421
 6580TIP3   OH241374   3.748   2.277   0.562  0.4114  0.1706 -0.2957
 6580TIP3    H141375   3.750   2.263   0.467  0.9427  0.4571 -0.3329
 6580TIP3    H241376   3.839   2.265   0.590  0.3152  0.4015  0.1294
 6581TIP3   OH241377   2.599   1.919   8.244  0.2297 -0.3072  0.3496
 6581TIP3    H141378   2.512   1.954   8.225  0.3172 -0.4308 -0.3052
 6581TIP3    H241379   2.648   1.993   8.280  0.4916  0.3499 -1.2509
 6582TIP3   OH241380   4.728   5.551   3.546  0.1036  0.6075  0.3973
 6582TIP3    H141381   4.692   5.638   3.531  0.4664  0.7166  0.1442
 6582TIP3    H241382   4.741   5.515   3.458  0.0277  0.3291  0.4981
 6583TIP3   OH241383   4.826   3.380   7.895 -0.0439  0.2322 -0.1830
 6583TIP3    H141384   4.831   3.474   7.877 -1.7298  0.8224  1.9980
 6583TIP3    H241385   4.892   3.341   7.837  1.1513  2.8075 -0.7090
 6584TIP3   OH241386   2.236   5.559   1.938  0.6306  0.5043  0.3725
 6584TIP3    H141387   2.221   5.643   1.981  1.1649  1.1884 -0.7329
 6584TIP3    H241388   2.307   5.519   1.986  2.9774  2.3757 -1.2867
 6585TIP3   OH241389   1.249   2.534   1.640 -0.1157  0.7198 -0.0537
 6585TIP3    H141390   1.322   2.516   1.581  1.1745  0.9160  1.4381
 6585TIP3    H241391   1.289   2.549   1.725 -1.9195  0.5541  0.8817
 6586TIP3   OH241392   2.794   6.801   3.422  0.4413 -0.7759 -0.2209
 6586TIP3    H141393   2.728   6.843   3.478 -0.0085 -3.7263  1.7258
 6586TIP3    H241394   2.870   6.858   3.427 -0.1296 -0.1100  2.2044
 6587TIP3   OH241395   4.083   5.340   0.997 -0.0594  0.2373 -0.0902
 6587TIP3    H141396   4.114   5.288   0.923  1.2140  0.5183  0.2182
 6587TIP3    H241397   4.146   5.412   1.004 -1.9372  2.0205 -0.6843
 6588TIP3   OH241398   1.835   6.220   2.068  0.1677  1.2640  0.0575
 6588TIP3    H141399   1.908   6.245   2.011  1.1636  1.4424  1.3743
 6588TIP3    H241400   1.766   6.193   2.007  1.9517 -0.7297 -1.2280
 6589TIP3   OH241401   5.350   3.288   2.350  0.0201  0.5186  0.1101
 6589TIP3    H141402   5.353   3.382   2.335 -2.2787  0.9430  1.8233
 6589TIP3    H241403   5.293   3.254   2.281 -0.0624  0.5597  0.1575
 6590TIP3   OH241404   6.426   6.144   2.530  0.0576  0.0831 -0.5688
 6590TIP3    H141405   6.497   6.125   2.591 -2.5403 -0.5758  2.5313
 6590TIP3    H241406   6.350   6.102   2.569 -2.0585  0.6838 -3.7384
 6591TIP3   OH241407   0.895   6.757   1.942  0.3137  0.4067  0.0187
 6591TIP3    H141408   0.925   6.714   2.022 -1.6911 -0.1637  0.5123
 6591TIP3    H241409   0.928   6.846   1.948 -0.5384  0.6197  1.9071
 6592TIP3   OH241410   1.727   0.589   3.488 -0.1007 -0.0285  0.0706
 6592TIP3    H141411   1.637   0.604   3.460  0.3212 -0.3906 -1.5962
 6592TIP3    H241412   1.730   0.496   3.510  0.0587 -0.2117 -0.6993
 6593TIP3   OH241413   0.821   1.211   2.048  0.2858 -0.6537 -0.1230
 6593TIP3    H141414   0.907   1.252   2.034 -0.3523  0.0602 -2.4935
 6593TIP3    H241415   0.831   1.123   2.011  0.0451 -0.6339 -0.2312
 6594TIP3   OH241416   0.383   4.335   0.367 -0.0118  0.1466 -0.4434
 6594TIP3    H141417   0.314   4.353   0.432 -1.2900 -0.9123 -1.4644
 6594TIP3    H241418   0.337   4.297   0.293  1.4707  1.0099 -1.8654
 6595TIP3   OH241419   3.942   2.925   0.196 -0.0597  0.0046  0.0534
 6595TIP3    H141420   3.950   2.833   0.170  0.3192 -0.5854  2.1068
 6595TIP3    H241421   3.957   2.974   0.115 -0.6443 -1.7326 -1.1548
 6596TIP3   OH241422   3.124   1.892   0.826  0.6219 -0.1061  0.2784
 6596TIP3    H141423   3.056   1.829   0.801  1.6015 -0.6046 -1.2934
 6596TIP3    H241424   3.076   1.973   0.843 -0.5059 -0.8415  0.7355
 6597TIP3   OH241425   5.002   5.503   1.230 -0.3577 -0.2411 -0.2817
 6597TIP3    H141426   5.033   5.463   1.148  0.2319  0.9871 -0.6910
 6597TIP3    H241427   4.915   5.537   1.208  0.1172  0.7770 -0.6555
 6598TIP3   OH241428   5.450   1.972   0.072 -0.1790  0.1409  0.1491
 6598TIP3    H141429   5.423   1.883   0.095  1.0357  0.1788  1.8812
 6598TIP3    H241430   5.368   2.021   0.064 -0.8203 -0.9327 -0.0646
 6599TIP3   OH241431   0.715   4.714   2.188 -0.2969  0.4708  0.3209
 6599TIP3    H141432   0.644   4.715   2.252 -2.0188 -1.0644 -1.4412
 6599TIP3    H241433   0.736   4.621   2.176 -0.0351  0.7119 -1.3175
 6600TIP3   OH241434   3.623   4.861   0.042 -0.2111  0.3006 -0.4012
 6600TIP3    H141435   3.646   4.899  -0.043  2.1093 -1.1067 -0.4858
 6600TIP3    H241436   3.587   4.775   0.021  1.3326 -0.4771  0.0445
 6601TIP3   OH241437   1.943   6.987   8.004  0.2036 -0.1622 -0.0867
 6601TIP3    H141438   1.942   7.081   8.024  2.3774 -0.1694  0.2723
 6601TIP3    H241439   1.912   6.946   8.085  1.8630  0.1552  0.7483
 6602TIP3   OH241440   4.603   0.055   2.198  0.4638  0.0630 -0.1583
 6602TIP3    H141441   4.538   0.114   2.159  0.2283 -0.4729 -0.5955
 6602TIP3    H241442   4.687   0.095   2.177  0.3818 -0.5979 -1.9223
 6603TIP3   OH241443   3.883   2.340   0.838 -0.0697 -0.5515  0.2940
 6603TIP3    H141444   3.802   2.290   0.829 -1.0755  1.0678  0.0381
 6603TIP3    H241445   3.877   2.379   0.925 -0.6346  1.3336 -0.5483
 6604TIP3   OH241446   6.883   1.914   2.521  0.0351 -0.3993  0.1792
 6604TIP3    H141447   6.931   1.983   2.477 -1.2338  1.3330  1.3915
 6604TIP3    H241448   6.806   1.899   2.466 -0.9202  0.8949  1.1217
 6605TIP3   OH241449   3.759   0.168   2.947  0.3056 -0.1675  0.2500
 6605TIP3    H141450   3.848   0.151   2.916  1.2976  3.9730  0.2493
 6605TIP3    H241451   3.706   0.166   2.868  1.0775  0.7010 -0.3179
 6606TIP3   OH241452   1.865   1.418   3.014 -0.4169  0.4992  0.3782
 6606TIP3    H141453   1.953   1.381   3.020 -0.1535  0.6189 -2.0868
 6606TIP3    H241454   1.878   1.511   3.033  0.1962  0.7110 -0.9563
 6607TIP3   OH241455   6.277   1.258   0.560 -0.4730 -0.0286 -0.2386
 6607TIP3    H141456   6.340   1.186   0.568 -0.3805  0.0280 -0.4802
 6607TIP3    H241457   6.275   1.279   0.467  0.3199  1.0216 -0.0289
 6608TIP3   OH241458   5.006   3.767   2.964 -0.1573 -0.1068  0.6768
 6608TIP3    H141459   5.099   3.761   2.943 -0.4265 -1.4030 -0.2407
 6608TIP3    H241460   4.975   3.844   2.916  0.0305 -0.8573 -0.6934
 6609TIP3   OH241461   4.053   6.915   2.959  0.3767  0.2669  0.2259
 6609TIP3    H141462   3.996   6.844   2.989  0.1657  0.1174 -0.5036
 6609TIP3    H241463   4.115   6.928   3.030  0.7798 -1.0424  0.1341
 6610TIP3   OH241464   3.543   1.036   0.951 -0.4184  0.0187 -0.1131
 6610TIP3    H141465   3.567   1.126   0.928  0.5349  0.1200  1.1455
 6610TIP3    H241466   3.454   1.044   0.986 -1.9566 -0.1653 -3.6011
 6611TIP3   OH241467   2.321   1.338   8.226 -0.3406 -0.0837  0.7133
 6611TIP3    H141468   2.308   1.247   8.250  0.5324 -0.5524 -0.4934
 6611TIP3    H241469   2.269   1.350   8.146 -1.1977  0.7521  1.3654
 6612TIP3   OH241470   6.196   2.302   1.504 -0.2876 -0.5090  0.0533
 6612TIP3    H141471   6.214   2.211   1.481 -2.0175 -1.1709  1.1884
 6612TIP3    H241472   6.244   2.317   1.586 -1.0493 -0.8013  0.5536
 6613TIP3   OH241473   4.021   6.498   2.913  0.0261 -0.3074  0.7369
 6613TIP3    H141474   4.093   6.555   2.886 -0.6523  1.2367  1.9940
 6613TIP3    H241475   4.063   6.425   2.958  0.9535 -1.2437 -1.4931
 6614TIP3   OH241476   0.771   4.725   7.808 -0.2906  0.2376  0.4756
 6614TIP3    H141477   0.776   4.820   7.803  0.3384  0.2780  1.6145
 6614TIP3    H241478   0.688   4.708   7.854  0.3448  0.3083  1.6944
 6615TIP3   OH241479   4.382   5.832   7.946  0.7843 -0.4538  0.0578
 6615TIP3    H141480   4.352   5.858   7.859 -0.0679 -3.1470 -0.5498
 6615TIP3    H241481   4.305   5.793   7.987  1.6986 -1.1350  1.1992
 6616TIP3   OH241482   6.250   0.404   1.949 -0.4309 -0.4731 -0.0947
 6616TIP3    H141483   6.287   0.492   1.957 -0.4721 -0.4643 -0.0019
 6616TIP3    H241484   6.318   0.347   1.985 -0.7562 -0.4046  0.6670
 6617TIP3   OH241485   0.357   1.606   2.960  0.5333 -0.1865  0.0016
 6617TIP3    H141486   0.442   1.569   2.936  0.8320 -0.2649  1.1060
 6617TIP3    H241487   0.294   1.536   2.942  0.9202 -0.7427  0.7531
 6618TIP3   OH241488   6.833   6.179   2.489  0.4013  0.3825  0.0734
 6618TIP3    H141489   6.888   6.201   2.564  0.6778  0.5202 -0.1687
 6618TIP3    H241490   6.884   6.206   2.413  0.9420 -1.4373 -0.2576
 6619TIP3   OH241491   0.352   5.621   0.712 -0.2525 -0.6198  0.1144
 6619TIP3    H141492   0.442   5.618   0.680  0.0455  0.7166  0.7629
 6619TIP3    H241493   0.307   5.552   0.662  0.8131 -0.4407 -1.1702
 6620TIP3   OH241494   0.336   6.669   2.279 -0.2110 -0.6155 -0.7521
 6620TIP3    H141495   0.423   6.705   2.262 -0.7848  1.2128 -0.0386
 6620TIP3    H241496   0.298   6.657   2.192  0.4878 -0.7564 -1.0445
 6621TIP3   OH241497   2.409   5.594   3.663  0.2956 -0.1909  0.3358
 6621TIP3    H141498   2.392   5.501   3.648 -1.4184  0.0515  0.5003
 6621TIP3    H241499   2.451   5.625   3.583 -1.1590 -0.6575 -0.6484
 6622TIP3   OH241500   2.372   6.263   7.846 -0.1404  0.9086 -0.4401
 6622TIP3    H141501   2.352   6.323   7.774  0.8570  0.2960 -1.2497
 6622TIP3    H241502   2.454   6.220   7.821 -0.1712  0.1117  0.7014
 6623TIP3   OH241503   5.624   4.087   2.578  0.5936  0.2280 -0.0669
 6623TIP3    H141504   5.551   4.083   2.516  1.1473  1.1216 -0.7962
 6623TIP3    H241505   5.594   4.037   2.654 -0.4040 -0.2116 -0.7389
 6624TIP3   OH241506   4.481   1.154   1.180  0.0429  0.0376 -0.7552
 6624TIP3    H141507   4.402   1.100   1.185  0.1927 -0.1149  0.0245
 6624TIP3    H241508   4.538   1.106   1.119 -1.8024  1.9289 -4.3050
 6625TIP3   OH241509   0.313   1.942   7.865  0.4130 -0.8185 -0.8881
 6625TIP3    H141510   0.252   1.967   7.796 -0.6308  1.1399  0.6203
 6625TIP3    H241511   0.385   2.004   7.857 -0.9215  1.2098  1.2252
 6626TIP3   OH241512   5.434   0.762   2.375 -0.4085  0.4231 -0.0631
 6626TIP3    H141513   5.399   0.796   2.293 -2.0803 -0.3670  0.2716
 6626TIP3    H241514   5.528   0.754   2.360 -0.7881 -0.7082 -2.3007
 6627TIP3   OH241515   5.686   3.307   1.398  0.2832  0.1796 -0.7340
 6627TIP3    H141516   5.707   3.228   1.348  0.0823 -0.9333  0.8384
 6627TIP3    H241517   5.605   3.285   1.444  1.7286  0.1768  1.9792
 6628TIP3   OH241518   2.222   5.818   1.432  0.4876 -0.3585  0.4980
 6628TIP3    H141519   2.227   5.909   1.462 -2.1534  0.3522 -0.9251
 6628TIP3    H241520   2.207   5.767   1.512 -1.0989  0.8507  1.0243
 6629TIP3   OH241521   6.413   5.601   2.648  0.1887 -0.4559  0.5028
 6629TIP3    H141522   6.442   5.613   2.739 -0.6631 -0.5859  0.7979
 6629TIP3    H241523   6.322   5.630   2.648  0.2956 -0.1095 -0.3990
 6630TIP3   OH241524   5.702   2.352   0.944 -0.4293 -0.4833 -0.3579
 6630TIP3    H141525   5.686   2.385   0.855 -0.2780  0.0893 -0.1763
 6630TIP3    H241526   5.794   2.328   0.944 -0.3419 -0.1561 -0.2563
 6631TIP3   OH241527   6.411   4.416   3.035 -0.0016 -0.3314 -0.1013
 6631TIP3    H141528   6.367   4.499   3.053  0.3553 -0.1995  0.1784
 6631TIP3    H241529   6.402   4.366   3.116  0.1869 -0.3829 -0.1119
 6632TIP3   OH241530   2.916   0.216   0.573 -0.1273 -0.3623 -0.0141
 6632TIP3    H141531   2.979   0.187   0.507 -0.9359 -0.6543 -0.6715
 6632TIP3    H241532   2.850   0.264   0.524 -0.5896 -0.3319  0.6248
 6633TIP3   OH241533   2.427   5.401   2.053  0.1209 -0.1900  0.0085
 6633TIP3    H141534   2.500   5.388   2.114  1.4030  1.3621 -1.1317
 6633TIP3    H241535   2.404   5.312   2.025  1.5793 -0.7120  0.3665
 6634TIP3   OH241536   6.892   2.711   0.380  0.4624  0.1585  0.1489
 6634TIP3    H141537   6.804   2.689   0.352 -0.6421  3.3280  0.6775
 6634TIP3    H241538   6.894   2.689   0.473  0.2356  0.0905  0.1375
 6635TIP3   OH241539   4.734   3.266   2.410  0.2929  0.4953 -0.2123
 6635TIP3    H141540   4.752   3.316   2.489 -1.0596 -0.0365  0.4700
 6635TIP3    H241541   4.797   3.299   2.346 -1.2658  4.0025 -0.2128
 6636TIP3   OH241542   1.670   1.739   1.244  0.4622  0.2960 -0.4444
 6636TIP3    H141543   1.764   1.750   1.230  0.5859 -1.4948 -1.2551
 6636TIP3    H241544   1.645   1.666   1.187 -1.6365  1.4263 -1.0991
 6637TIP3   OH241545   1.279   1.334   0.877 -0.0959  0.3393  0.3284
 6637TIP3    H141546   1.200   1.370   0.917  0.3852  3.5271 -1.2191
 6637TIP3    H241547   1.324   1.287   0.947 -1.9454  0.9200  1.9732
 6638TIP3   OH241548   4.158   4.553   7.808  0.2022  0.2745 -0.4214
 6638TIP3    H141549   4.149   4.631   7.862 -0.7668  0.0070 -0.1792
 6638TIP3    H241550   4.109   4.573   7.729  1.3901  0.5598 -1.1080
 6639TIP3   OH241551   4.014   4.840   1.645 -0.2439  0.7849  0.1502
 6639TIP3    H141552   4.015   4.933   1.670 -2.8930  0.5493  1.4927
 6639TIP3    H241553   3.950   4.800   1.703  0.8334 -1.9415 -0.3804
 6640TIP3   OH241554   0.279   0.934   0.547  0.5628  0.2745 -0.1356
 6640TIP3    H141555   0.284   1.029   0.539  0.6976  0.4539  1.6530
 6640TIP3    H241556   0.334   0.913   0.622 -0.3559 -1.0885  0.2045
 6641TIP3   OH241557   3.920   4.285   3.216  0.2376 -0.3477  0.4047
 6641TIP3    H141558   3.848   4.317   3.162  0.1060  1.6147  1.6561
 6641TIP3    H241559   3.904   4.191   3.223  0.3380 -0.7575 -2.9771
 6642TIP3   OH241560   4.474   5.677   2.882  0.3192  0.7239 -0.2172
 6642TIP3    H141561   4.461   5.715   2.795  0.2324  1.7546  0.2212
 6642TIP3    H241562   4.432   5.591   2.878 -0.3555  1.0754 -0.9732
 6643TIP3   OH241563   3.109   0.879   2.705  0.1809  0.6008  0.1199
 6643TIP3    H141564   3.157   0.897   2.786  0.1105  2.0366 -0.1197
 6643TIP3    H241565   3.148   0.939   2.641 -1.9816  1.9351 -0.0502
 6644TIP3   OH241566   5.286   6.672   2.220  0.3648  0.0185  0.2168
 6644TIP3    H141567   5.350   6.724   2.172 -1.7899  2.6546 -0.0637
 6644TIP3    H241568   5.314   6.679   2.312 -0.0762  2.1862  0.2564
 6645TIP3   OH241569   1.365   2.759   2.307 -0.0035 -0.2050 -0.3725
 6645TIP3    H141570   1.342   2.811   2.384 -0.6701 -1.2265  0.1580
 6645TIP3    H241571   1.374   2.822   2.236  1.1219  0.8190  0.6411
 6646TIP3   OH241572   6.689   5.339   3.637  0.5209  0.0759  0.8710
 6646TIP3    H141573   6.749   5.324   3.564 -0.9402 -0.4446 -0.2707
 6646TIP3    H241574   6.691   5.258   3.687 -1.5294 -1.2244 -0.9518
 6647TIP3   OH241575   5.197   1.484   7.870  0.3156 -0.0024  0.4522
 6647TIP3    H141576   5.232   1.480   7.959 -2.0559 -1.3367  1.4261
 6647TIP3    H241577   5.131   1.553   7.873 -0.6632 -0.9012  0.1023
 6648TIP3   OH241578   6.807   0.951   3.620 -0.0325 -0.3067 -0.0469
 6648TIP3    H141579   6.745   1.000   3.673  0.4472  1.6123 -1.1549
 6648TIP3    H241580   6.827   1.009   3.546  2.3624 -1.2184 -0.2086
 6649TIP3   OH241581   0.836   6.565   3.956 -0.2336 -0.0257 -0.0455
 6649TIP3    H141582   0.866   6.474   3.955  1.2938  0.4535 -0.0033
 6649TIP3    H241583   0.851   6.596   3.866 -0.4258  0.2911  0.0300
 6650TIP3   OH241584   1.699   5.631   7.720  0.2149  0.0827  0.2190
 6650TIP3    H141585   1.679   5.724   7.710 -1.3709 -0.2866 -0.3282
 6650TIP3    H241586   1.695   5.596   7.631 -0.4816 -0.7488  0.5719
 6651TIP3   OH241587   4.864   6.577   7.798 -0.7311  0.5003  0.0176
 6651TIP3    H141588   4.854   6.483   7.790 -0.6818  0.5731 -1.0020
 6651TIP3    H241589   4.901   6.605   7.714 -0.2577  1.3593  0.4950
 6652TIP3   OH241590   5.889   1.663   1.071  0.1075  0.0903 -0.2417
 6652TIP3    H141591   5.803   1.690   1.104  0.1303 -1.2301  1.0121
 6652TIP3    H241592   5.951   1.696   1.136  0.4801  0.3217 -0.7098
 6653TIP3   OH241593   6.740   6.968   8.035  0.3722  0.2656 -0.5950
 6653TIP3    H141594   6.775   7.019   8.108 -1.3030 -0.7682  1.0158
 6653TIP3    H241595   6.656   7.009   8.016 -1.1052 -1.8737  0.8683
 6654TIP3   OH241596   2.830   2.475   7.736  0.3876  0.4628  0.1173
 6654TIP3    H141597   2.801   2.559   7.698 -1.1474 -0.3698 -0.6365
 6654TIP3    H241598   2.925   2.481   7.736  0.3919  1.3236 -2.0509
 6655TIP3   OH241599   4.849   6.220   2.515 -0.6726 -0.6124 -0.0410
 6655TIP3    H141600   4.910   6.147   2.505 -0.4436 -0.2696 -1.4891
 6655TIP3    H241601   4.892   6.280   2.576 -0.8094 -1.6176  1.0657
 6656TIP3   OH241602   2.700   3.701   1.521 -0.2198 -0.5326  0.0331
 6656TIP3    H141603   2.623   3.756   1.510  1.1937  1.6199  0.1747
 6656TIP3    H241604   2.716   3.701   1.616  1.6942  1.7755 -0.1847
 6657TIP3   OH241605   3.604   6.319   1.398  0.5830  0.4321  0.6522
 6657TIP3    H141606   3.599   6.374   1.476  1.3660  0.2992  0.8072
 6657TIP3    H241607   3.685   6.347   1.355 -0.6720  1.7014 -1.0292
 6658TIP3   OH241608   6.824   4.179   0.012 -0.1708 -0.4792  0.9340
 6658TIP3    H141609   6.865   4.222  -0.063  1.1145  0.2072  1.9909
 6658TIP3    H241610   6.744   4.229   0.028 -0.7765 -1.0017 -0.3157
 6659TIP3   OH241611   2.580   0.406   7.701 -0.1094 -0.1341 -0.0330
 6659TIP3    H141612   2.572   0.391   7.606 -1.4287  0.3951 -0.0261
 6659TIP3    H241613   2.504   0.460   7.723  1.2580  1.4647  0.9898
 6660TIP3   OH241614   6.106   5.767   1.494  0.4104 -0.4646 -0.0652
 6660TIP3    H141615   6.160   5.846   1.494  2.1265 -1.5397 -1.8593
 6660TIP3    H241616   6.152   5.706   1.551 -0.1082 -0.6789  0.1342
 6661TIP3   OH241617   3.879   5.153   2.087 -0.4759  0.0665 -0.7845
 6661TIP3    H141618   3.865   5.067   2.048  0.0615 -0.9873  1.2357
 6661TIP3    H241619   3.974   5.162   2.091 -0.5296  0.7314 -0.9221
 6662TIP3   OH241620   5.779   4.572   0.161 -0.0807 -0.0860 -0.6278
 6662TIP3    H141621   5.775   4.629   0.084 -1.4184 -0.0377 -0.5515
 6662TIP3    H241622   5.688   4.555   0.182  0.2969 -1.4887 -0.0589
 6663TIP3   OH241623   4.377   0.783   0.861  0.2162  0.4081 -0.4852
 6663TIP3    H141624   4.440   0.722   0.898 -0.8030 -1.1017 -1.1658
 6663TIP3    H241625   4.293   0.738   0.865 -0.5817  1.7642 -1.0091
 6664TIP3   OH241626   5.040   6.987   7.940  0.4572  0.5868  0.4575
 6664TIP3    H141627   4.991   6.915   7.980  1.0519  0.9132  1.8213
 6664TIP3    H241628   5.122   6.947   7.910 -0.2250  0.2227 -1.0302
 6665TIP3   OH241629   2.644   5.578   0.733 -0.2945  0.6118  0.3901
 6665TIP3    H141630   2.663   5.571   0.639  1.6315 -1.1863  0.8316
 6665TIP3    H241631   2.664   5.668   0.755 -1.2889  1.2132 -1.0054
 6666TIP3   OH241632   1.427   6.966   0.747 -0.9460  0.0866  0.2384
 6666TIP3    H141633   1.400   7.030   0.813  0.4746 -1.1737  2.1714
 6666TIP3    H241634   1.523   6.969   0.748 -0.8386 -1.8205  0.1960
 6667TIP3   OH241635   3.720   6.954   8.047  0.1033 -0.2724 -0.3272
 6667TIP3    H141636   3.790   6.935   7.985 -0.5092 -1.6254 -0.6348
 6667TIP3    H241637   3.644   6.976   7.992  0.2709  1.2151  0.0015
 6668TIP3   OH241638   1.559   1.743   0.875  0.1059 -0.9886 -0.2423
 6668TIP3    H141639   1.570   1.688   0.797  1.0618 -0.7308 -0.2989
 6668TIP3    H241640   1.559   1.681   0.948 -2.1336 -1.3720 -0.4957
 6669TIP3   OH241641   5.884   4.153   2.824  0.2602 -0.2582  0.0964
 6669TIP3    H141642   5.801   4.195   2.802  0.8660  1.4343  0.9010
 6669TIP3    H241643   5.862   4.094   2.896  0.0502  1.5889  1.6148
 6670TIP3   OH241644   0.382   2.477   8.099  0.5266 -0.3733  0.5582
 6670TIP3    H141645   0.336   2.395   8.078  1.5827 -0.5068 -1.4052
 6670TIP3    H241646   0.443   2.490   8.027  0.3546  2.1988  0.7712
 6671TIP3   OH241647   1.613   4.478   0.958 -0.5462  0.8306  0.6858
 6671TIP3    H141648   1.569   4.560   0.980  1.8388  2.5426 -0.4492
 6671TIP3    H241649   1.707   4.499   0.959  0.0952 -0.9714 -2.7048
 6672TIP3   OH241650   2.378   0.960   8.126  0.3371 -1.0569  0.1008
 6672TIP3    H141651   2.372   1.017   8.049 -0.4072  0.3061  1.1273
 6672TIP3    H241652   2.375   0.871   8.090 -2.8427 -0.5105 -1.3429
 6673TIP3   OH241653   1.807   5.822   1.176 -0.3009  0.4139  0.3059
 6673TIP3    H141654   1.876   5.758   1.196  0.3401  0.7712 -0.6387
 6673TIP3    H241655   1.750   5.821   1.252  1.2099  0.7105  1.4874
 6674TIP3   OH241656   7.064   5.960   2.151  0.0075  0.0086  0.8398
 6674TIP3    H141657   7.093   5.991   2.065  0.3650 -1.9923  0.1753
 6674TIP3    H241658   7.112   5.878   2.163 -1.4079 -0.6663  2.1453
 6675TIP3   OH241659   6.153   5.677   2.801  0.6872 -0.2484  0.1589
 6675TIP3    H141660   6.191   5.723   2.875  2.7807 -0.4453 -0.7388
 6675TIP3    H241661   6.125   5.592   2.837 -4.8099  1.9721  2.2520
 6676TIP3   OH241662   1.679   5.952   0.724  0.1196  0.7266  0.4786
 6676TIP3    H141663   1.587   5.980   0.720  0.5391  2.3538  1.3187
 6676TIP3    H241664   1.716   5.977   0.640 -0.3863 -0.7698 -0.2307
 6677TIP3   OH241665   5.956   5.347   3.612  0.0013  0.6334 -0.3698
 6677TIP3    H141666   5.902   5.268   3.605  0.3818  0.3580 -0.2447
 6677TIP3    H241667   5.943   5.392   3.528  1.5311 -0.7058 -1.3705
 6678TIP3   OH241668   4.752   6.065   1.989  0.2744  0.0080 -0.7043
 6678TIP3    H141669   4.806   6.022   2.055  0.2620  1.0262 -0.0150
 6678TIP3    H241670   4.666   6.024   1.998  0.1454  0.4638  0.2448
 6679TIP3   OH241671   1.642   6.629   1.721  0.5187 -0.5528 -0.2661
 6679TIP3    H141672   1.683   6.659   1.640  1.4185  1.0785  0.7256
 6679TIP3    H241673   1.594   6.705   1.753 -0.8489 -1.5502  0.1235
 6680TIP3   OH241674   6.713   0.791   1.036  0.1603  0.6702 -0.5217
 6680TIP3    H141675   6.711   0.794   0.941 -0.0824 -2.2781 -0.6957
 6680TIP3    H241676   6.787   0.848   1.060 -0.3655  2.2339 -2.3338
 6681TIP3   OH241677   0.847   1.409   1.627  0.8744 -0.0659 -0.6160
 6681TIP3    H141678   0.767   1.402   1.680 -0.2587  0.8265 -2.1250
 6681TIP3    H241679   0.870   1.501   1.630  1.9534 -0.3370 -0.0962
 6682TIP3   OH241680   2.726   5.441   7.620 -0.1694 -0.2357  0.3664
 6682TIP3    H141681   2.695   5.509   7.560  1.7611 -0.4074 -0.9189
 6682TIP3    H241682   2.657   5.375   7.620 -0.4524  0.0233 -1.2864
 6683TIP3   OH241683   5.860   0.223   1.638  0.1317  0.7255 -0.1812
 6683TIP3    H141684   5.877   0.141   1.590  3.1746 -0.8647  3.1543
 6683TIP3    H241685   5.820   0.195   1.720 -0.6154  2.8462  0.2359
 6684TIP3   OH241686   4.642   3.359   7.598 -0.0937 -0.6475  0.3012
 6684TIP3    H141687   4.592   3.440   7.585  0.3869 -0.0292  2.0308
 6684TIP3    H241688   4.703   3.380   7.669  1.7936 -1.7576 -0.9150
 6685TIP3   OH241689   6.336   7.041   0.340 -0.6282 -0.0653  0.6184
 6685TIP3    H141690   6.419   7.014   0.300 -1.4813  0.6648 -1.8098
 6685TIP3    H241691   6.354   7.040   0.434  2.1595  0.1909  0.1875
 6686TIP3   OH241692   0.780   5.860   0.533  0.3575 -0.1683  0.1443
 6686TIP3    H141693   0.871   5.853   0.562  0.8056  1.4831 -0.7385
 6686TIP3    H241694   0.779   5.936   0.474 -1.0947 -1.5799 -1.7940
 6687TIP3   OH241695   3.974   4.985   8.036 -0.0853 -0.4740 -0.1182
 6687TIP3    H141696   3.882   4.963   8.051 -0.3510 -0.4046 -1.4608
 6687TIP3    H241697   3.983   5.074   8.071 -0.3032 -0.7935  0.7745
 6688TIP3   OH241698   6.642   4.008   3.146  0.0506 -0.0339 -0.4667
 6688TIP3    H141699   6.557   4.009   3.103 -0.2849 -0.1572  0.1805
 6688TIP3    H241700   6.698   3.955   3.090 -0.9465 -2.0109  0.3169
 6689TIP3   OH241701   1.312   5.212   2.541 -0.4450  0.1373  0.1390
 6689TIP3    H141702   1.259   5.141   2.505 -1.7913  0.2251  1.8418
 6689TIP3    H241703   1.299   5.285   2.479 -0.3590 -0.5762 -0.7378
 6690TIP3   OH241704   2.480   6.143   1.492  0.0636  0.1218 -0.4157
 6690TIP3    H141705   2.388   6.136   1.467 -0.4295  0.1415  1.2834
 6690TIP3    H241706   2.507   6.229   1.459 -1.1708  1.0823  0.9659
 6691TIP3   OH241707   3.437   2.978   0.899  0.0629 -0.8066  0.2408
 6691TIP3    H141708   3.354   3.025   0.904 -0.0311 -0.6501 -1.8595
 6691TIP3    H241709   3.426   2.917   0.825  0.2317 -4.1020  2.6871
 6692TIP3   OH241710   4.339   5.024   1.104 -0.1644  0.0085 -0.6258
 6692TIP3    H141711   4.369   5.110   1.135 -2.2167 -0.1431  2.1799
 6692TIP3    H241712   4.370   4.962   1.170 -0.4638 -1.1291 -1.5199
 6693TIP3   OH241713   0.234   6.969   8.124  0.3333 -0.4378  0.0922
 6693TIP3    H141714   0.257   6.878   8.142 -1.1443 -1.3196 -2.1180
 6693TIP3    H241715   0.285   6.992   8.046  0.1452  0.3913  0.2059
 6694TIP3   OH241716   0.689   1.396   8.153  0.5409 -0.1415 -0.3314
 6694TIP3    H141717   0.636   1.419   8.229 -0.6504  1.1316 -1.4779
 6694TIP3    H241718   0.626   1.363   8.089  1.4451 -0.6962 -0.9616
 6695TIP3   OH241719   0.280   3.899   0.566 -0.3520  0.1955  0.3385
 6695TIP3    H141720   0.212   3.925   0.504  0.3173  1.2328  0.0107
 6695TIP3    H241721   0.251   3.934   0.650  0.0348  1.1474  0.0913
 6696TIP3   OH241722   3.948   0.875   7.546 -0.1170 -0.0907  0.7020
 6696TIP3    H141723   4.030   0.923   7.531  1.2999 -1.5247  3.1933
 6696TIP3    H241724   3.954   0.799   7.487  0.4282 -0.2546  0.9591
 6697TIP3   OH241725   4.578   6.290   0.402 -0.3299  0.1221  0.1148
 6697TIP3    H141726   4.634   6.311   0.327  0.1936 -1.4110  0.0416
 6697TIP3    H241727   4.619   6.213   0.442 -1.3036  0.1504  1.2291
 6698TIP3   OH241728   4.080   6.520   1.601  0.0695  0.1729  0.3343
 6698TIP3    H141729   4.007   6.507   1.662 -0.2085  1.0591  0.2131
 6698TIP3    H241730   4.154   6.543   1.657  0.4325 -1.3147  0.5066
 6699TIP3   OH241731   4.337   6.999   1.733 -0.0463 -0.2485  0.0111
 6699TIP3    H141732   4.354   6.966   1.821  2.3781  0.6823 -0.0383
 6699TIP3    H241733   4.392   6.947   1.676 -1.1965 -0.4841 -0.9337
 6700TIP3   OH241734   0.732   1.301   1.219 -0.2853  0.2174 -0.2000
 6700TIP3    H141735   0.745   1.238   1.147  0.0347  0.3875 -0.2954
 6700TIP3    H241736   0.759   1.385   1.182 -0.3242  0.3424  0.0547
 6701TIP3   OH241737   2.237   6.258   1.030 -0.4101  0.4291 -0.1237
 6701TIP3    H141738   2.186   6.310   0.968  1.1216  1.8053 -0.2938
 6701TIP3    H241739   2.182   6.181   1.047 -1.6860  0.9140 -1.7333
 6702TIP3   OH241740   1.186   1.162   8.172 -0.0445  0.2216  0.1708
 6702TIP3    H141741   1.203   1.168   8.078  0.7541  2.6562  0.3950
 6702TIP3    H241742   1.104   1.209   8.184  0.5367  1.0944  0.8255
 6703TIP3   OH241743   6.903   6.706   1.391 -0.0333 -0.0531 -0.3599
 6703TIP3    H141744   6.979   6.750   1.431 -0.1714  0.7137 -0.9056
 6703TIP3    H241745   6.932   6.616   1.377  1.5699  0.7216 -2.5355
 6704TIP3   OH241746   4.447   5.173   2.797 -0.7507 -0.2648  0.3275
 6704TIP3    H141747   4.393   5.205   2.726 -0.6877 -0.7060  0.0746
 6704TIP3    H241748   4.396   5.102   2.836 -0.1418 -1.0534 -0.2613
 6705TIP3   OH241749   6.063   3.765   1.870  0.0327 -0.5711  0.0377
 6705TIP3    H141750   6.074   3.673   1.894  1.6445 -0.5812 -0.6122
 6705TIP3    H241751   6.062   3.765   1.774  0.7642  0.1531  0.0194
 6706TIP3   OH241752   4.836   1.859   1.320  0.3217  0.5247 -0.0531
 6706TIP3    H141753   4.923   1.850   1.279  0.9823  1.5130  1.0510
 6706TIP3    H241754   4.780   1.798   1.271  1.7745 -0.6169 -0.3795
 6707TIP3   OH241755   2.559   1.025   1.069 -1.0295 -0.3171 -0.3792
 6707TIP3    H141756   2.650   0.994   1.066 -0.9551 -0.0539 -1.7917
 6707TIP3    H241757   2.553   1.072   1.152 -0.3079 -1.5831  0.4138
 6708TIP3   OH241758   0.472   0.611   3.353  0.8888 -0.3403  0.5690
 6708TIP3    H141759   0.522   0.643   3.428  1.8362 -0.2889 -0.0729
 6708TIP3    H241760   0.509   0.525   3.334  0.5343 -0.4257  0.2548
 6709TIP3   OH241761   2.486   3.221   6.839  0.1614 -0.5700 -0.3601
 6709TIP3    H141762   2.516   3.300   6.793 -2.3967 -0.3699 -1.8676
 6709TIP3    H241763   2.460   3.253   6.926 -1.5652  0.4549 -1.2068
 6710TIP3   OH241764   6.050   4.510   3.017 -0.3779 -0.7152 -0.0601
 6710TIP3    H141765   6.137   4.544   3.039 -0.4976 -1.3108  1.4445
 6710TIP3    H241766   6.012   4.486   3.101 -1.8980 -0.7420 -0.7265
 6711TIP3   OH241767   3.591   6.248   2.766 -0.2690  0.1728 -0.3444
 6711TIP3    H141768   3.673   6.235   2.719  0.0209 -0.6964  0.3670
 6711TIP3    H241769   3.616   6.259   2.858 -0.8981  0.6754 -0.2203
 6712TIP3   OH241770   6.343   3.092   7.567  0.1441 -0.2378 -0.1065
 6712TIP3    H141771   6.370   3.183   7.555  0.1714 -0.3793 -1.2232
 6712TIP3    H241772   6.271   3.079   7.505 -0.4605 -0.7333  0.6725
 6713TIP3   OH241773   6.959   0.516   0.544  0.2938 -0.1874  0.1090
 6713TIP3    H141774   7.012   0.453   0.494  1.8786  2.2731 -1.5078
 6713TIP3    H241775   7.002   0.522   0.629  0.4322 -0.8466  0.0928
 6714TIP3   OH241776   4.685   2.689   1.645 -0.4371  0.1237  0.2415
 6714TIP3    H141777   4.644   2.763   1.690 -1.2898 -1.3327  1.9564
 6714TIP3    H241778   4.620   2.619   1.651  0.9294 -1.1972 -0.0784
 6715TIP3   OH241779   0.941   6.750   7.235  0.0274 -0.4100  0.0379
 6715TIP3    H141780   1.025   6.792   7.216 -0.3190 -0.1518 -1.0231
 6715TIP3    H241781   0.922   6.699   7.156 -0.0820 -1.7191  0.8807
 6716TIP3   OH241782   4.912   0.806   0.352  0.0953 -0.2574 -0.0883
 6716TIP3    H141783   4.923   0.874   0.286  0.0767 -0.5733 -0.4223
 6716TIP3    H241784   4.973   0.737   0.327  0.2517 -0.2842  0.3548
 6717TIP3   OH241785   1.376   0.720   0.023 -0.2308  0.6253 -0.6687
 6717TIP3    H141786   1.458   0.761  -0.007  1.0473  0.2834  2.0755
 6717TIP3    H241787   1.314   0.792   0.028  0.9196  1.6016  0.4611
 6718TIP3   OH241788   2.504   6.220   3.535  0.0345 -0.0448  0.2728
 6718TIP3    H141789   2.489   6.314   3.534 -0.2228 -0.0775  0.6299
 6718TIP3    H241790   2.417   6.182   3.541  0.1809 -0.2709  1.2754
 6719TIP3   OH241791   5.458   5.029   1.310 -0.4516  0.1821  0.2883
 6719TIP3    H141792   5.453   5.125   1.316 -0.9233  0.2780 -1.2346
 6719TIP3    H241793   5.367   5.000   1.315 -0.4814 -0.0334 -1.1071
 6720TIP3   OH241794   6.918   2.665   3.646  0.0315 -0.3282  0.0152
 6720TIP3    H141795   6.899   2.739   3.588 -0.5000 -2.2970 -2.4522
 6720TIP3    H241796   6.833   2.628   3.667  0.3785 -1.3861 -0.3845
 6721TIP3   OH241797   3.871   4.238   2.116  0.2069 -0.3116  0.7648
 6721TIP3    H141798   3.916   4.304   2.169  3.2483 -1.6636  0.0932
 6721TIP3    H241799   3.852   4.167   2.177 -1.0758  0.2308  1.0334
 6722TIP3   OH241800   2.894   5.890   2.076 -0.6673  0.4924  0.0509
 6722TIP3    H141801   2.814   5.915   2.123 -0.2004  0.5618  0.8118
 6722TIP3    H241802   2.965   5.933   2.124  0.0499 -1.3019  0.6606
 6723TIP3   OH241803   3.874   6.612   2.322 -0.0804 -0.3420 -0.0676
 6723TIP3    H141804   3.915   6.615   2.409 -0.4985 -0.4583  0.1338
 6723TIP3    H241805   3.808   6.681   2.323  0.6882  0.4304 -0.6967
 6724TIP3   OH241806   1.687   0.175   1.910 -0.2097  0.2670 -0.7453
 6724TIP3    H141807   1.624   0.113   1.947 -1.8085  2.0652 -0.3202
 6724TIP3    H241808   1.732   0.212   1.986 -0.0487  0.4465 -0.9262
 6725TIP3   OH241809   0.265   3.497   3.018  0.0682  0.1707 -0.0462
 6725TIP3    H141810   0.355   3.496   3.050 -0.0867  0.0394  0.3910
 6725TIP3    H241811   0.254   3.582   2.977  0.0181  0.6766  0.9820
 6726TIP3   OH241812   1.775   4.387   0.398  1.0735  0.5801  0.0826
 6726TIP3    H141813   1.841   4.333   0.353 -1.0204 -0.6541 -1.7364
 6726TIP3    H241814   1.806   4.477   0.388  1.8763  0.1397 -1.8381
 6727TIP3   OH241815   3.526   1.076   2.754 -0.8307 -0.4106 -0.3871
 6727TIP3    H141816   3.578   1.147   2.793 -1.6614  1.3343 -2.2663
 6727TIP3    H241817   3.457   1.059   2.817  0.3546 -0.7970  0.8606
 6728TIP3   OH241818   4.011   1.017   2.289 -0.4094  0.6573 -0.1960
 6728TIP3    H141819   4.098   1.017   2.330 -0.1371  1.2945 -0.7375
 6728TIP3    H241820   3.987   1.110   2.285  0.1842  0.7861 -2.6620
 6729TIP3   OH241821   5.847   1.524   1.588  0.0370 -0.4196  0.3025
 6729TIP3    H141822   5.811   1.480   1.510 -1.0697 -0.0251  0.5776
 6729TIP3    H241823   5.809   1.476   1.662 -1.4011  1.1385  0.6146
 6730TIP3   OH241824   5.111   3.897   1.050  0.6310 -0.2965 -0.3642
 6730TIP3    H141825   5.100   3.959   0.978 -1.3820 -0.1615 -0.0101
 6730TIP3    H241826   5.023   3.865   1.066  1.2661 -1.3615  1.1416
 6731TIP3   OH241827   2.932   6.059   3.333  0.2022 -0.1256 -0.0950
 6731TIP3    H141828   2.963   5.985   3.281  1.4946 -0.4096  1.0034
 6731TIP3    H241829   2.885   6.019   3.407 -0.9610  0.2419 -0.6225
 6732TIP3   OH241830   1.096   0.789   3.187  0.3991 -0.0458  0.1765
 6732TIP3    H141831   1.167   0.734   3.153  1.9261  1.9982 -0.1421
 6732TIP3    H241832   1.139   0.844   3.253 -0.6741  1.7913 -0.5870
 6733TIP3   OH241833   0.342   2.306   1.885  0.3641  1.1158  0.6021
 6733TIP3    H141834   0.277   2.348   1.941  0.6916  3.0216 -0.3821
 6733TIP3    H241835   0.292   2.279   1.807  0.0820 -0.7384  1.3725
 6734TIP3   OH241836   1.028   2.312   8.021 -0.4458  0.0966  0.1522
 6734TIP3    H141837   1.078   2.231   8.013  0.3002  0.4349  1.2127
 6734TIP3    H241838   0.990   2.325   7.934  1.2953 -0.1800 -0.6873
 6735TIP3   OH241839   4.091   4.387   1.519  0.3150  0.3089  0.4452
 6735TIP3    H141840   4.154   4.423   1.456 -0.5848  3.1158  1.0281
 6735TIP3    H241841   4.007   4.394   1.475  0.1001 -1.4587  0.4941
 6736TIP3   OH241842   5.614   3.963   2.189  0.3888 -0.1113  0.4828
 6736TIP3    H141843   5.682   3.988   2.251  0.6861 -1.0341  0.5465
 6736TIP3    H241844   5.660   3.951   2.106  0.4793 -1.6014  0.7215
 6737TIP3   OH241845   1.415   0.068   1.681  0.2412  0.3225  0.3338
 6737TIP3    H141846   1.380   0.092   1.767 -0.6823 -1.4828  0.5076
 6737TIP3    H241847   1.338   0.054   1.627  0.7553 -0.9725 -0.0924
 6738TIP3   OH241848   5.474   3.973   2.783  0.1752 -0.2236  0.4164
 6738TIP3    H141849   5.383   4.003   2.782  0.2845  0.1141  0.4446
 6738TIP3    H241850   5.470   3.883   2.750 -0.0975 -0.0030 -0.1620
 6739TIP3   OH241851   3.595   2.061   2.358 -0.3860  0.3269 -0.3841
 6739TIP3    H141852   3.627   1.995   2.297 -1.3943 -0.4793 -0.0725
 6739TIP3    H241853   3.529   2.110   2.308 -2.6172 -1.5573  0.5365
 6740TIP3   OH241854   2.170   3.910   1.484  0.1349 -0.1026  0.0036
 6740TIP3    H141855   2.178   3.940   1.394 -1.3353  0.0193 -0.1227
 6740TIP3    H241856   2.168   3.815   1.478 -2.7890 -0.1022 -0.4640
 6741TIP3   OH241857   5.608   6.235   0.229 -0.3188 -0.1614  0.0511
 6741TIP3    H141858   5.670   6.162   0.235  0.0843  0.2288  0.7468
 6741TIP3    H241859   5.542   6.216   0.296  0.2550  0.5360  0.8364
 6742TIP3   OH241860   3.903   0.710   0.994  0.4035 -0.1249 -0.0223
 6742TIP3    H141861   3.907   0.627   1.042 -0.3111 -1.8353 -2.7024
 6742TIP3    H241862   3.843   0.764   1.045  0.8210 -1.2529  1.7671
 6743TIP3   OH241863   0.712   2.031   2.662 -0.4491 -0.1099 -0.0765
 6743TIP3    H141864   0.762   2.098   2.614 -1.0549 -0.0336 -0.6178
 6743TIP3    H241865   0.777   1.964   2.685  0.5900  1.5063  2.1460
 6744TIP3   OH241866   1.673   0.509   3.095 -0.3883  0.3493 -0.5524
 6744TIP3    H141867   1.686   0.565   3.018  1.2631 -2.1251 -2.2330
 6744TIP3    H241868   1.757   0.463   3.105 -1.0141 -0.4114  1.9411
 6745TIP3   OH241869   0.602   2.899   0.569  0.0252 -0.8235 -0.5104
 6745TIP3    H141870   0.594   2.938   0.656 -1.1249 -0.2641 -0.8534
 6745TIP3    H241871   0.619   2.974   0.511  3.9102 -1.4504 -0.4414
 6746TIP3   OH241872   1.066   6.212   0.339  0.0498  0.1091  0.0574
 6746TIP3    H141873   1.017   6.226   0.421 -0.4216  0.6366 -0.3034
 6746TIP3    H241874   1.003   6.169   0.281  0.3082 -0.0458 -0.1090
 6747TIP3   OH241875   1.538   1.118   7.564  0.5334 -0.0207  0.2075
 6747TIP3    H141876   1.601   1.085   7.500  0.6144 -1.6980  1.0883
 6747TIP3    H241877   1.486   1.182   7.516  1.4397 -0.2589 -1.1584
 6748TIP3   OH241878   2.900   3.475   0.854 -0.6789 -0.0636  0.2588
 6748TIP3    H141879   2.837   3.547   0.858 -0.5668  0.0524 -0.1166
 6748TIP3    H241880   2.857   3.404   0.903 -0.9050  0.1638  0.3931
 6749TIP3   OH241881   2.126   2.953   1.580  0.5206  0.4193  0.0438
 6749TIP3    H141882   2.186   2.879   1.568  1.0429  0.8678 -0.1351
 6749TIP3    H241883   2.100   2.948   1.672 -0.8213 -1.0157 -0.3818
 6750TIP3   OH241884   3.151   4.115   0.927  0.2556 -0.1454  0.0534
 6750TIP3    H141885   3.110   4.074   0.851  0.1232 -0.3188  0.2174
 6750TIP3    H241886   3.185   4.198   0.894 -0.7870  0.3050  0.0510
 6751TIP3   OH241887   5.950   1.346   2.317 -0.1753 -0.3181  0.3652
 6751TIP3    H141888   5.924   1.403   2.389  0.1274  2.0811 -1.3231
 6751TIP3    H241889   6.039   1.318   2.339  0.0312  0.6367  0.7882
 6752TIP3   OH241890   3.680   5.841   2.287  0.6774  0.3550  0.3727
 6752TIP3    H141891   3.706   5.889   2.208 -0.0175 -0.8737 -0.6567
 6752TIP3    H241892   3.743   5.868   2.353  2.3711  0.1287 -1.0670
 6753TIP3   OH241893   1.984   3.962   1.692 -0.5371 -0.1862 -0.1850
 6753TIP3    H141894   2.067   3.966   1.645  0.2641  0.0479  1.1882
 6753TIP3    H241895   1.986   3.878   1.738 -1.2202 -0.3366 -0.4287
 6754TIP3   OH241896   6.583   4.014   8.110  0.2098 -0.4461 -0.2240
 6754TIP3    H141897   6.515   4.021   8.042  1.0293  1.2545 -0.9381
 6754TIP3    H241898   6.563   4.086   8.170  1.7655  0.5780 -0.8653
 6755TIP3   OH241899   1.217   6.947   1.828 -1.1080 -0.1208 -0.7722
 6755TIP3    H141900   1.234   7.037   1.855  1.8835 -0.6302 -0.6716
 6755TIP3    H241901   1.204   6.899   1.910  1.8849 -0.5341 -0.4281
 6756TIP3   OH241902   5.748   3.127   2.665 -0.4051 -0.4686  0.2431
 6756TIP3    H141903   5.722   3.200   2.608  0.7844  0.2053  0.5234
 6756TIP3    H241904   5.785   3.170   2.742 -1.5128 -1.3664  1.3090
 6757TIP3   OH241905   0.225   0.756   7.712  0.3452  0.2271 -0.8448
 6757TIP3    H141906   0.246   0.841   7.673 -1.7320 -0.4439 -3.6970
 6757TIP3    H241907   0.303   0.702   7.694  1.2966  1.1971  0.1735
 6758TIP3   OH241908   0.193   1.362   3.885  0.0456  0.4146 -0.3135
 6758TIP3    H141909   0.210   1.381   3.977 -0.5759  1.1353 -0.3351
 6758TIP3    H241910   0.098   1.373   3.875  0.1802  0.9285 -1.1602
 6759TIP3   OH241911   0.171   0.632   2.370 -0.7359  0.4291 -0.2556
 6759TIP3    H141912   0.193   0.683   2.291 -0.6401  0.3070 -0.3078
 6759TIP3    H241913   0.204   0.544   2.351 -0.7455  0.3912 -0.0931
 6760TIP3   OH241914   6.659   4.469   0.883 -0.8014  0.4799 -0.6979
 6760TIP3    H141915   6.601   4.544   0.868 -1.0103  0.1223 -1.8473
 6760TIP3    H241916   6.728   4.502   0.939  0.2489  2.1423 -2.8427
 6761TIP3   OH241917   4.716   5.817   7.516  0.0054  0.0953 -0.2866
 6761TIP3    H141918   4.746   5.898   7.474  0.1068  0.4583  0.4642
 6761TIP3    H241919   4.729   5.833   7.609 -0.7939 -0.4581 -0.0736
 6762TIP3   OH241920   4.873   2.596   8.253  0.4150  0.1858 -0.3002
 6762TIP3    H141921   4.809   2.657   8.215  2.1868  1.1624 -1.8378
 6762TIP3    H241922   4.949   2.650   8.273  1.2939 -1.1878  0.1896
 6763TIP3   OH241923   0.868   4.213   0.836  0.1412 -0.0662 -0.3131
 6763TIP3    H141924   0.909   4.222   0.750 -1.1489  0.6041 -0.8903
 6763TIP3    H241925   0.853   4.303   0.865  0.5507 -0.2835  0.6104
 6764TIP3   OH241926   3.384   1.538   1.682  0.1342 -0.3091 -0.3180
 6764TIP3    H141927   3.356   1.578   1.600 -0.1273  1.4506  0.5721
 6764TIP3    H241928   3.302   1.511   1.725  0.1524  0.1044 -0.0118
 6765TIP3   OH241929   6.559   1.732   7.864  0.1280  0.0523 -0.0314
 6765TIP3    H141930   6.496   1.661   7.853 -0.3473  0.0047  2.4725
 6765TIP3    H241931   6.644   1.693   7.841 -0.3561 -0.7664 -0.4748
 6766TIP3   OH241932   4.324   3.234   0.287  0.0722  0.2139  0.0300
 6766TIP3    H141933   4.292   3.152   0.324  0.5781  0.2264  0.5140
 6766TIP3    H241934   4.339   3.214   0.195 -2.3686  0.5232 -0.4849
 6767TIP3   OH241935   4.162   1.283   0.311  0.2129 -0.1200  0.2029
 6767TIP3    H141936   4.209   1.218   0.260 -1.3989  1.8610 -4.3321
 6767TIP3    H241937   4.229   1.346   0.338  1.2450 -1.7169  1.5529
 6768TIP3   OH241938   0.169   5.877   0.272  0.3488 -0.1081 -0.4989
 6768TIP3    H141939   0.196   5.785   0.272  0.5073 -0.0802  0.7523
 6768TIP3    H241940   0.211   5.915   0.195  0.3513 -1.0648 -0.9712
 6769TIP3   OH241941   1.537   5.858   1.004 -1.0783  0.5928 -0.1965
 6769TIP3    H141942   1.548   5.812   0.921 -0.6385  3.7228 -2.0319
 6769TIP3    H241943   1.625   5.862   1.041 -0.8610  1.1868 -0.7624
 6770TIP3   OH241944   2.142   1.426   0.874  0.1687 -0.1385 -0.4774
 6770TIP3    H141945   2.205   1.385   0.814  0.5109 -0.5580  0.1569
 6770TIP3    H241946   2.129   1.514   0.839  0.1714 -0.4596 -1.3113
 6771TIP3   OH241947   0.134   2.438   7.419  0.6269 -0.0337 -0.6075
 6771TIP3    H141948   0.042   2.412   7.421 -0.2718  2.8825  0.3289
 6771TIP3    H241949   0.157   2.435   7.326 -1.7145  2.9558 -1.4451
 6772TIP3   OH241950   4.341   1.426   3.356 -0.5669  0.4112 -0.1498
 6772TIP3    H141951   4.367   1.418   3.265  1.1329  0.5448  0.3000
 6772TIP3    H241952   4.387   1.355   3.401 -1.9596 -0.1169  0.5132
 6773TIP3   OH241953   1.306   0.915   1.078  0.2151  0.2767  0.8574
 6773TIP3    H141954   1.211   0.909   1.079  0.2966 -1.6873  0.1932
 6773TIP3    H241955   1.327   0.950   0.992  0.0692  2.3304  1.6076
 6774TIP3   OH241956   5.850   4.722   2.514 -0.5111  0.0222 -0.6242
 6774TIP3    H141957   5.910   4.715   2.439  2.7057 -2.4819  1.9028
 6774TIP3    H241958   5.885   4.661   2.579 -4.1098  0.7556  2.3422
 6775TIP3   OH241959   4.645   6.932   1.331  0.2866 -0.2759 -0.1436
 6775TIP3    H141960   4.552   6.915   1.344 -0.0623  1.3412 -0.3962
 6775TIP3    H241961   4.658   6.924   1.237 -0.0045  1.3420 -0.3391
 6776TIP3   OH241962   0.080   3.351   7.545  0.4343 -0.0619 -0.1793
 6776TIP3    H141963  -0.012   3.364   7.566  0.1459 -0.1249 -1.3254
 6776TIP3    H241964   0.115   3.440   7.533  0.4380 -0.0527 -0.1022
 6777TIP3   OH241965   3.110   0.305   1.543 -0.5118 -0.1598  0.0047
 6777TIP3    H141966   3.124   0.367   1.614  0.6197 -0.5190  0.1124
 6777TIP3    H241967   3.031   0.336   1.499 -0.2536  1.0485  0.3691
 6778TIP3   OH241968   5.968   0.190   0.794  0.7504 -0.0674  0.3597
 6778TIP3    H141969   5.986   0.276   0.756  0.4283  0.4226  1.2772
 6778TIP3    H241970   6.053   0.158   0.823  0.6457  0.8815  1.8849
 6779TIP3   OH241971   0.102   2.667   3.581  0.0666 -0.2372 -0.2688
 6779TIP3    H141972   0.126   2.759   3.585 -0.9004  0.0723 -0.9530
 6779TIP3    H241973   0.017   2.662   3.626  0.6205 -0.9994  0.7338
 6780TIP3   OH241974   0.083   0.927   0.226  0.0831  0.0814  0.6014
 6780TIP3    H141975   0.022   0.854   0.214 -2.2948  2.1865 -1.2225
 6780TIP3    H241976   0.150   0.913   0.159 -0.4991 -0.3171  0.0898
 6781TIP3   OH241977   1.226   2.360   2.753  0.6901  0.3279 -0.2872
 6781TIP3    H141978   1.212   2.328   2.842  2.0618  3.2087  1.0727
 6781TIP3    H241979   1.140   2.350   2.711 -0.0501 -0.8646  1.3800
 6782TIP3   OH241980   5.221   5.325   0.788 -0.1842  0.1074  0.0336
 6782TIP3    H141981   5.274   5.344   0.711  0.0592  0.7783  0.3610
 6782TIP3    H241982   5.284   5.308   0.858 -0.3533 -2.9250 -0.4212
 6783TIP3   OH241983   1.331   3.025   0.259  0.0593 -0.2777  0.5390
 6783TIP3    H141984   1.290   2.946   0.294 -0.4426  0.1521  0.9373
 6783TIP3    H241985   1.385   3.058   0.331 -0.5968  0.3427  0.7554
 6784TIP3   OH241986   3.427   6.535   1.661 -0.4114  0.6518 -0.1268
 6784TIP3    H141987   3.356   6.504   1.719 -0.2543 -1.7266 -1.0841
 6784TIP3    H241988   3.393   6.521   1.573  1.0903 -0.2417 -0.6031
 6785TIP3   OH241989   6.879   2.396   1.375  0.1092 -0.0802 -0.1659
 6785TIP3    H141990   6.947   2.401   1.442 -0.4377 -0.2061  0.4084
 6785TIP3    H241991   6.825   2.321   1.401 -0.0789 -0.1546 -0.7696
 6786TIP3   OH241992   1.634   6.843   0.990  0.0885  0.0237  0.4210
 6786TIP3    H141993   1.575   6.787   0.940 -0.3617  0.1010  0.8581
 6786TIP3    H241994   1.684   6.891   0.924  0.1391 -0.5365  0.0478
 6787TIP3   OH241995   5.113   5.763   2.357  0.4256 -0.0105 -0.1143
 6787TIP3    H141996   5.070   5.677   2.355  0.8736 -0.2454 -2.2146
 6787TIP3    H241997   5.059   5.815   2.415 -1.4606 -0.9520 -0.9208
 6788TIP3   OH241998   5.710   0.168   0.892 -0.2177  0.0166 -0.4682
 6788TIP3    H141999   5.790   0.200   0.851  0.2880  1.8791  1.7519
 6788TIP3    H242000   5.732   0.081   0.925  0.2391 -0.3050 -1.5965
 6789TIP3   OH242001   6.218   6.183   3.674  0.0399  0.1683 -0.6778
 6789TIP3    H142002   6.211   6.114   3.740 -0.0969  0.3667 -0.4839
 6789TIP3    H242003   6.312   6.197   3.664  0.0919 -0.4780 -1.1723
 6790TIP3   OH242004   2.580   3.378   1.971 -0.5169  0.1832 -0.0207
 6790TIP3    H142005   2.626   3.413   2.047  0.6461  0.4080 -0.7825
 6790TIP3    H242006   2.649   3.369   1.904 -0.4150 -4.5720  0.3910
 6791TIP3   OH242007   4.960   3.027   0.522 -0.5313  0.0768 -0.6511
 6791TIP3    H142008   4.874   3.010   0.560 -0.3445 -1.2116 -0.7443
 6791TIP3    H242009   4.950   3.006   0.429 -0.6217  1.8510 -1.0604
 6792TIP3   OH242010   6.793   7.013   2.579  0.0479  0.0891  0.3895
 6792TIP3    H142011   6.770   7.100   2.612 -0.6575  0.1685 -0.2795
 6792TIP3    H242012   6.710   6.974   2.554  0.2417 -1.1784  1.5809
 6793TIP3   OH242013   0.787   3.856   0.926  0.2360 -0.3995 -0.3541
 6793TIP3    H142014   0.874   3.883   0.898  0.3735  0.4360  0.8031
 6793TIP3    H242015   0.732   3.868   0.849  0.4712  2.3375 -0.1776
 6794TIP3   OH242016   3.962   7.045   3.547  0.1763 -0.3243 -0.2770
 6794TIP3    H142017   4.007   7.005   3.621 -0.4729  1.0393  0.8971
 6794TIP3    H242018   3.921   6.972   3.501  2.1588 -1.3969 -0.4065
 6795TIP3   OH242019   6.220   4.101   1.662 -0.5864 -0.2752  0.0046
 6795TIP3    H142020   6.288   4.160   1.694 -0.8358 -0.3611  0.7243
 6795TIP3    H242021   6.258   4.059   1.585  0.0619 -0.1031  0.2267
 6796TIP3   OH242022   3.574   3.307   1.174  0.3949 -0.0919  0.5438
 6796TIP3    H142023   3.524   3.240   1.220  2.6846 -2.8221 -0.5734
 6796TIP3    H242024   3.651   3.321   1.229 -0.7600  3.0151  1.5798
 6797TIP3   OH242025   1.723   2.823   1.419  0.4187 -0.2639  0.0281
 6797TIP3    H142026   1.786   2.755   1.397  0.1256 -1.1428  1.7196
 6797TIP3    H242027   1.666   2.783   1.485 -1.2446  0.8566 -0.6606
 6798TIP3   OH242028   3.386   6.309   2.567  0.4348 -0.0463  0.7837
 6798TIP3    H142029   3.306   6.313   2.619 -1.0300  0.3175 -1.3914
 6798TIP3    H242030   3.446   6.257   2.620 -2.0859 -2.5299  1.4082
 6799TIP3   OH242031   1.052   2.027   8.149  0.1544  0.0096 -0.0804
 6799TIP3    H142032   0.986   2.021   8.080  0.1217 -1.1581  0.0388
 6799TIP3    H242033   1.009   2.072   8.221 -0.5688 -0.8931  0.0601
 6800TIP3   OH242034   1.512   5.883   1.979 -0.1988 -0.5301  0.2078
 6800TIP3    H142035   1.499   5.805   2.032  1.6839 -1.1780 -0.2110
 6800TIP3    H242036   1.496   5.855   1.889  2.0263 -0.9161 -0.1268
 6801TIP3   OH242037   5.724   3.215   7.529  0.2276  0.2066  0.2629
 6801TIP3    H142038   5.776   3.147   7.573  0.0137 -0.2537 -0.1828
 6801TIP3    H242039   5.634   3.182   7.533  0.1279  0.4434 -0.0017
 6802TIP3   OH242040   6.725   2.985   1.069  0.1135 -0.1303 -0.0434
 6802TIP3    H142041   6.655   3.035   1.111  0.4269  0.0477  0.2705
 6802TIP3    H242042   6.803   3.005   1.120  0.3725 -0.4229 -0.3186
 6803TIP3   OH242043   5.805   6.635   0.929  0.3051 -0.2540  0.5498
 6803TIP3    H142044   5.870   6.607   0.993  0.9836 -0.4695 -0.2171
 6803TIP3    H242045   5.802   6.564   0.865  0.3754  0.4101 -0.2035
 6804TIP3   OH242046   4.229   2.748   3.010  0.2389 -0.0494  0.2318
 6804TIP3    H142047   4.219   2.725   3.103 -0.2540  0.0249  0.1971
 6804TIP3    H242048   4.224   2.843   3.008  1.5486  0.0469  0.2809
 6805TIP3   OH242049   3.158   5.861   0.555  0.4565 -0.3778 -0.3902
 6805TIP3    H142050   3.253   5.852   0.546  0.3271 -2.8490 -0.0992
 6805TIP3    H242051   3.125   5.861   0.466  0.6750 -0.4598 -0.4721
 6806TIP3   OH242052   3.741   0.541   3.343 -0.4862 -0.2786 -0.0468
 6806TIP3    H142053   3.833   0.549   3.369 -0.0834 -1.8807 -0.8206
 6806TIP3    H242054   3.743   0.480   3.269 -1.9856  1.1500 -1.3335
 6807TIP3   OH242055   5.226   6.482   0.099 -0.0344 -0.5538 -0.3891
 6807TIP3    H142056   5.175   6.486   0.180 -0.2029 -0.0179 -0.5198
 6807TIP3    H242057   5.173   6.529   0.034  0.6367  0.0382 -0.5206
 6808TIP3   OH242058   0.510   4.189   3.419 -0.3497  0.2991  0.3389
 6808TIP3    H142059   0.543   4.159   3.504  0.2946  0.0616  0.0123
 6808TIP3    H242060   0.576   4.161   3.356 -2.6420 -3.1585 -0.8220
 6809TIP3   OH242061   6.590   1.545   2.386 -0.1119 -0.2585 -0.2714
 6809TIP3    H142062   6.662   1.482   2.379 -2.6937 -4.1745  3.4726
 6809TIP3    H242063   6.522   1.511   2.328 -1.1373 -0.3638  0.9342
 6810TIP3   OH242064   3.052   0.831   1.977 -0.8310  0.1932  0.2103
 6810TIP3    H142065   2.963   0.827   1.941 -1.0359  0.2590  0.6972
 6810TIP3    H242066   3.062   0.921   2.005  0.7674  1.2429 -3.2078
 6811TIP3   OH242067   0.892   0.226   2.961 -0.0622 -0.5021 -0.4777
 6811TIP3    H142068   0.870   0.286   2.890 -0.3928 -1.4783 -1.2195
 6811TIP3    H242069   0.830   0.248   3.031 -1.1986 -0.9855 -1.3014
 6812TIP3   OH242070   0.019   1.348   8.223  0.0805 -0.6232 -0.1556
 6812TIP3    H142071   0.012   1.273   8.165  0.6460 -1.3404  0.6737
 6812TIP3    H242072   0.069   1.316   8.298 -1.0577  0.1090  0.9719
 6813TIP3   OH242073   6.454   3.248   1.990  0.3942 -0.0361 -0.1156
 6813TIP3    H142074   6.398   3.220   2.063  0.6152  0.8695  0.4249
 6813TIP3    H242075   6.537   3.202   2.004  0.2935 -0.1893 -0.0284
 6814TIP3   OH242076   4.860   5.848   0.905 -0.3357  0.0415  0.3513
 6814TIP3    H142077   4.929   5.820   0.965 -0.4510 -2.4895 -0.5536
 6814TIP3    H242078   4.793   5.885   0.961  0.2131 -0.8367  1.6366
 6815TIP3   OH242079   2.936   5.771   1.042 -0.1166  0.5028 -0.2784
 6815TIP3    H142080   2.890   5.691   1.066  0.9883  0.5216  2.2182
 6815TIP3    H242081   2.961   5.810   1.125  1.4839  2.2056 -1.4763
 6816TIP3   OH242082   7.012   2.915   2.594 -0.2186  0.1502 -0.6087
 6816TIP3    H142083   7.075   2.847   2.571  0.2077  0.5644 -0.6805
 6816TIP3    H242084   7.056   2.997   2.572  0.4745  0.6221  2.2004
 6817TIP3   OH242085   6.054   0.446   7.613  0.0678  0.5107  0.5073
 6817TIP3    H142086   6.133   0.453   7.667  0.2283  0.9376  0.2243
 6817TIP3    H242087   6.053   0.355   7.583 -0.6987 -0.0881  2.2312
 6818TIP3   OH242088   3.276   3.721   3.205 -0.0699  0.1042  0.0294
 6818TIP3    H142089   3.347   3.774   3.240 -0.1069  0.7493 -0.8371
 6818TIP3    H242090   3.307   3.630   3.212  1.4384  0.4377 -1.5881
 6819TIP3   OH242091   6.611   5.279   8.184 -0.1462  0.2302 -0.4007
 6819TIP3    H142092   6.637   5.296   8.274 -1.4448 -2.1275  0.5022
 6819TIP3    H242093   6.674   5.214   8.153 -1.1673 -0.8451 -0.2991
 6820TIP3   OH242094   0.942   5.661   8.041  0.4529  0.7705  0.0207
 6820TIP3    H142095   0.916   5.570   8.027  0.1993  1.0505 -1.5060
 6820TIP3    H242096   0.866   5.712   8.012 -0.1271  1.4565  2.5651
 6821TIP3   OH242097   0.549   0.379   1.066 -0.1715  0.3331 -0.1337
 6821TIP3    H142098   0.643   0.394   1.072  0.0455 -0.8797 -0.3190
 6821TIP3    H242099   0.533   0.303   1.122 -0.8632 -0.1644 -0.9843
 6822TIP3   OH242100   0.577   4.168   2.272 -0.1991  0.4685  0.1792
 6822TIP3    H142101   0.561   4.230   2.343  0.3161 -1.8277  2.4655
 6822TIP3    H242102   0.672   4.169   2.260 -0.2919  0.8914 -0.5187
 6823TIP3   OH242103   6.970   5.447   8.246  0.6885 -0.1225  0.0734
 6823TIP3    H142104   7.002   5.462   8.335  0.6257 -3.3281  0.7546
 6823TIP3    H242105   7.049   5.427   8.195  0.4416 -2.1902  0.3998
 6824TIP3   OH242106   5.077   1.315   0.021 -0.5914 -0.0483  0.0958
 6824TIP3    H142107   5.084   1.353   0.108 -0.1285  0.5044 -0.1753
 6824TIP3    H242108   4.999   1.356  -0.017 -0.9200 -0.4538  0.3240
 6825TIP3   OH242109   5.521   0.169   3.452  0.0084 -0.2381 -0.4885
 6825TIP3    H142110   5.603   0.182   3.500 -0.4958 -0.7731  0.5349
 6825TIP3    H242111   5.512   0.248   3.399  1.5697 -0.4882 -1.2166
 6826TIP3   OH242112   1.233   6.055   8.150  0.1465 -0.0539  0.0621
 6826TIP3    H142113   1.142   6.046   8.122 -0.1551  0.6307  0.8011
 6826TIP3    H242114   1.269   5.967   8.141 -0.2903 -0.1277 -1.2224
 6827TIP3   OH242115   6.425   6.725   3.202  0.3721  0.5093  0.2154
 6827TIP3    H142116   6.473   6.651   3.240  1.8970  1.9181  1.1296
 6827TIP3    H242117   6.424   6.706   3.108  1.4055 -0.3051  0.3447
 6828TIP3   OH242118   5.634   4.856   0.415 -0.2708  0.2486 -0.5861
 6828TIP3    H142119   5.605   4.946   0.430 -1.1366 -0.1176  0.0347
 6828TIP3    H242120   5.721   4.865   0.377 -1.0456  1.3766 -2.2109
 6829TIP3   OH242121   0.913   4.732   2.437 -0.4289  0.4750  0.4343
 6829TIP3    H142122   0.998   4.690   2.451 -0.0973  1.6381  2.1233
 6829TIP3    H242123   0.849   4.663   2.454  0.1173 -0.6408 -1.6504
 6830TIP3   OH242124   0.894   3.556   1.078  0.4510  0.7313  0.9745
 6830TIP3    H142125   0.898   3.596   0.991 -0.9479 -1.0535  0.0255
 6830TIP3    H242126   0.853   3.622   1.133  1.3541  1.8845  0.3157
 6831TIP3   OH242127   3.443   0.231   0.700 -0.5070 -0.1285 -0.6088
 6831TIP3    H142128   3.516   0.182   0.662  0.7036 -0.5033  1.9706
 6831TIP3    H242129   3.377   0.165   0.718 -0.7964 -0.0542 -1.3522
 6832TIP3   OH242130   3.754   0.881   2.356 -0.1252 -0.0132  0.1498
 6832TIP3    H142131   3.830   0.932   2.326  0.4877 -1.2984 -0.6102
 6832TIP3    H242132   3.701   0.943   2.404  0.6102  1.3315 -0.6897
 6833TIP3   OH242133   2.424   1.087   1.547 -0.3608 -0.0523  0.6925
 6833TIP3    H142134   2.347   1.074   1.492 -1.0320  0.6490  1.4387
 6833TIP3    H242135   2.457   1.174   1.522  0.2037 -0.3469  0.3757
 6834TIP3   OH242136   3.843   5.430   1.106 -0.7347  0.0353 -0.1914
 6834TIP3    H142137   3.849   5.526   1.114 -1.3279  0.1226 -0.6996
 6834TIP3    H242138   3.934   5.401   1.109 -0.5848  0.5470  0.6989
 6835TIP3   OH242139   4.341   0.140   1.948 -0.3819 -0.1531 -0.5588
 6835TIP3    H142140   4.277   0.082   1.906  0.7208 -1.2813 -0.7269
 6835TIP3    H242141   4.307   0.153   2.037 -1.0888 -0.3220 -0.7986
 6836TIP3   OH242142   4.224   0.688   1.311 -0.4784 -0.0894  0.1236
 6836TIP3    H142143   4.302   0.710   1.260 -1.6402  0.2700 -1.5589
 6836TIP3    H242144   4.211   0.594   1.294  0.3616 -0.5137  1.5709
 6837TIP3   OH242145   6.292   0.272   0.389  0.4067 -0.6602  0.0893
 6837TIP3    H142146   6.306   0.261   0.295  0.9721 -0.7519  0.1834
 6837TIP3    H242147   6.373   0.242   0.429  0.0067 -1.0264  0.6331
 6838TIP3   OH242148   4.407   3.082   0.553  0.1899 -0.4091 -0.2136
 6838TIP3    H142149   4.438   3.023   0.484 -1.1298 -1.8113  0.3442
 6838TIP3    H242150   4.442   3.045   0.634 -2.8172 -2.1112  0.4555
 6839TIP3   OH242151   0.914   0.135   1.068 -0.1375 -0.1670 -0.2523
 6839TIP3    H142152   0.905   0.086   0.986 -0.0294 -1.8544  0.6922
 6839TIP3    H242153   0.921   0.067   1.135 -1.9642  1.1509  1.3659
 6840TIP3   OH242154   3.607   2.451   3.407 -0.8608 -0.0815  0.6001
 6840TIP3    H142155   3.542   2.381   3.408 -1.2471  0.1699 -1.5187
 6840TIP3    H242156   3.691   2.406   3.415 -0.9860 -1.0802 -2.3321
 6841TIP3   OH242157   0.529   2.785   3.745 -0.6807  0.2420 -0.4303
 6841TIP3    H142158   0.453   2.816   3.793 -0.1546  3.4919 -1.4737
 6841TIP3    H242159   0.494   2.752   3.662 -1.0121  1.7531 -0.9213
 6842TIP3   OH242160   4.638   4.771   0.258  0.7267  0.1847 -0.1820
 6842TIP3    H142161   4.669   4.777   0.348  0.2625  0.5824 -0.0477
 6842TIP3    H242162   4.710   4.808   0.205  0.4633  1.1658  0.1314
 6843TIP3   OH242163   1.173   1.162   7.909  0.1108  0.4414  0.1082
 6843TIP3    H142164   1.268   1.149   7.905 -0.0273 -0.2537 -1.0325
 6843TIP3    H242165   1.136   1.086   7.866 -0.9464  1.1254 -0.2196
 6844TIP3   OH242166   6.401   3.578   2.027  0.0758  0.1016  0.0598
 6844TIP3    H142167   6.432   3.495   1.991  0.0593 -0.8184  2.0813
 6844TIP3    H242168   6.467   3.604   2.091 -0.2345  1.3478 -0.0905
 6845TIP3   OH242169   1.816   1.518   0.567  0.1186  0.1372 -0.9085
 6845TIP3    H142170   1.775   1.431   0.561  2.4196 -0.9715 -1.9744
 6845TIP3    H242171   1.796   1.548   0.655 -0.3648 -1.6795 -0.3488
 6846TIP3   OH242172   6.959   7.010   1.037  0.1159 -0.1042 -0.5229
 6846TIP3    H142173   6.890   7.046   0.982 -1.5810 -2.8891 -0.4170
 6846TIP3    H242174   7.034   7.001   0.978 -1.3842 -2.1779 -2.2872
 6847TIP3   OH242175   5.774   0.511   7.677 -0.2261  0.3112  0.1264
 6847TIP3    H142176   5.822   0.589   7.650 -0.1166  0.7907  1.5984
 6847TIP3    H242177   5.838   0.440   7.670 -0.0983  0.4855 -0.4933
 6848TIP3   OH242178   1.440   6.226   1.013  0.1084 -0.4578 -0.4549
 6848TIP3    H142179   1.462   6.285   1.086  0.0586 -0.8510 -0.1153
 6848TIP3    H242180   1.366   6.175   1.045 -1.6599  1.1787 -1.7633
 6849TIP3   OH242181   2.034   3.651   7.832  0.2722 -0.0749  0.2774
 6849TIP3    H142182   2.001   3.722   7.777  0.1653  0.8945  1.5270
 6849TIP3    H242183   1.963   3.586   7.832  0.1631  0.0318 -0.4847
 6850TIP3   OH242184   6.517   1.627   1.186  0.0697  0.0714  0.5574
 6850TIP3    H142185   6.500   1.557   1.248 -2.4079 -0.6397 -0.7949
 6850TIP3    H242186   6.454   1.613   1.115 -0.7173  3.7548  0.3155
 6851TIP3   OH242187   0.308   5.065   3.457  0.5042 -0.2130 -0.3749
 6851TIP3    H142188   0.244   5.137   3.460  0.1483 -0.5305 -0.2849
 6851TIP3    H242189   0.387   5.105   3.421  0.6759  0.5063  0.7557
 6852TIP3   OH242190   4.563   5.995   0.705 -0.0165  0.2771 -0.6968
 6852TIP3    H142191   4.554   6.075   0.655 -3.5409 -0.2790 -1.1844
 6852TIP3    H242192   4.529   6.017   0.792  1.0891 -0.1451 -0.1348
 6853TIP3   OH242193   5.319   0.992   7.621  0.3290 -0.5749 -0.5066
 6853TIP3    H142194   5.259   0.985   7.695  1.7339 -2.9430  0.5344
 6853TIP3    H242195   5.349   1.084   7.622  1.0913 -0.7678  2.5683
 6854TIP3   OH242196   2.674   0.362   2.119  0.1443 -0.1162 -0.1516
 6854TIP3    H142197   2.768   0.356   2.135  0.1419 -3.1701 -0.6584
 6854TIP3    H242198   2.634   0.324   2.197 -0.5044 -1.5946 -1.1707
 6855TIP3   OH242199   0.259   1.225   0.866 -0.8549  0.2711  0.2976
 6855TIP3    H142200   0.271   1.285   0.940 -1.3346 -0.0828  0.6639
 6855TIP3    H242201   0.187   1.262   0.816 -1.9083 -0.5948  1.1414
 6856TIP3   OH242202   1.354   1.442   2.059  0.2574 -0.7659  0.1421
 6856TIP3    H142203   1.336   1.399   2.143  0.0277 -1.4503 -0.2499
 6856TIP3    H242204   1.430   1.497   2.076  0.1923 -0.8770  0.8103
 6857TIP3   OH242205   2.839   0.748   2.162  0.1859  0.4391 -0.2055
 6857TIP3    H142206   2.930   0.724   2.183  0.1441  1.2011  0.9350
 6857TIP3    H242207   2.837   0.843   2.172 -1.4120  0.2058  2.6660
 6858TIP3   OH242208   1.541   2.414   2.128  0.1673  0.0999  0.0397
 6858TIP3    H142209   1.490   2.334   2.142 -1.9060  1.2670 -0.4754
 6858TIP3    H242210   1.629   2.382   2.107 -0.5893 -2.0491 -0.1565
 6859TIP3   OH242211   3.564   0.138   7.707 -0.4147  0.2546  0.5373
 6859TIP3    H142212   3.486   0.193   7.699 -0.7708 -0.2168  0.7376
 6859TIP3    H242213   3.615   0.158   7.628 -1.5694 -0.7192 -0.4935
 6860TIP3   OH242214   5.560   6.654   1.761  0.7770  1.0789 -0.2192
 6860TIP3    H142215   5.603   6.739   1.767  0.7443  1.0392  0.7813
 6860TIP3    H242216   5.606   6.599   1.824  0.2773  0.5861 -0.2723
 6861TIP3   OH242217   5.332   1.443   3.142  0.6975 -0.7146 -0.1006
 6861TIP3    H142218   5.396   1.492   3.091 -0.4085 -0.2384 -1.0942
 6861TIP3    H242219   5.325   1.358   3.098  0.5971 -0.7306 -0.0556
 6862TIP3   OH242220   5.057   5.890   7.800 -0.4100  0.0668 -0.4734
 6862TIP3    H142221   5.110   5.872   7.723  1.4614 -1.3303  1.0442
 6862TIP3    H242222   5.019   5.805   7.824 -2.3852  0.7996 -0.7894
 6863TIP3   OH242223   6.190   3.631   1.505  0.3085 -0.0357 -0.0598
 6863TIP3    H142224   6.282   3.653   1.515  0.4277 -0.7283  0.4184
 6863TIP3    H242225   6.178   3.551   1.556 -0.6853  0.3534  0.3496
 6864TIP3   OH242226   0.253   1.328   2.629 -0.6823 -0.3741  0.7923
 6864TIP3    H142227   0.347   1.344   2.632 -0.8719  0.5822  2.1223
 6864TIP3    H242228   0.213   1.415   2.632 -1.6167 -0.7609  0.1125
 6865TIP3   OH242229   0.004   5.774   2.504 -0.3746 -0.2412  0.3703
 6865TIP3    H142230   0.018   5.721   2.426  1.8125  0.8293 -0.0353
 6865TIP3    H242231  -0.063   5.838   2.477 -0.6162 -0.7154 -0.1870
 6866TIP3   OH242232   5.041   6.486   2.362 -0.4562  0.2659 -0.1471
 6866TIP3    H142233   5.074   6.514   2.447 -0.6304 -0.7395  0.2611
 6866TIP3    H242234   4.977   6.553   2.337 -0.9077  0.2015  0.8214
 6867TIP3   OH242235   2.857   1.516   3.236  0.0692  0.8467  0.2598
 6867TIP3    H142236   2.822   1.482   3.318  0.1145 -0.4886 -0.2325
 6867TIP3    H242237   2.860   1.439   3.178  2.0595  1.2977 -0.3143
 6868TIP3   OH242238   0.441   6.210   0.540  0.8286 -0.2508  0.0731
 6868TIP3    H142239   0.383   6.135   0.524  0.3303 -0.0667  0.9256
 6868TIP3    H242240   0.398   6.258   0.611  0.0728  1.9551 -1.7404
 6869TIP3   OH242241   2.650   5.902   4.032 -0.3185 -0.6616  0.0261
 6869TIP3    H142242   2.637   5.997   4.027 -0.7198 -0.4993  2.5627
 6869TIP3    H242243   2.568   5.869   4.069 -0.5267 -2.1641 -1.6173
 6870TIP3   OH242244   4.526   2.663   2.357 -0.2577  0.5251  0.3175
 6870TIP3    H142245   4.566   2.681   2.272  0.9504  1.3200  1.0296
 6870TIP3    H242246   4.548   2.738   2.411 -0.8406 -0.0534  1.4021
 6871TIP3   OH242247   2.116   3.858   2.412 -0.8180 -0.2158  0.4575
 6871TIP3    H142248   2.137   3.856   2.319  1.5136  0.1741  0.9283
 6871TIP3    H242249   2.112   3.951   2.435  1.6038 -0.2352  1.2853
 6872TIP3   OH242250   7.061   3.480   0.577 -0.1024  0.2328  0.0089
 6872TIP3    H142251   6.984   3.478   0.634 -0.5167  1.0726 -0.4856
 6872TIP3    H242252   7.123   3.419   0.616  0.6400  2.5480  2.7847
 6873TIP3   OH242253   2.345   0.372   7.390 -0.0255 -0.0013 -0.0430
 6873TIP3    H142254   2.385   0.330   7.314 -1.7659  0.7202 -1.4216
 6873TIP3    H242255   2.407   0.441   7.414  0.9558 -0.7921 -0.2522
 6874TIP3   OH242256   5.722   0.878   3.254 -0.2450  0.0672 -0.3669
 6874TIP3    H142257   5.671   0.958   3.240 -1.1673 -0.4906 -0.2766
 6874TIP3    H242258   5.664   0.821   3.305  0.4169 -0.6395 -0.3840
 6875TIP3   OH242259   1.866   1.706   0.926  0.7211  0.2763 -0.1347
 6875TIP3    H142260   1.884   1.790   0.883 -0.8071  1.4366  1.3659
 6875TIP3    H242261   1.946   1.688   0.975  1.4015  0.3660 -1.1581
 6876TIP3   OH242262   2.659   1.284   0.582 -0.4353 -0.4661  0.3713
 6876TIP3    H142263   2.663   1.314   0.673 -3.0472 -1.0981  0.7606
 6876TIP3    H242264   2.743   1.311   0.545  0.3386  0.6234  2.7059
 6877TIP3   OH242265   1.255   5.113   2.901 -0.4421 -0.2551  0.0121
 6877TIP3    H142266   1.194   5.100   2.828  0.0818  0.0793 -0.4986
 6877TIP3    H242267   1.285   5.025   2.923 -1.4601 -0.4759  0.5921
 6878TIP3   OH242268   1.593   1.757   7.495  0.3841  0.2041 -0.0154
 6878TIP3    H142269   1.551   1.780   7.578 -2.3026 -0.5676 -1.0516
 6878TIP3    H242270   1.650   1.832   7.475 -2.5083  2.7137  0.2720
 6879TIP3   OH242271   3.999   2.988   7.974  0.0285  0.2033  0.2579
 6879TIP3    H142272   3.904   2.978   7.966 -0.2681  0.1055  3.1517
 6879TIP3    H242273   4.014   3.082   7.968 -0.3974  0.3221  1.0489
 6880TIP3   OH242274   4.854   2.953   3.062  0.0842  0.7475  0.4168
 6880TIP3    H142275   4.901   3.036   3.057 -1.5068  1.6906  0.6808
 6880TIP3    H242276   4.794   2.963   3.136 -2.9582  0.8959 -1.8981
 6881TIP3   OH242277   1.289   0.118   2.716 -0.1141  0.2323  0.2032
 6881TIP3    H142278   1.347   0.171   2.771 -0.4776 -1.1409  2.0128
 6881TIP3    H242279   1.201   0.151   2.735 -0.3601 -1.0468  1.4697
 6882TIP3   OH242280   3.362   6.387   3.677 -0.0525 -0.2117 -0.2262
 6882TIP3    H142281   3.389   6.305   3.637 -0.4238 -0.5050  0.1225
 6882TIP3    H242282   3.409   6.391   3.760 -0.5393 -0.3833  0.0560
 6883TIP3   OH242283   5.846   0.830   1.560  0.4354  0.1199  0.1299
 6883TIP3    H142284   5.754   0.810   1.572  0.3587 -0.0590 -0.7463
 6883TIP3    H242285   5.873   0.868   1.644 -0.7326  1.3051 -0.0044
 6884TIP3   OH242286   0.308   0.753   1.855 -0.3739  0.1013  0.5444
 6884TIP3    H142287   0.278   0.681   1.801 -0.4371 -1.0600  2.0604
 6884TIP3    H242288   0.248   0.825   1.834 -1.7633 -0.9819  0.6368
 6885TIP3   OH242289   3.889   2.568   0.403  0.0920  0.0611 -0.1452
 6885TIP3    H142290   3.965   2.544   0.350  0.2956 -0.1873  0.2571
 6885TIP3    H242291   3.899   2.519   0.485 -1.7845 -1.8864 -1.0112
 6886TIP3   OH242292   0.771   3.745   1.626  0.3859 -0.1699  1.0845
 6886TIP3    H142293   0.838   3.676   1.620 -1.4348 -2.1023  1.5664
 6886TIP3    H242294   0.743   3.759   1.536 -0.5262 -1.4781  1.1369
 6887TIP3   OH242295   0.450   5.740   1.546 -0.1067 -0.2311  0.2262
 6887TIP3    H142296   0.468   5.764   1.455 -1.1982  1.4663  0.4222
 6887TIP3    H242297   0.532   5.703   1.578  0.7938  0.6597 -0.9793
 6888TIP3   OH242298   6.193   1.506   2.401  0.1075 -0.0127 -0.2373
 6888TIP3    H142299   6.255   1.529   2.331 -0.4879 -1.6736 -1.3691
 6888TIP3    H242300   6.178   1.588   2.448  0.8616  1.0582 -1.7915
 6889TIP3   OH242301   0.504   4.294   1.665  0.3983  0.4577  0.3882
 6889TIP3    H142302   0.490   4.341   1.747  1.4478  1.7654 -0.1488
 6889TIP3    H242303   0.503   4.363   1.598 -3.7447 -0.8260 -1.2004
 6890TIP3   OH242304   1.425   0.288   2.971 -0.0832  0.1433 -0.3060
 6890TIP3    H142305   1.474   0.323   3.045 -1.3082 -1.3307  1.2656
 6890TIP3    H242306   1.345   0.340   2.968 -1.4371 -1.6946  1.3961
 6891TIP3   OH242307   5.537   2.772   2.960 -0.2171 -0.1934 -0.1593
 6891TIP3    H142308   5.562   2.694   3.009  3.2217  1.0392  0.2880
 6891TIP3    H242309   5.544   2.746   2.868 -0.3483 -0.7227 -0.0249
 6892TIP3   OH242310   6.743   2.187   7.941 -0.5204 -0.1152 -0.3592
 6892TIP3    H142311   6.796   2.126   7.890 -0.3599  0.3354 -0.7413
 6892TIP3    H242312   6.679   2.222   7.878  0.0810  0.9162 -0.4177
 6893TIP3   OH242313   2.907   0.041   1.408  0.3994 -0.5888  0.4728
 6893TIP3    H142314   2.834   0.102   1.390 -0.2390 -1.8280 -1.4085
 6893TIP3    H242315   2.892   0.013   1.498  0.7601  2.0404  1.4455
 6894TIP3   OH242316   6.633   1.475   0.741 -0.0513 -0.1268 -0.5471
 6894TIP3    H142317   6.621   1.569   0.751 -1.3405 -0.2865 -0.4568
 6894TIP3    H242318   6.627   1.441   0.830  0.5531 -0.2900 -0.5640
 6895TIP3   OH242319   0.211   0.130   0.047 -0.0804 -0.0686 -0.1990
 6895TIP3    H142320   0.276   0.200   0.060 -0.2924  0.1239 -0.1769
 6895TIP3    H242321   0.246   0.079  -0.027 -0.2543  0.4467 -0.6460
 6896TIP3   OH242322   2.569   2.536   1.033  0.1308  0.0837  0.0395
 6896TIP3    H142323   2.549   2.443   1.039  0.7442 -0.0385  0.3939
 6896TIP3    H242324   2.487   2.578   1.009 -0.0042 -0.6170 -0.7704
 6897TIP3   OH242325   1.730   0.851   1.953  0.3341  0.2807 -0.2518
 6897TIP3    H142326   1.754   0.775   2.007 -0.1801  0.9558  0.9830
 6897TIP3    H242327   1.635   0.855   1.958  0.4185  1.8565  0.9774
 6898TIP3   OH242328   4.571   4.254   0.413  0.6012 -0.3410 -0.9588
 6898TIP3    H142329   4.660   4.222   0.429 -0.3212 -1.6486  2.6131
 6898TIP3    H242330   4.568   4.340   0.456  0.1223 -0.3564 -0.9527
 6899TIP3   OH242331   3.396   0.283   2.236 -0.1653  0.3805  0.1561
 6899TIP3    H142332   3.399   0.259   2.328 -0.7660  0.0212  0.0914
 6899TIP3    H242333   3.372   0.201   2.191 -1.4448  0.8965 -0.1556
 6900TIP3   OH242334   4.621   0.936   2.229  0.3643  0.3795 -0.2202
 6900TIP3    H142335   4.536   0.893   2.219 -0.7934  1.5963  2.9159
 6900TIP3    H242336   4.653   0.905   2.314  1.3537  2.6190  0.2909
 6901TIP3   OH242337   0.302   2.135   0.139  0.0539 -0.2467 -0.9813
 6901TIP3    H142338   0.317   2.091   0.223  0.3123 -0.2455 -1.0251
 6901TIP3    H242339   0.270   2.222   0.164 -2.2458 -1.0477 -0.9091
 6902TIP3   OH242340   6.254   5.027   2.602 -0.2199  0.3401 -0.1144
 6902TIP3    H142341   6.185   5.002   2.539  0.4318 -0.5517 -0.4882
 6902TIP3    H242342   6.329   5.049   2.547  0.1145  0.3089  0.3270
 6903TIP3   OH242343   1.691   2.966   7.384 -0.6958 -0.4367  0.4772
 6903TIP3    H142344   1.777   2.958   7.428  0.7279  2.0902 -1.5623
 6903TIP3    H242345   1.680   2.883   7.338 -0.4443 -1.6655  2.5010
 6904TIP3   OH242346   3.869   5.706   7.928 -0.0036 -0.2479 -0.2037
 6904TIP3    H142347   3.790   5.733   7.882  0.9798  0.2898 -1.6644
 6904TIP3    H242348   3.939   5.755   7.885  0.9854  0.4118  1.9999
 6905TIP3   OH242349   6.244   6.960   2.532 -0.0945  0.1090  0.3886
 6905TIP3    H142350   6.295   6.881   2.545 -1.3658 -0.5176  1.8768
 6905TIP3    H242351   6.180   6.936   2.464 -0.0340  0.0839  0.3403
 6906TIP3   OH242352   3.742   4.838   0.524 -0.3802  0.0176  0.7561
 6906TIP3    H142353   3.776   4.851   0.436 -2.8478  0.5607 -0.1856
 6906TIP3    H242354   3.674   4.771   0.514  0.0226 -0.7129  2.4626
 6907TIP3   OH242355   2.489   1.492   0.792  0.3205 -0.8542  0.0577
 6907TIP3    H142356   2.517   1.428   0.857 -0.8103 -0.3349  1.1004
 6907TIP3    H242357   2.557   1.559   0.792  1.4616 -1.9779 -0.9701
 6908TIP3   OH242358   1.334   2.412   0.832 -0.4486  0.2545  0.2166
 6908TIP3    H142359   1.378   2.361   0.763  0.4911  0.4722  0.6384
 6908TIP3    H242360   1.283   2.348   0.880  1.2997 -0.4669  1.2006
 6909TIP3   OH242361   6.089   4.108   2.213 -0.1588 -0.7834  0.1512
 6909TIP3    H142362   6.119   4.017   2.223 -1.7488 -1.3683 -0.0267
 6909TIP3    H242363   6.072   4.117   2.119  3.7005  1.0058 -0.5555
 6910TIP3   OH242364   1.097   4.464   1.105 -0.2699 -0.3340  0.4282
 6910TIP3    H142365   1.165   4.402   1.079 -0.9732 -0.6345 -0.7516
 6910TIP3    H242366   1.055   4.423   1.181 -0.1023 -0.8489  0.2475
 6911TIP3   OH242367   1.377   4.828   2.907  0.8249  0.2746 -0.3710
 6911TIP3    H142368   1.311   4.840   2.976  0.0411  0.5994 -1.1512
 6911TIP3    H242369   1.434   4.759   2.939 -0.2651 -0.4445  0.0711
 6912TIP3   OH242370   1.518   4.588   1.988 -0.1516 -0.2725  0.6657
 6912TIP3    H142371   1.541   4.541   2.068 -1.0906  0.3991  1.3489
 6912TIP3    H242372   1.425   4.609   1.998 -0.2979 -0.2162 -0.6277
 6913TIP3   OH242373   3.478   2.698   8.101  0.4658 -0.3260 -0.3055
 6913TIP3    H142374   3.452   2.610   8.127  1.6236 -0.3271  0.9736
 6913TIP3    H242375   3.433   2.755   8.163 -0.9396  0.0818 -1.6374
 6914TIP3   OH242376   0.951   5.628   3.083 -0.3883  0.4196  0.0832
 6914TIP3    H142377   0.899   5.669   3.015 -0.6262  1.3338  0.7949
 6914TIP3    H242378   0.887   5.586   3.140 -0.2553  0.4209  0.2360
 6915TIP3   OH242379   1.015   6.962   2.209  0.4606 -0.5144 -0.3243
 6915TIP3    H142380   1.063   6.892   2.165  2.1210  0.4982 -0.2061
 6915TIP3    H242381   0.968   6.918   2.280  2.6517 -1.3437  0.6871
 6916TIP3   OH242382   0.989   2.259   2.068  0.0304 -0.2469  0.2297
 6916TIP3    H142383   0.918   2.269   2.003 -0.6944 -0.3029  0.9975
 6916TIP3    H242384   1.064   2.303   2.028 -0.3642 -0.3750 -0.7001
 6917TIP3   OH242385   3.608   5.568   0.577  0.2734  0.1657 -0.0192
 6917TIP3    H142386   3.667   5.612   0.517 -0.0774 -2.4120 -2.5148
 6917TIP3    H242387   3.523   5.611   0.563  0.4772  0.4422 -0.4406
 6918TIP3   OH242388   0.483   3.986   1.982 -0.7204 -0.2679  0.5319
 6918TIP3    H142389   0.528   4.052   1.930 -0.4809  0.3168  1.4681
 6918TIP3    H242390   0.526   3.904   1.960  0.4708  0.2094  1.0269
 6919TIP3   OH242391   2.111   2.776   7.580  0.2785  0.3251 -0.5454
 6919TIP3    H142392   2.114   2.849   7.519 -0.7842 -0.0631 -1.0992
 6919TIP3    H242393   2.106   2.698   7.524 -1.4962 -0.0030  0.0103
 6920TIP3   OH242394   1.692   0.437   2.459  0.2150  0.5904  0.5480
 6920TIP3    H142395   1.598   0.451   2.468  0.5814  3.7212  0.4200
 6920TIP3    H242396   1.710   0.448   2.366  0.8295  1.0978  0.7151
 6921TIP3   OH242397   5.856   2.848   2.022 -0.6617  0.2297  0.0226
 6921TIP3    H142398   5.874   2.941   2.005 -0.7474  0.1769 -0.3758
 6921TIP3    H242399   5.764   2.847   2.049 -0.5624  0.2994  0.3661
 6922TIP3   OH242400   2.832   3.070   1.509  0.5824 -0.2980 -0.4905
 6922TIP3    H142401   2.768   3.073   1.438  0.4611  0.0267 -0.3683
 6922TIP3    H242402   2.900   3.132   1.484  0.3874  0.0436 -0.1801
 6923TIP3   OH242403   0.433   0.287   0.086 -0.0720 -0.4437 -0.7423
 6923TIP3    H142404   0.517   0.309   0.127 -0.1978  0.2180 -0.8330
 6923TIP3    H242405   0.451   0.290  -0.008  0.0826 -1.4327 -0.7546
 6924TIP3   OH242406   6.916   1.028   2.059  0.1834  0.1227  0.1526
 6924TIP3    H142407   6.973   1.004   1.986  1.8762  1.5587  0.9306
 6924TIP3    H242408   6.968   1.090   2.110 -0.8926 -0.9004  2.6444
 6925TIP3   OH242409   2.620   1.448   7.657 -0.1621 -0.5016 -0.2272
 6925TIP3    H142410   2.635   1.408   7.743 -1.2915  0.1106  0.2706
 6925TIP3    H242411   2.554   1.515   7.673  0.5669  0.5095 -1.3418
 6926TIP3   OH242412   1.133   0.414   1.211 -0.2700 -0.7234  0.2320
 6926TIP3    H142413   1.148   0.363   1.131 -0.8879 -0.8814  0.2183
 6926TIP3    H242414   1.209   0.394   1.266  0.1863 -0.5724 -0.3329
 6927TIP3   OH242415   4.439   3.226   2.373 -0.1795 -0.0240  0.4201
 6927TIP3    H142416   4.518   3.174   2.359 -0.7015 -0.9705  0.9012
 6927TIP3    H242417   4.470   3.307   2.414  0.7667  0.5642 -1.3710
 6928TIP3   OH242418   4.883   5.166   7.985 -0.4627  0.5626 -0.1126
 6928TIP3    H142419   4.923   5.185   7.900 -0.2336 -0.1699 -0.1712
 6928TIP3    H242420   4.794   5.201   7.977 -0.2448  1.0616 -0.4294
 6929TIP3   OH242421   5.306   5.381   0.524  0.3374  0.1336 -0.2603
 6929TIP3    H142422   5.237   5.352   0.464  0.8107 -0.2005 -0.6501
 6929TIP3    H242423   5.371   5.311   0.522  0.0989 -0.1434  1.0961
 6930TIP3   OH242424   2.693   6.185   1.754  0.1055  0.4453  0.1040
 6930TIP3    H142425   2.717   6.213   1.666 -0.7089 -1.5202 -0.7896
 6930TIP3    H242426   2.774   6.146   1.789 -0.1799 -0.9475 -0.7174
 6931TIP3   OH242427   1.713   6.128   3.780 -0.0651 -0.0881  0.5527
 6931TIP3    H142428   1.629   6.146   3.822 -1.5746  0.1542 -2.2666
 6931TIP3    H242429   1.749   6.215   3.761 -0.0404 -0.1627  0.2402
 6932TIP3   OH242430   1.259   6.831   0.032 -0.0493  0.2095 -0.4870
 6932TIP3    H142431   1.190   6.826   0.099 -0.3789  1.2651 -0.7236
 6932TIP3    H242432   1.338   6.802   0.078 -0.5226 -0.3703 -0.0202
 6933TIP3   OH242433   1.611   6.712   7.579  0.3387 -0.2514  0.0928
 6933TIP3    H142434   1.582   6.802   7.567  1.9203  0.0937 -1.5575
 6933TIP3    H242435   1.543   6.660   7.536  0.2760  0.2922 -0.4892
 6934TIP3   OH242436   6.016   3.355   8.205 -0.2358 -0.1271  0.3704
 6934TIP3    H142437   6.014   3.279   8.263 -1.4765  0.8945  1.7250
 6934TIP3    H242438   6.107   3.386   8.210  0.2979 -1.5071 -0.2326
 6935TIP3   OH242439   1.327   2.057   0.309  0.4755  0.2357 -0.0441
 6935TIP3    H142440   1.324   2.023   0.398 -3.6948  0.8277  0.1983
 6935TIP3    H242441   1.323   1.978   0.254 -1.7478 -0.0220  0.4166
 6936TIP3   OH242442   5.927   5.595   2.327  0.1622  0.5678  0.2201
 6936TIP3    H142443   5.875   5.543   2.265  2.6026 -0.2991 -1.2637
 6936TIP3    H242444   5.868   5.664   2.356 -2.4677 -1.5594  0.3486
 6937TIP3   OH242445   2.993   2.622   8.175 -0.3446 -0.4621 -0.7678
 6937TIP3    H142446   2.928   2.593   8.239  0.8697  0.5863  1.0420
 6937TIP3    H242447   3.030   2.702   8.213  0.3690  0.2795 -2.8662
 6938TIP3   OH242448   4.078   2.621   2.457 -0.1841  0.2923  0.1859
 6938TIP3    H142449   4.093   2.715   2.451 -0.1714  0.2498 -0.5209
 6938TIP3    H242450   4.072   2.603   2.551  0.6826  0.8561  0.3581
 6939TIP3   OH242451   1.677   2.273   3.023 -0.3879 -0.0038 -0.1461
 6939TIP3    H142452   1.676   2.213   2.949 -0.8696 -0.9930  0.6439
 6939TIP3    H242453   1.769   2.279   3.048 -0.0844  1.0938 -1.3952
 6940TIP3   OH242454   3.977   1.888   1.821 -0.4998 -0.0059  0.6058
 6940TIP3    H142455   4.069   1.913   1.822 -0.5762  0.2683  0.6935
 6940TIP3    H242456   3.964   1.840   1.903 -0.3356 -0.4076  0.4015
 6941TIP3   OH242457   4.530   2.605   3.246 -0.4181  0.2828 -0.1947
 6941TIP3    H142458   4.621   2.577   3.262 -0.0395  1.8082  0.5083
 6941TIP3    H242459   4.539   2.692   3.208 -1.5707 -0.2174 -1.7026
 6942TIP3   OH242460   6.128   1.762   2.187  0.7006 -0.1864  0.2893
 6942TIP3    H142461   6.034   1.776   2.188  0.5128 -1.3105  0.1625
 6942TIP3    H242462   6.159   1.801   2.269  0.7392  3.7036 -1.3494
 6943TIP3   OH242463   6.053   1.136   0.991  0.4945 -0.1123  0.4098
 6943TIP3    H142464   6.064   1.155   0.898  1.4248 -0.8866  0.3373
 6943TIP3    H242465   6.020   1.217   1.030 -0.7119 -0.0386 -0.7283
 6944TIP3   OH242466   1.917   2.965   1.990 -0.0789 -0.0904 -0.2130
 6944TIP3    H142467   1.825   2.968   2.016 -0.0504  0.1802 -0.1392
 6944TIP3    H242468   1.963   2.931   2.067  0.0259  0.8615  0.1562
 6945TIP3   OH242469   2.574   1.613   2.462  0.1057  0.3342 -0.7480
 6945TIP3    H142470   2.483   1.635   2.479 -1.1529 -4.2402 -0.2877
 6945TIP3    H242471   2.621   1.639   2.541 -1.3254  0.2150  0.1595
 6946TIP3   OH242472   2.186   0.043   2.434 -0.3339 -0.3954  0.6724
 6946TIP3    H142473   2.186   0.128   2.390 -0.2670 -0.4219  0.6199
 6946TIP3    H242474   2.271   0.039   2.479  0.7679 -1.4601 -1.3500
 6947TIP3   OH242475   5.776   2.374   2.344 -0.3668  0.2161 -0.1920
 6947TIP3    H142476   5.684   2.382   2.372  0.2968 -0.5675  2.4434
 6947TIP3    H242477   5.826   2.378   2.425  2.1049  2.1982 -1.6612
 6948TIP3   OH242478   4.538   1.804   2.499 -0.0785 -0.3326 -0.0032
 6948TIP3    H142479   4.587   1.744   2.555  0.6807  0.3537  0.0909
 6948TIP3    H242480   4.600   1.828   2.430  0.3609  1.9202  1.0840
 6949TIP3   OH242481   2.456   0.222   1.633  0.6609 -0.2804 -0.8305
 6949TIP3    H142482   2.496   0.204   1.719 -1.8721  0.7106  0.6666
 6949TIP3    H242483   2.481   0.313   1.615  1.8780 -0.7410 -1.6063
 6950TIP3   OH242484   4.847   2.866   1.484  0.2408  0.2633 -0.2577
 6950TIP3    H142485   4.892   2.821   1.413 -0.5225 -1.6183  0.3951
 6950TIP3    H242486   4.788   2.800   1.521 -0.0258  1.4414  1.5596
 6951TIP3   OH242487   3.481   6.819   1.693 -0.1127 -0.0490 -0.1376
 6951TIP3    H142488   3.474   6.724   1.709  1.0289 -0.0045  0.7506
 6951TIP3    H242489   3.567   6.830   1.653 -0.1114  0.6568  0.0549
 6952TIP3   OH242490   6.764   6.657   2.867  0.8694  0.1583 -0.4572
 6952TIP3    H142491   6.712   6.646   2.946  1.0042 -0.2055 -0.4198
 6952TIP3    H242492   6.834   6.592   2.874 -0.2367 -1.2414 -1.7963
 6953TIP3   OH242493   1.211   2.466   1.929 -0.6120  0.0173  0.3570
 6953TIP3    H142494   1.256   2.471   2.013 -1.6153 -0.1197  0.9152
 6953TIP3    H242495   1.227   2.377   1.898  0.2102  0.2334  0.1359
 6954TIP3   OH242496   0.559   5.154   7.346  0.5231  0.1643 -0.3565
 6954TIP3    H142497   0.641   5.111   7.371 -0.2981 -1.9294 -1.0807
 6954TIP3    H242498   0.525   5.101   7.274 -1.4300  1.0473 -0.1361
 6955TIP3   OH242499   2.684   6.769   1.463  0.4333  0.1525 -0.3980
 6955TIP3    H142500   2.648   6.741   1.379  1.7981  0.7198 -1.2056
 6955TIP3    H242501   2.777   6.786   1.445  0.3389  2.2040  0.7600
 6956TIP3   OH242502   1.099   2.144   6.947 -0.4630  0.2343 -0.1978
 6956TIP3    H142503   1.146   2.080   7.000  1.1256 -0.1666 -1.9892
 6956TIP3    H242504   1.012   2.148   6.986 -0.6718 -3.1209 -0.0714
 6957TIP3   OH242505   4.844   1.082   1.221 -0.1705 -0.0519 -0.0487
 6957TIP3    H142506   4.853   0.987   1.217 -0.2562 -0.0959  0.6735
 6957TIP3    H242507   4.758   1.097   1.259  1.0213  0.2497  2.8110
 6958TIP3   OH242508   0.312   4.913   0.893 -0.2973  0.0639  0.0574
 6958TIP3    H142509   0.289   4.907   0.986 -5.1615 -0.2416 -0.9162
 6958TIP3    H242510   0.289   5.003   0.869 -0.4026 -0.2581 -1.0913
 6959TIP3   OH242511   3.044   0.124   1.996 -0.2057  0.6668 -1.0601
 6959TIP3    H142512   3.023   0.198   2.053  0.6599 -0.3794  0.7447
 6959TIP3    H242513   3.130   0.094   2.028 -1.2664 -2.1338 -0.5311
 6960TIP3   OH242514   1.251   4.111   3.235 -0.2603 -0.1038 -0.7228
 6960TIP3    H142515   1.157   4.117   3.222 -0.4768 -0.4016  0.5770
 6960TIP3    H242516   1.278   4.038   3.179 -0.6391  0.5457 -1.7835
 6961TIP3   OH242517   0.274   0.902   2.747 -0.0427  1.0711 -0.0645
 6961TIP3    H142518   0.273   0.846   2.825 -0.7751 -0.7869 -1.3311
 6961TIP3    H242519   0.184   0.899   2.714  0.3636  1.4084 -1.2502
 6962TIP3   OH242520   5.655   6.178   1.492  0.5207 -0.0744 -0.2080
 6962TIP3    H142521   5.729   6.123   1.517  0.5338  0.9917  2.4473
 6962TIP3    H242522   5.647   6.241   1.563 -1.6886  1.1433 -1.4165
 6963TIP3   OH242523   0.130   4.426   8.249 -0.5569  0.5424  0.0073
 6963TIP3    H142524   0.037   4.423   8.225 -0.6642 -1.4594  0.5246
 6963TIP3    H242525   0.135   4.377   8.331  0.6767  2.3912  1.1247
 6964TIP3   OH242526   3.435   1.452   1.148 -0.2428  0.1973  0.2276
 6964TIP3    H142527   3.408   1.396   1.076  3.0195  0.3051 -1.2830
 6964TIP3    H242528   3.449   1.538   1.109  2.5557  0.0292  0.6040
 6965TIP3   OH242529   1.486   6.647   2.156  0.1312  0.2172  0.1941
 6965TIP3    H142530   1.534   6.569   2.127 -0.7484  0.6647 -2.8691
 6965TIP3    H242531   1.539   6.720   2.125 -0.7592  0.7491 -0.1300
 6966TIP3   OH242532   6.220   1.708   0.786 -0.0234  0.1646  0.1615
 6966TIP3    H142533   6.233   1.793   0.745  0.6448 -0.2110 -0.4382
 6966TIP3    H242534   6.152   1.666   0.733 -0.1870  0.2379  0.3145
 6967TIP3   OH242535   3.611   5.570   4.099  0.2595 -0.1648 -0.1604
 6967TIP3    H142536   3.682   5.583   4.162 -0.3027  0.4138  0.3685
 6967TIP3    H242537   3.653   5.528   4.024  0.7471 -1.9549  1.0372
 6968TIP3   OH242538   4.672   5.778   1.712  0.4615  0.6731 -0.0661
 6968TIP3    H142539   4.680   5.738   1.625 -0.4019 -1.0191  0.5883
 6968TIP3    H242540   4.603   5.844   1.701 -0.1092  0.0201 -0.5282
 6969TIP3   OH242541   5.474   1.816   1.919 -0.1302  1.1039 -0.4864
 6969TIP3    H142542   5.467   1.834   2.013 -2.1281  0.0568 -0.3907
 6969TIP3    H242543   5.560   1.775   1.909 -0.8000 -0.9220  1.2958
 6970TIP3   OH242544   6.191   3.833   2.165  0.1632  0.4372  0.1190
 6970TIP3    H142545   6.252   3.805   2.234  0.8403  1.2747 -0.1211
 6970TIP3    H242546   6.118   3.773   2.172  0.5589  0.0482  1.0972
 6971TIP3   OH242547   0.369   5.915   1.084 -0.4617 -0.5504  0.4811
 6971TIP3    H142548   0.359   5.919   0.989 -0.4439 -3.1469  0.2815
 6971TIP3    H242549   0.422   5.991   1.106 -1.6122  0.8806 -1.3756
 6972TIP3   OH242550   2.813   6.398   1.145 -0.2420  0.4379 -0.0441
 6972TIP3    H142551   2.865   6.477   1.132  0.7897  0.0072  1.2635
 6972TIP3    H242552   2.745   6.424   1.208 -0.2846  0.4524 -0.0965
 6973TIP3   OH242553   2.320   4.206   0.008  0.0606  0.4925  0.1055
 6973TIP3    H142554   2.395   4.151  -0.015  0.2324  0.7265  0.1096
 6973TIP3    H242555   2.268   4.151   0.067  0.1769  0.2930  0.0236
 6974TIP3   OH242556   4.829   6.140   3.287 -0.3980  0.5942 -0.5195
 6974TIP3    H142557   4.768   6.087   3.338 -1.8325  1.0696 -1.6775
 6974TIP3    H242558   4.912   6.135   3.336 -1.4067  0.1383  1.2326
 6975TIP3   OH242559   2.180   5.353   1.009 -0.1665 -0.0875 -0.0381
 6975TIP3    H142560   2.188   5.285   1.075  1.2426 -1.1664 -1.2405
 6975TIP3    H242561   2.089   5.382   1.013 -0.2691 -0.5935  1.8781
 6976TIP3   OH242562   2.396   4.962   2.367 -0.4552  0.2700 -0.2207
 6976TIP3    H142563   2.307   4.930   2.355 -0.6291  0.5384  0.2796
 6976TIP3    H242564   2.406   4.967   2.462  1.5482 -3.7486 -0.0277
 6977TIP3   OH242565   1.281   3.999   2.190  0.6125 -0.0752 -0.1364
 6977TIP3    H142566   1.257   4.085   2.225 -1.7904 -1.0428  0.8215
 6977TIP3    H242567   1.366   3.980   2.228  1.9815  2.4710 -1.5848
 6978TIP3   OH242568   4.428   2.387   3.114  0.2941 -0.2718  0.0400
 6978TIP3    H142569   4.446   2.463   3.170  2.4454 -0.4968 -0.2577
 6978TIP3    H242570   4.355   2.342   3.157 -1.3202  2.1333  0.0062
 6979TIP3   OH242571   2.156   1.229   2.515  0.7688  0.4438 -0.2053
 6979TIP3    H142572   2.218   1.196   2.580  1.7950  1.2730 -0.7336
 6979TIP3    H242573   2.170   1.173   2.438 -1.0573 -1.1117  0.5030
 6980TIP3   OH242574   5.946   5.893   8.139 -0.2426 -0.7322 -0.0725
 6980TIP3    H142575   6.005   5.869   8.210 -0.5251 -0.0988  0.3813
 6980TIP3    H242576   5.989   5.860   8.060  0.7133 -0.2843  0.2543
 6981TIP3   OH242577   0.707   3.275   2.490 -0.0835 -0.2192 -0.0714
 6981TIP3    H142578   0.714   3.371   2.489  0.9425 -0.2665  0.3890
 6981TIP3    H242579   0.656   3.254   2.412  1.7543  0.5770 -1.5939
 6982TIP3   OH242580   6.428   2.054   2.737 -0.2290  0.3814 -0.0534
 6982TIP3    H142581   6.375   2.081   2.812  0.9524  0.8668  0.6255
 6982TIP3    H242582   6.471   1.974   2.767  0.5334  0.7828 -0.0715
 6983TIP3   OH242583   5.501   2.910   1.436  0.1741  0.9415 -0.0804
 6983TIP3    H142584   5.553   2.843   1.392  1.8171  2.3788 -0.4300
 6983TIP3    H242585   5.563   2.958   1.490 -0.8149  2.5534 -0.2957
 6984TIP3   OH242586   0.771   2.995   1.089 -0.4031 -0.4140  0.5399
 6984TIP3    H142587   0.831   3.070   1.089  1.1897 -1.6324  1.2043
 6984TIP3    H242588   0.806   2.937   1.022 -2.7184  0.1923 -1.3146
 6985TIP3   OH242589   0.947   0.708   8.152  0.4871 -0.5982  0.0348
 6985TIP3    H142590   0.966   0.664   8.235 -0.9417 -1.3215  0.0111
 6985TIP3    H242591   0.863   0.752   8.167 -0.8573 -2.4229 -1.6081
 6986TIP3   OH242592   4.271   0.413   2.508  0.9261 -0.7015 -0.4720
 6986TIP3    H142593   4.195   0.471   2.514 -0.3096 -2.3954  2.8395
 6986TIP3    H242594   4.346   0.470   2.525  0.3078  0.6922 -2.0863
 6987TIP3   OH242595   1.429   1.887   7.300  0.1825  0.3087 -0.5161
 6987TIP3    H142596   1.495   1.837   7.349 -2.1153 -0.4268  2.0429
 6987TIP3    H242597   1.447   1.978   7.323 -0.6083  0.0071  1.5480
 6988TIP3   OH242598   0.741   1.075   7.878  0.3197  0.3000  0.3841
 6988TIP3    H142599   0.795   1.038   7.808 -1.8194 -1.5655 -0.4319
 6988TIP3    H242600   0.737   1.169   7.859  4.7214  0.9263  1.6269
 6989TIP3   OH242601   1.585   3.727   0.744 -0.3200  0.4970 -0.0071
 6989TIP3    H142602   1.555   3.708   0.655  0.7138 -1.2384 -0.0375
 6989TIP3    H242603   1.598   3.821   0.746  0.2394  0.4838 -1.8975
 6990TIP3   OH242604   4.887   0.756   3.110  0.0976  0.5524  0.2064
 6990TIP3    H142605   4.838   0.811   3.048 -0.9763  0.0266  0.5606
 6990TIP3    H242606   4.869   0.666   3.081  1.4951  0.3547 -0.1169
 6991TIP3   OH242607   1.356   1.467   1.249  0.4651 -0.0249 -0.0704
 6991TIP3    H142608   1.290   1.465   1.318  0.7390 -0.3536  0.1838
 6991TIP3    H242609   1.313   1.510   1.176 -0.5601 -1.5950 -0.4394
 6992TIP3   OH242610   6.183   0.718   1.692  0.3244 -0.0132  0.1241
 6992TIP3    H142611   6.269   0.678   1.703 -0.2426 -0.8431  1.8310
 6992TIP3    H242612   6.142   0.669   1.621 -0.2141 -2.3430  1.9084
 6993TIP3   OH242613   3.438   3.136   1.659  0.2343 -0.2017  0.5862
 6993TIP3    H142614   3.523   3.096   1.643  0.5510 -0.3471  2.4480
 6993TIP3    H242615   3.377   3.062   1.665 -0.0245 -0.1072 -0.5544
 6994TIP3   OH242616   2.672   2.787   3.239  0.4901 -0.4438  0.1491
 6994TIP3    H142617   2.654   2.695   3.260 -2.8945 -0.2758 -1.3245
 6994TIP3    H242618   2.700   2.785   3.148 -1.0172  0.0392 -0.3507
 6995TIP3   OH242619   6.790   3.585   1.244 -0.1769 -0.3665 -0.1257
 6995TIP3    H142620   6.707   3.585   1.196  0.2406  1.7184 -0.9614
 6995TIP3    H242621   6.789   3.667   1.294  1.2953 -0.3737 -0.0413
 6996TIP3   OH242622   3.809   2.578   2.541 -0.4058  0.3509 -0.5496
 6996TIP3    H142623   3.729   2.526   2.529 -0.2248  0.0551 -0.4787
 6996TIP3    H242624   3.852   2.575   2.456  1.5651 -2.8784  0.3569
 6997TIP3   OH242625   1.061   3.963   2.360 -0.2051 -0.2184 -0.3939
 6997TIP3    H142626   1.112   3.984   2.439 -1.5192 -1.8514  0.9645
 6997TIP3    H242627   1.126   3.941   2.294  1.0673  3.5215 -0.6172
 6998TIP3   OH242628   4.232   1.469   1.123  0.1057 -0.3324  0.2561
 6998TIP3    H142629   4.195   1.390   1.084  0.5758 -0.5927  0.3330
 6998TIP3    H242630   4.244   1.529   1.050  0.2220 -0.5184  0.1222
 6999TIP3   OH242631   3.225   1.875   0.340  0.2170 -0.1074 -0.1046
 6999TIP3    H142632   3.289   1.822   0.293  1.3663  1.7748 -0.7736
 6999TIP3    H242633   3.260   1.881   0.429 -1.2174 -2.4662  0.7117
 7000TIP3   OH242634   5.451   2.192   2.359  0.5379  0.0274 -0.4959
 7000TIP3    H142635   5.500   2.239   2.426 -0.9659  0.1646  0.5725
 7000TIP3    H242636   5.475   2.234   2.277  1.1904  0.9329  0.1452
 7001TIP3   OH242637   5.441   6.113   1.034  0.2699  0.5650 -0.3769
 7001TIP3    H142638   5.349   6.140   1.033  0.3453  0.8902  0.6158
 7001TIP3    H242639   5.452   6.067   1.117  1.3390  1.7601  0.1805
 7002TIP3   OH242640   2.050   6.538   2.233  0.1437  0.5310  0.5155
 7002TIP3    H142641   1.958   6.513   2.225 -0.1806  1.6956  0.3560
 7002TIP3    H242642   2.098   6.456   2.224 -0.9053 -0.2281  1.4106
 7003TIP3   OH242643   0.102   4.604   7.352 -0.3628  0.6863 -0.5882
 7003TIP3    H142644   0.089   4.532   7.290  0.1971  0.3436 -0.3218
 7003TIP3    H242645   0.157   4.566   7.421 -0.1553  1.3375 -0.3865
 7004TIP3   OH242646   1.942   0.936   2.301 -0.7105 -0.4119 -0.3178
 7004TIP3    H142647   1.904   1.006   2.354  0.9178  2.4053 -2.6032
 7004TIP3    H242648   2.011   0.899   2.356 -0.9310  0.4426  0.5656
 7005TIP3   OH242649   0.716   6.205   1.447  0.3632 -0.0108 -0.4797
 7005TIP3    H142650   0.777   6.240   1.382  0.3426  1.5789  0.3092
 7005TIP3    H242651   0.735   6.255   1.527 -0.0062 -1.5123  0.5935
 7006TIP3   OH242652   4.806   5.064   1.754  0.1065 -0.2997  0.3800
 7006TIP3    H142653   4.774   5.134   1.812 -0.6011 -0.8812  0.6936
 7006TIP3    H242654   4.738   4.997   1.757  0.4255 -0.6696 -0.5339
 7007TIP3   OH242655   4.194   1.072   1.131 -0.5945  0.1082  0.6287
 7007TIP3    H142656   4.140   1.005   1.175 -0.2387 -0.3149  0.4307
 7007TIP3    H242657   4.134   1.115   1.070 -0.5272 -0.9043 -0.1751
 7008TIP3   OH242658   2.997   5.609   2.143  0.4041  0.0222  0.0358
 7008TIP3    H142659   2.934   5.681   2.151 -1.5440 -1.7662  1.6780
 7008TIP3    H242660   3.070   5.636   2.199  0.7244  1.6624 -1.0986
 7009TIP3   OH242661   4.983   3.846   1.567  0.3981  0.5693  0.4548
 7009TIP3    H142662   4.971   3.910   1.498 -0.4938  1.6752  1.5952
 7009TIP3    H242663   4.980   3.761   1.522 -1.4522  1.2088 -0.7021
 7010TIP3   OH242664   2.155   4.816   1.163  0.3061 -0.0398  0.0352
 7010TIP3    H142665   2.148   4.728   1.202 -2.0436  0.5566  1.1390
 7010TIP3    H242666   2.213   4.863   1.223  0.0392 -0.3152  0.5273
 7011TIP3   OH242667   3.019   3.527   2.010  0.6500  0.0051 -0.4799
 7011TIP3    H142668   3.013   3.604   1.953  1.4033 -0.3529 -1.0643
 7011TIP3    H242669   3.040   3.456   1.950  1.4434 -0.3841  0.2520
 7012TIP3   OH242670   4.608   5.618   3.137 -0.2222  0.2855  0.4048
 7012TIP3    H142671   4.577   5.650   3.052  0.3354  1.9141  0.7778
 7012TIP3    H242672   4.571   5.679   3.201 -0.2829 -0.6675  1.3126
 7013TIP3   OH242673   6.216   6.545   3.354  0.2888  0.1147 -0.0259
 7013TIP3    H142674   6.309   6.531   3.335  0.0549 -0.3666 -0.8689
 7013TIP3    H242675   6.207   6.526   3.447  0.9581 -0.2702 -0.0381
 7014TIP3   OH242676   1.304   4.067   0.151  0.5414  0.0577  0.0837
 7014TIP3    H142677   1.298   4.160   0.172 -0.4858 -0.0773  0.4484
 7014TIP3    H242678   1.334   4.065   0.060 -1.5909  0.8358 -0.7070
 7015TIP3   OH242679   6.662   4.926   7.645  0.1500 -0.2066  0.0699
 7015TIP3    H142680   6.713   4.984   7.588  0.7065  0.0781  0.8477
 7015TIP3    H242681   6.707   4.928   7.729  0.3427 -1.9771  0.0567
 7016TIP3   OH242682   5.808   1.143   2.198 -0.4007  0.0585  0.4359
 7016TIP3    H142683   5.843   1.228   2.227 -0.1607 -0.4026  1.5678
 7016TIP3    H242684   5.854   1.079   2.252  0.3623 -0.9116 -1.3143
 7017TIP3   OH242685   2.338   3.660   7.901  0.1423 -0.2368  0.3290
 7017TIP3    H142686   2.360   3.599   7.972 -0.0360 -2.0257 -1.0755
 7017TIP3    H242687   2.406   3.645   7.835 -0.9605 -0.2832 -0.8377
 7018TIP3   OH242688   5.951   2.761   0.611 -0.2838 -0.0732 -0.1364
 7018TIP3    H142689   6.009   2.700   0.656 -0.0287 -0.4106 -0.9078
 7018TIP3    H242690   5.896   2.706   0.555 -0.3481  0.3621 -0.5096
 7019TIP3   OH242691   4.211   2.141   7.824 -0.0582 -0.1212 -0.1935
 7019TIP3    H142692   4.294   2.185   7.841  0.2016 -0.5055 -0.4482
 7019TIP3    H242693   4.157   2.207   7.782 -0.0984  0.3177  0.5310
 7020TIP3   OH242694   2.929   5.332   2.165  0.6727 -0.0119  0.3352
 7020TIP3    H142695   2.960   5.418   2.134  1.4127 -0.7059 -0.9360
 7020TIP3    H242696   3.010   5.283   2.182  0.2516 -0.6427  0.5261
 7021TIP3   OH242697   5.525   2.582   1.366 -0.3497 -0.1092 -0.1704
 7021TIP3    H142698   5.560   2.523   1.432  1.1995  0.7421 -0.1983
 7021TIP3    H242699   5.497   2.524   1.295 -0.3305 -0.9006  0.4519
 7022TIP3   OH242700   2.788   4.436   0.336  0.0890  0.0364 -0.4352
 7022TIP3    H142701   2.774   4.524   0.301  1.4555  0.3703 -0.1735
 7022TIP3    H242702   2.700   4.398   0.338 -0.6151  1.5971  0.0227
 7023TIP3   OH242703   6.902   0.372   0.844 -0.0181 -0.6046  0.0511
 7023TIP3    H142704   6.987   0.416   0.840  0.2128 -1.1161 -1.5314
 7023TIP3    H242705   6.895   0.326   0.760 -1.1831 -1.8449  0.7882
 7024TIP3   OH242706   0.077   1.985   8.192 -0.1866  0.0923 -0.3363
 7024TIP3    H142707   0.047   1.962   8.280  0.6175 -1.6617 -0.4716
 7024TIP3    H242708   0.082   1.901   8.146 -0.6847  0.9742 -2.1066
 7025TIP3   OH242709   1.828   2.944   1.729  0.1406  0.0296 -0.0745
 7025TIP3    H142710   1.799   3.012   1.668 -2.0068 -1.1567 -0.4722
 7025TIP3    H242711   1.851   2.992   1.809  0.3510  1.3582 -0.8972
 7026TIP3   OH242712   6.045   4.223   7.437  0.4338  0.5705  0.1182
 7026TIP3    H142713   6.023   4.133   7.461  2.3402  0.7315  3.0882
 7026TIP3    H242714   5.967   4.274   7.458 -0.9702 -0.3747 -2.3793
 7027TIP3   OH242715   5.190   4.495   2.317  0.4065 -0.1216  0.0111
 7027TIP3    H142716   5.195   4.494   2.222  0.7848 -0.4776  0.0294
 7027TIP3    H242717   5.260   4.554   2.345  0.4840 -0.2415  0.0742
 7028TIP3   OH242718   2.233   6.935   3.132  0.1537 -0.4447 -0.9160
 7028TIP3    H142719   2.224   6.997   3.059 -1.6484  1.3868  0.7045
 7028TIP3    H242720   2.161   6.873   3.119 -0.4996  0.1965 -0.4651
 7029TIP3   OH242721   2.948   1.819   8.167  0.0901 -0.6728  0.7434
 7029TIP3    H142722   2.969   1.781   8.252 -0.6530  1.2419  1.8564
 7029TIP3    H242723   2.857   1.792   8.151 -2.0592  3.6815  3.5789
 7030TIP3   OH242724   1.974   3.570   7.140  0.0421  0.1363  0.4035
 7030TIP3    H142725   1.924   3.615   7.072 -2.1273 -1.5793  0.7517
 7030TIP3    H242726   2.064   3.570   7.108 -0.3607  2.1645 -0.9054
 7031TIP3   OH242727   0.077   6.595   0.580 -0.0884  0.6691  0.5865
 7031TIP3    H142728   0.076   6.612   0.674  1.8156  1.5361  0.4947
 7031TIP3    H242729   0.169   6.576   0.560 -0.7637 -1.5916 -0.7784
 7032TIP3   OH242730   2.939   0.604   0.200  0.4797 -0.2127 -0.1918
 7032TIP3    H142731   2.849   0.573   0.209  0.5081 -0.0539  0.6563
 7032TIP3    H242732   2.932   0.699   0.202  0.7850 -0.2006  1.1768
 7033TIP3   OH242733   2.342   4.879   8.191  0.2711  0.0821  0.3853
 7033TIP3    H142734   2.246   4.887   8.189 -0.2204 -3.9286 -1.9785
 7033TIP3    H242735   2.372   4.968   8.210 -3.8242  2.2862 -1.8662
 7034TIP3   OH242736   1.940   4.659   2.446 -0.6925  0.1352  0.0136
 7034TIP3    H142737   1.916   4.680   2.536 -0.0263 -1.9130  0.7366
 7034TIP3    H242738   1.867   4.606   2.414 -1.3998  1.6845 -1.0401
 7035TIP3   OH242739   6.192   5.120   2.163 -0.2028  0.1966 -0.0556
 7035TIP3    H142740   6.234   5.075   2.089 -1.3407  0.7080 -1.0380
 7035TIP3    H242741   6.154   5.049   2.214 -0.0383 -0.1174 -0.3585
 7036TIP3   OH242742   6.718   6.569   3.120 -0.2273  0.2752 -0.1687
 7036TIP3    H142743   6.743   6.578   3.212  0.8656 -0.8008 -0.3376
 7036TIP3    H242744   6.686   6.480   3.112  0.4013  0.1069 -0.9761
 7037TIP3   OH242745   5.083   4.647   1.321  0.0795  0.5458 -0.2699
 7037TIP3    H142746   5.119   4.609   1.241 -0.2607 -2.0532  0.7151
 7037TIP3    H242747   5.136   4.725   1.336  2.3344 -0.6905 -1.2744
 7038TIP3   OH242748   5.655   2.159   1.715  0.5881  0.4082  0.1205
 7038TIP3    H142749   5.623   2.077   1.678  1.6014  0.7922 -1.7056
 7038TIP3    H242750   5.594   2.178   1.786 -1.2963 -0.5137 -1.1624
 7039TIP3   OH242751   3.731   4.719   0.765  0.5779 -0.7384  0.0583
 7039TIP3    H142752   3.688   4.793   0.808 -0.6540 -1.6423  0.4533
 7039TIP3    H242753   3.779   4.758   0.692  0.5275  0.5199  0.6757
 7040TIP3   OH242754   6.631   2.114   8.218  0.3953  0.2530  0.7220
 7040TIP3    H142755   6.719   2.139   8.190  0.1529  2.7831  1.9598
 7040TIP3    H242756   6.577   2.124   8.140  0.8851  0.5112  0.4110
 7041TIP3   OH242757   6.303   0.084   1.488 -0.0534  0.2664 -0.3171
 7041TIP3    H142758   6.214   0.093   1.453 -1.6486 -3.9865  1.8840
 7041TIP3    H242759   6.308   0.148   1.559 -1.2143  0.8251 -0.7215
 7042TIP3   OH242760   1.959   2.480   7.528  0.4916  0.1355 -0.3629
 7042TIP3    H142761   1.943   2.539   7.601 -1.8065  0.5466 -1.1121
 7042TIP3    H242762   1.976   2.538   7.454  1.4788 -0.2417 -0.4389
 7043TIP3   OH242763   6.692   3.013   0.501 -0.4730  0.1563 -0.0954
 7043TIP3    H142764   6.606   3.029   0.464 -2.3370 -0.8886  3.3719
 7043TIP3    H242765   6.687   2.925   0.538  2.5338 -0.4312 -0.7604
 7044TIP3   OH242766   0.122   3.974   8.023  0.1875  0.2361 -0.1980
 7044TIP3    H142767   0.159   3.959   7.936 -1.7926 -2.5180 -0.6911
 7044TIP3    H242768   0.040   4.022   8.006 -0.2496 -0.3894  0.1210
 7045TIP3   OH242769   4.376   0.312   3.158  0.5271  0.2600 -0.1899
 7045TIP3    H142770   4.407   0.313   3.248 -1.1746 -1.0744  0.4563
 7045TIP3    H242771   4.424   0.384   3.116  0.0110  2.1615  2.2128
 7046TIP3   OH242772   0.472   4.735   7.290 -0.3782  0.5127  0.1462
 7046TIP3    H142773   0.540   4.745   7.356  0.0363  0.3668 -0.2542
 7046TIP3    H242774   0.493   4.653   7.246 -1.8425 -0.4831  1.2034
 7047TIP3   OH242775   6.496   1.319   1.239  0.3407 -0.4738  0.5258
 7047TIP3    H142776   6.495   1.330   1.143 -2.9843 -1.1728  0.3394
 7047TIP3    H242777   6.482   1.225   1.252 -0.8849 -0.1711  1.6209
 7048TIP3   OH242778   2.509   6.051   0.103 -0.9557 -0.4509 -0.1125
 7048TIP3    H142779   2.428   6.098   0.123 -1.0833 -0.4547 -0.6114
 7048TIP3    H242780   2.521   5.992   0.177 -1.0904 -0.0268  0.2500
 7049TIP3   OH242781   5.000   5.962   2.521  0.0112 -0.0593  0.1724
 7049TIP3    H142782   5.022   5.922   2.605 -0.6730 -0.4376  0.1808
 7049TIP3    H242783   5.078   6.011   2.497  0.7142 -1.0324  0.3850
 7050TIP3   OH242784   1.927   4.222   0.021 -0.2575 -0.1644  0.0633
 7050TIP3    H142785   1.962   4.160  -0.044  1.5926  0.2831  0.5657
 7050TIP3    H242786   1.914   4.303  -0.027  0.8010  0.0717  0.1454
 7051TIP3   OH242787   4.001   4.162   1.203  0.0719 -0.1395 -0.2077
 7051TIP3    H142788   3.962   4.209   1.129  0.3385 -0.9315 -0.8723
 7051TIP3    H242789   3.928   4.147   1.263 -0.1234  0.6305 -0.2486
 7052TIP3   OH242790   2.514   3.995   2.816 -0.5137 -0.0121 -0.2162
 7052TIP3    H142791   2.453   4.031   2.752 -0.1437 -1.2515 -1.3278
 7052TIP3    H242792   2.476   3.911   2.840 -0.6706  0.4620  1.2665
 7053TIP3   OH242793   3.325   6.590   0.976  0.0027 -0.0740  0.3065
 7053TIP3    H142794   3.413   6.595   1.013  0.5421  1.5254 -1.0845
 7053TIP3    H242795   3.338   6.561   0.886 -1.2197 -3.0691  0.9557
 7054TIP3   OH242796   4.759   1.376   1.645  0.1422 -0.2351 -0.5538
 7054TIP3    H142797   4.799   1.314   1.584  0.0969  1.3295 -2.2559
 7054TIP3    H242798   4.759   1.459   1.598 -1.4732  0.6692  0.9348
 7055TIP3   OH242799   2.062   3.945   0.381  0.1926  0.1337 -0.2720
 7055TIP3    H142800   1.967   3.939   0.374 -0.1466  3.2339  0.2209
 7055TIP3    H242801   2.079   3.962   0.474  1.1608  0.2990 -0.4660
 7056TIP3   OH242802   0.849   3.286   1.058  0.1229 -0.4127 -0.3918
 7056TIP3    H142803   0.932   3.242   1.038  1.1581  1.3422 -0.1443
 7056TIP3    H242804   0.868   3.379   1.046 -2.2500 -0.0453 -1.8360
 7057TIP3   OH242805   1.358   3.581   1.298 -0.1806  0.1066  0.0388
 7057TIP3    H142806   1.393   3.493   1.290 -0.5180 -0.0353  0.0746
 7057TIP3    H242807   1.266   3.572   1.270 -0.2860  0.3930  0.2878
 7058TIP3   OH242808   3.322   0.519   3.288  0.7296  0.3998  0.5147
 7058TIP3    H142809   3.291   0.449   3.231  1.3089 -0.5032  1.2947
 7058TIP3    H242810   3.312   0.485   3.376  0.7477  1.4141  0.9262
 7059TIP3   OH242811   5.158   2.607   8.082  0.0616  0.0731  0.2391
 7059TIP3    H142812   5.149   2.518   8.048  1.1240 -0.1145  0.4199
 7059TIP3    H242813   5.248   2.631   8.062 -0.7711  1.9448 -1.7835
 7060TIP3   OH242814   6.228   2.745   2.363 -0.1475  0.2097  0.0328
 7060TIP3    H142815   6.306   2.780   2.321  0.0158 -0.4494 -0.2295
 7060TIP3    H242816   6.164   2.737   2.292 -0.7016  1.3850  0.3627
 7061TIP3   OH242817   2.568   6.643   8.141  0.5764  0.4561  0.3425
 7061TIP3    H142818   2.628   6.661   8.213 -0.8899 -0.0662  1.7601
 7061TIP3    H242819   2.511   6.720   8.138  0.0207  0.0561  0.4114
 7062TIP3   OH242820   2.566   4.384   0.773 -0.4545  0.2064  0.1369
 7062TIP3    H142821   2.508   4.430   0.834 -0.9722 -0.8351  0.4565
 7062TIP3    H242822   2.510   4.320   0.730  0.7186 -1.9846  1.6404
 7063TIP3   OH242823   3.842   0.090   1.983 -0.1700  0.2838  0.0962
 7063TIP3    H142824   3.933   0.071   1.960  0.0687  1.4123  0.0502
 7063TIP3    H242825   3.840   0.184   1.998 -1.2990  0.2473  0.2749
 7064TIP3   OH242826   2.420   6.274   2.898 -0.1271 -0.1696 -0.4546
 7064TIP3    H142827   2.483   6.337   2.862 -1.4222  1.2542 -0.3102
 7064TIP3    H242828   2.396   6.310   2.983 -0.6073 -1.0772 -0.1932
 7065TIP3   OH242829   4.129   2.082   1.073 -0.7368 -0.2655 -0.1989
 7065TIP3    H142830   4.149   2.154   1.014  1.0412 -1.5275 -1.2279
 7065TIP3    H242831   4.149   2.116   1.161  0.8728  0.2748 -0.7380
 7066TIP3   OH242832   1.252   0.462   8.252  0.5856 -0.0143  0.1838
 7066TIP3    H142833   1.296   0.452   8.168 -0.3322  2.1287 -0.6223
 7066TIP3    H242834   1.282   0.548   8.284 -0.0428 -0.2452  1.4462
 7067TIP3   OH242835   0.282   6.896   0.635 -0.3935  0.4684  0.1563
 7067TIP3    H142836   0.354   6.836   0.655  0.8430  1.6331 -0.6061
 7067TIP3    H242837   0.322   6.983   0.638 -1.8419  1.1627 -0.0180
 7068TIP3   OH242838   4.291   5.452   0.571  0.6971  0.1135 -0.5537
 7068TIP3    H142839   4.313   5.539   0.539  2.4428 -0.9411 -2.4977
 7068TIP3    H242840   4.243   5.411   0.499 -1.7243 -0.0008  1.0185
 7069TIP3   OH242841   1.649   4.048   1.172 -0.3958  0.3052  0.6368
 7069TIP3    H142842   1.575   3.991   1.151  0.3025 -0.6670  0.7603
 7069TIP3    H242843   1.727   3.996   1.150  0.2542  1.2983  0.5396
 7070TIP3   OH242844   3.683   0.728   0.063  0.2789 -0.0259 -0.2775
 7070TIP3    H142845   3.653   0.698  -0.022  1.4656 -2.2455 -0.0100
 7070TIP3    H242846   3.630   0.679   0.126  0.5623  0.3155  0.2388
 7071TIP3   OH242847   1.241   6.861   1.547 -0.1430  0.6776 -0.3871
 7071TIP3    H142848   1.215   6.769   1.554 -0.0054  0.6003 -0.8103
 7071TIP3    H242849   1.224   6.898   1.633  0.1612  0.1609 -0.1005
 7072TIP3   OH242850   5.583   7.012   1.930  0.3343  0.0683  0.1768
 7072TIP3    H142851   5.599   6.961   1.851 -0.1779  0.1260  0.0335
 7072TIP3    H242852   5.553   7.097   1.899 -0.7859 -0.2151  0.4307
 7073TIP3   OH242853   1.282   5.066   8.123  0.5872 -0.0704  0.2439
 7073TIP3    H142854   1.311   5.150   8.088  1.3254  0.3407  1.7670
 7073TIP3    H242855   1.202   5.045   8.074  0.6102  1.3233 -0.4128
 7074TIP3   OH242856   2.430   6.746   2.997  0.0940  0.0161 -0.0838
 7074TIP3    H142857   2.500   6.722   2.936  0.4754  1.4280 -0.2362
 7074TIP3    H242858   2.427   6.841   2.994  0.0874  0.1274  2.0873
 7075TIP3   OH242859   4.894   5.932   1.234 -0.2626 -0.1424 -0.0954
 7075TIP3    H142860   4.920   5.866   1.170 -1.1848 -2.0188  1.3756
 7075TIP3    H242861   4.947   5.913   1.311 -1.6247 -0.1692  0.8665
 7076TIP3   OH242862   1.635   5.403   0.796 -0.1213  0.3315  0.1365
 7076TIP3    H142863   1.552   5.401   0.749 -0.0457 -0.7147  0.0076
 7076TIP3    H242864   1.699   5.368   0.734 -0.0617 -1.3291  1.0497
 7077TIP3   OH242865   6.405   4.325   2.220 -0.8336 -0.0648  0.6951
 7077TIP3    H142866   6.472   4.309   2.286 -0.0780  0.0318 -0.0370
 7077TIP3    H242867   6.452   4.362   2.145 -1.9445  1.6355  0.7810
 7078TIP3   OH242868   5.009   3.492   7.348  0.3160  0.2919  0.4128
 7078TIP3    H142869   4.956   3.554   7.298 -1.8781 -0.6531  1.4457
 7078TIP3    H242870   5.100   3.519   7.332 -0.4852  2.4342 -0.8271
 7079TIP3   OH242871   4.361   6.341   1.780 -0.0641 -0.4834  0.1114
 7079TIP3    H142872   4.342   6.322   1.871  0.6162  0.1089  0.3864
 7079TIP3    H242873   4.291   6.297   1.731 -0.8608 -0.1806  0.9476
 7080TIP3   OH242874   6.736   3.924   0.134 -0.3543  0.7925  0.1552
 7080TIP3    H142875   6.778   3.968   0.060 -0.3846  0.5647  0.0003
 7080TIP3    H242876   6.707   3.839   0.098  1.7395 -0.3440  0.9961
 7081TIP3   OH242877   0.025   6.347   0.464 -0.6944 -0.0831 -0.1467
 7081TIP3    H142878   0.046   6.430   0.507 -1.2256 -0.2768  0.5208
 7081TIP3    H242879  -0.057   6.364   0.418  0.1706  0.2907 -1.6214
 7082TIP3   OH242880   3.366   6.367   7.249  0.6166  0.0605 -0.1985
 7082TIP3    H142881   3.335   6.402   7.333 -0.4470 -0.9548 -0.1412
 7082TIP3    H242882   3.338   6.433   7.184  2.1797  1.2646  0.2848
 7083TIP3   OH242883   5.012   2.656   2.027  0.8435  0.2233  0.4938
 7083TIP3    H142884   5.039   2.748   2.019  0.3493  0.2572 -1.2673
 7083TIP3    H242885   4.919   2.656   2.003  0.9671 -0.7913 -0.0302
 7084TIP3   OH242886   5.130   2.820   7.911  0.4794 -0.5044  0.5091
 7084TIP3    H142887   5.125   2.753   7.980 -1.8483 -1.0765 -0.1043
 7084TIP3    H242888   5.131   2.771   7.829 -1.6725  0.1281  0.0306
 7085TIP3   OH242889   5.155   6.301   3.293  0.5863 -0.1292  0.2018
 7085TIP3    H142890   5.113   6.234   3.348  0.6714 -0.0717  0.3375
 7085TIP3    H242891   5.236   6.322   3.340  0.3638  0.3641  0.3660
 7086TIP3   OH242892   0.278   2.639   1.360  0.8260  0.3184  0.0074
 7086TIP3    H142893   0.353   2.697   1.369 -0.3462  1.9489 -0.3872
 7086TIP3    H242894   0.205   2.696   1.337 -0.2730 -1.3801 -0.9685
 7087TIP3   OH242895   1.801   1.748   7.966 -0.1866 -0.4278  0.5453
 7087TIP3    H142896   1.814   1.719   7.876  0.8354  2.6105 -0.4116
 7087TIP3    H242897   1.708   1.730   7.984 -0.7598  0.1032 -1.6317
 7088TIP3   OH242898   5.550   5.692   2.259  0.6756 -0.5286  0.3622
 7088TIP3    H142899   5.540   5.714   2.352  0.1477 -0.5349  0.3119
 7088TIP3    H242900   5.641   5.664   2.251  0.7918 -0.3053  0.8323
 7089TIP3   OH242901   4.900   1.529   2.829 -0.4900  0.1134 -0.5372
 7089TIP3    H142902   4.990   1.500   2.844  0.2288  2.7410  0.7439
 7089TIP3    H242903   4.848   1.478   2.892  0.5022  0.4936  0.6286
 7090TIP3   OH242904   5.449   3.130   8.250  0.1289  0.0153 -0.6041
 7090TIP3    H142905   5.464   3.225   8.254  0.1899 -0.0162  0.0259
 7090TIP3    H242906   5.439   3.111   8.157  1.6790  0.3983 -0.8751
 7091TIP3   OH242907   3.390   3.779   0.244  0.4041  0.6034  0.0353
 7091TIP3    H142908   3.312   3.782   0.189  0.8939  1.2478 -0.6311
 7091TIP3    H242909   3.357   3.753   0.330 -0.2828 -1.2156 -0.7091
 7092TIP3   OH242910   1.973   3.898   0.035  0.4386 -0.3893 -0.1944
 7092TIP3    H142911   1.979   3.809   0.069 -1.5158 -0.6311 -0.3464
 7092TIP3    H242912   1.973   3.888  -0.060  0.6147 -0.1853 -0.2161
 7093TIP3   OH242913   3.079   3.776   8.142 -0.2346  0.3083 -0.5581
 7093TIP3    H142914   3.146   3.771   8.210  0.6123  1.3331 -1.2776
 7093TIP3    H242915   3.012   3.714   8.170  1.4447 -1.4964 -0.2978
 7094TIP3   OH242916   6.452   4.734   1.225 -0.6691  0.1160 -0.3865
 7094TIP3    H142917   6.397   4.692   1.158 -0.8122 -0.3720  0.0350
 7094TIP3    H242918   6.525   4.674   1.238 -1.4419 -0.5617  1.0201
 7095TIP3   OH242919   0.612   3.705   1.397 -0.0541  0.3721 -0.2051
 7095TIP3    H142920   0.674   3.718   1.324  1.8865  2.5834  1.6787
 7095TIP3    H242921   0.537   3.759   1.375  0.7691  1.4998 -0.3649
 7096TIP3   OH242922   2.312   6.145   7.338 -0.2779 -0.8473 -0.0986
 7096TIP3    H142923   2.304   6.238   7.361  0.6445 -0.6663 -0.4660
 7096TIP3    H242924   2.227   6.122   7.301 -0.0789  0.2195 -1.2824
 7097TIP3   OH242925   5.284   3.747   1.636  0.0791 -0.4221 -0.5732
 7097TIP3    H142926   5.314   3.694   1.563  1.0034 -1.0040  0.1959
 7097TIP3    H242927   5.222   3.690   1.683 -2.2351  0.7123 -2.0594
 7098TIP3   OH242928   5.090   6.047   4.155 -0.5580 -0.0753 -0.1990
 7098TIP3    H142929   5.038   5.970   4.134 -1.7794  0.6522  0.0855
 7098TIP3    H242930   5.068   6.110   4.086  1.3201 -0.3408 -1.1219
 7099TIP3   OH242931   3.295   1.339   8.150 -0.5646  0.0847 -0.3100
 7099TIP3    H142932   3.220   1.320   8.207 -1.6672  2.5397 -0.7926
 7099TIP3    H242933   3.262   1.403   8.087  1.5775  0.1502 -1.4764
 7100TIP3   OH242934   5.754   0.294   2.805  0.0200  0.0776 -0.3198
 7100TIP3    H142935   5.735   0.318   2.714 -0.9404  0.6688  0.0223
 7100TIP3    H242936   5.715   0.207   2.816  0.9607 -0.4071 -0.7316
 7101TIP3   OH242937   0.289   5.090   1.143 -0.0819  0.3410  0.5145
 7101TIP3    H142938   0.230   5.133   1.205 -1.1728 -0.3452 -0.0163
 7101TIP3    H242939   0.249   5.105   1.057  0.8793  0.4305  0.0729
 7102TIP3   OH242940   0.421   5.232   0.241 -0.6631  0.0193  0.0980
 7102TIP3    H142941   0.341   5.179   0.232 -0.3564 -0.3885 -0.2350
 7102TIP3    H242942   0.396   5.318   0.209 -1.1470  0.0647  0.5702
 7103TIP3   OH242943   0.517   1.679   1.064 -0.0893 -0.4692 -0.3200
 7103TIP3    H142944   0.527   1.583   1.070 -2.0730 -0.6456  1.2361
 7103TIP3    H242945   0.509   1.707   1.155 -3.2997  0.6703 -0.8520
 7104TIP3   OH242946   4.685   3.784   1.515  0.3219 -0.2105 -0.4894
 7104TIP3    H142947   4.686   3.688   1.514 -0.5088 -0.3478  2.4666
 7104TIP3    H242948   4.739   3.808   1.591 -1.9120  1.4778  0.6956
 7105TIP3   OH242949   5.151   5.158   1.416  0.0015  0.2218 -0.2401
 7105TIP3    H142950   5.107   5.111   1.487 -0.3581 -5.1526 -3.4855
 7105TIP3    H242951   5.079   5.193   1.362 -0.3790 -3.2253 -2.2559
 7106TIP3   OH242952   5.467   2.891   0.439 -0.1391  0.0542  0.2089
 7106TIP3    H142953   5.373   2.892   0.458 -0.2104 -0.4098 -0.1131
 7106TIP3    H242954   5.473   2.922   0.348  0.1002  1.0225  0.5414
 7107TIP3   OH242955   4.661   2.968   2.331  0.4132 -0.0710 -0.9665
 7107TIP3    H142956   4.661   2.965   2.426  1.0444 -0.5331 -0.9697
 7107TIP3    H242957   4.699   3.054   2.310  2.2367 -0.7825 -0.7799
 7108TIP3   OH242958   4.890   5.235   2.649 -0.5463 -0.0833  1.0938
 7108TIP3    H142959   4.849   5.263   2.731 -1.3482 -0.7186  0.9219
 7108TIP3    H242960   4.976   5.276   2.650 -0.1770 -0.8303  2.7095
 7109TIP3   OH242961   0.125   0.960   0.861  0.2909 -0.6651 -0.8769
 7109TIP3    H142962   0.182   1.033   0.841 -0.6553  0.1201 -0.7965
 7109TIP3    H242963   0.068   0.952   0.785 -1.9224  0.9769  0.4792
 7110TIP3   OH242964   3.548   4.972   2.899  0.2519 -0.5931 -0.1215
 7110TIP3    H142965   3.489   5.018   2.840 -2.2852 -2.7539  0.5629
 7110TIP3    H242966   3.560   5.032   2.973  0.4215  0.5855 -1.0746
 7111TIP3   OH242967   6.335   3.620   0.896  0.0247  0.3004 -0.2108
 7111TIP3    H142968   6.266   3.675   0.858 -1.5563  0.0682  2.1325
 7111TIP3    H242969   6.315   3.618   0.989  2.1946 -1.2813  0.2820
 7112TIP3   OH242970   2.957   4.249   0.591 -0.0935  0.7048  0.2258
 7112TIP3    H142971   3.031   4.190   0.611 -0.4963  0.3771  0.7678
 7112TIP3    H242972   2.960   4.258   0.495  1.0862  1.2744  0.2945
 7113TIP3   OH242973   0.952   6.345   3.842 -0.0100 -0.4560 -0.4753
 7113TIP3    H142974   0.896   6.270   3.821 -0.5203 -0.0461 -0.6107
 7113TIP3    H242975   1.019   6.345   3.774 -1.4702  0.6886 -1.9753
 7114TIP3   OH242976   1.849   5.887   1.947  0.3510 -0.0179  0.1199
 7114TIP3    H142977   1.772   5.858   1.898  0.2946 -0.0088  0.2025
 7114TIP3    H242978   1.917   5.898   1.881  0.5462 -0.9161  0.1642
 7115TIP3   OH242979   1.382   2.190   2.234 -1.1143 -0.0362  0.6137
 7115TIP3    H142980   1.309   2.166   2.291  0.4099  0.3446  2.8348
 7115TIP3    H242981   1.460   2.170   2.286  0.3559  0.6358 -1.2450
 7116TIP3   OH242982   2.618   6.479   0.184  0.1087 -0.4007  0.1952
 7116TIP3    H142983   2.587   6.422   0.254 -0.4293 -0.6236 -0.2190
 7116TIP3    H242984   2.690   6.430   0.144 -0.9012 -1.1940 -0.7101
 7117TIP3   OH242985   6.022   5.349   1.084 -0.0564  0.5234 -0.2697
 7117TIP3    H142986   6.021   5.438   1.119 -0.8989  0.6176 -0.5210
 7117TIP3    H242987   5.937   5.312   1.110 -0.6075  0.5099 -1.9877
 7118TIP3   OH242988   2.185   6.306   2.317  0.4965  0.1581  0.3029
 7118TIP3    H142989   2.263   6.305   2.372  0.4881 -0.9908  0.3176
 7118TIP3    H242990   2.219   6.297   2.228  0.3776 -0.5010  0.3210
 7119TIP3   OH242991   2.670   6.969   8.163 -0.1656 -0.1900 -0.2747
 7119TIP3    H142992   2.576   6.968   8.178 -0.1736  2.4962  0.4595
 7119TIP3    H242993   2.679   6.959   8.068 -0.9412 -3.2993 -0.1203
 7120TIP3   OH242994   3.064   0.036   8.191  0.3548  0.1363  0.1532
 7120TIP3    H142995   3.126  -0.031   8.162 -0.5266 -0.6706  0.0861
 7120TIP3    H242996   2.994   0.033   8.126  0.9526  2.1402 -0.6828
 7121TIP3   OH242997   4.582   3.602   1.014 -0.5133 -0.3245  0.0857
 7121TIP3    H142998   4.652   3.570   0.958 -1.0769 -1.4272 -0.0187
 7121TIP3    H242999   4.625   3.662   1.075  0.5641 -1.1414  0.1581
 7122TIP3   OH243000   4.397   2.426   2.290 -0.0066  0.4916 -0.0035
 7122TIP3    H143001   4.335   2.356   2.271  1.2431 -0.7370  0.2491
 7122TIP3    H243002   4.454   2.430   2.213 -0.5050  1.7606 -0.3335
 7123TIP3   OH243003   4.189   4.875   8.180 -0.0427  0.6100  0.1707
 7123TIP3    H143004   4.258   4.865   8.113  0.3027  0.0371  0.6003
 7123TIP3    H243005   4.120   4.924   8.136  0.5000  0.9006 -0.3757
 7124TIP3   OH243006   5.977   5.305   2.222  0.1749 -0.0181 -0.7435
 7124TIP3    H143007   6.057   5.355   2.208  0.7784 -0.9120 -0.6013
 7124TIP3    H243008   5.982   5.234   2.159 -0.4794 -0.1167 -0.6878
 7125TIP3   OH243009   3.061   4.499   0.401  0.6842  0.1120 -0.1850
 7125TIP3    H143010   3.066   4.573   0.340  0.8117  1.0132  0.8790
 7125TIP3    H243011   2.967   4.484   0.411  0.6459  0.4152 -0.0757
 7126TIP3   OH243012   0.103   5.201   1.325 -0.2162  0.0169 -0.3202
 7126TIP3    H143013   0.060   5.245   1.252 -0.4289 -0.8536 -0.7308
 7126TIP3    H243014   0.032   5.183   1.387 -0.0530  0.6618  0.0688
 7127TIP3   OH243015   6.910   4.163   0.282  0.0284  0.1378 -0.1333
 7127TIP3    H143016   6.919   4.077   0.324  2.0001  0.6010  0.4916
 7127TIP3    H243017   6.867   4.144   0.199 -0.1541 -1.3783  0.2688
 7128TIP3   OH243018   5.166   6.814   0.839 -0.3597  0.2284  0.1649
 7128TIP3    H143019   5.119   6.820   0.922 -1.4691  1.4620 -0.5043
 7128TIP3    H243020   5.224   6.890   0.839  0.8454 -0.6697  0.4956
 7129TIP3   OH243021   5.823   4.477   0.947  0.7427  0.0127  0.1712
 7129TIP3    H143022   5.917   4.480   0.925  0.6407 -0.8051 -0.4112
 7129TIP3    H243023   5.812   4.546   1.013  1.4526  1.2023 -0.8891
 7130TIP3   OH243024   0.886   5.373   0.146  0.2414 -0.2598  0.2171
 7130TIP3    H143025   0.971   5.380   0.189  0.6910 -0.1257 -0.6683
 7130TIP3    H243026   0.873   5.458   0.105  0.2788 -0.6911 -0.7226
 7131TIP3   OH243027   4.160   4.408   0.115 -0.5356  0.4033 -0.0241
 7131TIP3    H143028   4.143   4.397   0.209 -0.6444 -0.5470 -0.1374
 7131TIP3    H243029   4.239   4.463   0.111  1.4798 -2.1940  0.7516
 7132TIP3   OH243030   7.012   0.916   1.828 -0.0217  0.1661  0.1415
 7132TIP3    H143031   7.021   0.820   1.831 -1.0253  0.0788  0.6849
 7132TIP3    H243032   7.101   0.947   1.812 -0.0622 -0.9574 -2.8094
 7133TIP3   OH243033   1.478   7.053   3.232  0.2588 -0.4681 -0.5547
 7133TIP3    H143034   1.398   7.078   3.278  0.0626 -1.9462 -0.0345
 7133TIP3    H243035   1.462   7.077   3.141 -0.7960 -0.7426 -0.4587
 7134TIP3   OH243036   3.124   6.821   2.011 -0.1398  0.3667 -0.1624
 7134TIP3    H143037   3.171   6.857   2.086  0.3735  0.1847 -0.3895
 7134TIP3    H243038   3.047   6.876   2.002  0.5488  1.3068 -0.4044
 7135TIP3   OH243039   0.442   2.439   1.463 -0.2177  0.1064 -0.3721
 7135TIP3    H143040   0.428   2.345   1.468  0.1335 -0.0104 -1.2770
 7135TIP3    H243041   0.386   2.467   1.390 -1.5526  0.8663  0.8987
 7136TIP3   OH243042   3.218   6.720   1.188 -0.1521 -0.0052  1.0251
 7136TIP3    H143043   3.123   6.714   1.177 -0.0423 -1.2462  0.6230
 7136TIP3    H243044   3.254   6.677   1.111  0.7320 -0.6034  1.7477
 7137TIP3   OH243045   6.726   2.864   1.660  0.5808 -0.7424 -0.2248
 7137TIP3    H143046   6.780   2.797   1.619 -0.3740 -2.1054  0.6567
 7137TIP3    H243047   6.744   2.855   1.754  1.2206  0.9738 -0.1391
 7138TIP3   OH243048   1.191   4.796   2.697  0.4540  0.1033  0.3041
 7138TIP3    H143049   1.247   4.786   2.774  1.0028 -1.4476 -0.2642
 7138TIP3    H243050   1.102   4.799   2.733  0.8246  2.3198  1.1898
 7139TIP3   OH243051   0.175   2.108   7.254  0.3812 -0.4221  0.0222
 7139TIP3    H143052   0.176   2.203   7.248 -1.4929 -0.0547  3.2030
 7139TIP3    H243053   0.245   2.079   7.196  1.0586  2.8708 -0.9869
 7140TIP3   OH243054   6.453   0.196   2.021  0.5322 -0.0797  0.3772
 7140TIP3    H143055   6.527   0.235   1.973  0.6724  0.5756  1.1023
 7140TIP3    H243056   6.485   0.111   2.050  0.8255 -0.0150  0.2500
 7141TIP3   OH243057   3.628   1.876   0.484  0.3893  0.1480 -0.3228
 7141TIP3    H143058   3.684   1.874   0.406 -0.0151  2.6674 -0.7645
 7141TIP3    H243059   3.684   1.843   0.554  0.9918 -1.5030 -1.5100
 7142TIP3   OH243060   5.247   6.677   1.504  0.0290  0.3722  0.0445
 7142TIP3    H143061   5.221   6.586   1.494  0.0342  0.4765 -1.0447
 7142TIP3    H243062   5.325   6.686   1.450 -0.0069  1.0418  0.0924
 7143TIP3   OH243063   1.427   2.235   7.345 -0.5324  0.1412  0.5199
 7143TIP3    H143064   1.490   2.187   7.398  0.0602  0.1543 -0.1617
 7143TIP3    H243065   1.458   2.325   7.346  1.2232 -0.2999 -2.2207
 7144TIP3   OH243066   0.750   2.111   0.632 -0.1731  0.7917 -0.3735
 7144TIP3    H143067   0.783   2.022   0.624  0.9806  1.3469 -2.7027
 7144TIP3    H243068   0.783   2.141   0.717  1.0064 -0.3851 -0.3782
 7145TIP3   OH243069   6.527   0.218   3.770  0.6019  0.0918 -0.3594
 7145TIP3    H143070   6.598   0.270   3.731 -0.2639  1.5999  0.0147
 7145TIP3    H243071   6.526   0.137   3.719  0.7803  1.1945 -2.1798
 7146TIP3   OH243072   4.902   0.633   1.256 -0.1056 -0.6323 -0.1747
 7146TIP3    H143073   4.857   0.609   1.175  1.7319 -1.6247 -0.9488
 7146TIP3    H243074   4.986   0.668   1.228  0.3551 -0.4663  1.2985
 7147LIG     O143075   1.590   3.328   3.929  0.3128 -0.1216  0.0333
 7147LIG     O243076   1.774   3.230   4.095 -0.4830  0.3638 -0.1561
 7147LIG     O343077   1.424   3.191   4.125  0.5772  0.5355  0.0947
 7147LIG     O443078   1.972   3.250   4.223 -0.3076 -0.4438  0.0228
 7147LIG     O543079   1.623   3.304   4.313  0.8613 -0.2196 -0.3176
 7147LIG     O643080   1.738   3.266   4.578 -0.0137  0.8240  0.0119
 7147LIG     O743081   2.025   3.329   4.579  0.3485  0.0911 -0.5339
 7147LIG     O843082   2.267   3.397   4.371 -0.3084  0.5903  0.1854
 7147LIG     O943083   2.242   3.173   4.367  0.0731  0.7658  0.1767
 7147LIG      N43084   1.691   3.118   3.490  0.5960  0.0010 -0.2817
 7147LIG     C143085   1.697   3.239   3.749  0.0806 -0.3572  0.6059
 7147LIG     C243086   1.813   3.154   3.713 -1.0563  0.3623 -0.5006
 7147LIG     C343087   1.725   3.332   3.864  0.1082 -0.8844 -0.1418
 7147LIG     C443088   1.757   3.047   3.608  0.0936  0.0769  0.0178
 7147LIG     C543089   1.615   3.305   3.637  0.1596  0.3093 -0.1730
 7147LIG     C643090   1.596   3.143   3.808 -0.6729  0.0577 -0.2175
 7147LIG     C743091   1.651   2.945   3.673 -0.1151  0.2968  0.2265
 7147LIG     C843092   1.571   3.198   3.529  0.5848 -0.3794 -0.2422
 7147LIG     C943093   1.827   3.282   3.972 -0.6134 -0.5435 -0.1583
 7147LIG    C1043094   1.582   3.008   3.788 -0.1939  0.1761 -0.2860
 7147LIG    C1143095   1.896   3.096   3.824 -0.3491 -0.2459  0.4027
 7147LIG    C1243096   1.541   3.205   3.913 -0.3962 -0.1067 -0.7697
 7147LIG    C1343097   1.913   3.157   3.943  0.7227 -0.5085  0.6750
 7147LIG    C1443098   1.786   3.193   3.401 -0.0085  0.3055  0.0817
 7147LIG    C1543099   1.507   2.941   3.879  0.1460  0.5690 -0.3507
 7147LIG    C1643100   1.458   3.138   4.000 -1.0984  0.6585 -0.5433
 7147LIG    C1743101   1.434   3.003   3.981 -0.7149  0.6804 -0.0921
 7147LIG    C1843102   1.834   3.282   4.211  0.1821 -0.2055 -0.1372
 7147LIG    C1943103   1.753   3.248   4.338 -0.2255  0.2138 -0.1261
 7147LIG    C2043104   1.808   3.309   4.462 -0.3169 -0.7169  0.0193
 7147LIG    C2143105   1.958   3.268   4.470 -0.0542  0.5526  0.5137
 7147LIG    C2243106   2.033   3.314   4.336  0.0203  0.3525 -0.1635
 7147LIG    C2343107   2.187   3.287   4.358 -0.6105  0.8016  1.0941
 7147LIG     H143108   1.883   3.220   3.658  1.0033 -1.7362 -0.5740
 7147LIG     H243109   1.752   3.435   3.832  2.3764 -1.7916 -1.3408
 7147LIG     H343110   1.847   2.993   3.573  0.8272  0.6023  1.0436
 7147LIG     H443111   1.680   3.381   3.589  2.7570  0.9759  3.8999
 7147LIG     H543112   1.537   3.374   3.677  1.6483  1.9664  0.0086
 7147LIG     H643113   1.709   2.864   3.722 -0.1803 -1.0513 -1.7571
 7147LIG     H743114   1.573   2.893   3.611  0.7021 -1.1082  0.3336
 7147LIG     H843115   1.501   3.119   3.564 -0.1801  0.5412  0.3401
 7147LIG     H943116   1.525   3.250   3.443 -1.0872  0.7767  1.2945
 7147LIG    H1043117   1.889   3.369   4.000  2.6240 -2.2316 -1.4764
 7147LIG    H1143118   1.926   2.991   3.811 -3.0664 -0.8721 -1.6377
 7147LIG    H1243119   2.000   3.128   4.003  0.9864  0.5538  0.8353
 7147LIG    H1343120   1.846   3.125   3.337 -0.1600 -0.0532  0.3157
 7147LIG    H1443121   1.863   3.259   3.446  0.4524 -0.5767  0.6147
 7147LIG    H1543122   1.719   3.250   3.333 -0.4239 -0.9274 -0.5700
 7147LIG    H1643123   1.501   2.834   3.865 -2.3247  0.4613  0.9017
 7147LIG    H1743124   1.374   2.947   4.050  0.3971  0.9157  1.0970
 7147LIG    H1843125   1.840   3.392   4.205  2.7445 -0.1380  1.9877
 7147LIG    H1943126   1.754   3.138   4.355 -0.4860  0.3158  0.5544
 7147LIG    H2043127   1.809   3.420   4.454  0.6975 -0.7414 -0.4389
 7147LIG    H2143128   1.361   3.126   4.157  0.1267  1.1327  0.4472
 7147LIG    H2243129   1.965   3.159   4.490  0.5879  0.6640  0.9210
 7147LIG    H2343130   2.018   3.421   4.311  0.4402 -0.1246 -2.8723
 7147LIG    H2443131   1.574   3.250   4.250  2.5237 -2.0312 -0.1655
 7147LIG    H2543132   1.646   3.283   4.559 -0.5533 -1.2385  0.4720
 7147LIG    H2643133   1.971   3.308   4.655  1.8531 -0.7530  0.3505
 7147LIG    H2743134   2.355   3.359   4.380 -0.8468 -0.9152 -0.5889
   7.06989   7.06989   8.28003
