Title
43134
    1CHL1    C3    1   2.981   5.168   7.447 -0.7071 -0.0976  0.5959
    1CHL1    H3    2   3.053   5.090   7.478  2.1330  2.1503  0.1151
    1CHL1    O3    3   2.892   5.216   7.545 -0.0524  0.1661 -0.2268
    1CHL1   H3'    4   2.945   5.216   7.624 -1.8297  0.6003  1.0266
    1CHL1    C4    5   3.073   5.289   7.402 -0.2344 -0.3913  0.0080
    1CHL1   H4A    6   2.997   5.364   7.370  0.2896  1.3310  2.4918
    1CHL1   H4B    7   3.126   5.324   7.493  0.4539  0.0616 -0.5675
    1CHL1    C5    8   3.162   5.252   7.286 -0.4082  0.1808  0.2023
    1CHL1    C6    9   3.296   5.262   7.298  0.0222 -0.2896 -0.4752
    1CHL1    H6   10   3.335   5.296   7.395  0.4137 -1.0496 -0.3577
    1CHL1    C7   11   3.386   5.240   7.185  0.9177  0.0926  0.9006
    1CHL1   H7A   12   3.444   5.335   7.182 -0.8590  1.2115 -1.1109
    1CHL1   H7B   13   3.457   5.157   7.198  0.7455 -0.4397 -1.1098
    1CHL1    C8   14   3.314   5.231   7.043  0.0052  0.0322 -0.1292
    1CHL1    H8   15   3.283   5.334   7.015 -2.5988 -0.5805  0.2440
    1CHL1   C14   16   3.407   5.164   6.946 -0.1706  0.3413  0.1837
    1CHL1   H14   17   3.417   5.062   6.989 -1.3540  1.0000  2.1617
    1CHL1   C15   18   3.556   5.216   6.945  0.0394  0.0338  1.0724
    1CHL1  H15A   19   3.554   5.326   6.929 -1.4528 -0.1536 -0.3471
    1CHL1  H15B   20   3.617   5.199   7.036  1.2213  0.2122  0.3325
    1CHL1   C16   21   3.615   5.151   6.820  0.0395  0.6110  0.3179
    1CHL1  H16A   22   3.686   5.213   6.761  0.0271  0.4361  0.1163
    1CHL1  H16B   23   3.665   5.054   6.843 -0.5983  0.1100 -0.3811
    1CHL1   C17   24   3.494   5.098   6.741  0.3897 -0.5213  0.3573
    1CHL1   H17   25   3.481   4.989   6.758  0.4062 -0.5746  0.0361
    1CHL1   C13   26   3.360   5.153   6.807  0.8875  0.1226  0.0185
    1CHL1   C18   27   3.316   5.288   6.739  0.0610 -0.4590 -0.1708
    1CHL1  H18A   28   3.250   5.360   6.792  0.5493  0.3606 -0.6476
    1CHL1  H18B   29   3.407   5.350   6.722 -0.2410 -0.7532 -3.3157
    1CHL1  H18C   30   3.270   5.270   6.640  3.6291  1.5338 -2.4251
    1CHL1   C12   31   3.238   5.060   6.806 -0.2330 -1.0487 -0.9173
    1CHL1  H12A   32   3.202   5.047   6.702  4.1162  1.6134 -3.0321
    1CHL1  H12B   33   3.272   4.959   6.836  0.6293 -0.9437 -1.4951
    1CHL1   C11   34   3.136   5.114   6.908  1.4052  0.0615  0.3260
    1CHL1  H11A   35   3.085   5.208   6.877  3.2161  0.4234 -1.8084
    1CHL1  H11B   36   3.055   5.038   6.906  0.4600  1.0450  0.3464
    1CHL1    C9   37   3.187   5.145   7.052 -0.8252 -0.1751 -0.1366
    1CHL1    H9   38   3.235   5.053   7.092 -0.0461 -1.4121 -3.6043
    1CHL1   C10   39   3.088   5.204   7.156 -0.2403  0.6391 -0.4459
    1CHL1   C19   40   3.000   5.319   7.097  0.5904  0.1145 -0.3987
    1CHL1  H19A   41   2.958   5.380   7.180  0.8475 -1.2763  0.7928
    1CHL1  H19B   42   3.060   5.387   7.033 -0.3818  0.3952 -1.0306
    1CHL1  H19C   43   2.919   5.275   7.036 -0.7302 -0.4888  1.6761
    1CHL1    C1   44   3.000   5.086   7.194  0.0449  0.6873  0.4183
    1CHL1   H1A   45   2.941   5.064   7.103  2.4354 -0.5278 -0.8952
    1CHL1   H1B   46   3.068   5.004   7.225 -0.2427  0.5894  0.8095
    1CHL1    C2   47   2.910   5.118   7.315  0.9760 -0.1853  0.5678
    1CHL1   H2A   48   2.853   5.024   7.337  1.0381 -0.2231  0.5678
    1CHL1   H2B   49   2.850   5.204   7.280 -1.8544 -2.3103 -0.2381
    1CHL1   C20   50   3.510   5.109   6.589 -0.0974  0.3134 -0.2713
    1CHL1   H20   51   3.491   5.213   6.555  0.6946  0.2660 -0.8683
    1CHL1   C21   52   3.399   5.032   6.517 -0.4753  0.6724  0.3435
    1CHL1  H21A   53   3.423   5.014   6.410 -1.6905 -1.5890  0.3776
    1CHL1  H21B   54   3.299   5.080   6.525 -0.6514  0.4161 -0.2741
    1CHL1  H21C   55   3.372   4.933   6.559 -0.8541  0.0059 -1.3804
    1CHL1   C22   56   3.637   5.061   6.526 -0.3039  0.0019  0.2211
    1CHL1  H22A   57   3.724   5.097   6.584 -0.1996  0.2033 -0.0572
    1CHL1  H22B   58   3.654   4.953   6.541 -0.2409  0.1176  1.0012
    1CHL1   C23   59   3.668   5.110   6.380 -0.5337  0.4995 -1.3317
    1CHL1  H23A   60   3.767   5.068   6.355 -0.8717 -1.2405  0.1154
    1CHL1  H23B   61   3.608   5.065   6.298  1.2737 -0.1387 -2.3605
    1CHL1   C24   62   3.675   5.263   6.374  0.1904  0.3181  0.4302
    1CHL1  H24A   63   3.572   5.303   6.375 -0.2047 -0.4537 -1.9930
    1CHL1  H24B   64   3.727   5.291   6.468 -0.1578 -1.0393  1.0605
    1CHL1   C25   65   3.755   5.325   6.253 -0.1948 -0.0518 -0.2210
    1CHL1   H25   66   3.834   5.250   6.230 -0.8956 -0.4173 -1.5631
    1CHL1   C26   67   3.657   5.338   6.136 -0.0224  0.3860 -0.0067
    1CHL1  H26A   68   3.617   5.241   6.100  0.6220  0.1461 -0.0837
    1CHL1  H26B   69   3.580   5.410   6.173  1.0926  0.5682  2.1314
    1CHL1  H26C   70   3.706   5.385   6.048 -1.0301 -0.6041 -1.1318
    1CHL1   C27   71   3.815   5.455   6.294 -0.3797 -0.1670 -0.3866
    1CHL1  H27A   72   3.894   5.455   6.372  1.2084  1.4050 -1.8762
    1CHL1  H27B   73   3.876   5.504   6.214  0.7537  0.3428  0.7548
    1CHL1  H27C   74   3.730   5.524   6.314 -0.8861 -0.1140 -2.4310
    2CHL1    C3   75   3.468   4.427   7.864 -0.3310 -0.3689 -0.1571
    2CHL1    H3   76   3.437   4.533   7.851 -1.4599 -0.7596 -0.8708
    2CHL1    O3   77   3.514   4.419   8.000  0.1792 -0.5636  0.0612
    2CHL1   H3'   78   3.540   4.329   8.022 -0.9746 -1.1462 -0.8088
    2CHL1    C4   79   3.342   4.340   7.836  0.1582 -0.1171 -0.0030
    2CHL1   H4A   80   3.358   4.236   7.870  0.7126 -0.6699 -1.8097
    2CHL1   H4B   81   3.259   4.380   7.897  2.1123  3.6437  0.4753
    2CHL1    C5   82   3.310   4.341   7.685 -1.3321 -0.0954 -0.3187
    2CHL1    C6   83   3.189   4.361   7.641 -0.0836  0.3496 -0.1698
    2CHL1    H6   84   3.121   4.383   7.725 -0.6863  1.8912 -1.0174
    2CHL1    C7   85   3.141   4.353   7.500  0.1813 -0.5495 -0.3234
    2CHL1   H7A   86   3.040   4.306   7.496 -0.0544 -0.0168 -0.7224
    2CHL1   H7B   87   3.131   4.454   7.456  0.0814 -0.7987 -0.8876
    2CHL1    C8   88   3.240   4.273   7.411  0.4102  0.0067  0.3404
    2CHL1    H8   89   3.234   4.165   7.436 -1.3423  0.6684  3.3190
    2CHL1   C14   90   3.200   4.286   7.265 -0.4782  0.2674 -0.0910
    2CHL1   H14   91   3.199   4.395   7.243 -0.0035  0.3154  0.1152
    2CHL1   C15   92   3.054   4.242   7.225 -0.3952  0.0772 -0.3318
    2CHL1  H15A   93   3.018   4.146   7.267  0.7898 -0.5076 -0.6202
    2CHL1  H15B   94   2.984   4.320   7.263  0.4312  0.5933  0.1554
    2CHL1   C16   95   3.067   4.251   7.067 -1.2573 -0.2974 -0.0473
    2CHL1  H16A   96   3.026   4.153   7.034 -1.2986 -0.8459  1.5633
    2CHL1  H16B   97   3.011   4.342   7.036  1.3909  1.6759  0.6248
    2CHL1   C17   98   3.224   4.252   7.031  0.8897 -0.3695 -0.8878
    2CHL1   H17   99   3.240   4.362   7.028 -1.8970  0.1598  0.5493
    2CHL1   C13  100   3.302   4.218   7.164  0.0220 -0.4382  0.4736
    2CHL1   C18  101   3.310   4.065   7.177  0.4895 -0.1426  0.2570
    2CHL1  H18A  102   3.212   4.020   7.152 -0.1608  0.4869  1.5848
    2CHL1  H18B  103   3.383   4.032   7.100  0.3709  0.7314 -0.2443
    2CHL1  H18C  104   3.345   4.020   7.272 -1.4510 -0.7719  0.7207
    2CHL1   C12  105   3.440   4.274   7.194 -0.2972 -0.5575 -0.4159
    2CHL1  H12A  106   3.510   4.245   7.113  0.5329  1.1494 -0.3615
    2CHL1  H12B  107   3.442   4.382   7.167  1.2298 -0.6783 -0.8385
    2CHL1   C11  108   3.496   4.267   7.339 -0.3949 -0.1441  0.4817
    2CHL1  H11A  109   3.517   4.161   7.362 -0.0630 -0.5424 -1.5022
    2CHL1  H11B  110   3.592   4.321   7.353 -1.0171  0.8115  1.1894
    2CHL1    C9  111   3.388   4.323   7.445  0.0022 -0.5427  0.0941
    2CHL1    H9  112   3.384   4.433   7.429 -0.1214 -0.3940  1.1394
    2CHL1   C10  113   3.426   4.302   7.588  0.2363  0.2053 -0.0955
    2CHL1   C19  114   3.464   4.154   7.618 -0.3364  0.1309 -0.2195
    2CHL1  H19A  115   3.379   4.091   7.586 -1.5599  1.0342  1.1477
    2CHL1  H19B  116   3.555   4.124   7.561 -1.8169 -2.6697 -1.2502
    2CHL1  H19C  117   3.490   4.132   7.724  3.8124 -0.5071 -1.2011
    2CHL1    C1  118   3.553   4.394   7.623 -0.7307 -0.2422  0.4073
    2CHL1   H1A  119   3.639   4.367   7.558 -0.5937  2.2410 -0.5295
    2CHL1   H1B  120   3.530   4.500   7.600 -0.3964  0.2014  1.9972
    2CHL1    C2  121   3.591   4.399   7.770 -0.1345 -0.7535  0.1649
    2CHL1   H2A  122   3.676   4.469   7.791  0.7026 -1.5795 -0.3858
    2CHL1   H2B  123   3.636   4.300   7.795 -2.0308 -1.3712  1.3270
    2CHL1   C20  124   3.250   4.183   6.898 -0.0561  0.9964 -0.5306
    2CHL1   H20  125   3.226   4.074   6.903  0.6943  0.8441 -0.0600
    2CHL1   C21  126   3.396   4.208   6.863  0.0725 -0.7418 -0.2053
    2CHL1  H21A  127   3.416   4.173   6.760 -0.0678  0.2329 -0.5772
    2CHL1  H21B  128   3.455   4.157   6.943 -1.6624 -1.5720  0.6203
    2CHL1  H21C  129   3.417   4.317   6.866  3.1102 -1.2460 -0.6916
    2CHL1   C22  130   3.161   4.249   6.788  0.4484  0.5385 -0.2993
    2CHL1  H22A  131   3.054   4.262   6.815  1.0462  2.2313  1.5961
    2CHL1  H22B  132   3.213   4.346   6.773 -2.1420  2.2240  0.8120
    2CHL1   C23  133   3.157   4.171   6.657 -0.0792 -0.4513 -0.6379
    2CHL1  H23A  134   3.265   4.179   6.630  0.2662  2.2618  1.0922
    2CHL1  H23B  135   3.130   4.066   6.678 -1.7087 -0.2841 -1.7294
    2CHL1   C24  136   3.062   4.241   6.558 -0.0051 -0.3715  0.2653
    2CHL1  H24A  137   2.961   4.250   6.603 -0.1893  1.3985 -0.4298
    2CHL1  H24B  138   3.098   4.341   6.526  0.2543 -0.5339  0.0457
    2CHL1   C25  139   3.042   4.162   6.430  0.1082  0.5201 -0.6845
    2CHL1   H25  140   3.023   4.059   6.467  2.1432  0.3929  0.1500
    2CHL1   C26  141   2.921   4.218   6.357 -0.0300  0.2313 -0.1592
    2CHL1  H26A  142   2.893   4.150   6.273  1.5726 -0.3792 -0.2377
    2CHL1  H26B  143   2.833   4.220   6.425 -0.9792 -1.6939 -1.2408
    2CHL1  H26C  144   2.942   4.319   6.317  1.0103  1.0390  2.2213
    2CHL1   C27  145   3.171   4.168   6.347  0.1162 -0.2296 -0.4354
    2CHL1  H27A  146   3.156   4.140   6.240  0.1848  0.8178 -0.7264
    2CHL1  H27B  147   3.207   4.273   6.341 -1.2412  0.3645  1.1181
    2CHL1  H27C  148   3.241   4.098   6.398 -1.6490  0.5349  3.3599
    3CHL1    C3  149   4.851   3.227   7.272  0.5803  0.2749 -0.3276
    3CHL1    H3  150   4.860   3.119   7.294  3.2880 -0.0405 -2.4317
    3CHL1    O3  151   4.833   3.279   7.405  0.2939  0.0639  0.3375
    3CHL1   H3'  152   4.800   3.367   7.387  1.1761  0.0840 -1.4552
    3CHL1    C4  153   4.969   3.304   7.215 -0.4158 -0.4148  0.3353
    3CHL1   H4A  154   4.958   3.415   7.226 -1.7196 -0.5008  0.1209
    3CHL1   H4B  155   5.057   3.278   7.277  0.4458 -0.0652 -0.7055
    3CHL1    C5  156   4.991   3.267   7.070  0.0910 -0.4956 -0.2150
    3CHL1    C6  157   5.106   3.217   7.029  0.4619 -1.0766  0.3376
    3CHL1    H6  158   5.189   3.196   7.099  0.8587 -1.5495 -0.2657
    3CHL1    C7  159   5.141   3.204   6.885  0.3797 -0.4170  0.6206
    3CHL1   H7A  160   5.240   3.248   6.863  1.9921 -3.6333  0.9038
    3CHL1   H7B  161   5.155   3.095   6.869  2.8697 -0.4812  2.7365
    3CHL1    C8  162   5.038   3.262   6.789 -0.4142  0.1824 -0.8551
    3CHL1    H8  163   5.051   3.372   6.783  0.6728  0.2905  1.8817
    3CHL1   C14  164   5.054   3.197   6.651  0.3657  0.1808 -0.1111
    3CHL1   H14  165   5.017   3.093   6.662 -0.4406  0.1410 -2.5115
    3CHL1   C15  166   5.198   3.181   6.595 -0.2701 -0.5704 -0.3233
    3CHL1  H15A  167   5.273   3.261   6.615  2.9211 -2.7711 -2.5013
    3CHL1  H15B  168   5.247   3.086   6.624  3.9506  1.6019  0.5635
    3CHL1   C16  169   5.176   3.169   6.443  0.0557  0.1946 -0.3551
    3CHL1  H16A  170   5.217   3.266   6.407  3.3588 -1.1447 -0.5627
    3CHL1  H16B  171   5.230   3.078   6.408  0.4925 -0.0954  0.9907
    3CHL1   C17  172   5.028   3.159   6.419  0.0029  0.5992  0.0029
    3CHL1   H17  173   5.005   3.051   6.430 -0.6893  0.7904  0.4536
    3CHL1   C13  174   4.961   3.234   6.539  0.0370  0.7980  0.1117
    3CHL1   C18  175   4.971   3.384   6.511  0.0818 -0.0917 -0.2794
    3CHL1  H18A  176   4.950   3.444   6.603  0.9833 -2.2146  1.3935
    3CHL1  H18B  177   5.067   3.426   6.475 -1.0208  1.1557 -1.8805
    3CHL1  H18C  178   4.898   3.403   6.430  1.2151  1.6330 -0.9440
    3CHL1   C12  179   4.821   3.191   6.591  0.3520  0.0353  0.0255
    3CHL1  H12A  180   4.730   3.219   6.534 -2.2487 -0.6923  3.4280
    3CHL1  H12B  181   4.818   3.080   6.600 -1.2458  0.0328 -0.2962
    3CHL1   C11  182   4.791   3.256   6.729 -0.7982  0.8361 -0.4088
    3CHL1  H11A  183   4.789   3.365   6.713  1.8850  0.9441 -0.4801
    3CHL1  H11B  184   4.690   3.218   6.757 -0.4947 -0.1039 -0.5530
    3CHL1    C9  185   4.897   3.226   6.837 -0.0757  0.3302 -0.2180
    3CHL1    H9  186   4.895   3.115   6.846  0.1675  0.2731 -0.8226
    3CHL1   C10  187   4.867   3.286   6.979 -0.4278  0.6183  0.3455
    3CHL1   C19  188   4.840   3.439   6.961  0.2038  0.2699 -0.1959
    3CHL1  H19A  189   4.914   3.486   6.894  0.3596 -1.8947 -1.6447
    3CHL1  H19B  190   4.738   3.455   6.920  0.0577 -0.5341 -0.1813
    3CHL1  H19C  191   4.845   3.488   7.061 -1.5074 -0.9165  0.5422
    3CHL1    C1  192   4.742   3.223   7.046 -0.0973  1.1045 -0.2272
    3CHL1   H1A  193   4.648   3.250   6.993 -1.1102  0.1618  1.0381
    3CHL1   H1B  194   4.748   3.113   7.034 -2.0073  0.8592  0.7986
    3CHL1    C2  195   4.723   3.241   7.199 -0.1395 -1.1121  0.5161
    3CHL1   H2A  196   4.629   3.188   7.226 -0.7499 -0.0351  0.5768
    3CHL1   H2B  197   4.698   3.349   7.214 -0.9259 -1.3968  1.2731
    3CHL1   C20  198   4.992   3.187   6.277  0.9184  0.0883 -0.8960
    3CHL1   H20  199   4.969   3.294   6.260 -3.3573 -0.6468 -0.7628
    3CHL1   C21  200   4.856   3.117   6.245  0.4847  0.4374 -0.2009
    3CHL1  H21A  201   4.813   3.144   6.146 -0.1117  1.7527  0.3914
    3CHL1  H21B  202   4.782   3.161   6.316  0.6014 -2.0889  1.6229
    3CHL1  H21C  203   4.846   3.009   6.270 -2.2759  0.4968 -0.7971
    3CHL1   C22  204   5.092   3.134   6.167  0.0500  0.0384 -0.1375
    3CHL1  H22A  205   5.048   3.176   6.073 -2.4065 -2.6161 -0.3041
    3CHL1  H22B  206   5.194   3.177   6.163 -0.0262  0.1975 -0.4985
    3CHL1   C23  207   5.114   2.982   6.164 -0.4421  0.1205  0.3696
    3CHL1  H23A  208   5.167   2.948   6.255 -1.6144 -2.4044  0.1830
    3CHL1  H23B  209   5.019   2.924   6.159  0.1097 -0.6965 -2.7680
    3CHL1   C24  210   5.181   2.927   6.041  0.2442 -0.0307 -0.1624
    3CHL1  H24A  211   5.170   2.818   6.056 -0.7206  0.4246  3.3563
    3CHL1  H24B  212   5.126   2.948   5.947  0.2436 -1.2391 -0.4406
    3CHL1   C25  213   5.335   2.959   6.019 -0.4544  1.2164 -0.2390
    3CHL1   H25  214   5.331   3.066   5.990 -3.2606  1.8167  1.9103
    3CHL1   C26  215   5.412   2.941   6.146 -0.0832  0.3077  0.2966
    3CHL1  H26A  216   5.396   3.024   6.218  1.6752 -0.1357  1.2502
    3CHL1  H26B  217   5.366   2.855   6.199  0.7191  0.8786  1.9761
    3CHL1  H26C  218   5.519   2.913   6.140 -0.3348 -0.4402 -1.4488
    3CHL1   C27  219   5.391   2.861   5.921 -0.5759  0.0736  0.3232
    3CHL1  H27A  220   5.501   2.877   5.915 -0.7172  1.2878  0.6029
    3CHL1  H27B  221   5.377   2.754   5.944 -1.2915 -0.5031 -2.3692
    3CHL1  H27C  222   5.352   2.882   5.818 -0.1623  2.1096  0.5405
    4CHL1    C3  223   4.176   5.481   7.617  0.0142 -0.2214 -0.9773
    4CHL1    H3  224   4.101   5.405   7.586  0.8453 -1.3660 -0.2626
    4CHL1    O3  225   4.133   5.524   7.744  0.3442 -0.2719  0.4073
    4CHL1   H3'  226   4.218   5.538   7.787  1.0104  0.3718 -1.0346
    4CHL1    C4  227   4.317   5.427   7.620  0.7752  0.6368  0.0648
    4CHL1   H4A  228   4.387   5.506   7.654  0.4415  0.2298  1.7828
    4CHL1   H4B  229   4.324   5.337   7.684  2.3668  0.4291 -0.3506
    4CHL1    C5  230   4.364   5.390   7.483  0.9639 -0.7629  0.0834
    4CHL1    C6  231   4.401   5.264   7.453  0.7685  0.1064 -0.8567
    4CHL1    H6  232   4.384   5.184   7.527  1.2059 -0.1593 -1.0424
    4CHL1    C7  233   4.465   5.227   7.325 -1.1219 -0.0449  0.5359
    4CHL1   H7A  234   4.563   5.175   7.337 -1.2523 -0.3302  0.3648
    4CHL1   H7B  235   4.393   5.160   7.274 -1.0897 -1.0811  1.7812
    4CHL1    C8  236   4.491   5.337   7.228  0.4505 -0.8540  0.3710
    4CHL1    H8  237   4.584   5.394   7.251  0.3993 -0.0275 -1.3434
    4CHL1   C14  238   4.496   5.275   7.091 -0.3672 -0.3709  0.8964
    4CHL1   H14  239   4.392   5.248   7.063  0.0099  1.2050 -2.6006
    4CHL1   C15  240   4.589   5.160   7.058 -0.8719 -0.0269 -0.1423
    4CHL1  H15A  241   4.692   5.180   7.094 -0.5941  2.0259 -1.8280
    4CHL1  H15B  242   4.561   5.060   7.097 -2.0771 -0.5557 -2.2087
    4CHL1   C16  243   4.594   5.154   6.903  0.4184 -0.0228  0.1580
    4CHL1  H16A  244   4.690   5.121   6.859  0.2229 -0.9922  0.4499
    4CHL1  H16B  245   4.520   5.075   6.881 -0.7581  0.1000  3.2357
    4CHL1   C17  246   4.535   5.291   6.854  0.6130  0.3223 -0.2273
    4CHL1   H17  247   4.430   5.263   6.830 -0.0301  0.0805  2.5177
    4CHL1   C13  248   4.527   5.383   6.988 -0.0315  0.0263 -0.4630
    4CHL1   C18  249   4.672   5.443   7.013  0.5359  0.5748 -0.3755
    4CHL1  H18A  250   4.716   5.497   6.925  0.9491  1.0218  0.0970
    4CHL1  H18B  251   4.658   5.518   7.094  1.5410  0.0845  0.2677
    4CHL1  H18C  252   4.749   5.367   7.034 -1.3749 -1.6316 -0.9830
    4CHL1   C12  253   4.416   5.490   6.985 -0.0117  0.4157 -0.3823
    4CHL1  H12A  254   4.437   5.571   6.912 -0.2008  0.0218 -0.8762
    4CHL1  H12B  255   4.330   5.439   6.938 -0.8830  2.5160 -1.2173
    4CHL1   C11  256   4.394   5.554   7.118  0.0520  0.1202 -0.3194
    4CHL1  H11A  257   4.480   5.622   7.134 -0.2749 -0.0630  2.8188
    4CHL1  H11B  258   4.296   5.606   7.109  0.2367  0.2023 -2.2659
    4CHL1    C9  259   4.382   5.442   7.231 -0.3101  0.2748  0.0535
    4CHL1    H9  260   4.289   5.384   7.210 -0.7940  0.9536  0.2983
    4CHL1   C10  261   4.364   5.505   7.373 -0.3851 -0.5417 -0.6830
    4CHL1   C19  262   4.464   5.621   7.408  0.0021 -0.1516 -0.9114
    4CHL1  H19A  263   4.466   5.645   7.516  0.6142 -2.0541 -0.4475
    4CHL1  H19B  264   4.569   5.588   7.395  0.2213  0.9234 -2.0126
    4CHL1  H19C  265   4.449   5.718   7.355  1.6784  1.5725  1.5791
    4CHL1    C1  266   4.221   5.567   7.379 -0.1202  0.8909  0.1164
    4CHL1   H1A  267   4.216   5.663   7.324  2.2543  1.0914  0.1333
    4CHL1   H1B  268   4.148   5.497   7.333  0.4976  0.3192 -0.0101
    4CHL1    C2  269   4.167   5.603   7.522 -0.2276  0.4545  0.7783
    4CHL1   H2A  270   4.062   5.641   7.521 -0.8651 -1.1794  1.5651
    4CHL1   H2B  271   4.232   5.685   7.558  1.9743 -1.3438  1.0822
    4CHL1   C20  272   4.610   5.346   6.729  0.2762  0.0429 -1.1831
    4CHL1   H20  273   4.716   5.372   6.753  0.4865 -0.5521 -1.4388
    4CHL1   C21  274   4.543   5.479   6.684  0.0670  0.4253  0.4250
    4CHL1  H21A  275   4.600   5.514   6.596  2.6505  0.5201  2.0446
    4CHL1  H21B  276   4.560   5.549   6.768  0.1610  0.7629  0.1223
    4CHL1  H21C  277   4.437   5.459   6.658  0.1429 -1.1972  1.2199
    4CHL1   C22  278   4.633   5.256   6.605  0.9375  0.4905  0.7867
    4CHL1  H22A  279   4.661   5.322   6.520 -2.7359  2.2255  0.7108
    4CHL1  H22B  280   4.711   5.177   6.607  1.3974  0.8121 -1.5833
    4CHL1   C23  281   4.495   5.205   6.552 -0.3798  0.4331  0.1075
    4CHL1  H23A  282   4.453   5.114   6.598  0.1774  1.9186  3.9253
    4CHL1  H23B  283   4.403   5.267   6.548 -1.0758 -0.5645  0.3744
    4CHL1   C24  284   4.503   5.171   6.396  0.5174 -0.0875  0.2461
    4CHL1  H24A  285   4.430   5.239   6.347  1.4242  2.1378  1.8389
    4CHL1  H24B  286   4.607   5.182   6.358  1.1566 -1.0444  1.6293
    4CHL1   C25  287   4.459   5.030   6.361  0.0905 -0.1336 -0.1915
    4CHL1   H25  288   4.504   4.967   6.441  2.6379  2.4487  0.5807
    4CHL1   C26  289   4.308   5.007   6.372 -0.3485 -0.0093  0.2250
    4CHL1  H26A  290   4.247   5.068   6.302 -0.9678  0.9793  1.5863
    4CHL1  H26B  291   4.264   4.905   6.365 -1.3073  0.3770  0.4439
    4CHL1  H26C  292   4.271   5.050   6.468 -1.7566  1.5234 -0.9468
    4CHL1   C27  293   4.517   4.975   6.228  0.0730  0.2771  0.1595
    4CHL1  H27A  294   4.470   4.889   6.176  2.1895 -1.0300  0.2874
    4CHL1  H27B  295   4.543   5.050   6.150  3.9750 -1.2617 -0.2755
    4CHL1  H27C  296   4.613   4.933   6.266  0.2755 -0.9377 -1.5892
    5CHL1    C3  297   1.472   0.977   7.546  0.0088  0.7065 -0.0287
    5CHL1    H3  298   1.439   1.082   7.533 -0.5388  0.4713 -0.6171
    5CHL1    O3  299   1.470   0.941   7.686  0.0119 -0.1326  0.6126
    5CHL1   H3'  300   1.528   1.005   7.729  0.2657  0.2340 -0.2417
    5CHL1    C4  301   1.361   0.889   7.482  0.1569  0.7451  0.2711
    5CHL1   H4A  302   1.378   0.780   7.494  1.3389  0.9430  0.5193
    5CHL1   H4B  303   1.276   0.917   7.548  0.6323 -0.8231  1.6293
    5CHL1    C5  304   1.349   0.923   7.334  0.1345  0.7640  0.1410
    5CHL1    C6  305   1.233   0.969   7.285  0.5804  0.3476  0.3288
    5CHL1    H6  306   1.151   0.982   7.356  0.8148 -0.1093  0.6914
    5CHL1    C7  307   1.211   0.996   7.137  0.2601  0.0842 -1.6781
    5CHL1   H7A  308   1.121   0.936   7.110  1.0245 -2.4086  0.7891
    5CHL1   H7B  309   1.188   1.103   7.122  0.3598 -0.0332 -2.7646
    5CHL1    C8  310   1.323   0.946   7.051 -0.4573 -0.1206  0.2543
    5CHL1    H8  311   1.303   0.838   7.041  2.1731 -0.5606 -1.2064
    5CHL1   C14  312   1.307   1.016   6.916  0.1787  0.2905  0.1058
    5CHL1   H14  313   1.337   1.123   6.926  2.2373 -0.3114  0.8844
    5CHL1   C15  314   1.170   1.012   6.842  0.2073  0.5295 -0.6003
    5CHL1  H15A  315   1.117   0.918   6.867  0.2464  0.5470 -0.4498
    5CHL1  H15B  316   1.116   1.097   6.890  1.5193  0.6777  0.6899
    5CHL1   C16  317   1.203   1.029   6.696 -0.7528 -0.5638 -0.1403
    5CHL1  H16A  318   1.161   0.947   6.633 -2.2331  0.8718 -1.0901
    5CHL1  H16B  319   1.147   1.118   6.659  0.1816 -0.3387 -1.0617
    5CHL1   C17  320   1.363   1.058   6.693 -0.2036 -0.0351  0.5189
    5CHL1   H17  321   1.383   1.163   6.723 -0.8708 -0.4057  2.4699
    5CHL1   C13  322   1.407   0.973   6.810  0.1431  0.2369 -0.1039
    5CHL1   C18  323   1.390   0.826   6.781  0.3455  0.1201 -0.1665
    5CHL1  H18A  324   1.292   0.801   6.736 -0.5991  2.2046  0.6402
    5CHL1  H18B  325   1.474   0.793   6.717  2.3818  1.2998  1.7583
    5CHL1  H18C  326   1.412   0.766   6.873  2.2028  1.3449  0.2446
    5CHL1   C12  327   1.552   0.994   6.860  0.3820  0.5084  0.2985
    5CHL1  H12A  328   1.623   0.942   6.792  0.4352  1.1668 -0.1665
    5CHL1  H12B  329   1.593   1.097   6.849  1.1087  0.6447  3.3321
    5CHL1   C11  330   1.571   0.934   7.004 -0.5224 -1.1082 -0.1415
    5CHL1  H11A  331   1.570   0.824   6.990 -5.9189 -1.4376  0.5210
    5CHL1  H11B  332   1.663   0.979   7.045 -2.8626  4.0174  0.3389
    5CHL1    C9  333   1.461   0.976   7.106 -0.2437  0.4851  0.4697
    5CHL1    H9  334   1.470   1.086   7.120  1.5507  0.4322 -0.0864
    5CHL1   C10  335   1.473   0.909   7.249  0.3751 -0.7645 -0.3963
    5CHL1   C19  336   1.494   0.762   7.234 -0.0027 -0.1956  0.3678
    5CHL1  H19A  337   1.506   0.721   7.336 -1.5402  1.8436  1.4398
    5CHL1  H19B  338   1.410   0.714   7.178  1.1531 -2.0976  0.1816
    5CHL1  H19C  339   1.584   0.733   7.175 -0.2258  0.2669 -0.2169
    5CHL1    C1  340   1.589   0.982   7.323 -0.2591  0.2765 -0.5259
    5CHL1   H1A  341   1.684   0.951   7.276 -0.5888 -0.5867 -0.6473
    5CHL1   H1B  342   1.579   1.092   7.317  1.9685  0.5437  0.0616
    5CHL1    C2  343   1.600   0.947   7.475 -0.7279 -0.5988  0.4764
    5CHL1   H2A  344   1.671   1.021   7.518 -1.0187 -1.0970  1.8495
    5CHL1   H2B  345   1.638   0.843   7.488  3.9862  0.7772 -0.1896
    5CHL1   C20  346   1.422   1.028   6.556 -0.2447 -0.1848  0.8831
    5CHL1   H20  347   1.445   0.922   6.530 -0.1879 -0.3573  1.6264
    5CHL1   C21  348   1.567   1.090   6.556  0.2036  0.4701  0.8353
    5CHL1  H21A  349   1.643   1.043   6.622 -0.6569  2.0916  3.1054
    5CHL1  H21B  350   1.573   1.200   6.566  2.9602  0.6209 -1.2753
    5CHL1  H21C  351   1.595   1.062   6.452 -0.2588  2.1048  0.2393
    5CHL1   C22  352   1.329   1.080   6.444  0.2200 -0.4919 -0.6298
    5CHL1  H22A  353   1.229   1.032   6.452 -0.5289  1.2625  2.3000
    5CHL1  H22B  354   1.307   1.187   6.463 -1.3635 -1.1151  1.3122
    5CHL1   C23  355   1.375   1.077   6.301  0.1130 -0.1292  0.2316
    5CHL1  H23A  356   1.464   1.141   6.281  0.5635 -0.6346  0.5924
    5CHL1  H23B  357   1.405   0.977   6.262  0.4406 -0.3341  0.9841
    5CHL1   C24  358   1.272   1.126   6.205  0.0295 -0.0690  0.1422
    5CHL1  H24A  359   1.177   1.071   6.224  0.1220 -1.0999 -2.0075
    5CHL1  H24B  360   1.260   1.233   6.233 -1.7730 -0.4135  0.8211
    5CHL1   C25  361   1.312   1.116   6.062  0.7377  0.3627  0.2511
    5CHL1   H25  362   1.330   1.009   6.038 -0.4138  0.1259  0.3924
    5CHL1   C26  363   1.196   1.164   5.971  0.2010 -0.0015  0.0275
    5CHL1  H26A  364   1.168   1.271   5.984  0.3461  0.3749 -2.3051
    5CHL1  H26B  365   1.212   1.142   5.864 -0.4439 -1.5391  0.2293
    5CHL1  H26C  366   1.109   1.100   5.997  0.6846 -0.9551 -0.6820
    5CHL1   C27  367   1.445   1.185   6.034 -0.3540 -0.7629  0.0816
    5CHL1  H27A  368   1.534   1.134   6.078 -0.7609 -2.2881 -0.7920
    5CHL1  H27B  369   1.455   1.173   5.924  2.5948  1.0032  0.0661
    5CHL1  H27C  370   1.430   1.291   6.062 -2.2687 -0.3274 -2.2784
    6CHL1    C3  371   3.480   5.195   7.812 -0.2630 -0.6062  0.2470
    6CHL1    H3  372   3.418   5.261   7.749  1.1711  0.2713 -0.2865
    6CHL1    O3  373   3.498   5.244   7.940  0.1217 -0.0835 -0.8439
    6CHL1   H3'  374   3.547   5.182   7.994  1.0779  1.6190  0.3300
    6CHL1    C4  375   3.418   5.056   7.805 -0.0202  0.3896  0.8261
    6CHL1   H4A  376   3.476   4.997   7.878  0.8906  1.0417  0.6426
    6CHL1   H4B  377   3.312   5.062   7.837 -0.7290 -0.6020 -1.1277
    6CHL1    C5  378   3.425   4.988   7.661 -0.0313 -0.4859 -1.0859
    6CHL1    C6  379   3.315   4.943   7.597 -0.3653 -0.1675 -0.2802
    6CHL1    H6  380   3.220   4.952   7.651 -1.4831 -1.3278 -1.9777
    6CHL1    C7  381   3.315   4.889   7.453 -0.4849 -0.2865  0.3043
    6CHL1   H7A  382   3.253   4.797   7.459  0.2007 -0.9212 -1.5647
    6CHL1   H7B  383   3.265   4.962   7.385 -1.1108  0.6285  1.6923
    6CHL1    C8  384   3.460   4.851   7.408 -0.3634 -0.4642  0.8089
    6CHL1    H8  385   3.481   4.754   7.459 -2.7947 -2.0468 -0.9614
    6CHL1   C14  386   3.461   4.832   7.260  0.2270  0.3335  0.7217
    6CHL1   H14  387   3.439   4.927   7.207 -0.2791  0.0957  0.5026
    6CHL1   C15  388   3.354   4.734   7.210  0.3023  0.5366  0.1313
    6CHL1  H15A  389   3.342   4.649   7.281  1.2576  0.4169  0.1651
    6CHL1  H15B  390   3.258   4.786   7.192 -0.1087 -0.9712 -2.4758
    6CHL1   C16  391   3.417   4.679   7.076  0.2088  0.1832 -0.1155
    6CHL1  H16A  392   3.432   4.569   7.083  0.4948  0.0764 -1.9149
    6CHL1  H16B  393   3.336   4.701   7.003 -0.8906  2.1809  1.6070
    6CHL1   C17  394   3.557   4.746   7.062 -0.2507 -0.3743 -0.0135
    6CHL1   H17  395   3.540   4.849   7.023  0.4187 -0.2660 -0.0358
    6CHL1   C13  396   3.601   4.780   7.202  0.3562 -0.0434 -0.9257
    6CHL1   C18  397   3.642   4.647   7.266  0.6580  0.0029  0.4613
    6CHL1  H18A  398   3.562   4.571   7.255 -0.8059  1.7838 -2.2954
    6CHL1  H18B  399   3.735   4.619   7.213  0.7853 -1.3164  1.3290
    6CHL1  H18C  400   3.661   4.664   7.374 -1.5250 -1.9053  1.2318
    6CHL1   C12  401   3.701   4.894   7.229 -0.7575 -0.3177 -0.3730
    6CHL1  H12A  402   3.799   4.860   7.190 -1.3138 -0.6823 -1.5017
    6CHL1  H12B  403   3.680   4.986   7.170 -1.0310  0.8365  1.4409
    6CHL1   C11  404   3.707   4.929   7.386  0.0153  0.3989  0.7235
    6CHL1  H11A  405   3.759   4.843   7.433  1.7273  2.0341  1.9850
    6CHL1  H11B  406   3.777   5.015   7.396  1.9702 -1.1079  0.4657
    6CHL1    C9  407   3.568   4.953   7.447 -0.1100  0.1235  1.0747
    6CHL1    H9  408   3.520   5.037   7.394 -3.2779 -1.1503  1.7045
    6CHL1   C10  409   3.569   4.990   7.598  0.0059 -0.2295  0.2530
    6CHL1   C19  410   3.661   4.891   7.671  0.6044  0.2421 -0.6157
    6CHL1  H19A  411   3.656   4.889   7.782 -3.8845  0.4109 -0.6555
    6CHL1  H19B  412   3.637   4.786   7.643 -0.1748  0.4916 -0.9050
    6CHL1  H19C  413   3.764   4.905   7.631  0.7085 -1.7639 -1.2098
    6CHL1    C1  414   3.621   5.135   7.614 -0.4761  0.0548  0.0969
    6CHL1   H1A  415   3.728   5.141   7.587  0.2410 -2.4925  2.0662
    6CHL1   H1B  416   3.582   5.211   7.542 -0.4996  1.9648  2.0259
    6CHL1    C2  417   3.624   5.185   7.756 -0.1906 -0.2840  0.5043
    6CHL1   H2A  418   3.672   5.285   7.747  0.6062 -0.7366 -0.2901
    6CHL1   H2B  419   3.683   5.118   7.822  0.6086  1.0976  1.2586
    6CHL1   C20  420   3.658   4.686   6.960  0.4461  0.2383  0.5383
    6CHL1   H20  421   3.670   4.579   6.988  0.0696  0.3168  1.0107
    6CHL1   C21  422   3.798   4.741   6.965 -0.8668 -0.3602  0.7316
    6CHL1  H21A  423   3.843   4.694   6.875 -0.6085  1.3446 -0.0572
    6CHL1  H21B  424   3.848   4.696   7.054 -1.5333 -0.2162  1.1881
    6CHL1  H21C  425   3.798   4.851   6.952  0.5776 -0.3420  0.7145
    6CHL1   C22  426   3.594   4.676   6.816 -0.1819  0.3440  0.2095
    6CHL1  H22A  427   3.484   4.679   6.833 -0.1587 -1.9478  1.0693
    6CHL1  H22B  428   3.625   4.777   6.780  1.0531 -0.0213  0.2195
    6CHL1   C23  429   3.641   4.555   6.738 -0.4044  0.4843  0.6522
    6CHL1  H23A  430   3.733   4.580   6.681 -0.1071  1.3179  1.4783
    6CHL1  H23B  431   3.663   4.472   6.808 -1.9043 -0.7066 -0.2131
    6CHL1   C24  432   3.545   4.497   6.636 -0.3394  0.1691 -0.0998
    6CHL1  H24A  433   3.603   4.410   6.598 -0.5589 -0.1308  0.2437
    6CHL1  H24B  434   3.461   4.448   6.689  1.4188 -2.4253  0.4756
    6CHL1   C25  435   3.491   4.586   6.519 -1.3604 -0.6626 -0.4670
    6CHL1   H25  436   3.419   4.659   6.562 -0.5977  0.3561 -0.8872
    6CHL1   C26  437   3.597   4.671   6.443 -0.0115  0.1577 -0.4171
    6CHL1  H26A  438   3.679   4.600   6.420  0.9360  0.5119  1.6165
    6CHL1  H26B  439   3.553   4.730   6.360 -2.0203  1.1399  1.2472
    6CHL1  H26C  440   3.639   4.741   6.518 -0.0795 -1.7417  1.4867
    6CHL1   C27  441   3.418   4.507   6.414 -0.4714 -0.1639  0.3167
    6CHL1  H27A  442   3.373   4.580   6.344  2.1626  1.9917  0.6802
    6CHL1  H27B  443   3.491   4.447   6.355 -0.1184  0.3901  0.1761
    6CHL1  H27C  444   3.344   4.437   6.458 -0.4521 -0.8949 -0.7730
    7CHL1    C3  445   2.785   2.978   7.719  0.1036 -0.1889 -1.0683
    7CHL1    H3  446   2.747   3.074   7.678 -5.0562 -0.7999  1.4448
    7CHL1    O3  447   2.775   2.985   7.865 -0.1499  0.0159 -0.1824
    7CHL1   H3'  448   2.731   2.905   7.894  1.5875 -0.3219  1.7680
    7CHL1    C4  449   2.692   2.867   7.668  0.0933 -0.5291 -0.4492
    7CHL1   H4A  450   2.710   2.770   7.721 -1.0171 -0.2800  0.4429
    7CHL1   H4B  451   2.588   2.893   7.699  0.2583 -0.3359 -0.0579
    7CHL1    C5  452   2.704   2.826   7.523 -0.0920 -0.7618  0.0686
    7CHL1    C6  453   2.600   2.827   7.445  1.3113  0.6281  0.8833
    7CHL1    H6  454   2.506   2.846   7.498  0.5487  0.5336 -0.3973
    7CHL1    C7  455   2.602   2.790   7.293  0.2646  0.5230 -0.4891
    7CHL1   H7A  456   2.520   2.716   7.275  1.2653 -1.5018  2.4235
    7CHL1   H7B  457   2.584   2.885   7.239  2.6374  1.8256  0.8794
    7CHL1    C8  458   2.744   2.727   7.263  0.0199 -0.3952 -0.2573
    7CHL1    H8  459   2.766   2.625   7.301  3.6030 -0.4113 -1.9060
    7CHL1   C14  460   2.770   2.718   7.115 -0.2730 -0.0490  0.3008
    7CHL1   H14  461   2.774   2.822   7.077 -0.3372 -0.6144 -1.3593
    7CHL1   C15  462   2.657   2.659   7.031  0.3560 -0.2707  0.0620
    7CHL1  H15A  463   2.626   2.566   7.082 -0.3353  0.1960  0.5141
    7CHL1  H15B  464   2.562   2.716   7.017  0.3239  0.0444  1.4130
    7CHL1   C16  465   2.728   2.637   6.899 -0.3544  0.0855 -0.3274
    7CHL1  H16A  466   2.702   2.531   6.877 -0.2044 -0.3973  1.6615
    7CHL1  H16B  467   2.689   2.712   6.826 -0.2752  0.2494 -0.2012
    7CHL1   C17  468   2.878   2.665   6.910 -0.0237  0.6848 -0.2107
    7CHL1   H17  469   2.900   2.772   6.888 -0.6829  0.7294 -0.6711
    7CHL1   C13  470   2.903   2.660   7.060  0.2633 -0.4014  0.3409
    7CHL1   C18  471   2.912   2.505   7.104 -0.3534 -0.7716  0.0574
    7CHL1  H18A  472   3.005   2.459   7.065 -0.6454 -1.4830  0.1994
    7CHL1  H18B  473   2.906   2.496   7.215  0.7886 -1.5414  0.0805
    7CHL1  H18C  474   2.832   2.449   7.052 -0.3888 -1.5973  0.9706
    7CHL1   C12  475   3.017   2.742   7.116  0.5006 -0.2822  0.3479
    7CHL1  H12A  476   3.107   2.682   7.091 -0.2789 -1.4444  0.2512
    7CHL1  H12B  477   3.017   2.834   7.053  0.4972 -1.2040 -1.0252
    7CHL1   C11  478   3.001   2.765   7.269  0.3846 -0.3731  0.1204
    7CHL1  H11A  479   3.036   2.673   7.321 -0.3998 -0.7671 -0.0334
    7CHL1  H11B  480   3.072   2.845   7.299 -0.0226  0.2853 -0.6413
    7CHL1    C9  481   2.858   2.809   7.326  0.0115 -0.2744 -1.0385
    7CHL1    H9  482   2.846   2.917   7.302 -0.9879  0.4718  2.2875
    7CHL1   C10  483   2.851   2.811   7.480 -0.4336 -0.0438 -0.9071
    7CHL1   C19  484   2.894   2.676   7.546 -0.4535 -0.1706 -0.0973
    7CHL1  H19A  485   2.856   2.585   7.493 -0.2055 -0.9862  1.0909
    7CHL1  H19B  486   3.005   2.672   7.552 -0.5217 -0.0834  1.8712
    7CHL1  H19C  487   2.857   2.669   7.650 -0.5934 -0.7897 -0.1836
    7CHL1    C1  488   2.949   2.921   7.535 -0.4350 -0.2405  0.5541
    7CHL1   H1A  489   3.054   2.882   7.532 -0.2408  0.1814  1.6384
    7CHL1   H1B  490   2.933   3.021   7.489 -0.0841  0.2623  1.4993
    7CHL1    C2  491   2.926   2.944   7.683  0.1968 -1.0093 -0.3114
    7CHL1   H2A  492   2.993   3.025   7.717  0.8191 -1.9585  0.8318
    7CHL1   H2B  493   2.959   2.851   7.736 -0.3862 -0.5847  0.8253
    7CHL1   C20  494   2.961   2.588   6.815 -0.6326 -0.1501 -0.0135
    7CHL1   H20  495   2.976   2.481   6.844 -1.1523 -0.1056  0.4478
    7CHL1   C21  496   3.095   2.656   6.785 -0.4224  0.2868 -0.0943
    7CHL1  H21A  497   3.082   2.762   6.757  1.4159  1.1626  2.0410
    7CHL1  H21B  498   3.148   2.598   6.706  2.0773  0.4221  1.3540
    7CHL1  H21C  499   3.161   2.662   6.874 -0.2587 -2.6657  0.1024
    7CHL1   C22  500   2.885   2.577   6.678  0.2272 -0.1977  0.3586
    7CHL1  H22A  501   2.797   2.512   6.691  0.1638  0.1468  1.8424
    7CHL1  H22B  502   2.859   2.677   6.639  3.6709 -0.9599 -4.8808
    7CHL1   C23  503   2.961   2.521   6.560 -0.0854  0.2986 -0.3429
    7CHL1  H23A  504   3.044   2.588   6.528  0.8160 -1.2615 -1.3991
    7CHL1  H23B  505   3.006   2.428   6.600 -0.1007 -0.2125 -1.4660
    7CHL1   C24  506   2.876   2.484   6.431  0.4099  0.2777 -1.1440
    7CHL1  H24A  507   2.946   2.437   6.358  0.9229 -0.6491 -0.0875
    7CHL1  H24B  508   2.801   2.409   6.464  0.7675 -0.2473 -1.5092
    7CHL1   C25  509   2.811   2.599   6.361 -0.0368  0.6581 -0.8065
    7CHL1   H25  510   2.739   2.649   6.429  0.0446 -1.2622  0.8120
    7CHL1   C26  511   2.918   2.699   6.319 -0.1226 -0.6085  0.7451
    7CHL1  H26A  512   2.869   2.777   6.256  1.8534 -0.2776 -0.4730
    7CHL1  H26B  513   2.952   2.763   6.403 -0.9846  1.6979 -0.5662
    7CHL1  H26C  514   3.003   2.665   6.257 -0.7034 -0.4576 -0.1550
    7CHL1   C27  515   2.722   2.559   6.242  0.0476  0.7761 -0.1825
    7CHL1  H27A  516   2.654   2.476   6.273  1.7855 -1.3218 -1.7138
    7CHL1  H27B  517   2.662   2.646   6.206  0.6461  1.4081  0.3134
    7CHL1  H27C  518   2.791   2.538   6.158 -0.4956  0.6247 -0.5940
    8CHL1    C3  519   1.558   1.932   7.853 -0.3210 -0.2373 -0.5936
    8CHL1    H3  520   1.536   2.028   7.904 -2.0785  0.2878 -2.2185
    8CHL1    O3  521   1.578   1.839   7.954  0.2687 -0.0443 -0.5015
    8CHL1   H3'  522   1.603   1.755   7.915  0.5110 -0.5727  0.7157
    8CHL1    C4  523   1.427   1.879   7.788 -0.0451  0.3265 -0.0044
    8CHL1   H4A  524   1.438   1.771   7.765  1.2833  1.0282 -3.1122
    8CHL1   H4B  525   1.347   1.890   7.865  0.8159  0.5156  0.8874
    8CHL1    C5  526   1.398   1.937   7.655  0.9027 -0.0786  0.4220
    8CHL1    C6  527   1.269   1.982   7.628  0.0179  0.1172  0.1348
    8CHL1    H6  528   1.196   1.967   7.710  1.1108 -2.2663  0.7462
    8CHL1    C7  529   1.228   2.045   7.500  0.3065 -0.0678 -0.2614
    8CHL1   H7A  530   1.129   2.008   7.466 -0.6497 -0.1160  2.3565
    8CHL1   H7B  531   1.215   2.154   7.519  1.3518  0.1889 -0.9152
    8CHL1    C8  532   1.339   2.019   7.384  0.1480 -0.1523  0.5035
    8CHL1    H8  533   1.335   1.911   7.358  1.1719 -0.9419  3.1999
    8CHL1   C14  534   1.310   2.109   7.266  0.1775 -0.4983  0.0982
    8CHL1   H14  535   1.332   2.208   7.312  0.7790 -1.3706  1.7547
    8CHL1   C15  536   1.172   2.099   7.203 -0.5752 -0.5708  0.2672
    8CHL1  H15A  537   1.131   1.996   7.194 -0.6477 -0.8480  2.8773
    8CHL1  H15B  538   1.085   2.140   7.259 -0.8470  0.0613 -0.5901
    8CHL1   C16  539   1.189   2.180   7.069  0.7013  0.2290 -0.0153
    8CHL1  H16A  540   1.152   2.109   6.992  1.6455 -0.3442  0.0434
    8CHL1  H16B  541   1.115   2.263   7.080  0.4314 -0.1737  1.3253
    8CHL1   C17  542   1.341   2.210   7.062 -0.2791 -0.8572 -0.9287
    8CHL1   H17  543   1.363   2.303   7.119  2.1216 -1.7840 -0.2469
    8CHL1   C13  544   1.413   2.102   7.154  0.4985 -0.2389  0.1544
    8CHL1   C18  545   1.406   1.967   7.073  0.1763 -0.0400  0.6708
    8CHL1  H18A  546   1.456   1.976   6.974 -0.8477  1.1724  0.2463
    8CHL1  H18B  547   1.448   1.871   7.112  0.3322 -0.6898 -0.9828
    8CHL1  H18C  548   1.303   1.938   7.044 -0.2618  1.5473  0.5831
    8CHL1   C12  549   1.552   2.135   7.204 -0.7948  0.5371 -0.3233
    8CHL1  H12A  550   1.626   2.127   7.122 -1.7860  1.9203 -1.4152
    8CHL1  H12B  551   1.556   2.231   7.259  1.2241 -0.6961  1.8441
    8CHL1   C11  552   1.588   2.029   7.315  0.1140  0.0289 -0.7313
    8CHL1  H11A  553   1.612   1.930   7.272  0.0710  0.7899 -2.6325
    8CHL1  H11B  554   1.680   2.070   7.360 -0.8659  0.7997  0.6434
    8CHL1    C9  555   1.484   2.043   7.437 -0.1288  0.6433  0.3393
    8CHL1    H9  556   1.489   2.142   7.487 -1.5690  0.7401  0.3374
    8CHL1   C10  557   1.522   1.949   7.560 -0.1859 -0.2446 -0.2831
    8CHL1   C19  558   1.562   1.809   7.503 -0.3282 -0.2458  0.1412
    8CHL1  H19A  559   1.664   1.802   7.459 -1.5844 -0.9684 -2.8926
    8CHL1  H19B  560   1.543   1.725   7.573 -0.2901 -0.8996 -0.6227
    8CHL1  H19C  561   1.497   1.789   7.415 -1.7318  1.1222  0.8053
    8CHL1    C1  562   1.652   2.009   7.636 -0.1396  0.1602  0.3463
    8CHL1   H1A  563   1.739   2.009   7.568 -2.3729  0.8049 -2.7270
    8CHL1   H1B  564   1.618   2.112   7.657  1.6629  0.5874  1.3458
    8CHL1    C2  565   1.680   1.949   7.771 -0.2372  0.1752  0.0278
    8CHL1   H2A  566   1.764   1.988   7.832  0.0476 -0.5272  0.0892
    8CHL1   H2B  567   1.720   1.847   7.754  0.0634  0.3323 -0.2337
    8CHL1   C20  568   1.383   2.240   6.923 -0.8435  0.2974  1.0570
    8CHL1   H20  569   1.349   2.164   6.849 -0.8883  1.3289 -0.0146
    8CHL1   C21  570   1.537   2.247   6.900  0.3518 -0.3578 -0.4164
    8CHL1  H21A  571   1.574   2.337   6.954  0.5739 -0.0212 -1.1163
    8CHL1  H21B  572   1.558   2.248   6.791 -1.3478  1.2131 -0.7889
    8CHL1  H21C  573   1.600   2.163   6.936  1.5230  0.6594 -0.0072
    8CHL1   C22  574   1.314   2.367   6.859 -0.3296  0.7302 -0.6834
    8CHL1  H22A  575   1.205   2.345   6.872  0.1920 -0.3104  3.7815
    8CHL1  H22B  576   1.343   2.452   6.924 -0.5488  1.5467 -1.6259
    8CHL1   C23  577   1.347   2.388   6.711 -0.4934 -0.1011 -0.4857
    8CHL1  H23A  578   1.450   2.427   6.702  0.1962 -1.9587 -1.0475
    8CHL1  H23B  579   1.337   2.293   6.655 -1.2037 -0.6368  0.5103
    8CHL1   C24  580   1.248   2.482   6.644  0.9536  0.2327 -0.1896
    8CHL1  H24A  581   1.154   2.427   6.623  0.2068  1.0436  0.9149
    8CHL1  H24B  582   1.212   2.563   6.712  0.1432  0.3008 -0.6817
    8CHL1   C25  583   1.282   2.554   6.515 -1.0401 -0.3267 -0.6477
    8CHL1   H25  584   1.300   2.484   6.431 -2.7398 -2.0108  0.3127
    8CHL1   C26  585   1.166   2.645   6.475  0.4194 -0.3101 -0.3219
    8CHL1  H26A  586   1.180   2.700   6.379 -3.5272  0.3065 -0.7265
    8CHL1  H26B  587   1.073   2.586   6.470  0.7232 -0.8336  0.1396
    8CHL1  H26C  588   1.142   2.719   6.554 -2.5172 -0.9162 -0.5227
    8CHL1   C27  589   1.409   2.643   6.538 -0.1697 -0.3060  0.2280
    8CHL1  H27A  590   1.426   2.708   6.450  0.6387 -0.4509  0.2640
    8CHL1  H27B  591   1.395   2.711   6.625 -0.9157 -0.5278  0.2842
    8CHL1  H27C  592   1.505   2.590   6.556 -0.1537 -0.1681  0.5544
    9CHL1    C3  593   4.708   1.843   7.460  0.0276 -0.7008  0.5277
    9CHL1    H3  594   4.747   1.947   7.459 -1.1969 -0.2244  0.7468
    9CHL1    O3  595   4.641   1.826   7.582 -0.2514  0.3923 -0.0071
    9CHL1   H3'  596   4.583   1.749   7.586 -1.3019  1.1538 -0.2209
    9CHL1    C4  597   4.608   1.817   7.347 -0.2620  0.1070  0.0047
    9CHL1   H4A  598   4.584   1.710   7.367  2.3213 -0.3630  0.9833
    9CHL1   H4B  599   4.513   1.874   7.357 -0.2999  0.0578 -0.0743
    9CHL1    C5  600   4.676   1.823   7.209  0.2111  0.1045  0.7946
    9CHL1    C6  601   4.643   1.918   7.116  0.1856 -0.0795  0.5326
    9CHL1    H6  602   4.560   1.987   7.136  0.8707  0.4012  1.8160
    9CHL1    C7  603   4.696   1.917   6.974 -0.1279  0.4067 -0.1860
    9CHL1   H7A  604   4.610   1.928   6.904  0.2327  1.3280 -0.5005
    9CHL1   H7B  605   4.760   2.006   6.955  1.7120 -1.2383 -2.1726
    9CHL1    C8  606   4.776   1.790   6.944 -0.1086 -0.5322 -0.1795
    9CHL1    H8  607   4.699   1.711   6.931 -0.0296 -0.4135 -1.4949
    9CHL1   C14  608   4.848   1.807   6.820  0.4484 -0.2633 -0.2570
    9CHL1   H14  609   4.912   1.897   6.833 -1.3851  1.1452 -0.6315
    9CHL1   C15  610   4.764   1.839   6.700 -0.1874  0.0778  0.5165
    9CHL1  H15A  611   4.678   1.769   6.693 -0.8647  0.7640  1.7123
    9CHL1  H15B  612   4.722   1.942   6.708  0.0493  0.1896  0.3240
    9CHL1   C16  613   4.856   1.806   6.583 -0.1011 -0.5509  0.4533
    9CHL1  H16A  614   4.797   1.736   6.520  2.2917 -1.6355 -0.7187
    9CHL1  H16B  615   4.885   1.897   6.526 -0.3682 -0.7789 -0.0610
    9CHL1   C17  616   4.982   1.732   6.649 -0.7307  0.2330  0.6686
    9CHL1   H17  617   5.055   1.812   6.676 -0.9421 -0.0538  2.2048
    9CHL1   C13  618   4.933   1.686   6.783  0.1414 -0.3587  0.0942
    9CHL1   C18  619   4.849   1.561   6.772  0.0324 -0.1114  0.3418
    9CHL1  H18A  620   4.794   1.533   6.864  0.4429 -0.1058  0.5915
    9CHL1  H18B  621   4.765   1.579   6.702 -1.2231 -2.2831  1.1957
    9CHL1  H18C  622   4.903   1.475   6.726 -2.5054  0.1596 -3.6632
    9CHL1   C12  623   5.044   1.668   6.890  0.2549 -0.6323  0.2449
    9CHL1  H12A  624   5.111   1.580   6.880  2.1861  0.5662  1.7335
    9CHL1  H12B  625   5.103   1.763   6.890 -0.8060  0.0765  1.5316
    9CHL1   C11  626   4.980   1.664   7.031 -0.0717  0.3220  0.3371
    9CHL1  H11A  627   4.947   1.558   7.036  1.8930 -0.3650 -0.2366
    9CHL1  H11B  628   5.052   1.687   7.112 -1.7288 -1.5750  2.4872
    9CHL1    C9  629   4.868   1.765   7.062  0.1463  0.4750 -0.5620
    9CHL1    H9  630   4.930   1.854   7.083  1.0409 -0.7485  2.5955
    9CHL1   C10  631   4.785   1.722   7.186 -0.4702  0.9644  0.1041
    9CHL1   C19  632   4.741   1.570   7.173  0.4135 -0.2331 -0.3683
    9CHL1  H19A  633   4.652   1.548   7.235  0.2306  0.7790 -0.2552
    9CHL1  H19B  634   4.706   1.554   7.068  1.1455 -1.3240 -0.4570
    9CHL1  H19C  635   4.820   1.497   7.199 -0.4487 -0.7684  0.8324
    9CHL1    C1  636   4.883   1.734   7.312 -0.2342  0.1759 -0.0569
    9CHL1   H1A  637   4.956   1.650   7.305  1.5919  1.8000 -1.3869
    9CHL1   H1B  638   4.938   1.827   7.289  0.1515 -0.0327  0.0040
    9CHL1    C2  639   4.828   1.750   7.452 -0.2973 -0.5353 -0.3355
    9CHL1   H2A  640   4.901   1.801   7.518 -0.8170  0.3235 -0.4095
    9CHL1   H2B  641   4.800   1.653   7.496  0.0173 -0.9454 -1.0201
    9CHL1   C20  642   5.050   1.637   6.544 -0.5715  0.0272  0.7816
    9CHL1   H20  643   4.983   1.554   6.514 -0.0241  0.0052 -0.4591
    9CHL1   C21  644   5.173   1.574   6.622  0.0004  0.3409 -0.2018
    9CHL1  H21A  645   5.247   1.531   6.552  0.2163  0.9144 -0.3335
    9CHL1  H21B  646   5.135   1.504   6.699 -1.9651  3.3468  1.8089
    9CHL1  H21C  647   5.232   1.654   6.672  2.0977 -0.9406 -0.4887
    9CHL1   C22  648   5.094   1.716   6.422 -0.7132  0.5391 -0.8681
    9CHL1  H22A  649   5.012   1.763   6.364 -1.4528  1.0471  0.5491
    9CHL1  H22B  650   5.155   1.803   6.455  0.1144 -0.4587  0.3137
    9CHL1   C23  651   5.172   1.631   6.324  0.0909  0.3461 -0.2308
    9CHL1  H23A  652   5.259   1.568   6.354  0.5639 -1.0892 -4.1291
    9CHL1  H23B  653   5.099   1.550   6.303  0.2008 -0.3237  1.7360
    9CHL1   C24  654   5.196   1.713   6.198 -0.3082 -0.3328  0.1267
    9CHL1  H24A  655   5.104   1.758   6.154  0.3138  3.0287  1.9374
    9CHL1  H24B  656   5.262   1.802   6.210 -0.8610 -0.0467  1.1161
    9CHL1   C25  657   5.259   1.637   6.084  0.2673  0.5036 -0.0422
    9CHL1   H25  658   5.213   1.537   6.077 -2.2536  1.5291  0.8524
    9CHL1   C26  659   5.242   1.697   5.942 -0.3114 -0.4551  0.5440
    9CHL1  H26A  660   5.297   1.632   5.871  1.2513  1.0697  0.3044
    9CHL1  H26B  661   5.134   1.711   5.918  0.0105 -1.3054 -1.6424
    9CHL1  H26C  662   5.290   1.797   5.943 -0.0745 -0.5692  1.0134
    9CHL1   C27  663   5.412   1.617   6.118  0.3514  0.3348  0.5265
    9CHL1  H27A  664   5.463   1.715   6.108 -0.9481  0.9594 -0.1946
    9CHL1  H27B  665   5.419   1.583   6.224  0.0261  0.1617  0.4920
    9CHL1  H27C  666   5.457   1.544   6.047  0.9086  1.2218 -0.0378
   10CHL1    C3  667   6.127   4.334   7.963 -0.2646  0.2794  0.5352
   10CHL1    H3  668   6.043   4.274   7.921 -0.5930  0.6840  0.5989
   10CHL1    O3  669   6.116   4.353   8.102  0.1527  0.1639 -0.1973
   10CHL1   H3'  670   6.063   4.433   8.109 -2.3533 -1.2346 -1.5768
   10CHL1    C4  671   6.267   4.292   7.932  0.7824 -0.0329 -0.3617
   10CHL1   H4A  672   6.335   4.369   7.974  0.7723  0.8037 -1.7978
   10CHL1   H4B  673   6.297   4.198   7.984  1.5287 -0.1554 -0.9875
   10CHL1    C5  674   6.283   4.278   7.783 -0.0838  0.2378 -0.5115
   10CHL1    C6  675   6.297   4.155   7.718 -0.2046 -0.4990 -0.2110
   10CHL1    H6  676   6.311   4.064   7.777  1.8909 -1.7895 -2.5171
   10CHL1    C7  677   6.308   4.142   7.566 -0.2287 -0.7413 -0.1189
   10CHL1   H7A  678   6.379   4.065   7.531 -2.1701 -1.8727 -1.7945
   10CHL1   H7B  679   6.207   4.098   7.548 -1.4091 -0.9067  5.2462
   10CHL1    C8  680   6.333   4.271   7.475 -0.1060  0.3508 -0.0248
   10CHL1    H8  681   6.438   4.297   7.497  0.5359 -0.6672 -1.6875
   10CHL1   C14  682   6.314   4.257   7.327 -0.0332  1.1538  0.7701
   10CHL1   H14  683   6.207   4.231   7.310 -0.2519  1.6999  1.2788
   10CHL1   C15  684   6.392   4.148   7.258  0.8834 -0.2546 -0.1144
   10CHL1  H15A  685   6.496   4.151   7.297  0.4110  0.3836  1.1619
   10CHL1  H15B  686   6.345   4.049   7.271  1.2656 -0.4420 -0.1450
   10CHL1   C16  687   6.391   4.200   7.113  0.4088  1.0013  0.5564
   10CHL1  H16A  688   6.496   4.199   7.075  0.7508 -1.0781  1.4131
   10CHL1  H16B  689   6.334   4.137   7.042  0.7796 -0.8742  1.8740
   10CHL1   C17  690   6.338   4.341   7.106  0.0855 -0.2912 -0.4681
   10CHL1   H17  691   6.230   4.326   7.087  0.1077 -1.4550  0.2235
   10CHL1   C13  692   6.344   4.386   7.251  0.0761 -0.1511  0.1531
   10CHL1   C18  693   6.495   4.422   7.273 -0.3355 -0.6019  0.3316
   10CHL1  H18A  694   6.522   4.442   7.379  0.1099 -0.2924  0.1608
   10CHL1  H18B  695   6.565   4.340   7.244 -1.4694 -2.0846  1.6037
   10CHL1  H18C  696   6.516   4.514   7.215 -2.5482 -0.5384 -0.4834
   10CHL1   C12  697   6.253   4.497   7.299  0.6139  0.0257 -0.7945
   10CHL1  H12A  698   6.276   4.587   7.240 -0.9623 -0.6165 -2.4759
   10CHL1  H12B  699   6.146   4.476   7.274  1.0015 -1.3971 -1.3583
   10CHL1   C11  700   6.257   4.520   7.451 -0.4874  0.4827  0.4810
   10CHL1  H11A  701   6.353   4.568   7.481  0.0004 -0.2979  0.1900
   10CHL1  H11B  702   6.175   4.589   7.479 -0.7311  0.7828 -0.8923
   10CHL1    C9  703   6.246   4.385   7.538 -0.2656  0.3256 -0.2524
   10CHL1    H9  704   6.144   4.345   7.517 -0.0711  0.4824 -1.5441
   10CHL1   C10  705   6.256   4.405   7.696 -0.6312  0.2292 -0.2945
   10CHL1   C19  706   6.384   4.495   7.716 -0.5758  0.4129  0.2789
   10CHL1  H19A  707   6.421   4.486   7.820 -0.5001  0.4557  0.2552
   10CHL1  H19B  708   6.463   4.455   7.649 -1.5428 -2.1631  0.5810
   10CHL1  H19C  709   6.370   4.605   7.704  1.1125  0.8223  1.7028
   10CHL1    C1  710   6.131   4.476   7.750  0.5089 -0.3592 -0.0085
   10CHL1   H1A  711   6.118   4.575   7.700 -0.1729 -0.4278  0.0261
   10CHL1   H1B  712   6.043   4.418   7.716 -1.0510  1.3423  0.9223
   10CHL1    C2  713   6.114   4.479   7.906 -0.1825 -0.8194  0.6947
   10CHL1   H2A  714   6.013   4.513   7.937  0.1214 -0.1496  0.9719
   10CHL1   H2B  715   6.191   4.549   7.947  0.9752 -0.5962 -1.7162
   10CHL1   C20  716   6.398   4.419   6.991  0.0388 -0.1630  0.2656
   10CHL1   H20  717   6.509   4.416   6.997  0.0283 -1.0037  0.1593
   10CHL1   C21  718   6.354   4.571   6.994 -0.2317 -0.2764 -0.0421
   10CHL1  H21A  719   6.417   4.624   7.068 -0.8118 -1.0248  1.0038
   10CHL1  H21B  720   6.247   4.576   7.024 -0.0774 -2.5241  1.0696
   10CHL1  H21C  721   6.367   4.626   6.898 -0.5394  0.5603  0.3864
   10CHL1   C22  722   6.370   4.357   6.844 -0.3951  0.1785 -0.4968
   10CHL1  H22A  723   6.448   4.414   6.790  1.3279  0.5514  2.2074
   10CHL1  H22B  724   6.389   4.248   6.850 -1.5245  0.0024  0.1913
   10CHL1   C23  725   6.233   4.366   6.780  0.2300 -0.4038  0.0505
   10CHL1  H23A  726   6.158   4.309   6.838 -1.8559 -0.1034 -2.1771
   10CHL1  H23B  727   6.215   4.475   6.791  0.7139 -0.1775 -1.2430
   10CHL1   C24  728   6.231   4.326   6.640 -0.0807  0.1294 -0.0402
   10CHL1  H24A  729   6.285   4.399   6.577  0.7399  0.7881  1.3683
   10CHL1  H24B  730   6.261   4.219   6.636 -2.4030 -0.5788 -0.0620
   10CHL1   C25  731   6.089   4.319   6.580 -0.2178 -0.6960 -1.2480
   10CHL1   H25  732   6.025   4.267   6.655 -1.1062 -2.4069 -3.1205
   10CHL1   C26  733   6.023   4.453   6.554 -0.0915 -0.1794  0.1596
   10CHL1  H26A  734   6.043   4.521   6.639 -1.0012 -2.2462  2.1212
   10CHL1  H26B  735   6.063   4.502   6.462 -0.6907  0.6396  0.3253
   10CHL1  H26C  736   5.912   4.454   6.548 -0.1267  1.4475  0.4855
   10CHL1   C27  737   6.098   4.230   6.458 -0.6579  0.0198  0.9670
   10CHL1  H27A  738   6.186   4.256   6.396 -0.8910  1.4049  1.1953
   10CHL1  H27B  739   6.104   4.121   6.482 -1.7940 -0.3084 -0.1393
   10CHL1  H27C  740   6.010   4.246   6.393 -0.1949  0.8600  0.5335
   11CHL1    C3  741   0.687   0.896   7.733 -0.2995  0.0758 -0.0035
   11CHL1    H3  742   0.580   0.869   7.735 -0.6755  1.4301 -0.6491
   11CHL1    O3  743   0.734   0.897   7.862  0.6396  0.1491  0.5387
   11CHL1   H3'  744   0.827   0.919   7.862  0.4630  0.9416 -0.3309
   11CHL1    C4  745   0.764   0.787   7.660 -0.0213 -1.3027 -0.6020
   11CHL1   H4A  746   0.873   0.807   7.659 -0.0343 -1.2175 -1.2290
   11CHL1   H4B  747   0.755   0.688   7.708  1.5225 -0.9390  0.5019
   11CHL1    C5  748   0.726   0.783   7.516  0.7037 -0.0487 -0.3117
   11CHL1    C6  749   0.680   0.668   7.462 -0.7661 -1.0276 -0.1526
   11CHL1    H6  750   0.672   0.581   7.529  1.1847 -1.3879 -0.3016
   11CHL1    C7  751   0.639   0.653   7.314  0.3840 -0.1808  0.1589
   11CHL1   H7A  752   0.669   0.550   7.287  0.0510  0.1083 -1.4039
   11CHL1   H7B  753   0.528   0.658   7.309  0.3267 -1.7916 -0.4424
   11CHL1    C8  754   0.693   0.775   7.227 -0.5392 -0.1033  0.6255
   11CHL1    H8  755   0.802   0.763   7.207 -0.5591 -0.6168  0.8003
   11CHL1   C14  756   0.625   0.772   7.090  0.3565 -0.0166  0.4625
   11CHL1   H14  757   0.517   0.784   7.114  0.4279  1.9204  0.0516
   11CHL1   C15  758   0.627   0.644   6.999 -0.3054  0.4490  0.3299
   11CHL1  H15A  759   0.729   0.600   7.006 -0.5785 -0.4453 -0.9042
   11CHL1  H15B  760   0.542   0.577   7.027 -0.6735  0.5197 -0.5734
   11CHL1   C16  761   0.593   0.699   6.860  0.4328 -0.6032 -0.0633
   11CHL1  H16A  762   0.680   0.675   6.795 -0.2682 -1.1522 -0.8234
   11CHL1  H16B  763   0.506   0.643   6.818 -1.5769  1.7519  0.7596
   11CHL1   C17  764   0.585   0.854   6.870  0.1237  0.1430 -0.4307
   11CHL1   H17  765   0.478   0.862   6.900  0.1024 -0.6794 -0.2464
   11CHL1   C13  766   0.664   0.887   7.001  0.7139 -0.4446 -0.6601
   11CHL1   C18  767   0.813   0.875   6.966  0.5166 -0.1965 -0.1245
   11CHL1  H18A  768   0.832   0.944   6.881 -0.8285 -1.1032 -1.2018
   11CHL1  H18B  769   0.875   0.896   7.056  1.5078  1.5545 -1.1637
   11CHL1  H18C  770   0.831   0.772   6.929 -2.1435 -0.0102 -2.2445
   11CHL1   C12  771   0.633   1.018   7.070  0.2794  0.2667  0.7470
   11CHL1  H12A  772   0.670   1.098   7.002  0.2850  0.5058  1.0257
   11CHL1  H12B  773   0.523   1.010   7.084  0.2382  0.9768  0.9097
   11CHL1   C11  774   0.703   1.029   7.204 -0.1784  0.2300  0.2922
   11CHL1  H11A  775   0.811   1.046   7.188 -0.2282  1.3156  1.0424
   11CHL1  H11B  776   0.661   1.113   7.265 -0.6139 -1.7338  2.8530
   11CHL1    C9  777   0.674   0.907   7.296 -0.6733 -0.2990  0.5654
   11CHL1    H9  778   0.565   0.912   7.317 -0.6694 -0.8573  0.7237
   11CHL1   C10  779   0.740   0.916   7.434  0.2711 -0.1353 -0.4679
   11CHL1   C19  780   0.889   0.957   7.409  0.5052  0.3416  0.3647
   11CHL1  H19A  781   0.939   0.874   7.354  0.7233 -0.4125  1.6358
   11CHL1  H19B  782   0.893   1.048   7.347 -0.2210 -1.9773 -3.4077
   11CHL1  H19C  783   0.935   0.966   7.510 -0.2012 -0.9397  0.8344
   11CHL1    C1  784   0.676   1.031   7.520 -0.4677  0.4848  0.1023
   11CHL1   H1A  785   0.717   1.123   7.474  1.2709 -0.7643 -0.9818
   11CHL1   H1B  786   0.567   1.029   7.499 -0.5174  2.2636  0.0505
   11CHL1    C2  787   0.704   1.032   7.672 -0.7119  0.2996  0.4145
   11CHL1   H2A  788   0.630   1.100   7.721  0.7190  0.1365  3.0135
   11CHL1   H2B  789   0.803   1.078   7.688  0.3638 -2.1296  1.3606
   11CHL1   C20  790   0.604   0.938   6.750  0.6167 -0.3060  0.2080
   11CHL1   H20  791   0.641   1.038   6.781  2.3123 -1.1139  0.9469
   11CHL1   C21  792   0.462   0.964   6.689 -0.1220 -1.0572 -0.1336
   11CHL1  H21A  793   0.409   0.867   6.680 -0.5920 -1.2458  3.4806
   11CHL1  H21B  794   0.458   1.018   6.592  2.0503  0.9364  0.7986
   11CHL1  H21C  795   0.395   1.012   6.763  1.1851 -0.1065  0.4673
   11CHL1   C22  796   0.702   0.890   6.644 -0.0787  0.7499 -0.9353
   11CHL1  H22A  797   0.798   0.887   6.701  0.1032  1.9060 -1.1615
   11CHL1  H22B  798   0.669   0.789   6.611  1.4647  0.4853 -1.7689
   11CHL1   C23  799   0.742   0.982   6.529  1.1112  1.0539 -1.0871
   11CHL1  H23A  800   0.646   1.004   6.477 -0.3111  1.9874  1.7133
   11CHL1  H23B  801   0.788   1.075   6.567 -1.6189  1.7777  0.7755
   11CHL1   C24  802   0.851   0.917   6.444  0.2308  0.5935 -0.0400
   11CHL1  H24A  803   0.947   0.904   6.498  0.3812  1.8208  0.0072
   11CHL1  H24B  804   0.816   0.814   6.422  1.1344  0.2365  0.1482
   11CHL1   C25  805   0.888   0.984   6.313 -0.2850  0.4513 -0.3977
   11CHL1   H25  806   0.962   0.922   6.256  1.7407  1.2653  1.2220
   11CHL1   C26  807   0.779   0.986   6.200 -0.1459 -1.1128  0.3252
   11CHL1  H26A  808   0.688   1.037   6.239 -0.4695 -2.4709  1.4333
   11CHL1  H26B  809   0.832   1.021   6.109  3.6171 -1.9083  2.0333
   11CHL1  H26C  810   0.749   0.880   6.186  1.7547 -1.4026 -1.9776
   11CHL1   C27  811   0.950   1.126   6.344  0.4943  0.6930 -0.4635
   11CHL1  H27A  812   0.986   1.177   6.252  1.2066  1.4477  0.2169
   11CHL1  H27B  813   0.879   1.198   6.390 -1.9027 -1.9012  0.1598
   11CHL1  H27C  814   1.034   1.120   6.417 -0.3944 -0.7668  0.4891
   12CHL1    C3  815   1.188   1.329   7.771 -1.0080  0.3994 -0.9042
   12CHL1    H3  816   1.292   1.319   7.734 -0.9758 -1.9847 -0.3501
   12CHL1    O3  817   1.191   1.305   7.915  0.5193  0.0027 -0.0790
   12CHL1   H3'  818   1.165   1.391   7.948  0.5637 -0.3852  0.9922
   12CHL1    C4  819   1.124   1.471   7.742 -0.0556 -0.3070 -0.4055
   12CHL1   H4A  820   1.022   1.487   7.785  0.0855 -2.2730  0.7462
   12CHL1   H4B  821   1.192   1.548   7.784 -0.9464  0.0325  0.4361
   12CHL1    C5  822   1.114   1.498   7.590 -0.4232 -0.2550 -0.0915
   12CHL1    C6  823   1.150   1.614   7.533 -0.1359  0.7840 -0.0184
   12CHL1    H6  824   1.192   1.687   7.603  1.3111 -2.0903  2.2999
   12CHL1    C7  825   1.134   1.647   7.391  0.1638  0.3903 -0.5092
   12CHL1   H7A  826   1.088   1.748   7.395  0.3686  0.4409  1.9634
   12CHL1   H7B  827   1.234   1.641   7.341  2.2459  1.4981  3.1659
   12CHL1    C8  828   1.038   1.559   7.304  0.8828 -0.0157  0.7552
   12CHL1    H8  829   0.932   1.583   7.328  0.6243 -1.1489  0.8108
   12CHL1   C14  830   1.079   1.556   7.168 -0.6152  0.0548  0.7477
   12CHL1   H14  831   1.177   1.507   7.157 -0.5450  0.7610 -3.5083
   12CHL1   C15  832   1.098   1.687   7.094  0.8281 -0.7504  0.7148
   12CHL1  H15A  833   1.020   1.764   7.105 -0.1105 -0.9850 -2.9507
   12CHL1  H15B  834   1.202   1.722   7.112  0.4041  0.1611  1.4405
   12CHL1   C16  835   1.082   1.652   6.941  0.5942  0.3845  0.3484
   12CHL1  H16A  836   0.993   1.710   6.906 -0.1648  0.7732  2.7612
   12CHL1  H16B  837   1.174   1.685   6.888  1.1397  1.8509  2.1078
   12CHL1   C17  838   1.050   1.501   6.933  0.2130 -0.7135 -0.4004
   12CHL1   H17  839   1.152   1.458   6.929  0.1294 -1.0884  1.0296
   12CHL1   C13  840   0.992   1.477   7.069 -0.4083  0.1493  0.0484
   12CHL1   C18  841   0.844   1.518   7.074  0.0349 -0.3346 -0.0111
   12CHL1  H18A  842   0.805   1.507   7.177  1.2446  3.8446  1.0642
   12CHL1  H18B  843   0.830   1.623   7.041 -1.8663 -1.0242 -1.5992
   12CHL1  H18C  844   0.783   1.452   7.008  0.4224 -0.2477 -0.4637
   12CHL1   C12  845   0.989   1.329   7.116  0.1637 -0.7030  0.2155
   12CHL1  H12A  846   0.904   1.275   7.068  1.2751 -2.6608  0.3421
   12CHL1  H12B  847   1.083   1.287   7.076  0.7776  0.9550 -0.1429
   12CHL1   C11  848   0.993   1.310   7.267  1.6771  0.3837  0.2823
   12CHL1  H11A  849   0.889   1.304   7.305  2.1453 -2.0726  1.3517
   12CHL1  H11B  850   1.042   1.214   7.292 -0.3855 -0.2224  2.3407
   12CHL1    C9  851   1.061   1.414   7.358  0.4415 -0.4499 -0.3662
   12CHL1    H9  852   1.167   1.386   7.337  0.1974 -0.7078 -1.3063
   12CHL1   C10  853   1.045   1.394   7.510  0.2428 -0.4075 -0.4775
   12CHL1   C19  854   0.893   1.412   7.551  1.0932  0.0307 -0.3434
   12CHL1  H19A  855   0.840   1.503   7.516 -1.7098 -1.2654  0.2664
   12CHL1  H19B  856   0.834   1.333   7.501  0.0654 -0.5678  1.6928
   12CHL1  H19C  857   0.869   1.410   7.660 -1.4434  2.2345 -0.7700
   12CHL1    C1  858   1.102   1.252   7.544  0.0630 -0.0773 -0.0580
   12CHL1   H1A  859   1.043   1.177   7.486 -0.9757  1.3007 -0.8564
   12CHL1   H1B  860   1.209   1.266   7.518  0.9841 -2.8085  1.7633
   12CHL1    C2  861   1.106   1.222   7.695 -0.1872 -0.1134  0.2900
   12CHL1   H2A  862   1.157   1.123   7.698  1.9670  0.8994 -0.7555
   12CHL1   H2B  863   1.002   1.219   7.734 -0.6771  0.9015 -0.8970
   12CHL1   C20  864   0.970   1.472   6.802 -0.4547  0.1669 -0.4351
   12CHL1   H20  865   0.862   1.497   6.813 -0.8758 -1.5309 -0.3545
   12CHL1   C21  866   0.993   1.324   6.773  0.0065  0.2571  0.7376
   12CHL1  H21A  867   1.102   1.302   6.767  0.2119  1.5102 -0.6409
   12CHL1  H21B  868   0.950   1.299   6.673  3.5587  2.5513 -1.5888
   12CHL1  H21C  869   0.946   1.257   6.848  1.8188 -0.9185  0.8892
   12CHL1   C22  870   1.032   1.546   6.682 -0.1143 -0.0621  1.1611
   12CHL1  H22A  871   1.009   1.654   6.692 -0.6376 -0.2192  1.6965
   12CHL1  H22B  872   1.143   1.533   6.682 -0.2533 -1.4449  1.7341
   12CHL1   C23  873   0.984   1.510   6.534 -0.6698  0.0033  0.2324
   12CHL1  H23A  874   1.030   1.412   6.512 -1.7109 -0.1700 -1.2948
   12CHL1  H23B  875   0.875   1.490   6.539 -0.5303 -0.7844  0.2870
   12CHL1   C24  876   1.027   1.602   6.422 -0.2287 -0.5281 -0.0408
   12CHL1  H24A  877   0.991   1.706   6.440 -0.4565 -0.3622 -1.3421
   12CHL1  H24B  878   1.136   1.616   6.438 -0.2152  2.3856 -1.7776
   12CHL1   C25  879   0.984   1.564   6.279 -0.0350  0.7701  0.8399
   12CHL1   H25  880   0.884   1.514   6.276 -0.0604  0.8427  0.3779
   12CHL1   C26  881   0.978   1.678   6.180 -0.9802 -0.1694  0.1808
   12CHL1  H26A  882   1.061   1.752   6.183 -3.0932  2.3431  1.8768
   12CHL1  H26B  883   0.980   1.630   6.080 -1.9469 -1.0654  0.5742
   12CHL1  H26C  884   0.889   1.741   6.204 -2.6881 -2.9479  1.6074
   12CHL1   C27  885   1.086   1.463   6.222 -0.4711 -0.0464 -0.1380
   12CHL1  H27A  886   1.092   1.376   6.291  1.7819  0.2786  0.1473
   12CHL1  H27B  887   1.078   1.419   6.120  1.3317  0.6981 -0.6239
   12CHL1  H27C  888   1.184   1.514   6.231 -0.2445 -0.7457  2.0357
   13CHL1    C3  889   3.488   2.795   7.914 -0.0431  0.4756 -0.2060
   13CHL1    H3  890   3.470   2.888   7.856 -0.0942  1.5834  1.4870
   13CHL1    O3  891   3.476   2.835   8.050 -0.0947  0.1457  0.2706
   13CHL1   H3'  892   3.471   2.756   8.105  2.7594  0.9348  1.8647
   13CHL1    C4  893   3.382   2.694   7.885  0.3486  0.2783  0.5483
   13CHL1   H4A  894   3.398   2.608   7.955 -0.7251 -0.2200  0.2183
   13CHL1   H4B  895   3.283   2.739   7.910 -0.5271 -0.6562 -1.0723
   13CHL1    C5  896   3.388   2.650   7.740 -0.0060 -0.0887  0.0324
   13CHL1    C6  897   3.278   2.653   7.667  0.0130  0.0363  0.2423
   13CHL1    H6  898   3.183   2.682   7.716 -0.8699 -0.6832 -1.0004
   13CHL1    C7  899   3.270   2.607   7.523  0.1508 -0.4356 -0.0963
   13CHL1   H7A  900   3.180   2.547   7.496  0.3463 -0.2136 -1.2946
   13CHL1   H7B  901   3.256   2.705   7.472 -0.9001 -0.5811 -0.1094
   13CHL1    C8  902   3.396   2.541   7.467  0.4002 -1.1021  0.4444
   13CHL1    H8  903   3.404   2.434   7.496  2.0236 -0.9775  0.5582
   13CHL1   C14  904   3.394   2.550   7.316 -0.2131 -0.5750  0.1965
   13CHL1   H14  905   3.383   2.657   7.290  0.2832 -0.3282  0.9671
   13CHL1   C15  906   3.274   2.485   7.241  0.4908  0.5741 -0.3915
   13CHL1  H15A  907   3.255   2.383   7.281 -1.3175 -0.0713 -2.7145
   13CHL1  H15B  908   3.180   2.544   7.245 -0.4158 -0.8922  1.1241
   13CHL1   C16  909   3.319   2.465   7.097 -0.9713 -0.2361 -0.0956
   13CHL1  H16A  910   3.314   2.356   7.078 -0.7494  0.0184 -1.7321
   13CHL1  H16B  911   3.268   2.508   7.008 -1.0840 -3.4309 -1.6884
   13CHL1   C17  912   3.467   2.506   7.104 -0.1301 -0.5570 -0.1503
   13CHL1   H17  913   3.466   2.616   7.086 -1.0728 -0.6995 -1.0781
   13CHL1   C13  914   3.512   2.494   7.252 -0.7600  0.3815  0.1917
   13CHL1   C18  915   3.534   2.343   7.285 -0.0529  0.1256 -0.9379
   13CHL1  H18A  916   3.632   2.315   7.242  0.4720 -1.7314  1.2976
   13CHL1  H18B  917   3.547   2.333   7.395 -0.2146 -2.0109 -1.0727
   13CHL1  H18C  918   3.458   2.274   7.242  1.5063 -0.4936 -2.8064
   13CHL1   C12  919   3.629   2.583   7.292  0.7296  0.2683 -0.4318
   13CHL1  H12A  920   3.723   2.555   7.239 -1.3315 -3.7677 -2.3371
   13CHL1  H12B  921   3.603   2.690   7.274 -1.0618 -0.1139 -0.2518
   13CHL1   C11  922   3.649   2.571   7.443 -0.4817  0.1586  0.4980
   13CHL1  H11A  923   3.694   2.471   7.460  0.3009  0.0688 -1.7677
   13CHL1  H11B  924   3.729   2.644   7.468  0.2108 -0.8297  1.2570
   13CHL1    C9  925   3.521   2.616   7.523 -0.2835  0.3123 -0.1084
   13CHL1    H9  926   3.503   2.722   7.497  2.0109  0.7599 -0.1285
   13CHL1   C10  927   3.536   2.617   7.679 -0.1863 -0.2479 -0.2143
   13CHL1   C19  928   3.578   2.476   7.726 -0.1901  0.0476 -0.4100
   13CHL1  H19A  929   3.672   2.443   7.679  1.6928 -0.1695  3.1633
   13CHL1  H19B  930   3.594   2.484   7.836 -1.9722  1.0803 -0.1708
   13CHL1  H19C  931   3.494   2.406   7.706 -2.3948  2.7040 -1.1414
   13CHL1    C1  932   3.636   2.727   7.724  0.4876  0.0362 -0.2511
   13CHL1   H1A  933   3.740   2.691   7.709  0.7175  0.2162  0.8464
   13CHL1   H1B  934   3.620   2.821   7.667  0.3985 -1.0199 -2.0677
   13CHL1    C2  935   3.630   2.754   7.877  0.4242  0.2583 -0.5297
   13CHL1   H2A  936   3.701   2.836   7.902  0.0021  0.8997 -1.3745
   13CHL1   H2B  937   3.655   2.663   7.935 -1.9299  0.6617  1.2995
   13CHL1   C20  938   3.550   2.444   6.993  0.1329 -0.5033 -0.3953
   13CHL1   H20  939   3.544   2.336   7.018 -2.4047  0.0942  2.0940
   13CHL1   C21  940   3.696   2.498   6.986 -0.4315  0.0127 -0.2504
   13CHL1  H21A  941   3.709   2.608   6.995 -0.0458 -0.0634  0.1807
   13CHL1  H21B  942   3.748   2.473   6.891 -0.7099  0.2578 -0.4657
   13CHL1  H21C  943   3.757   2.453   7.067 -1.1090  0.3358  0.4507
   13CHL1   C22  944   3.491   2.446   6.847 -0.0538  0.0182  1.0088
   13CHL1  H22A  945   3.395   2.500   6.833 -0.4197 -1.2035 -2.0930
   13CHL1  H22B  946   3.553   2.510   6.780 -2.6425  0.6988 -0.9116
   13CHL1   C23  947   3.484   2.305   6.792 -0.2867 -0.1895  0.5427
   13CHL1  H23A  948   3.579   2.253   6.817 -0.4446 -0.7609  0.0028
   13CHL1  H23B  949   3.410   2.237   6.838  0.1942 -1.4120 -0.4194
   13CHL1   C24  950   3.490   2.313   6.641  0.2658  0.5595 -1.1437
   13CHL1  H24A  951   3.409   2.375   6.597 -0.6769 -0.8805 -1.5390
   13CHL1  H24B  952   3.580   2.363   6.600  1.4250 -0.7771 -0.3031
   13CHL1   C25  953   3.484   2.167   6.574 -0.6653 -0.5210 -0.3947
   13CHL1   H25  954   3.568   2.107   6.615  0.1785  1.7420  1.3966
   13CHL1   C26  955   3.352   2.100   6.605 -0.6548  0.6155  0.5445
   13CHL1  H26A  956   3.272   2.176   6.598 -1.6413 -0.5614 -1.7969
   13CHL1  H26B  957   3.334   2.029   6.522  0.1760  0.1220  0.7740
   13CHL1  H26C  958   3.341   2.061   6.709 -0.2439 -0.1381  0.3072
   13CHL1   C27  959   3.507   2.174   6.423  0.3270  0.0090 -0.1371
   13CHL1  H27A  960   3.617   2.185   6.412  0.1059  2.5957 -0.3702
   13CHL1  H27B  961   3.480   2.081   6.368  0.5358 -0.8801  1.2153
   13CHL1  H27C  962   3.463   2.270   6.389 -0.0999  1.6847  4.3892
   14CHL1    C3  963   2.920   0.217   7.962  0.0561  0.4293  0.1887
   14CHL1    H3  964   2.970   0.305   7.916 -0.7234  0.4443 -0.6534
   14CHL1    O3  965   2.913   0.218   8.103 -0.0597 -0.0305  0.4228
   14CHL1   H3'  966   2.968   0.144   8.128 -0.9247 -1.8052 -2.4912
   14CHL1    C4  967   2.783   0.187   7.894  0.5576 -0.0517  0.3378
   14CHL1   H4A  968   2.747   0.095   7.943  1.0248 -0.9761 -1.0118
   14CHL1   H4B  969   2.708   0.267   7.916 -0.5627 -1.3892  1.6123
   14CHL1    C5  970   2.798   0.170   7.748  0.0219  0.0554 -0.1414
   14CHL1    C6  971   2.739   0.249   7.654 -0.8703  0.5528  0.4823
   14CHL1    H6  972   2.684   0.337   7.689 -1.1997 -0.2315  2.0391
   14CHL1    C7  973   2.742   0.231   7.502  0.0766  0.4811 -0.0445
   14CHL1   H7A  974   2.640   0.247   7.462  0.2782  1.2873 -0.2578
   14CHL1   H7B  975   2.807   0.315   7.468  0.9585  0.3856  1.2849
   14CHL1    C8  976   2.795   0.088   7.466  1.7056 -0.0785 -0.0215
   14CHL1    H8  977   2.705   0.025   7.479  1.5180 -0.9074 -4.0671
   14CHL1   C14  978   2.853   0.086   7.327  0.7880 -0.0285  0.3283
   14CHL1   H14  979   2.942   0.152   7.328  1.0414 -0.3624 -0.2082
   14CHL1   C15  980   2.778   0.142   7.203  0.1493 -0.6766 -0.1606
   14CHL1  H15A  981   2.672   0.113   7.193  0.4464 -1.4176 -1.3141
   14CHL1  H15B  982   2.781   0.254   7.201  1.1092 -0.6725  0.2997
   14CHL1   C16  983   2.858   0.096   7.078 -0.1044 -0.7114  0.4769
   14CHL1  H16A  984   2.788   0.067   6.997 -0.0197 -1.7271  0.7540
   14CHL1  H16B  985   2.910   0.182   7.031 -2.0707  0.1015 -0.3364
   14CHL1   C17  986   2.962  -0.009   7.136 -1.0764  0.3111 -0.3980
   14CHL1   H17  987   3.055   0.050   7.156 -0.9900 -0.4686  1.8127
   14CHL1   C13  988   2.910  -0.053   7.277 -0.1864  0.0955 -0.5686
   14CHL1   C18  989   2.795  -0.141   7.264  0.1536 -0.0152 -0.0708
   14CHL1  H18A  990   2.742  -0.151   7.361  0.3405  1.6233  0.2253
   14CHL1  H18B  991   2.711  -0.102   7.203  1.1149  0.4571 -1.1162
   14CHL1  H18C  992   2.812  -0.239   7.215  0.3436 -0.2211  0.3992
   14CHL1   C12  993   3.011  -0.108   7.376  0.3334  0.6840  0.4340
   14CHL1  H12A  994   3.032  -0.211   7.340  2.5156  1.3994 -0.4980
   14CHL1  H12B  995   3.106  -0.054   7.354 -0.4621  0.8642 -3.1894
   14CHL1   C11  996   2.962  -0.106   7.520 -0.0899  0.5739 -0.8407
   14CHL1  H11A  997   2.877  -0.176   7.539 -0.1793  1.1635  1.1294
   14CHL1  H11B  998   3.047  -0.152   7.575 -1.2535 -1.9223 -0.9988
   14CHL1    C9  999   2.904   0.033   7.559 -0.5496 -0.5728 -0.3691
   14CHL1    H9 1000   2.990   0.103   7.545 -0.2411 -0.7366  0.6405
   14CHL1   C10 1001   2.892   0.048   7.710  0.7399 -1.0272  0.1036
   14CHL1   C19 1002   2.831  -0.081   7.772 -1.0114 -0.4265  0.2245
   14CHL1  H19A 1003   2.903  -0.165   7.763  0.4107  0.7702  0.1810
   14CHL1  H19B 1004   2.796  -0.072   7.878 -1.7370  1.7420 -0.1500
   14CHL1  H19C 1005   2.746  -0.117   7.710 -2.1813  1.2851  0.7668
   14CHL1    C1 1006   3.024   0.078   7.781 -0.6135 -0.3529 -0.0015
   14CHL1   H1A 1007   3.110   0.011   7.757 -0.5916 -0.5433  0.5967
   14CHL1   H1B 1008   3.065   0.179   7.761  2.5787 -1.3336  0.9788
   14CHL1    C2 1009   3.017   0.095   7.935 -0.4102  0.0060  0.6354
   14CHL1   H2A 1010   3.117   0.120   7.976  0.8467 -1.3213 -1.4489
   14CHL1   H2B 1011   2.983   0.005   7.990 -0.7345  0.1103  0.6098
   14CHL1   C20 1012   3.006  -0.120   7.037 -0.4753  0.2236 -0.3649
   14CHL1   H20 1013   3.050  -0.199   7.101 -2.5002 -0.7442 -0.1012
   14CHL1   C21 1014   3.130  -0.063   6.954 -0.1172  0.7800 -0.6168
   14CHL1  H21A 1015   3.211  -0.027   7.021 -0.4066  2.2865 -1.0284
   14CHL1  H21B 1016   3.105   0.024   6.889  0.5384  0.4637 -1.3134
   14CHL1  H21C 1017   3.158  -0.148   6.888  2.6020  1.3079 -0.2539
   14CHL1   C22 1018   2.896  -0.174   6.942 -0.6303  0.5992  0.0408
   14CHL1  H22A 1019   2.808  -0.209   7.000 -0.5109  0.6281  0.2410
   14CHL1  H22B 1020   2.861  -0.085   6.886 -1.8481 -0.1078 -0.3624
   14CHL1   C23 1021   2.929  -0.278   6.835 -0.4732 -0.4230  0.0723
   14CHL1  H23A 1022   2.848  -0.277   6.758  0.2008 -0.7803 -0.6518
   14CHL1  H23B 1023   3.021  -0.254   6.778 -0.3002 -2.3613 -0.5226
   14CHL1   C24 1024   2.958  -0.415   6.901 -1.0205 -0.0444 -0.8668
   14CHL1  H24A 1025   3.041  -0.415   6.975 -0.5041  0.2519 -1.4376
   14CHL1  H24B 1026   2.872  -0.450   6.961 -0.6338 -0.0842 -0.3337
   14CHL1   C25 1027   2.997  -0.520   6.793  0.4124  0.5433 -0.2480
   14CHL1   H25 1028   3.082  -0.484   6.731  0.7620  0.7309  0.3354
   14CHL1   C26 1029   3.027  -0.652   6.863  0.1206  0.3960 -0.3845
   14CHL1  H26A 1030   3.111  -0.653   6.936  0.4436 -0.7633 -0.7377
   14CHL1  H26B 1031   2.943  -0.697   6.920 -2.0450  1.6533 -2.4315
   14CHL1  H26C 1032   3.056  -0.727   6.787 -0.2689 -1.2337  1.0096
   14CHL1   C27 1033   2.880  -0.540   6.687  0.1185 -0.1920 -0.3775
   14CHL1  H27A 1034   2.778  -0.549   6.729 -0.0724  0.7249 -0.6202
   14CHL1  H27B 1035   2.870  -0.446   6.629  1.4236  0.2036 -0.0028
   14CHL1  H27C 1036   2.906  -0.623   6.618  1.9430  0.3087 -0.3569
   15CHL1    C3 1037   1.233   5.948   7.552  0.0013 -0.1873 -0.1323
   15CHL1    H3 1038   1.336   5.907   7.555 -0.1230 -0.4733  2.4089
   15CHL1    O3 1039   1.180   5.957   7.682 -0.0146 -0.0459  0.3578
   15CHL1   H3' 1040   1.085   5.970   7.671 -0.3601 -1.5949  1.1616
   15CHL1    C4 1041   1.241   6.088   7.497  0.1065  0.0093 -0.2506
   15CHL1   H4A 1042   1.143   6.139   7.507  0.1690  0.2417 -0.7767
   15CHL1   H4B 1043   1.313   6.151   7.553 -0.6082  0.2987  0.3497
   15CHL1    C5 1044   1.268   6.091   7.343  0.0226  0.0957  0.3548
   15CHL1    C6 1045   1.371   6.163   7.300  0.4446 -0.3285  0.5432
   15CHL1    H6 1046   1.429   6.228   7.368 -1.6829  1.7057  0.5291
   15CHL1    C7 1047   1.398   6.179   7.150 -0.6002 -0.5603  0.2823
   15CHL1   H7A 1048   1.416   6.287   7.132  1.1235 -0.3375  2.8962
   15CHL1   H7B 1049   1.493   6.134   7.113  0.3934 -0.1596  2.2527
   15CHL1    C8 1050   1.288   6.120   7.054 -0.0685  0.6432 -0.6772
   15CHL1    H8 1051   1.208   6.197   7.053  0.8965  1.8348  2.3283
   15CHL1   C14 1052   1.342   6.083   6.921 -0.1420  0.3689  0.1707
   15CHL1   H14 1053   1.409   5.995   6.932  1.5089  0.9612 -3.5062
   15CHL1   C15 1054   1.415   6.196   6.848  0.1174 -0.5186 -0.3298
   15CHL1  H15A 1055   1.338   6.275   6.855  0.5499 -0.2163  2.2712
   15CHL1  H15B 1056   1.500   6.238   6.906 -2.0387  1.0868  1.8832
   15CHL1   C16 1057   1.440   6.138   6.713  0.1531 -0.8846 -0.3947
   15CHL1  H16A 1058   1.438   6.224   6.642  0.9967  0.9963  1.7379
   15CHL1  H16B 1059   1.543   6.096   6.721  0.6414  0.3090 -0.1071
   15CHL1   C17 1060   1.332   6.028   6.687 -0.1703  0.1969 -0.2608
   15CHL1   H17 1061   1.372   5.925   6.681  1.2651  0.5933  1.5536
   15CHL1   C13 1062   1.244   6.036   6.818  0.3602 -0.1559 -0.3735
   15CHL1   C18 1063   1.124   6.134   6.794 -0.1855  0.7698 -0.3990
   15CHL1  H18A 1064   1.067   6.162   6.885 -0.5112  1.1602 -0.7193
   15CHL1  H18B 1065   1.161   6.232   6.758 -1.4572  1.6875  0.6938
   15CHL1  H18C 1066   1.053   6.108   6.712  0.9783  2.4694 -2.0041
   15CHL1   C12 1067   1.173   5.912   6.869 -0.2979  0.1271  0.5291
   15CHL1  H12A 1068   1.085   5.890   6.805  1.0749  1.6584 -2.0847
   15CHL1  H12B 1069   1.261   5.845   6.854  3.2430  3.9662  2.0417
   15CHL1   C11 1070   1.125   5.922   7.017  0.0136 -0.1516  0.7609
   15CHL1  H11A 1071   1.027   5.974   7.015 -1.3356 -2.6021  0.3171
   15CHL1  H11B 1072   1.092   5.822   7.052 -0.3486 -0.0827  0.6231
   15CHL1    C9 1073   1.232   5.986   7.110 -0.6732  0.2203 -0.1801
   15CHL1    H9 1074   1.314   5.911   7.110 -0.3842  0.4725  2.1532
   15CHL1   C10 1075   1.185   5.999   7.258 -0.1806  0.4267 -0.5024
   15CHL1   C19 1076   1.034   6.053   7.260 -0.2062  0.2873  0.0567
   15CHL1  H19A 1077   1.034   6.148   7.202 -0.3195 -0.2479 -0.8423
   15CHL1  H19B 1078   0.959   5.991   7.206  0.4565 -0.8564  0.4357
   15CHL1  H19C 1079   0.990   6.075   7.360 -0.4298  0.6625 -0.1170
   15CHL1    C1 1080   1.193   5.854   7.322 -1.0779  0.3677  0.0806
   15CHL1   H1A 1081   1.147   5.776   7.257  1.0110  0.1719 -1.2643
   15CHL1   H1B 1082   1.301   5.828   7.320 -0.8538  1.3112 -1.3976
   15CHL1    C2 1083   1.145   5.849   7.469 -0.4178  0.7151 -0.4407
   15CHL1   H2A 1084   1.168   5.749   7.511  1.6019  0.2002 -2.5646
   15CHL1   H2B 1085   1.041   5.881   7.490 -0.1535  0.3348  1.7790
   15CHL1   C20 1086   1.257   6.040   6.553  0.3137 -0.6135 -0.3056
   15CHL1   H20 1087   1.186   6.124   6.560  0.7268 -0.3907  3.2996
   15CHL1   C21 1088   1.177   5.911   6.525 -0.9020  0.1025  0.6698
   15CHL1  H21A 1089   1.251   5.828   6.530  1.5482  2.0919 -0.2707
   15CHL1  H21B 1090   1.129   5.905   6.425 -1.6942  0.9396  0.9851
   15CHL1  H21C 1091   1.101   5.904   6.606 -0.7324  0.2704  0.8454
   15CHL1   C22 1092   1.344   6.074   6.423  0.1104  0.6172  0.1435
   15CHL1  H22A 1093   1.276   6.068   6.335  0.5287 -1.1290 -0.0969
   15CHL1  H22B 1094   1.400   6.170   6.426  0.7095  0.2967 -0.4335
   15CHL1   C23 1095   1.448   5.965   6.405  0.1605 -0.3185  0.0892
   15CHL1  H23A 1096   1.514   5.959   6.494  0.5561  2.8511  0.1093
   15CHL1  H23B 1097   1.390   5.872   6.388 -1.7977  0.7993  0.3027
   15CHL1   C24 1098   1.557   5.984   6.296 -0.7789 -0.5437  0.1636
   15CHL1  H24A 1099   1.509   5.967   6.197  1.8005 -1.5652 -0.9869
   15CHL1  H24B 1100   1.587   6.091   6.296 -2.0874 -0.1301 -1.9773
   15CHL1   C25 1101   1.681   5.889   6.309 -0.1385 -0.6113 -0.8626
   15CHL1   H25 1102   1.732   5.922   6.403 -1.0764 -2.2342  0.2515
   15CHL1   C26 1103   1.662   5.740   6.320 -0.2838  0.4666  0.1886
   15CHL1  H26A 1104   1.604   5.688   6.241  0.3990 -0.6836  0.4187
   15CHL1  H26B 1105   1.760   5.690   6.326 -1.3904 -2.3209 -2.4561
   15CHL1  H26C 1106   1.607   5.710   6.412 -0.9324  1.2590  0.0745
   15CHL1   C27 1107   1.788   5.913   6.208 -0.5287 -0.0100  0.1449
   15CHL1  H27A 1108   1.807   6.023   6.197 -0.6404 -0.1605 -2.1759
   15CHL1  H27B 1109   1.884   5.866   6.238 -1.6614 -1.7235  1.1701
   15CHL1  H27C 1110   1.746   5.874   6.113 -1.4916 -2.8910  1.6592
   16CHL1    C3 1111   6.598   2.457   7.606 -0.5095 -0.6690  0.3026
   16CHL1    H3 1112   6.577   2.551   7.552  2.1141  0.1425  0.5526
   16CHL1    O3 1113   6.580   2.464   7.745  0.3335  0.1073  0.1586
   16CHL1   H3' 1114   6.657   2.499   7.791 -1.5934  1.8307  2.2923
   16CHL1    C4 1115   6.505   2.349   7.557 -0.2666 -0.2774  0.6186
   16CHL1   H4A 1116   6.534   2.256   7.611 -1.9844 -1.0221  0.3459
   16CHL1   H4B 1117   6.402   2.374   7.589 -0.1640 -1.4890  2.0118
   16CHL1    C5 1118   6.527   2.324   7.413 -0.2799  0.7691 -0.0748
   16CHL1    C6 1119   6.421   2.319   7.332 -0.2567 -0.5383  0.5830
   16CHL1    H6 1120   6.324   2.321   7.384  1.2861 -1.7742  3.7556
   16CHL1    C7 1121   6.420   2.294   7.189 -0.3762 -0.0979 -0.5241
   16CHL1   H7A 1122   6.335   2.226   7.167 -0.9158  0.6127 -0.6638
   16CHL1   H7B 1123   6.392   2.385   7.133 -1.1992 -0.8639 -1.3854
   16CHL1    C8 1124   6.555   2.238   7.142 -0.0863 -0.7703 -0.6949
   16CHL1    H8 1125   6.567   2.132   7.174 -1.2103 -0.0679  2.4445
   16CHL1   C14 1126   6.552   2.248   6.990 -0.7545  0.9676  0.3425
   16CHL1   H14 1127   6.540   2.356   6.968 -0.7147  1.3515  2.0683
   16CHL1   C15 1128   6.435   2.169   6.927  0.2945 -0.5153  0.4316
   16CHL1  H15A 1129   6.426   2.072   6.980  1.0248 -0.7775  0.0920
   16CHL1  H15B 1130   6.339   2.224   6.926  1.1748  1.1846  2.0803
   16CHL1   C16 1131   6.495   2.145   6.787 -0.6598 -0.0114 -0.4445
   16CHL1  H16A 1132   6.503   2.035   6.778 -0.1570  0.0672 -1.0389
   16CHL1  H16B 1133   6.427   2.199   6.717  1.7268  1.0233 -2.1106
   16CHL1   C17 1134   6.639   2.200   6.783  0.3332  0.2818 -0.1066
   16CHL1   H17 1135   6.628   2.309   6.763 -2.2568  0.3792  1.4801
   16CHL1   C13 1136   6.682   2.192   6.926  0.8381 -0.0932  0.3715
   16CHL1   C18 1137   6.711   2.051   6.972 -0.6739  0.1149  0.0071
   16CHL1  H18A 1138   6.617   1.993   6.984 -1.4985  1.3544 -0.2879
   16CHL1  H18B 1139   6.772   2.000   6.894  0.6624  0.5077  0.7718
   16CHL1  H18C 1140   6.778   2.039   7.060 -0.2697 -1.2770 -0.4543
   16CHL1   C12 1141   6.794   2.288   6.976 -0.3447 -0.3584 -0.1496
   16CHL1  H12A 1142   6.889   2.242   6.939  0.2168 -0.2701  1.1342
   16CHL1  H12B 1143   6.794   2.393   6.939 -1.9400 -0.6106 -0.9612
   16CHL1   C11 1144   6.799   2.298   7.125 -0.0302  0.0975  0.2487
   16CHL1  H11A 1145   6.844   2.203   7.160 -0.9489 -0.7720 -0.8802
   16CHL1  H11B 1146   6.874   2.375   7.155 -0.1868  0.6402 -0.7170
   16CHL1    C9 1147   6.664   2.328   7.197  1.0583 -0.5146  0.3659
   16CHL1    H9 1148   6.630   2.431   7.173 -0.5993  0.2549  5.0078
   16CHL1   C10 1149   6.672   2.314   7.351  0.5685  0.0863 -0.6526
   16CHL1   C19 1150   6.729   2.177   7.394 -1.3357  0.0704  0.2862
   16CHL1  H19A 1151   6.708   2.094   7.323  2.5932 -1.4278  0.6101
   16CHL1  H19B 1152   6.838   2.198   7.390 -1.5619  1.4076  0.6756
   16CHL1  H19C 1153   6.711   2.151   7.501  1.1320  2.8711  1.5549
   16CHL1    C1 1154   6.753   2.430   7.407  0.2352 -0.3014 -0.5920
   16CHL1   H1A 1155   6.856   2.414   7.367 -0.1286 -1.4063 -1.1360
   16CHL1   H1B 1156   6.723   2.531   7.371  0.0249  0.2787  1.1419
   16CHL1    C2 1157   6.740   2.436   7.561 -0.1390  0.1112 -0.2930
   16CHL1   H2A 1158   6.810   2.513   7.601  1.1811 -1.1073 -0.1813
   16CHL1   H2B 1159   6.782   2.340   7.596 -2.1107 -1.8666 -2.9638
   16CHL1   C20 1160   6.730   2.131   6.675 -0.4921  0.2399  0.2447
   16CHL1   H20 1161   6.725   2.021   6.691  1.3076 -0.3219 -2.3316
   16CHL1   C21 1162   6.882   2.165   6.687  0.0944  0.1350  0.5855
   16CHL1  H21A 1163   6.934   2.143   6.591  0.1272 -2.5273  1.1339
   16CHL1  H21B 1164   6.926   2.100   6.766  0.1869 -0.4283  0.0782
   16CHL1  H21C 1165   6.889   2.272   6.717  0.8952  0.0104  0.8742
   16CHL1   C22 1166   6.680   2.156   6.535 -0.7903  0.7505  0.0530
   16CHL1  H22A 1167   6.571   2.149   6.515 -1.5509  1.2363  3.4125
   16CHL1  H22B 1168   6.711   2.259   6.506  0.3444  0.3487 -0.2036
   16CHL1   C23 1169   6.743   2.066   6.432  0.0229 -0.5402  0.2459
   16CHL1  H23A 1170   6.854   2.078   6.426 -0.0714  1.6513  1.6569
   16CHL1  H23B 1171   6.730   1.962   6.469  1.6603 -0.9715 -0.2679
   16CHL1   C24 1172   6.690   2.085   6.291  0.4520 -0.1627  0.0295
   16CHL1  H24A 1173   6.580   2.069   6.283 -0.0917  3.3465 -1.1367
   16CHL1  H24B 1174   6.706   2.193   6.270 -0.7252  0.5655  2.4282
   16CHL1   C25 1175   6.758   2.002   6.181  0.0264 -0.6593  0.0215
   16CHL1   H25 1176   6.846   2.063   6.150 -0.0499 -0.9506 -0.7821
   16CHL1   C26 1177   6.793   1.858   6.212  0.3139 -0.1057  0.5546
   16CHL1  H26A 1178   6.705   1.821   6.268 -1.4714 -0.1714 -2.0765
   16CHL1  H26B 1179   6.803   1.793   6.122 -0.4390  0.0472  0.3549
   16CHL1  H26C 1180   6.885   1.847   6.273 -0.1497  1.4652  1.5973
   16CHL1   C27 1181   6.657   2.000   6.055 -0.4175 -0.0226 -0.3646
   16CHL1  H27A 1182   6.567   1.937   6.073 -0.9691  0.7693 -0.3174
   16CHL1  H27B 1183   6.617   2.102   6.037 -0.8575 -0.4026 -1.7071
   16CHL1  H27C 1184   6.719   1.970   5.967 -0.4380  2.3342 -1.2752
   17CHL1    C3 1185   0.687   5.876   7.420 -0.3752  0.4890 -0.2631
   17CHL1    H3 1186   0.750   5.960   7.384  0.4076  0.0922  0.1409
   17CHL1    O3 1187   0.648   5.915   7.554 -0.5791 -0.4012  0.7009
   17CHL1   H3' 1188   0.614   5.834   7.593  0.6476 -0.1387  2.4331
   17CHL1    C4 1189   0.561   5.869   7.326 -0.7284 -0.4959 -0.3874
   17CHL1   H4A 1190   0.495   5.786   7.358 -1.8526 -0.7738 -3.0948
   17CHL1   H4B 1191   0.507   5.966   7.327  0.7935  0.4165 -1.3679
   17CHL1    C5 1192   0.610   5.849   7.185 -0.2580  0.0248  0.4234
   17CHL1    C6 1193   0.583   5.944   7.086 -0.1256 -0.1224 -0.2473
   17CHL1    H6 1194   0.522   6.032   7.114 -0.0857  0.0465 -0.6912
   17CHL1    C7 1195   0.629   5.923   6.942  0.0950 -0.3301 -0.4810
   17CHL1   H7A 1196   0.541   5.951   6.880  1.8316  3.1350 -1.6628
   17CHL1   H7B 1197   0.711   5.998   6.928 -1.5546  1.5797 -0.3703
   17CHL1    C8 1198   0.677   5.784   6.914  0.4227  0.8394 -0.0832
   17CHL1    H8 1199   0.591   5.713   6.913  0.7867  0.3862 -1.7038
   17CHL1   C14 1200   0.742   5.790   6.780 -0.2611  0.5860  0.3253
   17CHL1   H14 1201   0.828   5.859   6.794 -0.2951  0.2911  2.2904
   17CHL1   C15 1202   0.659   5.837   6.656 -0.7281 -0.0855 -0.3870
   17CHL1  H15A 1203   0.575   5.768   6.631  1.5221 -2.7549 -1.0872
   17CHL1  H15B 1204   0.625   5.942   6.666 -1.5261 -0.4727  1.4900
   17CHL1   C16 1205   0.762   5.810   6.537  0.2471 -0.0365 -0.2232
   17CHL1  H16A 1206   0.703   5.779   6.448 -0.2157 -1.5088  0.5676
   17CHL1  H16B 1207   0.822   5.901   6.516 -3.0702  1.9925 -1.7363
   17CHL1   C17 1208   0.863   5.702   6.595 -0.0629 -0.2155 -0.4145
   17CHL1   H17 1209   0.960   5.752   6.618 -0.4504 -0.5115  2.0446
   17CHL1   C13 1210   0.805   5.657   6.731  0.2452  0.1451 -1.0632
   17CHL1   C18 1211   0.702   5.540   6.711 -0.2595 -0.8716 -0.0323
   17CHL1  H18A 1212   0.625   5.537   6.790 -0.1728  2.0310  0.3014
   17CHL1  H18B 1213   0.649   5.570   6.617  0.5335  1.5553  0.2160
   17CHL1  H18C 1214   0.740   5.437   6.695  0.7412 -0.6988  1.1233
   17CHL1   C12 1215   0.905   5.616   6.843 -0.3675 -0.4868  0.5289
   17CHL1  H12A 1216   0.961   5.526   6.813 -0.9117 -0.0893 -1.8805
   17CHL1  H12B 1217   0.973   5.704   6.855 -1.1385 -0.0399  1.8614
   17CHL1   C11 1218   0.840   5.605   6.980 -0.2246  0.7584  0.5984
   17CHL1  H11A 1219   0.760   5.529   6.968  0.1076  0.1272  2.1232
   17CHL1  H11B 1220   0.917   5.570   7.052 -0.0816  0.3868  0.2670
   17CHL1    C9 1221   0.772   5.734   7.026  0.6989  0.2146  0.0879
   17CHL1    H9 1222   0.848   5.815   7.017  1.3750 -0.6286 -3.4561
   17CHL1   C10 1223   0.705   5.725   7.161 -0.2669 -0.4032 -0.7316
   17CHL1   C19 1224   0.616   5.595   7.171 -0.2354  0.2431 -0.5638
   17CHL1  H19A 1225   0.678   5.504   7.162 -1.7769 -1.0852  1.3571
   17CHL1  H19B 1226   0.558   5.593   7.266  0.5332 -1.3943 -0.1068
   17CHL1  H19C 1227   0.552   5.587   7.080 -0.9973 -2.1348  0.1174
   17CHL1    C1 1228   0.816   5.721   7.268 -0.5641  0.0958  0.8426
   17CHL1   H1A 1229   0.873   5.626   7.258  1.1249  1.0796  0.8484
   17CHL1   H1B 1230   0.894   5.796   7.246 -0.8010  0.1614  0.2244
   17CHL1    C2 1231   0.759   5.741   7.407  0.8430 -0.5540 -0.0424
   17CHL1   H2A 1232   0.841   5.742   7.483  0.9830  0.6899 -0.1941
   17CHL1   H2B 1233   0.689   5.660   7.436 -0.3611  0.6867  0.6433
   17CHL1   C20 1234   0.897   5.597   6.493  0.1303  0.1318  0.0624
   17CHL1   H20 1235   0.810   5.544   6.449  1.3129 -1.9035  0.0451
   17CHL1   C21 1236   0.991   5.485   6.539 -0.4671  0.2031  1.0916
   17CHL1  H21A 1237   0.950   5.423   6.621  0.6356 -0.9304  0.8234
   17CHL1  H21B 1238   1.086   5.522   6.582 -0.8259  0.0863  2.0034
   17CHL1  H21C 1239   1.026   5.422   6.454  2.3902  0.8543  1.6841
   17CHL1   C22 1240   0.971   5.660   6.362  0.4996  0.6561  0.4751
   17CHL1  H22A 1241   0.917   5.752   6.330  0.7890  0.3919 -0.8443
   17CHL1  H22B 1242   1.076   5.679   6.389  0.8413  1.9883 -1.5703
   17CHL1   C23 1243   0.980   5.564   6.235  0.4321  0.1851 -0.9733
   17CHL1  H23A 1244   1.016   5.463   6.264  2.2452  1.5289  1.9730
   17CHL1  H23B 1245   0.874   5.555   6.201 -0.0704  0.3879  0.4361
   17CHL1   C24 1246   1.072   5.620   6.117  0.1581 -0.0604 -0.9452
   17CHL1  H24A 1247   1.078   5.545   6.034 -0.7145  0.1633 -1.2203
   17CHL1  H24B 1248   1.036   5.716   6.074 -0.7607 -0.0442 -0.1701
   17CHL1   C25 1249   1.217   5.645   6.157  0.0541  0.1319 -0.0694
   17CHL1   H25 1250   1.230   5.719   6.239 -0.1168  1.9004 -1.5686
   17CHL1   C26 1251   1.278   5.514   6.206  0.3438  0.1485 -0.0898
   17CHL1  H26A 1252   1.232   5.482   6.302  0.6325 -1.8442 -0.5746
   17CHL1  H26B 1253   1.258   5.434   6.133 -1.0952  0.6482 -0.2728
   17CHL1  H26C 1254   1.389   5.527   6.210  0.5875 -1.8171  0.4670
   17CHL1   C27 1255   1.300   5.705   6.038  0.2436 -0.1899 -0.2422
   17CHL1  H27A 1256   1.260   5.803   6.005  0.9522  0.2464  0.1673
   17CHL1  H27B 1257   1.400   5.726   6.081 -0.2105 -2.6474  2.2754
   17CHL1  H27C 1258   1.307   5.637   5.950  0.4517  0.5176 -0.7795
   18CHL1    C3 1259   2.510   3.831   7.751  0.0841  0.2479  0.0937
   18CHL1    H3 1260   2.440   3.896   7.696  0.0571 -0.4053 -0.6597
   18CHL1    O3 1261   2.555   3.903   7.865 -0.1440  0.3041  0.0247
   18CHL1   H3' 1262   2.638   3.860   7.883 -1.2715 -2.4755 -0.8998
   18CHL1    C4 1263   2.436   3.701   7.795 -0.1574 -0.6393 -0.3583
   18CHL1   H4A 1264   2.505   3.646   7.863 -1.4408  0.7756  2.2360
   18CHL1   H4B 1265   2.350   3.732   7.857  0.0002  0.2511 -0.5706
   18CHL1    C5 1266   2.398   3.617   7.676 -0.2546  0.5369  0.5405
   18CHL1    C6 1267   2.267   3.574   7.657 -0.3036 -0.2337  0.0947
   18CHL1    H6 1268   2.182   3.598   7.723  0.3219 -1.5392  1.4396
   18CHL1    C7 1269   2.236   3.486   7.532 -0.6898 -0.1805  0.0621
   18CHL1   H7A 1270   2.160   3.408   7.552 -0.1389 -1.5467 -2.7616
   18CHL1   H7B 1271   2.204   3.554   7.450  0.6196 -0.4705 -0.7166
   18CHL1    C8 1272   2.357   3.411   7.472 -0.2414  0.1252 -0.0852
   18CHL1    H8 1273   2.374   3.332   7.548  0.7006 -1.3214 -1.7366
   18CHL1   C14 1274   2.321   3.336   7.342 -0.1409 -0.1968  0.7776
   18CHL1   H14 1275   2.300   3.425   7.279  1.3990  0.6788  1.4523
   18CHL1   C15 1276   2.199   3.247   7.343  0.3469  0.3066 -0.3690
   18CHL1  H15A 1277   2.201   3.186   7.435 -2.2010 -0.9186 -1.0225
   18CHL1  H15B 1278   2.106   3.307   7.344  0.4152  0.4264 -0.9344
   18CHL1   C16 1279   2.217   3.165   7.208  0.7484 -0.1004 -0.1009
   18CHL1  H16A 1280   2.200   3.056   7.222  1.1593 -0.6650 -3.2587
   18CHL1  H16B 1281   2.151   3.222   7.138  0.8935  1.2608  0.8275
   18CHL1   C17 1282   2.362   3.188   7.161  0.1757 -0.2030 -0.2908
   18CHL1   H17 1283   2.358   3.259   7.075  0.0132  0.3902  0.2021
   18CHL1   C13 1284   2.433   3.255   7.277  0.4718 -0.1908  0.0724
   18CHL1   C18 1285   2.486   3.150   7.375 -0.3037  0.0320  0.7208
   18CHL1  H18A 1286   2.522   3.195   7.470 -0.7554  0.2586  0.7842
   18CHL1  H18B 1287   2.412   3.070   7.398 -1.2685  1.4338  2.7957
   18CHL1  H18C 1288   2.585   3.117   7.337 -0.8752 -0.3425 -0.4738
   18CHL1   C12 1289   2.535   3.363   7.247 -0.1463  0.2714  1.0106
   18CHL1  H12A 1290   2.623   3.316   7.198 -1.0735 -0.4419 -0.0274
   18CHL1  H12B 1291   2.484   3.433   7.178  0.9331  1.2464  1.1794
   18CHL1   C11 1292   2.586   3.436   7.375 -0.5300  0.2964  0.1261
   18CHL1  H11A 1293   2.633   3.354   7.433  0.2776  0.4036 -0.3670
   18CHL1  H11B 1294   2.658   3.516   7.348 -1.0386  1.3517  1.7447
   18CHL1    C9 1295   2.473   3.508   7.459 -0.5152 -0.1542  0.4836
   18CHL1    H9 1296   2.437   3.592   7.396  1.0969  1.5109  1.6743
   18CHL1   C10 1297   2.517   3.569   7.588  0.0827  0.0533 -0.0584
   18CHL1   C19 1298   2.604   3.471   7.671  0.5704 -0.3873  0.6116
   18CHL1  H19A 1299   2.690   3.437   7.610  1.1079 -1.0169  1.6783
   18CHL1  H19B 1300   2.634   3.523   7.765  0.8844  0.4137  0.0695
   18CHL1  H19C 1301   2.542   3.387   7.709 -0.4214  0.9757  2.1474
   18CHL1    C1 1302   2.607   3.692   7.559  0.5482  0.6923  0.3233
   18CHL1   H1A 1303   2.697   3.643   7.516  0.5325 -0.0392  1.0989
   18CHL1   H1B 1304   2.563   3.743   7.471  0.7139 -0.3901 -0.4151
   18CHL1    C2 1305   2.637   3.788   7.677 -0.3169  0.7856  0.6284
   18CHL1   H2A 1306   2.685   3.881   7.640  1.2115 -0.1935  0.0786
   18CHL1   H2B 1307   2.707   3.741   7.749 -0.5799  0.2032  0.5051
   18CHL1   C20 1308   2.407   3.058   7.090 -0.6998  0.5570 -0.2215
   18CHL1   H20 1309   2.407   2.966   7.152  0.0534 -0.5518 -1.7837
   18CHL1   C21 1310   2.558   3.067   7.043 -0.3628  0.0208  0.1492
   18CHL1  H21A 1311   2.624   3.111   7.121  0.4232 -2.5350  1.0253
   18CHL1  H21B 1312   2.555   3.140   6.959 -1.3123 -0.5110 -0.2946
   18CHL1  H21C 1313   2.604   2.969   7.019 -0.1894 -0.2752  1.6046
   18CHL1   C22 1314   2.318   3.037   6.962  0.1317 -0.2762 -0.1668
   18CHL1  H22A 1315   2.213   3.060   6.990 -0.0616 -1.9480  0.5470
   18CHL1  H22B 1316   2.348   3.114   6.887  0.5528 -0.6589 -0.3923
   18CHL1   C23 1317   2.323   2.890   6.907  0.2232  0.1795 -0.6088
   18CHL1  H23A 1318   2.431   2.874   6.886  0.7972  2.0145  0.7261
   18CHL1  H23B 1319   2.292   2.828   6.994  0.8225 -0.3190 -0.7420
   18CHL1   C24 1320   2.237   2.865   6.787  0.8489 -0.2140  0.0483
   18CHL1  H24A 1321   2.132   2.879   6.822  1.7844  0.8024  2.7000
   18CHL1  H24B 1322   2.257   2.949   6.717 -0.4688  1.5769  1.7059
   18CHL1   C25 1323   2.251   2.732   6.711  0.3361 -0.4046  0.4710
   18CHL1   H25 1324   2.190   2.744   6.618  0.3382 -0.0281  0.5171
   18CHL1   C26 1325   2.394   2.717   6.664 -0.7339  0.3794 -0.2978
   18CHL1  H26A 1326   2.465   2.687   6.744  0.1690  0.0976 -1.1796
   18CHL1  H26B 1327   2.416   2.641   6.586  1.3964 -0.2754  0.8445
   18CHL1  H26C 1328   2.426   2.813   6.617 -1.8736 -0.4217 -2.8911
   18CHL1   C27 1329   2.191   2.611   6.780  0.0959  0.7043 -0.1805
   18CHL1  H27A 1330   2.264   2.571   6.854 -1.9342 -0.6729  1.2023
   18CHL1  H27B 1331   2.088   2.623   6.821 -0.0544 -0.6557 -0.1204
   18CHL1  H27C 1332   2.187   2.529   6.705  1.6969 -0.0875  0.5335
   19CHL1    C3 1333   0.886   0.215   7.560  0.4875  0.2389 -0.1903
   19CHL1    H3 1334   0.922   0.316   7.529 -0.3318  0.3992 -0.6369
   19CHL1    O3 1335   0.838   0.226   7.691 -0.1661 -0.9785 -0.5947
   19CHL1   H3' 1336   0.890   0.160   7.738  0.4785 -0.5563 -0.7062
   19CHL1    C4 1337   0.773   0.188   7.461 -0.4202 -0.4819 -0.0689
   19CHL1   H4A 1338   0.730   0.090   7.491  1.7511 -1.5594 -0.3015
   19CHL1   H4B 1339   0.693   0.262   7.484  0.2130  0.3972 -0.6392
   19CHL1    C5 1340   0.820   0.182   7.322 -0.0419 -0.2795  0.0992
   19CHL1    C6 1341   0.762   0.250   7.224  0.0647  0.4600  1.0089
   19CHL1    H6 1342   0.673   0.313   7.242  1.4542  2.3512  1.6017
   19CHL1    C7 1343   0.808   0.243   7.079 -0.6129  0.0682  0.9198
   19CHL1   H7A 1344   0.718   0.242   7.013  0.3378  0.8713 -0.4596
   19CHL1   H7B 1345   0.867   0.334   7.053  1.3439 -2.1054 -3.2059
   19CHL1    C8 1346   0.893   0.119   7.054 -0.7815  0.0639 -0.2226
   19CHL1    H8 1347   0.837   0.023   7.063 -0.1962 -0.2581  0.1084
   19CHL1   C14 1348   0.955   0.138   6.916 -0.2364 -0.9814  0.6206
   19CHL1   H14 1349   1.013   0.232   6.920 -0.8751 -0.5596  0.2963
   19CHL1   C15 1350   0.865   0.171   6.793 -0.7143 -0.7204 -0.1155
   19CHL1  H15A 1351   0.785   0.098   6.769 -3.0426  1.0292  1.8507
   19CHL1  H15B 1352   0.807   0.264   6.814  0.9421  0.4522 -0.5425
   19CHL1   C16 1353   0.967   0.165   6.679  0.5698  0.2636 -0.0562
   19CHL1  H16A 1354   0.932   0.099   6.597 -0.6188  1.0147 -0.1796
   19CHL1  H16B 1355   0.995   0.265   6.640  0.9690  0.0097 -0.4230
   19CHL1   C17 1356   1.104   0.113   6.746 -0.3695  0.3009 -0.4715
   19CHL1   H17 1357   1.169   0.199   6.769  0.4560 -0.7363  1.2968
   19CHL1   C13 1358   1.062   0.040   6.872 -0.2985  0.0246 -0.3588
   19CHL1   C18 1359   1.001  -0.101   6.840 -0.2604 -0.9173  0.2821
   19CHL1  H18A 1360   1.080  -0.178   6.827  0.8807  0.4120 -0.8954
   19CHL1  H18B 1361   0.944  -0.121   6.934  1.2042  1.1412  1.6969
   19CHL1  H18C 1362   0.931  -0.105   6.754  0.2270  0.9499 -0.2311
   19CHL1   C12 1363   1.173   0.034   6.981 -0.4619  0.4510 -0.0031
   19CHL1  H12A 1364   1.256  -0.038   6.969  0.2357  0.6510  2.8166
   19CHL1  H12B 1365   1.218   0.136   6.989  0.1566  0.2123 -0.3514
   19CHL1   C11 1366   1.119   0.006   7.125 -0.2726  0.1054 -0.2912
   19CHL1  H11A 1367   1.085  -0.099   7.123  1.4414 -0.4771 -0.8975
   19CHL1  H11B 1368   1.203   0.008   7.198 -1.5172  2.1076  1.1975
   19CHL1    C9 1369   1.004   0.107   7.163  0.2721 -0.0445 -0.0569
   19CHL1    H9 1370   1.054   0.206   7.152 -1.3168  0.7407 -0.4960
   19CHL1   C10 1371   0.949   0.093   7.304 -0.3356 -0.0934  0.2546
   19CHL1   C19 1372   0.892  -0.056   7.327  0.5641  0.2881  0.2161
   19CHL1  H19A 1373   0.853  -0.075   7.429  0.9769 -0.7888  0.1880
   19CHL1  H19B 1374   0.806  -0.076   7.259  0.2417 -1.8190  1.1764
   19CHL1  H19C 1375   0.968  -0.132   7.298  0.3010 -0.2937  1.0262
   19CHL1    C1 1376   1.052   0.118   7.416  0.0249 -0.1457  0.2433
   19CHL1   H1A 1377   1.136   0.046   7.410 -0.2761 -0.4800 -0.0015
   19CHL1   H1B 1378   1.093   0.220   7.397 -1.4127  0.2560 -0.9162
   19CHL1    C2 1379   0.997   0.113   7.554 -0.4144  0.0857 -0.3356
   19CHL1   H2A 1380   1.077   0.136   7.628  0.1841  0.9481 -1.2352
   19CHL1   H2B 1381   0.959   0.009   7.568  1.1114 -0.5752 -0.8176
   19CHL1   C20 1382   1.178   0.029   6.643  0.4268 -0.5425 -0.3032
   19CHL1   H20 1383   1.113  -0.057   6.617 -0.4012  0.6774 -2.4624
   19CHL1   C21 1384   1.313  -0.010   6.697 -0.2154  0.8552  0.4468
   19CHL1  H21A 1385   1.373  -0.054   6.614 -0.6294 -1.6572  1.3948
   19CHL1  H21B 1386   1.313  -0.092   6.772  2.0131 -1.2765 -1.6923
   19CHL1  H21C 1387   1.370   0.078   6.733  1.7668  0.4224 -1.3555
   19CHL1   C22 1388   1.195   0.113   6.518  0.9388  0.0465  0.1377
   19CHL1  H22A 1389   1.099   0.137   6.468  1.2378 -0.0159 -0.4797
   19CHL1  H22B 1390   1.243   0.211   6.538  0.3782  0.3655 -0.0693
   19CHL1   C23 1391   1.273   0.058   6.393 -0.1258  0.6739 -0.3771
   19CHL1  H23A 1392   1.379   0.081   6.418 -0.2093 -0.1725  0.7994
   19CHL1  H23B 1393   1.261  -0.051   6.375  0.0168  0.7888 -1.2222
   19CHL1   C24 1394   1.237   0.127   6.263 -0.3797 -0.0331 -0.1210
   19CHL1  H24A 1395   1.144   0.077   6.228  1.5507 -3.8241 -0.2666
   19CHL1  H24B 1396   1.231   0.234   6.292  1.1957 -0.0273  0.2291
   19CHL1   C25 1397   1.346   0.138   6.155  0.0997 -0.4102  0.0775
   19CHL1   H25 1398   1.388   0.038   6.130  1.3224 -0.0514  0.6176
   19CHL1   C26 1399   1.302   0.195   6.022  0.0572 -0.7476 -0.6143
   19CHL1  H26A 1400   1.218   0.135   5.979 -0.1778 -1.3621  0.6456
   19CHL1  H26B 1401   1.273   0.301   6.037 -1.9186 -1.2968 -0.3095
   19CHL1  H26C 1402   1.388   0.193   5.952 -0.6576 -1.4230 -1.4915
   19CHL1   C27 1403   1.469   0.223   6.201 -0.2047  0.2223  0.6414
   19CHL1  H27A 1404   1.519   0.179   6.290  1.3417  0.0378 -0.2718
   19CHL1  H27B 1405   1.540   0.234   6.117 -1.6914 -0.7191 -0.8031
   19CHL1  H27C 1406   1.423   0.323   6.218 -0.4853  0.1091  0.5529
   20CHL1    C3 1407   6.184   6.310   7.999  0.2466  0.4783 -0.3328
   20CHL1    H3 1408   6.218   6.408   7.958 -0.5658  0.6096 -0.7115
   20CHL1    O3 1409   6.138   6.324   8.135  0.0406 -0.4819 -0.0243
   20CHL1   H3' 1410   6.045   6.298   8.136  0.5566 -2.4377  0.2202
   20CHL1    C4 1411   6.064   6.273   7.907 -0.1552 -0.0639 -0.6359
   20CHL1   H4A 1412   6.014   6.187   7.955 -2.0329  0.4752 -1.5305
   20CHL1   H4B 1413   5.983   6.350   7.904 -1.2131 -1.0695  0.9146
   20CHL1    C5 1414   6.108   6.246   7.764  0.0186  0.8018  0.1746
   20CHL1    C6 1415   6.050   6.314   7.659 -0.3112  0.7954  0.2739
   20CHL1    H6 1416   5.972   6.386   7.688 -0.9605  0.3473 -0.3292
   20CHL1    C7 1417   6.081   6.294   7.511  0.5075  0.0576  0.4236
   20CHL1   H7A 1418   5.994   6.293   7.441  0.1004  0.9899  0.8978
   20CHL1   H7B 1419   6.142   6.380   7.476  0.0301 -0.6201 -2.3262
   20CHL1    C8 1420   6.173   6.164   7.495  0.3244 -0.2422  0.1352
   20CHL1    H8 1421   6.104   6.077   7.489  2.7144 -2.1355 -3.7192
   20CHL1   C14 1422   6.245   6.165   7.360 -0.0578  0.5127 -0.8207
   20CHL1   H14 1423   6.316   6.250   7.365  0.1827  0.3353 -1.1931
   20CHL1   C15 1424   6.166   6.185   7.232 -0.8244 -0.1758  0.5109
   20CHL1  H15A 1425   6.081   6.114   7.228 -0.3399 -0.7051 -0.9487
   20CHL1  H15B 1426   6.132   6.291   7.226 -1.0039 -0.0954  2.3514
   20CHL1   C16 1427   6.255   6.139   7.115  0.7948  0.2004 -0.8188
   20CHL1  H16A 1428   6.184   6.077   7.057  0.3257  0.3254 -0.3887
   20CHL1  H16B 1429   6.292   6.224   7.054  0.3750  1.2944  0.4030
   20CHL1   C17 1430   6.374   6.066   7.183  0.1000  0.0384  0.2137
   20CHL1   H17 1431   6.450   6.145   7.194 -0.7852  1.0082 -0.4592
   20CHL1   C13 1432   6.328   6.034   7.328 -0.2565  0.6178 -0.1911
   20CHL1   C18 1433   6.241   5.905   7.311 -0.1014 -0.3669  0.1077
   20CHL1  H18A 1434   6.179   5.893   7.403 -1.2521 -1.3301 -0.7648
   20CHL1  H18B 1435   6.176   5.911   7.222 -0.4063  2.7246  0.4429
   20CHL1  H18C 1436   6.303   5.813   7.304  0.2159 -0.3876  2.2982
   20CHL1   C12 1437   6.430   6.021   7.446 -0.5162 -0.4181 -0.8110
   20CHL1  H12A 1438   6.501   5.938   7.423 -0.9953 -0.6886 -1.3510
   20CHL1  H12B 1439   6.491   6.114   7.441 -0.1395 -0.5143  1.3962
   20CHL1   C11 1440   6.364   6.011   7.584 -0.7892 -0.1586  0.5216
   20CHL1  H11A 1441   6.303   5.919   7.587 -1.1246  0.0594  0.5245
   20CHL1  H11B 1442   6.442   6.023   7.663 -1.7877  1.8885  1.2632
   20CHL1    C9 1443   6.272   6.138   7.607  0.7246  0.6685  0.5785
   20CHL1    H9 1444   6.343   6.223   7.601  2.6863 -0.9798 -0.7509
   20CHL1   C10 1445   6.211   6.137   7.748 -0.3972 -0.2480 -0.3165
   20CHL1   C19 1446   6.136   6.001   7.774  0.3808  0.0113  0.2804
   20CHL1  H19A 1447   6.049   5.984   7.707 -0.2169  1.3605  0.6653
   20CHL1  H19B 1448   6.213   5.921   7.775  1.0698  0.6190  2.8105
   20CHL1  H19C 1449   6.096   6.001   7.878 -1.5979 -1.0596 -0.4229
   20CHL1    C1 1450   6.329   6.156   7.849  0.2084 -0.5802  0.5392
   20CHL1   H1A 1451   6.383   6.059   7.853 -1.3419 -1.4587  1.5286
   20CHL1   H1B 1452   6.397   6.233   7.806 -1.5619  0.5521 -0.3764
   20CHL1    C2 1453   6.284   6.195   7.991 -0.6294  0.3576  0.4029
   20CHL1   H2A 1454   6.371   6.226   8.053 -0.3686  1.5408 -0.5231
   20CHL1   H2B 1455   6.237   6.106   8.038  1.3611 -0.8755  0.1610
   20CHL1   C20 1456   6.425   5.941   7.100 -0.6114  0.4745  0.4597
   20CHL1   H20 1457   6.345   5.868   7.073 -1.0381  1.1767 -0.2198
   20CHL1   C21 1458   6.545   5.875   7.169 -0.6576 -0.7327  0.0187
   20CHL1  H21A 1459   6.595   5.794   7.112  1.5939  0.6651 -0.1402
   20CHL1  H21B 1460   6.517   5.832   7.268  0.3379 -0.4803  0.4250
   20CHL1  H21C 1461   6.627   5.948   7.189 -1.5112 -0.1519  1.5761
   20CHL1   C22 1462   6.484   5.999   6.962 -0.4808  0.3772 -0.1302
   20CHL1  H22A 1463   6.433   6.087   6.919 -0.5572 -0.3656 -1.5970
   20CHL1  H22B 1464   6.589   6.031   6.978 -0.4081 -0.8011  2.3157
   20CHL1   C23 1465   6.496   5.904   6.840 -0.5214  0.1858  0.5694
   20CHL1  H23A 1466   6.560   5.826   6.887 -0.3622 -0.7289 -1.0761
   20CHL1  H23B 1467   6.401   5.850   6.820  0.6618 -2.0742  0.6235
   20CHL1   C24 1468   6.539   5.974   6.713  0.1520  0.3757 -0.5962
   20CHL1  H24A 1469   6.545   5.893   6.638 -1.2071  1.4414 -1.9208
   20CHL1  H24B 1470   6.460   6.049   6.691 -0.6559 -0.0849  0.5592
   20CHL1   C25 1471   6.681   6.035   6.723  0.2762  0.3112 -0.1668
   20CHL1   H25 1472   6.686   6.100   6.813  1.2861  0.2988 -0.1993
   20CHL1   C26 1473   6.787   5.927   6.761 -0.2415 -0.3084  0.2855
   20CHL1  H26A 1474   6.884   5.981   6.751 -1.3165  1.4311 -1.2794
   20CHL1  H26B 1475   6.765   5.892   6.864 -1.1842 -1.2929 -0.2268
   20CHL1  H26C 1476   6.786   5.840   6.691 -0.1018 -1.4309  1.6446
   20CHL1   C27 1477   6.721   6.124   6.608 -0.5237 -0.5555 -0.0196
   20CHL1  H27A 1478   6.704   6.064   6.517 -0.5265  0.7581 -0.9095
   20CHL1  H27B 1479   6.653   6.211   6.597 -2.3662 -1.3458  3.5972
   20CHL1  H27C 1480   6.827   6.158   6.611 -0.5450 -0.4920  0.0271
   21CHL1    C3 1481   0.360   1.508   7.767 -0.8009  0.0272 -0.0547
   21CHL1    H3 1482   0.347   1.618   7.756  0.1584  0.0121 -1.6261
   21CHL1    O3 1483   0.350   1.475   7.908  0.2064 -0.2105 -0.0628
   21CHL1   H3' 1484   0.436   1.491   7.949  0.5843  0.6360 -1.1466
   21CHL1    C4 1485   0.246   1.436   7.707 -0.4874  0.0674  0.1928
   21CHL1   H4A 1486   0.257   1.329   7.735  1.3507  0.1370 -0.1384
   21CHL1   H4B 1487   0.150   1.480   7.741 -0.6588  0.8723 -1.2769
   21CHL1    C5 1488   0.247   1.441   7.559 -0.3560 -0.5208  0.0801
   21CHL1    C6 1489   0.139   1.489   7.489 -0.6341 -0.2940  0.2876
   21CHL1    H6 1490   0.046   1.513   7.541 -0.4056 -0.4281  0.7679
   21CHL1    C7 1491   0.132   1.497   7.334  0.5508 -0.6947 -0.2350
   21CHL1   H7A 1492   0.033   1.456   7.302  0.6176 -0.8888 -0.1942
   21CHL1   H7B 1493   0.149   1.604   7.309  0.1864 -0.3873  0.7617
   21CHL1    C8 1494   0.258   1.430   7.271 -0.4595 -0.6033 -0.1835
   21CHL1    H8 1495   0.235   1.321   7.262 -0.7708 -0.4931 -0.8025
   21CHL1   C14 1496   0.261   1.472   7.122 -0.3745  0.3278 -0.3872
   21CHL1   H14 1497   0.307   1.573   7.126  0.0553  0.1153  0.5418
   21CHL1   C15 1498   0.130   1.471   7.043 -0.0149 -0.9218  0.1523
   21CHL1  H15A 1499   0.067   1.385   7.074 -1.4919 -1.0169 -2.7455
   21CHL1  H15B 1500   0.065   1.560   7.055  1.5735  1.3060 -4.9984
   21CHL1   C16 1501   0.176   1.459   6.897 -0.3324 -0.3537  0.0882
   21CHL1  H16A 1502   0.155   1.356   6.862  0.0635  0.1580 -1.7741
   21CHL1  H16B 1503   0.126   1.540   6.840 -0.5768 -1.2167 -0.9637
   21CHL1   C17 1504   0.339   1.458   6.898  0.4856  0.1337  0.6415
   21CHL1   H17 1505   0.372   1.564   6.904 -0.2327  0.2892  2.6485
   21CHL1   C13 1506   0.363   1.397   7.039  0.3387 -0.1455  0.3885
   21CHL1   C18 1507   0.338   1.250   7.035  0.1814  0.1507  0.1354
   21CHL1  H18A 1508   0.391   1.193   6.955 -1.6661  0.0798 -1.0948
   21CHL1  H18B 1509   0.381   1.212   7.130  1.4574  1.7452  0.2614
   21CHL1  H18C 1510   0.231   1.230   7.018  0.1956 -0.6874  0.9904
   21CHL1   C12 1511   0.507   1.422   7.095 -0.7071 -0.2184  0.0477
   21CHL1  H12A 1512   0.566   1.340   7.049  1.3965  0.7106  0.9510
   21CHL1  H12B 1513   0.542   1.520   7.058 -1.3012 -0.8373 -2.3054
   21CHL1   C11 1514   0.509   1.395   7.252  0.1202 -0.5455 -0.4312
   21CHL1  H11A 1515   0.498   1.285   7.267  3.4336 -1.0289 -0.8818
   21CHL1  H11B 1516   0.614   1.419   7.279 -0.1975 -0.2569  0.6064
   21CHL1    C9 1517   0.390   1.459   7.342  0.1770  0.5350 -0.3653
   21CHL1    H9 1518   0.402   1.570   7.338  1.1559  0.4180 -0.9738
   21CHL1   C10 1519   0.384   1.413   7.492  0.0071  0.3511  0.0991
   21CHL1   C19 1520   0.391   1.259   7.498  0.2715 -0.2580 -0.0597
   21CHL1  H19A 1521   0.494   1.226   7.471  0.4717 -1.2026  1.7071
   21CHL1  H19B 1522   0.388   1.217   7.600  2.2776 -0.9116 -0.2290
   21CHL1  H19C 1523   0.302   1.221   7.443 -0.3139 -0.1391  0.7867
   21CHL1    C1 1524   0.505   1.472   7.567 -0.3043 -0.3305 -0.1902
   21CHL1   H1A 1525   0.593   1.420   7.523  0.0984 -0.8723  1.1991
   21CHL1   H1B 1526   0.510   1.581   7.544 -0.8151 -0.9922 -4.0269
   21CHL1    C2 1527   0.500   1.469   7.720 -0.0590  0.7683 -0.8597
   21CHL1   H2A 1528   0.581   1.515   7.780  0.5617 -0.4711 -0.7080
   21CHL1   H2B 1529   0.511   1.363   7.753  2.0551  1.4659  0.9171
   21CHL1   C20 1530   0.397   1.390   6.777 -0.2047 -0.0424 -0.9649
   21CHL1   H20 1531   0.364   1.284   6.781  3.2068 -1.2436 -1.1303
   21CHL1   C21 1532   0.550   1.397   6.767  0.3050  0.3732 -0.5296
   21CHL1  H21A 1533   0.617   1.378   6.854  1.2041 -1.2303 -1.5260
   21CHL1  H21B 1534   0.582   1.494   6.724  0.5656  0.4228 -0.2259
   21CHL1  H21C 1535   0.584   1.329   6.686  0.4833 -0.7303  0.4491
   21CHL1   C22 1536   0.336   1.436   6.643 -0.1900  0.0526 -0.0264
   21CHL1  H22A 1537   0.236   1.387   6.643 -0.7772  0.9369  3.5129
   21CHL1  H22B 1538   0.327   1.546   6.643 -2.6169 -0.0749 -0.2792
   21CHL1   C23 1539   0.414   1.389   6.516  0.0055 -0.2605  0.1908
   21CHL1  H23A 1540   0.507   1.450   6.514  0.6576 -1.2043  0.7101
   21CHL1  H23B 1541   0.441   1.281   6.517 -0.0876 -0.3046 -0.8802
   21CHL1   C24 1542   0.350   1.409   6.378  0.1575  0.2851  0.5445
   21CHL1  H24A 1543   0.254   1.352   6.384 -1.1474  1.5370 -4.1968
   21CHL1  H24B 1544   0.308   1.508   6.351  1.7588  1.0303  0.7056
   21CHL1   C25 1545   0.417   1.341   6.257 -0.1158  0.0032 -0.4779
   21CHL1   H25 1546   0.349   1.354   6.170 -0.9447 -4.4274 -0.7080
   21CHL1   C26 1547   0.556   1.408   6.222 -0.1942 -0.3390 -0.2084
   21CHL1  H26A 1548   0.554   1.519   6.221  0.2102 -0.3339 -0.3571
   21CHL1  H26B 1549   0.630   1.357   6.286 -1.1963  0.9539  2.0896
   21CHL1  H26C 1550   0.591   1.378   6.121  1.0733 -1.1063  0.4413
   21CHL1   C27 1551   0.442   1.184   6.259  0.1512 -0.1490 -0.1566
   21CHL1  H27A 1552   0.520   1.165   6.336 -1.1681  3.0585  2.1936
   21CHL1  H27B 1553   0.350   1.124   6.280 -0.0204  0.4199  0.7733
   21CHL1  H27C 1554   0.472   1.148   6.159  2.0858 -1.4484  0.8338
   22CHL1    C3 1555   1.728   4.272   7.683 -0.1964 -0.7971  0.0533
   22CHL1    H3 1556   1.739   4.382   7.671  1.2971 -0.8993  0.3013
   22CHL1    O3 1557   1.741   4.257   7.823  0.0377 -0.1784  0.3086
   22CHL1   H3' 1558   1.732   4.161   7.830  0.1856 -0.4933 -2.5552
   22CHL1    C4 1559   1.596   4.214   7.645 -0.3832 -0.7500 -0.2274
   22CHL1   H4A 1560   1.596   4.108   7.680 -0.3572 -0.7605 -0.2589
   22CHL1   H4B 1561   1.517   4.272   7.698  0.8893  4.1616 -3.0890
   22CHL1    C5 1562   1.562   4.232   7.499  0.5721 -0.4324  0.3786
   22CHL1    C6 1563   1.455   4.307   7.456  0.0150 -0.3633  0.1865
   22CHL1    H6 1564   1.389   4.356   7.527 -1.2511 -2.0948  0.2726
   22CHL1    C7 1565   1.413   4.314   7.311  0.0912  0.9811  0.2629
   22CHL1   H7A 1566   1.303   4.317   7.297  0.1985  0.3505 -0.8851
   22CHL1   H7B 1567   1.440   4.407   7.255 -2.5576  0.7490 -1.6002
   22CHL1    C8 1568   1.476   4.193   7.233  0.3245  0.0849 -0.0807
   22CHL1    H8 1569   1.424   4.101   7.268 -0.8780  0.2917 -1.2414
   22CHL1   C14 1570   1.449   4.216   7.086 -0.0216 -0.7987  1.1497
   22CHL1   H14 1571   1.508   4.306   7.060 -0.1810 -1.3942 -1.5305
   22CHL1   C15 1572   1.304   4.245   7.042 -0.0490 -0.2708  1.4436
   22CHL1  H15A 1573   1.241   4.171   7.095 -0.2552 -1.6880 -0.6834
   22CHL1  H15B 1574   1.265   4.345   7.068 -1.0031 -0.4125  0.5941
   22CHL1   C16 1575   1.297   4.211   6.888  1.1591 -0.0907 -0.1059
   22CHL1  H16A 1576   1.218   4.133   6.882  2.0142 -0.8751 -1.8300
   22CHL1  H16B 1577   1.256   4.298   6.832 -0.7421 -0.0579  1.2188
   22CHL1   C17 1578   1.445   4.161   6.853  0.1042 -0.1237 -1.2263
   22CHL1   H17 1579   1.502   4.256   6.843  0.5574 -0.1375  0.9160
   22CHL1   C13 1580   1.509   4.112   6.982  0.6223 -0.0377 -0.5125
   22CHL1   C18 1581   1.451   3.979   7.013 -0.0208 -0.2529 -0.9190
   22CHL1  H18A 1582   1.341   3.973   7.002 -0.3135  0.9493  0.8771
   22CHL1  H18B 1583   1.493   3.892   6.959 -1.8488 -1.4160 -0.5480
   22CHL1  H18C 1584   1.461   3.964   7.123 -1.4368 -1.2144 -0.9006
   22CHL1   C12 1585   1.662   4.124   7.001  0.4879 -0.1703  0.2630
   22CHL1  H12A 1586   1.721   4.064   6.929  1.6517  1.4239 -0.1521
   22CHL1  H12B 1587   1.692   4.222   6.959 -0.7480  0.0156 -0.2546
   22CHL1   C11 1588   1.707   4.105   7.147  0.3878 -0.6981 -0.1997
   22CHL1  H11A 1589   1.706   3.994   7.155  2.1546 -0.7077  0.2752
   22CHL1  H11B 1590   1.813   4.134   7.164 -0.5290  3.1710 -0.0731
   22CHL1    C9 1591   1.626   4.189   7.253 -0.2026 -0.6566 -0.1857
   22CHL1    H9 1592   1.645   4.297   7.238 -0.9364 -0.4207  0.5508
   22CHL1   C10 1593   1.659   4.160   7.408  0.1082  0.6093  0.1436
   22CHL1   C19 1594   1.652   4.007   7.425  1.0050  0.2456  0.0698
   22CHL1  H19A 1595   1.669   3.989   7.534  0.0880  0.6271  0.2844
   22CHL1  H19B 1596   1.555   3.967   7.389  1.1723 -0.9374  0.8746
   22CHL1  H19C 1597   1.729   3.955   7.365  1.2386  0.5349  0.1131
   22CHL1    C1 1598   1.802   4.200   7.449 -0.2436  0.0349 -0.2380
   22CHL1   H1A 1599   1.874   4.129   7.403 -1.7697 -1.5450 -0.2717
   22CHL1   H1B 1600   1.829   4.304   7.419  0.9953  0.3652  1.8444
   22CHL1    C2 1601   1.836   4.195   7.601  0.3583 -0.4551 -0.2159
   22CHL1   H2A 1602   1.928   4.255   7.617 -0.5358  1.5856 -2.1319
   22CHL1   H2B 1603   1.844   4.089   7.632  0.4405 -0.2252  0.5706
   22CHL1   C20 1604   1.453   4.081   6.718 -0.0046 -0.2932  0.1424
   22CHL1   H20 1605   1.559   4.053   6.703 -0.1334  0.4192 -2.6248
   22CHL1   C21 1606   1.436   4.193   6.606 -0.4689 -0.8619  0.0951
   22CHL1  H21A 1607   1.328   4.211   6.587 -0.2869 -1.2822 -1.5279
   22CHL1  H21B 1608   1.471   4.159   6.506  1.4480 -2.6998  1.3052
   22CHL1  H21C 1609   1.494   4.284   6.633  1.1046 -1.8056  0.0180
   22CHL1   C22 1610   1.365   3.955   6.694 -0.2579 -0.1303  0.0819
   22CHL1  H22A 1611   1.392   3.868   6.757 -0.8131 -0.3972 -0.0390
   22CHL1  H22B 1612   1.261   3.986   6.720 -0.4953  1.4765 -2.4383
   22CHL1   C23 1613   1.376   3.906   6.546 -0.0869  0.9772 -0.1625
   22CHL1  H23A 1614   1.344   3.983   6.473  4.1149  1.3507 -1.9014
   22CHL1  H23B 1615   1.484   3.888   6.527 -0.0853  0.8623 -0.0402
   22CHL1   C24 1616   1.291   3.783   6.514  0.3088  0.2297 -0.8574
   22CHL1  H24A 1617   1.329   3.707   6.586  0.9198  1.3414  0.0448
   22CHL1  H24B 1618   1.181   3.792   6.530  0.5254  0.8872  0.4546
   22CHL1   C25 1619   1.329   3.732   6.372 -0.3086 -0.7190  0.5317
   22CHL1   H25 1620   1.440   3.733   6.373 -0.2984  0.8137 -0.1317
   22CHL1   C26 1621   1.274   3.594   6.350  0.6321 -0.5087  0.4567
   22CHL1  H26A 1622   1.327   3.520   6.415  2.4773  1.1243  0.9030
   22CHL1  H26B 1623   1.171   3.584   6.388  1.5191 -0.8879  2.9718
   22CHL1  H26C 1624   1.281   3.568   6.242 -1.1355 -0.6254  0.3468
   22CHL1   C27 1625   1.273   3.821   6.258 -0.2268 -0.1107  0.1732
   22CHL1  H27A 1626   1.325   3.918   6.242  0.6409 -0.7476 -1.0535
   22CHL1  H27B 1627   1.275   3.768   6.160  0.4391 -0.6391  0.4648
   22CHL1  H27C 1628   1.167   3.851   6.272 -0.0841  1.9269 -2.3326
   23CHL1    C3 1629   6.797   1.244   7.558 -0.1822 -0.2807  0.5285
   23CHL1    H3 1630   6.798   1.355   7.551  0.1193 -0.2089  1.5607
   23CHL1    O3 1631   6.849   1.217   7.688  0.2141 -0.4846 -0.3685
   23CHL1   H3' 1632   6.833   1.124   7.706 -0.3595 -0.4275 -0.5759
   23CHL1    C4 1633   6.657   1.187   7.545  0.0770 -0.5439 -0.5915
   23CHL1   H4A 1634   6.659   1.079   7.570  0.0914  0.1377  2.7736
   23CHL1   H4B 1635   6.594   1.232   7.625  1.1386  0.6071 -0.3612
   23CHL1    C5 1636   6.602   1.211   7.404  0.0367 -0.1081 -0.3144
   23CHL1    C6 1637   6.482   1.275   7.387 -0.3336 -0.1815  0.2618
   23CHL1    H6 1638   6.421   1.304   7.474  0.3248 -0.6475  0.8880
   23CHL1    C7 1639   6.431   1.294   7.252  0.0615 -0.4078 -0.5299
   23CHL1   H7A 1640   6.321   1.281   7.255  0.0784 -0.5437 -0.4824
   23CHL1   H7B 1641   6.450   1.398   7.219 -0.0418 -0.0661  0.4621
   23CHL1    C8 1642   6.491   1.193   7.148  0.5594 -1.0010 -0.3707
   23CHL1    H8 1643   6.441   1.096   7.167  0.9806 -0.9755  0.9678
   23CHL1   C14 1644   6.444   1.236   7.002  0.3270  0.2926 -0.8071
   23CHL1   H14 1645   6.480   1.340   6.987  1.8468 -0.1150 -0.1785
   23CHL1   C15 1646   6.293   1.240   6.978 -0.0984 -0.0798  0.6367
   23CHL1  H15A 1647   6.255   1.142   7.013 -0.0962 -0.4228 -0.2917
   23CHL1  H15B 1648   6.235   1.318   7.032  0.1618 -1.1113  2.4907
   23CHL1   C16 1649   6.269   1.237   6.824 -0.1737 -0.5940 -0.3572
   23CHL1  H16A 1650   6.223   1.138   6.807  0.8443 -0.8540 -1.7313
   23CHL1  H16B 1651   6.211   1.324   6.785 -0.4514 -1.7610 -2.7491
   23CHL1   C17 1652   6.412   1.223   6.763  0.1713 -0.3937  0.0248
   23CHL1   H17 1653   6.457   1.324   6.755  0.1043 -0.3373  0.3510
   23CHL1   C13 1654   6.498   1.152   6.879 -1.0476  0.2401 -0.0174
   23CHL1   C18 1655   6.466   0.998   6.889 -0.3110 -0.3592  0.4453
   23CHL1  H18A 1656   6.537   0.934   6.832  0.3341 -1.6650  2.5701
   23CHL1  H18B 1657   6.474   0.970   6.997 -0.8205  1.6556  1.0460
   23CHL1  H18C 1658   6.361   0.983   6.856 -0.0306  0.0892 -0.6998
   23CHL1   C12 1659   6.656   1.171   6.891  0.1594 -0.5256  0.0666
   23CHL1  H12A 1660   6.715   1.129   6.807  1.7735  0.2291  0.7786
   23CHL1  H12B 1661   6.680   1.280   6.883  1.1905 -0.8404 -2.1017
   23CHL1   C11 1662   6.711   1.128   7.028  0.4297  0.2821 -0.1837
   23CHL1  H11A 1663   6.713   1.017   7.038 -0.0588  0.4124  1.7391
   23CHL1  H11B 1664   6.816   1.161   7.043  1.0505 -1.5350 -0.2598
   23CHL1    C9 1665   6.640   1.199   7.145  0.0110  0.2699  0.3400
   23CHL1    H9 1666   6.650   1.307   7.121 -1.2852  0.3974  0.2755
   23CHL1   C10 1667   6.692   1.161   7.287  0.3540 -0.4880 -0.0650
   23CHL1   C19 1668   6.680   1.005   7.296  0.3890  0.0702  0.5430
   23CHL1  H19A 1669   6.712   0.971   7.396  0.8854 -2.4896 -0.3976
   23CHL1  H19B 1670   6.578   0.964   7.283  0.3929  0.2802 -0.2593
   23CHL1  H19C 1671   6.747   0.962   7.218 -0.8267  0.7310 -0.9335
   23CHL1    C1 1672   6.839   1.210   7.309  0.0283 -0.4536 -0.6721
   23CHL1   H1A 1673   6.914   1.177   7.234  0.1421  1.5238 -1.5015
   23CHL1   H1B 1674   6.826   1.319   7.291 -0.0133 -0.3031  0.2452
   23CHL1    C2 1675   6.890   1.189   7.452  0.4863 -0.0536  0.3562
   23CHL1   H2A 1676   6.996   1.221   7.464  0.9398 -1.1317 -0.5267
   23CHL1   H2B 1677   6.894   1.078   7.456  1.8158 -0.1082 -1.2247
   23CHL1   C20 1678   6.406   1.170   6.622 -0.3760  0.7636 -0.0687
   23CHL1   H20 1679   6.353   1.072   6.622  0.8065  0.0586  1.6432
   23CHL1   C21 1680   6.548   1.134   6.566  0.0748  0.3209 -0.6198
   23CHL1  H21A 1681   6.603   1.230   6.558  2.7406 -1.1249 -0.6885
   23CHL1  H21B 1682   6.534   1.087   6.467  0.0780 -0.4719 -0.2544
   23CHL1  H21C 1683   6.602   1.063   6.633  0.0713 -0.6420 -1.6095
   23CHL1   C22 1684   6.317   1.249   6.521 -0.5738 -0.0082 -0.0257
   23CHL1  H22A 1685   6.221   1.280   6.567  0.6177  1.1332  1.8382
   23CHL1  H22B 1686   6.373   1.343   6.498  0.6427 -0.5618  0.5857
   23CHL1   C23 1687   6.294   1.161   6.387 -0.0595  0.2934 -0.3912
   23CHL1  H23A 1688   6.393   1.131   6.348  1.3189  2.0169  1.5590
   23CHL1  H23B 1689   6.248   1.062   6.410 -0.2565  0.1151 -1.4992
   23CHL1   C24 1690   6.219   1.217   6.267 -0.1090  0.2675  0.4259
   23CHL1  H24A 1691   6.224   1.150   6.178 -0.4771 -1.0042  1.3411
   23CHL1  H24B 1692   6.111   1.218   6.292 -0.5838  2.1259 -1.4127
   23CHL1   C25 1693   6.255   1.352   6.225 -0.3210 -0.5398 -0.0112
   23CHL1   H25 1694   6.251   1.417   6.315  0.4626 -1.9337  1.0723
   23CHL1   C26 1695   6.400   1.366   6.181 -0.3798  0.8331 -0.4865
   23CHL1  H26A 1696   6.436   1.466   6.146 -1.6235  1.8142  0.9090
   23CHL1  H26B 1697   6.462   1.339   6.269 -1.7970 -1.1678 -0.0588
   23CHL1  H26C 1698   6.427   1.283   6.112  0.1124 -0.0490  0.7449
   23CHL1   C27 1699   6.152   1.387   6.120  0.0525 -0.3854  0.3441
   23CHL1  H27A 1700   6.138   1.497   6.108 -0.6286 -0.1248  2.9904
   23CHL1  H27B 1701   6.174   1.336   6.024  0.8384  1.7769 -0.7114
   23CHL1  H27C 1702   6.047   1.359   6.138  0.0667 -0.5079  0.2408
   24CHL1    C3 1703   0.025   5.771   7.637  0.2519 -0.6696 -0.2606
   24CHL1    H3 1704  -0.034   5.680   7.659  1.0411 -0.7662  1.5964
   24CHL1    O3 1705   0.034   5.844   7.753  0.5198 -0.3880 -0.2173
   24CHL1   H3' 1706   0.067   5.931   7.728 -0.1709  0.3749  1.3780
   24CHL1    C4 1707   0.168   5.723   7.599 -0.1752  0.3329 -0.3958
   24CHL1   H4A 1708   0.239   5.808   7.587  0.9994 -0.3098  1.5940
   24CHL1   H4B 1709   0.214   5.665   7.682 -0.9869  1.7413  1.0944
   24CHL1    C5 1710   0.161   5.645   7.469  1.1333 -0.4457  0.1636
   24CHL1    C6 1711   0.210   5.519   7.458 -0.0063  0.4900  0.0182
   24CHL1    H6 1712   0.263   5.466   7.538  0.5775  1.4634  0.2953
   24CHL1    C7 1713   0.211   5.443   7.331  0.0571  0.0890  0.5410
   24CHL1   H7A 1714   0.314   5.402   7.323  0.2583  0.7690 -0.5075
   24CHL1   H7B 1715   0.140   5.358   7.327 -2.2062  1.9177 -0.1749
   24CHL1    C8 1716   0.191   5.538   7.209 -0.7556 -0.4883  1.0530
   24CHL1    H8 1717   0.283   5.600   7.203  0.6139 -2.4725  0.5945
   24CHL1   C14 1718   0.172   5.459   7.084  0.3261 -0.3501 -0.5091
   24CHL1   H14 1719   0.074   5.412   7.106 -0.6502  1.6085 -0.5044
   24CHL1   C15 1720   0.272   5.347   7.051  0.0323  0.1421 -0.0574
   24CHL1  H15A 1721   0.379   5.374   7.067 -0.2712  1.0831  0.5206
   24CHL1  H15B 1722   0.242   5.262   7.115 -4.0920  1.6538  0.3617
   24CHL1   C16 1723   0.247   5.319   6.897  0.2920 -0.1324  0.3071
   24CHL1  H16A 1724   0.342   5.304   6.842  0.7742 -2.2643  1.5956
   24CHL1  H16B 1725   0.189   5.224   6.893  2.1361 -1.3035 -0.1907
   24CHL1   C17 1726   0.141   5.420   6.842 -0.6351  0.1807  0.0517
   24CHL1   H17 1727   0.040   5.373   6.848 -0.0655 -1.0780  0.3003
   24CHL1   C13 1728   0.153   5.530   6.948 -0.4590 -0.3156 -1.1087
   24CHL1   C18 1729   0.284   5.618   6.921 -0.1420  0.4047 -0.1092
   24CHL1  H18A 1730   0.295   5.694   7.002 -2.2871  3.0807 -2.1182
   24CHL1  H18B 1731   0.373   5.553   6.915  0.6080  1.4745 -0.9705
   24CHL1  H18C 1732   0.267   5.678   6.828 -1.2639  0.0257 -0.1706
   24CHL1   C12 1733   0.023   5.608   6.973 -0.0127 -0.1467  0.8410
   24CHL1  H12A 1734   0.003   5.661   6.877 -2.9568  0.5142  1.7109
   24CHL1  H12B 1735  -0.060   5.538   6.999 -1.1493  0.2525 -1.3757
   24CHL1   C11 1736   0.026   5.704   7.094 -0.2415 -0.2949 -0.8147
   24CHL1  H11A 1737   0.101   5.782   7.069  0.5327  0.0304  2.1922
   24CHL1  H11B 1738  -0.072   5.757   7.105  0.0871  0.1017  0.4029
   24CHL1    C9 1739   0.071   5.637   7.226 -0.2196  0.8571 -0.9932
   24CHL1    H9 1740  -0.018   5.574   7.248  2.2912 -2.5564  0.3147
   24CHL1   C10 1741   0.092   5.718   7.355  0.6948 -0.2728  0.2706
   24CHL1   C19 1742   0.184   5.841   7.315 -0.1164  0.5360  0.1370
   24CHL1  H19A 1743   0.197   5.915   7.396  1.9771  0.5088 -0.1056
   24CHL1  H19B 1744   0.289   5.809   7.293 -0.2832  0.7109 -0.9955
   24CHL1  H19C 1745   0.136   5.903   7.236 -0.7235 -2.0227 -1.6331
   24CHL1    C1 1746  -0.041   5.784   7.398  0.0775 -0.2672  0.8382
   24CHL1   H1A 1747  -0.070   5.848   7.312  0.8461  0.4259  1.0761
   24CHL1   H1B 1748  -0.116   5.703   7.411 -0.1360 -0.4632 -1.2476
   24CHL1    C2 1749  -0.036   5.860   7.528 -0.0597 -0.8142  0.7771
   24CHL1   H2A 1750  -0.129   5.910   7.565  0.1536 -0.9133  1.4622
   24CHL1   H2B 1751   0.038   5.941   7.514  0.5319 -1.7243 -1.9883
   24CHL1   C20 1752   0.155   5.468   6.697 -0.0595 -0.0115 -0.3158
   24CHL1   H20 1753   0.234   5.545   6.684 -0.8676  0.5280 -2.6352
   24CHL1   C21 1754   0.020   5.529   6.646 -0.2041 -0.3729 -0.0405
   24CHL1  H21A 1755  -0.064   5.472   6.692 -0.0378 -0.1405  0.5672
   24CHL1  H21B 1756   0.008   5.521   6.536 -0.2076  3.1083 -0.4023
   24CHL1  H21C 1757   0.021   5.638   6.667 -1.4472  0.4256 -3.5065
   24CHL1   C22 1758   0.199   5.350   6.611 -0.1853 -0.1581 -0.3382
   24CHL1  H22A 1759   0.295   5.298   6.632 -0.8270 -1.5502 -0.7773
   24CHL1  H22B 1760   0.127   5.267   6.625 -0.0753 -0.1474  0.3370
   24CHL1   C23 1761   0.209   5.364   6.458  0.5004 -0.3393 -0.6048
   24CHL1  H23A 1762   0.254   5.273   6.412  1.1035  0.4355 -1.5882
   24CHL1  H23B 1763   0.105   5.374   6.418 -0.2620  1.0818  1.5549
   24CHL1   C24 1764   0.295   5.484   6.405  0.3559 -0.0128  0.3286
   24CHL1  H24A 1765   0.252   5.580   6.440 -0.4553 -0.4866  0.6738
   24CHL1  H24B 1766   0.389   5.477   6.465 -0.0749  0.6817  1.1011
   24CHL1   C25 1767   0.331   5.481   6.259  0.3405  0.1125 -0.2612
   24CHL1   H25 1768   0.359   5.376   6.235 -1.7395 -0.4199 -0.5505
   24CHL1   C26 1769   0.204   5.516   6.171 -0.3723 -0.0064 -0.4236
   24CHL1  H26A 1770   0.115   5.451   6.186 -0.1577 -0.6924 -1.9261
   24CHL1  H26B 1771   0.161   5.618   6.180 -0.5554 -0.1122 -0.0697
   24CHL1  H26C 1772   0.235   5.507   6.065  0.2550  1.8159 -0.4246
   24CHL1   C27 1773   0.448   5.568   6.212  0.5005  0.1036  0.1170
   24CHL1  H27A 1774   0.529   5.549   6.286 -0.9994  2.6540  2.6227
   24CHL1  H27B 1775   0.479   5.547   6.108  2.7964  2.0398  0.3368
   24CHL1  H27C 1776   0.439   5.678   6.219 -0.2236  0.0122  0.8807
   25CHL1    C3 1777   6.472   6.813   7.772 -0.4117 -0.5955  0.4492
   25CHL1    H3 1778   6.540   6.898   7.749 -1.0296 -0.2931 -0.3346
   25CHL1    O3 1779   6.442   6.833   7.908  0.6973 -0.3286 -0.1497
   25CHL1   H3' 1780   6.428   6.927   7.922  1.9357 -0.2617  0.7748
   25CHL1    C4 1781   6.342   6.824   7.697  0.4835 -0.2337 -0.0837
   25CHL1   H4A 1782   6.281   6.738   7.732 -1.0446 -0.1115 -2.1964
   25CHL1   H4B 1783   6.299   6.920   7.734 -0.4140 -1.3009  1.7812
   25CHL1    C5 1784   6.378   6.807   7.546 -0.3077  0.8331 -0.2768
   25CHL1    C6 1785   6.334   6.898   7.457  1.2503  0.0425 -0.4706
   25CHL1    H6 1786   6.276   6.980   7.501  0.4476 -0.3238 -0.8241
   25CHL1    C7 1787   6.354   6.894   7.309  0.9188  0.3964 -0.1650
   25CHL1   H7A 1788   6.267   6.935   7.253 -1.3266 -2.5317  0.9442
   25CHL1   H7B 1789   6.442   6.959   7.290 -0.5560  2.5916  0.1174
   25CHL1    C8 1790   6.390   6.750   7.266 -0.1472  0.1429  0.0677
   25CHL1    H8 1791   6.296   6.692   7.281 -0.3402  0.4685  0.1230
   25CHL1   C14 1792   6.437   6.750   7.123  0.3829  0.1611  0.8717
   25CHL1   H14 1793   6.534   6.805   7.118  0.6137 -0.0940  2.2086
   25CHL1   C15 1794   6.334   6.806   7.020  0.3529  0.3789  0.1046
   25CHL1  H15A 1795   6.231   6.796   7.059  0.7829 -0.4566  1.0668
   25CHL1  H15B 1796   6.355   6.915   7.009 -1.0560  0.7994  1.2225
   25CHL1   C16 1797   6.350   6.722   6.888  0.8598 -0.8553 -0.7692
   25CHL1  H16A 1798   6.265   6.655   6.868 -1.9331  1.7465  1.3797
   25CHL1  H16B 1799   6.362   6.804   6.813  1.4375  0.3095  0.5405
   25CHL1   C17 1800   6.476   6.643   6.908 -0.4160  0.4973  0.1582
   25CHL1   H17 1801   6.555   6.719   6.891 -0.1886  0.0802 -0.7273
   25CHL1   C13 1802   6.469   6.614   7.063 -0.2530 -0.0737 -0.0348
   25CHL1   C18 1803   6.357   6.511   7.093  0.2548  0.6033  0.8268
   25CHL1  H18A 1804   6.359   6.489   7.202 -1.2731  0.3254  0.8272
   25CHL1  H18B 1805   6.257   6.559   7.083  0.4459  1.5069  2.7175
   25CHL1  H18C 1806   6.351   6.412   7.043 -0.7306 -0.0179  2.1063
   25CHL1   C12 1807   6.598   6.565   7.137 -0.2247 -0.7342 -0.6716
   25CHL1  H12A 1808   6.632   6.463   7.108  1.6406 -0.3786  0.1208
   25CHL1  H12B 1809   6.682   6.632   7.108 -2.1079  1.5638 -1.1056
   25CHL1   C11 1810   6.589   6.566   7.296 -0.2258 -0.3340  0.8212
   25CHL1  H11A 1811   6.541   6.468   7.319 -1.8246 -0.8493 -3.6576
   25CHL1  H11B 1812   6.693   6.579   7.334  0.7199 -0.7852 -1.4265
   25CHL1    C9 1813   6.505   6.690   7.352  0.4153 -0.2464 -0.9959
   25CHL1    H9 1814   6.574   6.776   7.340 -2.5359  2.7525  1.4068
   25CHL1   C10 1815   6.468   6.687   7.504 -0.5196  1.0715 -0.3431
   25CHL1   C19 1816   6.381   6.553   7.525 -0.0350 -0.3164  0.1505
   25CHL1  H19A 1817   6.453   6.469   7.530 -0.3694 -0.5470  1.4605
   25CHL1  H19B 1818   6.332   6.548   7.625 -2.7922 -0.8780 -1.1380
   25CHL1  H19C 1819   6.296   6.556   7.453  1.1838 -1.1827 -1.3797
   25CHL1    C1 1820   6.593   6.681   7.602  0.0636  0.4780  1.0180
   25CHL1   H1A 1821   6.646   6.588   7.571 -0.9406  0.4541 -0.7702
   25CHL1   H1B 1822   6.663   6.767   7.593  1.2988 -0.5904 -0.0172
   25CHL1    C2 1823   6.549   6.680   7.747  0.4565 -0.0732  0.3626
   25CHL1   H2A 1824   6.641   6.669   7.808 -0.2688 -1.5039  1.2550
   25CHL1   H2B 1825   6.477   6.599   7.770  0.1481  0.3369  0.8531
   25CHL1   C20 1826   6.501   6.525   6.815 -0.0968  0.4441  0.1117
   25CHL1   H20 1827   6.416   6.456   6.836  0.2874 -0.0590  0.0424
   25CHL1   C21 1828   6.638   6.453   6.844 -0.1176  0.3213  0.9550
   25CHL1  H21A 1829   6.708   6.507   6.911 -0.9801  1.2082  1.1533
   25CHL1  H21B 1830   6.704   6.419   6.762 -1.7623 -3.1425  0.8897
   25CHL1  H21C 1831   6.620   6.366   6.911 -0.8816  0.3836  0.8420
   25CHL1   C22 1832   6.481   6.569   6.667 -0.8412  0.1549 -0.8643
   25CHL1  H22A 1833   6.373   6.594   6.662 -0.7866  0.6630  0.1655
   25CHL1  H22B 1834   6.555   6.647   6.636  2.5284 -2.6321 -0.5072
   25CHL1   C23 1835   6.490   6.445   6.570  0.0468  0.7479 -0.2964
   25CHL1  H23A 1836   6.597   6.419   6.552 -0.0885  0.1044 -0.2186
   25CHL1  H23B 1837   6.454   6.358   6.630  0.0276  2.2271  1.9352
   25CHL1   C24 1838   6.418   6.467   6.438  0.3250 -0.6939  0.0731
   25CHL1  H24A 1839   6.399   6.374   6.380  0.6006 -0.0834 -1.0147
   25CHL1  H24B 1840   6.318   6.504   6.469  1.1583  2.2934 -0.5221
   25CHL1   C25 1841   6.491   6.572   6.350  0.1456  0.1943 -0.3852
   25CHL1   H25 1842   6.499   6.669   6.402 -2.8713 -0.0069  0.6719
   25CHL1   C26 1843   6.626   6.522   6.297  0.0999 -0.2378  0.2166
   25CHL1  H26A 1844   6.689   6.611   6.275  0.7717 -0.5694  0.7644
   25CHL1  H26B 1845   6.682   6.463   6.373  2.7421  0.9392 -0.6880
   25CHL1  H26C 1846   6.601   6.462   6.207  0.4858 -0.2703  0.1289
   25CHL1   C27 1847   6.405   6.605   6.226 -0.2582 -0.0816  0.0867
   25CHL1  H27A 1848   6.301   6.626   6.259 -0.5559 -1.8971  0.3972
   25CHL1  H27B 1849   6.464   6.690   6.185 -0.7758  2.3521  3.8319
   25CHL1  H27C 1850   6.401   6.522   6.152 -2.3571  1.1947 -1.3270
   26CHL1    C3 1851   2.102   1.086   7.628  0.3121 -0.1974  0.1386
   26CHL1    H3 1852   2.184   1.011   7.625  0.8361  0.3592  0.3480
   26CHL1    O3 1853   2.077   1.105   7.768  0.2012  0.6032 -0.6472
   26CHL1   H3' 1854   2.152   1.154   7.802 -1.0140  1.0209  1.6817
   26CHL1    C4 1855   2.134   1.222   7.570 -0.4731 -0.4860 -0.9750
   26CHL1   H4A 1856   2.064   1.303   7.601  1.7149  1.5706 -1.1160
   26CHL1   H4B 1857   2.227   1.251   7.622 -1.3801 -0.3512  0.6539
   26CHL1    C5 1858   2.145   1.230   7.418  0.7128  0.1210 -0.6816
   26CHL1    C6 1859   2.253   1.271   7.355  0.1139 -0.3570 -0.7379
   26CHL1    H6 1860   2.337   1.316   7.409 -2.5193  2.1833  1.6136
   26CHL1    C7 1861   2.252   1.286   7.207 -0.5675 -0.1640  0.6675
   26CHL1   H7A 1862   2.298   1.381   7.173 -0.9064  0.3162  1.5282
   26CHL1   H7B 1863   2.329   1.215   7.170 -1.2516 -1.0746  0.9430
   26CHL1    C8 1864   2.116   1.271   7.140 -0.2032  0.0353 -0.5542
   26CHL1    H8 1865   2.061   1.364   7.165  1.7836  0.5919  2.2219
   26CHL1   C14 1866   2.138   1.250   6.995  0.4627 -0.1790  0.6146
   26CHL1   H14 1867   2.170   1.144   6.985 -1.7563 -0.7293 -1.5632
   26CHL1   C15 1868   2.247   1.343   6.930 -0.3576 -0.4314 -0.0106
   26CHL1  H15A 1869   2.238   1.450   6.958  3.4994  0.0582 -0.0376
   26CHL1  H15B 1870   2.352   1.309   6.946 -0.7027 -1.9986 -0.8399
   26CHL1   C16 1871   2.214   1.323   6.780 -0.7252 -0.1856 -0.3116
   26CHL1  H16A 1872   2.215   1.417   6.721 -2.3013 -0.0823 -0.1913
   26CHL1  H16B 1873   2.295   1.260   6.735 -0.2472 -0.0393  0.3191
   26CHL1   C17 1874   2.071   1.257   6.763  0.6965 -0.3968 -0.3054
   26CHL1   H17 1875   2.096   1.154   6.733 -0.6214 -0.2494 -2.1217
   26CHL1   C13 1876   2.011   1.259   6.911 -0.4907  0.2258 -0.1874
   26CHL1   C18 1877   1.950   1.405   6.935  0.5077  0.5627  0.1181
   26CHL1  H18A 1878   1.914   1.420   7.039 -1.6344 -1.5637 -0.2234
   26CHL1  H18B 1879   2.018   1.488   6.908  1.2524 -0.0839 -0.0594
   26CHL1  H18C 1880   1.857   1.408   6.874  1.9602  1.3363 -2.1842
   26CHL1   C12 1881   1.930   1.133   6.954 -0.5228  0.4799 -0.1785
   26CHL1  H12A 1882   1.832   1.132   6.901  0.0770 -0.0639 -1.3250
   26CHL1  H12B 1883   1.989   1.040   6.937 -1.9844 -0.3727 -0.8399
   26CHL1   C11 1884   1.910   1.134   7.109  0.2566 -0.0355 -0.0076
   26CHL1  H11A 1885   1.843   1.219   7.133  0.1932 -0.1475  0.2152
   26CHL1  H11B 1886   1.858   1.043   7.146  1.1079 -1.1275 -1.4143
   26CHL1    C9 1887   2.041   1.159   7.196  0.1769  0.0956 -0.1690
   26CHL1    H9 1888   2.094   1.065   7.173 -0.3747 -0.7907  2.0032
   26CHL1   C10 1889   2.016   1.165   7.347  0.0034  0.0338 -0.3567
   26CHL1   C19 1890   1.888   1.247   7.372  0.7322  0.7590 -0.2808
   26CHL1  H19A 1891   1.868   1.277   7.477 -0.5477 -1.2844  0.1157
   26CHL1  H19B 1892   1.886   1.331   7.299 -1.2600 -1.0415 -2.4879
   26CHL1  H19C 1893   1.813   1.169   7.346  1.3029 -0.8444  2.5380
   26CHL1    C1 1894   1.999   1.024   7.403 -0.4484  0.5900 -0.4989
   26CHL1   H1A 1895   1.913   0.973   7.356  0.2664 -2.1832  1.0013
   26CHL1   H1B 1896   2.092   0.973   7.368  1.0275  2.9378 -0.2813
   26CHL1    C2 1897   1.989   1.021   7.554  0.1837  0.5300 -0.0539
   26CHL1   H2A 1898   1.984   0.914   7.582 -1.1102 -0.1884 -2.6760
   26CHL1   H2B 1899   1.895   1.072   7.585 -0.8199 -0.0555 -1.9800
   26CHL1   C20 1900   1.989   1.306   6.650  0.0653  0.3761  0.4884
   26CHL1   H20 1901   1.976   1.416   6.658 -2.8713  0.0806  1.2037
   26CHL1   C21 1902   1.852   1.232   6.657  0.3715 -0.3434  0.3601
   26CHL1  H21A 1903   1.790   1.281   6.735  3.0960  2.7545  0.8432
   26CHL1  H21B 1904   1.867   1.125   6.682  2.3284 -0.3026 -0.4328
   26CHL1  H21C 1905   1.802   1.216   6.559 -0.9423 -3.7811  1.4631
   26CHL1   C22 1906   2.059   1.273   6.510 -0.4389 -0.2720 -0.2698
   26CHL1  H22A 1907   2.152   1.334   6.509 -0.1247 -0.6631  1.3127
   26CHL1  H22B 1908   2.091   1.167   6.502 -0.9095 -0.3326 -1.5198
   26CHL1   C23 1909   1.974   1.315   6.394  0.7802  0.3931 -0.1989
   26CHL1  H23A 1910   1.889   1.245   6.376  0.7869 -0.0774  1.4515
   26CHL1  H23B 1911   1.936   1.419   6.406  0.8500  0.2111  2.2136
   26CHL1   C24 1912   2.060   1.321   6.265  0.3562 -0.1137  0.0596
   26CHL1  H24A 1913   2.139   1.399   6.267  0.3832 -0.0735 -1.4913
   26CHL1  H24B 1914   2.100   1.219   6.245  0.9490 -0.0152  0.7006
   26CHL1   C25 1915   1.979   1.353   6.135 -0.2226 -0.1591  0.0708
   26CHL1   H25 1916   1.899   1.276   6.129 -0.1703 -0.4056  1.8255
   26CHL1   C26 1917   1.925   1.499   6.132 -0.3964  0.3182 -0.3064
   26CHL1  H26A 1918   1.858   1.518   6.045 -0.4171 -1.3750 -0.6947
   26CHL1  H26B 1919   1.860   1.509   6.221 -0.6604  1.9012 -0.6453
   26CHL1  H26C 1920   2.009   1.572   6.135  0.1490 -0.3122  2.7908
   26CHL1   C27 1921   2.073   1.337   6.015  0.0428 -0.2775  0.8021
   26CHL1  H27A 1922   2.013   1.347   5.922 -0.8507 -0.1755  1.3766
   26CHL1  H27B 1923   2.152   1.416   6.013 -0.2972  0.0643 -0.6963
   26CHL1  H27C 1924   2.114   1.234   6.020 -0.8613 -0.7540 -0.9449
   27CHL1    C3 1925   5.987   3.334   7.733  0.2702 -0.3205 -0.2611
   27CHL1    H3 1926   5.894   3.373   7.686  1.2414 -0.4144 -2.4122
   27CHL1    O3 1927   5.985   3.343   7.880  0.4611 -0.0717 -0.1002
   27CHL1   H3' 1928   6.069   3.302   7.900 -0.1802 -1.4705 -0.1018
   27CHL1    C4 1929   6.008   3.191   7.694 -0.4646 -0.1312  0.1840
   27CHL1   H4A 1930   6.101   3.151   7.738  1.1794  3.0733 -0.1345
   27CHL1   H4B 1931   5.922   3.141   7.745 -0.2132  0.8906  1.6655
   27CHL1    C5 1932   6.023   3.177   7.542  1.1505  0.4712  0.3197
   27CHL1    C6 1933   5.939   3.097   7.470  0.6171  0.0198 -0.1300
   27CHL1    H6 1934   5.860   3.043   7.524  2.2801 -1.5192  0.8847
   27CHL1    C7 1935   5.950   3.087   7.319  0.0673 -0.6228 -0.1685
   27CHL1   H7A 1936   5.948   2.982   7.283 -0.9208 -0.5654 -0.3048
   27CHL1   H7B 1937   5.865   3.146   7.279 -0.1354 -1.3994 -0.9097
   27CHL1    C8 1938   6.087   3.140   7.260  0.0146  0.0859 -0.0849
   27CHL1    H8 1939   6.167   3.071   7.294  1.0189  0.6335 -1.2567
   27CHL1   C14 1940   6.076   3.157   7.111  0.0256 -0.5651 -0.0053
   27CHL1   H14 1941   5.996   3.230   7.088 -1.0876 -1.0360  2.0852
   27CHL1   C15 1942   6.035   3.028   7.031 -0.3597 -0.7525 -0.5327
   27CHL1  H15A 1943   6.102   2.947   7.067 -0.5272 -2.0108 -2.8699
   27CHL1  H15B 1944   5.930   2.992   7.037 -1.0832  0.6090 -3.3689
   27CHL1   C16 1945   6.078   3.061   6.883  0.3400  0.6548  0.4661
   27CHL1  H16A 1946   6.131   2.979   6.830 -1.2045  0.0812 -0.2446
   27CHL1  H16B 1947   5.984   3.075   6.825  0.8661  1.3652 -0.2303
   27CHL1   C17 1948   6.163   3.196   6.890  0.5619 -0.4261 -0.4689
   27CHL1   H17 1949   6.087   3.273   6.867 -0.7176 -0.8664  1.8991
   27CHL1   C13 1950   6.206   3.214   7.038 -0.1845 -0.5225  0.3621
   27CHL1   C18 1951   6.326   3.125   7.070 -0.1411 -0.2774  0.8316
   27CHL1  H18A 1952   6.315   3.020   7.034  0.4862 -0.1153  0.1405
   27CHL1  H18B 1953   6.416   3.166   7.020  0.7821 -1.7038  1.2820
   27CHL1  H18C 1954   6.343   3.124   7.179  1.7545  2.4703  0.6542
   27CHL1   C12 1955   6.228   3.355   7.092 -0.0145  0.0053 -0.6041
   27CHL1  H12A 1956   6.323   3.401   7.057  0.3019  0.6577  1.0388
   27CHL1  H12B 1957   6.146   3.420   7.055 -0.3219 -0.9092 -1.5996
   27CHL1   C11 1958   6.238   3.350   7.247  0.2795  0.1203  0.6294
   27CHL1  H11A 1959   6.333   3.300   7.278 -0.1669 -1.0197  0.1891
   27CHL1  H11B 1960   6.243   3.453   7.290 -1.8741 -0.4802  2.4857
   27CHL1    C9 1961   6.114   3.276   7.317 -0.7027 -1.5190 -0.1205
   27CHL1    H9 1962   6.024   3.339   7.299 -0.1645 -0.6713  0.0968
   27CHL1   C10 1963   6.129   3.265   7.472 -0.2325 -0.1661 -0.2958
   27CHL1   C19 1964   6.277   3.208   7.497 -0.1911 -0.2792 -0.1782
   27CHL1  H19A 1965   6.358   3.283   7.486  0.4958 -0.9902 -0.0719
   27CHL1  H19B 1966   6.285   3.174   7.602  0.0714 -0.7070 -0.3362
   27CHL1  H19C 1967   6.317   3.123   7.438  0.1194  0.3582 -0.9108
   27CHL1    C1 1968   6.121   3.407   7.530 -0.3185  0.8889 -0.5302
   27CHL1   H1A 1969   6.213   3.453   7.488  0.3200 -0.4907 -0.6925
   27CHL1   H1B 1970   6.045   3.471   7.480 -0.1678  0.1561 -1.7279
   27CHL1    C2 1971   6.103   3.421   7.680  0.4066  0.4257 -0.0780
   27CHL1   H2A 1972   6.091   3.532   7.686  0.5692  0.4927 -0.9116
   27CHL1   H2B 1973   6.201   3.402   7.728  0.5804  1.1358 -0.1274
   27CHL1   C20 1974   6.276   3.206   6.784 -0.1262  0.2265 -0.2182
   27CHL1   H20 1975   6.355   3.130   6.802 -0.0047 -0.0192 -1.7076
   27CHL1   C21 1976   6.336   3.342   6.785 -0.1186 -1.1676  0.0105
   27CHL1  H21A 1977   6.405   3.369   6.702  1.2926 -1.1747  1.1562
   27CHL1  H21B 1978   6.398   3.360   6.875 -0.8005  2.5285 -0.1037
   27CHL1  H21C 1979   6.257   3.420   6.787  0.0195 -0.9876 -0.9369
   27CHL1   C22 1980   6.221   3.174   6.649  0.0952  0.2770 -0.2169
   27CHL1  H22A 1981   6.183   3.069   6.648 -1.0200  0.6513 -2.0409
   27CHL1  H22B 1982   6.140   3.239   6.610  0.9839  2.0360  0.7741
   27CHL1   C23 1983   6.331   3.163   6.538  0.0281 -0.0210 -0.3310
   27CHL1  H23A 1984   6.328   3.257   6.479  0.1257  1.2406  1.5946
   27CHL1  H23B 1985   6.430   3.141   6.584 -0.2739  1.4197  1.0740
   27CHL1   C24 1986   6.317   3.043   6.438 -0.6314  0.0050  0.5785
   27CHL1  H24A 1987   6.331   2.951   6.498  0.3076 -0.1846  0.0849
   27CHL1  H24B 1988   6.221   3.050   6.383  0.8478  1.9627 -2.0048
   27CHL1   C25 1989   6.421   3.048   6.318 -0.4783  0.7004 -0.7517
   27CHL1   H25 1990   6.382   3.123   6.246  0.5793 -1.2295 -3.5189
   27CHL1   C26 1991   6.564   3.090   6.366 -0.3225  0.5462  0.2732
   27CHL1  H26A 1992   6.568   3.188   6.417  0.8184  0.3040  0.6668
   27CHL1  H26B 1993   6.607   3.007   6.426 -2.1962 -0.4838  0.2918
   27CHL1  H26C 1994   6.621   3.101   6.271  1.8839  2.5605  1.7424
   27CHL1   C27 1995   6.420   2.910   6.252  0.3777 -0.0410 -0.0492
   27CHL1  H27A 1996   6.475   2.919   6.156  2.1281  0.2258  0.9330
   27CHL1  H27B 1997   6.466   2.832   6.316  1.5294  1.5701  1.1619
   27CHL1  H27C 1998   6.317   2.882   6.223  0.6124 -1.3059  0.2868
   28CHL1    C3 1999   5.797   4.015   8.044  0.3399 -0.4954 -0.4492
   28CHL1    H3 2000   5.863   4.104   8.037  0.9409 -0.7817  1.1810
   28CHL1    O3 2001   5.724   4.016   8.165  0.0081 -0.2647  0.0015
   28CHL1   H3' 2002   5.661   3.944   8.153 -0.9578  0.5729 -0.0554
   28CHL1    C4 2003   5.693   4.022   7.925 -0.2821  0.1307 -0.3172
   28CHL1   H4A 2004   5.617   3.942   7.939 -3.2394  2.5077 -1.6744
   28CHL1   H4B 2005   5.630   4.113   7.937  0.5347  0.7590 -0.7644
   28CHL1    C5 2006   5.766   4.012   7.799 -0.5636  0.4937  0.3844
   28CHL1    C6 2007   5.752   4.120   7.717 -0.4125 -0.0590  0.1158
   28CHL1    H6 2008   5.686   4.199   7.754  0.9146  0.7697  0.8191
   28CHL1    C7 2009   5.814   4.127   7.576  0.2022  0.0391 -0.3260
   28CHL1   H7A 2010   5.741   4.173   7.506  1.8399  2.0323 -0.8408
   28CHL1   H7B 2011   5.901   4.195   7.563  0.9995 -0.0416  3.4703
   28CHL1    C8 2012   5.847   3.982   7.521  0.2564 -0.6316  0.7710
   28CHL1    H8 2013   5.753   3.929   7.497 -1.0923  2.4614 -1.5371
   28CHL1   C14 2014   5.930   4.004   7.388  0.2076  0.4148  0.3458
   28CHL1   H14 2015   6.021   4.054   7.426  0.7388 -0.8545  0.8146
   28CHL1   C15 2016   5.868   4.076   7.267  0.1692  0.1280  0.6675
   28CHL1  H15A 2017   5.762   4.046   7.250  0.6262  0.0423 -2.5299
   28CHL1  H15B 2018   5.871   4.185   7.285  1.6956  0.1824  0.2554
   28CHL1   C16 2019   5.963   4.043   7.156 -0.4054 -0.0554 -0.2296
   28CHL1  H16A 2020   5.899   4.016   7.069 -1.2019 -0.0134  0.3288
   28CHL1  H16B 2021   6.036   4.119   7.122  0.0081  0.5110  1.8261
   28CHL1   C17 2022   6.044   3.923   7.209  0.1538  0.1881  0.0715
   28CHL1   H17 2023   6.145   3.959   7.239  0.5681 -1.2927  0.5136
   28CHL1   C13 2024   5.975   3.872   7.330 -0.1709  0.1246  0.2121
   28CHL1   C18 2025   5.856   3.783   7.284  0.4026  0.4138 -0.0782
   28CHL1  H18A 2026   5.806   3.826   7.195  1.0444  1.0300 -0.1451
   28CHL1  H18B 2027   5.889   3.683   7.249 -1.3969  0.5908 -2.4993
   28CHL1  H18C 2028   5.795   3.752   7.372 -0.5842  1.4806 -0.3598
   28CHL1   C12 2029   6.074   3.811   7.432  0.1939 -0.4759 -0.8367
   28CHL1  H12A 2030   6.108   3.714   7.391  1.5944 -0.3090 -0.1055
   28CHL1  H12B 2031   6.168   3.869   7.429  0.9302 -1.6596 -1.1188
   28CHL1   C11 2032   6.010   3.793   7.570 -0.3485  0.2748 -0.4853
   28CHL1  H11A 2033   5.943   3.705   7.565 -1.4728  1.0708  0.1329
   28CHL1  H11B 2034   6.091   3.756   7.635 -0.3214 -1.2167 -1.3123
   28CHL1    C9 2035   5.937   3.918   7.633  0.0141  0.4820 -0.3038
   28CHL1    H9 2036   6.019   3.988   7.657  0.0447  0.9456 -1.6652
   28CHL1   C10 2037   5.857   3.891   7.767  0.7438 -0.5626  0.1411
   28CHL1   C19 2038   5.754   3.769   7.761  0.1597 -0.6573  0.2492
   28CHL1  H19A 2039   5.674   3.774   7.683 -2.2009  1.0152  2.5833
   28CHL1  H19B 2040   5.805   3.671   7.751  0.1203 -1.1473  3.7578
   28CHL1  H19C 2041   5.699   3.753   7.856 -1.1970 -0.5200 -0.4855
   28CHL1    C1 2042   5.939   3.889   7.891 -0.2535 -0.3663  0.6481
   28CHL1   H1A 2043   6.008   3.802   7.883  0.3413  0.1449  0.0393
   28CHL1   H1B 2044   5.998   3.983   7.893 -0.0803 -0.4262 -0.6903
   28CHL1    C2 2045   5.877   3.891   8.032 -0.7075 -0.2885  0.2449
   28CHL1   H2A 2046   5.948   3.889   8.118 -2.6207 -0.9900  1.8902
   28CHL1   H2B 2047   5.812   3.804   8.052 -0.1219 -0.3963  1.8231
   28CHL1   C20 2048   6.064   3.824   7.099  0.3791  0.4168  0.1549
   28CHL1   H20 2049   5.971   3.778   7.057  0.3566 -0.8946  1.5600
   28CHL1   C21 2050   6.150   3.704   7.145  0.7209 -0.5334 -1.3036
   28CHL1  H21A 2051   6.192   3.642   7.063  1.8756 -1.6433  0.0829
   28CHL1  H21B 2052   6.089   3.634   7.206  1.8791 -1.1301 -0.7956
   28CHL1  H21C 2053   6.231   3.743   7.209 -1.0736  2.2219 -0.5633
   28CHL1   C22 2054   6.139   3.882   6.979 -0.2232  0.8810  0.1451
   28CHL1  H22A 2055   6.084   3.974   6.949  0.2896  1.5359  1.1945
   28CHL1  H22B 2056   6.241   3.907   7.014 -0.0354  1.3831 -0.7290
   28CHL1   C23 2057   6.137   3.796   6.852 -0.0779  0.5986  0.3701
   28CHL1  H23A 2058   6.171   3.691   6.868 -0.3843  0.5195  0.4987
   28CHL1  H23B 2059   6.033   3.784   6.816 -0.1181  0.9329  0.3727
   28CHL1   C24 2060   6.226   3.868   6.751 -0.1320 -0.1401  0.9133
   28CHL1  H24A 2061   6.177   3.965   6.727  2.4267  0.7689 -1.1380
   28CHL1  H24B 2062   6.331   3.885   6.785 -0.4909  0.7332  1.6149
   28CHL1   C25 2063   6.233   3.803   6.611 -0.0453  0.4039 -0.0304
   28CHL1   H25 2064   6.301   3.716   6.621  2.0172  2.0955  1.6028
   28CHL1   C26 2065   6.096   3.748   6.559  0.6566  0.5949  0.1447
   28CHL1  H26A 2066   6.073   3.654   6.614 -2.5373 -0.1728 -2.1574
   28CHL1  H26B 2067   6.014   3.820   6.576  0.5473  0.5085 -0.0096
   28CHL1  H26C 2068   6.103   3.733   6.449  0.6166  1.2467  0.0485
   28CHL1   C27 2069   6.305   3.898   6.514  0.6056 -0.0820  0.0349
   28CHL1  H27A 2070   6.294   4.005   6.544  1.0306  0.6798 -2.3169
   28CHL1  H27B 2071   6.413   3.876   6.525  0.6063 -1.1371 -1.8040
   28CHL1  H27C 2072   6.271   3.878   6.411  1.3779 -0.9042 -0.0729
   29CHL1    C3 2073   1.954   1.213   4.219 -0.2177 -0.3208 -0.1082
   29CHL1    H3 2074   2.062   1.186   4.214 -0.1590  0.1553 -2.7103
   29CHL1    O3 2075   1.899   1.201   4.093 -0.3375  0.1106  0.0336
   29CHL1   H3' 2076   1.803   1.207   4.091 -0.4860 -1.6003 -2.1130
   29CHL1    C4 2077   1.877   1.126   4.320 -0.6815 -0.4634 -0.3610
   29CHL1   H4A 2078   1.770   1.158   4.318 -1.1661 -1.8737  1.2981
   29CHL1   H4B 2079   1.887   1.022   4.281  1.3773 -1.1129  1.7219
   29CHL1    C5 2080   1.933   1.144   4.460 -0.0249  0.1995 -0.0368
   29CHL1    C6 2081   1.973   1.039   4.522  0.4604  0.8761  0.5779
   29CHL1    H6 2082   1.969   0.936   4.485  0.5614  0.9789  0.2776
   29CHL1    C7 2083   2.031   1.040   4.655 -0.6476 -0.5506 -0.0080
   29CHL1   H7A 2084   2.003   0.963   4.730  3.2895 -0.1268  2.1601
   29CHL1   H7B 2085   2.138   1.031   4.625 -0.3985  2.4002 -0.2726
   29CHL1    C8 2086   2.001   1.173   4.734 -0.3027  0.1516  0.2832
   29CHL1    H8 2087   1.895   1.168   4.770 -0.9716  2.2796 -1.2249
   29CHL1   C14 2088   2.087   1.186   4.856  0.3674 -0.2882  0.0221
   29CHL1   H14 2089   2.193   1.200   4.823  0.0668  0.0282 -0.8456
   29CHL1   C15 2090   2.108   1.070   4.957  0.3485  0.3879 -0.0471
   29CHL1  H15A 2091   2.012   1.015   4.971 -0.4657  1.8881  0.4690
   29CHL1  H15B 2092   2.180   0.996   4.915  1.8309  0.3808  2.3188
   29CHL1   C16 2093   2.158   1.132   5.086  0.6626 -0.4375  0.4113
   29CHL1  H16A 2094   2.090   1.102   5.169 -0.0643 -1.4888 -0.5445
   29CHL1  H16B 2095   2.261   1.105   5.116  1.2790  1.3227 -0.0265
   29CHL1   C17 2096   2.159   1.289   5.063 -0.1543 -0.3011 -0.0844
   29CHL1   H17 2097   2.264   1.309   5.031  0.0782 -1.0662  0.1878
   29CHL1   C13 2098   2.059   1.310   4.945  0.6324 -0.0102  0.0411
   29CHL1   C18 2099   1.920   1.308   5.006  0.0107 -0.6632  0.6496
   29CHL1  H18A 2100   1.842   1.266   4.940 -1.4494  0.9647  1.2479
   29CHL1  H18B 2101   1.917   1.246   5.098 -0.1785 -1.7168 -0.0519
   29CHL1  H18C 2102   1.885   1.412   5.026  1.4424 -0.3266  1.5098
   29CHL1   C12 2103   2.084   1.435   4.862  0.0808 -0.4615  0.0496
   29CHL1  H12A 2104   2.070   1.534   4.910  1.7782  0.3829 -1.0916
   29CHL1  H12B 2105   2.193   1.442   4.840 -0.0828  3.8806 -0.1443
   29CHL1   C11 2106   2.004   1.425   4.732  0.4646  0.4430 -0.5698
   29CHL1  H11A 2107   1.897   1.448   4.749 -0.1181 -0.7960 -2.3378
   29CHL1  H11B 2108   2.035   1.510   4.667  2.0603  1.0847  0.9237
   29CHL1    C9 2109   2.017   1.294   4.646 -0.6242  0.0084  0.4204
   29CHL1    H9 2110   2.124   1.284   4.619 -0.8685 -1.5635 -0.0971
   29CHL1   C10 2111   1.933   1.289   4.517  0.3897 -0.8306  0.1656
   29CHL1   C19 2112   1.781   1.332   4.552 -0.3973  0.1152  0.0868
   29CHL1  H19A 2113   1.727   1.330   4.454 -1.3716 -1.8836  0.6088
   29CHL1  H19B 2114   1.731   1.271   4.630  0.7574 -0.3585  0.4706
   29CHL1  H19C 2115   1.772   1.432   4.600  0.0062  1.1095 -1.8101
   29CHL1    C1 2116   1.996   1.375   4.403 -0.1470 -0.4800 -0.6074
   29CHL1   H1A 2117   1.992   1.481   4.436 -0.3126 -0.0353 -1.9967
   29CHL1   H1B 2118   2.103   1.348   4.394 -0.1618 -0.0306 -2.3812
   29CHL1    C2 2119   1.941   1.354   4.262 -0.6894 -0.5530 -1.5466
   29CHL1   H2A 2120   1.987   1.427   4.192  0.9250  0.0347  0.0636
   29CHL1   H2B 2121   1.832   1.375   4.267 -0.5285  0.0531  2.1403
   29CHL1   C20 2122   2.135   1.372   5.193 -0.6253 -0.1375 -0.2832
   29CHL1   H20 2123   2.038   1.353   5.245  0.5743 -1.0694  1.7273
   29CHL1   C21 2124   2.160   1.526   5.175  0.1854 -0.6688  0.2793
   29CHL1  H21A 2125   2.074   1.569   5.119 -1.8526 -1.4019  2.6766
   29CHL1  H21B 2126   2.248   1.554   5.114 -0.3763  0.2064 -0.1470
   29CHL1  H21C 2127   2.159   1.577   5.273 -0.5510  0.2834 -0.2083
   29CHL1   C22 2128   2.238   1.327   5.300  0.5859  0.2005 -0.3278
   29CHL1  H22A 2129   2.219   1.217   5.303 -1.1787  0.4909  1.6421
   29CHL1  H22B 2130   2.344   1.341   5.268  0.8827  1.3381  1.0699
   29CHL1   C23 2131   2.229   1.385   5.449 -0.0181 -0.0927  0.0068
   29CHL1  H23A 2132   2.273   1.487   5.447  1.9663 -0.6674  3.8039
   29CHL1  H23B 2133   2.120   1.388   5.472 -0.7076 -1.3561 -2.7236
   29CHL1   C24 2134   2.309   1.300   5.552  0.2945 -0.2323 -0.2618
   29CHL1  H24A 2135   2.273   1.195   5.553  0.4579 -0.3189  2.2191
   29CHL1  H24B 2136   2.414   1.295   5.515  0.4172 -0.7861  0.1557
   29CHL1   C25 2137   2.293   1.348   5.697  0.4794 -0.0526  0.4240
   29CHL1   H25 2138   2.184   1.352   5.721  0.6046 -0.4641  1.1001
   29CHL1   C26 2139   2.362   1.256   5.787 -0.2406 -0.3526  0.7487
   29CHL1  H26A 2140   2.360   1.292   5.892 -0.7249 -1.1160  1.0054
   29CHL1  H26B 2141   2.331   1.150   5.794  0.5043 -0.6365 -0.1325
   29CHL1  H26C 2142   2.468   1.250   5.754 -0.8045  1.6009 -1.6991
   29CHL1   C27 2143   2.354   1.486   5.715 -0.0092  0.4783 -0.1932
   29CHL1  H27A 2144   2.282   1.570   5.709  0.6259  1.1226  0.8508
   29CHL1  H27B 2145   2.403   1.504   5.813  2.8441  1.8041 -1.7279
   29CHL1  H27C 2146   2.432   1.509   5.639 -0.5210 -1.0073 -1.2019
   30CHL1    C3 2147   2.084   1.956   4.540  0.4580  0.4764 -0.6182
   30CHL1    H3 2148   2.083   1.844   4.540  2.8956  0.4017 -0.3442
   30CHL1    O3 2149   2.031   1.974   4.408 -0.5286 -0.1602  0.0276
   30CHL1   H3' 2150   2.081   2.045   4.367 -2.0959 -0.1181 -1.9649
   30CHL1    C4 2151   1.992   2.014   4.641  0.0125 -0.2435 -0.7432
   30CHL1   H4A 2152   1.965   2.120   4.620 -1.8922 -0.3800  0.8187
   30CHL1   H4B 2153   1.890   1.975   4.623 -1.7038  2.7674  1.4809
   30CHL1    C5 2154   2.036   1.996   4.784  0.0343  0.2169 -0.2740
   30CHL1    C6 2155   1.967   1.915   4.871  0.2425  0.4249  0.3363
   30CHL1    H6 2156   1.871   1.866   4.846  0.9752 -0.2683 -1.2897
   30CHL1    C7 2157   2.020   1.873   5.005 -0.7828 -0.6164  0.0402
   30CHL1   H7A 2158   1.941   1.899   5.079  0.0224  2.4919 -0.0333
   30CHL1   H7B 2159   2.048   1.766   5.008 -0.7047 -0.6131 -0.4401
   30CHL1    C8 2160   2.140   1.961   5.056  0.4077  0.1294  0.1373
   30CHL1    H8 2161   2.110   2.062   5.093 -0.6781 -0.9621  2.4211
   30CHL1   C14 2162   2.212   1.891   5.172 -0.6072 -0.8433 -0.2829
   30CHL1   H14 2163   2.250   1.800   5.121 -0.3318 -0.6493 -0.4224
   30CHL1   C15 2164   2.125   1.846   5.289 -0.0176 -0.8335  0.5498
   30CHL1  H15A 2165   2.067   1.934   5.325  1.8184  0.2094  1.0937
   30CHL1  H15B 2166   2.057   1.759   5.282 -1.3569  0.0765  1.4912
   30CHL1   C16 2167   2.233   1.823   5.397 -0.2865 -0.9880  0.1221
   30CHL1  H16A 2168   2.204   1.885   5.485 -3.1711 -0.9907 -0.6997
   30CHL1  H16B 2169   2.240   1.712   5.407  0.7766 -1.2931 -2.8464
   30CHL1   C17 2170   2.368   1.874   5.344  0.1551 -0.0111  0.1509
   30CHL1   H17 2171   2.414   1.778   5.311 -2.6668 -1.4966  0.1856
   30CHL1   C13 2172   2.334   1.966   5.227 -0.5870  0.6269  0.2550
   30CHL1   C18 2173   2.296   2.107   5.287 -0.0261  0.2751  0.1830
   30CHL1  H18A 2174   2.237   2.103   5.381  2.3909 -3.1186  1.7993
   30CHL1  H18B 2175   2.389   2.160   5.317  0.2909 -1.6488  2.9891
   30CHL1  H18C 2176   2.242   2.161   5.206 -0.9683 -1.3066 -0.3000
   30CHL1   C12 2177   2.433   1.975   5.109 -0.4582  0.1818 -0.4807
   30CHL1  H12A 2178   2.518   2.039   5.142  0.0974 -1.3733  1.2652
   30CHL1  H12B 2179   2.460   1.872   5.077  0.4896  0.8538 -1.9491
   30CHL1   C11 2180   2.374   2.044   4.988  0.0786 -0.0385 -0.5025
   30CHL1  H11A 2181   2.350   2.148   5.018  2.1634  0.9058 -1.8796
   30CHL1  H11B 2182   2.453   2.042   4.909 -1.8229  2.0007 -2.6323
   30CHL1    C9 2183   2.237   1.981   4.939 -1.0751 -0.6849  0.0163
   30CHL1    H9 2184   2.270   1.880   4.905 -0.7604 -0.2905 -0.9005
   30CHL1   C10 2185   2.180   2.050   4.812 -0.0819 -0.0532  0.4212
   30CHL1   C19 2186   2.160   2.200   4.827 -0.6506  0.7848 -0.4801
   30CHL1  H19A 2187   2.095   2.217   4.916  0.7041 -0.9008  0.8919
   30CHL1  H19B 2188   2.251   2.259   4.850 -0.3282 -0.0958  0.5908
   30CHL1  H19C 2189   2.118   2.238   4.731 -0.5255  1.1788 -0.3822
   30CHL1    C1 2190   2.280   2.013   4.690  0.3135 -0.6810 -0.0609
   30CHL1   H1A 2191   2.369   2.077   4.708  1.6821 -2.2392 -0.9984
   30CHL1   H1B 2192   2.314   1.912   4.721 -0.5983 -0.1785  2.9064
   30CHL1    C2 2193   2.224   2.023   4.549  0.5142  0.4030 -0.3258
   30CHL1   H2A 2194   2.290   1.978   4.473 -0.6600 -2.5784  0.2605
   30CHL1   H2B 2195   2.228   2.132   4.525  0.7721 -0.3031 -4.0776
   30CHL1   C20 2196   2.452   1.924   5.461  0.3745 -0.8059  0.2077
   30CHL1   H20 2197   2.422   2.027   5.489  1.0395 -0.9168  1.3819
   30CHL1   C21 2198   2.600   1.936   5.418  0.2441  0.2386 -0.2784
   30CHL1  H21A 2199   2.649   2.008   5.487 -1.9492  1.3308  0.1933
   30CHL1  H21B 2200   2.606   1.995   5.325 -0.8561  1.0798  0.1661
   30CHL1  H21C 2201   2.659   1.841   5.425 -2.8920 -1.9624 -1.4782
   30CHL1   C22 2202   2.452   1.835   5.601  0.2207  0.2213  0.1052
   30CHL1  H22A 2203   2.349   1.834   5.643 -0.3204 -1.5751 -1.1512
   30CHL1  H22B 2204   2.468   1.728   5.575 -3.9201 -0.1483 -1.5870
   30CHL1   C23 2205   2.550   1.886   5.704 -0.5391 -0.2736  0.2134
   30CHL1  H23A 2206   2.654   1.879   5.668 -0.7247 -1.8166 -0.0920
   30CHL1  H23B 2207   2.539   1.996   5.722 -0.0330 -0.3313  0.9183
   30CHL1   C24 2208   2.552   1.815   5.839 -0.0404  0.1078  0.0229
   30CHL1  H24A 2209   2.464   1.852   5.895 -0.8631 -0.1428 -1.0828
   30CHL1  H24B 2210   2.537   1.706   5.824  0.1575  0.1398 -0.4079
   30CHL1   C25 2211   2.680   1.825   5.920  0.9089  0.4603  0.4049
   30CHL1   H25 2212   2.663   1.772   6.016 -0.7104 -0.1926 -0.2059
   30CHL1   C26 2213   2.787   1.749   5.847  0.6768  0.0463  0.1897
   30CHL1  H26A 2214   2.880   1.739   5.906  1.9106 -0.4794 -1.7381
   30CHL1  H26B 2215   2.761   1.644   5.820  0.2854  0.1334  0.2192
   30CHL1  H26C 2216   2.806   1.802   5.751 -1.1522  1.1375  0.3822
   30CHL1   C27 2217   2.720   1.969   5.952  0.0365  0.0398 -0.1958
   30CHL1  H27A 2218   2.816   1.964   6.007 -1.1367 -1.4302  1.8251
   30CHL1  H27B 2219   2.726   2.032   5.861 -0.2016  0.3517  0.0036
   30CHL1  H27C 2220   2.644   2.014   6.019  1.6896 -1.4569  2.8481
   31CHL1    C3 2221   5.047   2.512   4.450  0.0703  0.3722  0.6098
   31CHL1    H3 2222   5.023   2.611   4.495  2.0598  0.8382  0.7268
   31CHL1    O3 2223   4.964   2.471   4.341 -0.0757  0.0101  0.2378
   31CHL1   H3' 2224   4.883   2.521   4.349  0.2840  0.7215 -0.3996
   31CHL1    C4 2225   5.193   2.510   4.409  0.3884  0.3880 -0.8441
   31CHL1   H4A 2226   5.213   2.416   4.353 -0.9202 -1.0088  0.9419
   31CHL1   H4B 2227   5.198   2.600   4.343 -1.2432  0.8897 -0.3283
   31CHL1    C5 2228   5.284   2.529   4.537 -0.1736  0.4492  0.6243
   31CHL1    C6 2229   5.374   2.632   4.542 -0.1994  0.6388 -0.7561
   31CHL1    H6 2230   5.383   2.710   4.465  1.9071 -0.0739 -1.2755
   31CHL1    C7 2231   5.476   2.647   4.653  0.4659  0.4279 -0.5699
   31CHL1   H7A 2232   5.576   2.660   4.606  0.3444 -0.2087 -1.0177
   31CHL1   H7B 2233   5.448   2.735   4.716  0.8854 -0.2034  0.5138
   31CHL1    C8 2234   5.494   2.526   4.748 -0.2433 -0.3866  0.5464
   31CHL1    H8 2235   5.559   2.461   4.685 -1.5991  0.6723 -2.0821
   31CHL1   C14 2236   5.562   2.572   4.878 -0.3383 -0.4884  0.2273
   31CHL1   H14 2237   5.500   2.644   4.935  0.2168 -0.6246  1.0172
   31CHL1   C15 2238   5.694   2.644   4.862 -0.1377 -0.7641  0.2910
   31CHL1  H15A 2239   5.764   2.586   4.799 -0.7729 -1.1768 -0.0400
   31CHL1  H15B 2240   5.705   2.749   4.826  1.9442 -0.0408  2.7124
   31CHL1   C16 2241   5.753   2.648   5.002 -0.2226 -0.1139 -0.1944
   31CHL1  H16A 2242   5.863   2.642   4.993 -0.1629  1.7620 -1.0349
   31CHL1  H16B 2243   5.752   2.750   5.044  1.7784  0.4876 -1.4754
   31CHL1   C17 2244   5.675   2.545   5.090 -0.1435 -0.2428 -0.2540
   31CHL1   H17 2245   5.603   2.607   5.148  1.2512  1.3397 -0.1116
   31CHL1   C13 2246   5.596   2.468   4.981 -0.3477  1.1655  0.3021
   31CHL1   C18 2247   5.686   2.360   4.911  0.0612 -0.1027 -0.0142
   31CHL1  H18A 2248   5.789   2.396   4.890  0.3087  0.9868  2.6898
   31CHL1  H18B 2249   5.688   2.267   4.971  0.3432  0.0929  0.2807
   31CHL1  H18C 2250   5.636   2.330   4.816  1.3844 -0.8335 -0.5082
   31CHL1   C12 2251   5.463   2.399   5.017  0.4591  0.4935 -0.1675
   31CHL1  H12A 2252   5.479   2.308   5.079  1.1524  0.7575  0.0455
   31CHL1  H12B 2253   5.396   2.468   5.073 -0.7891 -0.2931 -0.6399
   31CHL1   C11 2254   5.386   2.354   4.882  0.0926 -0.1485  0.8865
   31CHL1  H11A 2255   5.446   2.275   4.834 -1.4328  0.0665 -1.5813
   31CHL1  H11B 2256   5.288   2.307   4.907  0.5809 -0.2624  2.7969
   31CHL1    C9 2257   5.356   2.465   4.777  0.5008  0.0156 -0.1631
   31CHL1    H9 2258   5.297   2.543   4.831  0.9670 -2.3405  4.1475
   31CHL1   C10 2259   5.274   2.426   4.650  0.8160 -0.3372 -0.0260
   31CHL1   C19 2260   5.324   2.280   4.608  0.0700  0.1740 -0.1318
   31CHL1  H19A 2261   5.284   2.204   4.679  1.6161 -1.4034 -0.8896
   31CHL1  H19B 2262   5.287   2.249   4.509 -0.7015 -1.4462  0.6300
   31CHL1  H19C 2263   5.434   2.276   4.600 -0.0072  1.0201 -2.2969
   31CHL1    C1 2264   5.125   2.422   4.684  0.8289 -0.8203  0.2748
   31CHL1   H1A 2265   5.105   2.336   4.753  0.1431  0.0038  1.1251
   31CHL1   H1B 2266   5.095   2.506   4.749 -3.2077 -0.4669 -1.7500
   31CHL1    C2 2267   5.043   2.395   4.556  0.8927 -0.2198 -0.0534
   31CHL1   H2A 2268   4.938   2.380   4.590  0.9402 -1.5942 -0.4617
   31CHL1   H2B 2269   5.081   2.304   4.507 -1.7903 -0.8173 -1.1923
   31CHL1   C20 2270   5.771   2.461   5.181 -0.6562  0.8178  0.5693
   31CHL1   H20 2271   5.851   2.416   5.118 -0.2886  0.5026  1.2495
   31CHL1   C21 2272   5.691   2.356   5.263  0.9170 -0.3628  0.3358
   31CHL1  H21A 2273   5.741   2.313   5.352  1.6844 -2.1591 -0.9006
   31CHL1  H21B 2274   5.668   2.270   5.197  1.3081 -0.8347  0.8080
   31CHL1  H21C 2275   5.603   2.416   5.296 -0.0665 -1.0943 -0.8697
   31CHL1   C22 2276   5.861   2.544   5.280 -0.7345  0.0248 -0.3818
   31CHL1  H22A 2277   5.915   2.466   5.338  2.8283  1.0992 -2.0076
   31CHL1  H22B 2278   5.934   2.590   5.211  2.0524 -1.2044  1.5550
   31CHL1   C23 2279   5.778   2.633   5.381 -0.5816  0.4822  0.0487
   31CHL1  H23A 2280   5.710   2.694   5.318  1.7825  0.6353 -2.5503
   31CHL1  H23B 2281   5.715   2.564   5.441 -0.1295  0.3705  0.4010
   31CHL1   C24 2282   5.868   2.708   5.473 -1.3567  0.2919 -0.2812
   31CHL1  H24A 2283   5.944   2.640   5.518 -1.5441  1.1327  1.4205
   31CHL1  H24B 2284   5.933   2.779   5.417  2.1239  1.4022  4.4271
   31CHL1   C25 2285   5.807   2.801   5.590 -0.5659  0.1604 -0.2387
   31CHL1   H25 2286   5.898   2.832   5.645  0.5722  0.2401 -2.0694
   31CHL1   C26 2287   5.729   2.926   5.542  0.1978 -0.2516 -0.0429
   31CHL1  H26A 2288   5.781   2.970   5.454  2.1232  0.7146  1.4852
   31CHL1  H26B 2289   5.626   2.901   5.511  0.4619 -0.5874 -0.6759
   31CHL1  H26C 2290   5.728   3.000   5.625  2.3054  1.1389 -1.1533
   31CHL1   C27 2291   5.719   2.724   5.683  0.2661 -0.2778  0.2283
   31CHL1  H27A 2292   5.755   2.629   5.727  1.1983  0.5494  1.2989
   31CHL1  H27B 2293   5.695   2.789   5.770  0.0681  0.4542 -0.3610
   31CHL1  H27C 2294   5.626   2.705   5.625 -0.0207  1.0028  0.2270
   32CHL1    C3 2295   6.769   1.374   4.361  0.6096  0.3026  0.3486
   32CHL1    H3 2296   6.671   1.390   4.412  1.2526  1.9398  1.1265
   32CHL1    O3 2297   6.751   1.371   4.227  0.2711  0.5156  0.1968
   32CHL1   H3' 2298   6.672   1.425   4.219  1.1726  1.6775 -1.7899
   32CHL1    C4 2299   6.865   1.489   4.403  0.1461  0.1755 -0.1124
   32CHL1   H4A 2300   6.959   1.465   4.350 -1.5160 -2.6994 -1.9904
   32CHL1   H4B 2301   6.820   1.586   4.369  0.3597 -0.2579 -1.7258
   32CHL1    C5 2302   6.883   1.477   4.550 -0.6849  0.2179  0.2068
   32CHL1    C6 2303   6.841   1.577   4.638  0.0095 -0.6462  0.0682
   32CHL1    H6 2304   6.796   1.671   4.603 -1.2860 -0.6773  1.5257
   32CHL1    C7 2305   6.859   1.577   4.788  0.7978 -0.3904 -0.4918
   32CHL1   H7A 2306   6.863   1.681   4.826  0.1042  0.2332 -2.0381
   32CHL1   H7B 2307   6.763   1.538   4.828  0.0156  0.2393 -1.6965
   32CHL1    C8 2308   6.966   1.476   4.823  0.0342 -0.2954 -1.0044
   32CHL1    H8 2309   7.065   1.520   4.797  1.0901 -2.3630 -0.7314
   32CHL1   C14 2310   6.959   1.459   4.974  0.2099  0.5792  0.4818
   32CHL1   H14 2311   6.861   1.411   4.993 -0.6313  2.2169  0.4369
   32CHL1   C15 2312   6.958   1.581   5.060  0.7869  0.6518 -0.3067
   32CHL1  H15A 2313   7.013   1.670   5.024 -1.4095  2.7673  1.2384
   32CHL1  H15B 2314   6.849   1.601   5.073  0.6952 -1.2061  2.9253
   32CHL1   C16 2315   7.010   1.532   5.199 -0.0963  0.5175 -0.3119
   32CHL1  H16A 2316   7.112   1.572   5.218  0.3331 -0.8158  0.3198
   32CHL1  H16B 2317   6.940   1.554   5.282 -0.9687 -0.4384 -0.7759
   32CHL1   C17 2318   7.032   1.377   5.179  0.1228 -0.8051  0.0973
   32CHL1   H17 2319   6.931   1.331   5.184  0.8335 -2.7061 -1.8002
   32CHL1   C13 2320   7.068   1.356   5.027 -0.2824 -0.5884 -0.3664
   32CHL1   C18 2321   7.209   1.420   5.006 -0.0139  1.0801 -0.2008
   32CHL1  H18A 2322   7.248   1.402   4.904  3.0006 -1.1371  1.1827
   32CHL1  H18B 2323   7.212   1.529   5.031  0.8209  0.8351  0.8585
   32CHL1  H18C 2324   7.280   1.370   5.076 -0.5954  1.3965  0.6362
   32CHL1   C12 2325   7.037   1.220   4.964 -0.5003 -0.5466  0.7845
   32CHL1  H12A 2326   7.110   1.143   4.995 -0.0734 -0.3204  0.3680
   32CHL1  H12B 2327   6.939   1.177   4.995 -0.3508 -0.2710  1.6564
   32CHL1   C11 2328   7.037   1.239   4.807 -0.0443 -0.9697 -0.1591
   32CHL1  H11A 2329   7.146   1.256   4.791  0.2619  1.1381  3.1651
   32CHL1  H11B 2330   7.002   1.143   4.764 -0.3149 -1.4179  1.0483
   32CHL1    C9 2331   6.947   1.341   4.756  0.5091 -0.2764 -0.3792
   32CHL1    H9 2332   6.847   1.303   4.785  0.3961 -1.2904 -1.9414
   32CHL1   C10 2333   6.941   1.340   4.599 -0.5910  0.0894  0.1884
   32CHL1   C19 2334   7.087   1.327   4.543 -0.5017 -0.4622  0.1774
   32CHL1  H19A 2335   7.147   1.416   4.572 -2.1355  0.3328  1.2563
   32CHL1  H19B 2336   7.143   1.238   4.577 -2.0814 -0.6826  2.4203
   32CHL1  H19C 2337   7.086   1.330   4.432  1.4066  2.0379  0.1361
   32CHL1    C1 2338   6.856   1.224   4.548  0.0075 -0.4527  0.1979
   32CHL1   H1A 2339   6.897   1.122   4.567  1.9951  0.1935 -0.3420
   32CHL1   H1B 2340   6.761   1.229   4.606  0.0780  1.0523  0.2317
   32CHL1    C2 2341   6.824   1.234   4.405  0.5105 -0.4660  0.3295
   32CHL1   H2A 2342   6.752   1.159   4.365  1.5093 -1.1521 -0.2313
   32CHL1   H2B 2343   6.912   1.212   4.341  0.1432  2.6079 -1.4202
   32CHL1   C20 2344   7.117   1.321   5.284 -0.3993  0.2788 -0.0438
   32CHL1   H20 2345   7.222   1.358   5.279 -0.5817  1.0118  1.1563
   32CHL1   C21 2346   7.124   1.169   5.251 -0.1969  0.7038 -0.9935
   32CHL1  H21A 2347   7.155   1.100   5.333  0.4324  1.4548 -0.5753
   32CHL1  H21B 2348   7.201   1.153   5.173  2.0510 -1.2442  1.3980
   32CHL1  H21C 2349   7.025   1.135   5.215 -0.3510 -0.2639  0.2741
   32CHL1   C22 2350   7.058   1.354   5.428  0.3978  0.6306  0.4748
   32CHL1  H22A 2351   7.064   1.463   5.449 -0.1108  0.8435 -0.4251
   32CHL1  H22B 2352   6.956   1.312   5.441  0.5872 -0.0735 -0.2745
   32CHL1   C23 2353   7.151   1.288   5.536  0.2311  0.6863  0.5192
   32CHL1  H23A 2354   7.162   1.180   5.513  0.7513  1.3009 -2.6052
   32CHL1  H23B 2355   7.255   1.327   5.524 -0.1429  1.6562  0.2704
   32CHL1   C24 2356   7.105   1.316   5.673  0.1217  0.3235 -0.5463
   32CHL1  H24A 2357   7.099   1.424   5.698 -1.2991  0.5182 -1.6113
   32CHL1  H24B 2358   6.999   1.287   5.687  0.4889 -0.4990  0.7723
   32CHL1   C25 2359   7.184   1.245   5.783 -0.6297 -0.4459  0.1497
   32CHL1   H25 2360   7.215   1.146   5.742 -0.6359 -0.6706  0.6811
   32CHL1   C26 2361   7.309   1.329   5.826  0.5864  0.2426 -0.1206
   32CHL1  H26A 2362   7.383   1.264   5.877 -0.4122 -1.7222 -1.0510
   32CHL1  H26B 2363   7.361   1.383   5.744 -0.5847 -0.0349 -1.0768
   32CHL1  H26C 2364   7.263   1.400   5.898 -4.1417 -2.9546  0.4346
   32CHL1   C27 2365   7.088   1.223   5.903  0.5417  0.1519  0.2602
   32CHL1  H27A 2366   7.131   1.159   5.983 -1.2151 -1.5146 -0.0617
   32CHL1  H27B 2367   7.055   1.316   5.953  0.8466  0.2940  0.2054
   32CHL1  H27C 2368   7.004   1.158   5.872  2.0528 -1.1014 -1.3920
   33CHL1    C3 2369   5.566   1.859   4.597 -0.5230  0.1163  0.5446
   33CHL1    H3 2370   5.651   1.843   4.667  0.6998 -0.4082 -0.9942
   33CHL1    O3 2371   5.638   1.883   4.471 -0.1680  0.1805  0.3288
   33CHL1   H3' 2372   5.618   1.811   4.410 -2.8021  2.0381 -1.2538
   33CHL1    C4 2373   5.486   1.728   4.594 -0.1955  0.0580 -0.2951
   33CHL1   H4A 2374   5.413   1.731   4.510 -0.7357  0.4490  0.1811
   33CHL1   H4B 2375   5.565   1.650   4.581  0.9869  1.1934 -0.1582
   33CHL1    C5 2376   5.417   1.702   4.728 -0.2082 -0.1375  0.1679
   33CHL1    C6 2377   5.434   1.581   4.787 -0.1084  0.2918 -0.1653
   33CHL1    H6 2378   5.507   1.509   4.747 -0.6775 -0.9756  0.9786
   33CHL1    C7 2379   5.358   1.549   4.914 -0.1151 -0.8508  0.4104
   33CHL1   H7A 2380   5.334   1.440   4.918  0.4485 -0.9705  0.7809
   33CHL1   H7B 2381   5.428   1.560   5.000 -1.8011 -2.8439  2.1446
   33CHL1    C8 2382   5.248   1.655   4.942 -0.0781  0.4063 -0.4973
   33CHL1    H8 2383   5.162   1.641   4.873 -0.4968 -1.3071  0.3170
   33CHL1   C14 2384   5.214   1.649   5.091  0.3076  0.0438  0.0538
   33CHL1   H14 2385   5.305   1.675   5.149  1.0543  1.9714 -1.8019
   33CHL1   C15 2386   5.165   1.511   5.136 -0.8240  0.3543  0.2858
   33CHL1  H15A 2387   5.086   1.482   5.063  0.2119  0.5533 -0.9345
   33CHL1  H15B 2388   5.247   1.437   5.134 -2.6044 -1.6887 -1.3393
   33CHL1   C16 2389   5.109   1.534   5.281 -0.1791  0.4857 -0.4654
   33CHL1  H16A 2390   5.015   1.475   5.293  0.4701 -0.4425  0.1652
   33CHL1  H16B 2391   5.179   1.491   5.356 -1.1400 -0.5353 -0.1209
   33CHL1   C17 2392   5.094   1.688   5.294 -0.0445  0.2444 -0.5123
   33CHL1   H17 2393   5.188   1.730   5.335 -1.0854  1.4228  0.7574
   33CHL1   C13 2394   5.104   1.740   5.146  0.5797 -0.5338 -0.5676
   33CHL1   C18 2395   4.971   1.731   5.067 -0.4014  1.0294  0.7410
   33CHL1  H18A 2396   4.980   1.755   4.959  0.3216  3.0733  1.2055
   33CHL1  H18B 2397   4.929   1.629   5.071  1.8857 -0.0452 -0.5237
   33CHL1  H18C 2398   4.899   1.798   5.120  0.2656  3.5274 -1.3113
   33CHL1   C12 2399   5.159   1.888   5.127 -0.3166  0.2742 -0.2264
   33CHL1  H12A 2400   5.084   1.965   5.155 -0.6861  0.4878 -1.6998
   33CHL1  H12B 2401   5.239   1.889   5.204 -1.8544  1.4973  1.4404
   33CHL1   C11 2402   5.206   1.907   4.983 -0.1635 -0.0835  0.1006
   33CHL1  H11A 2403   5.112   1.921   4.926  0.0385 -2.3077 -0.8958
   33CHL1  H11B 2404   5.265   2.001   4.987  0.2641 -0.3494  4.0233
   33CHL1    C9 2405   5.303   1.800   4.926 -0.6690  0.4617  0.1343
   33CHL1    H9 2406   5.395   1.806   4.988 -0.8034  0.5193  0.3291
   33CHL1   C10 2407   5.339   1.820   4.779 -0.1697  0.2499 -0.4808
   33CHL1   C19 2408   5.212   1.827   4.689 -0.1507  0.3502  0.2056
   33CHL1  H19A 2409   5.242   1.856   4.586  1.3969 -0.9022  0.2724
   33CHL1  H19B 2410   5.162   1.728   4.691  3.4249 -1.6382 -0.7192
   33CHL1  H19C 2411   5.140   1.907   4.718 -2.3135 -1.3087 -0.3074
   33CHL1    C1 2412   5.423   1.945   4.779 -0.1961 -0.1292 -0.1151
   33CHL1   H1A 2413   5.354   2.029   4.802 -0.2992  0.1225 -1.2515
   33CHL1   H1B 2414   5.498   1.943   4.861 -0.4120  2.4129  0.2249
   33CHL1    C2 2415   5.482   1.982   4.645 -0.1784  0.0347 -0.7369
   33CHL1   H2A 2416   5.543   2.073   4.661  0.4620 -0.6176  0.6927
   33CHL1   H2B 2417   5.405   2.008   4.569 -1.6668  2.7668  1.4764
   33CHL1   C20 2418   4.980   1.736   5.379 -0.5227 -0.5985  0.1978
   33CHL1   H20 2419   4.951   1.840   5.352  0.5671 -0.0044  1.2254
   33CHL1   C21 2420   5.033   1.747   5.526  0.1950  0.3809  0.3739
   33CHL1  H21A 2421   4.977   1.821   5.587 -0.9006 -0.1545  0.0284
   33CHL1  H21B 2422   5.141   1.774   5.533  0.4785  0.0729 -1.9409
   33CHL1  H21C 2423   5.041   1.643   5.565  0.3213 -0.0002 -0.6331
   33CHL1   C22 2424   4.850   1.653   5.370 -0.1960 -0.4348 -0.3048
   33CHL1  H22A 2425   4.838   1.606   5.270 -1.4232 -1.2685  0.2240
   33CHL1  H22B 2426   4.859   1.563   5.435  2.9564 -0.4097 -0.5131
   33CHL1   C23 2427   4.722   1.724   5.416  0.5787 -0.3842 -0.1911
   33CHL1  H23A 2428   4.654   1.645   5.453  0.1326 -0.6057 -1.4308
   33CHL1  H23B 2429   4.753   1.797   5.494  0.7274  0.9390 -1.4605
   33CHL1   C24 2430   4.646   1.807   5.305  0.2156  0.9095 -0.0796
   33CHL1  H24A 2431   4.718   1.885   5.273  1.3012 -0.1262 -0.2475
   33CHL1  H24B 2432   4.627   1.759   5.207  3.1694  0.3323 -0.4486
   33CHL1   C25 2433   4.512   1.878   5.357  0.7614  1.2265  0.0671
   33CHL1   H25 2434   4.499   1.960   5.282 -0.5055  0.2574 -0.8090
   33CHL1   C26 2435   4.384   1.783   5.351 -0.7331  0.0726 -0.4756
   33CHL1  H26A 2436   4.396   1.715   5.264  1.1566 -0.0086 -0.1919
   33CHL1  H26B 2437   4.376   1.716   5.439 -0.4149 -1.7940 -1.7984
   33CHL1  H26C 2438   4.292   1.845   5.364 -1.3466 -0.7267 -0.8789
   33CHL1   C27 2439   4.527   1.949   5.486  0.3343  0.3593 -0.1074
   33CHL1  H27A 2440   4.431   2.004   5.497 -1.8881 -2.9326 -1.5142
   33CHL1  H27B 2441   4.536   1.888   5.579 -1.1693  3.0500  1.9753
   33CHL1  H27C 2442   4.608   2.025   5.480  0.0161  0.8404  1.3247
   34CHL1    C3 2443   3.546   1.690   4.446  0.2470 -0.8934  0.1420
   34CHL1    H3 2444   3.650   1.722   4.467  0.4059 -0.8229 -0.7312
   34CHL1    O3 2445   3.523   1.699   4.308 -0.1311 -0.1320 -0.2068
   34CHL1   H3' 2446   3.553   1.611   4.281 -0.3761 -0.3858  0.3313
   34CHL1    C4 2447   3.514   1.552   4.497  0.9966  0.1643  0.4878
   34CHL1   H4A 2448   3.419   1.522   4.448  1.0552  1.2257 -0.3060
   34CHL1   H4B 2449   3.592   1.487   4.452  1.6660  0.9228  0.5398
   34CHL1    C5 2450   3.505   1.530   4.646 -0.2498 -0.2413 -0.4242
   34CHL1    C6 2451   3.569   1.433   4.708 -0.7005  1.0147 -0.0693
   34CHL1    H6 2452   3.616   1.359   4.641 -2.3778 -0.9159  0.7755
   34CHL1    C7 2453   3.567   1.397   4.855  0.3446  0.5936 -0.3074
   34CHL1   H7A 2454   3.547   1.290   4.880  0.6858  0.8734  1.3161
   34CHL1   H7B 2455   3.665   1.422   4.903  0.2035 -1.1943  1.0493
   34CHL1    C8 2456   3.468   1.490   4.941 -0.0864  0.0138  0.5434
   34CHL1    H8 2457   3.365   1.452   4.924  0.6548 -2.3378  1.0634
   34CHL1   C14 2458   3.505   1.488   5.087 -0.2798  0.4088  0.0638
   34CHL1   H14 2459   3.611   1.523   5.086 -0.2551  0.5135  2.2730
   34CHL1   C15 2460   3.514   1.359   5.169  0.2479  1.2251 -0.4365
   34CHL1  H15A 2461   3.422   1.302   5.148  0.7392  0.8565 -1.6636
   34CHL1  H15B 2462   3.599   1.302   5.125 -0.8184 -0.3955 -0.4982
   34CHL1   C16 2463   3.527   1.402   5.311 -0.5203  0.5544 -0.3267
   34CHL1  H16A 2464   3.443   1.358   5.369  0.2482  0.3745  0.6706
   34CHL1  H16B 2465   3.624   1.368   5.353 -0.1082  1.0322 -0.8690
   34CHL1   C17 2466   3.511   1.559   5.314  0.2723 -0.3117  0.6111
   34CHL1   H17 2467   3.616   1.593   5.302  1.0297 -2.5178  0.4520
   34CHL1   C13 2468   3.439   1.595   5.180  0.1892 -0.0089  0.1998
   34CHL1   C18 2469   3.290   1.556   5.193 -0.3184 -0.2691 -0.7806
   34CHL1  H18A 2470   3.239   1.543   5.095  0.1162 -0.1387 -1.0266
   34CHL1  H18B 2471   3.285   1.460   5.249  1.5221 -0.1288 -0.3329
   34CHL1  H18C 2472   3.246   1.631   5.262  2.1835 -0.4989  1.2333
   34CHL1   C12 2473   3.450   1.736   5.125  0.1888 -0.0856 -0.1299
   34CHL1  H12A 2474   3.384   1.808   5.178 -0.7589 -1.9392  1.3079
   34CHL1  H12B 2475   3.553   1.775   5.139  0.9392 -2.8181  3.1208
   34CHL1   C11 2476   3.401   1.738   4.983 -0.1366 -0.1403 -0.1474
   34CHL1  H11A 2477   3.291   1.726   4.985 -0.3756  1.8352  1.7173
   34CHL1  H11B 2478   3.422   1.840   4.946 -0.6861 -0.1159 -0.3999
   34CHL1    C9 2479   3.484   1.639   4.887  0.6075  0.1286  0.5634
   34CHL1    H9 2480   3.590   1.672   4.887  0.0961  1.8786 -0.0617
   34CHL1   C10 2481   3.439   1.644   4.731 -0.0507  0.5050 -0.2891
   34CHL1   C19 2482   3.290   1.620   4.715 -0.4845 -0.5470 -0.4709
   34CHL1  H19A 2483   3.259   1.642   4.610  1.0122  0.2674 -0.7722
   34CHL1  H19B 2484   3.255   1.522   4.754 -1.0384  1.1789  3.8439
   34CHL1  H19C 2485   3.231   1.692   4.775 -2.0671 -0.9829 -1.4422
   34CHL1    C1 2486   3.472   1.785   4.667 -0.4046 -0.5966 -0.5604
   34CHL1   H1A 2487   3.399   1.861   4.702  1.1597  0.4792  0.5331
   34CHL1   H1B 2488   3.577   1.814   4.693 -0.7107  0.1719 -0.1311
   34CHL1    C2 2489   3.453   1.793   4.517 -0.0678  0.7793 -0.0782
   34CHL1   H2A 2490   3.470   1.889   4.465 -3.7612  0.0648 -3.0373
   34CHL1   H2B 2491   3.347   1.777   4.487  0.3208  0.2276 -1.1856
   34CHL1   C20 2492   3.463   1.615   5.445  0.3979  0.4509  0.5639
   34CHL1   H20 2493   3.353   1.609   5.455  0.3311  1.9589  0.9449
   34CHL1   C21 2494   3.497   1.765   5.453  0.4927 -0.5131 -1.1560
   34CHL1  H21A 2495   3.471   1.812   5.356 -3.2284  1.1888  0.4444
   34CHL1  H21B 2496   3.604   1.772   5.479  1.2663 -1.3555 -3.7766
   34CHL1  H21C 2497   3.447   1.824   5.533 -1.1874 -0.6696 -2.0296
   34CHL1   C22 2498   3.528   1.542   5.559  0.2756  0.7914  0.3379
   34CHL1  H22A 2499   3.538   1.432   5.546  2.2927  0.9339  0.3151
   34CHL1  H22B 2500   3.631   1.583   5.568  0.1844  0.7254  1.8586
   34CHL1   C23 2501   3.471   1.571   5.700 -0.1214  0.1001  0.0431
   34CHL1  H23A 2502   3.548   1.553   5.778  0.4324  0.1183 -0.4903
   34CHL1  H23B 2503   3.448   1.679   5.702  2.4446  0.7245 -0.0271
   34CHL1   C24 2504   3.349   1.493   5.741  0.2596  0.9995 -0.3425
   34CHL1  H24A 2505   3.276   1.476   5.659 -0.6551  1.0573  0.4493
   34CHL1  H24B 2506   3.375   1.395   5.785  1.7675  1.4710 -0.1220
   34CHL1   C25 2507   3.263   1.554   5.860 -0.5015  0.2858 -0.5736
   34CHL1   H25 2508   3.329   1.597   5.938  1.4014 -1.5889 -1.0822
   34CHL1   C26 2509   3.166   1.658   5.804 -0.5314 -0.1590 -0.3211
   34CHL1  H26A 2510   3.096   1.614   5.730 -0.7260 -1.7797  0.7836
   34CHL1  H26B 2511   3.113   1.706   5.889 -1.8449 -1.0548 -0.6092
   34CHL1  H26C 2512   3.222   1.733   5.744  2.1049 -2.9232 -1.5545
   34CHL1   C27 2513   3.195   1.455   5.949 -0.2415 -0.3512  0.4047
   34CHL1  H27A 2514   3.262   1.375   5.986 -1.6973 -1.1499  1.4170
   34CHL1  H27B 2515   3.151   1.508   6.037 -2.1510 -0.7458 -0.2626
   34CHL1  H27C 2516   3.108   1.411   5.895  1.2232 -4.1297  0.8670
   35CHL1    C3 2517   1.667   4.604   4.639 -0.8309 -0.3693 -0.0041
   35CHL1    H3 2518   1.588   4.526   4.631  1.3961 -2.6878 -1.1528
   35CHL1    O3 2519   1.705   4.661   4.515  0.0279 -0.1724 -0.3030
   35CHL1   H3' 2520   1.788   4.705   4.534 -0.8589  2.4207 -1.8900
   35CHL1    C4 2521   1.630   4.720   4.742 -0.3026  0.7809 -0.0264
   35CHL1   H4A 2522   1.718   4.788   4.745  1.6071 -1.5673  0.2623
   35CHL1   H4B 2523   1.540   4.768   4.697  0.3687  2.5441  0.4426
   35CHL1    C5 2524   1.595   4.666   4.878  0.0724  0.3568 -0.7478
   35CHL1    C6 2525   1.481   4.702   4.938  0.8606  0.0121 -0.3691
   35CHL1    H6 2526   1.400   4.759   4.891  1.4458 -0.5285 -2.0879
   35CHL1    C7 2527   1.446   4.665   5.083 -1.0549 -0.2972  0.0487
   35CHL1   H7A 2528   1.421   4.752   5.148  0.6232 -0.4962  1.0208
   35CHL1   H7B 2529   1.368   4.586   5.075  0.6133 -1.8551 -2.3013
   35CHL1    C8 2530   1.568   4.593   5.159  0.3128 -0.0728 -0.0809
   35CHL1    H8 2531   1.629   4.680   5.192 -1.0615  0.1175  2.1774
   35CHL1   C14 2532   1.523   4.516   5.284 -0.4902  0.4571  0.0043
   35CHL1   H14 2533   1.465   4.426   5.255  0.6271 -0.3180  0.1123
   35CHL1   C15 2534   1.429   4.579   5.387  0.4582 -0.2046 -0.0846
   35CHL1  H15A 2535   1.474   4.676   5.416 -0.3141 -0.4236  2.0669
   35CHL1  H15B 2536   1.326   4.594   5.349  1.0857 -0.0970 -1.7985
   35CHL1   C16 2537   1.449   4.490   5.508  0.5384  0.6439 -0.3636
   35CHL1  H16A 2538   1.473   4.555   5.595  0.9166 -1.6903  1.3834
   35CHL1  H16B 2539   1.363   4.425   5.533  0.7373  1.0143  1.4425
   35CHL1   C17 2540   1.561   4.394   5.484 -0.0700 -0.8710  0.0512
   35CHL1   H17 2541   1.513   4.302   5.445 -0.5806 -0.4162 -0.4317
   35CHL1   C13 2542   1.638   4.453   5.362 -0.3284 -0.2286  0.4675
   35CHL1   C18 2543   1.734   4.564   5.407  0.3048 -0.2432 -0.3511
   35CHL1  H18A 2544   1.778   4.622   5.323  2.4003 -1.5829 -0.2615
   35CHL1  H18B 2545   1.692   4.643   5.473 -0.8573 -1.0933 -0.0394
   35CHL1  H18C 2546   1.812   4.513   5.468 -1.8537 -4.3768 -0.7412
   35CHL1   C12 2547   1.708   4.348   5.268 -0.1863  0.7005 -0.3020
   35CHL1  H12A 2548   1.796   4.298   5.314 -0.0166 -0.4719 -1.8155
   35CHL1  H12B 2549   1.635   4.269   5.240 -0.2120  1.0779 -1.3185
   35CHL1   C11 2550   1.755   4.420   5.141 -0.5323  0.0321 -0.0875
   35CHL1  H11A 2551   1.843   4.482   5.167  0.4324 -1.7060  0.9673
   35CHL1  H11B 2552   1.784   4.330   5.083  0.4110  0.0042  0.4227
   35CHL1    C9 2553   1.642   4.496   5.074 -0.8871  0.4055 -0.0461
   35CHL1    H9 2554   1.565   4.432   5.025 -0.6780  0.8802 -1.0306
   35CHL1   C10 2555   1.704   4.577   4.947  0.4538  0.0672 -0.6437
   35CHL1   C19 2556   1.822   4.673   4.992  0.7513  0.4488  0.2083
   35CHL1  H19A 2557   1.837   4.736   4.901 -1.3064  1.0000  0.2103
   35CHL1  H19B 2558   1.793   4.741   5.075 -0.0409  1.2606 -0.6989
   35CHL1  H19C 2559   1.924   4.634   5.012  0.6119  1.6183  3.9397
   35CHL1    C1 2560   1.751   4.470   4.842  0.0720  0.0272 -0.8162
   35CHL1   H1A 2561   1.841   4.423   4.886 -1.0768 -1.0257  0.5165
   35CHL1   H1B 2562   1.674   4.391   4.832  0.6236 -0.9824  2.1830
   35CHL1    C2 2563   1.782   4.531   4.704  0.0315 -0.2546  0.3832
   35CHL1   H2A 2564   1.809   4.451   4.631  2.2827  1.9525 -1.3726
   35CHL1   H2B 2565   1.874   4.591   4.714  0.4339 -0.3355 -2.1710
   35CHL1   C20 2566   1.637   4.352   5.610  0.8407 -0.1125 -0.3879
   35CHL1   H20 2567   1.686   4.437   5.661 -1.7397  1.1404  0.1714
   35CHL1   C21 2568   1.740   4.241   5.582  0.0365  0.5316 -0.1822
   35CHL1  H21A 2569   1.696   4.174   5.505 -0.6261  2.8607 -1.9645
   35CHL1  H21B 2570   1.754   4.184   5.676 -0.3341 -1.1083 -1.0842
   35CHL1  H21C 2571   1.839   4.277   5.545  0.5146  0.2312  0.7890
   35CHL1   C22 2572   1.527   4.299   5.714 -0.0979 -0.5920  0.0858
   35CHL1  H22A 2573   1.580   4.300   5.812  2.0342  0.4863 -0.9989
   35CHL1  H22B 2574   1.444   4.373   5.716  0.3960  0.0721 -1.8105
   35CHL1   C23 2575   1.466   4.161   5.694 -0.6500 -0.2399  0.1720
   35CHL1  H23A 2576   1.424   4.150   5.592 -0.1178 -0.8649  0.0171
   35CHL1  H23B 2577   1.539   4.079   5.679 -0.0857  0.8168 -4.2893
   35CHL1   C24 2578   1.358   4.141   5.796  0.2944  0.7961 -0.6310
   35CHL1  H24A 2579   1.403   4.157   5.896 -0.7852 -0.9130  0.1624
   35CHL1  H24B 2580   1.277   4.216   5.790 -0.2508  0.7336  3.4982
   35CHL1   C25 2581   1.294   4.009   5.787  1.0909  0.8343 -0.1299
   35CHL1   H25 2582   1.372   3.930   5.788 -0.6053 -0.8911  0.3099
   35CHL1   C26 2583   1.201   3.987   5.907 -0.3382  0.5388  0.1809
   35CHL1  H26A 2584   1.260   3.992   6.001 -1.7355 -0.0104  1.1361
   35CHL1  H26B 2585   1.105   4.044   5.903 -0.7662 -0.1223  0.7365
   35CHL1  H26C 2586   1.180   3.878   5.899  2.3204 -0.0089 -0.1659
   35CHL1   C27 2587   1.200   3.987   5.664 -0.9161  0.7188 -0.2474
   35CHL1  H27A 2588   1.258   4.006   5.571  1.5097 -2.2378  0.4916
   35CHL1  H27B 2589   1.168   3.881   5.658 -0.9575  0.7768 -1.2287
   35CHL1  H27C 2590   1.116   4.058   5.677 -0.7999  0.6509  1.0322
   36CHL1    C3 2591   2.481   0.042   4.511  0.7702 -1.0490  0.2784
   36CHL1    H3 2592   2.391   0.061   4.573  2.3423  1.4854  1.9994
   36CHL1    O3 2593   2.450   0.057   4.367 -0.0991 -0.1123  0.3303
   36CHL1   H3' 2594   2.364   0.017   4.351  0.4721 -1.1344 -0.3708
   36CHL1    C4 2595   2.585   0.146   4.541  0.5539  0.6378  0.1229
   36CHL1   H4A 2596   2.672   0.136   4.472  0.7648 -1.1042  0.5954
   36CHL1   H4B 2597   2.543   0.248   4.530  0.2931  0.4027 -1.3772
   36CHL1    C5 2598   2.641   0.129   4.678 -0.3142 -0.2458 -0.4079
   36CHL1    C6 2599   2.657   0.235   4.758  0.3111  0.4406  0.4888
   36CHL1    H6 2600   2.611   0.327   4.720  0.3505  0.2709  0.0276
   36CHL1    C7 2601   2.722   0.238   4.897 -0.5587 -0.3463  0.3930
   36CHL1   H7A 2602   2.808   0.307   4.883 -1.4157  0.7586  0.4138
   36CHL1   H7B 2603   2.649   0.271   4.974  2.4302  3.1566  2.0036
   36CHL1    C8 2604   2.785   0.103   4.935 -0.3755  0.4488  0.4164
   36CHL1    H8 2605   2.882   0.109   4.882  0.0474  0.9010  1.2241
   36CHL1   C14 2606   2.795   0.090   5.087  0.1553 -0.1473  0.2252
   36CHL1   H14 2607   2.690   0.101   5.122  0.7594  0.3501  2.0073
   36CHL1   C15 2608   2.866   0.204   5.167  0.0986  0.4522 -0.0163
   36CHL1  H15A 2609   2.962   0.241   5.124  1.1595 -0.4103  1.4772
   36CHL1  H15B 2610   2.795   0.289   5.169 -0.1120  0.2907 -0.4134
   36CHL1   C16 2611   2.892   0.150   5.304  0.3302 -0.5281  0.4086
   36CHL1  H16A 2612   3.000   0.155   5.331  0.0119 -1.7812  2.1439
   36CHL1  H16B 2613   2.823   0.193   5.380 -0.0097  0.3416 -0.3752
   36CHL1   C17 2614   2.853  -0.004   5.291  0.6307  0.5248 -0.9002
   36CHL1   H17 2615   2.755  -0.028   5.336  1.2801 -0.7381 -0.1006
   36CHL1   C13 2616   2.847  -0.038   5.141  0.2360  0.2718  0.7770
   36CHL1   C18 2617   2.994  -0.060   5.082  0.0938  0.2119  0.1709
   36CHL1  H18A 2618   3.077   0.009   5.108  0.8008 -0.4094 -0.3819
   36CHL1  H18B 2619   3.024  -0.167   5.086 -5.6157 -1.7899 -0.5914
   36CHL1  H18C 2620   2.989  -0.053   4.971 -2.0776  4.0191  0.3499
   36CHL1   C12 2621   2.760  -0.158   5.085 -0.6350  0.3227 -0.0925
   36CHL1  H12A 2622   2.806  -0.254   5.115 -0.3238 -0.4091 -2.6409
   36CHL1  H12B 2623   2.663  -0.157   5.139  0.8858  1.2749  2.8240
   36CHL1   C11 2624   2.746  -0.154   4.938 -0.5522 -0.0021 -0.0023
   36CHL1  H11A 2625   2.842  -0.180   4.887  0.1154  3.0502 -0.5360
   36CHL1  H11B 2626   2.671  -0.231   4.910  0.2521 -0.7066 -0.2684
   36CHL1    C9 2627   2.703  -0.014   4.882 -0.4021  0.3228  0.4300
   36CHL1    H9 2628   2.605   0.008   4.930 -0.0503  0.2638  1.1953
   36CHL1   C10 2629   2.690  -0.008   4.728  0.0731  0.5322  0.1261
   36CHL1   C19 2630   2.827  -0.034   4.665 -0.4004 -0.7258  0.9860
   36CHL1  H19A 2631   2.906   0.030   4.709 -2.1901  1.4102  1.2639
   36CHL1  H19B 2632   2.846  -0.144   4.664 -0.1762 -0.6828 -0.4649
   36CHL1  H19C 2633   2.828  -0.013   4.556  0.9277 -3.1532  0.4580
   36CHL1    C1 2634   2.578  -0.109   4.678 -0.3835  0.2300  0.3893
   36CHL1   H1A 2635   2.608  -0.216   4.686 -1.3880 -0.0306  0.8091
   36CHL1   H1B 2636   2.487  -0.086   4.738  0.5922  0.3972  1.8334
   36CHL1    C2 2637   2.530  -0.098   4.533  0.5717  0.0339  0.3359
   36CHL1   H2A 2638   2.454  -0.176   4.511 -1.7737  2.2224  0.2478
   36CHL1   H2B 2639   2.621  -0.119   4.473 -0.1699 -2.0617 -0.1344
   36CHL1   C20 2640   2.951  -0.098   5.370  0.0509  0.3179  0.3844
   36CHL1   H20 2641   3.056  -0.080   5.337 -0.4282  0.1512 -1.3264
   36CHL1   C21 2642   2.929  -0.250   5.344 -0.4974 -0.4597 -0.2476
   36CHL1  H21A 2643   2.952  -0.276   5.238  1.3338  0.8632 -0.2320
   36CHL1  H21B 2644   2.826  -0.280   5.370 -1.0100  0.4816 -1.1083
   36CHL1  H21C 2645   3.000  -0.312   5.403  1.2492 -0.2548 -2.0268
   36CHL1   C22 2646   2.958  -0.065   5.521 -0.8180  0.3622 -0.8043
   36CHL1  H22A 2647   2.941   0.043   5.541  3.3202  1.2975 -1.2923
   36CHL1  H22B 2648   2.872  -0.113   5.571 -1.0234  0.0324 -1.4607
   36CHL1   C23 2649   3.088  -0.114   5.586  0.8559 -0.2625  0.3575
   36CHL1  H23A 2650   3.084  -0.224   5.570 -2.5163 -0.0577 -1.1280
   36CHL1  H23B 2651   3.172  -0.068   5.530 -1.9409 -0.9060 -5.0915
   36CHL1   C24 2652   3.114  -0.080   5.733  0.0501  0.3181  0.2242
   36CHL1  H24A 2653   3.115   0.028   5.759  2.5392  0.6278 -0.8675
   36CHL1  H24B 2654   3.038  -0.131   5.796 -0.6254 -0.5707 -1.2347
   36CHL1   C25 2655   3.256  -0.132   5.774 -0.1116 -0.5826 -0.6463
   36CHL1   H25 2656   3.321  -0.097   5.691 -0.0519 -1.0628 -0.8021
   36CHL1   C26 2657   3.304  -0.082   5.911  0.2528  0.5038 -0.5626
   36CHL1  H26A 2658   3.231  -0.109   5.990  0.0550  1.0638 -0.5449
   36CHL1  H26B 2659   3.397  -0.138   5.930 -1.6238 -2.2552  1.2679
   36CHL1  H26C 2660   3.312   0.029   5.921  0.7260  0.5441 -1.3104
   36CHL1   C27 2661   3.249  -0.282   5.780  0.1295 -0.3839  0.4215
   36CHL1  H27A 2662   3.168  -0.304   5.853  0.7108  2.4714  2.0643
   36CHL1  H27B 2663   3.234  -0.315   5.675 -2.9453  1.2769  0.1992
   36CHL1  H27C 2664   3.331  -0.348   5.814 -0.6959 -2.0967 -0.7355
   37CHL1    C3 2665   5.773   3.986   4.300  0.0144  0.0673 -0.2981
   37CHL1    H3 2666   5.754   4.093   4.323 -1.5756  0.2411 -2.1757
   37CHL1    O3 2667   5.776   3.975   4.157 -0.1997 -0.3898  0.5516
   37CHL1   H3' 2668   5.800   3.887   4.125 -2.4244  0.1330 -3.2310
   37CHL1    C4 2669   5.899   3.928   4.360  0.2193  0.1101  0.5416
   37CHL1   H4A 2670   5.906   3.825   4.319 -0.1496  0.5364 -0.6417
   37CHL1   H4B 2671   5.987   3.984   4.323  1.2271 -1.6837  0.1039
   37CHL1    C5 2672   5.883   3.924   4.509  0.0358 -0.2009 -0.5359
   37CHL1    C6 2673   5.985   3.967   4.585  0.2404 -0.3546  0.1174
   37CHL1    H6 2674   6.073   4.013   4.538  1.1643 -1.8856  0.2877
   37CHL1    C7 2675   5.978   3.970   4.734 -0.3500 -0.4427  0.6104
   37CHL1   H7A 2676   6.073   3.925   4.769  2.5550  2.5507 -2.6406
   37CHL1   H7B 2677   5.977   4.073   4.776 -0.5599 -0.4226  0.5591
   37CHL1    C8 2678   5.858   3.886   4.793 -0.2367  0.6741  0.1448
   37CHL1    H8 2679   5.891   3.781   4.779  1.1116  1.1056  0.0248
   37CHL1   C14 2680   5.844   3.928   4.942 -0.5908  0.5238 -0.0183
   37CHL1   H14 2681   5.826   4.038   4.940  0.9733  0.8006  0.0259
   37CHL1   C15 2682   5.973   3.910   5.024  0.7057 -0.3813 -0.0146
   37CHL1  H15A 2683   6.013   3.807   5.007  2.6577  0.4956 -0.9986
   37CHL1  H15B 2684   6.048   3.988   5.000  1.6488 -1.4597 -0.7169
   37CHL1   C16 2685   5.909   3.907   5.168 -0.3384 -0.2731  0.6700
   37CHL1  H16A 2686   5.940   3.812   5.215  0.5914 -0.8271 -0.9903
   37CHL1  H16B 2687   5.953   3.995   5.221 -1.2486 -0.0552  1.0767
   37CHL1   C17 2688   5.759   3.913   5.160  0.4840  0.0241 -0.1726
   37CHL1   H17 2689   5.720   4.016   5.166  0.9909  0.2420 -0.5039
   37CHL1   C13 2690   5.735   3.858   5.014 -0.5082 -0.0067  0.4009
   37CHL1   C18 2691   5.763   3.704   5.007 -0.3710  0.4903  0.0291
   37CHL1  H18A 2692   5.850   3.666   5.065 -1.3086 -0.7813  0.6652
   37CHL1  H18B 2693   5.684   3.650   5.064 -0.0468  2.4842  2.5489
   37CHL1  H18C 2694   5.759   3.667   4.903  0.1414  1.3199 -0.2964
   37CHL1   C12 2695   5.605   3.892   4.936 -0.2392 -1.1662  0.5737
   37CHL1  H12A 2696   5.523   3.840   4.991 -1.1581 -1.4001 -0.9477
   37CHL1  H12B 2697   5.582   4.000   4.938 -2.6402 -1.4275 -2.9669
   37CHL1   C11 2698   5.601   3.859   4.790 -0.4053 -0.5772  0.0115
   37CHL1  H11A 2699   5.578   3.750   4.785  0.1538 -0.6323 -2.2170
   37CHL1  H11B 2700   5.520   3.926   4.754  2.7202  2.5748 -1.8437
   37CHL1    C9 2701   5.732   3.911   4.718  0.5876 -0.6820  0.2348
   37CHL1    H9 2702   5.718   4.021   4.720  0.7077 -0.6587 -0.1786
   37CHL1   C10 2703   5.740   3.874   4.570 -0.0690 -0.2792  0.8656
   37CHL1   C19 2704   5.752   3.717   4.549  0.1266 -0.0363 -0.0993
   37CHL1  H19A 2705   5.834   3.661   4.600  0.3925 -0.2583 -0.7496
   37CHL1  H19B 2706   5.659   3.673   4.591  0.8830 -0.6017  1.0409
   37CHL1  H19C 2707   5.766   3.696   4.441 -0.8561 -0.9521 -0.0631
   37CHL1    C1 2708   5.627   3.936   4.490  0.0228  0.9494  0.0921
   37CHL1   H1A 2709   5.532   3.886   4.519 -0.5261  0.3269 -2.4940
   37CHL1   H1B 2710   5.613   4.044   4.513 -0.0561  0.6970  1.2722
   37CHL1    C2 2711   5.650   3.915   4.339  0.2191 -0.3304 -0.4524
   37CHL1   H2A 2712   5.571   3.971   4.285  0.1520  0.9320  0.8739
   37CHL1   H2B 2713   5.653   3.805   4.325  0.5695 -0.5683  1.2628
   37CHL1   C20 2714   5.693   3.838   5.273  0.8185  0.6534 -0.6330
   37CHL1   H20 2715   5.701   3.730   5.248  0.3364  0.9548 -2.1263
   37CHL1   C21 2716   5.542   3.877   5.285  0.0335  0.2136  0.4945
   37CHL1  H21A 2717   5.489   3.875   5.187 -0.0406  0.2826  0.5327
   37CHL1  H21B 2718   5.540   3.987   5.303 -0.4002  0.1883  0.6154
   37CHL1  H21C 2719   5.479   3.820   5.356  1.2018 -0.9830  0.5908
   37CHL1   C22 2720   5.758   3.870   5.404 -0.4627  0.0306  0.2282
   37CHL1  H22A 2721   5.868   3.862   5.421 -0.2460  3.3212  1.1923
   37CHL1  H22B 2722   5.746   3.979   5.424 -2.0067  0.0560 -0.6747
   37CHL1   C23 2723   5.700   3.788   5.518  0.5296 -0.8909 -0.1432
   37CHL1  H23A 2724   5.606   3.840   5.546 -0.4235 -2.3067 -0.5576
   37CHL1  H23B 2725   5.673   3.684   5.488 -3.4645 -0.0339 -0.1824
   37CHL1   C24 2726   5.784   3.788   5.646 -0.7383 -0.0708  0.2550
   37CHL1  H24A 2727   5.858   3.708   5.629 -0.4532 -0.1514  1.7252
   37CHL1  H24B 2728   5.834   3.887   5.649  0.3742 -0.5616 -0.9654
   37CHL1   C25 2729   5.703   3.747   5.766  0.8684  0.2560  0.4948
   37CHL1   H25 2730   5.616   3.682   5.740  0.5357  1.3612 -1.3091
   37CHL1   C26 2731   5.788   3.660   5.861 -0.1434 -0.2419  0.6802
   37CHL1  H26A 2732   5.727   3.618   5.944  0.4851  0.5511  1.5593
   37CHL1  H26B 2733   5.833   3.570   5.813 -1.2031 -0.3977 -0.0498
   37CHL1  H26C 2734   5.877   3.715   5.899  0.4428 -1.5763  1.3103
   37CHL1   C27 2735   5.639   3.871   5.831 -0.2388  0.0598 -0.3668
   37CHL1  H27A 2736   5.716   3.917   5.896 -2.6762  2.7541  0.7962
   37CHL1  H27B 2737   5.591   3.947   5.766 -0.2677  0.4646  0.1281
   37CHL1  H27C 2738   5.559   3.836   5.900 -0.8568  1.3338 -0.4109
   38CHL1    C3 2739   1.983   3.749   4.679 -0.2206  0.3321 -0.5731
   38CHL1    H3 2740   1.891   3.812   4.684 -0.5717 -0.1536 -0.7720
   38CHL1    O3 2741   2.024   3.739   4.543  1.0008  0.6220  0.1988
   38CHL1   H3' 2742   2.109   3.694   4.545  0.5482 -0.2520  2.5279
   38CHL1    C4 2743   2.102   3.821   4.748  0.1089  0.2344 -0.6873
   38CHL1   H4A 2744   2.198   3.766   4.733  1.1258  1.4159  1.1221
   38CHL1   H4B 2745   2.115   3.917   4.694  1.2174  0.9409  0.7686
   38CHL1    C5 2746   2.076   3.834   4.898  0.3730 -0.0933  0.0722
   38CHL1    C6 2747   2.078   3.948   4.967 -0.7239 -0.2865  0.5488
   38CHL1    H6 2748   2.103   4.044   4.921  2.2193 -0.4286  1.6256
   38CHL1    C7 2749   2.058   3.952   5.118  0.5809 -0.0553 -0.0916
   38CHL1   H7A 2750   2.117   4.038   5.157 -1.2081  1.4390 -0.4898
   38CHL1   H7B 2751   1.950   3.975   5.137  0.6828  0.5694 -0.2473
   38CHL1    C8 2752   2.106   3.825   5.184 -0.4493  0.0323 -0.1066
   38CHL1    H8 2753   2.216   3.818   5.169 -0.4176  0.8952 -0.3163
   38CHL1   C14 2754   2.060   3.830   5.330 -0.3532  0.2510 -0.3662
   38CHL1   H14 2755   1.949   3.840   5.328 -0.3047  1.2605  0.7989
   38CHL1   C15 2756   2.119   3.946   5.416  0.9615  0.1894 -0.4226
   38CHL1  H15A 2757   2.229   3.963   5.410  0.9630  0.0611 -0.7507
   38CHL1  H15B 2758   2.064   4.039   5.394  1.0626  1.0376  2.4990
   38CHL1   C16 2759   2.085   3.888   5.562 -0.3056  1.1689 -0.2606
   38CHL1  H16A 2760   2.168   3.912   5.631 -0.1336 -1.8930  0.7305
   38CHL1  H16B 2761   2.002   3.950   5.602 -1.7084 -1.2669  0.7810
   38CHL1   C17 2762   2.051   3.740   5.551  0.4926 -0.3111 -0.5721
   38CHL1   H17 2763   1.940   3.732   5.554  0.5918 -1.6367  1.5686
   38CHL1   C13 2764   2.091   3.698   5.408 -0.1283 -0.0937  0.0396
   38CHL1   C18 2765   2.243   3.667   5.401 -0.6263 -0.2691 -0.6277
   38CHL1  H18A 2766   2.280   3.588   5.470  1.1339  1.5397  0.5926
   38CHL1  H18B 2767   2.281   3.629   5.304 -0.6178 -0.9820 -0.3530
   38CHL1  H18C 2768   2.305   3.755   5.430 -2.1041  1.0891 -1.4306
   38CHL1   C12 2769   2.010   3.579   5.351  0.3696  0.5306  0.3752
   38CHL1  H12A 2770   2.036   3.481   5.396 -0.7887  0.4578  0.9463
   38CHL1  H12B 2771   1.902   3.596   5.372 -0.3088 -1.1483 -1.4659
   38CHL1   C11 2772   2.038   3.566   5.199 -0.3807 -0.9536 -0.1716
   38CHL1  H11A 2773   2.140   3.525   5.205  0.5616  1.1288 -0.9415
   38CHL1  H11B 2774   1.977   3.480   5.164 -1.4105 -1.3171  2.2873
   38CHL1    C9 2775   2.034   3.703   5.118  1.0793 -0.4108  0.0158
   38CHL1    H9 2776   1.926   3.730   5.122  0.9041 -0.9353 -0.8264
   38CHL1   C10 2777   2.057   3.697   4.966  0.8006  0.0499  0.1989
   38CHL1   C19 2778   2.193   3.624   4.964  0.2246 -0.6225 -0.5294
   38CHL1  H19A 2779   2.216   3.611   4.856 -0.1858  1.2151 -0.8703
   38CHL1  H19B 2780   2.274   3.673   5.021  0.4634 -0.6267 -0.8666
   38CHL1  H19C 2781   2.178   3.522   5.007  1.7573  0.4085  2.7348
   38CHL1    C1 2782   1.951   3.615   4.897  0.0171 -1.0202 -0.8204
   38CHL1   H1A 2783   1.957   3.509   4.931 -0.4703 -0.8600 -0.2250
   38CHL1   H1B 2784   1.859   3.670   4.926  2.2951  1.6237  2.0453
   38CHL1    C2 2785   1.959   3.612   4.744 -0.1548  0.0311  0.1903
   38CHL1   H2A 2786   1.870   3.570   4.692  0.7626  1.8946 -3.1633
   38CHL1   H2B 2787   2.043   3.542   4.723 -1.6919 -1.1012 -2.9443
   38CHL1   C20 2788   2.099   3.660   5.674  0.1589  0.1356 -0.5921
   38CHL1   H20 2789   2.209   3.674   5.685  0.3523  0.6999 -2.7831
   38CHL1   C21 2790   2.075   3.512   5.677 -0.8338  0.1842  0.1076
   38CHL1  H21A 2791   2.113   3.458   5.587  0.4233 -1.2454  1.4521
   38CHL1  H21B 2792   1.966   3.495   5.690 -0.8296  1.0248  1.3613
   38CHL1  H21C 2793   2.124   3.453   5.757  2.1075  0.5640 -1.2715
   38CHL1   C22 2794   2.046   3.717   5.802  0.3176  0.2295 -0.6975
   38CHL1  H22A 2795   2.074   3.824   5.805 -1.1737  0.6556  1.9572
   38CHL1  H22B 2796   1.936   3.707   5.819  0.6463  0.2999  1.9747
   38CHL1   C23 2797   2.117   3.665   5.930  0.2667  0.2433  0.5585
   38CHL1  H23A 2798   2.076   3.564   5.953  1.6044 -0.4913 -0.1334
   38CHL1  H23B 2799   2.227   3.663   5.913  0.3487  3.9893 -0.2497
   38CHL1   C24 2800   2.100   3.749   6.060 -0.1956  0.3725  0.3805
   38CHL1  H24A 2801   2.138   3.853   6.048 -0.3460  0.9623  3.7961
   38CHL1  H24B 2802   1.993   3.776   6.063  0.0560  2.0237 -2.4450
   38CHL1   C25 2803   2.155   3.683   6.194  0.0215  0.3569 -0.2110
   38CHL1   H25 2804   2.124   3.577   6.189  0.9743  0.0420  0.3181
   38CHL1   C26 2805   2.306   3.675   6.171 -0.7735 -0.0029  0.5526
   38CHL1  H26A 2806   2.350   3.776   6.162 -1.2705  0.1215 -0.6630
   38CHL1  H26B 2807   2.357   3.619   6.253  1.4322 -0.7686 -1.2404
   38CHL1  H26C 2808   2.336   3.614   6.083 -2.5019 -1.6561  1.0401
   38CHL1   C27 2809   2.120   3.758   6.325  0.3768  0.2300 -0.3550
   38CHL1  H27A 2810   2.145   3.866   6.323 -0.6847  0.5305  0.8880
   38CHL1  H27B 2811   2.009   3.749   6.338  0.4631 -0.4990 -0.0787
   38CHL1  H27C 2812   2.170   3.720   6.417 -0.0886  1.2050  0.3229
   39CHL1    C3 2813   1.007   3.186   4.687  0.3913 -0.1624 -0.2192
   39CHL1    H3 2814   0.899   3.163   4.694  0.5743 -1.4869 -1.4440
   39CHL1    O3 2815   1.027   3.244   4.562  0.7641  0.2559  0.3543
   39CHL1   H3' 2816   1.046   3.175   4.498  0.1754  3.2977 -3.4549
   39CHL1    C4 2817   1.039   3.291   4.794  0.0622  0.6135  0.1576
   39CHL1   H4A 2818   1.142   3.330   4.785  0.5962 -0.1010  2.5478
   39CHL1   H4B 2819   0.960   3.369   4.793 -0.1273  0.5365  2.5931
   39CHL1    C5 2820   1.015   3.219   4.924  0.3172  0.3650  0.7163
   39CHL1    C6 2821   0.919   3.267   5.007  0.1658  0.2489 -0.0477
   39CHL1    H6 2822   0.864   3.358   4.980  0.6921  1.4996  2.6985
   39CHL1    C7 2823   0.905   3.216   5.147 -0.5188  0.2611 -0.5632
   39CHL1   H7A 2824   0.863   3.292   5.216 -1.5810  2.5711 -3.5990
   39CHL1   H7B 2825   0.823   3.141   5.141 -1.1092  0.9030 -0.6405
   39CHL1    C8 2826   1.039   3.149   5.192 -0.0046 -0.2400 -0.2931
   39CHL1    H8 2827   1.119   3.224   5.207 -0.4636 -0.0088  1.2830
   39CHL1   C14 2828   1.015   3.087   5.326  0.0522  0.5476  0.2022
   39CHL1   H14 2829   0.933   3.015   5.306  0.3051  0.5313 -0.8156
   39CHL1   C15 2830   0.958   3.183   5.441  0.0417  0.7084  0.0471
   39CHL1  H15A 2831   1.024   3.271   5.451 -0.0799  0.7886  0.1445
   39CHL1  H15B 2832   0.854   3.217   5.421  0.0653 -0.1481 -1.7449
   39CHL1   C16 2833   0.975   3.103   5.578  0.9134  0.0931 -0.2217
   39CHL1  H16A 2834   1.026   3.170   5.650 -0.4208 -0.0897  0.9353
   39CHL1  H16B 2835   0.877   3.067   5.615  0.3720 -0.1029 -1.7638
   39CHL1   C17 2836   1.062   2.975   5.536  0.5907  0.2537  0.2963
   39CHL1   H17 2837   0.991   2.895   5.507  0.9787  0.7382 -2.1849
   39CHL1   C13 2838   1.128   3.014   5.397 -0.1034  0.0047  0.1214
   39CHL1   C18 2839   1.246   3.110   5.427 -0.1085 -0.4273  0.5069
   39CHL1  H18A 2840   1.288   3.140   5.328  0.7585 -0.8029  0.7617
   39CHL1  H18B 2841   1.212   3.203   5.478 -0.9212 -0.7140  0.5096
   39CHL1  H18C 2842   1.329   3.060   5.480  2.2877  1.0295 -1.6339
   39CHL1   C12 2843   1.172   2.898   5.299 -0.5799 -0.4528  0.5535
   39CHL1  H12A 2844   1.268   2.860   5.340 -1.0050 -2.0639  0.1391
   39CHL1  H12B 2845   1.100   2.813   5.290 -0.1430 -0.6329 -1.9225
   39CHL1   C11 2846   1.199   2.948   5.154  0.0619  0.3567 -0.7959
   39CHL1  H11A 2847   1.300   2.994   5.159 -0.0074  0.3252  2.2860
   39CHL1  H11B 2848   1.204   2.855   5.093  0.9960 -0.8117  0.9841
   39CHL1    C9 2849   1.087   3.040   5.100 -0.0390  0.2738  0.1148
   39CHL1    H9 2850   0.999   2.973   5.091  0.7086 -1.0987  2.0831
   39CHL1   C10 2851   1.110   3.103   4.957 -0.2223 -0.7076 -0.0332
   39CHL1   C19 2852   1.253   3.153   4.943  0.5336  0.5227 -0.4606
   39CHL1  H19A 2853   1.290   3.189   4.845  1.1884 -1.3679 -0.9509
   39CHL1  H19B 2854   1.271   3.242   5.007  3.8667  0.2721 -0.8748
   39CHL1  H19C 2855   1.322   3.071   4.973  0.1001  0.2718 -0.1473
   39CHL1    C1 2856   1.092   2.996   4.844 -0.4345 -0.9566  1.4452
   39CHL1   H1A 2857   1.169   2.916   4.853  1.5268  0.7597  0.7235
   39CHL1   H1B 2858   0.993   2.950   4.862 -0.8539 -0.9624 -0.5645
   39CHL1    C2 2859   1.095   3.055   4.699 -0.0614 -1.0905 -0.0092
   39CHL1   H2A 2860   1.059   2.986   4.620 -1.6581 -0.2531 -0.0559
   39CHL1   H2B 2861   1.201   3.076   4.672 -0.3070 -0.1535 -0.2500
   39CHL1   C20 2862   1.143   2.925   5.658  0.2561 -0.1486  0.3728
   39CHL1   H20 2863   1.219   2.999   5.692 -0.0018 -0.1242  0.9132
   39CHL1   C21 2864   1.230   2.811   5.599  0.2208  0.4966  0.9764
   39CHL1  H21A 2865   1.304   2.856   5.530 -0.3745  2.3988  1.5297
   39CHL1  H21B 2866   1.170   2.736   5.543  2.7904  1.0273 -2.9062
   39CHL1  H21C 2867   1.304   2.764   5.667  0.2917  0.6484  1.0033
   39CHL1   C22 2868   1.059   2.882   5.788  0.3106 -0.0449 -0.0960
   39CHL1  H22A 2869   0.987   2.806   5.749 -0.5842  0.0083  1.3846
   39CHL1  H22B 2870   1.121   2.834   5.867 -1.4332 -0.5513  1.0305
   39CHL1   C23 2871   0.987   2.992   5.871 -0.1049  0.3633 -0.0074
   39CHL1  H23A 2872   1.045   3.087   5.863 -1.1897  0.9068 -2.4873
   39CHL1  H23B 2873   0.889   3.010   5.822 -0.5867  0.2531  0.8915
   39CHL1   C24 2874   0.975   2.951   6.017 -0.6216 -0.0998 -0.2398
   39CHL1  H24A 2875   1.077   2.935   6.058 -1.2921 -1.9947  0.8375
   39CHL1  H24B 2876   0.942   3.043   6.069  1.5239 -0.3925  1.8082
   39CHL1   C25 2877   0.886   2.830   6.044 -0.0764 -0.0080  0.4373
   39CHL1   H25 2878   0.942   2.746   5.996 -0.0054 -0.1123  0.7007
   39CHL1   C26 2879   0.864   2.806   6.197  0.3306  1.0062  1.2737
   39CHL1  H26A 2880   0.964   2.810   6.245  2.1151  0.5403 -2.1562
   39CHL1  H26B 2881   0.794   2.883   6.237  0.6286  0.8329  2.1557
   39CHL1  H26C 2882   0.821   2.706   6.221 -2.7162  2.2713  1.5527
   39CHL1   C27 2883   0.747   2.828   5.970 -0.7785  0.4846 -0.3531
   39CHL1  H27A 2884   0.680   2.911   6.000  0.7590  1.3061  0.9608
   39CHL1  H27B 2885   0.767   2.841   5.861  0.5620  1.5138 -0.0080
   39CHL1  H27C 2886   0.694   2.732   5.988  0.1047  0.1416  0.4933
   40CHL1    C3 2887   6.016   5.179   4.736  0.1307  1.0149 -0.5725
   40CHL1    H3 2888   6.093   5.106   4.769 -0.0551 -0.2679 -2.7417
   40CHL1    O3 2889   6.021   5.159   4.597  0.3621  0.1554  0.0801
   40CHL1   H3' 2890   5.933   5.182   4.564  1.2243  2.5035 -0.7626
   40CHL1    C4 2891   5.880   5.133   4.790 -0.6627 -0.1735  0.0022
   40CHL1   H4A 2892   5.805   5.194   4.734 -1.0626  0.4661  1.1964
   40CHL1   H4B 2893   5.869   5.025   4.766 -1.6699 -0.0072 -0.3366
   40CHL1    C5 2894   5.868   5.165   4.937  0.0204 -0.2366  0.1675
   40CHL1    C6 2895   5.846   5.060   5.024  0.4175 -0.1317  0.5377
   40CHL1    H6 2896   5.805   4.969   4.977  1.2258  0.9459 -2.5288
   40CHL1    C7 2897   5.831   5.081   5.169 -0.0297 -0.0326 -0.2297
   40CHL1   H7A 2898   5.737   5.035   5.206 -0.6362  1.3665 -0.0007
   40CHL1   H7B 2899   5.921   5.037   5.217  0.2193  0.6695 -0.0511
   40CHL1    C8 2900   5.830   5.232   5.211  0.5064 -0.4486 -0.2061
   40CHL1    H8 2901   5.730   5.270   5.181  0.4070 -0.8471 -0.3793
   40CHL1   C14 2902   5.840   5.250   5.359 -0.1685  0.2827  0.7003
   40CHL1   H14 2903   5.939   5.204   5.378 -0.4031 -0.2950  0.5349
   40CHL1   C15 2904   5.749   5.173   5.460  0.9174 -0.1732  0.1177
   40CHL1  H15A 2905   5.642   5.190   5.438  1.0378  1.8766  0.8641
   40CHL1  H15B 2906   5.771   5.065   5.447  1.0334 -0.0246 -1.0479
   40CHL1   C16 2907   5.779   5.228   5.593 -1.3649 -0.0778  0.6572
   40CHL1  H16A 2908   5.689   5.265   5.648 -2.4941 -0.7958 -0.6476
   40CHL1  H16B 2909   5.837   5.155   5.653 -2.0469 -1.1687  0.0012
   40CHL1   C17 2910   5.871   5.350   5.564  0.1269  0.0585 -0.5728
   40CHL1   H17 2911   5.974   5.310   5.571 -0.4059 -1.5043 -1.3299
   40CHL1   C13 2912   5.851   5.390   5.421  0.4148  0.2747  0.0613
   40CHL1   C18 2913   5.718   5.480   5.400 -0.8580  0.3688  0.3297
   40CHL1  H18A 2914   5.736   5.579   5.448  0.1393  0.6383 -0.5581
   40CHL1  H18B 2915   5.690   5.473   5.293 -2.3637  0.8430  0.6597
   40CHL1  H18C 2916   5.631   5.433   5.451 -2.1095  0.9573 -1.2002
   40CHL1   C12 2917   5.972   5.452   5.349 -0.7545  0.3256  0.3082
   40CHL1  H12A 2918   5.986   5.554   5.391 -0.1720 -0.6748  2.7474
   40CHL1  H12B 2919   6.059   5.388   5.377  0.4704  2.0025  0.4785
   40CHL1   C11 2920   5.954   5.456   5.200 -1.0550 -0.1485  0.5218
   40CHL1  H11A 2921   5.868   5.526   5.185  0.2982  1.5527  0.3358
   40CHL1  H11B 2922   6.043   5.502   5.152 -1.8118  0.4060 -0.3795
   40CHL1    C9 2923   5.934   5.317   5.137 -0.4991 -0.5496  0.1857
   40CHL1    H9 2924   6.030   5.266   5.160  1.0711  1.9176 -0.5152
   40CHL1   C10 2925   5.915   5.308   4.982  0.4792  0.5086 -0.5714
   40CHL1   C19 2926   5.799   5.406   4.937 -0.1015 -0.3021  0.3560
   40CHL1  H19A 2927   5.705   5.395   4.995 -0.4976  1.7757  0.2046
   40CHL1  H19B 2928   5.824   5.513   4.954  1.7690 -1.0438  2.8760
   40CHL1  H19C 2929   5.784   5.397   4.827  2.3815 -1.2566  0.0322
   40CHL1    C1 2930   6.046   5.350   4.920 -0.1964  0.1427 -0.1279
   40CHL1   H1A 2931   6.068   5.456   4.946  1.5005  0.0517 -1.0274
   40CHL1   H1B 2932   6.134   5.298   4.962  0.5948  0.9568 -0.7346
   40CHL1    C2 2933   6.048   5.327   4.773  0.5637 -0.5830 -1.0459
   40CHL1   H2A 2934   6.147   5.336   4.723  0.6752 -1.9022 -1.1069
   40CHL1   H2B 2935   5.976   5.389   4.715 -2.4645  0.4195  3.2684
   40CHL1   C20 2936   5.864   5.457   5.675 -0.4804  0.2291 -0.0653
   40CHL1   H20 2937   5.760   5.491   5.695  0.1415  0.6243  3.1553
   40CHL1   C21 2938   5.956   5.576   5.645  0.1493  0.2063  0.3604
   40CHL1  H21A 2939   6.062   5.543   5.643  0.6589  1.7372  1.1109
   40CHL1  H21B 2940   5.949   5.643   5.733  0.7426 -2.6400  2.7391
   40CHL1  H21C 2941   5.939   5.633   5.551 -0.8364 -0.5261  0.0765
   40CHL1   C22 2942   5.898   5.396   5.814 -0.5434 -0.3058 -0.0606
   40CHL1  H22A 2943   5.824   5.315   5.830  0.6508 -1.5182 -0.4312
   40CHL1  H22B 2944   6.002   5.356   5.819 -0.0942  0.3038 -2.8558
   40CHL1   C23 2945   5.885   5.490   5.940 -1.3024  0.6450  0.0459
   40CHL1  H23A 2946   5.976   5.554   5.936 -0.7829  0.1184  2.1038
   40CHL1  H23B 2947   5.792   5.550   5.945  0.9177  4.3680  0.0139
   40CHL1   C24 2948   5.888   5.413   6.073 -0.0842 -0.2436 -0.4282
   40CHL1  H24A 2949   5.782   5.381   6.082 -0.7055  1.4140 -1.4123
   40CHL1  H24B 2950   5.936   5.313   6.070 -0.7193 -0.6274  0.9704
   40CHL1   C25 2951   5.929   5.504   6.190 -0.3733  0.1569  0.3900
   40CHL1   H25 2952   5.909   5.434   6.273 -0.9294 -1.4019 -1.0159
   40CHL1   C26 2953   6.080   5.546   6.195  0.8497  0.2040 -0.4248
   40CHL1  H26A 2954   6.108   5.617   6.275  0.4715 -0.8620  0.6831
   40CHL1  H26B 2955   6.145   5.457   6.214 -1.3338 -1.1967  0.8564
   40CHL1  H26C 2956   6.097   5.593   6.095 -2.3799  0.6070 -0.8900
   40CHL1   C27 2957   5.834   5.624   6.212 -0.0135  0.3327  0.5376
   40CHL1  H27A 2958   5.727   5.593   6.219 -0.5450  1.0180 -2.7577
   40CHL1  H27B 2959   5.861   5.670   6.310  2.4402  0.2637 -0.0471
   40CHL1  H27C 2960   5.844   5.701   6.133  1.1045  1.4273  1.6984
   41CHL1    C3 2961   5.545   0.026   7.468 -0.3452 -0.0263  0.4492
   41CHL1    H3 2962   5.644   0.028   7.417 -0.2081  0.6637  0.7308
   41CHL1    O3 2963   5.552   0.059   7.609 -0.2211  0.0417  0.1607
   41CHL1   H3' 2964   5.601  -0.006   7.660  1.0637  1.8327  1.3331
   41CHL1    C4 2965   5.450   0.126   7.391  0.2677 -0.8260 -0.3539
   41CHL1   H4A 2966   5.349   0.132   7.439  0.6488 -0.4163  0.4211
   41CHL1   H4B 2967   5.493   0.228   7.399  2.9323 -1.9903  1.5410
   41CHL1    C5 2968   5.422   0.088   7.249  0.6357 -0.2401 -0.4616
   41CHL1    C6 2969   5.436   0.174   7.149 -0.4264 -0.6446 -0.0559
   41CHL1    H6 2970   5.470   0.277   7.167  1.2655 -0.7762 -1.9887
   41CHL1    C7 2971   5.403   0.152   7.005 -0.1312  0.7867 -0.6290
   41CHL1   H7A 2972   5.348   0.243   6.974 -1.8026 -0.6027 -1.9459
   41CHL1   H7B 2973   5.497   0.136   6.947 -0.1393 -2.0351 -0.0487
   41CHL1    C8 2974   5.321   0.020   6.985 -0.1323 -0.3410 -0.5507
   41CHL1    H8 2975   5.214   0.044   7.002  0.2197  1.0283 -0.1638
   41CHL1   C14 2976   5.327  -0.028   6.838 -0.0620 -0.3862 -0.4108
   41CHL1   H14 2977   5.435  -0.049   6.833 -0.3521 -1.6926 -3.4863
   41CHL1   C15 2978   5.303   0.070   6.719 -0.0442 -0.0402 -0.0433
   41CHL1  H15A 2979   5.213   0.128   6.747  0.8717  0.9664  0.9379
   41CHL1  H15B 2980   5.387   0.143   6.714  0.2704 -0.4008 -0.0901
   41CHL1   C16 2981   5.272  -0.021   6.598  0.3438 -0.3217 -0.4342
   41CHL1  H16A 2982   5.166   0.005   6.578 -0.6135 -0.8673  3.1820
   41CHL1  H16B 2983   5.349   0.007   6.522 -0.8547  0.7222 -1.3247
   41CHL1   C17 2984   5.281  -0.168   6.657  0.3398  0.2090  0.0108
   41CHL1   H17 2985   5.389  -0.192   6.644  1.0940  2.7034  1.1260
   41CHL1   C13 2986   5.248  -0.159   6.807 -1.4471 -0.2258 -0.0540
   41CHL1   C18 2987   5.095  -0.139   6.828 -0.0309  0.1944 -0.5688
   41CHL1  H18A 2988   5.071  -0.103   6.931  1.7513 -1.2850  0.4326
   41CHL1  H18B 2989   5.051  -0.069   6.754  0.3166  1.1844  0.1389
   41CHL1  H18C 2990   5.046  -0.236   6.803  0.5364 -0.7963  1.8426
   41CHL1   C12 2991   5.314  -0.265   6.897 -0.1244 -0.6737 -0.2614
   41CHL1  H12A 2992   5.259  -0.358   6.871 -3.0325  0.5541  1.1023
   41CHL1  H12B 2993   5.424  -0.270   6.877  0.2975  2.6448  0.6038
   41CHL1   C11 2994   5.297  -0.229   7.045  0.0807  0.2660  0.8549
   41CHL1  H11A 2995   5.190  -0.221   7.073  0.2738  2.3507  1.1243
   41CHL1  H11B 2996   5.339  -0.314   7.103 -0.9368  0.1744  1.4791
   41CHL1    C9 2997   5.367  -0.098   7.076  0.4535 -0.5794 -0.0299
   41CHL1    H9 2998   5.476  -0.110   7.061  0.7427 -1.3565  2.3076
   41CHL1   C10 2999   5.370  -0.053   7.228 -0.6664 -0.0994 -0.0301
   41CHL1   C19 3000   5.220  -0.057   7.274 -0.0991 -0.5729  0.3139
   41CHL1  H19A 3001   5.184  -0.161   7.285  0.0087 -0.6078  0.3353
   41CHL1  H19B 3002   5.210   0.004   7.367  2.8650  0.6514 -0.0539
   41CHL1  H19C 3003   5.149  -0.016   7.199 -1.3927 -2.1524  0.6073
   41CHL1    C1 3004   5.464  -0.154   7.307  0.6108 -1.2343 -0.5728
   41CHL1   H1A 3005   5.410  -0.250   7.320 -2.7256  0.6674  0.9622
   41CHL1   H1B 3006   5.556  -0.165   7.246  2.3084 -0.3310  1.7175
   41CHL1    C2 3007   5.497  -0.115   7.450 -0.7392  0.3080 -0.1800
   41CHL1   H2A 3008   5.571  -0.192   7.481 -0.0762 -0.0117 -2.4139
   41CHL1   H2B 3009   5.401  -0.130   7.504 -1.1913  1.2321 -0.7137
   41CHL1   C20 3010   5.194  -0.251   6.567  0.0505  0.0258  0.0467
   41CHL1   H20 3011   5.094  -0.206   6.579  0.3854  1.3767 -1.8111
   41CHL1   C21 3012   5.209  -0.396   6.611 -0.2358 -0.3980 -0.5175
   41CHL1  H21A 3013   5.164  -0.466   6.539 -0.8075 -3.1678  2.3114
   41CHL1  H21B 3014   5.157  -0.406   6.709  1.6082 -0.6150  0.4926
   41CHL1  H21C 3015   5.316  -0.421   6.628  0.2350  1.6906 -0.0696
   41CHL1   C22 3016   5.222  -0.222   6.421  0.0133  0.3260  0.1181
   41CHL1  H22A 3017   5.149  -0.291   6.374  0.2953  0.3706 -0.3964
   41CHL1  H22B 3018   5.189  -0.121   6.387 -2.0404 -0.5470 -0.6412
   41CHL1   C23 3019   5.363  -0.262   6.370 -0.2388  0.3286  0.1885
   41CHL1  H23A 3020   5.440  -0.187   6.397 -1.2325  2.3761 -2.2630
   41CHL1  H23B 3021   5.394  -0.362   6.407  2.8796  1.5000  1.0321
   41CHL1   C24 3022   5.356  -0.276   6.212 -0.0509 -0.5440 -0.4470
   41CHL1  H24A 3023   5.299  -0.370   6.193 -0.3116 -0.2717 -1.0440
   41CHL1  H24B 3024   5.298  -0.185   6.185 -0.2790 -0.4472  0.3417
   41CHL1   C25 3025   5.494  -0.275   6.144  0.2831  0.1686 -0.8677
   41CHL1   H25 3026   5.544  -0.181   6.177 -3.7104  1.4771  2.3628
   41CHL1   C26 3027   5.566  -0.399   6.199 -0.4652 -0.4587 -0.8960
   41CHL1  H26A 3028   5.602  -0.372   6.300 -3.0287  1.5277 -0.4168
   41CHL1  H26B 3029   5.495  -0.482   6.218 -0.6684  0.3376  2.3305
   41CHL1  H26C 3030   5.652  -0.431   6.137  1.7051  0.5948  1.4145
   41CHL1   C27 3031   5.478  -0.289   5.991 -0.4754  0.3148 -0.4913
   41CHL1  H27A 3032   5.578  -0.308   5.946 -0.3178  1.6457 -0.7305
   41CHL1  H27B 3033   5.409  -0.374   5.968  1.5097 -1.7959  0.8921
   41CHL1  H27C 3034   5.440  -0.195   5.946 -0.4863  0.2100 -0.7013
   42CHL1    C3 3035   1.968   5.474   4.434  0.0574  0.5102 -0.2033
   42CHL1    H3 3036   1.867   5.451   4.395  0.3481  0.7008 -1.0876
   42CHL1    O3 3037   2.050   5.530   4.335  0.3177 -0.2632  0.1125
   42CHL1   H3' 3038   2.066   5.464   4.267 -0.9065  0.4214 -0.8983
   42CHL1    C4 3039   1.946   5.573   4.553 -0.3618  0.1314  0.0974
   42CHL1   H4A 3040   2.049   5.607   4.574 -0.2024  0.9808 -1.8832
   42CHL1   H4B 3041   1.881   5.658   4.523 -0.1894  0.7897  1.5292
   42CHL1    C5 3042   1.890   5.506   4.676 -0.4820 -1.2099  0.3795
   42CHL1    C6 3043   1.783   5.558   4.736  0.8277 -0.2628 -0.5494
   42CHL1    H6 3044   1.733   5.649   4.700  1.9782  1.3706  1.6626
   42CHL1    C7 3045   1.710   5.500   4.859  0.4988  1.0140 -0.2808
   42CHL1   H7A 3046   1.675   5.582   4.926  0.4265  0.4581  0.3643
   42CHL1   H7B 3047   1.630   5.435   4.817  2.0729 -0.0175 -1.7896
   42CHL1    C8 3048   1.811   5.409   4.942 -0.0998  0.0962  0.4451
   42CHL1    H8 3049   1.890   5.464   4.998 -0.1321  0.9659 -0.3548
   42CHL1   C14 3050   1.727   5.323   5.038 -0.6809 -0.4702  0.7284
   42CHL1   H14 3051   1.654   5.264   4.980  0.4544 -0.3368 -0.9224
   42CHL1   C15 3052   1.640   5.388   5.147  0.2083 -0.2924  0.2255
   42CHL1  H15A 3053   1.701   5.475   5.183  1.3464 -0.4609 -1.2149
   42CHL1  H15B 3054   1.547   5.438   5.111  0.1579  0.5912  1.4912
   42CHL1   C16 3055   1.619   5.276   5.251  0.2321 -0.6516 -0.1765
   42CHL1  H16A 3056   1.635   5.311   5.355  0.2704 -0.4570 -0.2462
   42CHL1  H16B 3057   1.514   5.239   5.244 -0.1888  0.6731 -1.4122
   42CHL1   C17 3058   1.713   5.163   5.209  0.4501  0.2828  0.2161
   42CHL1   H17 3059   1.644   5.098   5.152  2.1902 -0.7127 -0.8304
   42CHL1   C13 3060   1.809   5.219   5.114 -0.0658 -0.3526  0.4744
   42CHL1   C18 3061   1.932   5.277   5.196  0.4368  0.4219 -0.3196
   42CHL1  H18A 3062   1.887   5.338   5.278 -0.4731  0.2895 -0.7128
   42CHL1  H18B 3063   1.982   5.187   5.239  1.4841  0.4039 -1.5528
   42CHL1  H18C 3064   1.990   5.337   5.123  2.2974 -0.6766  0.1952
   42CHL1   C12 3065   1.852   5.113   5.010  0.8632  0.3102 -0.2287
   42CHL1  H12A 3066   1.920   5.041   5.062  1.4748 -0.4258 -1.9593
   42CHL1  H12B 3067   1.765   5.064   4.961  1.8430 -2.0204  0.2062
   42CHL1   C11 3068   1.936   5.184   4.896  0.5949  0.7617 -0.0266
   42CHL1  H11A 3069   2.035   5.212   4.940 -0.1561  1.3085  1.3774
   42CHL1  H11B 3070   1.958   5.108   4.819 -0.5291 -0.9777  1.3033
   42CHL1    C9 3071   1.873   5.313   4.837 -0.7269 -0.6454 -0.4638
   42CHL1    H9 3072   1.783   5.268   4.791 -0.4393 -1.3544 -0.3470
   42CHL1   C10 3073   1.957   5.378   4.723  0.5053 -0.0830  0.7588
   42CHL1   C19 3074   2.092   5.405   4.779 -0.3541 -0.0054 -0.9347
   42CHL1  H19A 3075   2.143   5.477   4.712  0.6288 -0.5892 -0.8389
   42CHL1  H19B 3076   2.081   5.455   4.878  0.8909  0.8125 -1.1847
   42CHL1  H19C 3077   2.163   5.320   4.786 -0.2715  0.0818 -0.7204
   42CHL1    C1 3078   1.973   5.280   4.597 -0.5221 -0.1572  0.2816
   42CHL1   H1A 3079   2.031   5.188   4.623 -0.0377 -0.4419 -1.6272
   42CHL1   H1B 3080   1.874   5.248   4.560  0.5162 -3.5862  0.0982
   42CHL1    C2 3081   2.031   5.339   4.472 -0.1218 -0.1659  0.3073
   42CHL1   H2A 3082   1.997   5.269   4.394 -3.9556  0.9705  0.7569
   42CHL1   H2B 3083   2.142   5.341   4.477  0.0234  1.3229 -1.9282
   42CHL1   C20 3084   1.769   5.062   5.315 -0.3822  0.3120  0.4194
   42CHL1   H20 3085   1.869   5.032   5.278 -0.3308  0.7715  0.1692
   42CHL1   C21 3086   1.693   4.931   5.317 -0.4929  0.4625 -0.3216
   42CHL1  H21A 3087   1.680   4.902   5.210  0.0333 -1.7156  0.1494
   42CHL1  H21B 3088   1.593   4.958   5.357 -0.2054  0.5054  0.3822
   42CHL1  H21C 3089   1.746   4.852   5.373 -0.4434 -1.5503 -2.9942
   42CHL1   C22 3090   1.782   5.124   5.454 -0.6666 -0.4989 -0.0537
   42CHL1  H22A 3091   1.823   5.227   5.455 -0.1939 -0.6533  2.1246
   42CHL1  H22B 3092   1.677   5.130   5.489 -0.1343 -1.2084  1.8112
   42CHL1   C23 3093   1.854   5.043   5.561  0.0938 -0.7954 -0.6666
   42CHL1  H23A 3094   1.831   5.089   5.659  2.9029 -1.5296  0.4352
   42CHL1  H23B 3095   1.822   4.936   5.557  0.7695 -1.0522  0.4547
   42CHL1   C24 3096   2.008   5.050   5.543 -0.1133 -0.1635 -0.3854
   42CHL1  H24A 3097   2.035   4.996   5.450 -2.9087 -0.6365 -1.0300
   42CHL1  H24B 3098   2.052   5.149   5.521 -0.3391 -0.4359 -2.2080
   42CHL1   C25 3099   2.089   4.986   5.659 -0.4428  0.0997 -0.3295
   42CHL1   H25 3100   2.193   4.965   5.625 -0.5899  0.2625 -0.8926
   42CHL1   C26 3101   2.109   5.078   5.778 -0.0073  0.2946 -0.2955
   42CHL1  H26A 3102   2.197   5.053   5.842 -0.5985 -3.1405 -0.6201
   42CHL1  H26B 3103   2.136   5.181   5.746  0.8104  0.4996  0.9606
   42CHL1  H26C 3104   2.016   5.094   5.837 -2.3652  2.2584 -4.1330
   42CHL1   C27 3105   2.034   4.857   5.711  0.2631  0.1603  0.2661
   42CHL1  H27A 3106   2.107   4.802   5.774  0.5880  0.7819  0.4436
   42CHL1  H27B 3107   1.940   4.869   5.770 -0.4012  1.8942 -1.0806
   42CHL1  H27C 3108   2.006   4.789   5.628 -0.0656  0.7424 -0.1028
   43CHL1    C3 3109   6.071   1.848   4.651  0.7117  0.1777  0.4750
   43CHL1    H3 3110   6.142   1.774   4.692  0.6310 -1.2471 -1.7830
   43CHL1    O3 3111   6.104   1.891   4.520  0.1243 -0.0503 -0.3240
   43CHL1   H3' 3112   6.197   1.890   4.498  0.0895 -1.6448 -0.5299
   43CHL1    C4 3113   5.923   1.808   4.657  0.5626  0.2476 -0.5310
   43CHL1   H4A 3114   5.862   1.883   4.603  0.8208  0.3945 -0.6213
   43CHL1   H4B 3115   5.915   1.713   4.599  0.8323 -2.1119  2.9652
   43CHL1    C5 3116   5.887   1.780   4.797 -0.0384  0.8106 -0.0007
   43CHL1    C6 3117   5.840   1.658   4.836  0.1061 -0.7596 -0.3325
   43CHL1    H6 3118   5.827   1.576   4.765 -1.7327 -2.4581  1.8196
   43CHL1    C7 3119   5.777   1.637   4.970  0.9905  0.2569 -0.1809
   43CHL1   H7A 3120   5.682   1.579   4.970  1.0152  0.2012  0.6053
   43CHL1   H7B 3121   5.842   1.578   5.039  0.5552 -0.6033 -0.4887
   43CHL1    C8 3122   5.749   1.775   5.051  0.1253 -0.1860  0.8503
   43CHL1    H8 3123   5.659   1.825   5.009  0.3278  0.5554  1.2776
   43CHL1   C14 3124   5.715   1.753   5.194  1.2251  0.2674 -0.4171
   43CHL1   H14 3125   5.798   1.692   5.235  0.4635 -0.6578 -0.2060
   43CHL1   C15 3126   5.593   1.665   5.220 -0.1093  0.2485  0.2274
   43CHL1  H15A 3127   5.504   1.710   5.172  0.8319  4.2375  1.8370
   43CHL1  H15B 3128   5.606   1.559   5.191 -2.3825  0.4828 -1.8795
   43CHL1   C16 3129   5.561   1.686   5.366  0.4221 -0.5080 -0.2977
   43CHL1  H16A 3130   5.456   1.719   5.384  0.3584 -1.4285  1.1490
   43CHL1  H16B 3131   5.572   1.589   5.420  1.2646 -0.1140  0.2612
   43CHL1   C17 3132   5.652   1.804   5.414  0.6294  0.4998 -0.0991
   43CHL1   H17 3133   5.743   1.759   5.460  1.7810  3.2491  0.4897
   43CHL1   C13 3134   5.690   1.879   5.284 -0.1111 -0.4598  0.6572
   43CHL1   C18 3135   5.572   1.969   5.237  0.2284 -0.3504 -0.0071
   43CHL1  H18A 3136   5.471   1.924   5.248 -0.2791  0.4822 -1.1536
   43CHL1  H18B 3137   5.578   2.066   5.291  1.3823  1.7848 -3.6525
   43CHL1  H18C 3138   5.581   1.998   5.130  0.7040 -1.2710 -0.2290
   43CHL1   C12 3139   5.820   1.957   5.277 -0.2804  0.1403  1.2799
   43CHL1  H12A 3140   5.807   2.045   5.344  1.4852 -0.7024  2.8213
   43CHL1  H12B 3141   5.899   1.889   5.316 -0.5628  0.3825  2.3035
   43CHL1   C11 3142   5.850   1.989   5.135  0.3016 -0.2202  0.5223
   43CHL1  H11A 3143   5.767   2.052   5.097 -0.0786 -0.5704  0.7495
   43CHL1  H11B 3144   5.946   2.044   5.128  0.0327  0.2285  0.3474
   43CHL1    C9 3145   5.867   1.871   5.039 -0.1089  0.2135 -0.8885
   43CHL1    H9 3146   5.954   1.814   5.080 -0.9922 -0.7916 -0.3753
   43CHL1   C10 3147   5.902   1.906   4.893  0.1648 -0.1687  0.2171
   43CHL1   C19 3148   5.800   2.010   4.843  0.2712  0.7326 -0.6890
   43CHL1  H19A 3149   5.822   2.021   4.735  1.4251  0.0176 -0.5408
   43CHL1  H19B 3150   5.694   1.984   4.865  0.0973  2.2853  0.5529
   43CHL1  H19C 3151   5.819   2.109   4.889  2.2434  0.2060 -0.3011
   43CHL1    C1 3152   6.048   1.954   4.885  0.1500 -0.0113  0.8640
   43CHL1   H1A 3153   6.071   2.044   4.946 -1.0548  1.5391 -0.8613
   43CHL1   H1B 3154   6.111   1.872   4.925  0.3484 -1.5664 -2.3172
   43CHL1    C2 3155   6.100   1.981   4.739 -0.4018 -0.1362 -0.4615
   43CHL1   H2A 3156   6.209   2.003   4.731 -0.7632  1.1530 -3.0129
   43CHL1   H2B 3157   6.043   2.071   4.706 -0.7830 -0.0097  0.4924
   43CHL1   C20 3158   5.599   1.878   5.535 -0.3567  0.2362 -0.0434
   43CHL1   H20 3159   5.498   1.918   5.509  0.2365  1.3793 -0.6186
   43CHL1   C21 3160   5.697   1.994   5.573  0.1706 -0.1951  1.1539
   43CHL1  H21A 3161   5.800   1.953   5.570 -0.3794 -1.7544  2.1951
   43CHL1  H21B 3162   5.676   2.034   5.675  2.4494  1.9225  0.8730
   43CHL1  H21C 3163   5.696   2.079   5.502  0.8656 -0.9920  0.1672
   43CHL1   C22 3164   5.574   1.775   5.655  0.4521  0.1742 -0.2779
   43CHL1  H22A 3165   5.526   1.839   5.732  0.2241  1.5839 -1.5498
   43CHL1  H22B 3166   5.495   1.702   5.627 -0.4084  0.9278  0.1383
   43CHL1   C23 3167   5.702   1.712   5.712 -0.5193  0.1175 -0.0886
   43CHL1  H23A 3168   5.762   1.659   5.636 -0.3279  0.4181 -0.1471
   43CHL1  H23B 3169   5.768   1.790   5.754 -0.3069 -0.5705  0.9009
   43CHL1   C24 3170   5.674   1.616   5.830  0.1611  0.2613 -0.5980
   43CHL1  H24A 3171   5.613   1.664   5.910  1.1393  1.5295 -0.5797
   43CHL1  H24B 3172   5.610   1.536   5.789  0.0179  0.3456 -0.5388
   43CHL1   C25 3173   5.799   1.561   5.907 -0.3228  0.0335  0.0041
   43CHL1   H25 3174   5.760   1.537   6.008  0.2770  0.3847  0.3239
   43CHL1   C26 3175   5.865   1.439   5.834 -0.3129 -0.4554 -0.5097
   43CHL1  H26A 3176   5.787   1.359   5.825 -1.9304  0.9114  0.7135
   43CHL1  H26B 3177   5.905   1.472   5.736  2.1041  0.8582  0.8223
   43CHL1  H26C 3178   5.947   1.408   5.902 -1.2254 -0.2762  0.6990
   43CHL1   C27 3179   5.905   1.679   5.933 -0.4919  0.0960 -0.1259
   43CHL1  H27A 3180   5.971   1.653   6.018 -2.5058 -0.8899  1.2462
   43CHL1  H27B 3181   5.964   1.711   5.845 -1.7867  2.1002 -0.3305
   43CHL1  H27C 3182   5.837   1.765   5.951  0.6659  1.5682 -2.4809
   44CHL1    C3 3183   5.633   3.228   4.328  0.1621 -0.1845  0.5085
   44CHL1    H3 3184   5.721   3.165   4.353  0.0989 -0.1549  0.8119
   44CHL1    O3 3185   5.603   3.235   4.187  0.0087  0.1112  0.3760
   44CHL1   H3' 3186   5.526   3.292   4.186 -0.4524 -0.4905 -1.1086
   44CHL1    C4 3187   5.520   3.153   4.394 -0.2335 -0.2665 -0.8579
   44CHL1   H4A 3188   5.413   3.175   4.371 -1.1828 -0.1033  3.0588
   44CHL1   H4B 3189   5.533   3.047   4.363  0.0946 -0.5506  0.2149
   44CHL1    C5 3190   5.526   3.142   4.548  0.6874  0.1776 -0.6983
   44CHL1    C6 3191   5.541   3.024   4.612  0.0633 -0.8414  0.3536
   44CHL1    H6 3192   5.540   2.929   4.556 -0.7234 -0.2932 -0.5790
   44CHL1    C7 3193   5.561   3.014   4.765  0.3202 -0.6613  0.2763
   44CHL1   H7A 3194   5.507   2.926   4.806  2.5626 -2.3598 -0.1761
   44CHL1   H7B 3195   5.668   3.002   4.793  0.3437 -1.1538 -0.0017
   44CHL1    C8 3196   5.520   3.142   4.835 -0.0635  0.7702  1.2867
   44CHL1    H8 3197   5.409   3.149   4.831 -0.1286 -0.2176 -2.5860
   44CHL1   C14 3198   5.573   3.138   4.982  0.3368 -0.2377  0.5024
   44CHL1   H14 3199   5.683   3.146   4.976  0.1557  1.5738 -1.4299
   44CHL1   C15 3200   5.536   3.010   5.065 -0.0325  0.5214 -0.1479
   44CHL1  H15A 3201   5.428   2.999   5.042 -0.2906  2.3765  0.0600
   44CHL1  H15B 3202   5.584   2.910   5.052 -0.9278 -0.0978  1.1258
   44CHL1   C16 3203   5.558   3.059   5.209 -0.1829 -0.8784  0.0774
   44CHL1  H16A 3204   5.470   3.030   5.269 -0.7831 -0.6864 -0.6853
   44CHL1  H16B 3205   5.652   3.018   5.253 -0.2656 -0.5444  0.5664
   44CHL1   C17 3206   5.582   3.218   5.202 -0.4162  0.7095  0.3292
   44CHL1   H17 3207   5.692   3.231   5.202 -0.3410  0.2438  1.8217
   44CHL1   C13 3208   5.531   3.253   5.062  0.2389  0.2347 -0.2043
   44CHL1   C18 3209   5.369   3.259   5.068 -0.4834  0.9184 -0.7642
   44CHL1  H18A 3210   5.316   3.170   5.109  1.1707  0.4244  0.4346
   44CHL1  H18B 3211   5.348   3.346   5.134  3.1323  0.1154  1.7554
   44CHL1  H18C 3212   5.324   3.284   4.969 -1.4851  1.1449 -0.2591
   44CHL1   C12 3213   5.595   3.380   5.002  0.3255 -1.1015  0.2121
   44CHL1  H12A 3214   5.560   3.474   5.048 -1.5766 -0.5770 -2.1276
   44CHL1  H12B 3215   5.704   3.379   5.023  0.4028 -1.7036 -0.1827
   44CHL1   C11 3216   5.559   3.392   4.854  0.0471 -1.0518 -0.1622
   44CHL1  H11A 3217   5.452   3.422   4.849 -0.4752 -2.6439  0.6105
   44CHL1  H11B 3218   5.617   3.475   4.809 -1.3655 -1.0198 -2.0165
   44CHL1    C9 3219   5.581   3.264   4.762  0.4218 -0.5887  0.5189
   44CHL1    H9 3220   5.690   3.247   4.758  0.7843  1.5611 -2.9033
   44CHL1   C10 3221   5.542   3.277   4.613  0.0894  0.0702  0.3943
   44CHL1   C19 3222   5.410   3.352   4.614 -0.2229 -0.3083  0.8294
   44CHL1  H19A 3223   5.413   3.460   4.637  3.3534 -0.1814  0.3489
   44CHL1  H19B 3224   5.368   3.331   4.513 -1.0914  0.3729  1.0387
   44CHL1  H19C 3225   5.334   3.305   4.680 -2.2984  1.1531 -0.3859
   44CHL1    C1 3226   5.658   3.358   4.540 -0.1183  0.2098 -0.4513
   44CHL1   H1A 3227   5.667   3.458   4.587 -0.8776  0.2222 -0.3124
   44CHL1   H1B 3228   5.752   3.302   4.561  0.6863  1.5848 -0.2957
   44CHL1    C2 3229   5.652   3.371   4.391 -0.0391  0.6991  0.0751
   44CHL1   H2A 3230   5.738   3.426   4.349 -0.5606  2.2765  0.9560
   44CHL1   H2B 3231   5.561   3.432   4.374 -0.5290  0.0903  0.4673
   44CHL1   C20 3232   5.538   3.287   5.330  0.5308  0.3536  0.4604
   44CHL1   H20 3233   5.427   3.285   5.334  0.4750 -2.7312 -0.4589
   44CHL1   C21 3234   5.574   3.441   5.312 -0.0122  0.1190 -0.3661
   44CHL1  H21A 3235   5.682   3.441   5.284  0.5112  0.0405  1.5191
   44CHL1  H21B 3236   5.558   3.502   5.403  0.1875  1.3565 -1.1438
   44CHL1  H21C 3237   5.503   3.476   5.234 -0.8180 -0.4160  0.1224
   44CHL1   C22 3238   5.590   3.232   5.463 -0.0434 -0.0389 -0.0080
   44CHL1  H22A 3239   5.550   3.129   5.475 -1.7731  0.4720 -1.0577
   44CHL1  H22B 3240   5.701   3.225   5.472 -0.0577  0.1745  0.4026
   44CHL1   C23 3241   5.537   3.308   5.587 -0.1371 -0.1805 -0.1230
   44CHL1  H23A 3242   5.554   3.417   5.575  4.0555 -0.4561  1.3941
   44CHL1  H23B 3243   5.427   3.293   5.587 -0.1074 -0.3999 -0.0215
   44CHL1   C24 3244   5.593   3.254   5.718  0.4944  0.2991 -0.0431
   44CHL1  H24A 3245   5.572   3.147   5.739  0.3633  0.3097 -0.1207
   44CHL1  H24B 3246   5.704   3.258   5.717  0.5026 -0.0320 -0.4494
   44CHL1   C25 3247   5.533   3.326   5.844 -0.4537 -0.0921  0.5524
   44CHL1   H25 3248   5.550   3.435   5.834  0.9936 -0.4596 -1.9824
   44CHL1   C26 3249   5.388   3.292   5.857  0.1696 -0.3709 -0.0790
   44CHL1  H26A 3250   5.336   3.359   5.785  1.3040  1.6064  0.8786
   44CHL1  H26B 3251   5.377   3.186   5.826  0.8238  0.1833 -2.4164
   44CHL1  H26C 3252   5.357   3.313   5.961 -1.0647  1.9718 -0.8503
   44CHL1   C27 3253   5.601   3.283   5.978 -0.0657  0.5464  0.1309
   44CHL1  H27A 3254   5.712   3.281   5.979 -0.0195  1.5447 -1.0113
   44CHL1  H27B 3255   5.579   3.344   6.069  0.3655 -1.5118  1.6973
   44CHL1  H27C 3256   5.572   3.179   6.004  0.4022  0.4255  0.1779
   45CHL1    C3 3257   6.551   3.888   4.581  0.2411  0.5827 -0.5522
   45CHL1    H3 3258   6.504   3.989   4.590 -2.6273 -0.4069 -3.0220
   45CHL1    O3 3259   6.611   3.865   4.454 -0.0237  0.2328  0.5829
   45CHL1   H3' 3260   6.660   3.784   4.469  2.0559  1.2788 -0.2394
   45CHL1    C4 3261   6.659   3.864   4.690 -0.3788 -0.0115  0.1331
   45CHL1   H4A 3262   6.732   3.782   4.668 -2.0537 -2.0524  1.7813
   45CHL1   H4B 3263   6.731   3.949   4.689 -0.0276 -0.2868 -1.5569
   45CHL1    C5 3264   6.606   3.844   4.831 -0.2824 -0.4531 -0.2073
   45CHL1    C6 3265   6.664   3.924   4.928  0.4262  0.2458  0.0883
   45CHL1    H6 3266   6.737   4.004   4.914  0.3084  0.0818 -1.6495
   45CHL1    C7 3267   6.621   3.915   5.078  0.0819 -0.4374  1.2448
   45CHL1   H7A 3268   6.708   3.925   5.146  1.0671  0.8414 -0.1506
   45CHL1   H7B 3269   6.563   4.001   5.116 -1.3751 -0.9054  0.1867
   45CHL1    C8 3270   6.534   3.781   5.095 -0.0881  0.1055  0.3991
   45CHL1    H8 3271   6.599   3.693   5.078  0.0847  0.2908  0.0777
   45CHL1   C14 3272   6.477   3.781   5.230  0.6416 -0.1615  0.2658
   45CHL1   H14 3273   6.405   3.865   5.224 -0.7735 -1.3355  0.3232
   45CHL1   C15 3274   6.567   3.799   5.350  0.5325 -0.6027 -0.4558
   45CHL1  H15A 3275   6.660   3.738   5.351  0.2764 -1.1892  3.1775
   45CHL1  H15B 3276   6.598   3.905   5.354 -2.8240  0.4895 -0.0185
   45CHL1   C16 3277   6.474   3.768   5.466 -0.5575 -0.1696  0.2233
   45CHL1  H16A 3278   6.524   3.695   5.533 -0.5636 -0.3949 -0.0201
   45CHL1  H16B 3279   6.459   3.859   5.528 -1.4699  0.2567 -0.5977
   45CHL1   C17 3280   6.341   3.718   5.412  0.0275  0.0319 -0.3977
   45CHL1   H17 3281   6.267   3.798   5.396  0.7744  0.7463 -0.3366
   45CHL1   C13 3282   6.377   3.669   5.268 -0.5196  0.1913 -0.7191
   45CHL1   C18 3283   6.441   3.527   5.269  0.1140  0.5271 -1.0625
   45CHL1  H18A 3284   6.491   3.517   5.170 -2.2771  3.8074 -2.7991
   45CHL1  H18B 3285   6.523   3.510   5.342  1.8251  2.7156 -2.3579
   45CHL1  H18C 3286   6.364   3.447   5.281  0.6249 -0.4443 -3.6076
   45CHL1   C12 3287   6.269   3.665   5.167  0.0730 -0.1737  0.1908
   45CHL1  H12A 3288   6.191   3.587   5.173  0.4310 -0.4699  1.2238
   45CHL1  H12B 3289   6.220   3.765   5.165 -0.6835 -0.5483 -0.5326
   45CHL1   C11 3290   6.321   3.657   5.029 -0.2229 -0.3490  0.4697
   45CHL1  H11A 3291   6.366   3.558   5.007  0.2871  0.0568 -0.3995
   45CHL1  H11B 3292   6.238   3.662   4.954 -0.0514 -1.2612  0.2091
   45CHL1    C9 3293   6.423   3.766   4.990 -0.1361  0.0016  0.4042
   45CHL1    H9 3294   6.364   3.859   4.977 -1.0403 -0.6510 -0.2518
   45CHL1   C10 3295   6.487   3.747   4.843 -0.4355  0.3199 -0.1377
   45CHL1   C19 3296   6.533   3.600   4.822  0.5359  0.6575 -0.3131
   45CHL1  H19A 3297   6.572   3.562   4.918  0.2204 -0.4198 -0.5944
   45CHL1  H19B 3298   6.444   3.537   4.802  1.6949 -0.3744 -2.6382
   45CHL1  H19C 3299   6.598   3.585   4.733 -1.7384 -1.0735 -1.8007
   45CHL1    C1 3300   6.381   3.785   4.735 -0.3699 -0.4886  0.1956
   45CHL1   H1A 3301   6.311   3.699   4.742  1.0622 -1.6388  1.0792
   45CHL1   H1B 3302   6.334   3.881   4.767  0.1386  0.3249 -1.3721
   45CHL1    C2 3303   6.433   3.789   4.591 -0.4455  0.3934  0.1527
   45CHL1   H2A 3304   6.349   3.800   4.520 -0.1532 -1.2999 -0.5102
   45CHL1   H2B 3305   6.474   3.686   4.578 -1.1514  0.0923  0.2653
   45CHL1   C20 3306   6.272   3.610   5.504 -0.2085  0.2003  0.0556
   45CHL1   H20 3307   6.330   3.515   5.511 -1.9199 -0.8757  0.4268
   45CHL1   C21 3308   6.135   3.575   5.442 -0.2995 -0.2843  0.0939
   45CHL1  H21A 3309   6.070   3.535   5.523 -1.5715  1.5910  0.0761
   45CHL1  H21B 3310   6.148   3.511   5.352  0.1565  0.4489 -0.3716
   45CHL1  H21C 3311   6.074   3.655   5.394 -0.4748 -0.6391 -0.2777
   45CHL1   C22 3312   6.246   3.643   5.653 -0.7347 -0.7655  0.2075
   45CHL1  H22A 3313   6.346   3.668   5.695  0.3535 -2.7278 -1.0450
   45CHL1  H22B 3314   6.179   3.732   5.654 -0.6371 -0.6360 -1.6074
   45CHL1   C23 3315   6.203   3.523   5.744  0.4773 -0.3845  0.2597
   45CHL1  H23A 3316   6.096   3.496   5.732  0.9268 -1.8565 -0.7247
   45CHL1  H23B 3317   6.258   3.434   5.705 -1.4386 -2.2103  1.5469
   45CHL1   C24 3318   6.224   3.552   5.897 -0.4866  0.6347 -0.2128
   45CHL1  H24A 3319   6.317   3.604   5.925 -0.8126 -0.0622  2.3918
   45CHL1  H24B 3320   6.146   3.627   5.921 -1.0019 -0.8743  3.4047
   45CHL1   C25 3321   6.170   3.441   5.996 -0.3832  0.5082  0.4310
   45CHL1   H25 3322   6.174   3.479   6.100 -3.4853  0.4417  0.6766
   45CHL1   C26 3323   6.017   3.423   5.979  0.1564  0.1767 -0.2559
   45CHL1  H26A 3324   5.965   3.506   6.033  1.1873  1.1246 -0.6798
   45CHL1  H26B 3325   5.990   3.412   5.872  1.2944  0.1280 -0.5517
   45CHL1  H26C 3326   5.978   3.329   6.023 -1.9057  1.3476  0.5803
   45CHL1   C27 3327   6.245   3.307   5.979 -0.2990  0.6105 -0.1663
   45CHL1  H27A 3328   6.191   3.237   6.047 -1.6849  1.9956  0.2009
   45CHL1  H27B 3329   6.238   3.269   5.875 -3.9754 -0.1547  0.2364
   45CHL1  H27C 3330   6.352   3.301   6.010 -0.2825  0.6414 -0.2184
   46CHL1    C3 3331   5.449   5.835   4.472 -0.1191 -0.0775  0.0471
   46CHL1    H3 3332   5.388   5.928   4.481  0.4729  0.4728 -1.3054
   46CHL1    O3 3333   5.456   5.810   4.330  0.1915  0.5590 -0.1981
   46CHL1   H3' 3334   5.548   5.819   4.301  0.3433  2.3320  0.6962
   46CHL1    C4 3335   5.586   5.867   4.526 -0.5544  0.1791  0.1279
   46CHL1   H4A 3336   5.653   5.778   4.522 -2.3198 -1.1824 -0.3783
   46CHL1   H4B 3337   5.635   5.936   4.453  2.6179 -1.3005  0.6538
   46CHL1    C5 3338   5.577   5.912   4.673 -0.6057  0.1875  0.1307
   46CHL1    C6 3339   5.613   6.035   4.715 -0.7831  0.3830 -0.3507
   46CHL1    H6 3340   5.649   6.107   4.640  1.5209  0.1493  0.4434
   46CHL1    C7 3341   5.600   6.087   4.858 -0.3652 -0.1254  0.1598
   46CHL1   H7A 3342   5.699   6.133   4.880  0.7805 -1.4809 -1.7525
   46CHL1   H7B 3343   5.519   6.161   4.870 -0.2675  0.0290 -0.1243
   46CHL1    C8 3344   5.564   5.976   4.968 -0.3814  0.0898  0.5958
   46CHL1    H8 3345   5.656   5.919   4.993  0.0839 -0.1834 -1.5437
   46CHL1   C14 3346   5.509   6.042   5.095 -0.0979 -0.0274  0.6030
   46CHL1   H14 3347   5.420   6.104   5.069 -0.6059 -0.9983 -0.0430
   46CHL1   C15 3348   5.596   6.144   5.169  0.3382 -0.4317 -0.8231
   46CHL1  H15A 3349   5.697   6.099   5.180  1.3196  1.6454 -0.8144
   46CHL1  H15B 3350   5.600   6.239   5.111  2.4845 -0.1156 -0.2341
   46CHL1   C16 3351   5.533   6.160   5.312 -0.0059  0.8166  0.6062
   46CHL1  H16A 3352   5.613   6.144   5.387 -2.4863  2.0617  3.6989
   46CHL1  H16B 3353   5.489   6.262   5.325  1.1270  1.1037  2.6048
   46CHL1   C17 3354   5.427   6.046   5.321  0.0101 -0.0280  0.1217
   46CHL1   H17 3355   5.328   6.092   5.301 -1.3734 -3.4443 -1.7513
   46CHL1   C13 3356   5.455   5.946   5.205  0.2445  0.5283  0.2008
   46CHL1   C18 3357   5.561   5.848   5.254 -0.4695  0.4597  0.2793
   46CHL1  H18A 3358   5.508   5.780   5.325  0.0677 -0.7155 -0.4205
   46CHL1  H18B 3359   5.585   5.772   5.177 -1.2751  0.3994  0.0767
   46CHL1  H18C 3360   5.654   5.883   5.304 -0.5436 -0.7919  1.3595
   46CHL1   C12 3361   5.336   5.877   5.138 -1.3073 -0.0349 -0.2868
   46CHL1  H12A 3362   5.276   5.809   5.201 -1.5114  0.9274  0.5863
   46CHL1  H12B 3363   5.262   5.957   5.115  0.1934  1.5096  0.0119
   46CHL1   C11 3364   5.378   5.800   5.005  0.1075 -0.4090  0.2937
   46CHL1  H11A 3365   5.448   5.724   5.046 -0.4856  0.8323  4.0559
   46CHL1  H11B 3366   5.296   5.746   4.953  0.8115 -0.0148 -1.2874
   46CHL1    C9 3367   5.456   5.889   4.904 -0.5291 -0.1225 -0.1838
   46CHL1    H9 3368   5.383   5.967   4.872  1.8774  2.4656  0.2892
   46CHL1   C10 3369   5.503   5.814   4.773 -0.0162 -0.2423  0.0465
   46CHL1   C19 3370   5.592   5.693   4.809  0.3700 -0.4930 -0.1153
   46CHL1  H19A 3371   5.527   5.616   4.856 -0.9853  0.3777 -0.5029
   46CHL1  H19B 3372   5.652   5.653   4.725  1.3312  1.1001 -0.2278
   46CHL1  H19C 3373   5.673   5.724   4.879 -0.3507  2.0023 -0.2995
   46CHL1    C1 3374   5.372   5.769   4.700 -0.7893  0.9657  0.0663
   46CHL1   H1A 3375   5.335   5.682   4.758 -3.4462  0.2358 -2.4750
   46CHL1   H1B 3376   5.300   5.853   4.687 -0.8948  0.7992 -0.4739
   46CHL1    C2 3377   5.383   5.719   4.551  0.0426 -0.0046 -0.6345
   46CHL1   H2A 3378   5.279   5.698   4.519 -0.6407  1.9297  0.1475
   46CHL1   H2B 3379   5.451   5.632   4.537  0.1954  0.2590 -1.6027
   46CHL1   C20 3380   5.411   5.994   5.463 -0.1454  0.7228 -0.5736
   46CHL1   H20 3381   5.496   5.932   5.498 -0.1872 -0.1284 -1.9208
   46CHL1   C21 3382   5.293   5.897   5.489  0.9080  0.4560 -0.0274
   46CHL1  H21A 3383   5.319   5.793   5.461 -0.3199 -0.1056  0.8769
   46CHL1  H21B 3384   5.200   5.929   5.438  0.3020 -1.7388 -0.3580
   46CHL1  H21C 3385   5.281   5.877   5.598 -0.8333 -4.4933 -0.8773
   46CHL1   C22 3386   5.404   6.111   5.569 -0.1750 -0.1273 -0.2943
   46CHL1  H22A 3387   5.422   6.068   5.670 -1.6392  0.8115  0.3991
   46CHL1  H22B 3388   5.487   6.183   5.554  1.0476 -0.8537  2.2988
   46CHL1   C23 3389   5.270   6.195   5.558 -0.4617 -0.0263 -0.4230
   46CHL1  H23A 3390   5.271   6.223   5.450  0.7796 -3.1303 -1.3426
   46CHL1  H23B 3391   5.177   6.137   5.580 -1.5287  1.5960 -0.5275
   46CHL1   C24 3392   5.272   6.310   5.667  0.0608  0.2425 -1.2486
   46CHL1  H24A 3393   5.287   6.275   5.771  0.1545 -0.3497 -1.4532
   46CHL1  H24B 3394   5.353   6.383   5.641  0.8776  0.1398  0.8449
   46CHL1   C25 3395   5.137   6.389   5.671  0.3468  0.9913 -0.3517
   46CHL1   H25 3396   5.051   6.318   5.673  0.3914  0.9242  1.9404
   46CHL1   C26 3397   5.132   6.499   5.777 -0.7465  0.3826 -0.5082
   46CHL1  H26A 3398   5.190   6.590   5.749 -0.7738 -0.0773 -2.1685
   46CHL1  H26B 3399   5.032   6.548   5.784 -0.8892  0.1902 -1.0954
   46CHL1  H26C 3400   5.157   6.458   5.877 -3.6765 -1.7669 -0.5325
   46CHL1   C27 3401   5.125   6.459   5.530 -0.2743  0.7637 -0.3054
   46CHL1  H27A 3402   5.210   6.530   5.524 -0.9513  1.6081  0.0337
   46CHL1  H27B 3403   5.127   6.384   5.447 -1.8691  1.0285 -0.6167
   46CHL1  H27C 3404   5.032   6.519   5.529 -1.8322 -1.5392 -0.6829
   47CHL1    C3 3405   2.044   6.140   4.606  0.2668  0.0437  0.8044
   47CHL1    H3 3406   2.153   6.138   4.624  0.6256 -0.3397 -1.1547
   47CHL1    O3 3407   2.016   6.197   4.478 -0.2908 -0.2691 -0.3026
   47CHL1   H3' 3408   1.979   6.123   4.428 -2.4050  0.2817  0.3240
   47CHL1    C4 3409   1.995   5.999   4.629 -0.4573  0.3416  0.4543
   47CHL1   H4A 3410   1.887   5.990   4.607 -0.5849  1.8036  0.4127
   47CHL1   H4B 3411   2.049   5.948   4.547  2.0921  0.6236  1.8548
   47CHL1    C5 3412   2.028   5.950   4.767  0.3791 -1.3105  0.0187
   47CHL1    C6 3413   2.107   5.846   4.782  0.4087 -0.0474 -0.2637
   47CHL1    H6 3414   2.149   5.790   4.697  0.1225  1.1885 -1.2414
   47CHL1    C7 3415   2.125   5.776   4.917 -0.1986  0.2612  0.6535
   47CHL1   H7A 3416   2.103   5.670   4.893 -1.4652  0.8870 -1.2714
   47CHL1   H7B 3417   2.232   5.792   4.940 -0.1144  1.9320 -0.6973
   47CHL1    C8 3418   2.027   5.831   5.025 -0.3552 -0.2007  0.6447
   47CHL1    H8 3419   1.924   5.793   5.008 -0.7181  1.5308 -1.5630
   47CHL1   C14 3420   2.078   5.782   5.158  0.5134  0.2805 -0.3082
   47CHL1   H14 3421   2.184   5.816   5.155  0.8933 -0.8198 -0.0149
   47CHL1   C15 3422   2.096   5.625   5.182  0.4542  0.0859 -0.0307
   47CHL1  H15A 3423   2.008   5.573   5.138  2.1654 -0.6565 -2.8866
   47CHL1  H15B 3424   2.187   5.584   5.132  0.2726 -1.0698  0.5649
   47CHL1   C16 3425   2.101   5.612   5.335  0.7541  0.4769 -0.1489
   47CHL1  H16A 3426   2.032   5.536   5.376  1.1830 -1.0277 -2.0546
   47CHL1  H16B 3427   2.200   5.575   5.367  0.4085 -0.8273 -0.4988
   47CHL1   C17 3428   2.085   5.757   5.396  0.9812 -0.5169 -0.4432
   47CHL1   H17 3429   2.180   5.814   5.401 -1.2867  3.7200 -1.7166
   47CHL1   C13 3430   2.006   5.833   5.286 -0.0747 -0.1120 -0.1919
   47CHL1   C18 3431   1.866   5.768   5.287  0.5215 -0.1307 -0.4142
   47CHL1  H18A 3432   1.817   5.786   5.189 -0.7963 -0.1669  0.2191
   47CHL1  H18B 3433   1.863   5.658   5.302  0.1709 -0.1411 -0.5532
   47CHL1  H18C 3434   1.809   5.835   5.356 -0.4445 -1.4997  0.1487
   47CHL1   C12 3435   2.002   5.989   5.278  0.1879  0.7072 -0.0384
   47CHL1  H12A 3436   1.939   6.041   5.353 -0.0746  0.4430 -0.0753
   47CHL1  H12B 3437   2.101   6.033   5.302 -0.3942  1.7257  0.5807
   47CHL1   C11 3438   1.941   6.045   5.144  0.3877  0.1253  0.1152
   47CHL1  H11A 3439   1.836   6.009   5.149  0.4552  0.0532  1.8639
   47CHL1  H11B 3440   1.957   6.154   5.130  3.0585 -0.2824 -0.5319
   47CHL1    C9 3441   2.015   5.985   5.023 -0.0951 -0.3872  0.5919
   47CHL1    H9 3442   2.118   6.028   5.030 -0.3438  0.4545 -0.5418
   47CHL1   C10 3443   1.961   6.027   4.881 -0.1913 -0.3825 -0.6735
   47CHL1   C19 3444   1.813   5.994   4.871 -0.8471 -1.1366  0.1786
   47CHL1  H19A 3445   1.752   6.038   4.952  0.0540  2.0315 -0.7357
   47CHL1  H19B 3446   1.770   6.020   4.772  1.6194 -1.5358 -1.0927
   47CHL1  H19C 3447   1.791   5.886   4.888 -0.2784 -0.9703  2.3124
   47CHL1    C1 3448   1.990   6.182   4.854 -0.3100  0.4343  0.0183
   47CHL1   H1A 3449   1.915   6.236   4.915  1.5204  0.9354  1.9347
   47CHL1   H1B 3450   2.093   6.191   4.896 -0.8663  0.4810  1.4179
   47CHL1    C2 3451   1.973   6.231   4.710 -0.1309  0.7076  0.1095
   47CHL1   H2A 3452   2.014   6.332   4.688  2.2778  0.1694  1.7617
   47CHL1   H2B 3453   1.862   6.233   4.698 -0.2039 -1.0436  0.2011
   47CHL1   C20 3454   2.027   5.761   5.543 -0.8640  0.5104  0.0804
   47CHL1   H20 3455   1.920   5.735   5.534 -0.7533  0.5694 -1.9000
   47CHL1   C21 3456   2.039   5.901   5.594  0.1820 -0.4695 -0.5521
   47CHL1  H21A 3457   2.132   5.954   5.565  0.2144  0.7445  1.5466
   47CHL1  H21B 3458   2.036   5.911   5.705  0.5924  0.7906 -0.6383
   47CHL1  H21C 3459   1.955   5.961   5.552  1.2871  0.9529 -0.7912
   47CHL1   C22 3460   2.112   5.666   5.631 -0.0634  0.0352 -0.0378
   47CHL1  H22A 3461   2.103   5.564   5.589  2.6722 -0.8346  1.2408
   47CHL1  H22B 3462   2.220   5.690   5.638 -0.3697  1.1467  1.3403
   47CHL1   C23 3463   2.054   5.660   5.773 -0.9050  0.1571 -0.4268
   47CHL1  H23A 3464   2.089   5.749   5.829 -3.9386  2.1100 -1.3999
   47CHL1  H23B 3465   1.944   5.657   5.756 -0.8107  0.1248 -1.0357
   47CHL1   C24 3466   2.099   5.533   5.856  0.6727  0.1445  0.5072
   47CHL1  H24A 3467   2.057   5.439   5.813  2.2778  0.2133 -1.3064
   47CHL1  H24B 3468   2.210   5.531   5.860  0.7533 -0.4392 -1.2867
   47CHL1   C25 3469   2.044   5.537   5.998  0.3106  0.5896 -0.1429
   47CHL1   H25 3470   2.076   5.631   6.047  1.2317 -0.7187  1.8947
   47CHL1   C26 3471   1.888   5.529   6.015 -0.4124 -0.9131 -0.0225
   47CHL1  H26A 3472   1.846   5.442   5.960 -1.1312 -0.5288 -0.0875
   47CHL1  H26B 3473   1.856   5.522   6.121 -0.0016 -2.2899  0.0386
   47CHL1  H26C 3474   1.840   5.614   5.963 -2.7042 -2.6410 -0.9286
   47CHL1   C27 3475   2.106   5.421   6.078  0.3013 -0.1715 -0.6624
   47CHL1  H27A 3476   2.097   5.322   6.029  1.2965 -0.5985 -0.0227
   47CHL1  H27B 3477   2.214   5.445   6.086  0.7146 -2.4602  2.4678
   47CHL1  H27C 3478   2.070   5.407   6.182  0.8472  0.9808 -0.2994
   48CHL1    C3 3479   3.558   2.605   4.186  0.1926  0.3586 -0.3966
   48CHL1    H3 3480   3.491   2.524   4.222 -1.0213  0.7971 -1.6227
   48CHL1    O3 3481   3.550   2.625   4.044 -0.3459  0.2075 -0.4023
   48CHL1   H3' 3482   3.620   2.684   4.018 -2.4386  2.5335 -1.1373
   48CHL1    C4 3483   3.510   2.740   4.249 -0.7168  0.7620  0.4008
   48CHL1   H4A 3484   3.572   2.822   4.207  1.0002 -1.5622 -1.9139
   48CHL1   H4B 3485   3.402   2.747   4.223 -0.9919  0.7962  1.4856
   48CHL1    C5 3486   3.523   2.736   4.394 -0.0221  0.4841  0.3468
   48CHL1    C6 3487   3.409   2.748   4.473  1.1929 -0.8334  0.5229
   48CHL1    H6 3488   3.322   2.776   4.412  1.2511 -1.3846  0.1767
   48CHL1    C7 3489   3.407   2.755   4.627  0.1641 -0.1096  0.1545
   48CHL1   H7A 3490   3.342   2.835   4.668 -0.5012 -0.5395 -0.0486
   48CHL1   H7B 3491   3.354   2.665   4.665 -2.5084  0.8201 -1.1193
   48CHL1    C8 3492   3.549   2.774   4.680 -0.2070 -0.1321 -0.2072
   48CHL1    H8 3493   3.581   2.880   4.672  1.7134 -0.6271  0.2447
   48CHL1   C14 3494   3.554   2.735   4.834 -0.4295  0.0849  0.1637
   48CHL1   H14 3495   3.526   2.628   4.830 -0.7491  0.1922 -0.4982
   48CHL1   C15 3496   3.459   2.796   4.944 -0.1010 -0.4072  0.1639
   48CHL1  H15A 3497   3.451   2.904   4.921 -0.4361 -0.2248  1.0948
   48CHL1  H15B 3498   3.357   2.753   4.934 -1.0589  1.8960 -0.6339
   48CHL1   C16 3499   3.528   2.771   5.080  0.4850  0.8137 -0.4278
   48CHL1  H16A 3500   3.549   2.865   5.135  0.5883  0.6039 -0.1009
   48CHL1  H16B 3501   3.465   2.713   5.151  1.2669 -0.2496 -0.5682
   48CHL1   C17 3502   3.662   2.694   5.047 -0.0581 -0.0036  0.9931
   48CHL1   H17 3503   3.634   2.586   5.047 -1.0687  0.1489 -2.1737
   48CHL1   C13 3504   3.693   2.733   4.894 -0.1946 -0.2621 -0.2547
   48CHL1   C18 3505   3.741   2.878   4.892 -0.4235  1.0286 -0.4291
   48CHL1  H18A 3506   3.680   2.944   4.958  0.8273  1.1597  0.6500
   48CHL1  H18B 3507   3.842   2.886   4.937 -0.2788  0.5335 -0.6568
   48CHL1  H18C 3508   3.763   2.915   4.790 -0.5560 -1.6662 -1.5357
   48CHL1   C12 3509   3.780   2.643   4.821 -0.1750  0.7680 -0.4343
   48CHL1  H12A 3510   3.885   2.656   4.853 -0.1326 -2.4881  1.1067
   48CHL1  H12B 3511   3.765   2.534   4.836 -1.8706  0.7338 -2.0326
   48CHL1   C11 3512   3.787   2.680   4.670  0.4644  0.0239 -0.1824
   48CHL1  H11A 3513   3.833   2.780   4.660 -0.6915  0.6222  0.2722
   48CHL1  H11B 3514   3.854   2.610   4.615 -0.5180 -0.3040 -1.0062
   48CHL1    C9 3515   3.647   2.683   4.603 -0.1913  0.7537 -0.1041
   48CHL1    H9 3516   3.612   2.578   4.618 -1.8406  1.2447 -0.3906
   48CHL1   C10 3517   3.664   2.704   4.451 -0.2720 -0.9874 -0.0745
   48CHL1   C19 3518   3.738   2.837   4.424  0.1109  0.4421 -0.2975
   48CHL1  H19A 3519   3.845   2.821   4.447 -0.1041 -0.6405 -0.0035
   48CHL1  H19B 3520   3.728   2.867   4.317 -0.8931 -1.0412 -0.6629
   48CHL1  H19C 3521   3.696   2.915   4.491  2.5733  1.6432 -0.0600
   48CHL1    C1 3522   3.732   2.588   4.376 -0.5088 -0.2050 -0.6012
   48CHL1   H1A 3523   3.838   2.579   4.405 -0.7824 -1.3890  0.1353
   48CHL1   H1B 3524   3.687   2.497   4.422 -0.0953 -0.0674  0.0825
   48CHL1    C2 3525   3.703   2.587   4.224  0.0989  0.1192 -0.1113
   48CHL1   H2A 3526   3.733   2.489   4.181 -0.1736 -0.3930  0.8377
   48CHL1   H2B 3527   3.770   2.659   4.171 -0.0713  0.3334 -0.0385
   48CHL1   C20 3528   3.778   2.715   5.146  0.0520  0.2722  0.9732
   48CHL1   H20 3529   3.827   2.815   5.139  2.0101 -0.5838  1.6335
   48CHL1   C21 3530   3.897   2.609   5.127 -0.1516 -0.3433 -0.0650
   48CHL1  H21A 3531   3.966   2.603   5.214 -0.9228  0.0392  0.5941
   48CHL1  H21B 3532   3.953   2.621   5.033 -2.8214  1.5894 -1.5531
   48CHL1  H21C 3533   3.854   2.507   5.120  0.4847 -0.4983 -2.2165
   48CHL1   C22 3534   3.728   2.706   5.292  0.3114  0.3422 -0.7382
   48CHL1  H22A 3535   3.812   2.717   5.365 -1.2557  0.2102  1.1814
   48CHL1  H22B 3536   3.659   2.792   5.303  1.6292  1.4543 -0.9474
   48CHL1   C23 3537   3.651   2.575   5.320 -0.2658 -0.5352  0.3695
   48CHL1  H23A 3538   3.553   2.572   5.268 -0.5007 -0.6047  0.8087
   48CHL1  H23B 3539   3.708   2.488   5.281  1.2316  0.7098 -0.2954
   48CHL1   C24 3540   3.626   2.547   5.469 -0.0873 -0.1451 -0.6459
   48CHL1  H24A 3541   3.721   2.569   5.524 -0.2967 -2.9971  1.0493
   48CHL1  H24B 3542   3.570   2.634   5.509 -2.1294 -0.4140 -2.7314
   48CHL1   C25 3543   3.562   2.414   5.514  0.6042  0.1098 -1.0293
   48CHL1   H25 3544   3.501   2.381   5.426 -1.3174  1.7322 -0.3679
   48CHL1   C26 3545   3.671   2.317   5.546 -0.1781  0.3423  0.4781
   48CHL1  H26A 3546   3.635   2.213   5.557 -1.2426  0.2668 -2.7582
   48CHL1  H26B 3547   3.749   2.300   5.469  0.5165  1.9208  0.7997
   48CHL1  H26C 3548   3.736   2.349   5.631  2.5704 -0.8547 -1.0301
   48CHL1   C27 3549   3.456   2.430   5.623 -1.2700 -0.5616 -0.6460
   48CHL1  H27A 3550   3.490   2.466   5.723 -1.6002 -0.5802 -0.5254
   48CHL1  H27B 3551   3.380   2.504   5.590  0.1037  1.3577  0.2968
   48CHL1  H27C 3552   3.407   2.332   5.638 -0.2841 -1.1773 -1.3495
   49CHL1    C3 3553   5.166   4.235   4.515 -0.8143 -0.5329 -0.2864
   49CHL1    H3 3554   5.119   4.135   4.502 -0.4598 -0.5460 -1.5650
   49CHL1    O3 3555   5.185   4.288   4.382  0.0208 -0.2924  0.4468
   49CHL1   H3' 3556   5.190   4.383   4.389  0.6715 -0.3230  0.4491
   49CHL1    C4 3557   5.070   4.324   4.594  0.7729 -0.8082  0.2864
   49CHL1   H4A 3558   5.109   4.428   4.581 -1.1259 -0.2696 -1.7401
   49CHL1   H4B 3559   4.972   4.326   4.541  1.4478  0.9095 -1.0219
   49CHL1    C5 3560   5.062   4.286   4.743  0.6934  0.1878  0.3009
   49CHL1    C6 3561   4.948   4.258   4.800 -0.8775  0.8659  0.4100
   49CHL1    H6 3562   4.856   4.258   4.740 -1.0582  0.9604  0.6873
   49CHL1    C7 3563   4.920   4.222   4.943 -0.0152  0.4026 -0.2392
   49CHL1   H7A 3564   4.851   4.293   4.993 -3.4528 -2.2470 -0.8667
   49CHL1   H7B 3565   4.878   4.120   4.950  0.4332 -0.0176 -2.7115
   49CHL1    C8 3566   5.052   4.238   5.019 -0.0618  0.9048 -0.2246
   49CHL1    H8 3567   5.071   4.344   5.047 -0.8082  0.7675  0.8677
   49CHL1   C14 3568   5.036   4.155   5.148 -0.0339 -0.5105 -0.3051
   49CHL1   H14 3569   5.035   4.049   5.115 -0.1932 -0.8442  0.7271
   49CHL1   C15 3570   4.917   4.179   5.238  0.4082  0.1245 -0.1913
   49CHL1  H15A 3571   4.900   4.288   5.220  2.8785  0.6561  0.3423
   49CHL1  H15B 3572   4.830   4.118   5.205  1.6572 -1.4391 -0.7060
   49CHL1   C16 3573   4.964   4.136   5.377  0.3920  0.2561  0.6646
   49CHL1  H16A 3574   4.949   4.213   5.456  0.1259 -2.2950  3.2697
   49CHL1  H16B 3575   4.907   4.043   5.398  1.1855 -0.4848 -0.3972
   49CHL1   C17 3576   5.114   4.100   5.366  0.1616 -0.3965 -0.0735
   49CHL1   H17 3577   5.124   3.995   5.329  1.6549  0.2605 -1.6652
   49CHL1   C13 3578   5.152   4.175   5.239  0.5093  0.3875 -0.4840
   49CHL1   C18 3579   5.179   4.325   5.281 -0.0572 -0.1896 -0.2003
   49CHL1  H18A 3580   5.093   4.369   5.336  0.7302 -0.2727  1.1595
   49CHL1  H18B 3581   5.258   4.325   5.360  0.9274  0.5171 -1.1589
   49CHL1  H18C 3582   5.209   4.390   5.197  3.4020 -1.4927 -0.1244
   49CHL1   C12 3583   5.280   4.123   5.174  0.0272  0.1647  0.0398
   49CHL1  H12A 3584   5.374   4.137   5.231 -0.5131  0.2225  0.9476
   49CHL1  H12B 3585   5.277   4.013   5.160  0.2152  0.0268  1.0448
   49CHL1   C11 3586   5.305   4.186   5.034 -0.0320  0.3294  0.1444
   49CHL1  H11A 3587   5.317   4.296   5.045  0.1598  0.3898 -0.6132
   49CHL1  H11B 3588   5.403   4.156   4.991 -0.8530 -0.9144 -0.9313
   49CHL1    C9 3589   5.179   4.185   4.940 -0.3454  0.5194  0.3862
   49CHL1    H9 3590   5.157   4.079   4.914 -4.9904  0.5486  3.1581
   49CHL1   C10 3591   5.200   4.261   4.805  0.0181 -0.2249 -0.2491
   49CHL1   C19 3592   5.270   4.391   4.833  0.1801  1.0442  0.1325
   49CHL1  H19A 3593   5.284   4.436   4.733 -2.2191 -0.2089 -0.8393
   49CHL1  H19B 3594   5.212   4.458   4.899 -2.3615  0.2900 -1.2195
   49CHL1  H19C 3595   5.372   4.369   4.873 -1.0446 -1.6770  2.1191
   49CHL1    C1 3596   5.283   4.171   4.712  0.1655  0.0450  0.1160
   49CHL1   H1A 3597   5.385   4.168   4.757  0.5379 -0.6418 -0.7477
   49CHL1   H1B 3598   5.233   4.072   4.705 -2.9156  1.5941 -1.6036
   49CHL1    C2 3599   5.304   4.223   4.571  0.2136 -0.0614  0.2349
   49CHL1   H2A 3600   5.366   4.147   4.518  0.9585  0.7391 -0.0743
   49CHL1   H2B 3601   5.351   4.323   4.558 -0.6332  0.3430  0.2170
   49CHL1   C20 3602   5.173   4.118   5.509  0.4046  1.2413 -1.0859
   49CHL1   H20 3603   5.163   4.226   5.533 -1.3365  1.0946 -1.0039
   49CHL1   C21 3604   5.323   4.086   5.516 -0.0461  0.1875  0.2618
   49CHL1  H21A 3605   5.372   4.130   5.606  0.6464  0.4967 -0.2623
   49CHL1  H21B 3606   5.372   4.130   5.427 -1.2328 -1.0533 -1.0417
   49CHL1  H21C 3607   5.344   3.978   5.504 -0.0373 -0.0119  1.8461
   49CHL1   C22 3608   5.098   4.060   5.629 -0.2921  0.2391 -0.7244
   49CHL1  H22A 3609   4.988   4.058   5.609 -0.8281 -2.6207  1.7753
   49CHL1  H22B 3610   5.142   3.958   5.640  1.0037  1.0105  2.2147
   49CHL1   C23 3611   5.125   4.144   5.763  0.8325  0.7112 -0.3342
   49CHL1  H23A 3612   5.233   4.152   5.786  1.0261 -0.6852 -0.6803
   49CHL1  H23B 3613   5.093   4.249   5.743  4.0254  1.5699 -1.5932
   49CHL1   C24 3614   5.045   4.082   5.883 -0.1004 -0.2919 -0.2272
   49CHL1  H24A 3615   4.937   4.062   5.864  0.3367 -2.6748 -0.6495
   49CHL1  H24B 3616   5.098   3.987   5.906  0.1346 -0.2361 -0.5257
   49CHL1   C25 3617   5.052   4.165   6.022 -0.1199  0.0476  0.0396
   49CHL1   H25 3618   5.009   4.267   6.015 -0.0648  0.0749  0.1010
   49CHL1   C26 3619   4.970   4.078   6.121 -0.2159 -0.1923  0.3767
   49CHL1  H26A 3620   5.018   3.979   6.139 -0.0278 -0.1438  0.1500
   49CHL1  H26B 3621   4.979   4.130   6.219  1.6031 -0.0480  0.1785
   49CHL1  H26C 3622   4.863   4.081   6.093 -0.6043 -3.0000  1.2555
   49CHL1   C27 3623   5.200   4.169   6.079 -0.5048  0.2516  0.3738
   49CHL1  H27A 3624   5.240   4.068   6.100  0.8598  1.4583  4.5435
   49CHL1  H27B 3625   5.280   4.219   6.020  0.1718  0.2417  1.2668
   49CHL1  H27C 3626   5.196   4.208   6.183  0.2150 -2.3187  1.4294
   50CHL1    C3 3627   3.845   4.820   4.462  0.4437 -0.1158  0.4812
   50CHL1    H3 3628   3.900   4.724   4.450  1.4103  0.5325 -0.4372
   50CHL1    O3 3629   3.775   4.862   4.350 -0.0528  0.5650  0.2244
   50CHL1   H3' 3630   3.841   4.917   4.306  0.4227 -1.4035 -1.7006
   50CHL1    C4 3631   3.745   4.788   4.570  0.3329  0.1499 -0.1251
   50CHL1   H4A 3632   3.672   4.870   4.585 -0.8662 -0.5137 -1.9137
   50CHL1   H4B 3633   3.681   4.703   4.536  0.8844  0.1745 -1.2663
   50CHL1    C5 3634   3.817   4.752   4.699 -0.2049  0.4578  0.0216
   50CHL1    C6 3635   3.795   4.627   4.753 -0.2442 -0.6082  0.0536
   50CHL1    H6 3636   3.726   4.559   4.702  1.8806 -2.7051 -0.1893
   50CHL1    C7 3637   3.866   4.580   4.880 -0.3406 -0.8316 -0.0065
   50CHL1   H7A 3638   3.795   4.520   4.941 -1.9944  0.5489 -0.4889
   50CHL1   H7B 3639   3.956   4.517   4.863  1.8048  2.1461 -0.4202
   50CHL1    C8 3640   3.912   4.704   4.970  0.2239  0.4356  0.1574
   50CHL1    H8 3641   3.826   4.759   5.014 -0.4925 -0.8655  0.4377
   50CHL1   C14 3642   3.998   4.651   5.082 -0.4233 -0.4677  0.2736
   50CHL1   H14 3643   4.090   4.615   5.030  0.1809  2.7009 -1.0851
   50CHL1   C15 3644   3.948   4.543   5.183  0.1820 -0.3216  0.2576
   50CHL1  H15A 3645   3.843   4.568   5.208  0.5762  1.5598  0.1967
   50CHL1  H15B 3646   3.956   4.449   5.123  1.8720 -0.1082  0.1017
   50CHL1   C16 3647   4.050   4.555   5.300  0.4280 -0.5803 -0.4065
   50CHL1  H16A 3648   3.993   4.558   5.396 -0.5472  0.5722 -1.0005
   50CHL1  H16B 3649   4.114   4.464   5.310  1.0031  0.0476  4.0233
   50CHL1   C17 3650   4.140   4.679   5.277  0.8011  0.0587 -0.1363
   50CHL1   H17 3651   4.234   4.654   5.222 -0.2930 -0.0204 -2.0541
   50CHL1   C13 3652   4.054   4.762   5.182 -0.3493 -0.2513 -0.4539
   50CHL1   C18 3653   3.942   4.832   5.265  0.3616  0.3762  0.6387
   50CHL1  H18A 3654   3.983   4.892   5.349 -0.0791  0.7872  0.5690
   50CHL1  H18B 3655   3.894   4.910   5.202  0.7815  0.6133  0.6149
   50CHL1  H18C 3656   3.877   4.751   5.305  0.9981 -1.0170 -1.0585
   50CHL1   C12 3657   4.129   4.866   5.092 -0.3122 -0.0801 -0.1265
   50CHL1  H12A 3658   4.168   4.958   5.142 -1.0361 -0.5976  1.4402
   50CHL1  H12B 3659   4.211   4.806   5.048 -1.0617 -1.3694  0.1805
   50CHL1   C11 3660   4.048   4.918   4.974 -0.6565  0.7902  0.1823
   50CHL1  H11A 3661   3.972   4.988   5.016 -0.1246  0.3284  2.0146
   50CHL1  H11B 3662   4.113   4.979   4.909 -0.5260  2.5386  1.8532
   50CHL1    C9 3663   3.992   4.805   4.884  0.0102  0.3985 -0.5402
   50CHL1    H9 3664   4.081   4.746   4.853 -1.2436 -1.6824 -0.4092
   50CHL1   C10 3665   3.916   4.855   4.750 -0.5482 -0.4740 -0.7537
   50CHL1   C19 3666   3.844   4.985   4.774 -0.1974  0.2874 -0.9285
   50CHL1  H19A 3667   3.910   5.064   4.816 -0.5604  1.1759 -1.9558
   50CHL1  H19B 3668   3.808   5.028   4.678 -1.2456  2.8382  0.5061
   50CHL1  H19C 3669   3.757   4.966   4.840  0.7073  1.2278  0.5804
   50CHL1    C1 3670   4.020   4.877   4.638  0.7695 -0.5262  0.6772
   50CHL1   H1A 3671   4.092   4.959   4.655 -1.6538  2.1907 -1.0790
   50CHL1   H1B 3672   4.074   4.782   4.619  0.1138 -0.4052 -2.1624
   50CHL1    C2 3673   3.962   4.911   4.498 -0.8761  0.5579 -0.0797
   50CHL1   H2A 3674   4.045   4.904   4.424  1.2696  1.2870  2.0902
   50CHL1   H2B 3675   3.934   5.018   4.505  0.9618  0.9837  1.9226
   50CHL1   C20 3676   4.187   4.748   5.410  0.8434  0.5853 -0.2075
   50CHL1   H20 3677   4.099   4.780   5.470  0.1727 -1.3695 -0.0715
   50CHL1   C21 3678   4.283   4.865   5.373  0.9829 -0.0348  0.6096
   50CHL1  H21A 3679   4.220   4.944   5.327  1.0771  1.3752  2.7165
   50CHL1  H21B 3680   4.362   4.834   5.301 -1.3922 -1.4268 -1.5483
   50CHL1  H21C 3681   4.337   4.909   5.460 -0.3291 -2.1420  2.6121
   50CHL1   C22 3682   4.269   4.652   5.501 -0.2698  0.3930 -0.7653
   50CHL1  H22A 3683   4.233   4.548   5.482 -3.9879  1.5287 -0.7316
   50CHL1  H22B 3684   4.378   4.655   5.478  0.1209 -0.5839  0.8042
   50CHL1   C23 3685   4.243   4.692   5.650 -0.0077  0.7088 -0.5035
   50CHL1  H23A 3686   4.287   4.787   5.687 -0.1652  0.1960  1.0991
   50CHL1  H23B 3687   4.135   4.698   5.674 -0.2330  2.7182 -1.8179
   50CHL1   C24 3688   4.298   4.583   5.746  0.4795  0.8377  0.2363
   50CHL1  H24A 3689   4.259   4.482   5.720  0.0529  0.4744  2.1315
   50CHL1  H24B 3690   4.408   4.577   5.727  0.4426  1.0564 -0.0403
   50CHL1   C25 3691   4.269   4.601   5.898  0.0907 -0.2860  0.3287
   50CHL1   H25 3692   4.321   4.516   5.946 -0.7627 -0.7755  0.4100
   50CHL1   C26 3693   4.321   4.733   5.958 -0.2289 -0.1213 -0.1661
   50CHL1  H26A 3694   4.317   4.727   6.069  3.2889  0.5006  0.0991
   50CHL1  H26B 3695   4.428   4.723   5.930 -0.0996 -1.4661  0.6952
   50CHL1  H26C 3696   4.283   4.829   5.917  0.4985  0.4723  0.5330
   50CHL1   C27 3697   4.124   4.571   5.940  0.8368  0.4603 -0.0662
   50CHL1  H27A 3698   4.119   4.568   6.051 -0.6925  2.2562 -0.0394
   50CHL1  H27B 3699   4.055   4.647   5.898  0.8139 -1.0335 -2.9802
   50CHL1  H27C 3700   4.086   4.473   5.904 -0.7617  0.2613  1.9567
   51CHL1    C3 3701   0.750   5.915   4.538 -0.3093 -0.2965 -0.6867
   51CHL1    H3 3702   0.728   6.024   4.535 -0.6060 -0.3187  0.2718
   51CHL1    O3 3703   0.742   5.854   4.414  0.1327  0.2895  0.0925
   51CHL1   H3' 3704   0.737   5.759   4.428  0.2351 -0.1283 -2.3198
   51CHL1    C4 3705   0.900   5.907   4.582  0.5763 -0.9976  0.2953
   51CHL1   H4A 3706   0.927   5.802   4.560 -0.1672 -1.0185 -0.5449
   51CHL1   H4B 3707   0.972   5.958   4.514 -0.8374  0.1487 -0.3741
   51CHL1    C5 3708   0.925   5.935   4.730 -0.1139  0.3348  0.0141
   51CHL1    C6 3709   1.022   6.017   4.774 -0.2064 -0.7953 -0.0519
   51CHL1    H6 3710   1.097   6.057   4.704 -1.9493 -0.5336 -1.8468
   51CHL1    C7 3711   1.043   6.053   4.923 -0.0644 -0.5844  0.3323
   51CHL1   H7A 3712   1.152   6.042   4.944 -0.1564 -1.6860  0.2860
   51CHL1   H7B 3713   1.018   6.160   4.943  2.1862 -0.1118  0.9438
   51CHL1    C8 3714   0.964   5.963   5.019 -0.0840 -0.4408 -0.1410
   51CHL1    H8 3715   1.031   5.875   5.027  1.4725  0.5710 -1.3047
   51CHL1   C14 3716   0.949   6.026   5.161  0.4377 -0.0626  0.0296
   51CHL1   H14 3717   0.897   6.123   5.146  1.8642  0.8398  0.7020
   51CHL1   C15 3718   1.076   6.061   5.234 -0.5257 -0.6811 -0.2800
   51CHL1  H15A 3719   1.149   5.982   5.205 -0.4739 -0.3499 -1.0782
   51CHL1  H15B 3720   1.094   6.165   5.200 -2.8810 -1.0198 -2.9143
   51CHL1   C16 3721   1.040   6.059   5.382  0.6640 -0.0514 -0.1100
   51CHL1  H16A 3722   1.097   5.977   5.431  0.0993 -0.2800  0.1769
   51CHL1  H16B 3723   1.065   6.153   5.435  1.3288 -0.4573  0.3094
   51CHL1   C17 3724   0.892   6.027   5.386 -0.0935  0.2394  0.2553
   51CHL1   H17 3725   0.836   6.122   5.374  0.4980  1.1534  3.5874
   51CHL1   C13 3726   0.871   5.940   5.261  0.3607 -0.3319 -0.5843
   51CHL1   C18 3727   0.924   5.798   5.286  0.2384 -0.7792 -0.8228
   51CHL1  H18A 3728   1.003   5.796   5.364 -1.0347 -2.4312  0.4835
   51CHL1  H18B 3729   0.850   5.723   5.321  0.3170 -1.0930 -1.3152
   51CHL1  H18C 3730   0.972   5.745   5.200  1.8890 -1.4664  0.4714
   51CHL1   C12 3731   0.724   5.941   5.203 -0.7007  0.3105 -0.5375
   51CHL1  H12A 3732   0.657   5.887   5.274  0.5543  1.1736  1.4041
   51CHL1  H12B 3733   0.689   6.044   5.183 -2.2328 -0.1736 -0.5090
   51CHL1   C11 3734   0.727   5.863   5.071  0.5922 -0.7981 -0.2991
   51CHL1  H11A 3735   0.741   5.755   5.092  4.3026 -0.0066  2.2253
   51CHL1  H11B 3736   0.620   5.865   5.043  0.9298 -1.6833 -1.7512
   51CHL1    C9 3737   0.826   5.928   4.972 -0.5427  0.2200 -0.1213
   51CHL1    H9 3738   0.780   6.029   4.974 -1.5014 -0.2124  0.6881
   51CHL1   C10 3739   0.819   5.875   4.833  0.3626  0.5356 -0.0044
   51CHL1   C19 3740   0.844   5.715   4.844  0.1328  0.4488 -0.0068
   51CHL1  H19A 3741   0.924   5.693   4.919 -0.2449  2.1867  0.9752
   51CHL1  H19B 3742   0.755   5.657   4.877  0.1723 -0.4251 -1.3597
   51CHL1  H19C 3743   0.883   5.677   4.748  0.8437  1.7006 -0.2356
   51CHL1    C1 3744   0.685   5.898   4.782  0.1601  0.5771  0.6319
   51CHL1   H1A 3745   0.608   5.841   4.839  0.0801  1.9706  2.0075
   51CHL1   H1B 3746   0.661   6.007   4.779 -0.2340  0.4796 -0.9442
   51CHL1    C2 3747   0.661   5.840   4.638 -0.1560  0.0980  0.1081
   51CHL1   H2A 3748   0.554   5.849   4.609 -0.2996 -1.6760 -0.0202
   51CHL1   H2B 3749   0.687   5.734   4.620 -0.2600  0.3144 -1.4662
   51CHL1   C20 3750   0.848   5.982   5.522 -0.7029 -0.5919 -0.2347
   51CHL1   H20 3751   0.888   5.881   5.547 -0.0830 -0.3380 -0.1827
   51CHL1   C21 3752   0.694   5.992   5.526 -0.0478 -0.1498 -0.6029
   51CHL1  H21A 3753   0.671   6.101   5.532  1.0472  0.0460  0.9784
   51CHL1  H21B 3754   0.654   5.942   5.617  0.6267  1.7743  0.8247
   51CHL1  H21C 3755   0.634   5.948   5.444 -0.5671  1.8086 -1.3358
   51CHL1   C22 3756   0.900   6.067   5.640  0.9962 -0.2573  0.1348
   51CHL1  H22A 3757   1.008   6.047   5.655  0.7389 -0.8817  1.2938
   51CHL1  H22B 3758   0.882   6.174   5.616  0.8800 -0.4584 -0.6769
   51CHL1   C23 3759   0.825   6.021   5.772 -0.0695 -0.8546  0.4557
   51CHL1  H23A 3760   0.726   6.072   5.769  0.7575  0.8301  0.4991
   51CHL1  H23B 3761   0.807   5.912   5.771  1.0532 -1.2153  4.4542
   51CHL1   C24 3762   0.908   6.073   5.894  0.0772  0.2289 -0.3709
   51CHL1  H24A 3763   1.005   6.020   5.889  0.3235  0.7116 -0.8281
   51CHL1  H24B 3764   0.933   6.179   5.870  1.0541 -0.2865 -1.7801
   51CHL1   C25 3765   0.837   6.052   6.027  0.3089 -0.3685 -0.9098
   51CHL1   H25 3766   0.784   5.955   6.032  2.1328 -1.4263 -1.0516
   51CHL1   C26 3767   0.943   6.040   6.135 -0.2452 -0.1209  0.4050
   51CHL1  H26A 3768   0.898   6.042   6.237 -0.0402  0.9469  0.4828
   51CHL1  H26B 3769   1.006   5.950   6.118  0.2094  0.0275  1.2526
   51CHL1  H26C 3770   1.006   6.130   6.152 -2.2221  1.3514  0.3670
   51CHL1   C27 3771   0.745   6.167   6.059  0.1591 -0.5020 -0.6100
   51CHL1  H27A 3772   0.670   6.190   5.981  0.8689  0.5684 -1.0122
   51CHL1  H27B 3773   0.686   6.148   6.151 -3.2404 -1.9838 -2.9050
   51CHL1  H27C 3774   0.813   6.255   6.061  1.3165 -1.3763 -0.3700
   52CHL1    C3 3775   2.802   1.975   4.681  0.7731  0.2485 -0.0167
   52CHL1    H3 3776   2.774   2.082   4.692  0.7919  0.2321  0.1962
   52CHL1    O3 3777   2.772   1.929   4.548  0.2291  0.3592 -0.3453
   52CHL1   H3' 3778   2.859   1.931   4.509  1.3584 -1.7062  1.8446
   52CHL1    C4 3779   2.951   1.959   4.695  0.6262 -0.1660 -0.3810
   52CHL1   H4A 3780   2.984   1.856   4.671  1.1236  0.0681 -0.7403
   52CHL1   H4B 3781   3.004   2.030   4.628  1.2964 -1.6079 -1.4346
   52CHL1    C5 3782   2.995   1.992   4.837 -0.6931  1.3233 -0.5444
   52CHL1    C6 3783   3.096   2.069   4.862  0.2066 -0.8144 -0.0711
   52CHL1    H6 3784   3.150   2.114   4.778 -1.0670 -0.2002 -0.5755
   52CHL1    C7 3785   3.153   2.103   4.999 -0.3166 -0.1194 -0.2185
   52CHL1   H7A 3786   3.263   2.094   4.986  0.0207  1.6777  1.0282
   52CHL1   H7B 3787   3.132   2.209   5.024 -0.5987 -0.0453 -0.7462
   52CHL1    C8 3788   3.095   2.013   5.107  0.3362  0.3062 -0.0774
   52CHL1    H8 3789   3.146   1.916   5.085 -0.4965  0.0139 -0.7762
   52CHL1   C14 3790   3.119   2.079   5.240 -0.2709  0.2937  0.3140
   52CHL1   H14 3791   3.046   2.164   5.243  1.6650  2.1301 -1.6164
   52CHL1   C15 3792   3.251   2.152   5.275 -0.4164 -0.3282 -0.0092
   52CHL1  H15A 3793   3.335   2.093   5.233  1.3195  1.2043  1.1469
   52CHL1  H15B 3794   3.254   2.256   5.235 -0.4090 -0.9202 -1.6241
   52CHL1   C16 3795   3.267   2.150   5.424 -1.0240 -0.4461  0.1626
   52CHL1  H16A 3796   3.360   2.095   5.447 -1.4257 -0.4680  1.8351
   52CHL1  H16B 3797   3.282   2.255   5.456  1.5656 -0.3914 -1.0008
   52CHL1   C17 3798   3.143   2.078   5.485 -0.1543 -0.9045  0.6670
   52CHL1   H17 3799   3.058   2.149   5.496 -0.5713 -0.9928 -1.5122
   52CHL1   C13 3800   3.097   1.997   5.364  0.0066 -0.2154 -0.6019
   52CHL1   C18 3801   3.183   1.872   5.355 -0.4037  0.5104  0.4562
   52CHL1  H18A 3802   3.172   1.793   5.433  0.7025 -0.3793 -0.2397
   52CHL1  H18B 3803   3.168   1.815   5.261 -0.2011 -0.8468  1.2071
   52CHL1  H18C 3804   3.289   1.906   5.363 -0.8465  1.5204  2.7409
   52CHL1   C12 3805   2.954   1.957   5.357 -0.4525 -1.0868  0.4478
   52CHL1  H12A 3806   2.928   1.878   5.431 -0.0965 -0.0860  1.6906
   52CHL1  H12B 3807   2.902   2.051   5.386  4.1335  0.8979  3.3685
   52CHL1   C11 3808   2.904   1.897   5.220 -0.1043  0.6746  0.7838
   52CHL1  H11A 3809   2.954   1.799   5.207 -1.9277 -0.1070 -0.8419
   52CHL1  H11B 3810   2.795   1.877   5.223 -0.3488  1.6396 -0.6116
   52CHL1    C9 3811   2.943   1.986   5.098 -0.4271  0.0065  0.4251
   52CHL1    H9 3812   2.889   2.081   5.113  1.7005  1.4811 -0.6967
   52CHL1   C10 3813   2.912   1.924   4.957  0.2818  0.5733  0.3112
   52CHL1   C19 3814   2.932   1.770   4.962 -0.4161  0.5802 -0.0117
   52CHL1  H19A 3815   2.921   1.730   4.859 -2.3386 -3.1261  1.4474
   52CHL1  H19B 3816   3.041   1.752   4.981 -0.6217  1.2334  2.0255
   52CHL1  H19C 3817   2.863   1.709   5.023 -0.7181  1.2012  0.2804
   52CHL1    C1 3818   2.761   1.948   4.924  0.0039  0.2986  0.4973
   52CHL1   H1A 3819   2.701   1.892   4.999 -2.3424 -1.1871 -2.2619
   52CHL1   H1B 3820   2.749   2.057   4.938  1.6584  0.4159  1.1721
   52CHL1    C2 3821   2.724   1.895   4.785 -0.3061 -0.9323 -0.1555
   52CHL1   H2A 3822   2.615   1.916   4.773 -0.2112 -0.6642 -0.5784
   52CHL1   H2B 3823   2.749   1.788   4.769  2.2572 -1.0143  3.2637
   52CHL1   C20 3824   3.166   2.019   5.624 -0.5108  0.0501  0.3754
   52CHL1   H20 3825   3.218   1.924   5.601  1.4905  0.6915  1.9457
   52CHL1   C21 3826   3.032   2.000   5.690  0.0774  0.9562 -0.5044
   52CHL1  H21A 3827   2.959   1.957   5.618  0.0649 -2.0450  1.1121
   52CHL1  H21B 3828   2.984   2.093   5.727 -0.1125  0.8940 -0.5913
   52CHL1  H21C 3829   3.032   1.915   5.763 -0.1635 -0.3339 -1.9522
   52CHL1   C22 3830   3.268   2.096   5.710 -0.1690  0.6373  0.0182
   52CHL1  H22A 3831   3.356   2.125   5.649  0.1290 -2.2470 -1.0641
   52CHL1  H22B 3832   3.215   2.181   5.758  1.5286  1.8135 -0.0794
   52CHL1   C23 3833   3.328   2.007   5.821  0.2370  1.8766  0.2162
   52CHL1  H23A 3834   3.244   1.974   5.886 -0.3896  0.2726 -1.3168
   52CHL1  H23B 3835   3.368   1.919   5.767 -1.8156 -0.4974  2.3004
   52CHL1   C24 3836   3.436   2.084   5.891  0.4827 -0.9316  0.5286
   52CHL1  H24A 3837   3.513   2.021   5.941  0.2849 -0.9060  0.8696
   52CHL1  H24B 3838   3.490   2.144   5.815  2.0749 -1.0954  1.4623
   52CHL1   C25 3839   3.380   2.191   5.992 -0.6155 -0.1942 -0.3630
   52CHL1   H25 3840   3.318   2.271   5.948  0.2888  0.1265 -1.0978
   52CHL1   C26 3841   3.284   2.128   6.094  0.2196 -0.3743 -0.4970
   52CHL1  H26A 3842   3.258   2.205   6.170 -0.8779  0.0118 -1.2339
   52CHL1  H26B 3843   3.181   2.106   6.057 -0.6088  0.5821  1.1389
   52CHL1  H26C 3844   3.328   2.043   6.151  0.2312 -1.0304 -1.4607
   52CHL1   C27 3845   3.490   2.248   6.075 -0.1364  1.2763  0.8391
   52CHL1  H27A 3846   3.573   2.278   6.008 -0.7188 -0.2471 -0.6412
   52CHL1  H27B 3847   3.460   2.340   6.130 -1.5121  1.2384  0.1897
   52CHL1  H27C 3848   3.524   2.174   6.151  0.1944 -1.5507 -1.8719
   53CHL1    C3 3849   0.651   2.692   4.720  0.8810 -0.3088 -0.0694
   53CHL1    H3 3850   0.542   2.687   4.743  0.4992 -0.8008 -1.8526
   53CHL1    O3 3851   0.666   2.724   4.580  0.0353 -0.6246  0.5420
   53CHL1   H3' 3852   0.624   2.809   4.563  1.5754 -0.2809 -2.0724
   53CHL1    C4 3853   0.722   2.801   4.804 -0.9782  0.3886 -0.2189
   53CHL1   H4A 3854   0.827   2.810   4.771 -0.7196 -0.3444  0.4056
   53CHL1   H4B 3855   0.672   2.895   4.768 -1.2915  0.2115 -0.2517
   53CHL1    C5 3856   0.714   2.774   4.954  0.1531  0.4066  0.5837
   53CHL1    C6 3857   0.655   2.855   5.041 -0.3917 -0.4295  0.9553
   53CHL1    H6 3858   0.622   2.950   4.997  0.3357 -0.9491 -0.8029
   53CHL1    C7 3859   0.639   2.836   5.189  0.1582 -0.2323  0.1360
   53CHL1   H7A 3860   0.676   2.928   5.239  0.4965 -0.5047  0.3910
   53CHL1   H7B 3861   0.532   2.830   5.219  0.6089 -3.1837  1.5402
   53CHL1    C8 3862   0.736   2.716   5.242 -0.0858 -0.1366  0.4346
   53CHL1    H8 3863   0.835   2.766   5.240 -0.6397  1.0175  0.9071
   53CHL1   C14 3864   0.695   2.661   5.377  0.3685  0.1150 -0.1077
   53CHL1   H14 3865   0.594   2.618   5.356  0.3827  0.2710 -0.5079
   53CHL1   C15 3866   0.667   2.756   5.490  0.2983 -0.8909 -0.5180
   53CHL1  H15A 3867   0.743   2.836   5.500  0.1548 -0.9103  0.9818
   53CHL1  H15B 3868   0.567   2.804   5.496  0.2975 -0.9831  0.4595
   53CHL1   C16 3869   0.672   2.664   5.616 -0.3306  0.5048  0.2712
   53CHL1  H16A 3870   0.755   2.705   5.678  1.6049 -0.5336 -1.5049
   53CHL1  H16B 3871   0.574   2.663   5.668 -0.1385 -0.4568  0.6298
   53CHL1   C17 3872   0.699   2.520   5.563 -0.5627 -0.0066 -0.1610
   53CHL1   H17 3873   0.600   2.479   5.532 -0.8034  0.0394  0.5127
   53CHL1   C13 3874   0.768   2.536   5.431 -0.7163  0.1897 -0.2662
   53CHL1   C18 3875   0.916   2.578   5.458 -0.2678 -0.1496  0.4425
   53CHL1  H18A 3876   0.976   2.611   5.370 -0.2065  3.1183  1.5681
   53CHL1  H18B 3877   0.922   2.661   5.532 -0.2721  0.1890  0.0726
   53CHL1  H18C 3878   0.964   2.486   5.497  0.0028 -0.4424 -0.5456
   53CHL1   C12 3879   0.767   2.429   5.326 -0.0457  0.4729 -0.2592
   53CHL1  H12A 3880   0.840   2.355   5.366 -1.4477 -0.3676  0.8528
   53CHL1  H12B 3881   0.668   2.381   5.312  0.8240 -1.0768 -1.3262
   53CHL1   C11 3882   0.820   2.478   5.194 -0.4946  0.1288 -0.0807
   53CHL1  H11A 3883   0.927   2.509   5.196 -0.1902 -0.5056 -2.6540
   53CHL1  H11B 3884   0.826   2.393   5.124  1.7044 -2.2437  2.7395
   53CHL1    C9 3885   0.741   2.598   5.143  0.3767 -0.3971  0.1291
   53CHL1    H9 3886   0.636   2.562   5.140 -0.5854  1.9949  1.7783
   53CHL1   C10 3887   0.772   2.639   4.995  0.1317  0.1052 -0.4195
   53CHL1   C19 3888   0.922   2.661   4.974  0.1588  0.2009 -0.6157
   53CHL1  H19A 3889   0.945   2.702   4.874  0.4420  0.3641 -0.4850
   53CHL1  H19B 3890   0.970   2.727   5.049 -0.9863 -0.7152  0.9931
   53CHL1  H19C 3891   0.974   2.563   4.966 -0.1242  0.0680 -0.8365
   53CHL1    C1 3892   0.726   2.528   4.894 -0.8430 -0.4431  0.1341
   53CHL1   H1A 3893   0.769   2.432   4.929  0.4841 -0.3935 -1.2317
   53CHL1   H1B 3894   0.619   2.516   4.924 -0.4007 -0.5391  1.7128
   53CHL1    C2 3895   0.723   2.559   4.742 -0.9919 -0.9256  0.4652
   53CHL1   H2A 3896   0.681   2.471   4.688 -0.4996 -1.5134  1.0208
   53CHL1   H2B 3897   0.828   2.583   4.714 -2.3296  2.8160 -2.1837
   53CHL1   C20 3898   0.749   2.416   5.655  0.3010 -0.7027 -0.0208
   53CHL1   H20 3899   0.810   2.341   5.600  1.4098 -1.8212  2.5536
   53CHL1   C21 3900   0.621   2.363   5.722  0.1745 -0.0766  0.0652
   53CHL1  H21A 3901   0.565   2.438   5.781 -0.0464  0.7108 -1.1283
   53CHL1  H21B 3902   0.639   2.275   5.788  0.2081 -1.7972 -2.1457
   53CHL1  H21C 3903   0.545   2.335   5.646  1.4628 -0.4641 -1.1260
   53CHL1   C22 3904   0.852   2.480   5.759  0.5725  0.5973  0.0413
   53CHL1  H22A 3905   0.931   2.539   5.709  0.9313  2.5044  2.6590
   53CHL1  H22B 3906   0.794   2.547   5.826 -1.2637 -0.3335 -0.5405
   53CHL1   C23 3907   0.931   2.377   5.835  0.4451 -1.1601 -0.1380
   53CHL1  H23A 3908   0.862   2.301   5.876 -0.8412  0.7941  1.5052
   53CHL1  H23B 3909   1.009   2.318   5.782  5.0615  2.0741  2.3943
   53CHL1   C24 3910   1.010   2.449   5.950  0.0553  0.4028  0.8506
   53CHL1  H24A 3911   1.065   2.537   5.911  1.4830 -0.4932  0.7509
   53CHL1  H24B 3912   0.935   2.475   6.028 -0.2462 -0.9242  1.0378
   53CHL1   C25 3913   1.116   2.367   6.031  0.3530  0.0468  0.5724
   53CHL1   H25 3914   1.093   2.259   6.025 -2.2183  0.5678 -0.1844
   53CHL1   C26 3915   1.261   2.401   5.979  0.3039  0.2576  0.4618
   53CHL1  H26A 3916   1.330   2.337   6.038 -0.1720  1.6818  2.6921
   53CHL1  H26B 3917   1.262   2.388   5.869 -0.3415  0.9863  0.3646
   53CHL1  H26C 3918   1.279   2.508   6.004  0.2868  0.8320 -1.7780
   53CHL1   C27 3919   1.107   2.401   6.182  0.2031 -0.7726 -0.0615
   53CHL1  H27A 3920   1.194   2.355   6.233 -1.1660 -2.6743  0.6807
   53CHL1  H27B 3921   1.103   2.510   6.201 -0.2995 -1.1853  2.5558
   53CHL1  H27C 3922   1.015   2.352   6.220  0.0150 -1.7207 -1.6295
   54CHL1    C3 3923   0.478   6.343   4.629 -0.2320  0.4019  0.5556
   54CHL1    H3 3924   0.372   6.309   4.634  0.1473 -0.9230  0.0521
   54CHL1    O3 3925   0.531   6.342   4.501  0.2483  0.2458  0.0707
   54CHL1   H3' 3926   0.530   6.252   4.467 -4.0333  0.7839 -1.7851
   54CHL1    C4 3927   0.475   6.490   4.681 -0.1991  0.8068 -0.2441
   54CHL1   H4A 3928   0.569   6.542   4.652 -0.0563  0.7623  0.1337
   54CHL1   H4B 3929   0.392   6.532   4.620  0.1576  0.4073 -1.0268
   54CHL1    C5 3930   0.452   6.500   4.830  0.6177 -0.2733  0.0281
   54CHL1    C6 3931   0.371   6.593   4.885 -0.3479  0.5675  0.6178
   54CHL1    H6 3932   0.317   6.656   4.812 -0.8179  0.6217  1.0076
   54CHL1    C7 3933   0.350   6.611   5.031  0.4546 -0.1081  0.5989
   54CHL1   H7A 3934   0.339   6.717   5.065  0.1210  0.1252 -0.2007
   54CHL1   H7B 3935   0.256   6.557   5.055  0.2695 -0.1837 -0.2650
   54CHL1    C8 3936   0.469   6.540   5.110 -0.1482 -0.3158  0.3586
   54CHL1    H8 3937   0.559   6.605   5.100 -1.3445  1.0801 -2.3837
   54CHL1   C14 3938   0.438   6.532   5.260 -0.3011  0.2720  0.7422
   54CHL1   H14 3939   0.344   6.472   5.261 -1.0747  1.4064 -0.2700
   54CHL1   C15 3940   0.386   6.663   5.325  0.1298 -0.3558 -0.5786
   54CHL1  H15A 3941   0.452   6.742   5.284  0.8255  0.3766  1.7971
   54CHL1  H15B 3942   0.277   6.673   5.303  0.2455 -0.7110 -1.3629
   54CHL1   C16 3943   0.403   6.643   5.473 -0.0609  0.1397 -0.4946
   54CHL1  H16A 3944   0.453   6.734   5.513  2.7340 -0.9032 -1.3254
   54CHL1  H16B 3945   0.308   6.624   5.526 -0.0526 -2.1365 -1.1877
   54CHL1   C17 3946   0.483   6.509   5.493 -0.2239  0.5721 -0.9471
   54CHL1   H17 3947   0.412   6.426   5.511  0.3068  0.3445  0.1465
   54CHL1   C13 3948   0.548   6.481   5.355  0.1978  0.4732  0.5547
   54CHL1   C18 3949   0.678   6.567   5.344  0.2882 -0.2619 -0.2450
   54CHL1  H18A 3950   0.653   6.671   5.376  3.4861  0.5789 -0.1595
   54CHL1  H18B 3951   0.762   6.520   5.399 -0.0406 -0.1318  0.3742
   54CHL1  H18C 3952   0.712   6.570   5.238 -2.7514 -1.7514 -1.3685
   54CHL1   C12 3953   0.572   6.337   5.307  0.2606  0.1021  0.4069
   54CHL1  H12A 3954   0.660   6.298   5.362  0.8237 -0.7095 -1.0160
   54CHL1  H12B 3955   0.477   6.281   5.319  0.3057  0.2281  1.4549
   54CHL1   C11 3956   0.615   6.338   5.157  0.5790 -0.2781 -0.0942
   54CHL1  H11A 3957   0.707   6.400   5.149 -0.3485  1.4666  1.9956
   54CHL1  H11B 3958   0.636   6.235   5.120  3.1504  0.0687  0.1987
   54CHL1    C9 3959   0.501   6.396   5.062  0.0633  0.4724 -0.0144
   54CHL1    H9 3960   0.408   6.337   5.078  0.7603 -0.6122  0.1292
   54CHL1   C10 3961   0.539   6.398   4.915 -0.5560  0.0708  0.1249
   54CHL1   C19 3962   0.685   6.446   4.901  0.0585 -0.4173 -0.6005
   54CHL1  H19A 3963   0.766   6.372   4.911  2.1454  1.7289 -0.6462
   54CHL1  H19B 3964   0.712   6.480   4.798 -3.2411 -0.7185 -1.6818
   54CHL1  H19C 3965   0.710   6.528   4.972  0.1185 -0.3098 -0.7442
   54CHL1    C1 3966   0.528   6.259   4.854  0.2796  0.8106 -0.3064
   54CHL1   H1A 3967   0.596   6.191   4.910 -1.1080  1.2957  2.0980
   54CHL1   H1B 3968   0.424   6.222   4.868 -0.3045  2.1893 -0.7652
   54CHL1    C2 3969   0.563   6.253   4.707  0.0977  0.5404 -0.1400
   54CHL1   H2A 3970   0.547   6.150   4.670 -0.5767  0.7882 -0.5560
   54CHL1   H2B 3971   0.667   6.290   4.692  0.8335 -2.0001 -1.8161
   54CHL1   C20 3972   0.581   6.509   5.612  0.2791 -0.2357 -0.8257
   54CHL1   H20 3973   0.661   6.583   5.591  0.1598 -0.5597 -2.6072
   54CHL1   C21 3974   0.652   6.368   5.630 -0.1109  0.3204  1.0121
   54CHL1  H21A 3975   0.706   6.362   5.727  1.3390  1.3400  0.3132
   54CHL1  H21B 3976   0.731   6.342   5.555 -1.3862 -0.8740  0.0306
   54CHL1  H21C 3977   0.568   6.296   5.638 -1.0864  1.3955  0.7207
   54CHL1   C22 3978   0.508   6.548   5.737  0.0435 -0.4705 -0.1432
   54CHL1  H22A 3979   0.453   6.644   5.730  2.9501  1.3887  0.5586
   54CHL1  H22B 3980   0.442   6.462   5.760 -0.4832 -0.8400 -2.7264
   54CHL1   C23 3981   0.593   6.582   5.861  0.2923 -1.2949 -0.6954
   54CHL1  H23A 3982   0.673   6.505   5.866  0.9029 -0.7566 -1.7730
   54CHL1  H23B 3983   0.637   6.684   5.852 -0.4835 -0.9480 -0.6516
   54CHL1   C24 3984   0.507   6.581   5.988 -0.4393 -0.5305 -0.5164
   54CHL1  H24A 3985   0.436   6.666   5.986  1.1579  0.9265  1.1414
   54CHL1  H24B 3986   0.447   6.490   6.012 -0.0908  0.1263  3.4099
   54CHL1   C25 3987   0.584   6.620   6.116 -0.1803  0.4880  0.6520
   54CHL1   H25 3988   0.628   6.721   6.106 -0.3415  0.4427 -0.8603
   54CHL1   C26 3989   0.499   6.627   6.237 -0.2107  0.6282  0.1570
   54CHL1  H26A 3990   0.427   6.711   6.237  1.6623  2.3242  1.0956
   54CHL1  H26B 3991   0.451   6.528   6.255  2.2093 -0.6170  0.2848
   54CHL1  H26C 3992   0.565   6.634   6.326 -0.8558 -2.7063  1.0573
   54CHL1   C27 3993   0.707   6.527   6.137 -1.1962  0.1431 -0.2812
   54CHL1  H27A 3994   0.753   6.551   6.235 -0.7361  0.7086 -0.6271
   54CHL1  H27B 3995   0.679   6.421   6.120 -2.7625  0.8560 -2.5553
   54CHL1  H27C 3996   0.783   6.550   6.060 -0.5487  0.4032  0.4266
   55CHL1    C3 3997   3.437   5.055   4.636 -0.1979 -0.1244  0.2453
   55CHL1    H3 3998   3.548   5.044   4.636 -0.1694  0.1554  0.3778
   55CHL1    O3 3999   3.384   5.080   4.503 -0.1215 -0.7091 -0.2875
   55CHL1   H3' 4000   3.408   5.005   4.449  0.2156 -1.6261  1.0692
   55CHL1    C4 4001   3.359   4.936   4.698 -0.2505  0.4087  0.4167
   55CHL1   H4A 4002   3.249   4.952   4.693 -0.0968  1.2779 -0.8130
   55CHL1   H4B 4003   3.375   4.845   4.635  0.0605  0.2459  0.7265
   55CHL1    C5 4004   3.400   4.916   4.842  0.4300  0.1117  0.1347
   55CHL1    C6 4005   3.447   4.797   4.883 -0.7809  0.5352 -0.7550
   55CHL1    H6 4006   3.455   4.704   4.824  1.2094 -2.8497  4.1488
   55CHL1    C7 4007   3.482   4.770   5.029 -0.4927 -0.3252 -0.1532
   55CHL1   H7A 4008   3.414   4.692   5.070  0.6970 -0.3585  1.8563
   55CHL1   H7B 4009   3.584   4.732   5.049 -0.3794 -0.2005 -0.4864
   55CHL1    C8 4010   3.446   4.888   5.124 -0.0002  1.0245 -0.4195
   55CHL1    H8 4011   3.341   4.886   5.158 -1.0162  0.2760 -3.2635
   55CHL1   C14 4012   3.539   4.879   5.249 -0.8537  0.1901  0.2361
   55CHL1   H14 4013   3.638   4.895   5.201 -0.0527 -2.2951  0.9270
   55CHL1   C15 4014   3.554   4.746   5.321  0.1980  0.5306 -0.1014
   55CHL1  H15A 4015   3.447   4.716   5.326  0.1384  0.3851 -1.7384
   55CHL1  H15B 4016   3.616   4.673   5.264  1.5385  0.1343  1.7496
   55CHL1   C16 4017   3.628   4.784   5.448  0.0775 -0.3705  0.1462
   55CHL1  H16A 4018   3.565   4.735   5.525 -0.3857 -1.7328 -1.0487
   55CHL1  H16B 4019   3.723   4.727   5.444 -0.3191 -1.0185 -0.3133
   55CHL1   C17 4020   3.624   4.940   5.455 -0.0669 -0.6499  0.8672
   55CHL1   H17 4021   3.722   4.970   5.412  0.3513 -0.6992  1.7642
   55CHL1   C13 4022   3.522   4.992   5.352 -0.6256 -0.1986  0.7605
   55CHL1   C18 4023   3.387   4.968   5.418  0.3472  0.5022  0.3437
   55CHL1  H18A 4024   3.372   4.882   5.486 -0.5511 -0.2006 -0.7110
   55CHL1  H18B 4025   3.365   5.049   5.491 -1.2936 -2.2514  3.0952
   55CHL1  H18C 4026   3.309   4.963   5.339  0.1053 -1.9345  0.6754
   55CHL1   C12 4027   3.535   5.135   5.297  0.0440  0.6532 -0.4101
   55CHL1  H12A 4028   3.482   5.203   5.367 -2.2676 -3.5800  2.4030
   55CHL1  H12B 4029   3.638   5.172   5.279  0.7340 -0.7119  0.5323
   55CHL1   C11 4030   3.449   5.140   5.166  0.2413 -0.2023 -0.2685
   55CHL1  H11A 4031   3.341   5.133   5.192  0.5681  0.3757  1.3696
   55CHL1  H11B 4032   3.475   5.237   5.119  1.7818 -0.9492 -1.0275
   55CHL1    C9 4033   3.469   5.023   5.067 -0.0500 -0.3199 -0.2526
   55CHL1    H9 4034   3.574   5.022   5.033 -0.3122 -0.6846 -1.0746
   55CHL1   C10 4035   3.389   5.044   4.935  0.2904 -0.5461  0.2937
   55CHL1   C19 4036   3.237   5.069   4.957  0.7642  0.2211  0.7110
   55CHL1  H19A 4037   3.181   5.084   4.862 -2.1245 -0.3175  2.2101
   55CHL1  H19B 4038   3.183   4.985   5.005  0.7811 -0.9150 -1.1790
   55CHL1  H19C 4039   3.218   5.163   5.013  0.0206  1.0729 -0.9101
   55CHL1    C1 4040   3.447   5.167   4.855  0.7152 -0.2890 -0.1855
   55CHL1   H1A 4041   3.430   5.267   4.901  0.9754 -0.9870  1.5208
   55CHL1   H1B 4042   3.557   5.158   4.863  0.6394 -0.2239  1.1897
   55CHL1    C2 4043   3.406   5.181   4.713 -0.5823 -0.2899  0.7048
   55CHL1   H2A 4044   3.467   5.261   4.665 -1.3967  0.1157  0.3143
   55CHL1   H2B 4045   3.300   5.215   4.711  0.0283  1.7365  0.9767
   55CHL1   C20 4046   3.624   4.984   5.601 -0.5843  0.3446  0.0609
   55CHL1   H20 4047   3.525   4.955   5.642 -0.6295 -0.9960 -0.9082
   55CHL1   C21 4048   3.624   5.134   5.613 -0.2803  0.1811 -0.5959
   55CHL1  H21A 4049   3.538   5.182   5.561  0.0083  1.2328 -0.1304
   55CHL1  H21B 4050   3.712   5.177   5.561 -0.6197 -0.9838 -2.2294
   55CHL1  H21C 4051   3.619   5.160   5.721 -1.1563 -1.7682 -0.1213
   55CHL1   C22 4052   3.741   4.918   5.680 -0.1473 -0.2535  0.1479
   55CHL1  H22A 4053   3.739   4.807   5.667 -1.1511 -0.1300 -0.9747
   55CHL1  H22B 4054   3.830   4.965   5.635 -0.1391  0.0471  0.4702
   55CHL1   C23 4055   3.737   4.943   5.832  0.2911  0.3713  0.2462
   55CHL1  H23A 4056   3.754   5.052   5.842  0.2646  0.2034  2.7072
   55CHL1  H23B 4057   3.637   4.916   5.873 -0.1094 -1.1590 -1.6055
   55CHL1   C24 4058   3.847   4.858   5.883  0.1592 -0.4776 -0.9678
   55CHL1  H24A 4059   3.810   4.754   5.875 -0.7118 -0.0818 -2.8863
   55CHL1  H24B 4060   3.938   4.861   5.819 -0.8252  2.7543 -2.4212
   55CHL1   C25 4061   3.871   4.867   6.040  0.2530  0.0632 -0.3534
   55CHL1   H25 4062   3.945   4.786   6.056  2.1785  1.9471  0.8233
   55CHL1   C26 4063   3.948   4.996   6.085 -0.1092  0.3641  0.5112
   55CHL1  H26A 4064   3.886   5.088   6.080  1.2440  1.4052  1.9974
   55CHL1  H26B 4065   4.000   4.999   6.183  0.3550 -1.8014  0.3962
   55CHL1  H26C 4066   4.027   5.013   6.008 -0.3280  0.9315  0.4055
   55CHL1   C27 4067   3.753   4.836   6.130 -0.1463  0.0859  0.6792
   55CHL1  H27A 4068   3.750   4.725   6.124  0.7084  0.1064 -0.6397
   55CHL1  H27B 4069   3.784   4.856   6.234  4.8118 -1.0149 -0.3306
   55CHL1  H27C 4070   3.657   4.884   6.100 -0.5265 -1.0172  0.0630
   56CHL1    C3 4071   4.900   5.719   4.346 -0.3022  0.3171 -0.3552
   56CHL1    H3 4072   4.908   5.615   4.385 -0.9754  0.1755 -0.5866
   56CHL1    O3 4073   4.893   5.733   4.204  0.8066  0.1268  0.0094
   56CHL1   H3' 4074   4.842   5.812   4.183 -0.0392 -0.4611 -0.2418
   56CHL1    C4 4075   4.766   5.764   4.396  0.0331  0.1717 -1.2460
   56CHL1   H4A 4076   4.748   5.870   4.370  1.8281  0.9795  0.5497
   56CHL1   H4B 4077   4.683   5.700   4.358  0.1504 -0.2985 -0.7127
   56CHL1    C5 4078   4.761   5.768   4.550  0.2339 -0.2681 -0.3268
   56CHL1    C6 4079   4.673   5.702   4.625 -0.7898  0.8915  0.0511
   56CHL1    H6 4080   4.608   5.628   4.575  0.5679 -0.7638  0.6328
   56CHL1    C7 4081   4.667   5.712   4.775 -0.7276  0.3762 -0.0679
   56CHL1   H7A 4082   4.562   5.713   4.812 -0.2772  1.4642  1.2590
   56CHL1   H7B 4083   4.720   5.624   4.818 -1.2245 -1.0849 -2.3169
   56CHL1    C8 4084   4.735   5.843   4.831 -0.0153 -0.2019 -0.5686
   56CHL1    H8 4085   4.670   5.927   4.800  0.3082  0.1478 -0.2989
   56CHL1   C14 4086   4.746   5.844   4.984 -0.8079  0.3346 -0.0191
   56CHL1   H14 4087   4.819   5.763   5.004 -1.9103 -0.3441  1.3927
   56CHL1   C15 4088   4.623   5.813   5.067  0.2572  0.4276  0.5427
   56CHL1  H15A 4089   4.537   5.876   5.038  0.8244  1.3346  0.7869
   56CHL1  H15B 4090   4.595   5.706   5.053  0.7441  0.4160 -0.4599
   56CHL1   C16 4091   4.667   5.843   5.209  0.0237 -0.2374 -0.1160
   56CHL1  H16A 4092   4.581   5.891   5.260 -1.0247 -1.6983 -0.4386
   56CHL1  H16B 4093   4.681   5.759   5.280  0.9358 -2.2973 -2.5646
   56CHL1   C17 4094   4.791   5.932   5.197  0.5410 -0.0116  0.2462
   56CHL1   H17 4095   4.872   5.856   5.207 -0.9767 -2.1014 -2.2588
   56CHL1   C13 4096   4.805   5.970   5.051 -0.2069 -0.1911  0.8497
   56CHL1   C18 4097   4.721   6.093   5.016 -0.5143 -0.5014 -0.9831
   56CHL1  H18A 4098   4.619   6.097   5.060 -0.6625  0.4281 -1.3964
   56CHL1  H18B 4099   4.776   6.182   5.052 -0.0869 -0.8865 -0.6625
   56CHL1  H18C 4100   4.708   6.107   4.906  2.9414  1.0303 -1.3221
   56CHL1   C12 4101   4.955   5.978   4.990 -0.3882  0.1302  0.4030
   56CHL1  H12A 4102   5.012   6.070   5.017  2.7049 -1.5969  0.2079
   56CHL1  H12B 4103   5.010   5.892   5.033  1.0793  0.0018 -1.6201
   56CHL1   C11 4104   4.963   5.975   4.837  0.0345 -0.0025  0.1919
   56CHL1  H11A 4105   4.934   6.075   4.799 -1.5079 -0.9668 -1.2967
   56CHL1  H11B 4106   5.071   5.969   4.812 -0.0771 -0.8792 -0.0854
   56CHL1    C9 4107   4.882   5.859   4.768  0.1651 -0.2726 -0.2322
   56CHL1    H9 4108   4.943   5.770   4.795 -0.0414 -0.1176  0.8188
   56CHL1   C10 4109   4.872   5.864   4.611 -0.8113 -0.2965 -0.6941
   56CHL1   C19 4110   4.849   6.009   4.573  0.3688 -1.2772 -0.0400
   56CHL1  H19A 4111   4.840   6.013   4.462  1.7913 -1.9155 -0.2025
   56CHL1  H19B 4112   4.762   6.055   4.623 -0.7563 -2.2638 -1.0375
   56CHL1  H19C 4113   4.936   6.074   4.597 -2.2557  2.0383  1.2615
   56CHL1    C1 4114   5.009   5.820   4.553  0.6934  0.7847 -0.0851
   56CHL1   H1A 4115   5.086   5.890   4.591 -2.3724  3.5844  1.4577
   56CHL1   H1B 4116   5.033   5.720   4.595  2.3539  0.2069 -2.2621
   56CHL1    C2 4117   5.017   5.800   4.399 -0.2369 -0.5821 -0.4265
   56CHL1   H2A 4118   5.111   5.745   4.375  0.3882  1.0059 -1.7712
   56CHL1   H2B 4119   5.026   5.903   4.359  0.9739 -0.1675  0.8401
   56CHL1   C20 4120   4.800   6.048   5.301  0.2705  0.6103 -0.7220
   56CHL1   H20 4121   4.725   6.125   5.272 -2.9594 -0.3029  4.1049
   56CHL1   C21 4122   4.953   6.098   5.304  0.7223  0.4387 -0.2642
   56CHL1  H21A 4123   5.025   6.013   5.295  1.2495  0.9904 -1.5623
   56CHL1  H21B 4124   4.979   6.165   5.389 -2.6128 -0.2209  1.4345
   56CHL1  H21C 4125   4.966   6.164   5.216  0.1575  1.1430  0.1663
   56CHL1   C22 4126   4.757   6.025   5.448  0.2344 -0.0752  0.7534
   56CHL1  H22A 4127   4.773   6.118   5.507  0.4508  1.1700 -1.1868
   56CHL1  H22B 4128   4.647   6.006   5.448 -0.0670  1.4989  0.6750
   56CHL1   C23 4129   4.809   5.906   5.521  0.3672  0.3798  0.7975
   56CHL1  H23A 4130   4.789   5.812   5.464  1.7079  0.9342 -0.6722
   56CHL1  H23B 4131   4.920   5.911   5.524  0.4986  0.2490 -1.8139
   56CHL1   C24 4132   4.751   5.893   5.658  0.2865  0.4226 -0.1668
   56CHL1  H24A 4133   4.641   5.900   5.649  0.2248 -0.5184 -0.2156
   56CHL1  H24B 4134   4.766   5.791   5.700  1.8404  0.5632 -0.3290
   56CHL1   C25 4135   4.808   5.992   5.758 -0.4858 -0.2762  0.2183
   56CHL1   H25 4136   4.804   6.091   5.707 -0.2729 -0.2351  0.2788
   56CHL1   C26 4137   4.714   6.001   5.881 -0.2423 -0.1022  0.2762
   56CHL1  H26A 4138   4.610   6.034   5.859 -0.0863  2.5989  3.0017
   56CHL1  H26B 4139   4.705   5.908   5.942 -0.5669 -3.3316 -4.1823
   56CHL1  H26C 4140   4.749   6.084   5.946  0.4812 -0.7251  0.6947
   56CHL1   C27 4141   4.952   5.964   5.801 -0.6058  0.3914 -0.4326
   56CHL1  H27A 4142   4.949   5.880   5.874 -0.5904 -2.0922 -3.1083
   56CHL1  H27B 4143   5.003   5.925   5.711  0.6451  0.8408  0.0537
   56CHL1  H27C 4144   5.004   6.056   5.835  0.7693  0.3552 -2.3054
   57SAPC     N 4145   5.184   1.951   8.187 -0.2790  0.1192  0.2183
   57SAPC   C12 4146   5.107   1.898   8.067 -0.3944 -0.1756 -0.4075
   57SAPC  H12A 4147   5.146   1.950   7.981  5.0833 -0.3374  1.5906
   57SAPC  H12B 4148   5.003   1.925   8.080 -0.4351 -0.3378 -0.3996
   57SAPC   C13 4149   5.333   1.951   8.157 -0.7163  0.1307  0.2114
   57SAPC  H13A 4150   5.347   1.954   8.050  1.0317 -3.0617  0.2078
   57SAPC  H13B 4151   5.377   2.038   8.204 -4.1611  1.6274  0.9620
   57SAPC  H13C 4152   5.383   1.862   8.192 -0.5906  0.0545 -0.1597
   57SAPC   C14 4153   5.156   2.092   8.212  0.5621 -0.4693  0.6882
   57SAPC  H14A 4154   5.050   2.101   8.231 -0.0335 -2.7695 -1.1806
   57SAPC  H14B 4155   5.208   2.130   8.299 -1.5151  0.5197  1.5687
   57SAPC  H14C 4156   5.179   2.143   8.119 -1.0505 -0.6689  0.1488
   57SAPC   C15 4157   5.155   1.878   8.316  0.1315  0.0716  0.1567
   57SAPC  H15A 4158   5.230   1.903   8.389  0.1581  0.6838 -0.0736
   57SAPC  H15B 4159   5.060   1.888   8.366  0.3652  0.0704  0.6092
   57SAPC  H15C 4160   5.150   1.773   8.292  2.1306 -0.1155  0.4271
   57SAPC   C11 4161   5.102   1.752   8.031 -0.8963 -0.9003 -0.4605
   57SAPC  H11A 4162   5.037   1.735   7.943 -2.2639 -0.0387  0.3305
   57SAPC  H11B 4163   5.065   1.695   8.119  0.0936 -0.2544  0.4072
   57SAPC     P 4164   5.319   1.706   7.873  0.1809 -0.4978 -0.2313
   57SAPC   O13 4165   5.421   1.815   7.878 -0.3065 -0.0756 -0.9368
   57SAPC   O14 4166   5.368   1.567   7.853  0.0384  0.2626  1.0286
   57SAPC   O12 4167   5.234   1.698   8.013  0.5390  0.5906 -0.3662
   57SAPC   O11 4168   5.210   1.737   7.758  0.6327 -0.0323 -0.2106
   57SAPC    C1 4169   5.121   1.633   7.716 -0.0681 -0.6561 -0.1758
   57SAPC    HA 4170   5.101   1.552   7.790 -3.5015 -0.8780 -1.1764
   57SAPC    HB 4171   5.032   1.680   7.669  0.3086 -0.7792 -1.0476
   57SAPC    C2 4172   5.185   1.553   7.584 -0.4471  0.6604 -0.0604
   57SAPC    HS 4173   5.288   1.517   7.608 -0.4559  0.5088 -0.2430
   57SAPC   O21 4174   5.182   1.638   7.459  0.3624  0.3397  0.5292
   57SAPC   C21 4175   5.288   1.706   7.452 -0.1206  0.2244 -0.3545
   57SAPC   O22 4176   5.382   1.708   7.529  0.0767  0.6966 -0.3983
   57SAPC   C22 4177   5.275   1.808   7.338 -0.8886 -0.5046 -0.3433
   57SAPC   H2R 4178   5.215   1.763   7.256 -1.3630  1.1186 -0.9452
   57SAPC   H2S 4179   5.217   1.890   7.385  0.2252 -0.4171  0.9543
   57SAPC    C3 4180   5.102   1.428   7.564  0.0900 -0.4345 -0.1318
   57SAPC    HX 4181   5.014   1.471   7.513  0.4764  0.2853 -0.2049
   57SAPC    HY 4182   5.061   1.378   7.655  2.1771  0.6912  1.5470
   57SAPC   O31 4183   5.157   1.332   7.476  0.0905  0.6654  0.0021
   57SAPC   C31 4184   5.232   1.236   7.539  0.1928 -0.0486 -0.5078
   57SAPC   O32 4185   5.243   1.231   7.661 -0.2156  0.6744  0.1290
   57SAPC   C32 4186   5.283   1.135   7.438 -0.0432  0.2636  0.5043
   57SAPC   H2X 4187   5.326   1.062   7.510 -1.6319 -0.2930  0.9293
   57SAPC   H2Y 4188   5.367   1.185   7.384  2.0618 -1.6913  1.7833
   57SAPC   C23 4189   5.414   1.861   7.279 -0.6176  0.0419  0.4209
   57SAPC   H3R 4190   5.480   1.777   7.250  0.8627  1.2009  0.3566
   57SAPC   H3S 4191   5.469   1.914   7.359 -0.4267  1.9861 -0.9204
   57SAPC   C24 4192   5.401   1.958   7.160  0.1734 -0.6775  0.5238
   57SAPC   H4R 4193   5.506   1.989   7.136  0.0320 -1.3159 -0.9710
   57SAPC   H4S 4194   5.351   2.055   7.181  2.4667  0.7481 -0.1689
   57SAPC   C25 4195   5.343   1.888   7.033  0.2926 -0.8561 -0.7885
   57SAPC   H5R 4196   5.239   1.859   7.054  0.0976  0.8090  0.7151
   57SAPC   C26 4197   5.398   1.873   6.913  0.4996 -0.0361  0.0241
   57SAPC   H6R 4198   5.337   1.825   6.835 -1.0142 -1.4620  1.9736
   57SAPC   C27 4199   5.534   1.912   6.872 -0.2192 -0.1720 -0.7021
   57SAPC   H7R 4200   5.595   1.926   6.964 -1.4401  1.0390 -0.0494
   57SAPC   H7S 4201   5.531   2.018   6.838 -0.3149  0.1432  0.2699
   57SAPC   C28 4202   5.595   1.829   6.756 -0.0371 -0.1665 -0.2521
   57SAPC   H8R 4203   5.643   1.732   6.776 -0.0899 -0.9756 -3.4845
   57SAPC   C29 4204   5.565   1.838   6.626 -0.3557  0.1446  0.8371
   57SAPC   H9R 4205   5.616   1.774   6.552 -0.1295  0.9245  0.3080
   57SAPC  C210 4206   5.488   1.953   6.550  0.1605 -0.2765 -0.8665
   57SAPC  H10R 4207   5.436   2.012   6.629 -0.7966 -1.0658 -0.8874
   57SAPC  H10S 4208   5.409   1.911   6.485  0.0298 -4.1390  1.4267
   57SAPC  C211 4209   5.582   2.057   6.503  0.0244 -0.1872  0.5487
   57SAPC  H11R 4210   5.658   2.089   6.576 -1.3043  2.1335  1.0262
   57SAPC  C212 4211   5.591   2.108   6.380 -0.2545  0.1063 -0.4362
   57SAPC  H12R 4212   5.667   2.184   6.356 -0.4173  0.8359  1.2038
   57SAPC  C213 4213   5.504   2.066   6.261  0.4955  0.0655 -0.1084
   57SAPC  H13R 4214   5.463   2.152   6.204 -2.0765 -1.3071 -0.4616
   57SAPC  H13S 4215   5.411   2.016   6.295 -0.4265  2.3172  0.8588
   57SAPC  C214 4216   5.581   1.986   6.154 -0.2938  0.2513  0.5684
   57SAPC  H14R 4217   5.591   1.876   6.156  2.5153  0.4039 -0.6013
   57SAPC  C215 4218   5.665   2.032   6.063  0.3604  0.3420 -0.3673
   57SAPC  H15R 4219   5.717   1.958   6.000  2.7053 -0.2260  2.0306
   57SAPC  C216 4220   5.709   2.176   6.034 -0.2163  0.3588 -0.2380
   57SAPC  H16R 4221   5.647   2.255   6.081 -0.1203  0.3579 -0.1102
   57SAPC  H16S 4222   5.722   2.205   5.927  0.2662  0.6664 -0.0967
   57SAPC  C217 4223   5.848   2.198   6.099  0.2211 -0.1698 -0.5396
   57SAPC  H17R 4224   5.920   2.145   6.033  2.7368  2.9324 -0.5323
   57SAPC  H17S 4225   5.845   2.148   6.199 -2.0944  4.1873  1.8518
   57SAPC  C218 4226   5.895   2.342   6.118  0.2569  0.6658 -0.2947
   57SAPC  H18R 4227   5.987   2.351   6.179 -0.3356  1.3111  0.5162
   57SAPC  H18S 4228   5.820   2.376   6.193 -0.0864 -0.2129 -0.2275
   57SAPC  C219 4229   5.894   2.434   5.997 -0.5510  0.2439  0.2505
   57SAPC  H19R 4230   5.954   2.524   6.022 -1.1176  0.7242 -0.0920
   57SAPC  H19S 4231   5.788   2.458   5.975 -0.0420  2.3837 -0.1632
   57SAPC  C220 4232   5.953   2.383   5.861  0.0433 -0.4347  0.7712
   57SAPC  H20R 4233   6.058   2.349   5.856  0.0769 -0.3264  0.7357
   57SAPC  H20S 4234   5.942   2.464   5.785 -2.4407 -0.1661  1.3283
   57SAPC  H20T 4235   5.901   2.295   5.816 -0.0472  0.2169 -0.4626
   57SAPC   C33 4236   5.177   1.057   7.350 -0.2362  0.4026 -0.9927
   57SAPC   H3X 4237   5.086   1.059   7.414 -1.4542 -0.8317 -2.6050
   57SAPC   H3Y 4238   5.202   0.950   7.335  1.8720  0.6593  0.2806
   57SAPC   C34 4239   5.138   1.126   7.217  0.3455 -0.2400  0.3125
   57SAPC   H4X 4240   5.235   1.131   7.163  0.4270  2.0762  0.5597
   57SAPC   H4Y 4241   5.100   1.229   7.230  1.8480  0.2388  1.2357
   57SAPC   C35 4242   5.052   1.034   7.123  0.4005 -0.0691  0.3050
   57SAPC   H5X 4243   4.955   1.002   7.167  1.2278 -0.3888  2.0254
   57SAPC   H5Y 4244   5.099   0.937   7.095 -0.2415 -0.7025  1.3349
   57SAPC   C36 4245   5.024   1.105   6.990  0.0689  0.6039 -0.4059
   57SAPC   H6X 4246   5.116   1.151   6.947 -0.7068  0.5965 -2.1816
   57SAPC   H6Y 4247   4.951   1.183   7.020 -3.3495 -1.9504 -1.4642
   57SAPC   C37 4248   4.951   1.016   6.882  0.4754  0.0346  0.5347
   57SAPC   H7X 4249   4.855   0.983   6.927 -0.0783  1.5999  0.5868
   57SAPC   H7Y 4250   5.010   0.928   6.852  0.0757  0.2333 -0.9124
   57SAPC   C38 4251   4.906   1.099   6.763  0.2978  0.4561  0.6049
   57SAPC   H8X 4252   4.840   1.185   6.788  1.2952  1.8547 -1.3022
   57SAPC   H8Y 4253   4.841   1.039   6.695  0.3189  2.4336 -1.2741
   57SAPC   C39 4254   5.016   1.157   6.671 -0.0209 -0.1674  0.7245
   57SAPC   H9X 4255   5.100   1.088   6.649  0.9821  0.3978  2.5588
   57SAPC   H9Y 4256   5.060   1.247   6.720  0.3629  1.0255 -1.6688
   57SAPC  C310 4257   4.959   1.220   6.551 -0.2378  0.0014 -0.5496
   57SAPC  H10X 4258   4.899   1.314   6.561 -0.8476 -0.4319  0.0080
   57SAPC  H10Y 4259   4.877   1.155   6.515 -0.1762 -0.2112 -0.3114
   57SAPC  C311 4260   5.055   1.225   6.428  0.2631  0.3480 -0.1589
   57SAPC  H11X 4261   5.104   1.128   6.405  0.2661  0.2298  0.3139
   57SAPC  H11Y 4262   5.134   1.302   6.438  0.4209  0.2400 -0.5584
   57SAPC  C312 4263   4.972   1.269   6.305  0.9451 -1.2736 -0.4666
   57SAPC  H12X 4264   4.956   1.379   6.315  1.3301 -1.4039  2.3779
   57SAPC  H12Y 4265   4.877   1.213   6.293  1.3126 -1.4725 -2.9910
   57SAPC  C313 4266   5.042   1.246   6.171 -0.3389  0.1036  0.1033
   57SAPC  H13X 4267   5.061   1.138   6.159 -0.2328 -0.4333  3.8709
   57SAPC  H13Y 4268   5.139   1.299   6.184  0.5232 -1.8845  2.7158
   57SAPC  C314 4269   4.958   1.298   6.052 -0.5607  0.1682  0.3526
   57SAPC  H14X 4270   4.933   1.404   6.075  0.9834  0.5048  0.5596
   57SAPC  H14Y 4271   4.855   1.256   6.055  0.2776 -1.9361  1.1465
   57SAPC  C315 4272   5.032   1.284   5.922  0.1114 -0.1567  0.1559
   57SAPC  H15X 4273   5.054   1.175   5.915  0.4636 -0.1179  0.6631
   57SAPC  H15Y 4274   5.127   1.341   5.917  0.4002 -0.7348 -2.2759
   57SAPC  C316 4275   4.952   1.326   5.798 -0.0091 -0.5956  0.0516
   57SAPC  H16X 4276   4.939   1.436   5.806  1.0460 -0.5029  0.6955
   57SAPC  H16Y 4277   4.852   1.278   5.812 -0.9038  1.2874  0.4629
   57SAPC  C317 4278   5.017   1.273   5.669  0.5165 -0.8015  0.4780
   57SAPC  H17X 4279   5.025   1.163   5.686 -4.1906 -1.6351 -1.2456
   57SAPC  H17Y 4280   5.104   1.338   5.647 -0.6980  0.5101 -0.5979
   57SAPC  C318 4281   4.924   1.286   5.546 -0.0023  0.1370  0.1681
   57SAPC  H18X 4282   4.977   1.267   5.450 -2.7998 -0.9259 -1.2697
   57SAPC  H18Y 4283   4.876   1.385   5.551  0.4075  0.2904  2.4420
   57SAPC  H18Z 4284   4.841   1.212   5.556  0.5473 -0.2318  2.9370
   58SAPC     N 4285   0.846   6.176   8.320  0.1246  1.0691 -0.1053
   58SAPC   C12 4286   0.852   6.202   8.175  0.4876 -0.6822 -0.4457
   58SAPC  H12A 4287   0.957   6.203   8.148  0.7790 -0.4685  0.6638
   58SAPC  H12B 4288   0.819   6.302   8.149  0.4800 -0.3783  0.6743
   58SAPC   C13 4289   0.904   6.039   8.367  0.1909  0.4830 -0.4809
   58SAPC  H13A 4290   0.845   5.956   8.330  0.7760 -0.8416  1.4152
   58SAPC  H13B 4291   1.008   6.017   8.349 -0.5054 -0.8861 -3.5919
   58SAPC  H13C 4292   0.894   6.025   8.473  2.6241 -2.6331 -0.5219
   58SAPC   C14 4293   0.916   6.277   8.399  0.6283  0.1880 -0.1171
   58SAPC  H14A 4294   0.914   6.259   8.505 -0.0408 -1.1920 -0.3354
   58SAPC  H14B 4295   1.014   6.290   8.355  0.1027  0.1860 -1.3405
   58SAPC  H14C 4296   0.859   6.368   8.390 -0.6746 -0.4789  1.1566
   58SAPC   C15 4297   0.701   6.177   8.365 -0.1410  0.3206 -1.0487
   58SAPC  H15A 4298   0.647   6.092   8.327  1.7377 -1.3966 -0.0343
   58SAPC  H15B 4299   0.706   6.162   8.471  0.8673  2.3371 -0.7594
   58SAPC  H15C 4300   0.653   6.272   8.348 -0.0788  1.0184  2.2034
   58SAPC   C11 4301   0.791   6.097   8.073  0.1740  0.3850  0.0516
   58SAPC  H11A 4302   0.825   5.999   8.113 -1.5282 -0.6296 -0.8590
   58SAPC  H11B 4303   0.838   6.111   7.973  0.0056 -0.0975 -0.0986
   58SAPC     P 4304   0.577   6.241   8.023  0.0603 -0.1090 -0.4610
   58SAPC   O13 4305   0.434   6.214   7.983  0.1966 -0.0437 -0.0756
   58SAPC   O14 4306   0.601   6.344   8.125  0.0563  0.2775 -0.2751
   58SAPC   O12 4307   0.645   6.098   8.063  0.3228 -0.4290  0.1417
   58SAPC   O11 4308   0.657   6.272   7.891 -0.6648  0.5436 -0.3831
   58SAPC    C1 4309   0.651   6.178   7.787  0.3017 -0.5670  0.1800
   58SAPC    HA 4310   0.749   6.127   7.774  1.3104  0.7299  2.2704
   58SAPC    HB 4311   0.587   6.087   7.798  0.4349 -0.8008 -0.8041
   58SAPC    C2 4312   0.609   6.247   7.650  0.3527 -0.2426 -0.1662
   58SAPC    HS 4313   0.616   6.171   7.569 -1.9670 -0.1250 -0.5322
   58SAPC   O21 4314   0.694   6.362   7.616 -0.2904  0.1260 -0.2093
   58SAPC   C21 4315   0.825   6.328   7.596  0.0826  1.1189 -0.0296
   58SAPC   O22 4316   0.856   6.210   7.573 -0.2612 -0.6103 -0.1575
   58SAPC   C22 4317   0.910   6.458   7.577  0.2606 -0.0607 -0.6190
   58SAPC   H2R 4318   0.839   6.540   7.552 -1.0523 -0.1084  2.4183
   58SAPC   H2S 4319   0.964   6.480   7.672 -1.4843 -1.9426  0.9188
   58SAPC    C3 4320   0.462   6.298   7.650  0.6705 -0.2492 -0.4385
   58SAPC    HX 4321   0.470   6.382   7.722  1.5199 -0.3341 -0.4327
   58SAPC    HY 4322   0.397   6.221   7.697 -1.2953  1.9331  0.6279
   58SAPC   O31 4323   0.426   6.333   7.520  0.4732 -0.3900  0.3759
   58SAPC   C31 4324   0.334   6.268   7.456  1.2905  0.8847  0.1506
   58SAPC   O32 4325   0.277   6.165   7.494  0.5058  0.2416 -0.1046
   58SAPC   C32 4326   0.310   6.334   7.334  0.9291  0.5671 -0.0867
   58SAPC   H2X 4327   0.286   6.441   7.348 -0.4211  0.2055  0.4922
   58SAPC   H2Y 4328   0.214   6.307   7.287  0.3040  1.3973  0.6790
   58SAPC   C23 4329   1.029   6.435   7.474 -0.3421 -0.2601  0.1143
   58SAPC   H3R 4330   1.088   6.343   7.494 -0.7507  0.0090  2.9367
   58SAPC   H3S 4331   1.091   6.526   7.489 -1.3204  0.5935 -0.8021
   58SAPC   C24 4332   0.972   6.436   7.336  0.7261 -0.4748 -0.3058
   58SAPC   H4R 4333   0.915   6.532   7.335  1.0021 -0.1326  3.3842
   58SAPC   H4S 4334   0.897   6.355   7.328  1.3023 -0.9301 -1.2556
   58SAPC   C25 4335   1.079   6.423   7.237 -0.0149 -0.8466  0.4903
   58SAPC   H5R 4336   1.153   6.356   7.282  1.2903 -1.8202 -2.8224
   58SAPC   C26 4337   1.073   6.455   7.109 -0.1640  0.1924  0.1334
   58SAPC   H6R 4338   1.155   6.446   7.036  0.6073 -1.0420  1.1173
   58SAPC   C27 4339   0.954   6.510   7.038 -1.1782 -0.1781  0.2319
   58SAPC   H7R 4340   0.979   6.571   6.949  0.1805 -0.9063  0.0790
   58SAPC   H7S 4341   0.887   6.568   7.105  0.1499  2.3153 -0.4806
   58SAPC   C28 4342   0.860   6.404   6.977  0.1305  0.1634  0.3532
   58SAPC   H8R 4343   0.882   6.302   7.012 -1.8734 -0.8762 -1.1793
   58SAPC   C29 4344   0.764   6.431   6.878 -1.0649 -0.3237  0.3067
   58SAPC   H9R 4345   0.689   6.356   6.851 -0.8615 -1.4891  2.7834
   58SAPC  C210 4346   0.732   6.572   6.832  0.2089  0.0969  0.9617
   58SAPC  H10R 4347   0.815   6.631   6.787 -0.4457 -0.7345 -1.5452
   58SAPC  H10S 4348   0.681   6.631   6.911 -0.9719 -1.6052  1.5095
   58SAPC  C211 4349   0.630   6.556   6.718  0.2165  0.0152 -0.6220
   58SAPC  H11R 4350   0.531   6.601   6.735  1.5279  2.2911  1.8110
   58SAPC  C212 4351   0.659   6.508   6.590 -0.3278  0.8953  0.3421
   58SAPC  H12R 4352   0.586   6.530   6.511 -0.0031 -0.3689 -0.3302
   58SAPC  C213 4353   0.789   6.449   6.538 -0.4722 -0.2713  0.9048
   58SAPC  H13R 4354   0.774   6.426   6.431 -0.2819  1.2684  0.5131
   58SAPC  H13S 4355   0.817   6.359   6.597 -0.8586  0.7762  2.7738
   58SAPC  C214 4356   0.901   6.548   6.528 -0.2085  0.1348  0.1824
   58SAPC  H14R 4357   0.894   6.621   6.610 -1.0990 -1.0780  1.2358
   58SAPC  C215 4358   1.011   6.556   6.443  0.6372  0.1988  0.1596
   58SAPC  H15R 4359   1.099   6.619   6.464  0.3705  1.1677 -1.4109
   58SAPC  C216 4360   1.028   6.467   6.321 -0.2405  0.2823 -0.3525
   58SAPC  H16R 4361   0.937   6.412   6.288 -1.0786  2.1759 -1.3727
   58SAPC  H16S 4362   1.090   6.377   6.341 -1.2196 -0.9057 -2.3378
   58SAPC  C217 4363   1.111   6.536   6.208 -0.1265  0.0151 -0.5097
   58SAPC  H17R 4364   1.191   6.600   6.251  1.5776 -1.1484 -1.8125
   58SAPC  H17S 4365   1.036   6.608   6.170 -1.3803 -1.3071 -0.6201
   58SAPC  C218 4366   1.165   6.441   6.100  0.2446  0.6856  0.1966
   58SAPC  H18R 4367   1.174   6.503   6.008  1.2727  0.5426  0.1928
   58SAPC  H18S 4368   1.084   6.371   6.071  0.2234  1.5737 -2.0673
   58SAPC  C219 4369   1.302   6.370   6.134  0.0060 -0.0597 -0.4147
   58SAPC  H19R 4370   1.280   6.294   6.212 -0.3718 -0.9154 -1.3359
   58SAPC  H19S 4371   1.375   6.441   6.178 -1.9308  0.6576  1.8617
   58SAPC  C220 4372   1.357   6.292   6.012  0.2738  0.3360  0.3226
   58SAPC  H20R 4373   1.458   6.259   6.041  0.1494  0.0860  0.4690
   58SAPC  H20S 4374   1.362   6.356   5.921  0.4767 -1.6873 -1.1539
   58SAPC  H20T 4375   1.289   6.208   5.987  2.1816 -1.3238  0.5084
   58SAPC   C33 4376   0.424   6.340   7.227 -0.8618  0.7343 -0.3299
   58SAPC   H3X 4377   0.392   6.374   7.126 -0.0982 -1.9541 -1.5862
   58SAPC   H3Y 4378   0.446   6.232   7.214 -1.2970  0.4092  1.4459
   58SAPC   C34 4379   0.552   6.415   7.259 -0.1066 -0.4932  0.4956
   58SAPC   H4X 4380   0.636   6.405   7.187  0.1069  2.1061  0.2970
   58SAPC   H4Y 4381   0.590   6.370   7.354 -1.7414  0.8399  1.8583
   58SAPC   C35 4382   0.542   6.570   7.285  0.3265  0.1424 -0.2489
   58SAPC   H5X 4383   0.640   6.596   7.330  0.5537 -0.7842 -0.1871
   58SAPC   H5Y 4384   0.462   6.584   7.361 -1.0073 -0.9186 -1.3838
   58SAPC   C36 4385   0.515   6.665   7.159 -0.2187  0.0515 -0.1312
   58SAPC   H6X 4386   0.416   6.632   7.120 -0.7545 -1.0801  2.0092
   58SAPC   H6Y 4387   0.597   6.632   7.092 -2.0773 -0.4045 -2.2740
   58SAPC   C37 4388   0.499   6.819   7.187 -0.4648  0.1033 -0.3221
   58SAPC   H7X 4389   0.569   6.857   7.264 -0.2866  0.4411 -0.6484
   58SAPC   H7Y 4390   0.397   6.830   7.228 -0.7891  0.6571 -1.2362
   58SAPC   C38 4391   0.520   6.909   7.066  0.3210  1.1336 -0.1578
   58SAPC   H8X 4392   0.610   6.869   7.015 -0.0214  1.8522 -1.3670
   58SAPC   H8Y 4393   0.529   7.016   7.095  0.2246  0.7899  1.2137
   58SAPC   C39 4394   0.407   6.878   6.966  0.0810  0.7634  0.5918
   58SAPC   H9X 4395   0.306   6.900   7.008  0.4794  2.5963  0.6590
   58SAPC   H9Y 4396   0.415   6.776   6.923  0.0612  1.8090 -2.0368
   58SAPC  C310 4397   0.416   6.971   6.843  0.5338  0.7501  0.2305
   58SAPC  H10X 4398   0.448   7.074   6.870  0.7214 -0.0333  3.4033
   58SAPC  H10Y 4399   0.313   6.964   6.801  1.1387 -1.6773 -1.0758
   58SAPC  C311 4400   0.518   6.914   6.735  0.2331  0.4019  0.0023
   58SAPC  H11X 4401   0.485   6.810   6.715  0.1915  0.1236  1.4230
   58SAPC  H11Y 4402   0.603   6.893   6.804 -2.6681 -1.5185  3.3754
   58SAPC  C312 4403   0.556   6.987   6.604  0.1694 -0.0947 -0.1675
   58SAPC  H12X 4404   0.617   6.913   6.547 -1.4524 -0.7336 -1.1236
   58SAPC  H12Y 4405   0.608   7.080   6.638 -2.0543  1.1793 -0.0829
   58SAPC  C313 4406   0.442   7.009   6.506  0.0559  0.1240  0.1094
   58SAPC  H13X 4407   0.366   7.080   6.546 -0.5661 -2.0687  3.1154
   58SAPC  H13Y 4408   0.384   6.914   6.504 -1.2375  0.7651  2.8743
   58SAPC  C314 4409   0.500   7.047   6.374 -0.1825  0.5032 -0.4739
   58SAPC  H14X 4410   0.581   6.975   6.349  0.2283  0.6049  0.5447
   58SAPC  H14Y 4411   0.558   7.142   6.378 -1.2396  1.1609 -0.4852
   58SAPC  C315 4412   0.397   7.047   6.264 -0.3243 -0.0144 -0.1088
   58SAPC  H15X 4413   0.311   7.104   6.307  2.0360  2.6281  1.4669
   58SAPC  H15Y 4414   0.361   6.944   6.245 -0.4765  0.3809 -2.0991
   58SAPC  C316 4415   0.443   7.096   6.133  0.4638 -0.7464 -0.0007
   58SAPC  H16X 4416   0.531   7.037   6.099  1.7086  0.9982  0.0689
   58SAPC  H16Y 4417   0.486   7.197   6.149 -0.3966 -0.4764  0.6615
   58SAPC  C317 4418   0.333   7.085   6.028 -0.5427  0.3686  0.0783
   58SAPC  H17X 4419   0.298   6.980   6.027  1.3589 -0.3046 -1.4766
   58SAPC  H17Y 4420   0.376   7.109   5.928  0.1024  2.7362  0.8380
   58SAPC  C318 4421   0.224   7.183   6.062 -0.5284  0.2591 -1.0287
   58SAPC  H18X 4422   0.142   7.145   6.127 -2.1144  1.9770 -1.9420
   58SAPC  H18Y 4423   0.163   7.203   5.971 -2.4122  1.5460  0.4359
   58SAPC  H18Z 4424   0.261   7.278   6.104 -1.3090 -0.1876  0.7716
   59SAPC     N 4425   2.383   3.181   8.423 -0.1513 -0.2003 -0.5737
   59SAPC   C12 4426   2.330   3.205   8.288 -0.2748 -0.1882  0.6106
   59SAPC  H12A 4427   2.394   3.162   8.212 -0.1349  1.3613 -0.1927
   59SAPC  H12B 4428   2.342   3.312   8.274 -1.1384 -0.2550 -0.7890
   59SAPC   C13 4429   2.537   3.173   8.422  0.1785  0.3242  0.7524
   59SAPC  H13A 4430   2.582   3.096   8.362 -0.2820  0.0358  0.7724
   59SAPC  H13B 4431   2.581   3.268   8.397  1.1150 -0.3231 -0.1484
   59SAPC  H13C 4432   2.576   3.163   8.523  1.1308  1.4970  0.5213
   59SAPC   C14 4433   2.348   3.287   8.520  0.2459 -0.6643  0.6712
   59SAPC  H14A 4434   2.248   3.327   8.514  0.0850 -1.2179 -1.4282
   59SAPC  H14B 4435   2.372   3.250   8.618 -0.5483 -0.9360  0.7651
   59SAPC  H14C 4436   2.426   3.359   8.497  0.5595 -1.4272 -0.8131
   59SAPC   C15 4437   2.346   3.042   8.482  0.0302 -0.1755 -0.7542
   59SAPC  H15A 4438   2.241   3.030   8.505  0.3576 -0.3217  0.7831
   59SAPC  H15B 4439   2.364   2.964   8.410 -0.7623 -0.4830 -0.6231
   59SAPC  H15C 4440   2.408   3.021   8.569 -0.4905  1.6119  0.1079
   59SAPC   C11 4441   2.176   3.172   8.264 -0.4138 -0.9068  0.2705
   59SAPC  H11A 4442   2.179   3.061   8.268  0.1279 -0.8626  1.5069
   59SAPC  H11B 4443   2.144   3.191   8.159 -0.2710 -0.5153  0.2991
   59SAPC     P 4444   2.065   3.393   8.330  0.2491 -0.0862 -0.2546
   59SAPC   O13 4445   2.071   3.455   8.465  0.1074  0.3309  0.7493
   59SAPC   O14 4446   2.151   3.449   8.225 -0.4430  0.3636 -0.5711
   59SAPC   O12 4447   2.083   3.237   8.353 -0.2666 -0.1810  0.1576
   59SAPC   O11 4448   1.918   3.414   8.279 -0.4700 -0.0844  0.1770
   59SAPC    C1 4449   1.804   3.345   8.317  0.3633  0.2745 -0.2119
   59SAPC    HA 4450   1.796   3.318   8.425  0.0728 -2.2612 -0.8144
   59SAPC    HB 4451   1.719   3.415   8.302 -0.2765 -0.8001 -1.8307
   59SAPC    C2 4452   1.772   3.218   8.239 -0.9493 -0.6330  0.1991
   59SAPC    HS 4453   1.845   3.145   8.280  0.8251  1.6710  1.3601
   59SAPC   O21 4454   1.798   3.244   8.102 -0.1462 -0.0013 -0.5455
   59SAPC   C21 4455   1.859   3.146   8.028  0.0909  0.1375  0.1056
   59SAPC   O22 4456   1.891   3.040   8.080 -0.0204 -0.6735 -0.6499
   59SAPC   C22 4457   1.891   3.169   7.884 -0.1271 -0.4171  0.0238
   59SAPC   H2R 4458   1.994   3.129   7.878  0.3164  0.5456  0.7973
   59SAPC   H2S 4459   1.824   3.097   7.834 -1.9357  0.7114  0.7304
   59SAPC    C3 4460   1.638   3.162   8.275  0.6371 -0.4907  0.0277
   59SAPC    HX 4461   1.562   3.228   8.229 -0.1815 -0.9797  0.6401
   59SAPC    HY 4462   1.609   3.175   8.382  0.4367  1.2469 -0.2005
   59SAPC   O31 4463   1.622   3.025   8.228  0.1258 -0.0193 -0.7469
   59SAPC   C31 4464   1.592   3.002   8.104  0.4077  0.3168  0.1161
   59SAPC   O32 4465   1.579   3.088   8.024  0.3654  0.1516  0.1283
   59SAPC   C32 4466   1.573   2.848   8.075  0.7924 -0.4616 -0.5695
   59SAPC   H2X 4467   1.489   2.836   8.003 -0.2313 -1.1396  0.6903
   59SAPC   H2Y 4468   1.536   2.809   8.172  1.9263  1.1241  0.5432
   59SAPC   C23 4469   1.860   3.304   7.822  0.3124  0.0139 -0.7702
   59SAPC   H3R 4470   1.914   3.387   7.873  1.1678 -1.3154  0.5593
   59SAPC   H3S 4471   1.750   3.319   7.826 -0.4249 -4.3936  1.8035
   59SAPC   C24 4472   1.900   3.314   7.674 -0.1811 -0.3154  0.0776
   59SAPC   H4R 4473   1.842   3.232   7.626 -1.3857 -0.4921  1.7378
   59SAPC   H4S 4474   2.010   3.303   7.663 -0.2316 -1.7836  0.7163
   59SAPC   C25 4475   1.852   3.448   7.617  0.3082  0.0937 -0.3788
   59SAPC   H5R 4476   1.886   3.538   7.670 -0.3089 -0.3875  0.8827
   59SAPC   C26 4477   1.786   3.473   7.509  0.2899  0.3871  0.1066
   59SAPC   H6R 4478   1.764   3.578   7.484 -0.0198 -0.0363 -1.4635
   59SAPC   C27 4479   1.748   3.376   7.404 -0.2524  0.1091  0.0857
   59SAPC   H7R 4480   1.712   3.279   7.446  0.6064  0.7479  2.4419
   59SAPC   H7S 4481   1.841   3.348   7.350 -1.4640  0.1062 -2.1141
   59SAPC   C28 4482   1.656   3.429   7.302  0.6189 -0.2129 -0.5358
   59SAPC   H8R 4483   1.552   3.398   7.320  0.7119 -0.2394 -0.0077
   59SAPC   C29 4484   1.678   3.509   7.194  0.0620 -0.3215  0.2563
   59SAPC   H9R 4485   1.592   3.537   7.132 -1.0287 -4.0728 -0.1755
   59SAPC  C210 4486   1.808   3.580   7.156  0.5494  0.5137  0.0151
   59SAPC  H10R 4487   1.853   3.518   7.075 -0.0758 -1.3471  1.0157
   59SAPC  H10S 4488   1.881   3.576   7.240 -0.8064  0.0803  1.2245
   59SAPC  C211 4489   1.791   3.716   7.110  0.3970 -0.2474 -0.3452
   59SAPC  H11R 4490   1.781   3.787   7.194 -2.1161 -1.9794  0.9541
   59SAPC  C212 4491   1.766   3.758   6.982 -0.2747 -0.5101  1.0844
   59SAPC  H12R 4492   1.757   3.865   6.957 -2.0277 -1.0161 -0.6947
   59SAPC  C213 4493   1.762   3.679   6.855  0.3465  0.3871  0.1600
   59SAPC  H13R 4494   1.851   3.612   6.855 -0.0549 -0.1656  0.8829
   59SAPC  H13S 4495   1.762   3.755   6.774 -1.2829  0.1835 -0.0681
   59SAPC  C214 4496   1.643   3.592   6.844  0.5212  0.3156  0.0721
   59SAPC  H14R 4497   1.591   3.577   6.940  0.1346 -1.3148 -0.3742
   59SAPC  C215 4498   1.594   3.540   6.732 -0.7281  0.3544 -0.2826
   59SAPC  H15R 4499   1.502   3.480   6.734 -0.6986  0.3291  0.5543
   59SAPC  C216 4500   1.658   3.555   6.600  0.1691  0.3013  0.4762
   59SAPC  H16R 4501   1.769   3.555   6.605  0.1255  0.4648  1.7401
   59SAPC  H16S 4502   1.616   3.638   6.539  1.3098  0.2911 -0.3616
   59SAPC  C217 4503   1.622   3.425   6.509 -0.1061 -0.1929  0.6727
   59SAPC  H17R 4504   1.517   3.432   6.475 -0.1443  0.1085  0.8530
   59SAPC  H17S 4505   1.654   3.330   6.556  2.1361  0.6136  0.9244
   59SAPC  C218 4506   1.710   3.424   6.385  0.2323 -0.2792 -0.6310
   59SAPC  H18R 4507   1.702   3.320   6.347 -0.2983 -0.0265 -1.2362
   59SAPC  H18S 4508   1.818   3.430   6.410  0.1239 -1.4219  0.1867
   59SAPC  C219 4509   1.665   3.514   6.266 -0.2297  0.7609  0.1200
   59SAPC  H19R 4510   1.679   3.619   6.301  2.7300  0.0196  1.4283
   59SAPC  H19S 4511   1.558   3.491   6.249 -0.5835 -0.4598  3.2623
   59SAPC  C220 4512   1.768   3.496   6.156  0.5128 -0.3226 -0.1761
   59SAPC  H20R 4513   1.732   3.548   6.064 -0.7481 -0.4477  0.2302
   59SAPC  H20S 4514   1.757   3.389   6.128 -3.5569 -0.7891  2.3868
   59SAPC  H20T 4515   1.872   3.526   6.185  0.9260 -0.5288 -1.3801
   59SAPC   C33 4516   1.696   2.771   8.029  0.0744 -0.2267  0.3096
   59SAPC   H3X 4517   1.668   2.665   8.013  0.5499 -0.1945 -0.8270
   59SAPC   H3Y 4518   1.778   2.767   8.105  1.0863  1.9537 -0.5753
   59SAPC   C34 4519   1.753   2.813   7.893 -0.4932 -0.1469 -0.1430
   59SAPC   H4X 4520   1.832   2.744   7.856  1.5063  2.1250 -0.3504
   59SAPC   H4Y 4521   1.813   2.906   7.902  0.5179 -0.7920 -0.0938
   59SAPC   C35 4522   1.645   2.819   7.787  0.9156  0.7988 -0.8643
   59SAPC   H5X 4523   1.566   2.892   7.816  2.2429  2.6878 -1.7617
   59SAPC   H5Y 4524   1.597   2.719   7.783  0.5996  0.7890  1.6813
   59SAPC   C36 4525   1.697   2.839   7.648 -1.2968 -0.7229  1.3590
   59SAPC   H6X 4526   1.751   2.747   7.620  0.9663  0.9097 -0.0094
   59SAPC   H6Y 4527   1.779   2.913   7.661 -0.0008 -2.1873  1.7849
   59SAPC   C37 4528   1.594   2.885   7.534 -0.2080  0.5299  0.2467
   59SAPC   H7X 4529   1.521   2.955   7.580 -1.6851 -0.3483 -0.6892
   59SAPC   H7Y 4530   1.540   2.796   7.495  0.1302  0.9433 -1.2138
   59SAPC   C38 4531   1.655   2.957   7.416 -0.2071  0.3439 -0.0075
   59SAPC   H8X 4532   1.734   2.890   7.377 -1.0983  0.0903 -1.4550
   59SAPC   H8Y 4533   1.701   3.053   7.447 -0.5638  2.1716 -4.3755
   59SAPC   C39 4534   1.550   2.969   7.307 -0.1231 -0.5043  0.8943
   59SAPC   H9X 4535   1.456   3.006   7.353 -0.8474  0.8214 -1.4488
   59SAPC   H9Y 4536   1.537   2.866   7.267 -0.9253 -1.1569  2.7286
   59SAPC  C310 4537   1.609   3.059   7.198  1.1565  0.0643 -0.3364
   59SAPC  H10X 4538   1.637   3.148   7.258 -0.7543 -0.2942  1.1831
   59SAPC  H10Y 4539   1.525   3.100   7.138 -0.6749 -2.1795  0.5336
   59SAPC  C311 4540   1.711   2.997   7.106 -0.7100  0.3392 -0.1990
   59SAPC  H11X 4541   1.664   2.904   7.069  1.9694 -0.8038 -0.9226
   59SAPC  H11Y 4542   1.812   2.979   7.148 -0.3115 -1.7233 -1.8891
   59SAPC  C312 4543   1.729   3.096   6.992 -0.5128 -0.7780  0.5728
   59SAPC  H12X 4544   1.745   3.197   7.035  0.6864 -0.2302 -1.0559
   59SAPC  H12Y 4545   1.640   3.102   6.925 -1.3212 -2.6884  1.4187
   59SAPC  C313 4546   1.858   3.072   6.908  0.5789  0.0750  0.0711
   59SAPC  H13X 4547   1.853   2.974   6.856  1.0382 -0.6387  1.3180
   59SAPC  H13Y 4548   1.940   3.062   6.982 -1.4682 -0.0392  2.4689
   59SAPC  C314 4549   1.897   3.193   6.817  0.0691 -0.1362 -0.1864
   59SAPC  H14X 4550   1.886   3.282   6.883  1.1421  0.0328 -0.2145
   59SAPC  H14Y 4551   1.828   3.218   6.733  1.4648  1.3044 -0.9650
   59SAPC  C315 4552   2.034   3.174   6.745  0.4400  0.0503 -0.4316
   59SAPC  H15X 4553   2.030   3.088   6.675  1.1263  0.8658 -1.5039
   59SAPC  H15Y 4554   2.102   3.155   6.830 -3.0526 -1.5450  2.2590
   59SAPC  C316 4555   2.076   3.297   6.665 -0.2792 -0.2103 -0.1334
   59SAPC  H16X 4556   2.006   3.315   6.581 -0.9252  1.2065  0.6646
   59SAPC  H16Y 4557   2.174   3.261   6.626 -0.8375  0.0061 -1.8231
   59SAPC  C317 4558   2.105   3.426   6.739  0.6224 -0.5733  0.3711
   59SAPC  H17X 4559   2.177   3.407   6.822 -1.1659  1.5985  2.6028
   59SAPC  H17Y 4560   2.011   3.456   6.791 -2.0237 -1.3839 -3.5276
   59SAPC  C318 4561   2.154   3.548   6.653  0.3184  0.5878 -0.9801
   59SAPC  H18X 4562   2.229   3.512   6.580  3.0920  1.0379  1.4613
   59SAPC  H18Y 4563   2.207   3.630   6.706 -1.8454  0.4820  1.5827
   59SAPC  H18Z 4564   2.069   3.603   6.607 -0.1600  0.2520 -0.5142
   60SAPC     N 4565   0.122   4.551   0.070  0.0606  0.3350  0.3388
   60SAPC   C12 4566   0.190   4.645  -0.029  0.5759 -0.2370 -0.1227
   60SAPC  H12A 4567   0.221   4.584  -0.113  0.0008 -0.9964  0.2031
   60SAPC  H12B 4568   0.280   4.677   0.022  0.5213 -1.0198  0.4684
   60SAPC   C13 4569   0.219   4.481   0.167 -0.1645 -0.0664 -0.1963
   60SAPC  H13A 4570   0.169   4.457   0.260  0.1437  2.6209  0.7417
   60SAPC  H13B 4571   0.270   4.401   0.115  0.9516  0.5857 -0.1409
   60SAPC  H13C 4572   0.295   4.548   0.204 -0.5990  0.2486  0.1402
   60SAPC   C14 4573   0.022   4.634   0.152 -0.1989 -0.0256 -0.3323
   60SAPC  H14A 4574  -0.040   4.684   0.079 -0.6902  0.5552  0.4694
   60SAPC  H14B 4575  -0.041   4.572   0.213  1.0302  0.4173  1.4521
   60SAPC  H14C 4576   0.081   4.704   0.208  4.2224 -1.3566 -2.8375
   60SAPC   C15 4577   0.047   4.444  -0.000 -0.1645  0.3311  0.1538
   60SAPC  H15A 4578  -0.016   4.475  -0.083 -2.2962 -3.7959 -0.0086
   60SAPC  H15B 4579   0.116   4.367  -0.030 -0.8003 -0.7287  1.3464
   60SAPC  H15C 4580  -0.010   4.380   0.064 -1.6069 -1.0499 -2.3367
   60SAPC   C11 4581   0.114   4.775  -0.082 -0.3368 -0.5040 -0.5316
   60SAPC  H11A 4582   0.178   4.838  -0.147  1.4687 -2.3299 -0.6336
   60SAPC  H11B 4583   0.088   4.855  -0.010  2.3127 -1.3232  1.5007
   60SAPC     P 4584   0.015   4.658  -0.286  0.3567 -0.5504 -0.0654
   60SAPC   O13 4585   0.157   4.641  -0.329  0.0248 -0.1060 -1.0687
   60SAPC   O14 4586  -0.072   4.540  -0.288  0.1583  0.5558  0.0312
   60SAPC   O12 4587  -0.004   4.733  -0.150 -0.7736  0.8825  0.8794
   60SAPC   O11 4588  -0.044   4.765  -0.386 -0.7603  0.1679  0.7283
   60SAPC    C1 4589   0.021   4.887  -0.431  0.4314  0.1833 -0.4165
   60SAPC    HA 4590  -0.041   4.970  -0.392 -0.5527 -1.8700  2.8097
   60SAPC    HB 4591   0.121   4.898  -0.383 -1.0704  1.3169  2.7960
   60SAPC    C2 4592   0.042   4.892  -0.584 -0.7160  0.2145  0.9711
   60SAPC    HS 4593   0.071   4.995  -0.613 -3.5306  1.2018  1.3481
   60SAPC   O21 4594  -0.084   4.863  -0.651 -0.8192 -0.2214  0.4245
   60SAPC   C21 4595  -0.176   4.958  -0.643 -0.2376 -0.6206 -0.3711
   60SAPC   O22 4596  -0.159   5.062  -0.582  0.0510 -0.2418  0.0146
   60SAPC   C22 4597  -0.299   4.923  -0.727 -0.0174  0.1773  0.0016
   60SAPC   H2R 4598  -0.311   4.812  -0.730 -1.8370  0.3503 -2.5279
   60SAPC   H2S 4599  -0.377   4.981  -0.673  0.0390  0.1140  0.1495
   60SAPC    C3 4600   0.154   4.797  -0.633  0.3421 -0.5744 -0.4266
   60SAPC    HX 4601   0.124   4.690  -0.631  0.3251 -0.5889 -1.1727
   60SAPC    HY 4602   0.243   4.813  -0.568 -0.0190 -0.6167  0.0810
   60SAPC   O31 4603   0.195   4.835  -0.768  0.4457  0.1942  0.3572
   60SAPC   C31 4604   0.304   4.774  -0.806 -0.1283 -0.3181 -0.5099
   60SAPC   O32 4605   0.372   4.697  -0.737 -0.5729 -0.6300  0.2583
   60SAPC   C32 4606   0.345   4.805  -0.950 -0.6299  0.2803 -0.0336
   60SAPC   H2X 4607   0.399   4.902  -0.958  1.1068 -0.4950  1.3728
   60SAPC   H2Y 4608   0.259   4.801  -1.020 -0.9888 -1.1178  0.4570
   60SAPC   C23 4609  -0.277   4.954  -0.877  0.2046 -0.5125 -0.4522
   60SAPC   H3R 4610  -0.196   4.896  -0.926  1.4328  2.9595 -2.9323
   60SAPC   H3S 4611  -0.257   5.063  -0.885  0.1702 -0.5105 -0.5101
   60SAPC   C24 4612  -0.405   4.947  -0.957 -0.5819 -0.2240 -0.2458
   60SAPC   H4R 4613  -0.482   5.009  -0.905 -0.9974 -0.0032 -1.1101
   60SAPC   H4S 4614  -0.456   4.849  -0.945 -2.5902  0.9092  1.1927
   60SAPC   C25 4615  -0.395   4.997  -1.107 -0.0588 -0.0321 -0.5756
   60SAPC   H5R 4616  -0.411   5.104  -1.128 -0.8374  0.2101  1.0848
   60SAPC   C26 4617  -0.392   4.913  -1.204 -0.4136  0.4592  0.0202
   60SAPC   H6R 4618  -0.387   4.946  -1.309 -0.1785 -0.2278 -0.1900
   60SAPC   C27 4619  -0.381   4.764  -1.198 -0.0178 -0.0771  0.3060
   60SAPC   H7R 4620  -0.473   4.731  -1.250 -0.4525  1.0614  0.3381
   60SAPC   H7S 4621  -0.400   4.724  -1.096  0.3661  1.7859  1.1383
   60SAPC   C28 4622  -0.243   4.719  -1.245 -0.4005 -0.3922 -0.6462
   60SAPC   H8R 4623  -0.167   4.696  -1.169 -1.3585 -2.1929 -0.1714
   60SAPC   C29 4624  -0.187   4.703  -1.367 -0.2916  0.1895  0.2657
   60SAPC   H9R 4625  -0.089   4.653  -1.371 -0.2383 -0.0016  2.5913
   60SAPC  C210 4626  -0.249   4.727  -1.499  0.3539 -0.5436 -0.3300
   60SAPC  H10R 4627  -0.315   4.817  -1.497  0.1197 -0.7341  0.9260
   60SAPC  H10S 4628  -0.314   4.642  -1.529 -1.1489  0.3229  0.3543
   60SAPC  C211 4629  -0.146   4.744  -1.612  0.2947 -0.1687  0.2815
   60SAPC  H11R 4630  -0.072   4.822  -1.589 -0.0926 -0.4474  2.7769
   60SAPC  C212 4631  -0.126   4.674  -1.727 -0.1343  0.0641  0.4140
   60SAPC  H12R 4632  -0.049   4.711  -1.796  0.1965  0.5453  1.0417
   60SAPC  C213 4633  -0.205   4.558  -1.775 -0.0575  0.4698 -0.2408
   60SAPC  H13R 4634  -0.263   4.597  -1.861  0.1614  2.3864  0.4304
   60SAPC  H13S 4635  -0.273   4.516  -1.698  2.3059 -0.0447  1.7019
   60SAPC  C214 4636  -0.111   4.442  -1.810  0.1204  0.0946  0.2426
   60SAPC  H14R 4637  -0.039   4.409  -1.733 -0.7544  1.7254  1.8356
   60SAPC  C215 4638  -0.104   4.384  -1.936 -0.2417  0.3443 -0.3635
   60SAPC  H15R 4639  -0.042   4.293  -1.947  0.1093  0.3630  1.2883
   60SAPC  C216 4640  -0.181   4.416  -2.064 -0.4582 -0.1311  0.2525
   60SAPC  H16R 4641  -0.108   4.437  -2.144 -0.2957 -1.0603  0.1458
   60SAPC  H16S 4642  -0.228   4.515  -2.044 -0.4012 -0.0276 -0.1254
   60SAPC  C217 4643  -0.268   4.300  -2.093  0.4772  0.0198  0.7924
   60SAPC  H17R 4644  -0.337   4.339  -2.171  2.3517  2.1326  0.0741
   60SAPC  H17S 4645  -0.317   4.257  -2.003  1.7702 -1.5373  0.7969
   60SAPC  C218 4646  -0.188   4.190  -2.160  0.2537 -0.0502  0.6797
   60SAPC  H18R 4647  -0.119   4.146  -2.085 -0.0675  1.9189  2.2145
   60SAPC  H18S 4648  -0.136   4.228  -2.251 -0.6222 -1.0496 -0.2776
   60SAPC  C219 4649  -0.284   4.075  -2.212 -0.0008 -0.9865 -0.7260
   60SAPC  H19R 4650  -0.370   4.063  -2.143 -0.6701 -0.4611 -1.4664
   60SAPC  H19S 4651  -0.224   3.982  -2.222 -0.2907 -1.2387 -0.1744
   60SAPC  C220 4652  -0.351   4.119  -2.350 -0.0425 -0.0785 -0.0151
   60SAPC  H20R 4653  -0.267   4.123  -2.422 -0.7064  1.1652 -0.7611
   60SAPC  H20S 4654  -0.405   4.215  -2.332 -1.8556 -1.0963  0.1809
   60SAPC  H20T 4655  -0.415   4.039  -2.392 -0.9907  1.3737 -1.4230
   60SAPC   C33 4656   0.454   4.709  -1.003 -0.7158 -0.1997 -0.1873
   60SAPC   H3X 4657   0.411   4.608  -0.988 -1.2148  0.0100 -0.1788
   60SAPC   H3Y 4658   0.544   4.721  -0.939 -1.0085  0.4983  0.1115
   60SAPC   C34 4659   0.486   4.725  -1.153  0.5062 -0.2443  0.4503
   60SAPC   H4X 4660   0.500   4.828  -1.193  1.6397  1.1236  3.9358
   60SAPC   H4Y 4661   0.403   4.671  -1.202  1.6185 -2.5134  0.9160
   60SAPC   C35 4662   0.623   4.665  -1.196  0.0072  0.2597  0.0470
   60SAPC   H5X 4663   0.628   4.555  -1.180 -0.5539  0.2358  0.0684
   60SAPC   H5Y 4664   0.688   4.717  -1.123 -2.1844  1.3588  1.3061
   60SAPC   C36 4665   0.666   4.693  -1.341 -0.9519 -0.5250 -0.0046
   60SAPC   H6X 4666   0.773   4.667  -1.354 -0.5997  0.5047  0.6509
   60SAPC   H6Y 4667   0.663   4.803  -1.356 -1.2333 -0.4561  0.5186
   60SAPC   C37 4668   0.581   4.636  -1.449  0.6272  0.1314  0.2156
   60SAPC   H7X 4669   0.472   4.653  -1.435  0.6845  1.6283 -0.9164
   60SAPC   H7Y 4670   0.599   4.526  -1.453 -1.2854 -0.1835 -1.1178
   60SAPC   C38 4671   0.613   4.687  -1.588  0.2308 -0.0512 -0.9649
   60SAPC   H8X 4672   0.621   4.798  -1.589  1.0176 -0.1003 -0.5867
   60SAPC   H8Y 4673   0.526   4.665  -1.654 -0.3061 -0.1721 -0.2313
   60SAPC   C39 4674   0.746   4.633  -1.647 -0.5689  0.2269  0.1365
   60SAPC   H9X 4675   0.744   4.524  -1.628 -0.3401 -0.2169 -2.0936
   60SAPC   H9Y 4676   0.829   4.672  -1.584 -0.5098  0.5702 -0.1479
   60SAPC  C310 4677   0.756   4.669  -1.797  0.3019  0.2335 -0.0488
   60SAPC  H10X 4678   0.813   4.764  -1.802  0.9958 -0.1844 -0.1583
   60SAPC  H10Y 4679   0.654   4.683  -1.839 -0.5508 -3.0506  0.6535
   60SAPC  C311 4680   0.818   4.568  -1.890 -0.1818 -0.5576  0.4781
   60SAPC  H11X 4681   0.764   4.471  -1.900  0.5986 -0.8303 -1.5883
   60SAPC  H11Y 4682   0.919   4.552  -1.848  1.1089  2.9634 -0.9129
   60SAPC  C312 4683   0.835   4.637  -2.028 -0.0498 -0.2894  0.9128
   60SAPC  H12X 4684   0.903   4.724  -2.023 -1.2565  0.6950  0.7472
   60SAPC  H12Y 4685   0.742   4.696  -2.045  1.0453  0.4842 -4.0190
   60SAPC  C313 4686   0.855   4.537  -2.145  0.1769  0.5989  0.2236
   60SAPC  H13X 4687   0.768   4.468  -2.140 -1.0407  2.0099 -0.4965
   60SAPC  H13Y 4688   0.947   4.482  -2.117  1.2164  3.2147  2.3606
   60SAPC  C314 4689   0.862   4.605  -2.277 -0.3122  0.2448 -0.3726
   60SAPC  H14X 4690   0.948   4.675  -2.286 -0.6545  0.7427  0.1638
   60SAPC  H14Y 4691   0.782   4.681  -2.292  0.3119  1.0809  0.4019
   60SAPC  C315 4692   0.867   4.502  -2.399  0.0731  0.3845 -0.3981
   60SAPC  H15X 4693   0.763   4.462  -2.397 -0.0794  0.6900 -1.7298
   60SAPC  H15Y 4694   0.925   4.412  -2.370 -0.8912  0.2281  1.1843
   60SAPC  C316 4695   0.902   4.561  -2.527 -0.1450  0.2741 -0.1154
   60SAPC  H16X 4696   0.823   4.637  -2.545  0.7097  0.6178 -2.9824
   60SAPC  H16Y 4697   0.902   4.494  -2.615 -0.2778  0.1612 -0.0293
   60SAPC  C317 4698   1.034   4.650  -2.551  0.2734 -0.1588 -0.1113
   60SAPC  H17X 4699   1.125   4.588  -2.537  0.2484 -0.8804 -2.7282
   60SAPC  H17Y 4700   1.038   4.733  -2.477  1.0831  1.5240 -1.9340
   60SAPC  C318 4701   1.039   4.731  -2.683  0.1458  0.3324  0.2915
   60SAPC  H18X 4702   0.944   4.786  -2.698  0.3209  1.0992  1.7912
   60SAPC  H18Y 4703   1.054   4.660  -2.767 -1.5159 -0.6006  0.7482
   60SAPC  H18Z 4704   1.129   4.796  -2.682  1.3844 -1.3152  0.0871
   61SAPC     N 4705   5.871   4.326   8.446  0.3768 -0.0540  0.0607
   61SAPC   C12 4706   5.838   4.448   8.529 -0.1459  0.2780 -0.6747
   61SAPC  H12A 4707   5.905   4.443   8.614 -2.1716 -1.1822  0.9242
   61SAPC  H12B 4708   5.733   4.445   8.555 -0.1931  3.9513  0.0187
   61SAPC   C13 4709   6.017   4.319   8.423 -0.1291  0.2061  0.1262
   61SAPC  H13A 4710   6.066   4.328   8.519 -1.3295 -0.6536  0.8426
   61SAPC  H13B 4711   6.052   4.239   8.361 -1.1286  1.1082 -1.6921
   61SAPC  H13C 4712   6.039   4.412   8.373 -1.8615  1.3568  1.3793
   61SAPC   C14 4713   5.834   4.201   8.523 -0.0748  0.4535  0.0736
   61SAPC  H14A 4714   5.921   4.187   8.585  0.7679 -0.9521 -1.3600
   61SAPC  H14B 4715   5.743   4.211   8.581  1.5525  0.5472  2.7800
   61SAPC  H14C 4716   5.827   4.118   8.455  1.8741  1.4304 -1.4070
   61SAPC   C15 4717   5.796   4.318   8.311  0.0226 -0.6475  0.0771
   61SAPC  H15A 4718   5.811   4.223   8.263  0.8465  0.9820 -3.1386
   61SAPC  H15B 4719   5.689   4.321   8.323 -0.0554 -2.8649  0.4066
   61SAPC  H15C 4720   5.825   4.401   8.249 -0.2927 -1.6085 -1.4210
   61SAPC   C11 4721   5.846   4.591   8.467 -1.1469  0.3991 -0.1902
   61SAPC  H11A 4722   5.817   4.673   8.537  1.6934  1.4388 -0.1027
   61SAPC  H11B 4723   5.766   4.589   8.390 -1.1556 -0.2780 -0.1680
   61SAPC     P 4724   6.090   4.684   8.506 -0.0430  0.0377 -0.1370
   61SAPC   O13 4725   6.033   4.799   8.572 -0.0376  0.5058 -0.1311
   61SAPC   O14 4726   6.148   4.574   8.589 -0.2392 -0.2356 -0.3062
   61SAPC   O12 4727   5.977   4.612   8.416  0.4621  0.4703 -0.8599
   61SAPC   O11 4728   6.196   4.740   8.400 -0.0407 -0.2664  0.0399
   61SAPC    C1 4729   6.293   4.647   8.363  0.1399 -0.2198 -0.1985
   61SAPC    HA 4730   6.366   4.646   8.446 -0.8942 -1.8690  0.7594
   61SAPC    HB 4731   6.256   4.542   8.363  0.1310 -0.2183  0.3155
   61SAPC    C2 4732   6.354   4.684   8.229 -0.2644  0.6865  0.3926
   61SAPC    HS 4733   6.429   4.763   8.251 -0.9319  1.1571  0.9927
   61SAPC   O21 4734   6.260   4.714   8.127  0.4522 -0.1441 -0.2495
   61SAPC   C21 4735   6.249   4.842   8.098 -0.5982  0.9421  0.4590
   61SAPC   O22 4736   6.307   4.929   8.157  0.8960 -0.0679  0.7225
   61SAPC   C22 4737   6.153   4.859   7.982 -0.1645  0.1295  0.4386
   61SAPC   H2R 4738   6.215   4.898   7.899  1.8040 -0.6932  1.4564
   61SAPC   H2S 4739   6.113   4.760   7.950  2.1936 -0.7918  0.1914
   61SAPC    C3 4740   6.439   4.557   8.180  0.2660  0.8053  0.2013
   61SAPC    HX 4741   6.370   4.483   8.133  0.8788  0.3013  0.0823
   61SAPC    HY 4742   6.488   4.519   8.272  0.7487  1.1538  0.0906
   61SAPC   O31 4743   6.544   4.599   8.089  0.4642 -0.0265  0.8515
   61SAPC   C31 4744   6.639   4.505   8.073  0.1897 -0.0556  1.3598
   61SAPC   O32 4745   6.629   4.394   8.118 -0.2375  0.1282  0.1757
   61SAPC   C32 4746   6.754   4.538   7.974  0.5664  0.0545 -0.4536
   61SAPC   H2X 4747   6.840   4.478   8.009 -1.3880 -2.7653 -0.1177
   61SAPC   H2Y 4748   6.769   4.648   7.970 -0.2654  0.1476 -1.6203
   61SAPC   C23 4749   6.055   4.975   7.989  0.1238  0.2034 -0.6338
   61SAPC   H3R 4750   6.098   5.060   8.046  1.6944 -0.2106 -1.1589
   61SAPC   H3S 4751   5.966   4.947   8.049 -0.4238  1.5921 -0.7612
   61SAPC   C24 4752   6.001   5.024   7.853 -0.1964  0.9274 -0.1389
   61SAPC   H4R 4753   5.916   5.090   7.882  0.5858  1.4706  0.9726
   61SAPC   H4S 4754   5.961   4.940   7.793 -0.0375  0.4680  0.3938
   61SAPC   C25 4755   6.116   5.100   7.791 -0.2580  0.8713  0.1991
   61SAPC   H5R 4756   6.151   5.193   7.839  1.3058  0.7736 -0.6918
   61SAPC   C26 4757   6.172   5.079   7.671 -0.2885 -0.3936  0.1091
   61SAPC   H6R 4758   6.265   5.135   7.651 -0.4942 -0.7057 -1.9485
   61SAPC   C27 4759   6.141   4.970   7.566 -0.8800  0.0358 -0.5645
   61SAPC   H7R 4760   6.067   4.899   7.610 -1.2717  2.6698  3.6029
   61SAPC   H7S 4761   6.238   4.918   7.554 -0.0405  1.2774  0.4977
   61SAPC   C28 4762   6.083   5.035   7.445 -0.5899 -0.1889  0.1727
   61SAPC   H8R 4763   6.058   5.142   7.456 -2.8881 -0.4604 -1.4354
   61SAPC   C29 4764   6.085   4.984   7.318 -0.2892  0.0696  0.1973
   61SAPC   H9R 4765   6.043   5.051   7.241 -0.8750  0.5894  0.9457
   61SAPC  C210 4766   6.139   4.849   7.267  0.0634  0.8573  0.4307
   61SAPC  H10R 4767   6.061   4.794   7.211  0.0891  1.6715 -0.4405
   61SAPC  H10S 4768   6.166   4.784   7.352 -2.0718  2.1783  2.2281
   61SAPC  C211 4769   6.260   4.866   7.177 -0.0422  0.2468 -0.1262
   61SAPC  H11R 4770   6.357   4.845   7.225  1.1088  0.5652 -2.2113
   61SAPC  C212 4771   6.268   4.926   7.056  0.0832  0.4329  0.4620
   61SAPC  H12R 4772   6.367   4.934   7.008  0.2795 -0.1860  0.7494
   61SAPC  C213 4773   6.146   4.961   6.978  0.4602 -0.3060 -0.3707
   61SAPC  H13R 4774   6.132   5.070   6.993 -1.8488 -0.9098  2.9730
   61SAPC  H13S 4775   6.058   4.911   7.024  1.3205 -0.7767  0.7861
   61SAPC  C214 4776   6.141   4.926   6.827 -0.2087  0.3270 -0.1699
   61SAPC  H14R 4777   6.205   4.847   6.786 -2.2097 -0.7788 -1.3123
   61SAPC  C215 4778   6.046   4.981   6.746 -0.1433  0.8869 -0.7265
   61SAPC  H15R 4779   6.036   4.943   6.643 -2.6535  0.6334 -0.4475
   61SAPC  C216 4780   5.950   5.088   6.784  0.9345  0.7130 -0.0293
   61SAPC  H16R 4781   5.940   5.112   6.892 -2.0123  2.6149 -0.6069
   61SAPC  H16S 4782   5.850   5.067   6.742  0.7670  0.7201  0.3632
   61SAPC  C217 4783   5.989   5.225   6.721  0.1383  0.3920 -0.1704
   61SAPC  H17R 4784   5.985   5.228   6.610  1.4595 -0.2779 -0.2628
   61SAPC  H17S 4785   6.097   5.238   6.746  0.5112 -1.0196 -0.9000
   61SAPC  C218 4786   5.917   5.346   6.789  0.3710 -0.0061  0.8311
   61SAPC  H18R 4787   5.898   5.325   6.896 -0.3514 -0.2303  0.6607
   61SAPC  H18S 4788   5.821   5.374   6.741  0.1023  2.8051  2.7806
   61SAPC  C219 4789   6.003   5.475   6.790  0.2382 -0.7222 -0.0880
   61SAPC  H19R 4790   6.108   5.455   6.821  0.5302  2.5036  1.3690
   61SAPC  H19S 4791   5.961   5.557   6.853 -1.7316  0.7446 -3.0680
   61SAPC  C220 4792   6.002   5.536   6.651 -0.0376  0.1523  0.5891
   61SAPC  H20R 4793   6.062   5.630   6.656 -1.6791  1.2244  0.9069
   61SAPC  H20S 4794   5.896   5.555   6.621  0.5838  1.6788 -0.8255
   61SAPC  H20T 4795   6.044   5.461   6.581  2.5836 -0.7259  2.9365
   61SAPC   C33 4796   6.721   4.491   7.829  0.1231  0.0991 -0.0882
   61SAPC   H3X 4797   6.632   4.542   7.787 -2.4806 -1.8307  2.7391
   61SAPC   H3Y 4798   6.692   4.384   7.833 -0.6101  0.3004  0.0123
   61SAPC   C34 4799   6.837   4.508   7.733 -0.0665  0.8235 -0.5737
   61SAPC   H4X 4800   6.916   4.439   7.770  1.5770  2.3432 -1.1303
   61SAPC   H4Y 4801   6.878   4.610   7.746 -0.2369  0.6583  1.7450
   61SAPC   C35 4802   6.806   4.471   7.585 -0.1865 -0.0774  0.1687
   61SAPC   H5X 4803   6.714   4.516   7.543 -0.5226 -1.0745 -0.2024
   61SAPC   H5Y 4804   6.782   4.362   7.587 -2.9188  0.4591  1.3297
   61SAPC   C36 4805   6.924   4.496   7.488  0.9157 -0.0061  0.3388
   61SAPC   H6X 4806   6.966   4.596   7.509 -1.8335  1.6871 -1.5669
   61SAPC   H6Y 4807   6.892   4.502   7.382  1.1517 -0.8856  0.2091
   61SAPC   C37 4808   7.037   4.392   7.497  0.1209 -0.3188  0.0455
   61SAPC   H7X 4809   6.995   4.289   7.495 -2.2197  0.5632  0.2880
   61SAPC   H7Y 4810   7.079   4.413   7.598  2.4552  1.2879 -1.1921
   61SAPC   C38 4811   7.146   4.405   7.389  0.3982 -0.3549 -0.3847
   61SAPC   H8X 4812   7.233   4.341   7.416 -0.4594 -1.2956  0.2295
   61SAPC   H8Y 4813   7.186   4.508   7.401  0.2856 -0.5106  1.7907
   61SAPC   C39 4814   7.096   4.368   7.254 -0.1604  0.0955  0.1020
   61SAPC   H9X 4815   7.017   4.435   7.214  2.0115  2.1819 -1.0079
   61SAPC   H9Y 4816   7.055   4.265   7.261 -0.5562  0.3223  1.2217
   61SAPC  C310 4817   7.211   4.370   7.156  0.2351  0.4948  0.2036
   61SAPC  H10X 4818   7.276   4.280   7.167 -0.2580  0.0347 -0.5046
   61SAPC  H10Y 4819   7.266   4.465   7.174 -0.6001  1.2854 -1.2813
   61SAPC  C311 4820   7.157   4.358   7.011  0.4485  0.0515 -0.4372
   61SAPC  H11X 4821   7.076   4.432   6.994 -0.8423 -1.2729 -0.3151
   61SAPC  H11Y 4822   7.106   4.260   6.996 -0.0887  0.4616 -1.3810
   61SAPC  C312 4823   7.277   4.399   6.924  0.0312  0.1777 -0.2826
   61SAPC  H12X 4824   7.369   4.341   6.951  0.2931  1.0730  0.8664
   61SAPC  H12Y 4825   7.300   4.505   6.952 -1.2628  0.5723 -0.6606
   61SAPC  C313 4826   7.247   4.379   6.774 -0.4327  0.1263 -0.0239
   61SAPC  H13X 4827   7.175   4.458   6.743  0.0335  0.7810  0.5442
   61SAPC  H13Y 4828   7.195   4.281   6.763  2.3567 -1.3595 -1.0200
   61SAPC  C314 4829   7.378   4.385   6.697  0.1865 -0.3549 -0.7732
   61SAPC  H14X 4830   7.435   4.291   6.712  0.0726 -0.3429 -0.2603
   61SAPC  H14Y 4831   7.446   4.465   6.736 -0.6922  0.1990 -0.3420
   61SAPC  C315 4832   7.343   4.416   6.552 -0.4092 -0.5735 -0.4022
   61SAPC  H15X 4833   7.433   4.387   6.494 -0.0534 -2.1304  0.8629
   61SAPC  H15Y 4834   7.314   4.522   6.534  0.4460 -0.6703 -2.8362
   61SAPC  C316 4835   7.223   4.347   6.483 -0.0186 -0.0413  0.1079
   61SAPC  H16X 4836   7.134   4.347   6.548 -0.6554  1.4774 -0.6880
   61SAPC  H16Y 4837   7.254   4.241   6.473  0.3161  0.1297 -0.7631
   61SAPC  C317 4838   7.198   4.404   6.340  1.0511 -0.3577  0.6119
   61SAPC  H17X 4839   7.289   4.383   6.281 -0.7161 -2.8212 -1.4591
   61SAPC  H17Y 4840   7.168   4.510   6.355 -0.8215 -0.7350 -0.1940
   61SAPC  C318 4841   7.086   4.334   6.265  0.7249 -0.0679  0.6405
   61SAPC  H18X 4842   6.997   4.372   6.317  1.3464  2.1406  0.1961
   61SAPC  H18Y 4843   7.095   4.223   6.267 -0.6221 -0.2926 -1.7411
   61SAPC  H18Z 4844   7.083   4.370   6.160  3.1859 -1.3308  0.0434
   62SAPC     N 4845   6.866   1.489   8.415  0.4354 -0.1613 -0.3730
   62SAPC   C12 4846   6.906   1.588   8.310  0.3552 -0.0237 -0.7204
   62SAPC  H12A 4847   6.876   1.552   8.213  1.2184 -2.7783 -0.0561
   62SAPC  H12B 4848   7.014   1.584   8.298  0.3701 -1.9899 -0.3129
   62SAPC   C13 4849   6.933   1.362   8.374  0.0955 -0.5328  0.2460
   62SAPC  H13A 4850   6.887   1.279   8.425 -1.0002  0.5776  1.1452
   62SAPC  H13B 4851   6.930   1.350   8.267  0.1098 -0.8184  0.2765
   62SAPC  H13C 4852   7.036   1.360   8.407  0.2764 -1.5963 -0.3501
   62SAPC   C14 4853   6.929   1.530   8.546 -0.2379 -0.1288 -0.7993
   62SAPC  H14A 4854   7.037   1.531   8.545  0.0628 -3.0567  3.1946
   62SAPC  H14B 4855   6.912   1.633   8.576 -1.2863 -0.2493 -0.9460
   62SAPC  H14C 4856   6.889   1.474   8.629 -2.3294  3.6595  1.0069
   62SAPC   C15 4857   6.713   1.470   8.421  0.6418 -0.4646 -0.1993
   62SAPC  H15A 4858   6.672   1.436   8.327 -1.0194  3.7702 -1.2463
   62SAPC  H15B 4859   6.697   1.397   8.499 -0.5095  0.0830  0.1042
   62SAPC  H15C 4860   6.667   1.565   8.446  2.1475 -0.1126  1.4656
   62SAPC   C11 4861   6.858   1.741   8.317  0.0139 -0.4924  0.4264
   62SAPC  H11A 4862   6.896   1.801   8.232 -2.2717 -0.6757 -0.8213
   62SAPC  H11B 4863   6.898   1.779   8.413  3.0485 -1.3852 -0.4030
   62SAPC     P 4864   6.629   1.793   8.213  0.0801  0.3357 -0.0770
   62SAPC   O13 4865   6.641   1.704   8.096 -0.0464 -0.0467  0.5600
   62SAPC   O14 4866   6.493   1.808   8.269 -0.0515 -0.3976 -0.1706
   62SAPC   O12 4867   6.723   1.738   8.323  0.4882 -0.4248 -0.2944
   62SAPC   O11 4868   6.691   1.937   8.208  0.3102 -0.5291  0.6611
   62SAPC    C1 4869   6.752   1.975   8.088 -0.6632  0.0755  0.3271
   62SAPC    HA 4870   6.841   2.036   8.115 -1.8316  1.1768  1.9782
   62SAPC    HB 4871   6.795   1.895   8.025  0.6021  0.6664  0.4129
   62SAPC    C2 4872   6.652   2.059   8.001 -0.3515 -0.1850  0.3821
   62SAPC    HS 4873   6.607   2.124   8.079  0.6469 -1.3343  1.9745
   62SAPC   O21 4874   6.546   1.973   7.942 -0.4351  0.2784 -0.1267
   62SAPC   C21 4875   6.455   2.048   7.878  0.3234  0.9004 -1.1610
   62SAPC   O22 4876   6.434   2.163   7.899 -0.6086 -0.1552  0.0116
   62SAPC   C22 4877   6.382   1.966   7.775  0.4193  0.3717 -0.0512
   62SAPC   H2R 4878   6.433   1.871   7.749 -0.0325 -1.1016  3.7573
   62SAPC   H2S 4879   6.281   1.928   7.802  0.9055 -2.3840 -1.7276
   62SAPC    C3 4880   6.721   2.158   7.898 -0.2771 -0.0665 -0.2461
   62SAPC    HX 4881   6.796   2.221   7.951 -3.5408  2.0197  2.3149
   62SAPC    HY 4882   6.646   2.229   7.855 -1.2620 -1.3108 -0.6193
   62SAPC   O31 4883   6.758   2.090   7.779 -0.5607 -0.3838  0.1712
   62SAPC   C31 4884   6.882   2.051   7.778 -0.4733  0.1362  0.1805
   62SAPC   O32 4885   6.971   2.079   7.858  0.3735  0.4675  0.2521
   62SAPC   C32 4886   6.902   1.965   7.653 -0.5919 -0.6183  0.3353
   62SAPC   H2X 4887   6.989   1.897   7.662 -0.9030 -1.2484 -1.0906
   62SAPC   H2Y 4888   6.915   2.041   7.573  3.1186 -1.2191  0.2165
   62SAPC   C23 4889   6.369   2.048   7.642 -0.0933 -0.1056 -0.1824
   62SAPC   H3R 4890   6.466   2.066   7.589 -0.5225  1.9583 -0.3369
   62SAPC   H3S 4891   6.315   2.141   7.669 -2.6743 -1.7261  0.5491
   62SAPC   C24 4892   6.284   1.964   7.543  0.7583 -0.0147 -0.0057
   62SAPC   H4R 4893   6.190   1.930   7.592  0.8113  0.1110  0.1811
   62SAPC   H4S 4894   6.335   1.866   7.531 -1.9312 -1.2382 -2.8185
   62SAPC   C25 4895   6.248   2.045   7.420  0.4160  0.5163  0.0558
   62SAPC   H5R 4896   6.339   2.068   7.361  1.4130 -1.9220  0.5308
   62SAPC   C26 4897   6.124   2.076   7.384 -1.5112 -0.4035  0.3461
   62SAPC   H6R 4898   6.112   2.131   7.290 -2.1301 -2.2271 -0.6890
   62SAPC   C27 4899   6.008   2.039   7.465  0.5570 -0.4302  0.2147
   62SAPC   H7R 4900   6.021   2.075   7.569  1.3115  0.5527 -0.2022
   62SAPC   H7S 4901   5.991   1.929   7.471 -2.1961 -0.1487 -1.0201
   62SAPC   C28 4902   5.891   2.117   7.414 -0.4035 -0.3126 -0.0565
   62SAPC   H8R 4903   5.883   2.221   7.448 -0.2948  0.3393 -1.8942
   62SAPC   C29 4904   5.806   2.090   7.317  0.3821 -0.1499  0.4094
   62SAPC   H9R 4905   5.723   2.157   7.293  1.6456  1.3033 -0.1194
   62SAPC  C210 4906   5.801   1.959   7.240  0.8121 -0.8547  0.1438
   62SAPC  H10R 4907   5.881   1.978   7.166  0.3195  0.0331 -0.1816
   62SAPC  H10S 4908   5.702   1.957   7.188  0.3568 -1.2926  1.0082
   62SAPC  C211 4909   5.809   1.820   7.306 -0.5767  0.0599  0.1759
   62SAPC  H11R 4910   5.785   1.813   7.413  0.8184 -1.0693  0.4541
   62SAPC  C212 4911   5.842   1.704   7.243 -0.2666 -0.1689 -0.0727
   62SAPC  H12R 4912   5.861   1.610   7.297  1.5069  0.1356 -0.0879
   62SAPC  C213 4913   5.873   1.697   7.100  0.3147 -0.4179 -0.1243
   62SAPC  H13R 4914   5.943   1.783   7.089 -2.3071  2.6081  3.7115
   62SAPC  H13S 4915   5.788   1.731   7.037  0.2690  0.9089  0.6016
   62SAPC  C214 4916   5.928   1.569   7.056  0.2509 -0.6061 -0.4640
   62SAPC  H14R 4917   5.963   1.497   7.132 -1.9108 -1.6638 -0.4092
   62SAPC  C215 4918   5.937   1.522   6.928 -0.9390 -0.7363  0.4357
   62SAPC  H15R 4919   5.969   1.417   6.923  1.4655 -0.0028 -2.1599
   62SAPC  C216 4920   5.910   1.584   6.790 -0.3362  0.3107  0.1091
   62SAPC  H16R 4921   6.005   1.580   6.733 -1.2270 -0.7792 -1.3727
   62SAPC  H16S 4922   5.876   1.690   6.801 -1.3075  0.2590 -1.9323
   62SAPC  C217 4923   5.809   1.499   6.709  0.5750  0.0599  0.7026
   62SAPC  H17R 4924   5.703   1.527   6.728  0.6673  1.5371 -0.7335
   62SAPC  H17S 4925   5.818   1.391   6.733 -2.3139  0.2475  3.2791
   62SAPC  C218 4926   5.826   1.511   6.555 -0.8206  0.1750  0.4239
   62SAPC  H18R 4927   5.917   1.456   6.523 -0.0972  1.1573  0.7573
   62SAPC  H18S 4928   5.829   1.619   6.530 -4.7157  0.8692  2.1968
   62SAPC  C219 4929   5.715   1.446   6.471  0.0491  0.9536 -0.0044
   62SAPC  H19R 4930   5.708   1.339   6.500 -0.4659  1.0398  0.2043
   62SAPC  H19S 4931   5.732   1.441   6.362  1.1367  1.6360  0.1245
   62SAPC  C220 4932   5.572   1.507   6.484  0.0983  0.6525  0.1674
   62SAPC  H20R 4933   5.506   1.441   6.423  0.1156 -1.5544  2.3426
   62SAPC  H20S 4934   5.583   1.605   6.433 -2.0499  0.9916  0.2509
   62SAPC  H20T 4935   5.547   1.518   6.592  0.5869 -0.7014  0.4374
   62SAPC   C33 4936   6.773   1.878   7.610 -0.2876 -0.4909  0.0127
   62SAPC   H3X 4937   6.679   1.933   7.590 -0.0714 -0.0490  0.1979
   62SAPC   H3Y 4938   6.745   1.821   7.701 -1.0788  0.0187  0.1021
   62SAPC   C34 4939   6.795   1.787   7.492  0.3637 -0.4577  0.1260
   62SAPC   H4X 4940   6.898   1.746   7.486 -0.2250 -1.9842 -0.1229
   62SAPC   H4Y 4941   6.793   1.847   7.398 -1.0420  0.9099  0.9867
   62SAPC   C35 4942   6.696   1.674   7.481  1.2797 -0.1122  0.0412
   62SAPC   H5X 4943   6.593   1.716   7.491  2.0323  1.5094  1.7850
   62SAPC   H5Y 4944   6.699   1.608   7.570 -0.9368  0.8076  0.8642
   62SAPC   C36 4945   6.692   1.591   7.351 -0.3909  0.5141  0.1253
   62SAPC   H6X 4946   6.586   1.557   7.345 -0.1564 -0.5697  1.4781
   62SAPC   H6Y 4947   6.765   1.507   7.355 -1.3564 -0.4237 -1.1944
   62SAPC   C37 4948   6.721   1.670   7.227 -0.3951  0.4432 -0.0371
   62SAPC   H7X 4949   6.825   1.707   7.218 -0.0926 -0.3923 -0.1363
   62SAPC   H7Y 4950   6.658   1.760   7.212 -0.5129  0.0831 -1.9423
   62SAPC   C38 4951   6.702   1.581   7.101 -0.5762  0.1430 -0.2129
   62SAPC   H8X 4952   6.601   1.537   7.092 -0.8227  0.9340 -1.6297
   62SAPC   H8Y 4953   6.781   1.503   7.099  0.8855  1.5588 -1.3501
   62SAPC   C39 4954   6.737   1.673   6.978  0.0078 -0.1570 -0.6675
   62SAPC   H9X 4955   6.840   1.713   6.992 -0.5031  0.6649  1.0302
   62SAPC   H9Y 4956   6.671   1.762   6.982  3.5859  2.7254  0.2376
   62SAPC  C310 4957   6.730   1.602   6.849  0.1375 -0.1587  0.1893
   62SAPC  H10X 4958   6.629   1.560   6.828  1.3701 -2.0632 -2.4211
   62SAPC  H10Y 4959   6.807   1.522   6.847 -0.1220 -0.4104 -1.8401
   62SAPC  C311 4960   6.753   1.696   6.726 -0.0785  0.5672  0.0381
   62SAPC  H11X 4961   6.846   1.750   6.751  2.2750 -3.6945  1.5596
   62SAPC  H11Y 4962   6.681   1.780   6.727 -1.6535 -0.7267  0.9882
   62SAPC  C312 4963   6.770   1.612   6.593 -0.0249  0.0605  0.4706
   62SAPC  H12X 4964   6.776   1.687   6.512 -1.1691 -1.8557 -1.4853
   62SAPC  H12Y 4965   6.678   1.550   6.584 -0.4950  0.8495 -0.2586
   62SAPC  C313 4966   6.888   1.522   6.585 -0.3943 -0.3302  0.9477
   62SAPC  H13X 4967   6.904   1.444   6.662  1.7664 -1.4610 -0.5521
   62SAPC  H13Y 4968   6.985   1.574   6.571 -0.8058  0.3565  0.5363
   62SAPC  C314 4969   6.870   1.435   6.453  0.3332 -0.7108  0.7419
   62SAPC  H14X 4970   6.775   1.378   6.451  0.2183 -0.5147  0.6271
   62SAPC  H14Y 4971   6.949   1.356   6.461 -0.4149 -1.6406 -0.5457
   62SAPC  C315 4972   6.903   1.506   6.322  0.5895 -0.2738  0.1560
   62SAPC  H15X 4973   6.996   1.561   6.347 -0.2913  1.6433 -0.6045
   62SAPC  H15Y 4974   6.828   1.586   6.303 -1.7908 -2.8439 -2.2362
   62SAPC  C316 4975   6.909   1.415   6.196 -1.0876 -0.0419  0.6852
   62SAPC  H16X 4976   6.974   1.327   6.213 -1.9371 -0.4881  1.7287
   62SAPC  H16Y 4977   6.956   1.481   6.119 -1.2177 -1.0541 -0.2997
   62SAPC  C317 4978   6.768   1.378   6.145  0.7325 -0.1029  0.0188
   62SAPC  H17X 4979   6.717   1.477   6.143  0.6750 -0.1270 -1.7384
   62SAPC  H17Y 4980   6.712   1.329   6.228  0.9358  0.6387  0.6067
   62SAPC  C318 4981   6.752   1.317   6.001 -0.1561 -0.0208 -0.1844
   62SAPC  H18X 4982   6.644   1.300   5.980  0.1596  0.5667 -2.5869
   62SAPC  H18Y 4983   6.810   1.222   5.994 -0.0480  0.1277 -1.4317
   62SAPC  H18Z 4984   6.790   1.378   5.917 -0.9163 -0.1822 -0.6525
   63SAPC     N 4985   6.877   5.299   8.353 -0.5005 -0.0364 -0.7703
   63SAPC   C12 4986   7.005   5.360   8.287  0.2134  0.4229 -0.1698
   63SAPC  H12A 4987   6.968   5.418   8.204 -0.9791  2.2160  1.5203
   63SAPC  H12B 4988   7.059   5.280   8.238  2.7220 -0.9000  4.1703
   63SAPC   C13 4989   6.907   5.189   8.453 -0.9955  0.3203  0.1394
   63SAPC  H13A 4990   6.969   5.118   8.401 -0.5878  1.9053 -1.6379
   63SAPC  H13B 4991   6.968   5.228   8.534 -0.7716 -0.8095  0.5325
   63SAPC  H13C 4992   6.817   5.151   8.499 -1.6019 -0.8123 -1.8516
   63SAPC   C14 4993   6.796   5.402   8.423  0.7291 -0.7366 -1.0052
   63SAPC  H14A 4994   6.708   5.360   8.470  1.2795 -0.9667 -0.1608
   63SAPC  H14B 4995   6.850   5.457   8.499 -0.0618 -1.2716 -0.0393
   63SAPC  H14C 4996   6.762   5.479   8.354 -0.2748 -0.3223 -0.0847
   63SAPC   C15 4997   6.795   5.236   8.251  0.0196 -0.1076 -0.1743
   63SAPC  H15A 4998   6.706   5.201   8.301  1.5290  0.1275  2.9247
   63SAPC  H15B 4999   6.766   5.293   8.165  0.8609  0.1658 -0.2893
   63SAPC  H15C 5000   6.842   5.148   8.209  1.6664  0.6349  0.0166
   63SAPC   C11 5001   7.116   5.442   8.365  0.3922  0.4443  0.2446
   63SAPC  H11A 5002   7.062   5.534   8.397 -0.7029 -1.3937  4.2645
   63SAPC  H11B 5003   7.199   5.461   8.293 -0.6430  1.4536 -0.7108
   63SAPC     P 5004   7.246   5.249   8.488  0.0066  0.1885  0.1158
   63SAPC   O13 5005   7.380   5.307   8.499 -0.4173  0.4525  0.3081
   63SAPC   O14 5006   7.200   5.154   8.594 -0.5178  0.3046 -0.8712
   63SAPC   O12 5007   7.143   5.370   8.488  0.1711  0.0679 -0.4822
   63SAPC   O11 5008   7.237   5.180   8.344 -0.1027  0.0358  0.7859
   63SAPC    C1 5009   7.339   5.098   8.293  0.3311  0.6819  0.3141
   63SAPC    HA 5010   7.438   5.118   8.338 -0.8701  1.0911  2.9608
   63SAPC    HB 5011   7.314   4.991   8.311 -1.2746  0.8352 -0.7655
   63SAPC    C2 5012   7.342   5.106   8.141 -0.6485  0.1386  0.0944
   63SAPC    HS 5013   7.241   5.088   8.098  0.1191 -2.3036 -0.8895
   63SAPC   O21 5014   7.432   4.996   8.102  0.0094  0.4856 -0.4504
   63SAPC   C21 5015   7.456   4.978   7.972 -0.1442 -0.3767 -0.1907
   63SAPC   O22 5016   7.384   5.015   7.879  0.3958 -0.0582  0.2656
   63SAPC   C22 5017   7.576   4.880   7.962 -0.7818  0.6653 -0.3518
   63SAPC   H2R 5018   7.650   4.902   8.042 -0.7540  0.5533 -0.3477
   63SAPC   H2S 5019   7.543   4.776   7.981 -0.9407  1.1009  2.0423
   63SAPC    C3 5020   7.398   5.247   8.093  0.8696 -0.3440 -0.3000
   63SAPC    HX 5021   7.508   5.260   8.109  0.7874  3.3485 -1.6562
   63SAPC    HY 5022   7.349   5.314   8.166  3.8392 -1.0797  2.6406
   63SAPC   O31 5023   7.364   5.289   7.961  0.0168 -0.3263  0.9956
   63SAPC   C31 5024   7.228   5.280   7.932  0.0130  0.0176  0.1459
   63SAPC   O32 5025   7.143   5.288   8.012  0.2024 -0.6403 -0.3296
   63SAPC   C32 5026   7.207   5.273   7.780  0.0781 -0.4405  0.2436
   63SAPC   H2X 5027   7.303   5.268   7.724  1.0853  0.1252  1.8322
   63SAPC   H2Y 5028   7.157   5.367   7.751  1.0625 -0.3756 -1.3094
   63SAPC   C23 5029   7.641   4.895   7.821 -0.4051  0.3757 -0.4896
   63SAPC   H3R 5030   7.688   4.995   7.825  0.8398 -0.1629 -0.8869
   63SAPC   H3S 5031   7.561   4.893   7.745 -1.6732  0.3487  0.8097
   63SAPC   C24 5032   7.732   4.781   7.791 -0.4392  0.1245  0.4515
   63SAPC   H4R 5033   7.664   4.693   7.792  1.4150 -1.4255 -1.4274
   63SAPC   H4S 5034   7.811   4.763   7.867  0.1178  1.5507  0.2412
   63SAPC   C25 5035   7.777   4.812   7.650 -0.2901 -0.9010 -0.5501
   63SAPC   H5R 5036   7.716   4.885   7.594 -0.4477 -0.7644 -0.2045
   63SAPC   C26 5037   7.887   4.762   7.596  0.2753  0.3336  0.5605
   63SAPC   H6R 5038   7.895   4.781   7.488  1.1257  1.1035  0.7475
   63SAPC   C27 5039   7.982   4.671   7.668 -0.1420  0.1478  0.0719
   63SAPC   H7R 5040   7.928   4.580   7.704  1.0138 -1.0795 -1.1910
   63SAPC   H7S 5041   8.018   4.719   7.761  0.2930  0.4198 -0.2405
   63SAPC   C28 5042   8.099   4.628   7.592 -0.1964 -0.5034  0.7433
   63SAPC   H8R 5043   8.201   4.663   7.615  0.4905 -1.2153 -1.0835
   63SAPC   C29 5044   8.094   4.553   7.475  0.5893 -0.0113  0.3094
   63SAPC   H9R 5045   8.188   4.537   7.421  0.4379 -0.2480  0.1150
   63SAPC  C210 5046   7.965   4.494   7.418  0.1778  0.5746  0.2142
   63SAPC  H10R 5047   7.916   4.562   7.345  0.0409 -0.9280 -1.1659
   63SAPC  H10S 5048   7.878   4.477   7.486  0.3582  0.0591  0.3196
   63SAPC  C211 5049   7.990   4.359   7.364  0.5196  0.4667  0.1056
   63SAPC  H11R 5050   8.062   4.302   7.423 -0.1968  0.5662  1.0905
   63SAPC  C212 5051   7.935   4.295   7.256  0.1825  0.7097 -0.2785
   63SAPC  H12R 5052   7.963   4.192   7.232  0.5032  0.1441  2.2516
   63SAPC  C213 5053   7.858   4.363   7.144 -0.2947  0.0295 -0.7067
   63SAPC  H13R 5054   7.923   4.369   7.055 -0.3448 -1.9220 -0.9187
   63SAPC  H13S 5055   7.843   4.472   7.159  0.2806  0.1131 -0.7342
   63SAPC  C214 5056   7.727   4.293   7.118  0.0843 -0.3771 -0.7777
   63SAPC  H14R 5057   7.640   4.337   7.170  1.0653 -0.4170  0.9732
   63SAPC  C215 5058   7.712   4.195   7.030 -0.4905 -0.5409 -0.1296
   63SAPC  H15R 5059   7.617   4.140   7.029 -2.4285  2.5593 -0.6890
   63SAPC  C216 5060   7.818   4.134   6.937  0.9091 -0.5353  0.0918
   63SAPC  H16R 5061   7.787   4.034   6.900  0.4233 -0.6551  0.7884
   63SAPC  H16S 5062   7.914   4.122   6.991  1.4947  3.4151  0.2490
   63SAPC  C217 5063   7.830   4.228   6.816  0.3607 -0.0376 -0.3217
   63SAPC  H17R 5064   7.879   4.322   6.849  0.1830  0.5976 -1.8133
   63SAPC  H17S 5065   7.728   4.255   6.782 -0.0232 -1.0712 -0.0264
   63SAPC  C218 5066   7.900   4.150   6.714 -0.2690  0.2836  0.4995
   63SAPC  H18R 5067   7.835   4.062   6.693  1.5973 -0.7440 -1.3038
   63SAPC  H18S 5068   7.990   4.098   6.754  0.3715  0.3661 -0.7973
   63SAPC  C219 5069   7.927   4.231   6.589 -0.0509 -0.4718 -0.3039
   63SAPC  H19R 5070   7.986   4.322   6.610  0.0941  0.0383 -2.5858
   63SAPC  H19S 5071   7.833   4.272   6.548 -0.7656 -0.0301  1.7043
   63SAPC  C220 5072   7.999   4.153   6.486  0.1351  0.0679  0.2254
   63SAPC  H20R 5073   8.094   4.118   6.533  0.0194 -0.8211 -0.1891
   63SAPC  H20S 5074   8.016   4.224   6.402 -1.0618  2.6417  2.0001
   63SAPC  H20T 5075   7.948   4.063   6.448  0.8577 -0.9211  1.5186
   63SAPC   C33 5076   7.122   5.157   7.718  0.0539 -0.3318 -0.0051
   63SAPC   H3X 5077   7.029   5.153   7.779 -0.0383 -1.9539 -0.1991
   63SAPC   H3Y 5078   7.179   5.062   7.733  0.2387 -0.3855 -0.9977
   63SAPC   C34 5079   7.091   5.179   7.573  0.7255  0.1730 -0.7899
   63SAPC   H4X 5080   7.182   5.164   7.511  0.7997 -1.4664 -0.3467
   63SAPC   H4Y 5081   7.050   5.277   7.542 -1.4416 -1.2148 -2.6474
   63SAPC   C35 5082   6.988   5.079   7.528 -0.2953  0.3939  0.8543
   63SAPC   H5X 5083   6.888   5.109   7.565  0.6917  2.4702  1.9890
   63SAPC   H5Y 5084   7.006   4.980   7.575  0.2764  0.3797  0.6136
   63SAPC   C36 5085   6.988   5.047   7.381  0.3367  0.1908  0.3008
   63SAPC   H6X 5086   6.992   5.144   7.327 -0.7694  0.1225  0.0738
   63SAPC   H6Y 5087   6.892   5.001   7.350  0.1176  0.0314  1.1867
   63SAPC   C37 5088   7.098   4.947   7.334 -0.7790 -0.6845 -0.1429
   63SAPC   H7X 5089   7.098   4.846   7.380  0.4197 -0.3638  0.5838
   63SAPC   H7Y 5090   7.195   4.991   7.366 -1.8615 -0.0743  2.5241
   63SAPC   C38 5091   7.078   4.923   7.186 -0.0541  0.7314 -0.5853
   63SAPC   H8X 5092   7.068   5.016   7.126 -0.5365  1.1150  0.0866
   63SAPC   H8Y 5093   6.989   4.863   7.160  0.5799 -0.3695 -0.2736
   63SAPC   C39 5094   7.202   4.850   7.132  0.0925 -0.2924  0.0124
   63SAPC   H9X 5095   7.223   4.764   7.199  1.0744 -0.7848 -0.9045
   63SAPC   H9Y 5096   7.293   4.905   7.164 -1.1375  0.2715  2.8982
   63SAPC  C310 5097   7.205   4.805   6.987  0.0328  0.7565  0.3607
   63SAPC  H10X 5098   7.138   4.717   6.980 -1.7141  2.1346 -1.7351
   63SAPC  H10Y 5099   7.310   4.780   6.959  0.8800  1.0261  3.0364
   63SAPC  C311 5100   7.155   4.912   6.879  0.3939 -0.3895  0.0866
   63SAPC  H11X 5101   7.175   5.015   6.917  0.5385 -0.7854  1.1093
   63SAPC  H11Y 5102   7.044   4.911   6.874  0.3281  1.9841 -0.0124
   63SAPC  C312 5103   7.223   4.895   6.744 -0.8696 -0.9074 -0.7756
   63SAPC  H12X 5104   7.254   4.789   6.737  1.5207 -0.2487 -1.1416
   63SAPC  H12Y 5105   7.315   4.956   6.739 -0.9781 -0.7066 -0.3643
   63SAPC  C313 5106   7.132   4.930   6.627  0.0314  0.2518  0.0063
   63SAPC  H13X 5107   7.082   5.026   6.649  0.2942  0.3992 -0.0319
   63SAPC  H13Y 5108   7.059   4.848   6.611  1.3637 -0.8604 -0.5315
   63SAPC  C314 5109   7.209   4.951   6.491  0.2092  0.3594 -0.4691
   63SAPC  H14X 5110   7.273   5.038   6.517 -1.1410  0.9624  1.0041
   63SAPC  H14Y 5111   7.133   4.972   6.414  0.8017  1.0229 -0.8818
   63SAPC  C315 5112   7.290   4.833   6.450 -0.3393 -0.1137  0.4298
   63SAPC  H15X 5113   7.230   4.739   6.443  1.2400 -1.0308 -1.9429
   63SAPC  H15Y 5114   7.377   4.803   6.513  1.2971  1.3589 -1.0643
   63SAPC  C316 5115   7.360   4.852   6.316 -0.0479  0.3258  0.1019
   63SAPC  H16X 5116   7.447   4.917   6.340 -0.6200  0.6913  1.2277
   63SAPC  H16Y 5117   7.294   4.902   6.242  2.1850  2.1611 -0.7854
   63SAPC  C317 5118   7.411   4.720   6.259 -0.4442  0.2543  0.6230
   63SAPC  H17X 5119   7.321   4.657   6.243  1.4727 -2.3201 -0.7787
   63SAPC  H17Y 5120   7.475   4.665   6.333  1.4428  0.3027 -0.8934
   63SAPC  C318 5121   7.491   4.727   6.126 -0.3568  0.8778 -0.0626
   63SAPC  H18X 5122   7.516   4.629   6.080 -2.4083  1.2232 -2.0490
   63SAPC  H18Y 5123   7.588   4.780   6.141  0.8833 -1.3095  0.0281
   63SAPC  H18Z 5124   7.435   4.779   6.045 -0.5303 -2.8108 -2.5461
   64SAPC     N 5125   1.160   1.813   0.131 -0.6928  0.3482 -0.1970
   64SAPC   C12 5126   1.237   1.857   0.008 -0.4861  0.7326  0.3927
   64SAPC  H12A 5127   1.320   1.789   0.005 -0.6026  0.6095 -0.2062
   64SAPC  H12B 5128   1.281   1.954   0.027  0.1151  0.8520 -1.4138
   64SAPC   C13 5129   1.049   1.903   0.132  0.3544  0.4424 -0.1010
   64SAPC  H13A 5130   1.008   1.903   0.032  0.5749 -1.3590 -0.2338
   64SAPC  H13B 5131   0.972   1.874   0.202 -1.3510 -1.4121 -2.5301
   64SAPC  H13C 5132   1.083   2.001   0.161  0.7890  0.8224 -1.7851
   64SAPC   C14 5133   1.126   1.666   0.117 -0.5959  0.0812  0.4901
   64SAPC  H14A 5134   1.217   1.609   0.106 -1.4647 -1.1927 -0.4526
   64SAPC  H14B 5135   1.088   1.628   0.211  2.4165 -1.4781  1.2094
   64SAPC  H14C 5136   1.063   1.645   0.032 -2.9223 -0.8792  2.3183
   64SAPC   C15 5137   1.251   1.830   0.253 -0.3235  0.6974  1.0287
   64SAPC  H15A 5138   1.346   1.780   0.241 -1.3217 -0.7584 -1.8145
   64SAPC  H15B 5139   1.272   1.931   0.283 -1.4062  1.3186 -0.1855
   64SAPC  H15C 5140   1.195   1.789   0.335 -0.4237 -0.3363  0.4678
   64SAPC   C11 5141   1.163   1.850  -0.132  0.2275  0.0273 -0.6975
   64SAPC  H11A 5142   1.128   1.745  -0.144  0.5075 -0.6559  3.1589
   64SAPC  H11B 5143   1.245   1.851  -0.206  0.7604 -2.6094 -0.2535
   64SAPC     P 5144   1.093   2.084  -0.217 -0.6057 -0.6140  0.5909
   64SAPC   O13 5145   0.969   2.159  -0.237  0.1231 -0.0072 -0.1970
   64SAPC   O14 5146   1.200   2.147  -0.133  0.1004  0.5619  0.1954
   64SAPC   O12 5147   1.062   1.945  -0.150 -0.5773  0.0349 -0.3859
   64SAPC   O11 5148   1.158   2.043  -0.354 -0.0735 -0.1301  0.3416
   64SAPC    C1 5149   1.090   1.968  -0.452 -1.1848 -0.0201  0.1562
   64SAPC    HA 5150   1.158   1.900  -0.507  1.6689  2.9153 -0.2844
   64SAPC    HB 5151   1.009   1.907  -0.405  1.3647 -2.5783  1.5281
   64SAPC    C2 5152   1.029   2.059  -0.564 -0.2335  0.3378  0.3084
   64SAPC    HS 5153   0.934   2.104  -0.530 -0.0273  1.0778 -0.0745
   64SAPC   O21 5154   1.005   1.982  -0.682 -0.4623  0.1662  0.8169
   64SAPC   C21 5155   0.913   1.891  -0.666  0.7344 -0.9565 -0.0410
   64SAPC   O22 5156   0.829   1.878  -0.577  0.5293  0.4046 -0.0132
   64SAPC   C22 5157   0.937   1.793  -0.777  0.0300  0.5699 -0.3260
   64SAPC   H2R 5158   1.032   1.807  -0.834  0.8775  0.2577  0.9719
   64SAPC   H2S 5159   0.945   1.699  -0.719 -1.7974  1.0585  0.8077
   64SAPC    C3 5160   1.126   2.178  -0.604 -0.0743 -0.2638 -0.6612
   64SAPC    HX 5161   1.230   2.142  -0.617 -0.1509 -0.6084 -0.3226
   64SAPC    HY 5162   1.126   2.243  -0.514  3.4298 -0.9321 -0.0597
   64SAPC   O31 5163   1.092   2.246  -0.724  0.8660  0.5470 -0.7998
   64SAPC   C31 5164   0.974   2.306  -0.735 -0.7048  0.1100  0.5058
   64SAPC   O32 5165   0.893   2.330  -0.649  0.0774  0.1216 -0.2220
   64SAPC   C32 5166   0.958   2.355  -0.880 -0.1409 -0.7736 -0.2393
   64SAPC   H2X 5167   1.056   2.360  -0.933  0.8513 -0.1151  1.5748
   64SAPC   H2Y 5168   0.917   2.458  -0.880 -0.8762 -1.0498 -1.0833
   64SAPC   C23 5169   0.810   1.766  -0.865 -0.8436 -0.2746  0.4711
   64SAPC   H3R 5170   0.727   1.784  -0.794  0.8925 -0.5792  2.6537
   64SAPC   H3S 5171   0.823   1.658  -0.887  1.2681 -0.9176  4.1352
   64SAPC   C24 5172   0.815   1.857  -0.990 -0.4003 -0.2310  0.2040
   64SAPC   H4R 5173   0.919   1.844  -1.028  0.9090  0.5894  3.2045
   64SAPC   H4S 5174   0.809   1.966  -0.970  1.1521 -0.2418  0.9079
   64SAPC   C25 5175   0.715   1.813  -1.090  0.4369  0.0924 -0.2669
   64SAPC   H5R 5176   0.630   1.754  -1.053 -1.4817  2.6932 -0.2113
   64SAPC   C26 5177   0.709   1.846  -1.221 -0.3552  0.5491 -0.6273
   64SAPC   H6R 5178   0.625   1.810  -1.282  0.0941 -2.4645  0.3797
   64SAPC   C27 5179   0.807   1.933  -1.298  0.3104  0.0316  0.6264
   64SAPC   H7R 5180   0.873   1.867  -1.359 -1.3901  0.1660 -1.4616
   64SAPC   H7S 5181   0.865   1.998  -1.230 -1.8926  1.3834  1.3226
   64SAPC   C28 5182   0.725   2.027  -1.386  0.3857  0.2905 -0.5805
   64SAPC   H8R 5183   0.670   2.108  -1.335  0.2039  0.2740 -0.7502
   64SAPC   C29 5184   0.703   2.002  -1.514  0.4148  0.0399 -0.4072
   64SAPC   H9R 5185   0.636   2.073  -1.564  0.8144  0.3837 -0.4651
   64SAPC  C210 5186   0.756   1.888  -1.599 -0.4847 -0.9954  0.4834
   64SAPC  H10R 5187   0.823   1.816  -1.547 -2.2517 -3.5593 -0.5829
   64SAPC  H10S 5188   0.820   1.936  -1.676 -1.0026 -1.5355 -0.2948
   64SAPC  C211 5189   0.641   1.808  -1.649 -0.2844  0.0191  0.4339
   64SAPC  H11R 5190   0.601   1.751  -1.564  0.1593  2.1307  2.1290
   64SAPC  C212 5191   0.598   1.802  -1.781 -0.6136  1.1963 -1.0500
   64SAPC  H12R 5192   0.511   1.737  -1.801 -0.4188  0.1659  1.1225
   64SAPC  C213 5193   0.670   1.878  -1.885  0.0660 -0.1299 -0.1424
   64SAPC  H13R 5194   0.774   1.912  -1.864  0.2486 -0.6680 -0.1615
   64SAPC  H13S 5195   0.612   1.972  -1.896 -0.4620 -0.3923  0.3963
   64SAPC  C214 5196   0.677   1.806  -2.019 -0.0899 -0.3230 -0.4051
   64SAPC  H14R 5197   0.743   1.719  -2.023  1.2767  0.7117 -0.9129
   64SAPC  C215 5198   0.613   1.851  -2.132 -0.2701  0.7929 -0.1780
   64SAPC  H15R 5199   0.629   1.789  -2.221  0.5718  1.4009 -0.4653
   64SAPC  C216 5200   0.533   1.976  -2.162  0.0904 -0.6473 -0.7747
   64SAPC  H16R 5201   0.481   2.013  -2.071  1.1596  1.8223 -1.0952
   64SAPC  H16S 5202   0.459   1.958  -2.243 -0.0061  1.7909 -1.3126
   64SAPC  C217 5203   0.613   2.104  -2.223  0.3847  0.6224 -0.1886
   64SAPC  H17R 5204   0.692   2.139  -2.153  1.6502  0.3802 -1.4621
   64SAPC  H17S 5205   0.526   2.173  -2.233 -1.3569 -1.1109  1.9165
   64SAPC  C218 5206   0.671   2.082  -2.363  0.0142  0.3819 -0.0689
   64SAPC  H18R 5207   0.592   2.056  -2.437 -0.1041 -1.9918  0.8196
   64SAPC  H18S 5208   0.738   1.993  -2.364 -2.3093 -1.4698 -0.6088
   64SAPC  C219 5209   0.752   2.198  -2.411  0.1236 -0.3146  0.2171
   64SAPC  H19R 5210   0.829   2.165  -2.485  0.4849  1.8336 -0.4446
   64SAPC  H19S 5211   0.797   2.247  -2.322 -2.7647 -0.7018  2.0139
   64SAPC  C220 5212   0.670   2.310  -2.486  0.1847  0.1894  0.2164
   64SAPC  H20R 5213   0.739   2.387  -2.527  0.3851 -1.6637 -3.4165
   64SAPC  H20S 5214   0.603   2.367  -2.419 -1.1951 -0.5879 -0.4369
   64SAPC  H20T 5215   0.620   2.269  -2.577  0.5583  1.4519 -0.5794
   64SAPC   C33 5216   0.864   2.253  -0.950 -0.3180  0.9352 -0.1314
   64SAPC   H3X 5217   0.789   2.233  -0.871  1.1184  2.7996  1.8046
   64SAPC   H3Y 5218   0.917   2.159  -0.976  0.7477  1.8816 -1.5041
   64SAPC   C34 5219   0.793   2.314  -1.070 -1.0956  0.9753 -0.7125
   64SAPC   H4X 5220   0.725   2.396  -1.038 -1.0703  0.2130  1.4584
   64SAPC   H4Y 5221   0.743   2.234  -1.128 -1.8708  0.3214  0.8076
   64SAPC   C35 5222   0.878   2.383  -1.173  0.4044 -0.4281 -0.3802
   64SAPC   H5X 5223   0.970   2.324  -1.193  0.8164 -0.4242  1.3821
   64SAPC   H5Y 5224   0.920   2.471  -1.119 -0.2049 -0.7693  0.6648
   64SAPC   C36 5225   0.807   2.418  -1.305  0.2720  0.0508  0.1074
   64SAPC   H6X 5226   0.725   2.494  -1.306  0.8403  0.7346 -2.7619
   64SAPC   H6Y 5227   0.751   2.328  -1.338  1.0640  0.4448 -2.5857
   64SAPC   C37 5228   0.917   2.451  -1.415 -0.6392 -0.4765 -0.5488
   64SAPC   H7X 5229   0.994   2.372  -1.413  1.4535  1.4573  1.3851
   64SAPC   H7Y 5230   0.969   2.540  -1.372 -0.4679 -1.7881  2.1477
   64SAPC   C38 5231   0.852   2.465  -1.552 -0.9158 -0.5355  0.4892
   64SAPC   H8X 5232   0.921   2.509  -1.627 -0.0962  0.1297  1.5989
   64SAPC   H8Y 5233   0.767   2.536  -1.545 -1.5103 -1.1412 -0.3892
   64SAPC   C39 5234   0.801   2.336  -1.615  0.0798  0.9339  0.2702
   64SAPC   H9X 5235   0.714   2.298  -1.557 -0.4986 -0.1245 -1.2279
   64SAPC   H9Y 5236   0.877   2.255  -1.611 -0.7771  0.0870 -0.2295
   64SAPC  C310 5237   0.758   2.356  -1.761  0.3033  0.5409 -0.3088
   64SAPC  H10X 5238   0.716   2.458  -1.779  1.7267  1.3655  0.8478
   64SAPC  H10Y 5239   0.675   2.287  -1.787  0.3951  0.8527 -1.5205
   64SAPC  C311 5240   0.870   2.325  -1.861  0.8048  0.9664  0.0438
   64SAPC  H11X 5241   0.964   2.367  -1.820 -0.3436  2.5469  1.1603
   64SAPC  H11Y 5242   0.852   2.372  -1.960 -0.6921 -0.0546 -0.2194
   64SAPC  C312 5243   0.886   2.175  -1.883  0.2374 -0.6636  0.0739
   64SAPC  H12X 5244   0.810   2.139  -1.956 -0.2255 -1.0882  0.7522
   64SAPC  H12Y 5245   0.885   2.109  -1.794 -0.2422 -1.4062 -0.4627
   64SAPC  C313 5246   1.020   2.147  -1.949  0.5737  0.1634 -0.1405
   64SAPC  H13X 5247   1.116   2.178  -1.902  1.1479  0.2688 -1.3600
   64SAPC  H13Y 5248   1.017   2.203  -2.045 -0.3366 -0.6163 -0.5761
   64SAPC  C314 5249   1.021   1.992  -1.978  0.0923  0.0920  0.0158
   64SAPC  H14X 5250   0.952   1.968  -2.062  0.0706  0.4566 -0.0700
   64SAPC  H14Y 5251   0.988   1.949  -1.880 -0.4519  0.8506  0.1753
   64SAPC  C315 5252   1.168   1.938  -2.010  0.8234 -0.9986  0.5199
   64SAPC  H15X 5253   1.171   1.827  -2.025  0.8209 -0.7608 -1.5085
   64SAPC  H15Y 5254   1.215   1.966  -1.913 -1.3619 -0.0748  1.3681
   64SAPC  C316 5255   1.229   2.015  -2.122  0.1332 -0.2342  0.8971
   64SAPC  H16X 5256   1.339   2.000  -2.126  0.2507  0.7782 -0.5671
   64SAPC  H16Y 5257   1.223   2.126  -2.125 -0.5812 -0.2519 -2.3527
   64SAPC  C317 5258   1.178   1.977  -2.264 -0.2750 -0.0910 -0.4424
   64SAPC  H17X 5259   1.068   1.991  -2.270 -0.6017 -1.8964  0.5138
   64SAPC  H17Y 5260   1.199   1.869  -2.277 -2.7947 -0.6310 -0.3896
   64SAPC  C318 5261   1.266   2.040  -2.366  0.7902  0.1444 -0.2987
   64SAPC  H18X 5262   1.241   2.146  -2.388 -1.3322  0.0872  1.5542
   64SAPC  H18Y 5263   1.250   1.985  -2.462  0.8600 -1.2977  0.4922
   64SAPC  H18Z 5264   1.372   2.027  -2.334  0.8074  1.3574  0.2016
   65SAPC     N 5265   6.239   4.510   3.821 -0.2499 -0.4279 -0.4945
   65SAPC   C12 5266   6.193   4.523   3.974 -0.8300 -0.6689  0.0908
   65SAPC  H12A 5267   6.168   4.425   4.010  0.7101 -0.0955  3.0508
   65SAPC  H12B 5268   6.107   4.589   3.981 -0.6421 -0.4752  0.7228
   65SAPC   C13 5269   6.301   4.639   3.791  0.3180 -0.5052  0.2020
   65SAPC  H13A 5270   6.342   4.646   3.691 -1.2012  0.6811 -0.3825
   65SAPC  H13B 5271   6.220   4.710   3.789 -1.3147 -2.2949 -0.7833
   65SAPC  H13C 5272   6.374   4.680   3.858 -1.1014 -0.8937  2.0710
   65SAPC   C14 5273   6.336   4.398   3.811 -0.3071 -0.0992  0.2011
   65SAPC  H14A 5274   6.307   4.306   3.861  3.5787 -0.5060  2.0346
   65SAPC  H14B 5275   6.373   4.380   3.711 -1.2499  1.6010 -0.5002
   65SAPC  H14C 5276   6.430   4.435   3.849 -0.8763  0.0236  1.5502
   65SAPC   C15 5277   6.114   4.490   3.736  0.1044  0.6267  0.0465
   65SAPC  H15A 5278   6.055   4.580   3.738 -0.0574  0.5118  0.7967
   65SAPC  H15B 5279   6.141   4.469   3.634  0.8282  1.8198 -0.0166
   65SAPC  H15C 5280   6.051   4.409   3.772 -1.5358  1.5021 -0.7198
   65SAPC   C11 5281   6.301   4.578   4.071 -0.1146 -0.3721  0.1052
   65SAPC  H11A 5282   6.390   4.512   4.061 -1.2944 -1.7911 -1.6403
   65SAPC  H11B 5283   6.276   4.561   4.178  0.4139  0.1219  0.3070
   65SAPC     P 5284   6.235   4.827   4.097 -0.7197 -0.4988  0.1629
   65SAPC   O13 5285   6.290   4.960   4.052 -0.4999 -0.0996  0.3637
   65SAPC   O14 5286   6.100   4.796   4.053 -0.2997  0.7232 -0.0290
   65SAPC   O12 5287   6.339   4.717   4.059  0.1130  0.0811 -0.6381
   65SAPC   O11 5288   6.231   4.809   4.250 -0.1050  0.1606 -0.7266
   65SAPC    C1 5289   6.340   4.829   4.343 -0.0086 -0.5014  0.0688
   65SAPC    HA 5290   6.434   4.775   4.319  2.3686  3.3809 -0.2605
   65SAPC    HB 5291   6.370   4.936   4.336 -1.2306 -0.1844 -0.8143
   65SAPC    C2 5292   6.301   4.784   4.493  0.0399 -0.6024  0.3723
   65SAPC    HS 5293   6.387   4.830   4.546 -0.6985  1.8860 -0.4622
   65SAPC   O21 5294   6.276   4.642   4.509 -0.5460 -0.6623  0.6032
   65SAPC   C21 5295   6.394   4.579   4.511  0.2590 -0.1931 -0.1451
   65SAPC   O22 5296   6.504   4.631   4.493  0.2471 -0.5819 -0.7516
   65SAPC   C22 5297   6.383   4.432   4.556  0.2191  0.3727 -0.2123
   65SAPC   H2R 5298   6.277   4.399   4.558 -0.0209  1.1508  0.8835
   65SAPC   H2S 5299   6.455   4.372   4.497  0.1778  1.0886 -1.0123
   65SAPC    C3 5300   6.171   4.857   4.534 -0.2317  0.3731 -0.8866
   65SAPC    HX 5301   6.082   4.814   4.483 -1.3404  1.0648  0.3971
   65SAPC    HY 5302   6.181   4.952   4.478 -0.0323  2.0328  1.7810
   65SAPC   O31 5303   6.166   4.883   4.677 -0.5758 -0.0633  0.3467
   65SAPC   C31 5304   6.087   4.810   4.742  0.3707  0.2722  0.3404
   65SAPC   O32 5305   6.006   4.729   4.693 -0.6488 -0.5776  0.3378
   65SAPC   C32 5306   6.099   4.840   4.883 -0.3493  0.7266  0.0595
   65SAPC   H2X 5307   6.063   4.943   4.903  0.6455  1.1195 -0.1316
   65SAPC   H2Y 5308   6.206   4.829   4.912 -0.2598  1.5172  0.0477
   65SAPC   C23 5309   6.439   4.419   4.702  0.5357 -0.1396  0.7108
   65SAPC   H3R 5310   6.544   4.452   4.697  0.1601  0.9053 -1.3620
   65SAPC   H3S 5311   6.431   4.311   4.727 -1.4024 -0.5221 -1.2542
   65SAPC   C24 5312   6.377   4.518   4.806  0.7362 -0.5956 -0.6839
   65SAPC   H4R 5313   6.388   4.624   4.774  1.6953 -0.2666  0.6754
   65SAPC   H4S 5314   6.445   4.495   4.890  1.8523 -1.6279 -1.8371
   65SAPC   C25 5315   6.228   4.475   4.831 -0.4493 -0.0924  0.0053
   65SAPC   H5R 5316   6.152   4.510   4.760 -0.1344  0.1603 -0.2110
   65SAPC   C26 5317   6.184   4.403   4.935 -0.0534 -0.0953  0.4355
   65SAPC   H6R 5318   6.075   4.402   4.952  0.1155 -0.5771  1.5729
   65SAPC   C27 5319   6.263   4.333   5.041 -0.2223  0.0087  1.0574
   65SAPC   H7R 5320   6.286   4.409   5.119  1.6716  0.9205 -0.2959
   65SAPC   H7S 5321   6.356   4.297   4.992 -0.2427  1.6853 -0.3095
   65SAPC   C28 5322   6.203   4.209   5.096 -0.0068  0.2353 -0.0675
   65SAPC   H8R 5323   6.143   4.159   5.018 -1.2719  1.1186  0.3141
   65SAPC   C29 5324   6.217   4.159   5.221  0.1107 -0.3405 -0.3324
   65SAPC   H9R 5325   6.177   4.060   5.246 -0.4612 -0.2088 -0.6960
   65SAPC  C210 5326   6.295   4.230   5.331  0.9597  0.2758  0.1939
   65SAPC  H10R 5327   6.375   4.289   5.281  0.4446 -0.0269 -1.0197
   65SAPC  H10S 5328   6.353   4.155   5.388  1.6752  1.0666  0.5291
   65SAPC  C211 5329   6.217   4.307   5.425 -0.0480  0.4769  0.1857
   65SAPC  H11R 5330   6.201   4.410   5.390  1.4998  0.4517 -0.6374
   65SAPC  C212 5331   6.179   4.274   5.544 -0.8183 -0.0593  0.1388
   65SAPC  H12R 5332   6.111   4.346   5.591 -3.0610 -2.1355  0.2351
   65SAPC  C213 5333   6.187   4.138   5.604 -0.7259  0.6664 -0.7090
   65SAPC  H13R 5334   6.205   4.058   5.530  0.4284  0.9969 -0.8005
   65SAPC  H13S 5335   6.087   4.114   5.647  0.0333 -0.8864  0.2603
   65SAPC  C214 5336   6.298   4.131   5.711  0.8922 -0.5749  0.0032
   65SAPC  H14R 5337   6.392   4.182   5.688 -0.2763  0.8365 -2.0281
   65SAPC  C215 5338   6.284   4.071   5.829 -0.2404  0.4041  0.3396
   65SAPC  H15R 5339   6.372   4.064   5.894  0.3191 -2.5155 -0.5604
   65SAPC  C216 5340   6.169   3.997   5.897  0.1867  0.9176  0.3943
   65SAPC  H16R 5341   6.192   3.888   5.901 -0.7077  0.7133  4.1485
   65SAPC  H16S 5342   6.077   4.002   5.835  0.7545 -1.3243 -0.7348
   65SAPC  C217 5343   6.128   4.039   6.039  0.3830 -0.1019  0.0008
   65SAPC  H17R 5344   6.098   4.145   6.048  0.8047  0.0983 -0.8155
   65SAPC  H17S 5345   6.206   4.029   6.117  0.4320  1.4325  0.1779
   65SAPC  C218 5346   6.003   3.961   6.079 -0.1896 -0.1111 -0.0001
   65SAPC  H18R 5347   6.012   3.851   6.064  0.1282 -0.0846 -0.0040
   65SAPC  H18S 5348   5.922   3.990   6.008 -0.9240 -0.0251  0.8614
   65SAPC  C219 5349   5.968   3.989   6.230  0.1815  0.8330  0.4599
   65SAPC  H19R 5350   5.935   4.094   6.243  0.4803  1.1830 -1.3769
   65SAPC  H19S 5351   6.059   3.972   6.292  0.1471  2.4879  1.0241
   65SAPC  C220 5352   5.851   3.905   6.274  0.4083  0.1686 -0.1334
   65SAPC  H20R 5353   5.867   3.801   6.236 -1.0560 -0.5479  1.1348
   65SAPC  H20S 5354   5.754   3.942   6.234 -0.1094 -1.0436 -0.0357
   65SAPC  H20T 5355   5.835   3.910   6.383  0.5119 -3.0971  0.1220
   65SAPC   C33 5356   6.020   4.739   4.967  0.1065 -0.8320 -1.1655
   65SAPC   H3X 5357   6.050   4.634   4.948  1.0822 -0.7928  0.0524
   65SAPC   H3Y 5358   5.910   4.746   4.954  0.3687  0.9040 -2.9972
   65SAPC   C34 5359   6.052   4.766   5.116 -0.3293 -0.1279 -0.1444
   65SAPC   H4X 5360   6.031   4.874   5.129  1.6250  0.4430 -1.2498
   65SAPC   H4Y 5361   6.162   4.752   5.130 -0.3255 -2.4720 -1.9495
   65SAPC   C35 5362   5.978   4.675   5.217  0.5635 -0.3535 -0.5207
   65SAPC   H5X 5363   5.982   4.573   5.174 -0.6898 -1.3266  1.5299
   65SAPC   H5Y 5364   5.874   4.710   5.236  1.2928  1.5112  0.3812
   65SAPC   C36 5365   6.062   4.679   5.350  0.1029 -0.0493  0.3557
   65SAPC   H6X 5366   6.155   4.620   5.339 -0.0099  0.1088 -2.1687
   65SAPC   H6Y 5367   6.002   4.620   5.423 -2.7132  2.2707  0.0980
   65SAPC   C37 5368   6.069   4.820   5.416 -0.2755 -0.2396 -0.6811
   65SAPC   H7X 5369   5.978   4.882   5.404  0.0153  0.5715  0.9840
   65SAPC   H7Y 5370   6.147   4.873   5.358 -1.5838  1.7928 -0.6633
   65SAPC   C38 5371   6.092   4.810   5.570  0.5798 -0.2395  0.2666
   65SAPC   H8X 5372   5.998   4.765   5.607  0.7903 -1.7862 -0.9774
   65SAPC   H8Y 5373   6.104   4.918   5.593 -1.2345  0.4048 -1.5012
   65SAPC   C39 5374   6.222   4.735   5.606  0.4960  0.9584 -0.0321
   65SAPC   H9X 5375   6.303   4.787   5.550  0.4034 -0.4337 -1.5194
   65SAPC   H9Y 5376   6.218   4.633   5.563  1.6934  0.2408  1.4901
   65SAPC  C310 5377   6.260   4.733   5.754  0.2675  0.7099 -0.2598
   65SAPC  H10X 5378   6.276   4.830   5.805 -0.5227 -0.3242  2.1303
   65SAPC  H10Y 5379   6.362   4.692   5.772 -0.0475 -0.2394 -0.5478
   65SAPC  C311 5380   6.164   4.646   5.835 -0.1695  0.0690 -0.0152
   65SAPC  H11X 5381   6.166   4.540   5.802 -0.6985  0.9419 -3.1438
   65SAPC  H11Y 5382   6.057   4.674   5.827 -0.4235 -0.9176 -0.1943
   65SAPC  C312 5383   6.186   4.669   5.984  0.2026 -0.2564 -0.7353
   65SAPC  H12X 5384   6.102   4.624   6.042  0.0126 -0.3540 -1.0831
   65SAPC  H12Y 5385   6.193   4.777   6.009 -1.3518 -0.0827 -0.9453
   65SAPC  C313 5386   6.321   4.616   6.032 -0.1190 -0.6698  1.0152
   65SAPC  H13X 5387   6.394   4.692   5.998 -0.3982 -1.3012 -1.1615
   65SAPC  H13Y 5388   6.344   4.526   5.971  2.2833 -0.7534  1.9530
   65SAPC  C314 5389   6.324   4.579   6.180 -0.2990 -0.5130 -0.5085
   65SAPC  H14X 5390   6.422   4.536   6.206  0.9555  1.0293 -2.4100
   65SAPC  H14Y 5391   6.250   4.496   6.186 -2.9725  1.6352 -1.5792
   65SAPC  C315 5392   6.289   4.697   6.278 -0.4111  1.0539  0.1857
   65SAPC  H15X 5393   6.185   4.731   6.261 -0.3645  2.2624  2.0243
   65SAPC  H15Y 5394   6.355   4.783   6.254 -0.6808  0.8166 -1.5851
   65SAPC  C316 5395   6.312   4.657   6.425 -0.0066 -0.1197 -0.0632
   65SAPC  H16X 5396   6.255   4.563   6.436  0.9834 -0.8387 -0.8301
   65SAPC  H16Y 5397   6.270   4.727   6.501  2.3964 -0.2150  1.4576
   65SAPC  C317 5398   6.456   4.622   6.460  0.2138 -0.0951 -0.6256
   65SAPC  H17X 5399   6.490   4.546   6.386  0.1192 -1.1598  0.4055
   65SAPC  H17Y 5400   6.467   4.589   6.565 -1.0570  0.2549 -0.3655
   65SAPC  C318 5401   6.555   4.746   6.440  0.1163  0.2381  0.2519
   65SAPC  H18X 5402   6.559   4.776   6.334  1.5909 -3.2232 -0.8319
   65SAPC  H18Y 5403   6.658   4.712   6.464 -0.3580 -1.0424  0.5826
   65SAPC  H18Z 5404   6.533   4.832   6.507  0.0317  0.4777 -0.0855
   66SAPC     N 5405   3.181   2.227   3.491 -0.1032  0.8005  1.2375
   66SAPC   C12 5406   3.234   2.211   3.636  0.1306  0.2476 -0.3847
   66SAPC  H12A 5407   3.167   2.267   3.699 -0.3169 -0.9416  0.2168
   66SAPC  H12B 5408   3.335   2.245   3.649  0.2333 -0.4589  0.7684
   66SAPC   C13 5409   3.035   2.189   3.476  0.0221 -0.5039 -0.1332
   66SAPC  H13A 5410   3.026   2.083   3.491  0.0853 -0.5052 -0.1030
   66SAPC  H13B 5411   2.972   2.251   3.539  0.3611  0.7117 -0.9432
   66SAPC  H13C 5412   3.011   2.210   3.373 -1.0302 -0.6203  0.0766
   66SAPC   C14 5413   3.182   2.376   3.452  0.2570  0.2429  0.2113
   66SAPC  H14A 5414   3.124   2.424   3.530 -0.6840 -0.5571  0.0142
   66SAPC  H14B 5415   3.284   2.411   3.448 -0.1983  1.5599 -0.2560
   66SAPC  H14C 5416   3.139   2.390   3.355  0.2016  0.8713  0.3220
   66SAPC   C15 5417   3.266   2.146   3.394  0.1922 -1.1413  0.2160
   66SAPC  H15A 5418   3.246   2.041   3.403 -2.7016 -0.5605  1.4863
   66SAPC  H15B 5419   3.244   2.178   3.293  0.4843 -0.2251  0.4325
   66SAPC  H15C 5420   3.372   2.157   3.412  0.6337 -3.5121 -0.6704
   66SAPC   C11 5421   3.228   2.065   3.691  0.1266  0.0308  0.0074
   66SAPC  H11A 5422   3.282   2.072   3.788 -1.2123 -1.5173  0.9263
   66SAPC  H11B 5423   3.263   1.991   3.615 -0.2538 -2.3156  1.9745
   66SAPC     P 5424   3.006   2.074   3.832 -0.3066 -0.2899 -0.0936
   66SAPC   O13 5425   2.999   2.222   3.819 -0.3532 -0.1813 -0.9136
   66SAPC   O14 5426   2.883   1.990   3.825 -0.5315  0.1579  0.0506
   66SAPC   O12 5427   3.100   2.018   3.716  0.6109  0.6632 -0.2355
   66SAPC   O11 5428   3.080   2.040   3.964  0.3473 -0.6618  0.0047
   66SAPC    C1 5429   3.141   1.913   3.986  0.2260  0.3405  0.1302
   66SAPC    HA 5430   3.097   1.834   3.922  1.4107 -0.9207  0.8006
   66SAPC    HB 5431   3.249   1.913   3.958  0.1641  0.6197 -0.1117
   66SAPC    C2 5432   3.129   1.889   4.142 -0.1967 -0.1496  0.4164
   66SAPC    HS 5433   3.019   1.894   4.151 -0.3649  0.7027 -1.6570
   66SAPC   O21 5434   3.191   1.999   4.218 -0.2366  0.2935 -0.6282
   66SAPC   C21 5435   3.113   2.040   4.320 -0.2177 -0.3565 -0.2844
   66SAPC   O22 5436   3.003   1.990   4.347  0.6151  0.0186 -0.1483
   66SAPC   C22 5437   3.178   2.156   4.396  0.5343 -0.6063 -1.4778
   66SAPC   H2R 5438   3.191   2.230   4.314 -0.6990  0.1446 -1.0141
   66SAPC   H2S 5439   3.107   2.182   4.478  1.8252 -0.8694 -0.2486
   66SAPC    C3 5440   3.188   1.755   4.182  0.2713 -0.2228  0.5028
   66SAPC    HX 5441   3.296   1.774   4.201  0.4163  0.9212 -1.2210
   66SAPC    HY 5442   3.178   1.683   4.098 -2.3117  1.0142 -0.3661
   66SAPC   O31 5443   3.136   1.695   4.307  0.2983 -0.3797  0.3411
   66SAPC   C31 5444   3.028   1.616   4.290 -0.5191 -0.1233 -0.5408
   66SAPC   O32 5445   2.967   1.590   4.189 -0.2474  0.5888 -0.1494
   66SAPC   C32 5446   2.986   1.572   4.432  0.6508 -1.0665  0.2822
   66SAPC   H2X 5447   2.908   1.644   4.466 -0.9584 -0.0737 -4.7251
   66SAPC   H2Y 5448   3.072   1.576   4.502 -0.0276 -0.2874  1.0907
   66SAPC   C23 5449   3.312   2.117   4.463  0.0968  0.0680 -0.3072
   66SAPC   H3R 5450   3.387   2.080   4.390 -1.4890 -2.2244 -0.8951
   66SAPC   H3S 5451   3.300   2.043   4.545  1.4414  0.5297  0.3262
   66SAPC   C24 5452   3.396   2.229   4.514 -0.0566  0.0360 -0.0804
   66SAPC   H4R 5453   3.441   2.293   4.436 -0.4120  1.0186  0.4920
   66SAPC   H4S 5454   3.486   2.184   4.561 -0.1515  0.1233  0.1909
   66SAPC   C25 5455   3.327   2.316   4.622  0.4171  1.0601 -0.1375
   66SAPC   H5R 5456   3.246   2.376   4.579  0.1325  0.1177 -0.9536
   66SAPC   C26 5457   3.362   2.322   4.751  0.5425 -0.4083  0.3576
   66SAPC   H6R 5458   3.301   2.382   4.820  1.4070  0.4870  0.3668
   66SAPC   C27 5459   3.484   2.240   4.809 -0.1403 -0.4325  0.1243
   66SAPC   H7R 5460   3.570   2.258   4.742 -0.9823  0.6735 -0.7094
   66SAPC   H7S 5461   3.447   2.135   4.809 -2.6980  0.3975 -0.3268
   66SAPC   C28 5462   3.525   2.297   4.954 -0.2080  0.3140  0.2866
   66SAPC   H8R 5463   3.518   2.407   4.959 -1.0344  0.3452 -1.0316
   66SAPC   C29 5464   3.565   2.219   5.052 -0.2902 -0.0523  0.1912
   66SAPC   H9R 5465   3.581   2.271   5.148 -0.0197  2.0404 -0.9312
   66SAPC  C210 5466   3.605   2.076   5.047 -0.3274 -0.8835 -0.6573
   66SAPC  H10R 5467   3.564   2.027   4.956  1.2949  2.5965 -3.4759
   66SAPC  H10S 5468   3.559   2.019   5.131  0.8438 -1.4784 -0.3904
   66SAPC  C211 5469   3.755   2.062   5.043 -0.2382 -0.6276  0.6148
   66SAPC  H11R 5470   3.790   2.087   4.941 -1.3489  1.4396  0.6880
   66SAPC  C212 5471   3.836   2.029   5.144  0.1010 -0.5499 -0.1475
   66SAPC  H12R 5472   3.943   2.019   5.120  0.2360  2.5913 -1.3543
   66SAPC  C213 5473   3.803   2.002   5.284  0.5087  0.1720 -0.0593
   66SAPC  H13R 5474   3.705   1.949   5.288  0.8334 -0.7357 -2.5365
   66SAPC  H13S 5475   3.793   2.092   5.349  0.4993  0.7981 -0.9122
   66SAPC  C214 5476   3.898   1.898   5.353 -0.5653  0.0610 -0.2518
   66SAPC  H14R 5477   3.856   1.798   5.375 -0.6805 -0.0995 -1.1731
   66SAPC  C215 5478   4.026   1.921   5.393  0.4227 -0.0837 -1.0151
   66SAPC  H15R 5479   4.081   1.840   5.443 -1.1953 -0.9969 -0.6291
   66SAPC  C216 5480   4.093   2.057   5.372  0.6382  0.7165  0.9125
   66SAPC  H16R 5481   4.086   2.081   5.264  3.5556 -1.3748  0.1377
   66SAPC  H16S 5482   4.202   2.053   5.390  0.2588 -0.2779  3.4427
   66SAPC  C217 5483   4.031   2.177   5.450 -0.3381  0.2521 -0.4753
   66SAPC  H17R 5484   3.944   2.219   5.394  0.8924  1.7164 -1.3658
   66SAPC  H17S 5485   4.110   2.255   5.439  2.0267 -1.4536  2.7566
   66SAPC  C218 5486   4.011   2.146   5.598  0.1935 -0.2560  0.5094
   66SAPC  H18R 5487   3.945   2.057   5.590  1.5958 -1.2628 -6.2182
   66SAPC  H18S 5488   3.957   2.222   5.658 -2.7939 -3.3148  2.0448
   66SAPC  C219 5489   4.136   2.106   5.675  0.1509  0.3592 -0.6390
   66SAPC  H19R 5490   4.195   2.199   5.691 -0.7755  0.7517  0.7069
   66SAPC  H19S 5491   4.193   2.028   5.621 -1.7936 -1.9726  0.4867
   66SAPC  C220 5492   4.105   2.044   5.813  0.0626  0.7177 -0.0912
   66SAPC  H20R 5493   4.202   2.001   5.849  0.1301 -0.2666 -1.3671
   66SAPC  H20S 5494   4.039   1.957   5.794  1.8170 -0.4559 -1.1859
   66SAPC  H20T 5495   4.059   2.109   5.889 -0.5657  1.3538 -1.0069
   66SAPC   C33 5496   2.934   1.420   4.427  0.0078 -0.6560 -0.5739
   66SAPC   H3X 5497   3.007   1.341   4.399  0.5604  0.4632 -2.5030
   66SAPC   H3Y 5498   2.851   1.407   4.353 -1.1604 -0.8860  0.7345
   66SAPC   C34 5499   2.876   1.373   4.564 -0.2693 -0.1532 -0.0867
   66SAPC   H4X 5500   2.847   1.266   4.549 -2.3280  0.2404  0.7426
   66SAPC   H4Y 5501   2.786   1.436   4.577  0.2130  0.7014 -0.7475
   66SAPC   C35 5502   2.968   1.403   4.683  0.4242  0.4238 -0.0669
   66SAPC   H5X 5503   2.958   1.513   4.688  0.0882  0.3663  0.7071
   66SAPC   H5Y 5504   3.066   1.366   4.646 -0.2834 -0.6119 -0.9616
   66SAPC   C36 5505   2.916   1.324   4.806 -0.0500 -0.0798 -0.2179
   66SAPC   H6X 5506   2.887   1.221   4.778  1.3548 -0.3454 -0.8102
   66SAPC   H6Y 5507   2.828   1.372   4.852 -1.4655 -1.2708 -1.5884
   66SAPC   C37 5508   3.025   1.318   4.915 -0.3429  0.1506 -0.2382
   66SAPC   H7X 5509   3.039   1.425   4.942 -5.1078  2.0358 -3.8522
   66SAPC   H7Y 5510   3.114   1.268   4.871  0.4144 -0.8171  2.1963
   66SAPC   C38 5511   2.983   1.236   5.042 -0.1545 -1.3371 -0.6329
   66SAPC   H8X 5512   2.982   1.126   5.022  0.1361 -2.0976  2.8570
   66SAPC   H8Y 5513   2.877   1.256   5.065 -0.0826 -2.2722  0.6001
   66SAPC   C39 5514   3.060   1.270   5.173 -0.1771  1.2423  0.4326
   66SAPC   H9X 5515   3.041   1.379   5.183 -4.3208  0.9774 -2.1970
   66SAPC   H9Y 5516   3.168   1.244   5.168 -0.1695  0.8140  2.1337
   66SAPC  C310 5517   2.996   1.193   5.294  0.3856  0.4060  0.2805
   66SAPC  H10X 5518   2.975   1.087   5.270 -0.4339  0.2989  1.4267
   66SAPC  H10Y 5519   2.896   1.235   5.318  0.5841  0.1303  1.6277
   66SAPC  C311 5520   3.088   1.181   5.408  0.0171  0.0897 -0.5313
   66SAPC  H11X 5521   3.107   1.284   5.445  1.2930 -0.6941  1.1622
   66SAPC  H11Y 5522   3.187   1.150   5.367  0.0831 -1.9063  0.9709
   66SAPC  C312 5523   3.040   1.093   5.519  0.1510  0.4400 -0.7287
   66SAPC  H12X 5524   3.022   0.988   5.487  0.9404 -0.2834  1.0899
   66SAPC  H12Y 5525   2.942   1.127   5.559  1.0310  1.8614  0.2959
   66SAPC  C313 5526   3.140   1.091   5.637  0.2913  0.2078  0.5204
   66SAPC  H13X 5527   3.095   1.047   5.728 -0.1145 -0.6403 -0.0744
   66SAPC  H13Y 5528   3.163   1.194   5.672  1.8196 -0.2580  0.9419
   66SAPC  C314 5529   3.271   1.020   5.595  0.5185 -0.3101 -0.4576
   66SAPC  H14X 5530   3.306   1.067   5.501 -1.0598  2.0380  0.0382
   66SAPC  H14Y 5531   3.241   0.913   5.587 -1.3362  0.0679  0.8286
   66SAPC  C315 5532   3.375   1.019   5.702  0.1699  0.0614  0.4000
   66SAPC  H15X 5533   3.428   1.114   5.723  0.4417 -0.1225  0.5527
   66SAPC  H15Y 5534   3.459   0.958   5.661  3.6421  3.3214  2.0611
   66SAPC  C316 5535   3.332   0.973   5.845  0.3722 -0.3128 -0.1501
   66SAPC  H16X 5536   3.419   0.923   5.894  0.4231  0.0728  0.1533
   66SAPC  H16Y 5537   3.245   0.904   5.834  0.3828 -0.9596  2.8885
   66SAPC  C317 5538   3.287   1.083   5.951  0.3682 -0.7154  0.5122
   66SAPC  H17X 5539   3.186   1.119   5.921  0.4663  0.3687  1.4161
   66SAPC  H17Y 5540   3.362   1.164   5.934  1.5924 -1.5900  1.5960
   66SAPC  C318 5541   3.285   1.034   6.094  0.0580  0.5102 -0.0562
   66SAPC  H18X 5542   3.390   1.032   6.131  0.2212 -1.3021 -0.4805
   66SAPC  H18Y 5543   3.238   0.933   6.098 -0.8713  0.8752 -1.1432
   66SAPC  H18Z 5544   3.221   1.091   6.163 -0.1501 -1.1851  1.2291
   67SAPC     N 5545   0.448   5.757   4.050 -0.1934  0.1162  0.2535
   67SAPC   C12 5546   0.350   5.735   4.158 -0.5224 -0.4434 -0.8802
   67SAPC  H12A 5547   0.361   5.632   4.188  0.5087 -0.3615 -0.9639
   67SAPC  H12B 5548   0.252   5.756   4.118 -1.1106 -1.5219 -0.0530
   67SAPC   C13 5549   0.596   5.741   4.097  0.1979 -0.5920  0.1067
   67SAPC  H13A 5550   0.640   5.824   4.151 -0.7447  0.2720 -0.4266
   67SAPC  H13B 5551   0.615   5.644   4.141 -0.5449  0.0372  1.9257
   67SAPC  H13C 5552   0.651   5.740   4.004  1.4978 -1.9308  0.8383
   67SAPC   C14 5553   0.434   5.651   3.940 -0.2456 -0.0638 -0.4686
   67SAPC  H14A 5554   0.336   5.653   3.894  0.3985  1.7365 -1.8968
   67SAPC  H14B 5555   0.500   5.682   3.861 -0.1432  1.6054  0.2174
   67SAPC  H14C 5556   0.466   5.554   3.975  1.6426  1.0430  1.1372
   67SAPC   C15 5557   0.435   5.890   3.982 -0.2872  0.9029 -0.3549
   67SAPC  H15A 5558   0.339   5.902   3.935  1.4520  2.3527 -3.9272
   67SAPC  H15B 5559   0.447   5.973   4.051  3.4901  0.6404 -0.5054
   67SAPC  H15C 5560   0.503   5.915   3.901 -0.5116  0.4447 -0.6844
   67SAPC   C11 5561   0.363   5.835   4.273  0.0196 -0.3275 -0.2518
   67SAPC  H11A 5562   0.463   5.821   4.319  0.2801  2.1699  0.0687
   67SAPC  H11B 5563   0.298   5.812   4.359  2.3455 -1.2464  1.3724
   67SAPC     P 5564   0.201   6.029   4.211 -0.1211  0.0391 -0.1311
   67SAPC   O13 5565   0.229   6.169   4.195 -0.2253 -0.3623 -0.1216
   67SAPC   O14 5566   0.127   5.963   4.107  0.0820 -0.0505 -1.2060
   67SAPC   O12 5567   0.347   5.966   4.230  0.1166  0.7397 -0.5255
   67SAPC   O11 5568   0.111   6.006   4.338 -0.0210  0.3255 -0.4209
   67SAPC    C1 5569   0.145   6.047   4.470  0.7697  1.1598 -0.2848
   67SAPC    HA 5570   0.120   5.965   4.540  1.2713  0.7808 -0.5388
   67SAPC    HB 5571   0.252   6.066   4.490  0.2859  1.1767  2.5886
   67SAPC    C2 5572   0.081   6.180   4.513 -0.5037  0.6873  0.5988
   67SAPC    HS 5573   0.122   6.261   4.449 -1.5508 -0.1693 -1.2461
   67SAPC   O21 5574   0.102   6.195   4.653 -0.7854 -0.2873  0.1361
   67SAPC   C21 5575   0.092   6.316   4.712 -0.0340  0.2969  0.3013
   67SAPC   O22 5576   0.077   6.421   4.650 -1.2945 -0.1360  0.1118
   67SAPC   C22 5577   0.106   6.310   4.862  0.2127  0.3656  0.4048
   67SAPC   H2R 5578   0.181   6.228   4.872 -0.0502 -0.0094 -0.5406
   67SAPC   H2S 5579   0.152   6.400   4.908  2.6756 -1.0216  0.8574
   67SAPC    C3 5580  -0.074   6.167   4.486 -0.4797  0.0261  0.8961
   67SAPC    HX 5581  -0.101   6.073   4.540 -0.6639 -1.0203 -0.9578
   67SAPC    HY 5582  -0.086   6.156   4.377  0.8073  0.0553  0.7291
   67SAPC   O31 5583  -0.156   6.273   4.539  0.1080  0.3384  0.6622
   67SAPC   C31 5584  -0.166   6.380   4.467  0.5005 -0.0270  0.1510
   67SAPC   O32 5585  -0.107   6.406   4.362 -0.5404 -0.2482 -0.0446
   67SAPC   C32 5586  -0.269   6.470   4.533 -0.5504  0.0438  0.1171
   67SAPC   H2X 5587  -0.290   6.443   4.639  0.6385 -2.1821 -0.1500
   67SAPC   H2Y 5588  -0.364   6.469   4.476 -0.4257  4.2257 -0.4608
   67SAPC   C23 5589  -0.023   6.259   4.925 -0.4289 -0.2428  0.1779
   67SAPC   H3R 5590  -0.029   6.148   4.917  1.7779 -0.4114  0.1841
   67SAPC   H3S 5591  -0.116   6.299   4.880  0.1862 -0.4950 -1.4059
   67SAPC   C24 5592  -0.036   6.299   5.077 -0.2064 -0.3492  0.2186
   67SAPC   H4R 5593  -0.132   6.261   5.119  0.8933 -0.6632  2.6612
   67SAPC   H4S 5594  -0.054   6.409   5.074  1.6054 -0.0138  0.2210
   67SAPC   C25 5595   0.072   6.261   5.172  0.6890  0.1442 -1.0255
   67SAPC   H5R 5596   0.139   6.179   5.143  0.5071 -1.0114  1.5146
   67SAPC   C26 5597   0.107   6.336   5.276  0.1900  0.6824  0.0482
   67SAPC   H6R 5598   0.190   6.307   5.343  1.7821  1.2035 -1.6117
   67SAPC   C27 5599   0.019   6.442   5.329  0.4297  0.0266  0.2004
   67SAPC   H7R 5600  -0.083   6.399   5.339  0.2305  0.1561 -1.0587
   67SAPC   H7S 5601   0.016   6.528   5.258  1.6239  0.2428  0.3912
   67SAPC   C28 5602   0.063   6.491   5.466 -0.6777  0.5448  0.5826
   67SAPC   H8R 5603   0.080   6.600   5.469 -0.3073  0.5961 -1.5395
   67SAPC   C29 5604   0.099   6.424   5.577  0.6399 -0.5046 -0.2705
   67SAPC   H9R 5605   0.122   6.485   5.665 -0.6249 -1.4650  0.7642
   67SAPC  C210 5606   0.080   6.281   5.601 -0.4624  0.0667 -0.1825
   67SAPC  H10R 5607   0.029   6.236   5.514  0.8330 -0.7532 -0.5360
   67SAPC  H10S 5608   0.002   6.257   5.677 -2.4692  2.9970 -1.1116
   67SAPC  C211 5609   0.221   6.219   5.628  0.4785  0.0495 -0.8037
   67SAPC  H11R 5610   0.295   6.276   5.685  1.1675  0.1039 -1.7210
   67SAPC  C212 5611   0.257   6.101   5.586  1.0623  0.1234  0.3820
   67SAPC  H12R 5612   0.361   6.076   5.612  0.6402 -1.5373  0.6005
   67SAPC  C213 5613   0.171   5.999   5.516  0.6872 -0.7249  0.7840
   67SAPC  H13R 5614   0.120   6.055   5.436 -0.7925 -1.2387  1.3416
   67SAPC  H13S 5615   0.080   5.972   5.573  0.4894 -1.9033 -0.0499
   67SAPC  C214 5616   0.239   5.877   5.468 -0.3743  0.5328  0.7480
   67SAPC  H14R 5617   0.240   5.791   5.537  1.1461  0.0742  0.2087
   67SAPC  C215 5618   0.299   5.863   5.349 -0.0141  0.7061  0.7696
   67SAPC  H15R 5619   0.347   5.768   5.319 -2.7097 -0.7294  0.6248
   67SAPC  C216 5620   0.323   5.970   5.249  0.8822  0.3263  0.9502
   67SAPC  H16R 5621   0.431   5.991   5.240  0.7789  0.7817  0.7554
   67SAPC  H16S 5622   0.272   6.065   5.275  0.1979 -0.0417  0.9826
   67SAPC  C217 5623   0.285   5.920   5.101 -0.2747  0.8794  0.3112
   67SAPC  H17R 5624   0.179   5.890   5.091  0.3614 -1.0880 -1.0755
   67SAPC  H17S 5625   0.328   5.818   5.091  0.2407  0.9372  1.6484
   67SAPC  C218 5626   0.340   6.002   4.988 -0.1560  0.1264 -0.6946
   67SAPC  H18R 5627   0.446   5.969   4.983  0.2311  0.2122  3.4030
   67SAPC  H18S 5628   0.326   6.110   5.010 -2.9781 -0.1981 -0.5901
   67SAPC  C219 5629   0.267   5.974   4.857 -0.2448 -0.9477  0.2499
   67SAPC  H19R 5630   0.319   6.016   4.768 -0.8117  0.4107  0.5259
   67SAPC  H19S 5631   0.167   6.016   4.883 -0.6692 -2.6140  1.4213
   67SAPC  C220 5632   0.238   5.834   4.815  0.0250  0.2417 -0.5522
   67SAPC  H20R 5633   0.169   5.789   4.889  3.1807  0.0449  2.5629
   67SAPC  H20S 5634   0.333   5.777   4.823  0.0143  0.4218  1.9029
   67SAPC  H20T 5635   0.189   5.820   4.717 -3.0569 -0.0522  0.9097
   67SAPC   C33 5636  -0.226   6.622   4.515 -0.3358  0.0537 -0.1891
   67SAPC   H3X 5637  -0.322   6.678   4.513 -1.5586 -1.6546  3.0636
   67SAPC   H3Y 5638  -0.171   6.626   4.418 -0.7657 -3.7416 -0.7319
   67SAPC   C34 5639  -0.139   6.680   4.629 -0.0581 -0.5677  0.1564
   67SAPC   H4X 5640  -0.078   6.772   4.613 -0.7805 -0.0535  0.3452
   67SAPC   H4Y 5641  -0.063   6.607   4.665  0.6033  0.1715  0.2882
   67SAPC   C35 5642  -0.214   6.696   4.762  0.5537 -0.6058  0.4882
   67SAPC   H5X 5643  -0.252   6.595   4.787 -0.3282 -0.8246 -1.5310
   67SAPC   H5Y 5644  -0.294   6.773   4.750  0.1457 -0.8772  1.3863
   67SAPC   C36 5645  -0.123   6.739   4.876 -0.0478  0.2001  0.3283
   67SAPC   H6X 5646  -0.095   6.844   4.857 -0.4209  0.4841  1.3175
   67SAPC   H6Y 5647  -0.024   6.689   4.875  2.3776  4.4176  2.3493
   67SAPC   C37 5648  -0.193   6.710   5.004 -0.1344 -0.3292  0.3860
   67SAPC   H7X 5649  -0.241   6.610   4.995  0.9185 -0.9355  1.2349
   67SAPC   H7Y 5650  -0.276   6.782   5.016  0.6346  0.4724  1.0973
   67SAPC   C38 5651  -0.104   6.732   5.127  0.1476 -0.6469 -0.2068
   67SAPC   H8X 5652  -0.003   6.684   5.121  1.0756  1.2892 -0.6969
   67SAPC   H8Y 5653  -0.158   6.688   5.214 -0.5508  1.2183  0.3341
   67SAPC   C39 5654  -0.081   6.872   5.182 -0.2347 -0.4737  0.0665
   67SAPC   H9X 5655  -0.182   6.901   5.219 -0.9948  0.2199 -2.3525
   67SAPC   H9Y 5656  -0.042   6.938   5.101 -1.0009  1.2773  1.0643
   67SAPC  C310 5657   0.010   6.875   5.312 -0.2224 -1.3947 -0.2423
   67SAPC  H10X 5658   0.113   6.852   5.277 -0.4466 -1.8064 -0.6450
   67SAPC  H10Y 5659  -0.022   6.790   5.376 -1.9932 -0.9557 -0.4872
   67SAPC  C311 5660   0.002   7.006   5.397 -0.1094 -0.1523 -0.1552
   67SAPC  H11X 5661  -0.105   7.013   5.425 -0.7793 -2.4440 -1.8809
   67SAPC  H11Y 5662   0.028   7.096   5.337 -1.1032 -0.4595 -1.0709
   67SAPC  C312 5663   0.077   6.984   5.532  0.0098  0.4568 -0.0006
   67SAPC  H12X 5664   0.095   7.081   5.585 -0.2387  0.4290  0.1366
   67SAPC  H12Y 5665   0.169   6.930   5.502 -0.2551  0.6832 -1.2678
   67SAPC  C313 5666   0.013   6.891   5.638 -0.0047 -0.6372  0.1267
   67SAPC  H13X 5667   0.033   6.785   5.610  0.4427 -0.6450  0.4647
   67SAPC  H13Y 5668  -0.097   6.905   5.636  0.1717  0.8317 -1.0166
   67SAPC  C314 5669   0.063   6.910   5.778  0.2632  1.2270  0.3942
   67SAPC  H14X 5670   0.051   7.016   5.807  0.0774  1.7546 -1.5355
   67SAPC  H14Y 5671   0.171   6.881   5.780 -0.4321 -1.8679 -0.5722
   67SAPC  C315 5672  -0.009   6.817   5.876  0.1354  0.0714  0.6780
   67SAPC  H15X 5673  -0.003   6.714   5.835 -1.1158  0.7373 -1.3111
   67SAPC  H15Y 5674  -0.117   6.842   5.887 -0.6575 -1.4459 -2.5432
   67SAPC  C316 5675   0.055   6.830   6.013 -0.2196  0.8303 -0.7169
   67SAPC  H16X 5676   0.077   6.937   6.036  0.6268  0.1150  2.2323
   67SAPC  H16Y 5677   0.147   6.769   6.010 -1.5006 -1.3122  0.7189
   67SAPC  C317 5678  -0.035   6.789   6.125  0.6448 -0.0404  0.2147
   67SAPC  H17X 5679  -0.086   6.696   6.095  0.3193  0.2380 -0.1011
   67SAPC  H17Y 5680  -0.116   6.859   6.154 -0.7881 -1.3544 -0.5125
   67SAPC  C318 5681   0.051   6.778   6.253 -0.5029  0.0478 -0.5177
   67SAPC  H18X 5682  -0.012   6.735   6.334 -0.7441  2.1292  0.4573
   67SAPC  H18Y 5683   0.108   6.872   6.268 -1.4932  0.4659  0.8077
   67SAPC  H18Z 5684   0.124   6.702   6.219 -0.4286  0.8853 -2.3442
   68SAPC     N 5685   2.918   0.625   3.826 -0.0962  0.7686 -0.6319
   68SAPC   C12 5686   3.009   0.523   3.907  0.2208 -0.1872  1.0190
   68SAPC  H12A 5687   3.025   0.570   4.003 -0.7875  0.8623  0.6991
   68SAPC  H12B 5688   3.096   0.503   3.846  0.0034 -1.9812  1.2449
   68SAPC   C13 5689   2.852   0.559   3.713 -0.1242 -0.2241  0.1926
   68SAPC  H13A 5690   2.914   0.509   3.641 -2.3560 -0.1354 -1.9348
   68SAPC  H13B 5691   2.789   0.480   3.751  2.0336 -1.2362  1.8194
   68SAPC  H13C 5692   2.783   0.626   3.664  1.8087  2.3031  0.7189
   68SAPC   C14 5693   2.808   0.690   3.911 -0.3027  0.1360  0.5287
   68SAPC  H14A 5694   2.747   0.605   3.938  1.3640 -1.8383 -1.5177
   68SAPC  H14B 5695   2.842   0.739   4.001  0.2042  1.0577 -0.1508
   68SAPC  H14C 5696   2.742   0.758   3.858 -1.3472  1.5955  3.4716
   68SAPC   C15 5697   3.011   0.736   3.779  0.6491  0.2038 -0.2051
   68SAPC  H15A 5698   3.094   0.694   3.724 -1.1100 -2.1879 -1.1919
   68SAPC  H15B 5699   2.955   0.817   3.736 -2.3584 -0.7864  1.5585
   68SAPC  H15C 5700   3.059   0.767   3.871 -0.3025 -1.8256  1.0543
   68SAPC   C11 5701   2.951   0.385   3.938 -0.3921  0.4645 -0.5876
   68SAPC  H11A 5702   2.873   0.404   4.015  0.4429  0.9229  0.1575
   68SAPC  H11B 5703   3.028   0.325   3.990  0.5616  0.5888 -1.8011
   68SAPC     P 5704   2.772   0.223   3.817  0.1100 -0.0557 -0.1419
   68SAPC   O13 5705   2.661   0.313   3.845  0.0623 -0.2882  0.5605
   68SAPC   O14 5706   2.770   0.166   3.681 -0.0218 -0.3251 -0.6298
   68SAPC   O12 5707   2.909   0.311   3.827 -0.5323 -0.1154  0.6209
   68SAPC   O11 5708   2.786   0.116   3.937 -0.1594  0.2090  0.9293
   68SAPC    C1 5709   2.899   0.030   3.945 -0.0106 -0.4537 -0.0999
   68SAPC    HA 5710   2.889  -0.061   3.882  0.1492 -0.0030 -0.7826
   68SAPC    HB 5711   2.993   0.081   3.917 -0.1194  0.3345  0.9187
   68SAPC    C2 5712   2.915  -0.019   4.088 -0.7286  0.1192  0.6735
   68SAPC    HS 5713   3.013  -0.071   4.083 -0.2025  1.1589 -1.8614
   68SAPC   O21 5714   2.802  -0.093   4.140 -0.3718 -0.0515 -0.0133
   68SAPC   C21 5715   2.820  -0.222   4.128 -0.4596 -0.5133  0.8046
   68SAPC   O22 5716   2.897  -0.278   4.048 -0.3816  0.0323  0.3884
   68SAPC   C22 5717   2.726  -0.290   4.214 -0.1857  0.3528 -0.0949
   68SAPC   H2R 5718   2.684  -0.224   4.293 -0.7679  1.4342 -1.2651
   68SAPC   H2S 5719   2.638  -0.324   4.154  0.0229 -1.1088  0.3902
   68SAPC    C3 5720   2.946   0.106   4.177  0.4634 -0.5071  0.0040
   68SAPC    HX 5721   2.851   0.163   4.189  0.6548 -0.1090 -0.3576
   68SAPC    HY 5722   3.020   0.165   4.119  1.2245 -2.9456 -1.6629
   68SAPC   O31 5723   2.996   0.057   4.305 -0.0172  0.6114 -0.5019
   68SAPC   C31 5724   3.132   0.052   4.324 -0.7053  0.6833 -0.5631
   68SAPC   O32 5725   3.220   0.076   4.248  0.0009  0.1936 -0.1238
   68SAPC   C32 5726   3.157  -0.021   4.454  0.3525  0.1023  0.3932
   68SAPC   H2X 5727   3.125  -0.127   4.447  0.3807  0.1513 -0.4691
   68SAPC   H2Y 5728   3.077   0.023   4.518 -0.7705 -1.3313  0.0419
   68SAPC   C23 5729   2.775  -0.418   4.278 -0.3154  0.1119  0.2396
   68SAPC   H3R 5730   2.834  -0.481   4.208 -0.0444  0.2734  0.3209
   68SAPC   H3S 5731   2.684  -0.475   4.309 -2.3596  3.4838  0.9986
   68SAPC   C24 5732   2.852  -0.387   4.406 -0.1814  0.0038  0.1701
   68SAPC   H4R 5733   2.785  -0.322   4.466  0.4274  0.1521  0.7008
   68SAPC   H4S 5734   2.936  -0.323   4.372 -0.3226 -0.0401 -0.2680
   68SAPC   C25 5735   2.884  -0.520   4.477 -0.7228 -0.8200  1.0272
   68SAPC   H5R 5736   2.940  -0.584   4.408 -0.9741 -0.6402  0.6552
   68SAPC   C26 5737   2.855  -0.572   4.594  0.7865  0.1545  0.0259
   68SAPC   H6R 5738   2.890  -0.675   4.611  0.0034 -0.0238  0.6366
   68SAPC   C27 5739   2.780  -0.514   4.713 -0.4518  0.5753 -0.2924
   68SAPC   H7R 5740   2.699  -0.448   4.675 -1.3240 -0.1194  0.3279
   68SAPC   H7S 5741   2.847  -0.442   4.764 -2.4018  1.7686  0.7136
   68SAPC   C28 5742   2.723  -0.606   4.818  0.9049  0.0318 -0.2189
   68SAPC   H8R 5743   2.632  -0.661   4.788  1.0663 -0.1363 -0.4039
   68SAPC   C29 5744   2.766  -0.609   4.948 -0.4262  0.1597 -0.4596
   68SAPC   H9R 5745   2.724  -0.679   5.021 -0.1895 -0.1505 -0.6231
   68SAPC  C210 5746   2.876  -0.526   5.015 -0.0668  0.0306 -0.0590
   68SAPC  H10R 5747   2.822  -0.462   5.088 -1.1263  0.0512 -0.8280
   68SAPC  H10S 5748   2.932  -0.465   4.941 -1.8588 -0.6781 -2.0949
   68SAPC  C211 5749   2.978  -0.615   5.076 -0.6322  0.2930  0.2294
   68SAPC  H11R 5750   3.057  -0.645   5.005 -1.5266  0.0305 -0.6807
   68SAPC  C212 5751   2.983  -0.665   5.205  0.2724 -0.2290  0.8760
   68SAPC  H12R 5752   3.063  -0.737   5.227  0.0286 -0.9486 -0.4245
   68SAPC  C213 5753   2.883  -0.633   5.305  0.4046 -0.3102 -0.9575
   68SAPC  H13R 5754   2.781  -0.615   5.265  0.1156 -0.7806 -0.4540
   68SAPC  H13S 5755   2.914  -0.532   5.338 -0.1978 -0.4402  0.0437
   68SAPC  C214 5756   2.859  -0.730   5.418 -0.2849 -0.0664 -0.0310
   68SAPC  H14R 5757   2.846  -0.837   5.394 -0.1425  0.1965 -1.3548
   68SAPC  C215 5758   2.857  -0.705   5.547 -0.0343  0.5238  0.1566
   68SAPC  H15R 5759   2.830  -0.783   5.619 -1.5644  0.3779 -0.5338
   68SAPC  C216 5760   2.891  -0.575   5.616  0.3865  0.2909  0.9350
   68SAPC  H16R 5761   2.968  -0.519   5.558 -0.9160  0.6565 -0.5403
   68SAPC  H16S 5762   2.944  -0.594   5.711  0.7602  0.4111  0.7511
   68SAPC  C217 5763   2.769  -0.484   5.651  0.2810  0.3389  0.1081
   68SAPC  H17R 5764   2.693  -0.541   5.709 -1.8233  2.8071 -0.0754
   68SAPC  H17S 5765   2.708  -0.467   5.560 -1.1700  1.1256  1.1955
   68SAPC  C218 5766   2.810  -0.350   5.725  0.5995 -0.2324  0.2530
   68SAPC  H18R 5767   2.878  -0.294   5.658  0.7502 -1.1933 -0.4176
   68SAPC  H18S 5768   2.854  -0.378   5.823 -0.9716 -1.5141  0.6264
   68SAPC  C219 5769   2.697  -0.252   5.767 -0.0504 -0.1660 -0.1502
   68SAPC  H19R 5770   2.617  -0.305   5.824 -0.2230  1.6330  1.3826
   68SAPC  H19S 5771   2.663  -0.216   5.668  0.6905 -0.4184 -0.5051
   68SAPC  C220 5772   2.760  -0.148   5.855 -0.1675 -0.1547  0.0579
   68SAPC  H20R 5773   2.691  -0.102   5.930  0.0698  0.4022 -0.0627
   68SAPC  H20S 5774   2.800  -0.064   5.794 -0.4404  0.8843  1.2491
   68SAPC  H20T 5775   2.841  -0.202   5.908 -1.8157 -1.6137  1.2263
   68SAPC   C33 5776   3.297  -0.005   4.521 -0.5875  0.1689  0.5801
   68SAPC   H3X 5777   3.357   0.080   4.483  3.3342 -2.8101 -0.4858
   68SAPC   H3Y 5778   3.356  -0.087   4.474 -1.8817 -0.7517  0.5205
   68SAPC   C34 5779   3.302  -0.033   4.669  0.0929  0.5886  0.5409
   68SAPC   H4X 5780   3.247  -0.125   4.697  0.4880 -0.1580 -1.0224
   68SAPC   H4Y 5781   3.253   0.048   4.727  1.2497  1.2896  0.5782
   68SAPC   C35 5782   3.448  -0.052   4.726  0.5262  0.0094 -0.6095
   68SAPC   H5X 5783   3.482  -0.143   4.671  2.7975  0.9367 -0.8779
   68SAPC   H5Y 5784   3.449  -0.083   4.833  1.9272 -1.4936 -0.9998
   68SAPC   C36 5785   3.537   0.074   4.720 -0.4338  0.6613 -0.3007
   68SAPC   H6X 5786   3.481   0.161   4.762  0.3190  2.4992 -2.8536
   68SAPC   H6Y 5787   3.550   0.115   4.617 -0.9591 -0.6482 -0.9084
   68SAPC   C37 5788   3.682   0.061   4.783  0.5490 -0.3371 -0.2137
   68SAPC   H7X 5789   3.752   0.086   4.701 -2.0626  1.9734 -1.9253
   68SAPC   H7Y 5790   3.701  -0.040   4.825  0.9495 -0.9830 -1.8734
   68SAPC   C38 5791   3.710   0.171   4.897 -0.1534  0.1555 -0.0340
   68SAPC   H8X 5792   3.618   0.168   4.960 -1.0833  1.7021 -1.2392
   68SAPC   H8Y 5793   3.724   0.273   4.856 -1.0720  0.4901  0.4508
   68SAPC   C39 5794   3.824   0.139   4.990 -0.0674 -0.3819 -0.0971
   68SAPC   H9X 5795   3.856   0.234   5.038  2.4956  0.2445 -2.7396
   68SAPC   H9Y 5796   3.918   0.122   4.933  0.5371  2.1528  0.0301
   68SAPC  C310 5797   3.805   0.019   5.085  0.5972 -0.4101 -0.0342
   68SAPC  H10X 5798   3.805  -0.070   5.019  1.5136  0.5275 -1.3648
   68SAPC  H10Y 5799   3.703   0.012   5.128  0.6602 -2.2493 -0.0976
   68SAPC  C311 5800   3.901   0.019   5.203  0.2366  0.3672 -0.5456
   68SAPC  H11X 5801   3.999   0.021   5.151  0.5400  2.2890  0.0514
   68SAPC  H11Y 5802   3.892  -0.083   5.247 -0.4065  0.4241 -0.5317
   68SAPC  C312 5803   3.886   0.132   5.295  0.0496  1.1479 -0.5277
   68SAPC  H12X 5804   3.783   0.136   5.335  0.1022  2.1084 -0.4565
   68SAPC  H12Y 5805   3.894   0.231   5.245  1.9280  1.8100  0.9276
   68SAPC  C313 5806   3.981   0.126   5.417  0.2913 -0.3067 -0.4076
   68SAPC  H13X 5807   4.081   0.161   5.384  0.1486 -0.3887 -0.9340
   68SAPC  H13Y 5808   3.988   0.019   5.443  1.3697 -0.2373 -0.3627
   68SAPC  C314 5809   3.924   0.204   5.536  0.5103 -0.0697  0.4089
   68SAPC  H14X 5810   3.816   0.183   5.553  0.5073  0.6411  1.3922
   68SAPC  H14Y 5811   3.917   0.311   5.508  0.6506 -0.2190 -0.2077
   68SAPC  C315 5812   3.995   0.190   5.666 -0.3370 -0.2192  0.2028
   68SAPC  H15X 5813   4.086   0.251   5.654 -0.7205  0.3454  0.1421
   68SAPC  H15Y 5814   4.013   0.081   5.677  0.2948 -0.2627 -1.1073
   68SAPC  C316 5815   3.918   0.236   5.789  0.0836 -0.4229 -0.5166
   68SAPC  H16X 5816   3.817   0.189   5.785 -0.7571  1.3548 -2.3055
   68SAPC  H16Y 5817   3.893   0.344   5.784  0.2710 -0.2846  1.0380
   68SAPC  C317 5818   3.968   0.197   5.929 -0.3528  0.2560  0.0293
   68SAPC  H17X 5819   3.913   0.105   5.960  0.8313 -0.1252  1.0747
   68SAPC  H17Y 5820   3.944   0.276   6.004 -0.1203 -0.1007  0.4872
   68SAPC  C318 5821   4.123   0.169   5.937  0.0393 -0.5623 -0.1630
   68SAPC  H18X 5822   4.139   0.078   5.877  0.6995  0.9126 -2.3389
   68SAPC  H18Y 5823   4.155   0.159   6.043 -2.1808  0.0529  0.6210
   68SAPC  H18Z 5824   4.179   0.248   5.881  2.1114 -0.0013  2.4697
   69SAPC     N 5825   3.395   4.112   3.421 -0.2667 -0.0722 -0.7474
   69SAPC   C12 5826   3.498   4.214   3.462 -0.1850 -1.2740 -0.5057
   69SAPC  H12A 5827   3.500   4.292   3.387 -1.0323 -1.6350 -0.9196
   69SAPC  H12B 5828   3.591   4.160   3.453 -2.3135 -5.2007 -1.2704
   69SAPC   C13 5829   3.251   4.150   3.441  0.2451  0.5542  0.3758
   69SAPC  H13A 5830   3.183   4.070   3.414  1.1931  0.4990 -2.1480
   69SAPC  H13B 5831   3.230   4.196   3.537  1.1243  1.8816 -0.0471
   69SAPC  H13C 5832   3.232   4.225   3.365  1.5552  0.2472 -0.2782
   69SAPC   C14 5833   3.410   4.090   3.274 -0.1226  0.0816 -0.2267
   69SAPC  H14A 5834   3.505   4.046   3.250 -0.4423 -0.7845  0.0386
   69SAPC  H14B 5835   3.333   4.030   3.228 -0.5079  1.5224 -1.5424
   69SAPC  H14C 5836   3.396   4.182   3.219  0.9517  1.0019  0.9790
   69SAPC   C15 5837   3.421   3.991   3.505 -0.1372  1.0527 -0.4332
   69SAPC  H15A 5838   3.403   4.014   3.609 -0.6212 -0.9080 -0.0338
   69SAPC  H15B 5839   3.364   3.901   3.485  2.8136 -2.1485  3.6259
   69SAPC  H15C 5840   3.522   3.954   3.496 -0.9008 -1.3065  0.0113
   69SAPC   C11 5841   3.482   4.283   3.594 -0.3919  0.3103 -0.1135
   69SAPC  H11A 5842   3.377   4.319   3.601 -1.1581 -1.7400 -0.3495
   69SAPC  H11B 5843   3.550   4.371   3.593  0.0261  0.0005 -0.9834
   69SAPC     P 5844   3.646   4.156   3.746  0.2489 -0.2571  0.0057
   69SAPC   O13 5845   3.646   4.014   3.787 -0.1684  0.0186 -0.0964
   69SAPC   O14 5846   3.739   4.185   3.631 -0.5499  0.4022 -0.5390
   69SAPC   O12 5847   3.499   4.189   3.707 -0.2717  0.1367 -0.4520
   69SAPC   O11 5848   3.682   4.251   3.867  0.3759 -0.0952  0.1333
   69SAPC    C1 5849   3.589   4.333   3.931  1.1305  0.3127 -0.3434
   69SAPC    HA 5850   3.628   4.437   3.921 -0.0155  0.7872 -0.0655
   69SAPC    HB 5851   3.489   4.328   3.884  2.1063 -1.3376 -2.4404
   69SAPC    C2 5852   3.585   4.307   4.083 -0.6695 -1.3537  0.5925
   69SAPC    HS 5853   3.529   4.391   4.130  0.7614  1.1710 -1.8853
   69SAPC   O21 5854   3.725   4.307   4.125 -0.3924 -0.0023 -0.9351
   69SAPC   C21 5855   3.745   4.341   4.256 -0.1539 -0.0516 -0.1473
   69SAPC   O22 5856   3.657   4.395   4.322  0.3368 -0.0416  0.0767
   69SAPC   C22 5857   3.878   4.282   4.310 -0.0800  0.2920  0.1558
   69SAPC   H2R 5858   3.878   4.171   4.301 -0.2694  0.2194  1.0000
   69SAPC   H2S 5859   3.965   4.316   4.250 -0.0725 -0.6114 -0.3642
   69SAPC    C3 5860   3.511   4.170   4.110  0.9991  0.2866  0.4707
   69SAPC    HX 5861   3.548   4.095   4.036 -0.1252  0.3414 -0.1801
   69SAPC    HY 5862   3.403   4.185   4.087  0.2454 -4.4410 -0.0544
   69SAPC   O31 5863   3.522   4.126   4.251  0.3936  0.1002  0.5239
   69SAPC   C31 5864   3.431   4.186   4.322  1.0062 -0.3404 -0.1325
   69SAPC   O32 5865   3.337   4.251   4.281  0.5155  0.0692 -0.5492
   69SAPC   C32 5866   3.446   4.151   4.473 -0.3308 -0.1212  0.4278
   69SAPC   H2X 5867   3.514   4.224   4.522  1.0210 -0.6244 -0.6256
   69SAPC   H2Y 5868   3.494   4.051   4.476  0.0860 -0.0432 -1.7629
   69SAPC   C23 5869   3.906   4.319   4.457  0.1514 -0.7697 -0.1065
   69SAPC   H3R 5870   3.892   4.428   4.472  2.0087  0.2861 -4.4269
   69SAPC   H3S 5871   4.016   4.307   4.451  0.4528  2.1386 -1.8052
   69SAPC   C24 5872   3.835   4.224   4.553  0.1290  0.1179  0.2120
   69SAPC   H4R 5873   3.874   4.120   4.558 -0.3356 -0.0139  1.7346
   69SAPC   H4S 5874   3.733   4.211   4.511  0.8433 -2.4792 -0.9100
   69SAPC   C25 5875   3.814   4.282   4.686  0.1045 -0.0149  0.6904
   69SAPC   H5R 5876   3.755   4.374   4.693  0.1043 -0.0567  1.3112
   69SAPC   C26 5877   3.877   4.240   4.795  0.6409  0.4671  0.0498
   69SAPC   H6R 5878   3.841   4.278   4.891  1.6358 -4.1019  2.5271
   69SAPC   C27 5879   3.956   4.111   4.819 -0.3298 -0.0369 -0.2613
   69SAPC   H7R 5880   4.059   4.147   4.835  0.5494 -3.1596  2.0703
   69SAPC   H7S 5881   3.971   4.061   4.721  1.5887 -0.4386  0.2178
   69SAPC   C28 5882   3.913   4.010   4.926 -0.1800 -0.4845  0.4100
   69SAPC   H8R 5883   3.860   3.920   4.891 -3.1353  1.0779  0.4857
   69SAPC   C29 5884   3.917   4.038   5.057 -0.3793 -0.3932  0.3342
   69SAPC   H9R 5885   3.881   3.957   5.121 -0.7645 -1.1277 -0.7856
   69SAPC  C210 5886   3.976   4.156   5.131  0.4419 -0.0143 -0.0776
   69SAPC  H10R 5887   3.910   4.219   5.194  2.8784  1.4811  1.1376
   69SAPC  H10S 5888   4.014   4.226   5.054 -1.4454  0.0612 -0.9994
   69SAPC  C211 5889   4.092   4.110   5.212  0.0689  0.3367 -0.3367
   69SAPC  H11R 5890   4.172   4.049   5.166 -0.1739  0.9301 -1.5772
   69SAPC  C212 5891   4.100   4.118   5.342 -0.2149 -0.5548 -0.6133
   69SAPC  H12R 5892   4.184   4.085   5.406  1.5700  0.1752 -2.4701
   69SAPC  C213 5893   3.986   4.165   5.425 -0.6346 -0.6538 -0.0582
   69SAPC  H13R 5894   3.886   4.166   5.377 -0.1797  3.0786 -1.2365
   69SAPC  H13S 5895   4.025   4.268   5.439 -0.0846 -0.3506 -3.1127
   69SAPC  C214 5896   3.981   4.084   5.545 -0.2047 -0.2576 -0.4364
   69SAPC  H14R 5897   3.923   3.992   5.532 -1.2041  0.5286 -1.7724
   69SAPC  C215 5898   4.039   4.107   5.669  0.3509 -0.0810  0.3287
   69SAPC  H15R 5899   4.017   4.038   5.752 -1.6373  0.8972  0.6853
   69SAPC  C216 5900   4.123   4.219   5.715  0.3374  0.8217  0.2805
   69SAPC  H16R 5901   4.063   4.307   5.747 -0.0766 -0.4854  3.4958
   69SAPC  H16S 5902   4.208   4.234   5.645  0.6074  3.6618  1.0920
   69SAPC  C217 5903   4.190   4.178   5.854 -0.0571 -0.5440  0.0154
   69SAPC  H17R 5904   4.263   4.259   5.872  1.0228 -1.5324  0.1699
   69SAPC  H17S 5905   4.253   4.091   5.826  0.0859 -0.2234 -0.6690
   69SAPC  C218 5906   4.091   4.178   5.977  0.8790 -0.2876  0.2492
   69SAPC  H18R 5907   3.987   4.200   5.944  0.2365 -1.5527  1.3350
   69SAPC  H18S 5908   4.116   4.253   6.055  2.9488 -0.9100  0.2560
   69SAPC  C219 5909   4.077   4.038   6.049  0.2094 -0.8435 -0.2282
   69SAPC  H19R 5910   4.177   3.993   6.064  1.4048  1.2593 -1.2839
   69SAPC  H19S 5911   4.028   3.978   5.969  0.8872  1.1867 -2.2815
   69SAPC  C220 5912   3.988   4.032   6.172  0.5583  0.7490 -0.4202
   69SAPC  H20R 5913   4.020   3.942   6.228 -1.3018  1.2135  1.5472
   69SAPC  H20S 5914   3.879   4.023   6.151  0.2011 -0.0544  1.6098
   69SAPC  H20T 5915   3.989   4.121   6.238 -2.7882 -0.0936  0.9502
   69SAPC   C33 5916   3.312   4.154   4.541 -0.4983 -0.1061  0.8254
   69SAPC   H3X 5917   3.320   4.085   4.627  3.8523  0.3466  0.9909
   69SAPC   H3Y 5918   3.234   4.108   4.476 -0.3300 -3.9049  3.0179
   69SAPC   C34 5919   3.255   4.291   4.594  0.2260  0.0135 -0.0789
   69SAPC   H4X 5920   3.152   4.286   4.636  0.2204  0.6119 -0.0039
   69SAPC   H4Y 5921   3.254   4.352   4.502 -0.9195 -0.1508 -0.1883
   69SAPC   C35 5922   3.354   4.365   4.692  0.1732  0.1773 -0.5308
   69SAPC   H5X 5923   3.311   4.463   4.722  0.4979  0.7723 -1.9139
   69SAPC   H5Y 5924   3.442   4.400   4.635  0.2910  0.1135 -0.3906
   69SAPC   C36 5925   3.390   4.297   4.819  0.5778 -0.2779  0.1884
   69SAPC   H6X 5926   3.457   4.214   4.791  0.8262 -0.5232  1.4843
   69SAPC   H6Y 5927   3.298   4.262   4.870 -0.7276  2.7843  0.1554
   69SAPC   C37 5928   3.460   4.385   4.917 -0.6881 -0.0149  0.2454
   69SAPC   H7X 5929   3.392   4.472   4.927 -0.8497 -0.4393  4.1598
   69SAPC   H7Y 5930   3.556   4.430   4.882 -0.7032 -0.8686 -0.9507
   69SAPC   C38 5931   3.482   4.309   5.046  0.6927  0.3308 -0.5622
   69SAPC   H8X 5932   3.563   4.233   5.045 -1.0026 -1.6446  1.4771
   69SAPC   H8Y 5933   3.384   4.268   5.077  0.9053  1.7974  2.2920
   69SAPC   C39 5934   3.518   4.408   5.157  0.0201 -0.3265 -0.3957
   69SAPC   H9X 5935   3.424   4.456   5.191 -0.2085 -0.9434 -0.1482
   69SAPC   H9Y 5936   3.575   4.491   5.110  0.0650 -0.2461 -0.2004
   69SAPC  C310 5937   3.601   4.350   5.272 -0.3925  0.0289  0.2143
   69SAPC  H10X 5938   3.666   4.426   5.321 -0.1376  3.0428 -4.2434
   69SAPC  H10Y 5939   3.677   4.280   5.230  0.6923  0.8601  0.7292
   69SAPC  C311 5940   3.506   4.285   5.375 -0.1040  0.5818 -0.7646
   69SAPC  H11X 5941   3.477   4.183   5.340  2.1156 -0.9259  1.5037
   69SAPC  H11Y 5942   3.413   4.344   5.387 -0.9498 -0.7850 -0.3342
   69SAPC  C312 5943   3.563   4.268   5.513 -0.5682  0.3566 -0.3915
   69SAPC  H12X 5944   3.657   4.208   5.515 -0.4261  0.5914  1.3718
   69SAPC  H12Y 5945   3.499   4.202   5.576  0.4990 -0.9962 -0.6724
   69SAPC  C313 5946   3.594   4.400   5.597  0.8349  0.3028 -0.9423
   69SAPC  H13X 5947   3.496   4.451   5.580 -1.1588 -2.7618  0.4142
   69SAPC  H13Y 5948   3.672   4.466   5.554 -0.6441  0.6457 -3.2776
   69SAPC  C314 5949   3.599   4.378   5.748 -0.2551  0.8226  0.5805
   69SAPC  H14X 5950   3.509   4.318   5.775 -0.0746  0.1065 -0.3668
   69SAPC  H14Y 5951   3.587   4.473   5.804  1.4185 -0.0024  2.4683
   69SAPC  C315 5952   3.717   4.300   5.793 -0.5240 -0.9341  0.1077
   69SAPC  H15X 5953   3.815   4.343   5.762 -0.7571 -0.1783  0.3804
   69SAPC  H15Y 5954   3.717   4.202   5.742  0.6311  0.7034 -3.3069
   69SAPC  C316 5955   3.707   4.266   5.936 -0.5837 -0.1555  0.4240
   69SAPC  H16X 5956   3.772   4.181   5.967  0.4462  0.7496  0.8099
   69SAPC  H16Y 5957   3.604   4.232   5.960 -0.7618 -0.3952 -0.6555
   69SAPC  C317 5958   3.735   4.392   6.014 -0.3433  0.1874  1.0486
   69SAPC  H17X 5959   3.663   4.471   5.983  0.8812  1.6682  1.8459
   69SAPC  H17Y 5960   3.838   4.430   5.997  0.1743 -1.2539  0.8661
   69SAPC  C318 5961   3.709   4.374   6.168  0.1667  0.6436 -0.4243
   69SAPC  H18X 5962   3.767   4.291   6.215 -1.7671  0.5058  1.9255
   69SAPC  H18Y 5963   3.605   4.338   6.187  0.7036 -0.5677  0.3655
   69SAPC  H18Z 5964   3.730   4.469   6.222  0.3913 -0.2454  1.1350
   70SAPC     N 5965   3.462   1.398   3.209 -0.3586 -0.6005 -0.3204
   70SAPC   C12 5966   3.384   1.331   3.318  0.1040 -0.1467 -0.8992
   70SAPC  H12A 5967   3.404   1.226   3.309  0.3376 -0.2642  0.6529
   70SAPC  H12B 5968   3.277   1.346   3.308  0.1555  0.7259 -0.2868
   70SAPC   C13 5969   3.430   1.343   3.069  0.1019  0.2583  0.3183
   70SAPC  H13A 5970   3.422   1.236   3.062 -2.3262  0.3622  0.5074
   70SAPC  H13B 5971   3.338   1.381   3.027 -1.1023 -2.3819  0.3361
   70SAPC  H13C 5972   3.512   1.380   3.010  1.1486 -0.1378  1.4644
   70SAPC   C14 5973   3.448   1.547   3.221 -0.6240  0.2186  1.0953
   70SAPC  H14A 5974   3.469   1.580   3.321 -0.7725  0.8979  0.9038
   70SAPC  H14B 5975   3.523   1.597   3.162 -0.8423  1.1401  1.5852
   70SAPC  H14C 5976   3.352   1.586   3.191  0.5352  0.0098 -3.6216
   70SAPC   C15 5977   3.609   1.364   3.233  0.1415  0.4654  0.0111
   70SAPC  H15A 5978   3.618   1.263   3.269  1.4372  0.5408 -0.0529
   70SAPC  H15B 5979   3.665   1.373   3.141 -2.6424  0.6318 -1.8008
   70SAPC  H15C 5980   3.638   1.418   3.321 -1.4986  3.2329 -1.0050
   70SAPC   C11 5981   3.420   1.361   3.471  0.2021 -0.5489 -0.0672
   70SAPC  H11A 5982   3.317   1.360   3.513  0.3590  2.5634  0.6770
   70SAPC  H11B 5983   3.452   1.467   3.480 -1.2280 -0.2565  2.5210
   70SAPC     P 5984   3.655   1.298   3.578 -0.1176  0.1852 -0.2554
   70SAPC   O13 5985   3.734   1.177   3.543  0.8358  0.2282 -0.0136
   70SAPC   O14 5986   3.708   1.430   3.537 -0.2655  0.2671 -0.2752
   70SAPC   O12 5987   3.514   1.272   3.521  0.4063  0.2140 -0.1251
   70SAPC   O11 5988   3.637   1.300   3.734  0.6940  0.1554  0.1516
   70SAPC    C1 5989   3.509   1.299   3.800  0.5575 -0.4293  0.5709
   70SAPC    HA 5990   3.449   1.218   3.754  0.0846  0.2617 -0.0422
   70SAPC    HB 5991   3.527   1.277   3.908  0.5490 -0.6459  0.5292
   70SAPC    C2 5992   3.439   1.427   3.793 -0.0743  0.0701  0.5225
   70SAPC    HS 5993   3.424   1.462   3.688  0.8949 -1.2952 -0.1001
   70SAPC   O21 5994   3.510   1.525   3.877 -0.0777 -0.2278  0.0473
   70SAPC   C21 5995   3.468   1.659   3.852  0.7627 -0.0339 -0.4255
   70SAPC   O22 5996   3.371   1.685   3.786  0.2573 -0.0766 -0.3184
   70SAPC   C22 5997   3.547   1.760   3.933 -0.3082 -0.1315 -0.1100
   70SAPC   H2R 5998   3.505   1.780   4.034  0.6084 -1.5712  0.5916
   70SAPC   H2S 5999   3.648   1.722   3.959 -0.0637  2.1259  2.7527
   70SAPC    C3 6000   3.289   1.404   3.842 -1.1431  0.6449 -0.4418
   70SAPC    HX 6001   3.243   1.312   3.801 -1.7479  0.5365  0.4515
   70SAPC    HY 6002   3.223   1.483   3.801 -2.3728 -0.2051 -0.1417
   70SAPC   O31 6003   3.281   1.405   3.986 -0.0133 -0.2250 -0.3494
   70SAPC   C31 6004   3.268   1.296   4.049  0.4543 -0.0817  0.5185
   70SAPC   O32 6005   3.250   1.189   3.994  0.0169  0.0278  0.5339
   70SAPC   C32 6006   3.255   1.322   4.202  0.3026  1.1797  0.0519
   70SAPC   H2X 6007   3.147   1.328   4.228  0.1605 -1.9390  0.6307
   70SAPC   H2Y 6008   3.301   1.419   4.232  1.3047  0.9746 -0.7745
   70SAPC   C23 6009   3.576   1.883   3.850  0.4660  0.3352  0.1951
   70SAPC   H3R 6010   3.481   1.906   3.796  0.5433 -2.5858 -1.3683
   70SAPC   H3S 6011   3.651   1.862   3.771  0.3389  0.1563  0.1196
   70SAPC   C24 6012   3.631   1.999   3.936 -0.0175 -0.1948  0.5366
   70SAPC   H4R 6013   3.679   2.073   3.868 -0.7414 -0.3481 -0.1575
   70SAPC   H4S 6014   3.710   1.954   4.000  1.2498  0.9878 -0.1517
   70SAPC   C25 6015   3.528   2.058   4.031  0.0765  0.3175  0.2670
   70SAPC   H5R 6016   3.425   2.051   3.995  0.7960  1.1968 -2.1421
   70SAPC   C26 6017   3.557   2.111   4.156  0.7685  0.0194  0.8917
   70SAPC   H6R 6018   3.471   2.155   4.208  0.2498 -0.7865  0.7229
   70SAPC   C27 6019   3.692   2.122   4.221 -0.6091 -0.1647  0.0788
   70SAPC   H7R 6020   3.700   2.228   4.254 -0.7918 -0.2267  0.3263
   70SAPC   H7S 6021   3.774   2.096   4.151 -1.7810  0.6404 -1.6503
   70SAPC   C28 6022   3.707   2.036   4.346  0.0044 -0.4400 -0.4691
   70SAPC   H8R 6023   3.638   1.950   4.347 -2.1898  1.2091 -0.8557
   70SAPC   C29 6024   3.781   2.057   4.454 -0.6139  0.4119 -0.0710
   70SAPC   H9R 6025   3.768   1.989   4.539  1.4938  0.0227  0.0101
   70SAPC  C210 6026   3.858   2.178   4.479  0.1985 -0.2493 -0.3225
   70SAPC  H10R 6027   3.832   2.262   4.411  1.3302  0.0815 -0.3780
   70SAPC  H10S 6028   3.966   2.165   4.457  0.1333 -1.2585 -0.0880
   70SAPC  C211 6029   3.842   2.217   4.620 -0.4360  0.7105 -0.0389
   70SAPC  H11R 6030   3.737   2.246   4.640 -0.4997  0.2201  0.3432
   70SAPC  C212 6031   3.934   2.227   4.722 -0.0413  0.2116 -0.5156
   70SAPC  H12R 6032   3.886   2.229   4.821 -3.9387  0.8284 -2.2165
   70SAPC  C213 6033   4.078   2.204   4.692  0.5084 -0.1877  0.6344
   70SAPC  H13R 6034   4.116   2.240   4.594  1.6068 -3.8888 -0.4614
   70SAPC  H13S 6035   4.072   2.093   4.687  1.3577 -0.2179  0.1511
   70SAPC  C214 6036   4.173   2.230   4.806 -0.0338 -0.1521  0.6321
   70SAPC  H14R 6037   4.223   2.326   4.790  1.7852 -0.9446  1.2692
   70SAPC  C215 6038   4.211   2.151   4.907  0.0960 -0.1343  0.1749
   70SAPC  H15R 6039   4.284   2.186   4.982  0.1977 -0.5050  0.2513
   70SAPC  C216 6040   4.178   2.006   4.926 -0.0467 -0.4869 -0.3823
   70SAPC  H16R 6041   4.139   1.953   4.836  0.5124 -3.7343  1.1168
   70SAPC  H16S 6042   4.100   2.001   5.005 -1.2152  4.0118 -0.9803
   70SAPC  C217 6043   4.308   1.934   4.973  0.6286  0.6907  0.6516
   70SAPC  H17R 6044   4.277   1.830   4.994  2.3791 -0.0574 -0.2603
   70SAPC  H17S 6045   4.343   1.971   5.072 -0.8612 -0.0866  1.5033
   70SAPC  C218 6046   4.412   1.927   4.861 -0.1658 -0.4480 -0.1856
   70SAPC  H18R 6047   4.434   2.023   4.808 -1.4326 -0.5675 -0.9639
   70SAPC  H18S 6048   4.364   1.861   4.786 -0.1645 -1.0969  0.3779
   70SAPC  C219 6049   4.545   1.864   4.901 -0.1624 -0.1400  0.0407
   70SAPC  H19R 6050   4.587   1.914   4.991 -0.5844 -3.3087  2.1501
   70SAPC  H19S 6051   4.593   1.884   4.802  0.4589 -0.5158  0.2581
   70SAPC  C220 6052   4.539   1.714   4.919 -0.3104  0.0665 -0.4031
   70SAPC  H20R 6053   4.528   1.683   5.025  1.8630 -2.5084 -0.8308
   70SAPC  H20S 6054   4.633   1.667   4.883 -0.1980 -0.9156  1.1142
   70SAPC  H20T 6055   4.456   1.668   4.861  0.6472 -1.3206 -0.7301
   70SAPC   C33 6056   3.326   1.218   4.294  0.5983 -0.1953  0.1094
   70SAPC   H3X 6057   3.434   1.243   4.285  0.6109 -0.3639 -0.2072
   70SAPC   H3Y 6058   3.309   1.112   4.268  1.0766 -0.2165 -0.1161
   70SAPC   C34 6059   3.284   1.228   4.441  0.9190  0.0093 -0.7648
   70SAPC   H4X 6060   3.179   1.191   4.444  1.1536 -0.5767  1.2978
   70SAPC   H4Y 6061   3.286   1.330   4.485 -0.9960 -0.0564 -0.4224
   70SAPC   C35 6062   3.363   1.128   4.525 -0.5679 -0.0357  0.0405
   70SAPC   H5X 6063   3.466   1.171   4.528 -0.7924  0.5088  0.0517
   70SAPC   H5Y 6064   3.368   1.040   4.457 -1.3543  0.0203 -0.0954
   70SAPC   C36 6065   3.309   1.096   4.671 -0.1113  0.9193  0.5096
   70SAPC   H6X 6066   3.199   1.105   4.676 -0.4803 -1.4460 -1.5676
   70SAPC   H6Y 6067   3.348   1.175   4.739  2.6512  0.7440 -0.6949
   70SAPC   C37 6068   3.359   0.964   4.731 -0.3786  0.0208  0.5628
   70SAPC   H7X 6069   3.350   0.877   4.661 -0.8883 -0.1971  0.8900
   70SAPC   H7Y 6070   3.467   0.983   4.743 -0.7813  1.4066  2.3938
   70SAPC   C38 6071   3.309   0.935   4.873  0.0865  0.6927  0.4623
   70SAPC   H8X 6072   3.358   0.845   4.917 -1.4819 -0.9551 -1.0285
   70SAPC   H8Y 6073   3.203   0.905   4.869  0.4615 -0.6962  0.5089
   70SAPC   C39 6074   3.324   1.045   4.981 -0.4700  0.0747 -0.8194
   70SAPC   H9X 6075   3.234   1.110   4.979 -0.9414 -0.5777 -2.5485
   70SAPC   H9Y 6076   3.414   1.107   4.961 -0.0037 -0.8752 -1.7540
   70SAPC  C310 6077   3.329   0.981   5.124 -0.1652  0.3950  0.3431
   70SAPC  H10X 6078   3.263   0.891   5.127 -0.1682  0.4157  1.0437
   70SAPC  H10Y 6079   3.287   1.056   5.194 -3.5713  1.0856 -2.1338
   70SAPC  C311 6080   3.475   0.944   5.163 -0.7878 -0.1119 -0.7921
   70SAPC  H11X 6081   3.524   1.042   5.181  2.4661 -2.1851  3.3251
   70SAPC  H11Y 6082   3.530   0.886   5.087 -0.0581 -0.8459  0.2587
   70SAPC  C312 6083   3.482   0.864   5.298 -0.2911 -0.0011 -0.8338
   70SAPC  H12X 6084   3.448   0.759   5.279 -0.4893 -0.0227 -0.3904
   70SAPC  H12Y 6085   3.415   0.915   5.371 -1.2297 -0.5805 -1.2664
   70SAPC  C313 6086   3.635   0.851   5.338 -0.4969  0.8755  0.0225
   70SAPC  H13X 6087   3.666   0.955   5.359  1.4121  0.3225  0.1044
   70SAPC  H13Y 6088   3.688   0.800   5.255  0.1573 -0.6965  1.3442
   70SAPC  C314 6089   3.651   0.755   5.459  0.3536  0.1271 -0.4840
   70SAPC  H14X 6090   3.642   0.647   5.434 -0.9538  0.0964  0.0693
   70SAPC  H14Y 6091   3.572   0.780   5.533  0.4828 -0.6742 -0.0532
   70SAPC  C315 6092   3.781   0.786   5.537  0.0259  0.4762 -0.1516
   70SAPC  H15X 6093   3.776   0.895   5.557 -0.6663  0.0648  2.1709
   70SAPC  H15Y 6094   3.873   0.775   5.476 -1.0369 -0.3191 -1.6799
   70SAPC  C316 6095   3.807   0.704   5.667  0.1508 -0.0561  0.5153
   70SAPC  H16X 6096   3.835   0.602   5.634  0.7188  0.4151 -0.5126
   70SAPC  H16Y 6097   3.717   0.701   5.732  1.4438 -2.3156  2.3478
   70SAPC  C317 6098   3.927   0.749   5.750  0.0283 -0.0387 -0.0306
   70SAPC  H17X 6099   3.900   0.836   5.813 -0.1222  0.3571 -0.6313
   70SAPC  H17Y 6100   4.005   0.793   5.684  1.0120 -0.4861  0.8109
   70SAPC  C318 6101   3.993   0.637   5.829 -0.5086 -0.2584  0.1363
   70SAPC  H18X 6102   4.075   0.685   5.887  0.0399  0.0814 -0.9072
   70SAPC  H18Y 6103   4.049   0.567   5.764  0.2118 -0.0692  0.5347
   70SAPC  H18Z 6104   3.919   0.581   5.890 -0.4833  1.7820  2.1966
   71SAPC     N 6105   5.749   0.036   3.430 -0.4504  0.3912 -0.3414
   71SAPC   C12 6106   5.810  -0.079   3.515 -0.4058 -0.3179 -0.1480
   71SAPC  H12A 6107   5.895  -0.034   3.565 -1.3602 -0.0508  1.2737
   71SAPC  H12B 6108   5.848  -0.154   3.446  1.8850  0.8556 -0.2746
   71SAPC   C13 6109   5.642  -0.016   3.343  0.2948 -0.2477 -1.1254
   71SAPC  H13A 6110   5.548  -0.020   3.397  0.7811  0.5656 -0.1993
   71SAPC  H13B 6111   5.625   0.050   3.259  0.9714 -0.4505 -1.4287
   71SAPC  H13C 6112   5.667  -0.115   3.306  1.0081 -0.0977 -1.0559
   71SAPC   C14 6113   5.699   0.149   3.507  0.3276 -1.1649 -0.0346
   71SAPC  H14A 6114   5.654   0.221   3.439 -0.2293  0.0548  1.5667
   71SAPC  H14B 6115   5.626   0.110   3.575 -0.4955 -0.5288 -0.5281
   71SAPC  H14C 6116   5.771   0.199   3.570 -1.1962 -1.5923  2.1283
   71SAPC   C15 6117   5.841   0.085   3.326  0.2959  0.1202  0.4141
   71SAPC  H15A 6118   5.860   0.020   3.242 -0.2825 -0.2156  0.5384
   71SAPC  H15B 6119   5.792   0.169   3.280  2.0931 -0.1598 -2.2605
   71SAPC  H15C 6120   5.935   0.110   3.375 -0.2060  0.5106  1.2009
   71SAPC   C11 6121   5.716  -0.148   3.618 -0.1696  0.6889 -0.3860
   71SAPC  H11A 6122   5.762  -0.245   3.647 -1.3070  0.1117 -0.4366
   71SAPC  H11B 6123   5.621  -0.175   3.566 -0.5006 -1.8336  1.3546
   71SAPC     P 6124   5.798  -0.014   3.832 -0.5893  0.4555 -0.4950
   71SAPC   O13 6125   5.911   0.037   3.752 -0.1362 -0.6707  0.2901
   71SAPC   O14 6126   5.731   0.079   3.918  0.0999  0.2807 -0.4311
   71SAPC   O12 6127   5.689  -0.061   3.732 -0.1077 -0.4336  0.2333
   71SAPC   O11 6128   5.848  -0.136   3.906 -0.0668 -0.0392  0.2704
   71SAPC    C1 6129   5.763  -0.249   3.942  0.0505 -0.5484  0.5518
   71SAPC    HA 6130   5.713  -0.293   3.854 -1.6759 -1.3991  1.8883
   71SAPC    HB 6131   5.826  -0.329   3.986  0.4370  0.2794  1.5647
   71SAPC    C2 6132   5.653  -0.207   4.047 -1.1239 -0.3490  0.2503
   71SAPC    HS 6133   5.606  -0.116   4.005  1.8669  0.6295 -1.2293
   71SAPC   O21 6134   5.717  -0.182   4.175 -0.3882 -0.2071  0.1439
   71SAPC   C21 6135   5.676  -0.074   4.240  0.3725 -0.3498  0.0743
   71SAPC   O22 6136   5.597   0.008   4.197  0.0061 -0.2233  0.4818
   71SAPC   C22 6137   5.763  -0.055   4.365  0.1116  0.2828 -0.4094
   71SAPC   H2R 6138   5.793  -0.158   4.396 -1.1770 -0.3725 -1.2411
   71SAPC   H2S 6139   5.857  -0.012   4.323  0.0560  0.5709 -0.2387
   71SAPC    C3 6140   5.549  -0.319   4.056 -0.9774  0.2755  0.2082
   71SAPC    HX 6141   5.590  -0.415   4.096 -0.7032  0.2885 -0.0420
   71SAPC    HY 6142   5.516  -0.341   3.952  0.2342  1.2169 -0.3978
   71SAPC   O31 6143   5.442  -0.279   4.145 -0.1204 -0.2065  0.0303
   71SAPC   C31 6144   5.339  -0.216   4.085  0.5907  0.2262 -0.2985
   71SAPC   O32 6145   5.339  -0.186   3.966 -0.1861 -0.4115  0.0319
   71SAPC   C32 6146   5.219  -0.190   4.182 -0.2559 -0.4733 -0.6045
   71SAPC   H2X 6147   5.137  -0.259   4.153 -1.5068 -0.4768  2.5735
   71SAPC   H2Y 6148   5.188  -0.086   4.157  0.9535 -0.1437 -0.7574
   71SAPC   C23 6149   5.692   0.006   4.487 -0.4784 -0.6095 -0.1537
   71SAPC   H3R 6150   5.587  -0.028   4.496 -0.2776 -1.0448  0.6130
   71SAPC   H3S 6151   5.699   0.116   4.474 -1.3757 -0.6894 -1.5426
   71SAPC   C24 6152   5.775  -0.020   4.618  0.4461  0.1510  0.0663
   71SAPC   H4R 6153   5.763  -0.129   4.635  0.3267 -0.0360 -1.1656
   71SAPC   H4S 6154   5.725   0.036   4.701  1.5249  1.7790 -0.3353
   71SAPC   C25 6155   5.919   0.015   4.608 -0.5225 -0.1037  0.3026
   71SAPC   H5R 6156   5.987  -0.040   4.542  0.0909 -0.9405  1.5951
   71SAPC   C26 6157   5.977   0.117   4.673 -0.3927 -0.2227 -1.2622
   71SAPC   H6R 6158   6.087   0.126   4.672 -0.1029 -0.5687  3.6523
   71SAPC   C27 6159   5.905   0.216   4.770  0.0642  0.7065  0.3490
   71SAPC   H7R 6160   5.817   0.261   4.719  1.5623  2.2343 -1.0120
   71SAPC   H7S 6161   5.979   0.298   4.786  0.0252  0.9445 -0.6431
   71SAPC   C28 6162   5.861   0.150   4.897  0.0887  0.4004 -0.5146
   71SAPC   H8R 6163   5.828   0.045   4.895 -0.4981  0.4930  1.5929
   71SAPC   C29 6164   5.863   0.206   5.020 -0.6158  0.0059  0.5144
   71SAPC   H9R 6165   5.813   0.161   5.107 -1.0415  2.3754  1.5593
   71SAPC  C210 6166   5.922   0.346   5.057 -0.8601 -0.3402 -1.1593
   71SAPC  H10R 6167   5.998   0.381   4.984  2.1062 -1.0280  1.3812
   71SAPC  H10S 6168   5.979   0.329   5.151 -2.3634  1.0007  0.0319
   71SAPC  C211 6169   5.822   0.442   5.092  0.7179  0.0940 -0.1793
   71SAPC  H11R 6170   5.728   0.452   5.035  1.2115  0.3375 -0.9645
   71SAPC  C212 6171   5.815   0.519   5.206  1.2426  0.1690  0.0834
   71SAPC  H12R 6172   5.734   0.593   5.211 -0.1110 -1.2260 -0.6232
   71SAPC  C213 6173   5.911   0.523   5.320 -0.7793  1.0254  0.4963
   71SAPC  H13R 6174   5.918   0.611   5.386  1.5382  0.8877  0.5300
   71SAPC  H13S 6175   6.004   0.524   5.260 -0.5126 -1.4673  0.7341
   71SAPC  C214 6176   5.882   0.411   5.420 -0.8402 -0.1409  0.3193
   71SAPC  H14R 6177   5.821   0.325   5.387 -0.3136  0.3822 -2.2928
   71SAPC  C215 6178   5.936   0.395   5.545 -0.7793  0.5052 -0.2919
   71SAPC  H15R 6179   5.897   0.309   5.600 -0.6898  0.4107 -0.3754
   71SAPC  C216 6180   6.039   0.487   5.612  0.5267 -0.2296  0.1847
   71SAPC  H16R 6181   6.069   0.571   5.546  0.0304  1.4267  1.9729
   71SAPC  H16S 6182   6.132   0.428   5.624 -0.4009 -1.4019  2.2683
   71SAPC  C217 6183   5.989   0.550   5.746  0.1834  0.2204 -0.0885
   71SAPC  H17R 6184   5.915   0.630   5.724 -3.1858 -2.5117  0.4144
   71SAPC  H17S 6185   6.078   0.602   5.787  0.2237 -0.3391  0.5364
   71SAPC  C218 6186   5.925   0.450   5.843  0.2684 -0.0046 -0.1157
   71SAPC  H18R 6187   6.001   0.373   5.865 -0.2607 -1.2824 -2.3758
   71SAPC  H18S 6188   5.830   0.411   5.800 -0.5296  1.7862 -0.0591
   71SAPC  C219 6189   5.887   0.501   5.986 -0.3896 -0.5810 -0.3778
   71SAPC  H19R 6190   5.985   0.534   6.028 -0.8601  0.9529 -0.4222
   71SAPC  H19S 6191   5.842   0.417   6.042 -1.6793 -1.3204 -2.4185
   71SAPC  C220 6192   5.778   0.614   5.978 -0.1686 -0.2241  0.2613
   71SAPC  H20R 6193   5.679   0.583   5.937 -0.9155 -0.2456  2.0131
   71SAPC  H20S 6194   5.818   0.706   5.931  0.9379 -0.3102  1.0006
   71SAPC  H20T 6195   5.763   0.660   6.078  0.8930  0.6233  0.0435
   71SAPC   C33 6196   5.254  -0.194   4.333  0.5277  0.0437  0.2931
   71SAPC   H3X 6197   5.338  -0.122   4.341 -0.4465  1.4136 -1.2324
   71SAPC   H3Y 6198   5.308  -0.288   4.359 -0.1257 -0.0874  1.2238
   71SAPC   C34 6199   5.144  -0.161   4.432 -0.5535  0.7015  0.4610
   71SAPC   H4X 6200   5.055  -0.228   4.422  1.1181 -1.4238 -1.1085
   71SAPC   H4Y 6201   5.107  -0.060   4.403 -0.9217  0.5874  0.5258
   71SAPC   C35 6202   5.192  -0.147   4.584  0.3397 -0.2933 -0.4156
   71SAPC   H5X 6203   5.235  -0.045   4.594  0.8367 -0.4903 -0.4846
   71SAPC   H5Y 6204   5.278  -0.216   4.598 -0.6050 -1.8987 -2.1205
   71SAPC   C36 6205   5.087  -0.165   4.691  0.4141  0.2523 -0.2615
   71SAPC   H6X 6206   5.053  -0.269   4.710  1.6673  0.1895  1.9532
   71SAPC   H6Y 6207   4.997  -0.112   4.651  0.0511  0.2697  0.5501
   71SAPC   C37 6208   5.118  -0.098   4.834  0.5496  0.0933  0.7434
   71SAPC   H7X 6209   5.159   0.003   4.814  1.7434 -0.3576  0.7975
   71SAPC   H7Y 6210   5.187  -0.164   4.891  0.9934  0.8335  1.0777
   71SAPC   C38 6211   4.989  -0.062   4.915 -0.1835  0.2253  0.0538
   71SAPC   H8X 6212   4.934  -0.157   4.933  1.5312 -1.6637 -3.5840
   71SAPC   H8Y 6213   4.932   0.012   4.854  0.0409 -1.2295 -2.0046
   71SAPC   C39 6214   5.023   0.012   5.048  0.3442  0.0013  0.4999
   71SAPC   H9X 6215   4.925   0.052   5.081  0.6139  0.1474  1.1417
   71SAPC   H9Y 6216   5.096   0.095   5.033  0.0195  0.4051  1.1215
   71SAPC  C310 6217   5.080  -0.082   5.156 -1.2944 -0.7978 -0.6054
   71SAPC  H10X 6218   5.171  -0.125   5.108 -0.6561 -1.1277  0.8346
   71SAPC  H10Y 6219   5.003  -0.157   5.182 -1.5306 -0.9720 -1.7309
   71SAPC  C311 6220   5.122   0.001   5.279  0.7369  0.0187  0.5105
   71SAPC  H11X 6221   5.025   0.052   5.298  0.9314 -0.1122  1.9702
   71SAPC  H11Y 6222   5.198   0.081   5.265  0.1432  0.3442 -1.0006
   71SAPC  C312 6223   5.154  -0.091   5.397  0.3638 -0.0611 -0.3727
   71SAPC  H12X 6224   5.257  -0.127   5.378  0.4801 -0.2063  0.5046
   71SAPC  H12Y 6225   5.073  -0.164   5.415 -0.4101  1.1112  1.2163
   71SAPC  C313 6226   5.166  -0.002   5.515 -0.6540 -0.0043 -0.6218
   71SAPC  H13X 6227   5.069   0.052   5.516 -2.2263 -2.1084 -5.8948
   71SAPC  H13Y 6228   5.241   0.078   5.494 -1.4539  0.4702 -1.7662
   71SAPC  C314 6229   5.226  -0.074   5.641 -0.1412 -0.3242  0.4563
   71SAPC  H14X 6230   5.328  -0.109   5.614  0.0106  0.2179  0.3020
   71SAPC  H14Y 6231   5.166  -0.166   5.647 -0.7805 -0.0240 -1.0732
   71SAPC  C315 6232   5.227   0.013   5.766  0.1723  0.8557 -0.2062
   71SAPC  H15X 6233   5.291   0.101   5.745  2.2978 -0.3579  0.7995
   71SAPC  H15Y 6234   5.276  -0.044   5.848 -0.6724  1.2844  0.6072
   71SAPC  C316 6235   5.091   0.064   5.805  0.3998 -0.0226  0.2946
   71SAPC  H16X 6236   5.016  -0.017   5.821  2.6435 -2.1102  0.8770
   71SAPC  H16Y 6237   5.059   0.135   5.726  0.4644  2.2580  2.2044
   71SAPC  C317 6238   5.095   0.153   5.932  0.2587  0.1295 -0.9951
   71SAPC  H17X 6239   5.006   0.218   5.922  0.9549  0.9588 -2.0024
   71SAPC  H17Y 6240   5.186   0.217   5.928 -0.7280  1.5892 -0.9741
   71SAPC  C318 6241   5.083   0.088   6.068 -0.2217  0.3352 -0.5040
   71SAPC  H18X 6242   5.063   0.160   6.151  0.4058 -1.6857  1.5046
   71SAPC  H18Y 6243   5.163   0.015   6.094 -0.1739  1.3747  2.7760
   71SAPC  H18Z 6244   4.999   0.016   6.067  0.3368 -0.3630  0.4953
   72SAPC     N 6245   4.421   5.929   3.761  0.3151 -0.2894 -0.2042
   72SAPC   C12 6246   4.307   5.854   3.830 -0.6280  0.5394 -0.0225
   72SAPC  H12A 6247   4.351   5.767   3.876 -1.0525  0.1005 -0.4294
   72SAPC  H12B 6248   4.242   5.819   3.751  1.6156 -1.7687 -0.9926
   72SAPC   C13 6249   4.482   5.839   3.670 -0.3676  0.1964 -0.0729
   72SAPC  H13A 6250   4.551   5.763   3.704 -1.4880 -0.4362  0.8493
   72SAPC  H13B 6251   4.416   5.790   3.599 -0.7774 -0.0956  0.4985
   72SAPC  H13C 6252   4.542   5.902   3.606  1.1725 -1.3921 -0.2651
   72SAPC   C14 6253   4.366   6.047   3.680  0.7610 -0.6973  0.3330
   72SAPC  H14A 6254   4.314   6.120   3.741  1.4477 -0.5941  0.8114
   72SAPC  H14B 6255   4.454   6.091   3.635  2.1706 -2.6921  1.0175
   72SAPC  H14C 6256   4.303   6.015   3.599 -0.0721 -0.8150  1.0173
   72SAPC   C15 6257   4.529   5.977   3.854 -0.3925  0.6441  0.1421
   72SAPC  H15A 6258   4.559   5.895   3.916 -0.8590  1.8241  2.0048
   72SAPC  H15B 6259   4.617   6.012   3.802 -1.8114  0.5657 -2.5110
   72SAPC  H15C 6260   4.487   6.065   3.901 -0.4495 -0.7781  2.9774
   72SAPC   C11 6261   4.217   5.932   3.925  0.1637  0.2039 -0.5903
   72SAPC  H11A 6262   4.284   5.980   3.999 -1.1154  0.1355  0.6601
   72SAPC  H11B 6263   4.158   5.853   3.978  1.0433 -0.1242 -0.0817
   72SAPC     P 6264   4.005   5.964   3.795 -0.2087 -0.2212 -0.0033
   72SAPC   O13 6265   3.922   6.080   3.755  0.3366 -0.3072  0.0290
   72SAPC   O14 6266   4.055   5.874   3.688 -0.2711  0.7263 -0.7783
   72SAPC   O12 6267   4.130   6.017   3.867 -0.3005 -0.0046  0.3971
   72SAPC   O11 6268   3.924   5.877   3.906  0.0166  0.2061  0.6066
   72SAPC    C1 6269   3.786   5.914   3.938  0.0887  0.4446  0.4261
   72SAPC    HA 6270   3.718   5.914   3.850  1.4167 -2.0723 -0.7241
   72SAPC    HB 6271   3.746   5.837   4.007 -0.3047  0.3361  0.0837
   72SAPC    C2 6272   3.784   6.030   4.029  0.9477 -0.8042 -0.1654
   72SAPC    HS 6273   3.801   6.117   3.963  1.3901 -1.2919 -0.7083
   72SAPC   O21 6274   3.885   6.028   4.131 -0.3113  0.3763 -0.8312
   72SAPC   C21 6275   3.971   6.121   4.143 -0.2673  0.0428  0.3670
   72SAPC   O22 6276   3.967   6.232   4.096 -0.0155  0.0981  0.0438
   72SAPC   C22 6277   4.083   6.076   4.235  0.0358 -0.3992  0.6825
   72SAPC   H2R 6278   4.111   5.969   4.227  2.0303  0.0510  0.9810
   72SAPC   H2S 6279   4.174   6.121   4.189  0.3790 -0.1730  1.5649
   72SAPC    C3 6280   3.642   6.048   4.102 -0.6799  0.1902  0.3048
   72SAPC    HX 6281   3.631   5.962   4.172  0.2899  0.5447  0.9142
   72SAPC    HY 6282   3.565   6.038   4.023 -1.5918 -2.8287  1.4029
   72SAPC   O31 6283   3.627   6.167   4.187  0.0974  0.2505  0.3876
   72SAPC   C31 6284   3.614   6.273   4.116 -0.8108  0.5474  0.2374
   72SAPC   O32 6285   3.608   6.283   3.995 -0.1945 -0.1268  0.3141
   72SAPC   C32 6286   3.600   6.389   4.216  0.4337  0.1364 -0.5642
   72SAPC   H2X 6287   3.494   6.391   4.251  1.1875  1.0371  1.9376
   72SAPC   H2Y 6288   3.621   6.481   4.158  0.7164  0.2961 -0.2179
   72SAPC   C23 6289   4.078   6.135   4.379 -0.0752  0.3368  0.5790
   72SAPC   H3R 6290   4.063   6.245   4.375 -2.5007  0.0257 -1.2537
   72SAPC   H3S 6291   4.177   6.121   4.426 -0.2282  0.3414  0.9053
   72SAPC   C24 6292   3.973   6.064   4.467  0.6236  0.0088 -0.2921
   72SAPC   H4R 6293   3.975   5.953   4.463  2.0725 -0.1344  2.4333
   72SAPC   H4S 6294   3.876   6.082   4.415  0.0663  3.7532  1.7455
   72SAPC   C25 6295   3.958   6.119   4.606 -0.0616  0.0490 -0.3476
   72SAPC   H5R 6296   3.945   6.228   4.616 -0.3391 -0.0459  0.4497
   72SAPC   C26 6297   3.940   6.044   4.718 -0.1566  0.3663  0.1637
   72SAPC   H6R 6298   3.914   6.089   4.814  0.1265 -2.0087  1.4360
   72SAPC   C27 6299   3.953   5.888   4.724  0.1690 -0.0009  0.6292
   72SAPC   H7R 6300   4.058   5.882   4.760  0.9683  1.6535 -1.2148
   72SAPC   H7S 6301   3.945   5.832   4.628 -0.9198  1.0411  0.0868
   72SAPC   C28 6302   3.843   5.825   4.803 -0.5445 -0.4812 -1.4068
   72SAPC   H8R 6303   3.754   5.784   4.753 -0.5019 -2.1535 -0.1958
   72SAPC   C29 6304   3.857   5.809   4.937 -0.0703 -0.5146 -0.3018
   72SAPC   H9R 6305   3.775   5.759   4.991  1.0848 -2.4690 -0.2594
   72SAPC  C210 6306   3.966   5.853   5.035  0.4468 -0.9300  0.6368
   72SAPC  H10R 6307   4.052   5.897   4.979 -0.6436 -1.2449 -1.3972
   72SAPC  H10S 6308   4.001   5.758   5.080 -3.3117 -2.9598 -0.3121
   72SAPC  C211 6309   3.909   5.949   5.136  0.2999  0.1257 -0.1978
   72SAPC  H11R 6310   3.824   6.009   5.100 -0.7509 -0.7489  0.7584
   72SAPC  C212 6311   3.946   5.944   5.268 -0.5163 -0.8669 -0.5630
   72SAPC  H12R 6312   3.914   6.016   5.345  1.7270 -1.2066  0.7817
   72SAPC  C213 6313   4.041   5.855   5.332 -0.7981 -0.2400  0.1762
   72SAPC  H13R 6314   4.012   5.748   5.328  1.6537 -0.9620 -0.0087
   72SAPC  H13S 6315   4.036   5.876   5.440 -0.1961  0.3176  0.1015
   72SAPC  C214 6316   4.190   5.886   5.293  0.5781  0.6338 -0.6698
   72SAPC  H14R 6317   4.209   5.994   5.289 -1.7940  1.1211 -0.2314
   72SAPC  C215 6318   4.295   5.796   5.272  0.0149 -0.2180 -0.2909
   72SAPC  H15R 6319   4.388   5.835   5.228  0.1775  1.7166  1.5748
   72SAPC  C216 6320   4.277   5.650   5.273  0.4213  0.1635  0.4162
   72SAPC  H16R 6321   4.277   5.610   5.170 -0.0431 -1.1257  0.9018
   72SAPC  H16S 6322   4.184   5.626   5.329  0.5367 -0.7840  0.2124
   72SAPC  C217 6323   4.391   5.585   5.348 -0.1628 -0.4084  0.1691
   72SAPC  H17R 6324   4.494   5.601   5.311 -0.2766  0.4473  0.2119
   72SAPC  H17S 6325   4.373   5.475   5.347  0.8921 -0.5877  0.2686
   72SAPC  C218 6326   4.390   5.618   5.499 -0.0604 -0.3228 -0.6631
   72SAPC  H18R 6327   4.284   5.617   5.532 -0.4440  2.1032 -1.5797
   72SAPC  H18S 6328   4.424   5.723   5.514 -0.8182 -0.2813  1.0198
   72SAPC  C219 6329   4.482   5.530   5.580  0.3371 -0.8712 -0.4561
   72SAPC  H19R 6330   4.580   5.549   5.533  0.1663  0.8574 -0.1762
   72SAPC  H19S 6331   4.463   5.421   5.566 -0.8571 -0.7871  0.2974
   72SAPC  C220 6332   4.464   5.561   5.736  0.3865  0.0743 -0.3473
   72SAPC  H20R 6333   4.494   5.474   5.799 -1.4134 -0.7056 -0.4751
   72SAPC  H20S 6334   4.357   5.569   5.766  0.2092 -2.0949 -0.2085
   72SAPC  H20T 6335   4.508   5.656   5.770 -1.5401 -0.2938  3.7290
   72SAPC   C33 6336   3.703   6.396   4.333 -0.7083  0.1499  0.5395
   72SAPC   H3X 6337   3.806   6.414   4.293 -0.4706  1.3762  1.6543
   72SAPC   H3Y 6338   3.711   6.296   4.379 -0.2175  0.2071  0.5852
   72SAPC   C34 6339   3.660   6.502   4.443  0.1839  0.1272  0.7776
   72SAPC   H4X 6340   3.575   6.459   4.500  0.4763  0.1808  1.2651
   72SAPC   H4Y 6341   3.641   6.601   4.397 -1.5751 -0.3630  0.3940
   72SAPC   C35 6342   3.767   6.525   4.550 -0.7090 -0.5430  0.5868
   72SAPC   H5X 6343   3.856   6.560   4.494 -2.2275 -0.2924 -1.8277
   72SAPC   H5Y 6344   3.792   6.427   4.597  0.3168 -1.6998 -2.1623
   72SAPC   C36 6345   3.737   6.621   4.666  0.3722 -0.2013  0.4738
   72SAPC   H6X 6346   3.650   6.586   4.725 -0.2519  1.9369  0.8954
   72SAPC   H6Y 6347   3.715   6.721   4.623  1.8105 -0.0851 -0.0778
   72SAPC   C37 6348   3.849   6.631   4.773  0.2712 -0.0296  0.3630
   72SAPC   H7X 6349   3.871   6.738   4.793 -1.4715  0.3678  0.2899
   72SAPC   H7Y 6350   3.940   6.580   4.732  1.9571  3.6356 -0.8757
   72SAPC   C38 6351   3.805   6.574   4.908  0.0409  0.5514  0.5715
   72SAPC   H8X 6352   3.774   6.476   4.866  1.2000  0.4752 -0.1299
   72SAPC   H8Y 6353   3.715   6.628   4.947 -1.5208 -1.5380  0.0241
   72SAPC   C39 6354   3.907   6.590   5.019 -0.4738  0.0002  0.5661
   72SAPC   H9X 6355   3.939   6.694   5.041  1.1992 -0.3670  0.0279
   72SAPC   H9Y 6356   4.004   6.553   4.980 -0.5997  0.5189 -0.2436
   72SAPC  C310 6357   3.867   6.532   5.154  0.3512  0.4119  0.1443
   72SAPC  H10X 6358   3.776   6.575   5.201 -1.0018 -0.8884 -1.1707
   72SAPC  H10Y 6359   3.942   6.549   5.235  0.8074 -0.4508 -0.0787
   72SAPC  C311 6360   3.842   6.380   5.152  0.8891  0.2414  0.3982
   72SAPC  H11X 6361   3.926   6.331   5.098 -0.3364 -1.3388 -0.1753
   72SAPC  H11Y 6362   3.751   6.375   5.089 -0.4466  1.3870  2.1307
   72SAPC  C312 6363   3.819   6.319   5.290  0.3561  0.6199  0.4914
   72SAPC  H12X 6364   3.797   6.211   5.274 -0.7211  0.6370  1.7087
   72SAPC  H12Y 6365   3.721   6.366   5.315 -0.6759  1.3394 -4.0182
   72SAPC  C313 6366   3.936   6.321   5.383  0.3696 -0.6559 -0.4385
   72SAPC  H13X 6367   3.987   6.418   5.398 -0.6157  0.3618 -3.0912
   72SAPC  H13Y 6368   4.006   6.243   5.344 -0.3044 -1.3023 -0.3756
   72SAPC  C314 6369   3.879   6.269   5.515  0.3019  0.2458  0.0682
   72SAPC  H14X 6370   3.829   6.173   5.494  0.3149  0.2311  0.1033
   72SAPC  H14Y 6371   3.800   6.338   5.554 -0.7524  0.4690 -2.2974
   72SAPC  C315 6372   3.992   6.234   5.620  0.0592 -0.7033 -0.4829
   72SAPC  H15X 6373   3.962   6.264   5.723 -1.5260 -1.7852 -0.5919
   72SAPC  H15Y 6374   4.074   6.301   5.587 -0.9573 -0.8666 -3.5776
   72SAPC  C316 6375   4.049   6.095   5.620  1.1093  0.9332 -0.2866
   72SAPC  H16X 6376   4.081   6.072   5.517 -1.3272  0.5206 -1.0128
   72SAPC  H16Y 6377   3.960   6.029   5.633 -1.1446  3.5338 -1.4825
   72SAPC  C317 6378   4.159   6.052   5.723 -0.2832 -0.5244 -0.3125
   72SAPC  H17X 6379   4.131   6.080   5.827  1.5667 -3.1400  1.0139
   72SAPC  H17Y 6380   4.248   6.115   5.700  0.2708 -0.7576  1.0676
   72SAPC  C318 6381   4.203   5.903   5.739 -0.6566  0.4227  0.2214
   72SAPC  H18X 6382   4.114   5.837   5.737  0.0836 -0.5858 -0.0887
   72SAPC  H18Y 6383   4.259   5.899   5.835  1.7045  0.7961 -1.0574
   72SAPC  H18Z 6384   4.261   5.866   5.652  1.2230  0.7035  1.3036
   73SLPC     N 6385   2.996   6.143   8.574  0.5355  0.1487 -1.5026
   73SLPC   C13 6386   3.008   6.254   8.664  0.0578 -1.0051 -0.3371
   73SLPC  H13A 6387   3.048   6.344   8.619 -0.7314 -0.9112 -0.8578
   73SLPC  H13B 6388   2.910   6.283   8.698  0.4809  1.7907 -1.2362
   73SLPC  H13C 6389   3.075   6.237   8.747  0.2752  3.0672  0.5022
   73SLPC   C14 6390   2.871   6.163   8.491 -0.4420 -0.1584  0.2785
   73SLPC  H14A 6391   2.779   6.161   8.546  0.7965  1.1946  2.5163
   73SLPC  H14B 6392   2.869   6.249   8.426  1.5036  0.9683  1.5958
   73SLPC  H14C 6393   2.871   6.075   8.427  0.5771 -0.6146  0.8769
   73SLPC   C15 6394   2.968   6.018   8.660  0.2404  0.2156  0.3734
   73SLPC  H15A 6395   2.893   6.036   8.737  1.7928  0.4653  1.8815
   73SLPC  H15B 6396   2.935   5.932   8.603  0.1777 -0.5881  1.5879
   73SLPC  H15C 6397   3.060   5.992   8.709  0.3814  1.1269  0.6203
   73SLPC   C12 6398   3.121   6.124   8.485 -0.2716 -0.5000  1.0127
   73SLPC  H12A 6399   3.111   6.025   8.444 -3.9108 -0.1991  0.8106
   73SLPC  H12B 6400   3.204   6.137   8.553 -0.6908 -1.4127  1.7126
   73SLPC   C11 6401   3.138   6.227   8.367 -0.0642 -0.0838 -1.1258
   73SLPC  H11A 6402   3.045   6.220   8.308 -1.3618  1.8883  0.5717
   73SLPC  H11B 6403   3.222   6.211   8.295 -0.0360 -1.1071 -0.8935
   73SLPC     P 6404   3.284   6.406   8.496  0.5842 -0.4747  0.0212
   73SLPC   O13 6405   3.247   6.484   8.615 -0.1718  0.3181 -0.4488
   73SLPC   O14 6406   3.355   6.279   8.519 -0.4477  0.0876  0.1977
   73SLPC   O12 6407   3.151   6.358   8.424  0.4210  1.0400  0.0554
   73SLPC   O11 6408   3.344   6.498   8.390  0.0283 -0.3961  0.6270
   73SLPC    C1 6409   3.266   6.604   8.319 -0.5582  0.5253  0.2510
   73SLPC    HA 6410   3.178   6.634   8.379 -0.5477 -0.4424  0.7674
   73SLPC    HB 6411   3.332   6.693   8.321 -0.7213  0.6480  0.2154
   73SLPC    C2 6412   3.232   6.565   8.174 -0.0634  0.5677  0.7859
   73SLPC    HS 6413   3.154   6.487   8.179 -2.1712  2.4456 -0.7842
   73SLPC   O21 6414   3.355   6.516   8.111 -0.1981 -0.3427 -0.1168
   73SLPC   C21 6415   3.337   6.398   8.050  0.0921 -0.0754  0.2908
   73SLPC   O22 6416   3.238   6.330   8.045  0.4717 -0.0731 -0.7176
   73SLPC   C22 6417   3.456   6.377   7.950 -0.1609  0.5453  0.5208
   73SLPC   H2R 6418   3.419   6.419   7.855 -0.8370  0.3660  0.7012
   73SLPC   H2S 6419   3.543   6.430   7.995 -0.6147  1.6192  0.1545
   73SLPC    C3 6420   3.166   6.683   8.098  0.5507 -0.3844  0.8842
   73SLPC    HX 6421   3.243   6.762   8.087  0.7340 -0.6172  0.4778
   73SLPC    HY 6422   3.081   6.730   8.153 -1.2173 -2.3809 -0.0022
   73SLPC   O31 6423   3.125   6.640   7.969  0.1455 -0.0076  0.2951
   73SLPC   C31 6424   3.017   6.572   7.960  0.4059  0.1111 -0.1949
   73SLPC   O32 6425   2.945   6.544   8.054  0.2564 -0.1254 -0.2705
   73SLPC   C32 6426   2.996   6.522   7.819 -1.0381  0.8945 -0.7909
   73SLPC   H2X 6427   2.899   6.557   7.778 -1.1454 -0.6636 -1.9200
   73SLPC   H2Y 6428   2.980   6.417   7.852  0.5215  0.7533 -0.3634
   73SLPC   C23 6429   3.499   6.227   7.921  0.4907 -0.0190 -0.5680
   73SLPC   H3R 6430   3.409   6.163   7.914  1.0914 -1.0287  0.5712
   73SLPC   H3S 6431   3.568   6.195   8.002 -0.3327  1.6185  0.8317
   73SLPC   C24 6432   3.583   6.231   7.789 -0.3508  0.1310  0.6034
   73SLPC   H4R 6433   3.683   6.273   7.815 -1.0723  1.2376  1.6774
   73SLPC   H4S 6434   3.525   6.293   7.718  1.6534  0.3056 -0.9486
   73SLPC   C25 6435   3.603   6.100   7.724 -0.0803 -0.0777 -0.4542
   73SLPC   H5R 6436   3.505   6.053   7.699 -0.8392  1.0904  0.2061
   73SLPC   H5S 6437   3.657   6.038   7.798  0.7179 -0.6646 -1.5051
   73SLPC   C26 6438   3.697   6.101   7.598 -0.1239  0.0116  0.4488
   73SLPC   H6R 6439   3.788   6.157   7.628 -0.3291  1.0396 -0.7675
   73SLPC   H6S 6440   3.658   6.156   7.510  0.3955  3.4030  2.1331
   73SLPC   C27 6441   3.743   5.955   7.573  0.1905 -0.1185 -0.0613
   73SLPC   H7R 6442   3.660   5.883   7.583  0.9673 -0.8622  1.3254
   73SLPC   H7S 6443   3.812   5.923   7.654  0.1389 -3.2942 -1.1337
   73SLPC   C28 6444   3.810   5.947   7.432 -0.4632 -0.6054 -0.5427
   73SLPC   H8R 6445   3.883   6.030   7.439 -0.1050 -0.9286 -0.4150
   73SLPC   H8S 6446   3.735   5.984   7.358 -1.4342 -0.2692  0.5790
   73SLPC   C29 6447   3.873   5.818   7.394  0.5347 -0.5877  0.3504
   73SLPC   H9R 6448   3.855   5.733   7.461 -1.9499  0.4561  1.1432
   73SLPC  C210 6449   3.937   5.806   7.277 -0.0711  0.0319  0.1878
   73SLPC  H10R 6450   3.958   5.705   7.239  2.0581  0.3985  0.2449
   73SLPC  C211 6451   3.962   5.911   7.174  0.0172 -0.6362 -0.1186
   73SLPC  H11R 6452   3.916   6.010   7.191  1.9295  0.0748  1.2019
   73SLPC  H11S 6453   3.914   5.872   7.081  0.0577 -0.8390 -0.0556
   73SLPC  C212 6454   4.107   5.937   7.142  0.4341 -0.2145 -0.0611
   73SLPC  H12R 6455   4.171   5.964   7.227  1.1434 -0.0156 -0.6508
   73SLPC  C213 6456   4.166   5.929   7.020  0.1526  0.5578 -0.1262
   73SLPC  H13R 6457   4.273   5.956   7.019  0.2340  0.6555  2.5659
   73SLPC  C214 6458   4.097   5.867   6.900 -0.0845 -0.0375 -0.2077
   73SLPC  H14R 6459   4.022   5.940   6.863  0.1710  0.2937 -0.0776
   73SLPC  H14S 6460   4.047   5.775   6.937  0.2106 -0.2981 -0.4499
   73SLPC  C215 6461   4.190   5.839   6.782  0.0224 -0.3580  0.0991
   73SLPC  H15R 6462   4.263   5.760   6.810  1.2307  0.7664  0.2052
   73SLPC  H15S 6463   4.249   5.927   6.750 -0.7545  0.2040  0.1892
   73SLPC  C216 6464   4.118   5.789   6.654 -0.8380 -0.3952  0.3830
   73SLPC  H16R 6465   4.039   5.859   6.619 -1.0143 -0.0655  1.3913
   73SLPC  H16S 6466   4.071   5.690   6.677 -0.4529 -0.6404  0.1235
   73SLPC  C217 6467   4.221   5.775   6.538  0.1898 -0.1252 -0.1420
   73SLPC  H17R 6468   4.298   5.701   6.569 -0.4287 -0.1089  1.5265
   73SLPC  H17S 6469   4.273   5.872   6.523  0.9078 -0.5883 -0.7295
   73SLPC  C218 6470   4.165   5.737   6.398  0.5348 -1.3366 -0.4753
   73SLPC  H18R 6471   4.234   5.762   6.314 -0.3471  2.7483 -0.1772
   73SLPC  H18S 6472   4.082   5.810   6.381  0.4729 -1.6167 -1.4630
   73SLPC  H18T 6473   4.117   5.637   6.387 -0.1635 -0.8948 -1.7321
   73SLPC   C33 6474   3.105   6.551   7.717  0.2870  0.3247 -1.4409
   73SLPC   H3X 6475   3.196   6.503   7.759  0.2820 -0.3753 -2.2053
   73SLPC   H3Y 6476   3.127   6.659   7.706  0.3129  0.3888 -0.7953
   73SLPC   C34 6477   3.073   6.489   7.579 -0.1175 -1.2676  0.3230
   73SLPC   H4X 6478   3.161   6.488   7.510  0.7365  2.9871  1.0682
   73SLPC   H4Y 6479   2.993   6.559   7.547 -0.1284 -0.3805  2.2086
   73SLPC   C35 6480   3.012   6.344   7.580  0.4696  0.0136  0.1914
   73SLPC   H5X 6481   2.970   6.318   7.481 -2.0700  2.2997  0.5454
   73SLPC   H5Y 6482   2.915   6.355   7.632  0.3623 -0.1459  0.0256
   73SLPC   C36 6483   3.105   6.234   7.636  0.4766  0.0139  0.5209
   73SLPC   H6X 6484   3.037   6.146   7.643 -1.8114  1.6807  0.5564
   73SLPC   H6Y 6485   3.139   6.256   7.739 -0.1723 -1.3859  1.0644
   73SLPC   C37 6486   3.240   6.201   7.562 -0.4387  0.0130  0.4322
   73SLPC   H7X 6487   3.289   6.111   7.605  1.4490  1.0365  0.5447
   73SLPC   H7Y 6488   3.312   6.285   7.571 -1.4019  1.0793 -1.3228
   73SLPC   C38 6489   3.215   6.167   7.421 -0.2975 -0.2634 -0.6257
   73SLPC   H8X 6490   3.166   6.240   7.352  0.5923 -1.6057 -2.7751
   73SLPC   H8Y 6491   3.143   6.084   7.406  0.4162 -0.7720 -1.3214
   73SLPC   C39 6492   3.344   6.118   7.359  0.4740 -0.1009 -0.1213
   73SLPC   H9X 6493   3.367   6.020   7.406 -0.3490 -1.0065 -1.5258
   73SLPC   H9Y 6494   3.434   6.176   7.388  0.6622 -1.9867  3.5863
   73SLPC  C310 6495   3.324   6.088   7.212  0.6847 -0.0298  0.6402
   73SLPC  H10X 6496   3.290   6.182   7.162 -1.0743  0.0815  1.9411
   73SLPC  H10Y 6497   3.241   6.015   7.202 -0.0192  0.4344  2.5226
   73SLPC  C311 6498   3.456   6.058   7.145  0.5526 -0.2204  0.7861
   73SLPC  H11X 6499   3.512   5.983   7.205 -1.8758 -1.9525  1.0469
   73SLPC  H11Y 6500   3.521   6.148   7.144 -0.3820  0.5157  2.4151
   73SLPC  C312 6501   3.443   6.009   6.992  0.9023  0.0231 -0.0501
   73SLPC  H12X 6502   3.426   6.102   6.933  1.3601 -1.2532 -2.2911
   73SLPC  H12Y 6503   3.361   5.934   6.990 -0.9118  1.8381  1.4053
   73SLPC  C313 6504   3.573   5.961   6.950 -0.0564  0.2486  0.2269
   73SLPC  H13X 6505   3.621   5.893   7.023  1.0134  1.2813  0.5130
   73SLPC  H13Y 6506   3.636   6.053   6.955  0.1311  0.2575 -1.4929
   73SLPC  C314 6507   3.577   5.911   6.802  0.1023  0.2363 -0.3366
   73SLPC  H14X 6508   3.641   5.979   6.742  0.7487 -0.1156 -0.0487
   73SLPC  H14Y 6509   3.473   5.922   6.764  0.4051  1.2074 -0.9239
   73SLPC  C315 6510   3.632   5.766   6.793 -0.2049 -0.6531  0.1480
   73SLPC  H15X 6511   3.601   5.728   6.693 -2.7249 -1.2417  1.0895
   73SLPC  H15Y 6512   3.582   5.698   6.865 -2.1584 -0.1044 -0.6064
   73SLPC  C316 6513   3.785   5.745   6.809  0.1913  0.3715  0.2389
   73SLPC  H16X 6514   3.811   5.770   6.915  0.1435 -2.2908  0.9428
   73SLPC  H16Y 6515   3.846   5.817   6.750  2.7587 -0.8912  1.1799
   73SLPC  C317 6516   3.822   5.600   6.782 -0.2615 -0.1705 -0.2784
   73SLPC  H17X 6517   3.749   5.525   6.819  0.2500 -0.2358  0.6282
   73SLPC  H17Y 6518   3.921   5.573   6.824  0.2711 -1.8286 -2.4513
   73SLPC  C318 6519   3.836   5.572   6.631  0.4073 -0.4805  0.1223
   73SLPC  H18X 6520   3.853   5.667   6.576  0.2510 -0.5152  0.0144
   73SLPC  H18Y 6521   3.737   5.546   6.589 -0.2868 -0.2200  1.5365
   73SLPC  H18Z 6522   3.924   5.507   6.609 -0.0372 -1.2327  0.5038
   74SLPC     N 6523   3.036   4.881   8.574  0.5720 -0.0124  0.3422
   74SLPC   C13 6524   3.182   4.882   8.541  1.0426  0.5187 -0.1242
   74SLPC  H13A 6525   3.231   4.860   8.635  0.2229  2.0126  0.6956
   74SLPC  H13B 6526   3.210   4.807   8.468  0.4480  0.0957  0.0731
   74SLPC  H13C 6527   3.219   4.978   8.509  0.2837  1.0465  0.5722
   74SLPC   C14 6528   3.012   4.986   8.679  0.2021 -0.1810 -0.3741
   74SLPC  H14A 6529   3.026   5.085   8.639 -1.4274 -0.2332 -1.1635
   74SLPC  H14B 6530   2.911   4.978   8.717  0.3290 -2.9460 -0.4320
   74SLPC  H14C 6531   3.080   4.985   8.763  1.3242 -0.3189 -1.2592
   74SLPC   C15 6532   2.999   4.744   8.616  0.0379 -0.1934  0.8502
   74SLPC  H15A 6533   3.027   4.673   8.539  0.4882  2.0607 -1.1898
   74SLPC  H15B 6534   3.069   4.710   8.691  0.7070 -0.7939 -0.0266
   74SLPC  H15C 6535   2.896   4.735   8.647 -0.6547  1.3098 -0.7896
   74SLPC   C12 6536   2.952   4.937   8.453 -0.5150  0.2889 -0.4216
   74SLPC  H12A 6537   2.994   5.033   8.427  2.1708 -1.0916 -1.5152
   74SLPC  H12B 6538   2.850   4.941   8.490 -0.3506 -2.6133  0.6357
   74SLPC   C11 6539   2.952   4.850   8.330 -0.2838  0.9840  0.1940
   74SLPC  H11A 6540   3.057   4.828   8.304  0.0405 -0.3576  2.3737
   74SLPC  H11B 6541   2.898   4.904   8.248 -0.5501 -0.7620 -0.8502
   74SLPC     P 6542   2.725   4.729   8.381 -0.1379  0.1176  0.1346
   74SLPC   O13 6543   2.682   4.588   8.370  0.2502  0.0542 -0.4057
   74SLPC   O14 6544   2.680   4.809   8.500 -0.7838 -0.0807 -0.4393
   74SLPC   O12 6545   2.881   4.728   8.357 -0.4441  0.4731 -0.8069
   74SLPC   O11 6546   2.677   4.796   8.253  0.9555 -0.3207 -0.6695
   74SLPC    C1 6547   2.703   4.725   8.126  0.3276 -0.6678 -0.1763
   74SLPC    HA 6548   2.752   4.794   8.054 -0.5801  1.4716  1.1293
   74SLPC    HB 6549   2.770   4.637   8.136 -0.2375 -1.5331 -3.1241
   74SLPC    C2 6550   2.567   4.685   8.063 -0.1804  0.0572 -0.1976
   74SLPC    HS 6551   2.531   4.595   8.117  1.6671 -0.3501  0.4372
   74SLPC   O21 6552   2.589   4.653   7.924 -0.2572 -0.6557  0.0696
   74SLPC   C21 6553   2.629   4.528   7.891  0.7547 -0.2291 -0.7280
   74SLPC   O22 6554   2.654   4.439   7.970 -0.2133  0.2409 -0.3729
   74SLPC   C22 6555   2.644   4.516   7.742  0.1026  0.1589 -0.4100
   74SLPC   H2R 6556   2.589   4.599   7.694  0.9852 -0.2845 -2.2720
   74SLPC   H2S 6557   2.753   4.533   7.733  0.2182 -0.7150 -0.7590
   74SLPC    C3 6558   2.458   4.791   8.074 -0.0069 -0.4251 -0.3364
   74SLPC    HX 6559   2.490   4.895   8.099  0.7606 -0.9657  1.0206
   74SLPC    HY 6560   2.399   4.770   8.165  2.5821 -0.0937  1.5483
   74SLPC   O31 6561   2.365   4.779   7.958 -0.5169  0.0589  0.5399
   74SLPC   C31 6562   2.393   4.864   7.862 -0.4484  0.3683 -0.5398
   74SLPC   O32 6563   2.488   4.938   7.859  0.2057 -0.3375 -0.3697
   74SLPC   C32 6564   2.305   4.832   7.744 -0.8562 -0.2954 -0.2034
   74SLPC   H2X 6565   2.201   4.824   7.784 -0.4769 -0.9525  0.6625
   74SLPC   H2Y 6566   2.341   4.732   7.713  0.6675  0.6061 -1.4940
   74SLPC   C23 6567   2.615   4.369   7.686 -0.3328 -0.3144 -0.0609
   74SLPC   H3R 6568   2.505   4.354   7.690 -0.0623 -3.1322 -1.4726
   74SLPC   H3S 6569   2.651   4.284   7.747 -3.0777 -0.0248  2.1844
   74SLPC   C24 6570   2.664   4.351   7.544 -0.5549 -0.6745  0.9025
   74SLPC   H4R 6571   2.773   4.328   7.548 -0.1547  0.6945 -0.8228
   74SLPC   H4S 6572   2.646   4.437   7.476  0.8741  0.9899  2.5174
   74SLPC   C25 6573   2.594   4.229   7.478  0.0056  0.0941  0.0722
   74SLPC   H5R 6574   2.489   4.265   7.468  0.5692  1.7955  0.0294
   74SLPC   H5S 6575   2.580   4.155   7.559  0.5634  2.4747  2.4726
   74SLPC   C26 6576   2.667   4.181   7.349 -0.2415  0.5779  0.2263
   74SLPC   H6R 6577   2.774   4.211   7.346  0.2596 -1.0437  0.7852
   74SLPC   H6S 6578   2.613   4.228   7.264 -1.3583  1.9822  1.6561
   74SLPC   C27 6579   2.648   4.031   7.335  0.3969  0.0531  0.6854
   74SLPC   H7R 6580   2.540   4.009   7.348  0.1968  2.1857  3.6111
   74SLPC   H7S 6581   2.692   3.979   7.423  0.3033  1.6172  1.6874
   74SLPC   C28 6582   2.694   3.976   7.208  0.2068 -0.5316 -0.7513
   74SLPC   H8R 6583   2.799   3.994   7.178  0.0006  0.5327 -0.8452
   74SLPC   H8S 6584   2.629   4.025   7.132 -1.1082 -1.5711 -0.3575
   74SLPC   C29 6585   2.663   3.827   7.194 -0.7315  0.5358 -1.2568
   74SLPC   H9R 6586   2.572   3.782   7.236  2.2457 -3.5200  1.6275
   74SLPC  C210 6587   2.738   3.726   7.138  0.2343 -0.2004  0.7055
   74SLPC  H10R 6588   2.700   3.623   7.139  0.3152 -0.3175 -2.1169
   74SLPC  C211 6589   2.864   3.744   7.063 -0.7445  0.1097  0.2450
   74SLPC  H11R 6590   2.920   3.648   7.058 -0.7955  0.1264 -3.1113
   74SLPC  H11S 6591   2.929   3.820   7.112 -0.7192  0.6302 -0.5798
   74SLPC  C212 6592   2.841   3.796   6.922  0.1094 -0.4563 -0.3409
   74SLPC  H12R 6593   2.733   3.800   6.901  0.1390 -4.2667 -2.0903
   74SLPC  C213 6594   2.937   3.837   6.842  0.0407 -0.3815  0.1038
   74SLPC  H13R 6595   2.911   3.871   6.741  0.0780 -1.3038 -0.2234
   74SLPC  C214 6596   3.085   3.824   6.860  0.3204  0.2163 -0.3043
   74SLPC  H14R 6597   3.116   3.851   6.963  3.9378 -2.0051 -0.6452
   74SLPC  H14S 6598   3.133   3.897   6.792  0.6407 -0.1039 -0.4230
   74SLPC  C215 6599   3.132   3.686   6.811  0.0209  0.0942 -0.1295
   74SLPC  H15R 6600   3.078   3.638   6.727 -2.8179 -1.9133  2.6112
   74SLPC  H15S 6601   3.099   3.613   6.888  0.6567 -1.5500 -1.3396
   74SLPC  C216 6602   3.281   3.679   6.800  0.3925 -0.1747 -0.5409
   74SLPC  H16R 6603   3.316   3.575   6.782  1.4616 -0.1954  1.4225
   74SLPC  H16S 6604   3.319   3.700   6.902  1.7992 -1.6607 -0.7124
   74SLPC  C217 6605   3.352   3.778   6.705  0.0037 -0.1076 -0.2853
   74SLPC  H17R 6606   3.350   3.880   6.750 -2.7762 -0.2972  0.2050
   74SLPC  H17S 6607   3.292   3.788   6.612 -0.2719 -0.6043 -0.1634
   74SLPC  C218 6608   3.497   3.745   6.673 -0.8310  0.1471  0.0561
   74SLPC  H18R 6609   3.556   3.727   6.765 -1.9924 -2.2448  0.4170
   74SLPC  H18S 6610   3.549   3.832   6.627  0.6092 -1.7896 -2.2509
   74SLPC  H18T 6611   3.513   3.649   6.617 -0.3749 -0.2233  0.8094
   74SLPC   C33 6612   2.323   4.938   7.631  0.0082  0.2509 -0.7751
   74SLPC   H3X 6613   2.344   5.043   7.657  3.2803  0.2455 -2.8439
   74SLPC   H3Y 6614   2.229   4.938   7.571  1.0645  2.5954 -2.5585
   74SLPC   C34 6615   2.436   4.899   7.535  0.0825 -1.4713 -0.1287
   74SLPC   H4X 6616   2.429   4.794   7.499  0.8186 -1.9478  1.0854
   74SLPC   H4Y 6617   2.536   4.919   7.578 -0.8313  2.2287  0.6472
   74SLPC   C35 6618   2.428   4.988   7.415  0.4204 -0.3370  0.0763
   74SLPC   H5X 6619   2.454   5.093   7.439 -0.6217 -0.1993  0.6679
   74SLPC   H5Y 6620   2.321   4.992   7.384  0.9068  1.3039 -1.5741
   74SLPC   C36 6621   2.519   4.940   7.296 -0.2059  0.4459  0.0875
   74SLPC   H6X 6622   2.477   4.842   7.265  0.1713  0.5405 -0.7358
   74SLPC   H6Y 6623   2.623   4.923   7.331  0.1363  0.0205 -1.1049
   74SLPC   C37 6624   2.530   5.024   7.165  0.7795 -0.6682 -0.2303
   74SLPC   H7X 6625   2.554   5.129   7.192  1.7923 -0.7812 -0.6410
   74SLPC   H7Y 6626   2.430   5.019   7.118  0.5777 -0.8975  0.2121
   74SLPC   C38 6627   2.629   4.974   7.062  0.1422 -0.5647 -0.4306
   74SLPC   H8X 6628   2.594   4.879   7.015 -1.9046  0.1572 -0.4833
   74SLPC   H8Y 6629   2.723   4.958   7.119  1.4994  0.0898 -2.3749
   74SLPC   C39 6630   2.651   5.086   6.962  0.2193 -0.1001  0.4933
   74SLPC   H9X 6631   2.697   5.173   7.014 -1.5691 -0.3732  2.6868
   74SLPC   H9Y 6632   2.556   5.113   6.912 -0.6909  0.4081  2.4209
   74SLPC  C310 6633   2.748   5.048   6.852 -0.0569 -0.0557 -0.2348
   74SLPC  H10X 6634   2.705   4.960   6.799  0.9840 -0.8962  0.2646
   74SLPC  H10Y 6635   2.851   5.026   6.888 -0.0307 -0.0223 -0.2903
   74SLPC  C311 6636   2.767   5.159   6.745  0.1450 -0.1447  0.5544
   74SLPC  H11X 6637   2.798   5.254   6.793  0.3884  0.1152 -0.1035
   74SLPC  H11Y 6638   2.670   5.183   6.695 -0.5546  1.0859  2.3934
   74SLPC  C312 6639   2.875   5.135   6.634 -0.3078  0.2317  0.6010
   74SLPC  H12X 6640   2.959   5.076   6.676 -0.8832 -1.2231 -0.1852
   74SLPC  H12Y 6641   2.911   5.232   6.595 -1.4128  1.3196  2.1854
   74SLPC  C313 6642   2.815   5.072   6.506  0.1627 -0.9699 -0.9170
   74SLPC  H13X 6643   2.746   5.141   6.454 -2.1575 -1.6850  0.9792
   74SLPC  H13Y 6644   2.756   4.982   6.536  1.9965 -1.8174  0.3990
   74SLPC  C314 6645   2.915   5.030   6.396  0.4093  0.7288 -0.0627
   74SLPC  H14X 6646   2.866   4.976   6.313 -0.4046  0.0645  0.8364
   74SLPC  H14Y 6647   2.977   4.947   6.437 -0.7267  0.2728  0.7583
   74SLPC  C315 6648   3.000   5.144   6.344 -0.4948  0.0793  0.7503
   74SLPC  H15X 6649   3.036   5.210   6.426 -2.6186  0.9760  1.0379
   74SLPC  H15Y 6650   2.947   5.215   6.277 -0.4260 -1.6304 -1.2002
   74SLPC  C316 6651   3.113   5.088   6.250 -0.4587  0.6671 -0.0330
   74SLPC  H16X 6652   3.062   5.021   6.177 -0.1602  0.5511 -0.1337
   74SLPC  H16Y 6653   3.190   5.038   6.312 -0.2564  1.7972  0.6530
   74SLPC  C317 6654   3.186   5.197   6.169  0.6621 -0.0116  0.4890
   74SLPC  H17X 6655   3.245   5.272   6.227  1.0928  0.2315 -0.2442
   74SLPC  H17Y 6656   3.116   5.248   6.099  1.5726 -1.5371 -1.6418
   74SLPC  C318 6657   3.290   5.129   6.084 -0.1906 -0.2781 -0.6057
   74SLPC  H18X 6658   3.232   5.059   6.019 -1.9300 -0.4861  1.0862
   74SLPC  H18Y 6659   3.371   5.075   6.139  0.8687  2.0184  0.2412
   74SLPC  H18Z 6660   3.339   5.209   6.024 -0.6818  0.7631  0.3454
   75SLPC     N 6661   4.456   2.779   8.032 -0.3339  0.0514  0.5917
   75SLPC   C13 6662   4.486   2.715   7.894 -0.2573 -0.1663  0.1368
   75SLPC  H13A 6663   4.389   2.687   7.855 -0.2312 -0.5132  0.3140
   75SLPC  H13B 6664   4.535   2.778   7.821  0.0711 -0.4513  0.1080
   75SLPC  H13C 6665   4.543   2.626   7.917  0.1022 -0.0637 -0.3499
   75SLPC   C14 6666   4.384   2.672   8.112 -0.4107  0.2757 -0.4773
   75SLPC  H14A 6667   4.345   2.707   8.206  1.7939  0.6318  0.3490
   75SLPC  H14B 6668   4.302   2.630   8.054 -1.1546  0.2965  0.5363
   75SLPC  H14C 6669   4.443   2.584   8.129  0.9503  1.6481  2.6154
   75SLPC   C15 6670   4.377   2.905   8.012 -0.5341  0.9176  0.0253
   75SLPC  H15A 6671   4.365   2.952   8.109 -0.7313 -0.0843  0.5023
   75SLPC  H15B 6672   4.418   2.983   7.950  3.8934 -2.2451 -1.5717
   75SLPC  H15C 6673   4.274   2.889   7.983 -0.7884  1.1032  0.7945
   75SLPC   C12 6674   4.592   2.817   8.106  0.5523 -0.6572 -0.1396
   75SLPC  H12A 6675   4.558   2.884   8.184  0.8006 -0.8908  0.1697
   75SLPC  H12B 6676   4.644   2.879   8.034  2.3398 -1.0354  0.7821
   75SLPC   C11 6677   4.698   2.710   8.143 -0.2331 -0.3434 -0.2194
   75SLPC  H11A 6678   4.655   2.644   8.221 -1.2777  0.5298 -0.0329
   75SLPC  H11B 6679   4.783   2.761   8.192 -1.9713  1.0488  1.5100
   75SLPC     P 6680   4.715   2.480   8.016 -0.0906  0.3069  0.0663
   75SLPC   O13 6681   4.833   2.396   8.055 -0.0071  0.2807  0.5306
   75SLPC   O14 6682   4.582   2.453   8.069  0.1934  0.0504  0.0391
   75SLPC   O12 6683   4.740   2.640   8.029 -0.2051  0.3929  0.3138
   75SLPC   O11 6684   4.700   2.453   7.856  0.6753 -0.1979 -0.6248
   75SLPC    C1 6685   4.785   2.517   7.758 -0.3240 -0.7207 -0.5304
   75SLPC    HA 6686   4.747   2.621   7.745  0.8535 -0.0365  1.1496
   75SLPC    HB 6687   4.889   2.540   7.789 -1.2480  2.3026  0.6779
   75SLPC    C2 6688   4.784   2.436   7.621  0.3281 -0.0362  0.1728
   75SLPC    HS 6689   4.802   2.505   7.535  1.0153 -1.6968 -1.0576
   75SLPC   O21 6690   4.665   2.362   7.602 -0.0224 -0.5151 -0.1116
   75SLPC   C21 6691   4.564   2.436   7.587  0.4364 -0.3683  0.5614
   75SLPC   O22 6692   4.562   2.557   7.579 -0.0482 -0.7756  0.1987
   75SLPC   C22 6693   4.439   2.360   7.568  0.2851 -0.8846 -0.3148
   75SLPC   H2R 6694   4.414   2.294   7.655 -0.5373 -1.8733 -1.2690
   75SLPC   H2S 6695   4.361   2.438   7.556  1.8755  0.4986 -2.2354
   75SLPC    C3 6696   4.906   2.339   7.604  0.1653 -0.0388 -0.5187
   75SLPC    HX 6697   4.908   2.266   7.688 -0.2800 -1.9662 -2.1082
   75SLPC    HY 6698   4.989   2.410   7.624  1.6675 -2.3118  2.1206
   75SLPC   O31 6699   4.899   2.264   7.479  0.1366  0.1972 -0.1396
   75SLPC   C31 6700   5.023   2.227   7.450  0.1482  0.3966 -0.2628
   75SLPC   O32 6701   5.124   2.271   7.500 -0.5567  0.2101  0.4734
   75SLPC   C32 6702   5.024   2.134   7.333  0.5092  0.7927  0.7492
   75SLPC   H2X 6703   4.922   2.101   7.303  0.8383  0.5244 -0.0835
   75SLPC   H2Y 6704   5.076   2.043   7.369 -0.4785 -0.9197 -1.8744
   75SLPC   C23 6705   4.445   2.280   7.436  0.4403  0.2124 -0.3926
   75SLPC   H3R 6706   4.352   2.221   7.419  1.8969 -1.9771 -1.2537
   75SLPC   H3S 6707   4.531   2.212   7.452  1.0228  1.3979  1.8258
   75SLPC   C24 6708   4.464   2.363   7.309 -0.2406 -0.9331 -0.8046
   75SLPC   H4R 6709   4.540   2.442   7.325 -1.0972 -0.1320 -0.6098
   75SLPC   H4S 6710   4.365   2.408   7.288  0.3811  2.2353  2.1493
   75SLPC   C25 6711   4.518   2.279   7.198 -0.1245 -0.3347  0.2971
   75SLPC   H5R 6712   4.457   2.187   7.189  1.7480 -1.8902  2.2074
   75SLPC   H5S 6713   4.625   2.260   7.223  0.8102  1.9655 -1.4980
   75SLPC   C26 6714   4.512   2.346   7.059 -0.1321  0.3607 -0.5241
   75SLPC   H6R 6715   4.557   2.445   7.078  2.2387 -0.6799 -0.3427
   75SLPC   H6S 6716   4.408   2.360   7.022  0.3688  1.1983 -1.6744
   75SLPC   C27 6717   4.589   2.259   6.961  0.3080  0.7253  0.1964
   75SLPC   H7R 6718   4.539   2.160   6.958 -0.5265  0.7499  4.9967
   75SLPC   H7S 6719   4.691   2.242   7.002  0.7786 -0.4537 -1.3694
   75SLPC   C28 6720   4.609   2.336   6.824 -0.3693  0.0169  0.1870
   75SLPC   H8R 6721   4.631   2.441   6.853  1.5865  0.2074 -1.7145
   75SLPC   H8S 6722   4.510   2.332   6.773 -0.5023  1.9471  0.2005
   75SLPC   C29 6723   4.727   2.285   6.747 -0.7826  0.2656  0.1364
   75SLPC   H9R 6724   4.815   2.300   6.811 -0.6022 -2.2320  0.5836
   75SLPC  C210 6725   4.741   2.232   6.617 -0.3309 -0.0345 -0.4426
   75SLPC  H10R 6726   4.841   2.202   6.581  0.6191  0.3883  1.7027
   75SLPC  C211 6727   4.632   2.197   6.515  0.2943 -0.3390  0.1078
   75SLPC  H11R 6728   4.536   2.221   6.566  1.0836 -1.4332  2.2211
   75SLPC  H11S 6729   4.626   2.087   6.508  0.6376 -0.3267 -0.3962
   75SLPC  C212 6730   4.647   2.242   6.371  0.5223  0.2061  0.4844
   75SLPC  H12R 6731   4.751   2.244   6.336  0.3689 -0.9660 -0.1079
   75SLPC  C213 6732   4.548   2.281   6.291  0.9684 -0.6367  0.3663
   75SLPC  H13R 6733   4.579   2.317   6.191 -2.5874  1.7024 -0.0906
   75SLPC  C214 6734   4.399   2.293   6.324 -0.0240 -0.2109 -0.3569
   75SLPC  H14R 6735   4.381   2.306   6.433  3.3843 -1.7872  0.5401
   75SLPC  H14S 6736   4.350   2.197   6.295  0.8453 -1.1033  0.9768
   75SLPC  C215 6737   4.329   2.409   6.244 -0.8741 -0.0018 -0.4377
   75SLPC  H15R 6738   4.376   2.504   6.278 -0.4169 -0.6314  0.7712
   75SLPC  H15S 6739   4.220   2.413   6.266 -0.7794  1.1035 -0.1172
   75SLPC  C216 6740   4.323   2.383   6.092 -0.3156 -0.3396  0.4765
   75SLPC  H16R 6741   4.257   2.297   6.066 -0.3190 -0.3827  0.6251
   75SLPC  H16S 6742   4.423   2.360   6.049  0.0106  3.3433 -1.1412
   75SLPC  C217 6743   4.268   2.502   6.012 -0.5081 -0.0089  0.0883
   75SLPC  H17R 6744   4.358   2.566   5.999 -1.1691  0.7206 -1.1104
   75SLPC  H17S 6745   4.191   2.553   6.075 -0.2172  1.2453 -0.5307
   75SLPC  C218 6746   4.200   2.465   5.874 -0.9584  0.6417  0.1971
   75SLPC  H18R 6747   4.266   2.412   5.801 -2.5563 -0.6643 -0.3716
   75SLPC  H18S 6748   4.171   2.555   5.816  0.3507  0.4064 -0.8846
   75SLPC  H18T 6749   4.111   2.399   5.889  0.0552 -0.6641  0.6774
   75SLPC   C33 6750   5.080   2.199   7.212  0.9165 -0.5663 -0.4108
   75SLPC   H3X 6751   5.189   2.202   7.230  0.6839 -0.6101  1.1634
   75SLPC   H3Y 6752   5.042   2.303   7.201  0.4141 -0.6058  0.7767
   75SLPC   C34 6753   5.051   2.124   7.078  0.0476 -0.0197 -0.3055
   75SLPC   H4X 6754   4.941   2.115   7.061  0.3535 -3.9475 -1.2369
   75SLPC   H4Y 6755   5.097   2.025   7.097 -1.4232 -1.3932 -3.2126
   75SLPC   C35 6756   5.121   2.192   6.964 -0.0649 -0.2467  0.1246
   75SLPC   H5X 6757   5.229   2.179   6.985 -0.5353 -1.1887  2.2191
   75SLPC   H5Y 6758   5.099   2.301   6.968 -0.5925 -0.3784  1.4935
   75SLPC   C36 6759   5.079   2.132   6.829 -0.2095 -0.2500 -0.6159
   75SLPC   H6X 6760   4.968   2.132   6.827 -0.3101 -3.3980  0.1458
   75SLPC   H6Y 6761   5.100   2.023   6.825 -2.4574 -0.8860  1.8787
   75SLPC   C37 6762   5.130   2.202   6.703  0.2168  0.1470 -0.0345
   75SLPC   H7X 6763   5.240   2.215   6.719 -0.0745 -0.0128  2.3954
   75SLPC   H7Y 6764   5.092   2.306   6.693  0.7753  0.4939  1.2968
   75SLPC   C38 6765   5.102   2.115   6.580 -0.2416  0.1829 -0.0563
   75SLPC   H8X 6766   4.998   2.078   6.572  0.7296 -3.0583  0.7024
   75SLPC   H8Y 6767   5.165   2.023   6.578 -2.0012 -1.1050  0.9318
   75SLPC   C39 6768   5.125   2.196   6.450  0.2348 -0.2998  0.2818
   75SLPC   H9X 6769   5.229   2.234   6.449  0.9463 -2.1724 -0.8442
   75SLPC   H9Y 6770   5.057   2.284   6.442  0.2723 -0.3614 -0.8933
   75SLPC  C310 6771   5.111   2.114   6.321  0.6815  0.4790 -0.0660
   75SLPC  H10X 6772   5.001   2.101   6.310  0.7134  0.2733 -0.1523
   75SLPC  H10Y 6773   5.159   2.014   6.331  0.6266  0.4602  0.0127
   75SLPC  C311 6774   5.153   2.201   6.206  0.3257  0.4990 -0.4487
   75SLPC  H11X 6775   5.263   2.207   6.218  0.4982 -2.0626 -0.3026
   75SLPC  H11Y 6776   5.119   2.306   6.218  0.4818  0.6123 -0.9505
   75SLPC  C312 6777   5.128   2.150   6.067 -0.1892 -0.2722  0.5151
   75SLPC  H12X 6778   5.025   2.182   6.041 -0.5924  0.5669  2.9139
   75SLPC  H12Y 6779   5.131   2.039   6.056  0.5455 -0.2305  0.2790
   75SLPC  C313 6780   5.210   2.218   5.958 -0.9009  0.2462  0.3039
   75SLPC  H13X 6781   5.194   2.162   5.863  0.5231  0.4418 -0.0736
   75SLPC  H13Y 6782   5.315   2.194   5.987 -0.8692  0.6005  0.4894
   75SLPC  C314 6783   5.216   2.368   5.942 -0.1891 -0.1478  0.4227
   75SLPC  H14X 6784   5.169   2.409   6.034 -0.7351  0.2474 -0.0304
   75SLPC  H14Y 6785   5.152   2.411   5.863  0.8574  2.4844  0.9128
   75SLPC  C315 6786   5.359   2.433   5.949 -0.1748  0.1728 -0.4413
   75SLPC  H15X 6787   5.407   2.417   6.048  0.2295  2.0322 -0.2883
   75SLPC  H15Y 6788   5.348   2.544   5.944  2.2863  0.4274 -2.3566
   75SLPC  C316 6789   5.442   2.393   5.825 -0.6017 -0.1426  0.5774
   75SLPC  H16X 6790   5.434   2.284   5.806  0.3652 -0.1454  0.0746
   75SLPC  H16Y 6791   5.551   2.399   5.845 -0.6326 -0.1093  0.7333
   75SLPC  C317 6792   5.410   2.470   5.696  0.2558 -0.2789  0.4113
   75SLPC  H17X 6793   5.426   2.577   5.721  0.0346  0.1762 -1.2708
   75SLPC  H17Y 6794   5.302   2.447   5.684 -0.0039  0.5078  1.0953
   75SLPC  C318 6795   5.496   2.440   5.579  0.0326 -1.0294 -0.1743
   75SLPC  H18X 6796   5.598   2.478   5.601  0.0999 -0.6069 -1.1752
   75SLPC  H18Y 6797   5.490   2.491   5.481 -0.6739  4.8317  2.5115
   75SLPC  H18Z 6798   5.493   2.330   5.565 -5.3790 -1.0089 -1.4190
   76SLPC     N 6799   1.729   5.827   0.349  0.3117  0.4192  0.5232
   76SLPC   C13 6800   1.652   5.763   0.460 -0.7932 -0.5341 -0.2619
   76SLPC  H13A 6801   1.597   5.838   0.515  2.5635  1.6020  0.4636
   76SLPC  H13B 6802   1.586   5.683   0.429 -3.9687  0.5400  2.9986
   76SLPC  H13C 6803   1.717   5.716   0.532  1.9471 -0.6357 -2.6185
   76SLPC   C14 6804   1.808   5.716   0.290 -0.5536  0.0405  0.7951
   76SLPC  H14A 6805   1.864   5.672   0.372  0.1166 -0.0713  0.2881
   76SLPC  H14B 6806   1.744   5.641   0.246  0.0974  1.6028 -3.1832
   76SLPC  H14C 6807   1.865   5.747   0.204 -0.4861 -1.2888  0.3347
   76SLPC   C15 6808   1.815   5.923   0.420  0.4352 -0.0881  0.7026
   76SLPC  H15A 6809   1.895   5.955   0.354  0.7370 -0.4466  0.8886
   76SLPC  H15B 6810   1.762   6.004   0.467  0.9145 -0.2003  1.4504
   76SLPC  H15C 6811   1.868   5.872   0.500 -0.9463  0.0641  1.7339
   76SLPC   C12 6812   1.645   5.893   0.243  0.4978  0.7332  0.1979
   76SLPC  H12A 6813   1.714   5.928   0.168 -1.2215 -1.8945 -2.8847
   76SLPC  H12B 6814   1.584   5.969   0.289 -0.2213 -0.2357  0.9198
   76SLPC   C11 6815   1.538   5.805   0.156 -0.8571  0.2096 -0.1700
   76SLPC  H11A 6816   1.500   5.871   0.075  0.9779 -0.9688 -2.1030
   76SLPC  H11B 6817   1.461   5.784   0.233 -0.4531 -0.1564  0.1430
   76SLPC     P 6818   1.516   5.593  -0.002 -0.0339  0.0509 -0.2946
   76SLPC   O13 6819   1.599   5.478  -0.032 -0.0391  0.1321 -0.9182
   76SLPC   O14 6820   1.380   5.569   0.046 -0.5354 -0.6292  0.5051
   76SLPC   O12 6821   1.585   5.674   0.113 -0.2957 -0.4362  0.0896
   76SLPC   O11 6822   1.508   5.689  -0.133  0.5211  0.0398 -0.2253
   76SLPC    C1 6823   1.629   5.760  -0.174  0.4730  0.0241  0.1483
   76SLPC    HA 6824   1.614   5.869  -0.188  1.7028  0.2651  0.6211
   76SLPC    HB 6825   1.717   5.743  -0.109  1.0122 -1.3619 -0.8825
   76SLPC    C2 6826   1.669   5.730  -0.321 -0.2245  0.7481 -0.2155
   76SLPC    HS 6827   1.692   5.621  -0.320  0.3464  0.7451  3.5274
   76SLPC   O21 6828   1.786   5.801  -0.359  0.0906  0.1183  0.1077
   76SLPC   C21 6829   1.850   5.750  -0.465 -0.1412 -0.0663  0.2329
   76SLPC   O22 6830   1.835   5.636  -0.517 -0.1695  0.1132 -0.3652
   76SLPC   C22 6831   1.951   5.859  -0.500 -0.1082  0.8483  0.4491
   76SLPC   H2R 6832   1.905   5.959  -0.492  0.8706  1.6753 -2.6903
   76SLPC   H2S 6833   2.038   5.849  -0.431 -0.1116  0.7583  0.4395
   76SLPC    C3 6834   1.542   5.751  -0.406 -0.4179 -0.1714 -0.6839
   76SLPC    HX 6835   1.505   5.855  -0.395 -1.2687 -0.1601 -3.0059
   76SLPC    HY 6836   1.455   5.688  -0.376 -0.8299  0.4461 -0.5578
   76SLPC   O31 6837   1.568   5.730  -0.547  0.4780 -0.6473 -0.1012
   76SLPC   C31 6838   1.543   5.615  -0.598 -0.2525  0.9118  0.2304
   76SLPC   O32 6839   1.494   5.518  -0.542  0.1432 -0.0871 -0.0466
   76SLPC   C32 6840   1.571   5.625  -0.745  0.7768 -0.3532  0.1939
   76SLPC   H2X 6841   1.641   5.710  -0.760 -4.1595  4.3245  0.5656
   76SLPC   H2Y 6842   1.480   5.655  -0.802  0.5283  2.8566  2.0624
   76SLPC   C23 6843   2.010   5.837  -0.634  0.3214  0.3683 -0.2619
   76SLPC   H3R 6844   2.030   5.728  -0.643 -0.1550  0.3681 -1.6246
   76SLPC   H3S 6845   2.105   5.893  -0.646 -0.3618  1.4072 -1.0445
   76SLPC   C24 6846   1.915   5.879  -0.747  0.5103  0.2716  0.2773
   76SLPC   H4R 6847   1.892   5.987  -0.740  0.1151  0.4319 -2.5342
   76SLPC   H4S 6848   1.819   5.823  -0.751  1.5172 -1.4975 -2.8366
   76SLPC   C25 6849   1.978   5.848  -0.879  0.0521  0.1205 -0.4442
   76SLPC   H5R 6850   2.086   5.833  -0.859 -0.2418 -1.0153  0.3929
   76SLPC   H5S 6851   1.977   5.940  -0.942 -0.2099  0.9093  0.6784
   76SLPC   C26 6852   1.936   5.721  -0.953 -0.3026 -0.1152  0.5697
   76SLPC   H6R 6853   1.848   5.730  -1.021 -0.0779 -1.6566  0.0332
   76SLPC   H6S 6854   1.910   5.647  -0.875  2.6323 -0.4416  1.3283
   76SLPC   C27 6855   2.056   5.672  -1.042 -0.3453  1.2297  0.4824
   76SLPC   H7R 6856   2.052   5.564  -1.066  0.4440  1.3630 -0.3091
   76SLPC   H7S 6857   2.151   5.692  -0.988  0.3376  2.9878 -1.2269
   76SLPC   C28 6858   2.064   5.761  -1.174 -0.5181  0.8193 -0.1145
   76SLPC   H8R 6859   2.052   5.868  -1.147  0.3978  0.4690  1.8446
   76SLPC   H8S 6860   1.980   5.727  -1.238  0.3165 -1.3681 -0.1657
   76SLPC   C29 6861   2.199   5.749  -1.245  0.2478 -0.2202 -0.3766
   76SLPC   H9R 6862   2.268   5.823  -1.203 -0.7763 -0.7667  2.5041
   76SLPC  C210 6863   2.228   5.657  -1.338 -0.2266 -0.3097  0.0982
   76SLPC  H10R 6864   2.328   5.676  -1.380  0.0728 -0.1238  0.8851
   76SLPC  C211 6865   2.138   5.543  -1.386  0.1690  0.2218 -0.2069
   76SLPC  H11R 6866   2.079   5.516  -1.296 -2.2918  3.2303 -0.7532
   76SLPC  H11S 6867   2.188   5.449  -1.418  0.4148  0.4121 -0.3859
   76SLPC  C212 6868   2.036   5.586  -1.483 -0.3317 -0.6089  0.3154
   76SLPC  H12R 6869   1.951   5.638  -1.436 -0.6239  1.0297 -1.8423
   76SLPC  C213 6870   2.017   5.552  -1.611  0.1207  0.1498 -0.5137
   76SLPC  H13R 6871   1.940   5.606  -1.668 -0.7763 -1.1754 -0.6335
   76SLPC  C214 6872   2.114   5.479  -1.693  0.3637 -0.1110 -0.3125
   76SLPC  H14R 6873   2.197   5.431  -1.638 -1.2781 -2.6509  0.1284
   76SLPC  H14S 6874   2.157   5.555  -1.761 -1.6574  2.0821  0.7002
   76SLPC  C215 6875   2.047   5.366  -1.781 -0.0567  0.0282  0.5367
   76SLPC  H15R 6876   1.961   5.410  -1.836 -0.6169  1.0095  2.1306
   76SLPC  H15S 6877   2.008   5.277  -1.727  1.3116 -1.4908 -0.8589
   76SLPC  C216 6878   2.154   5.311  -1.886  0.3789 -0.3893 -0.5647
   76SLPC  H16R 6879   2.251   5.306  -1.831 -0.1075  0.1127  0.3689
   76SLPC  H16S 6880   2.164   5.385  -1.969 -0.0138  0.3679  0.0476
   76SLPC  C217 6881   2.116   5.175  -1.945 -0.6929  0.0486 -0.1442
   76SLPC  H17R 6882   2.009   5.179  -1.975 -0.1247  2.8842 -2.1566
   76SLPC  H17S 6883   2.115   5.106  -1.857 -0.3588  0.3348  0.0841
   76SLPC  C218 6884   2.215   5.134  -2.051  0.1313  0.8770 -0.1047
   76SLPC  H18R 6885   2.183   5.042  -2.104  1.9860 -0.7103  1.3828
   76SLPC  H18S 6886   2.307   5.097  -2.000 -1.8039 -1.7417  1.7469
   76SLPC  H18T 6887   2.224   5.214  -2.128 -0.0604  0.9131 -0.0890
   76SLPC   C33 6888   1.613   5.488  -0.804  0.4886 -0.6340  0.6256
   76SLPC   H3X 6889   1.523   5.424  -0.799 -0.1601 -0.2619 -3.0398
   76SLPC   H3Y 6890   1.694   5.443  -0.742  0.7624 -0.0473  0.7053
   76SLPC   C34 6891   1.636   5.485  -0.963 -0.5419  0.0149 -0.3635
   76SLPC   H4X 6892   1.653   5.378  -0.987 -1.8377  0.0284 -1.4011
   76SLPC   H4Y 6893   1.716   5.551  -1.005  0.5188 -1.1799 -0.2935
   76SLPC   C35 6894   1.506   5.532  -1.032 -0.2854  0.1525  0.0031
   76SLPC   H5X 6895   1.481   5.633  -0.995 -0.7782 -0.0249  0.1638
   76SLPC   H5Y 6896   1.425   5.460  -1.006 -1.3639 -0.2394 -3.8239
   76SLPC   C36 6897   1.506   5.519  -1.189  0.4143 -0.1617 -0.7254
   76SLPC   H6X 6898   1.591   5.581  -1.223  1.0981 -0.2500  0.7447
   76SLPC   H6Y 6899   1.416   5.565  -1.235  1.1208 -0.3436 -2.3535
   76SLPC   C37 6900   1.519   5.373  -1.240 -0.0952 -0.2146 -0.0459
   76SLPC   H7X 6901   1.423   5.319  -1.233 -1.5537  2.0194 -1.4295
   76SLPC   H7Y 6902   1.593   5.324  -1.172 -0.4846  1.1901  1.4784
   76SLPC   C38 6903   1.553   5.360  -1.384 -0.1637 -0.0418  0.6369
   76SLPC   H8X 6904   1.640   5.422  -1.416 -0.2043 -0.7167 -0.8737
   76SLPC   H8Y 6905   1.468   5.407  -1.439  0.2880  0.3959  0.2967
   76SLPC   C39 6906   1.552   5.218  -1.448  0.8516  0.3917  0.3503
   76SLPC   H9X 6907   1.450   5.176  -1.440  1.0121 -0.0512  0.1429
   76SLPC   H9Y 6908   1.634   5.153  -1.411  1.3878  0.5796 -0.4678
   76SLPC  C310 6909   1.586   5.220  -1.603 -0.3238  0.4114  0.0894
   76SLPC  H10X 6910   1.688   5.264  -1.609 -0.1184  0.7520  3.7610
   76SLPC  H10Y 6911   1.522   5.292  -1.658  0.9803  0.2548 -1.7270
   76SLPC  C311 6912   1.580   5.076  -1.660  0.4801 -0.3724 -0.2101
   76SLPC  H11X 6913   1.479   5.031  -1.651  0.5439 -0.4550  0.1270
   76SLPC  H11Y 6914   1.646   5.013  -1.595  0.8509 -0.8215 -0.9984
   76SLPC  C312 6915   1.632   5.069  -1.804 -0.1841  0.4303  0.1059
   76SLPC  H12X 6916   1.734   5.112  -1.802 -1.3487  3.4312  1.4218
   76SLPC  H12Y 6917   1.570   5.137  -1.867  0.1081  0.5799 -0.0236
   76SLPC  C313 6918   1.640   4.924  -1.845  0.0890  0.0257 -0.4720
   76SLPC  H13X 6919   1.540   4.879  -1.827  0.3520 -1.0049 -1.4460
   76SLPC  H13Y 6920   1.709   4.866  -1.779 -1.6723  0.0515  1.5154
   76SLPC  C314 6921   1.676   4.906  -1.989 -0.2220 -0.3816  0.4518
   76SLPC  H14X 6922   1.767   4.964  -2.016 -1.0762  0.0515 -1.7877
   76SLPC  H14Y 6923   1.603   4.962  -2.052 -0.3286 -0.6111  0.3717
   76SLPC  C315 6924   1.691   4.765  -2.045 -0.2785 -0.2393 -0.4595
   76SLPC  H15X 6925   1.587   4.726  -2.045  0.2150 -1.8242 -2.9353
   76SLPC  H15Y 6926   1.753   4.713  -1.969  0.1245 -1.7644 -1.7637
   76SLPC  C316 6927   1.748   4.761  -2.187  0.4241 -0.1197  1.0724
   76SLPC  H16X 6928   1.858   4.751  -2.180  0.4264 -1.8828 -0.4615
   76SLPC  H16Y 6929   1.705   4.844  -2.246  0.9677 -1.1699 -0.8900
   76SLPC  C317 6930   1.718   4.622  -2.253 -0.6136  0.0453 -0.7989
   76SLPC  H17X 6931   1.607   4.621  -2.267 -0.7868 -4.1391 -0.6128
   76SLPC  H17Y 6932   1.743   4.551  -2.170 -3.1168 -0.3139 -0.2420
   76SLPC  C318 6933   1.798   4.608  -2.383  0.3067  0.0914 -0.2819
   76SLPC  H18X 6934   1.907   4.597  -2.365  0.2913  1.0494  0.4329
   76SLPC  H18Y 6935   1.791   4.696  -2.451  1.0945 -0.2915 -0.8719
   76SLPC  H18Z 6936   1.766   4.518  -2.440 -1.9949  1.1591 -0.8023
   77SLPC     N 6937   6.722   3.626   0.101 -0.5051 -0.3318 -0.6486
   77SLPC   C13 6938   6.856   3.644   0.162  0.1937  0.3675 -0.2698
   77SLPC  H13A 6939   6.926   3.590   0.099  0.2436 -0.6180  0.5894
   77SLPC  H13B 6940   6.888   3.747   0.158  0.4105  0.3213  0.1862
   77SLPC  H13C 6941   6.860   3.606   0.263  1.0238 -1.5560 -0.9577
   77SLPC   C14 6942   6.623   3.709   0.175  0.5402  0.1842  0.3704
   77SLPC  H14A 6943   6.634   3.815   0.161 -0.1523  0.3197  0.7755
   77SLPC  H14B 6944   6.523   3.681   0.144  0.3990  0.9035  0.1759
   77SLPC  H14C 6945   6.622   3.691   0.282  0.0574 -1.0125  0.1907
   77SLPC   C15 6946   6.691   3.482   0.110  0.7326 -0.3947  0.8648
   77SLPC  H15A 6947   6.777   3.433   0.067  0.4972  1.3047 -1.8016
   77SLPC  H15B 6948   6.689   3.448   0.213 -1.9180  3.4692  2.3427
   77SLPC  H15C 6949   6.595   3.451   0.071  0.0791  1.6309  0.7302
   77SLPC   C12 6950   6.740   3.664  -0.044  0.5889 -0.2237  0.3701
   77SLPC  H12A 6951   6.820   3.602  -0.082 -0.2244 -0.9065 -0.2813
   77SLPC  H12B 6952   6.781   3.763  -0.052 -0.7948  0.3021 -0.5675
   77SLPC   C11 6953   6.608   3.663  -0.130  1.0065 -0.5992 -0.3811
   77SLPC  H11A 6954   6.561   3.563  -0.129 -0.7088  0.1558  1.4475
   77SLPC  H11B 6955   6.634   3.668  -0.238 -2.8296 -0.9164 -1.4702
   77SLPC     P 6956   6.527   3.915  -0.118  0.2534  0.3347  0.5413
   77SLPC   O13 6957   6.402   3.962  -0.064 -0.1822 -0.3425 -0.0886
   77SLPC   O14 6958   6.647   3.970  -0.062 -0.5058 -0.4570  0.3209
   77SLPC   O12 6959   6.518   3.763  -0.090  0.4334 -0.1170 -0.7634
   77SLPC   O11 6960   6.522   3.931  -0.276 -0.4530  0.4512 -0.3141
   77SLPC    C1 6961   6.606   4.030  -0.338 -0.3401 -0.1188 -0.4173
   77SLPC    HA 6962   6.595   4.131  -0.294  1.0580 -0.6469  1.3131
   77SLPC    HB 6963   6.712   4.002  -0.319 -0.6723 -0.2804  1.3718
   77SLPC    C2 6964   6.569   4.042  -0.487  0.1729  0.3850 -0.5667
   77SLPC    HS 6965   6.492   4.117  -0.516  0.3869  0.8058 -0.0578
   77SLPC   O21 6966   6.543   3.910  -0.537 -0.4897  0.9837 -0.6978
   77SLPC   C21 6967   6.415   3.885  -0.560 -1.2289  0.2053 -0.7299
   77SLPC   O22 6968   6.324   3.962  -0.551 -0.8367 -0.0956 -0.2726
   77SLPC   C22 6969   6.395   3.738  -0.591  0.0913 -0.2481 -0.0016
   77SLPC   H2R 6970   6.481   3.672  -0.567 -0.1314 -1.0205 -1.2378
   77SLPC   H2S 6971   6.304   3.710  -0.533  0.2967 -0.5832  0.1632
   77SLPC    C3 6972   6.697   4.095  -0.555 -0.1122 -0.0111 -0.3850
   77SLPC    HX 6973   6.777   4.020  -0.536 -2.4811 -2.5972  0.2110
   77SLPC    HY 6974   6.739   4.186  -0.508  2.1298 -0.9018 -0.5521
   77SLPC   O31 6975   6.675   4.131  -0.698  0.1691  0.0801 -0.0577
   77SLPC   C31 6976   6.715   4.032  -0.775 -0.7442  0.2826 -0.2867
   77SLPC   O32 6977   6.763   3.924  -0.736  0.3244 -0.2857 -0.3520
   77SLPC   C32 6978   6.684   4.064  -0.916 -0.3014  0.2486  0.0299
   77SLPC   H2X 6979   6.637   4.164  -0.924 -0.3660  0.2521  0.4551
   77SLPC   H2Y 6980   6.611   3.983  -0.936  0.8349 -0.4765 -1.3800
   77SLPC   C23 6981   6.343   3.726  -0.736 -0.3187 -0.2716  0.0435
   77SLPC   H3R 6982   6.280   3.812  -0.768  0.4059  0.0321 -0.6050
   77SLPC   H3S 6983   6.287   3.630  -0.737  0.0770 -0.5562  1.8925
   77SLPC   C24 6984   6.465   3.714  -0.834  0.1464 -0.2421  0.0598
   77SLPC   H4R 6985   6.487   3.608  -0.812  0.2165 -0.6116 -1.6797
   77SLPC   H4S 6986   6.545   3.786  -0.806  1.8006 -2.1804  0.5500
   77SLPC   C25 6987   6.420   3.715  -0.982 -0.0020  0.2534 -0.1783
   77SLPC   H5R 6988   6.356   3.805  -0.997 -1.6194 -0.6299  1.1487
   77SLPC   H5S 6989   6.363   3.625  -1.013 -0.1695  0.3746 -0.2215
   77SLPC   C26 6990   6.539   3.705  -1.088 -0.0475  0.2087  0.1489
   77SLPC   H6R 6991   6.580   3.602  -1.087 -0.8194 -0.1047  0.2298
   77SLPC   H6S 6992   6.621   3.772  -1.055 -0.8078  1.1542  0.1535
   77SLPC   C27 6993   6.477   3.745  -1.220  0.0986 -0.5067 -0.2997
   77SLPC   H7R 6994   6.436   3.847  -1.207  0.9721  0.1042 -1.9703
   77SLPC   H7S 6995   6.393   3.677  -1.243 -0.5193 -0.5317  1.8150
   77SLPC   C28 6996   6.575   3.762  -1.337 -0.0887  0.1156 -0.9543
   77SLPC   H8R 6997   6.611   3.661  -1.367  0.9268  0.4571 -0.9242
   77SLPC   H8S 6998   6.665   3.816  -1.301 -0.8167 -0.6596  2.3460
   77SLPC   C29 6999   6.514   3.825  -1.461 -0.2307 -0.4725 -0.2522
   77SLPC   H9R 7000   6.471   3.924  -1.436 -4.0808 -1.6115 -1.6931
   77SLPC  C210 7001   6.491   3.762  -1.579  1.0775 -0.4241  0.3675
   77SLPC  H10R 7002   6.442   3.821  -1.659 -0.7341 -1.5059  0.6115
   77SLPC  C211 7003   6.509   3.621  -1.622 -0.2630 -0.1235  0.2225
   77SLPC  H11R 7004   6.432   3.600  -1.700  1.0016 -1.4350 -0.7172
   77SLPC  H11S 7005   6.474   3.552  -1.542 -0.3350 -3.2099 -2.2741
   77SLPC  C212 7006   6.651   3.583  -1.666 -0.1634 -0.3418 -0.3458
   77SLPC  H12R 7007   6.723   3.559  -1.586  1.3509 -0.2556 -1.6517
   77SLPC  C213 7008   6.689   3.566  -1.794 -0.2369  0.3396  1.2681
   77SLPC  H13R 7009   6.791   3.533  -1.816  0.4854  2.2144  1.6334
   77SLPC  C214 7010   6.603   3.606  -1.915 -0.1261  0.1630  0.1421
   77SLPC  H14R 7011   6.544   3.698  -1.896  0.9927  1.2117 -1.2299
   77SLPC  H14S 7012   6.547   3.515  -1.944  1.1160 -1.0110  1.2934
   77SLPC  C215 7013   6.688   3.642  -2.042  0.4279  0.4463  0.2520
   77SLPC  H15R 7014   6.755   3.729  -2.025  2.2497 -0.9435  0.4718
   77SLPC  H15S 7015   6.618   3.674  -2.123  2.2444  1.9052 -0.8392
   77SLPC  C216 7016   6.769   3.515  -2.096 -0.5260 -0.4195 -0.4356
   77SLPC  H16R 7017   6.698   3.432  -2.116  0.1682 -1.0307 -0.3760
   77SLPC  H16S 7018   6.826   3.480  -2.007 -1.7062 -2.2352 -0.3322
   77SLPC  C217 7019   6.844   3.561  -2.216  0.7359 -0.2890 -0.5087
   77SLPC  H17R 7020   6.910   3.648  -2.195  0.8756 -0.3729 -0.5959
   77SLPC  H17S 7021   6.778   3.598  -2.297 -0.1864  0.5195  0.5760
   77SLPC  C218 7022   6.922   3.445  -2.272 -0.4048 -0.0137  0.1079
   77SLPC  H18R 7023   6.991   3.393  -2.202 -0.8675 -1.5122 -0.5228
   77SLPC  H18S 7024   6.988   3.464  -2.359  0.5819 -1.9753  0.3734
   77SLPC  H18T 7025   6.850   3.370  -2.311 -0.3018 -0.4621  0.7453
   77SLPC   C33 7026   6.794   4.057  -1.027 -0.0923 -0.1485 -0.1660
   77SLPC   H3X 7027   6.837   3.954  -1.026  0.1855 -0.0320 -0.1579
   77SLPC   H3Y 7028   6.873   4.133  -1.011 -0.3156  0.1176 -0.3220
   77SLPC   C34 7029   6.727   4.077  -1.162  0.2353  0.1106 -0.2139
   77SLPC   H4X 7030   6.687   4.180  -1.166 -0.4120 -0.1540 -0.6955
   77SLPC   H4Y 7031   6.637   4.015  -1.179 -0.0911  0.9228 -1.5455
   77SLPC   C35 7032   6.823   4.051  -1.275 -0.0060  0.3966  0.0536
   77SLPC   H5X 7033   6.840   3.941  -1.273  2.2860  0.6974 -0.2631
   77SLPC   H5Y 7034   6.919   4.105  -1.264 -0.4795  1.4490 -0.7362
   77SLPC   C36 7035   6.763   4.091  -1.408 -0.0837  0.2653 -0.1141
   77SLPC   H6X 7036   6.747   4.200  -1.420 -1.2147  0.2918  1.2844
   77SLPC   H6Y 7037   6.662   4.046  -1.421  0.8348 -1.4630 -1.7142
   77SLPC   C37 7038   6.865   4.050  -1.519  0.5394  0.7448  0.1931
   77SLPC   H7X 7039   6.895   3.946  -1.493  0.7607  1.2501  2.1453
   77SLPC   H7Y 7040   6.957   4.109  -1.505 -0.2255  1.6744  1.5618
   77SLPC   C38 7041   6.811   4.046  -1.662  0.0462 -0.5154 -0.1672
   77SLPC   H8X 7042   6.741   4.132  -1.668 -0.2683 -0.7148  0.5216
   77SLPC   H8Y 7043   6.751   3.954  -1.681  0.6172 -0.7488 -0.8436
   77SLPC   C39 7044   6.918   4.048  -1.772 -0.4046 -0.4587  0.0308
   77SLPC   H9X 7045   6.981   4.135  -1.745 -2.0534  0.2466  1.9435
   77SLPC   H9Y 7046   6.858   4.075  -1.862  0.0322 -1.4578 -0.5741
   77SLPC  C310 7047   6.996   3.918  -1.788 -0.0208 -0.5963 -0.3700
   77SLPC  H10X 7048   6.938   3.838  -1.839  2.4802 -2.9872  0.3141
   77SLPC  H10Y 7049   7.019   3.879  -1.687 -4.4434  1.7287  1.8159
   77SLPC  C311 7050   7.128   3.917  -1.868 -0.3201  0.2285 -0.4753
   77SLPC  H11X 7051   7.166   3.814  -1.857 -1.7513 -0.2707  0.1207
   77SLPC  H11Y 7052   7.203   3.989  -1.828  0.0745  0.3655 -1.4348
   77SLPC  C312 7053   7.107   3.941  -2.016  0.5986 -0.2644  0.2015
   77SLPC  H12X 7054   7.061   4.041  -2.035  2.0897  0.0488 -2.2156
   77SLPC  H12Y 7055   7.025   3.879  -2.057  0.4269  1.0610 -1.5484
   77SLPC  C313 7056   7.229   3.928  -2.094 -0.5209 -0.1657  0.6388
   77SLPC  H13X 7057   7.296   3.848  -2.056  1.4979 -0.0119 -2.2422
   77SLPC  H13Y 7058   7.288   4.022  -2.086  1.5751 -1.1170 -1.9870
   77SLPC  C314 7059   7.199   3.917  -2.253  0.7195 -0.4901  0.0932
   77SLPC  H14X 7060   7.153   4.008  -2.298 -2.2345 -1.3352  1.1214
   77SLPC  H14Y 7061   7.118   3.843  -2.272  0.2138 -0.0507  0.4852
   77SLPC  C315 7062   7.317   3.878  -2.342  0.1962 -0.9188  0.6194
   77SLPC  H15X 7063   7.359   3.783  -2.302  1.1343 -0.8026 -0.0632
   77SLPC  H15Y 7064   7.390   3.959  -2.322  0.7910 -1.8161  2.2836
   77SLPC  C316 7065   7.287   3.865  -2.490  0.5669  0.2775  0.6236
   77SLPC  H16X 7066   7.239   3.951  -2.541 -0.5399 -0.6594  0.0281
   77SLPC  H16Y 7067   7.210   3.785  -2.502 -0.5384  1.4023  0.0089
   77SLPC  C317 7068   7.410   3.819  -2.564 -0.2609 -0.3795 -0.1441
   77SLPC  H17X 7069   7.442   3.720  -2.525 -1.1130  0.0210  1.6905
   77SLPC  H17Y 7070   7.492   3.893  -2.550 -0.1944 -0.4366 -0.2234
   77SLPC  C318 7071   7.376   3.811  -2.707  0.0698 -0.4073 -0.3226
   77SLPC  H18X 7072   7.342   3.910  -2.743 -2.3191 -0.5406  1.3187
   77SLPC  H18Y 7073   7.296   3.740  -2.736  0.7116 -0.8892 -0.9582
   77SLPC  H18Z 7074   7.460   3.766  -2.764  1.0073  0.6177  0.1956
   78SLPC     N 7075   1.389   0.089   8.526  0.0454 -0.2435  0.3171
   78SLPC   C13 7076   1.447   0.170   8.642  0.2144  0.2896 -0.0611
   78SLPC  H13A 7077   1.501   0.259   8.611  0.2784  0.7905  1.4059
   78SLPC  H13B 7078   1.369   0.202   8.709 -0.4631 -0.9121 -0.2434
   78SLPC  H13C 7079   1.511   0.110   8.706 -0.2123 -0.4182 -0.2878
   78SLPC   C14 7080   1.309  -0.024   8.566  0.3081 -0.3315 -0.3942
   78SLPC  H14A 7081   1.246  -0.079   8.497  1.0138 -2.5042  0.6149
   78SLPC  H14B 7082   1.371  -0.102   8.608  0.0008 -0.5441 -0.3283
   78SLPC  H14C 7083   1.235  -0.011   8.644 -0.2899 -1.7022 -0.6926
   78SLPC   C15 7084   1.513   0.032   8.452  0.4759 -0.4436  0.1701
   78SLPC  H15A 7085   1.573   0.112   8.411 -1.0258 -0.1128 -1.5182
   78SLPC  H15B 7086   1.569  -0.031   8.520  1.0951  0.5904  0.6359
   78SLPC  H15C 7087   1.469  -0.019   8.367 -0.2052  0.0362  0.2240
   78SLPC   C12 7088   1.317   0.172   8.428 -0.0519 -0.7212  0.1535
   78SLPC  H12A 7089   1.360   0.271   8.423 -0.0283 -0.6902  0.8246
   78SLPC  H12B 7090   1.219   0.196   8.466  0.0409  1.6841 -0.9231
   78SLPC   C11 7091   1.303   0.116   8.290  0.0984 -0.1013  0.2599
   78SLPC  H11A 7092   1.400   0.128   8.238 -0.2096  0.7915 -0.1302
   78SLPC  H11B 7093   1.234   0.181   8.230  1.8849  1.1513 -0.5246
   78SLPC     P 7094   1.314  -0.129   8.187 -0.3482 -0.0440  0.4901
   78SLPC   O13 7095   1.454  -0.150   8.235  0.4743 -0.6081  0.2577
   78SLPC   O14 7096   1.222  -0.248   8.177 -0.2482 -0.3220  0.0346
   78SLPC   O12 7097   1.246  -0.018   8.275 -0.1469  0.6662  0.6833
   78SLPC   O11 7098   1.323  -0.059   8.049  0.1829 -0.0205 -0.3678
   78SLPC    C1 7099   1.391  -0.116   7.935 -0.2555  0.2555 -0.2600
   78SLPC    HA 7100   1.489  -0.165   7.953  0.9778  1.8940 -2.1103
   78SLPC    HB 7101   1.327  -0.186   7.878 -1.1817 -0.3439  1.4299
   78SLPC    C2 7102   1.413  -0.002   7.834  0.4033  0.9196 -0.7346
   78SLPC    HS 7103   1.314   0.039   7.802  0.9620  1.5319 -1.7221
   78SLPC   O21 7104   1.487  -0.059   7.723 -0.0280  0.2572  0.2713
   78SLPC   C21 7105   1.414  -0.092   7.623 -0.8005  0.3995 -0.1348
   78SLPC   O22 7106   1.294  -0.082   7.612  0.0825  0.0172  0.9738
   78SLPC   C22 7107   1.512  -0.120   7.506 -0.1929  0.2992 -0.2547
   78SLPC   H2R 7108   1.551  -0.023   7.470  0.7343 -0.9784 -3.0125
   78SLPC   H2S 7109   1.600  -0.186   7.524 -0.4639  0.8178  4.0040
   78SLPC    C3 7110   1.482   0.126   7.906  0.5885  0.5283  0.4422
   78SLPC    HX 7111   1.585   0.096   7.935  0.0942 -0.6289  1.1006
   78SLPC    HY 7112   1.427   0.142   8.002  0.3378 -1.8452  0.7553
   78SLPC   O31 7113   1.480   0.242   7.821 -0.2860 -0.4931  0.4621
   78SLPC   C31 7114   1.371   0.317   7.827 -0.2142 -0.3718  0.7678
   78SLPC   O32 7115   1.271   0.299   7.886  0.2019 -0.1924 -0.5672
   78SLPC   C32 7116   1.390   0.439   7.735 -0.5716 -0.2880  0.4872
   78SLPC   H2X 7117   1.437   0.526   7.787 -0.2688 -0.3781  0.3706
   78SLPC   H2Y 7118   1.288   0.476   7.713  0.5162  2.5335 -0.3458
   78SLPC   C23 7119   1.423  -0.168   7.392  0.0546 -0.5199 -0.4710
   78SLPC   H3R 7120   1.327  -0.114   7.381 -1.2570 -2.1126  2.2834
   78SLPC   H3S 7121   1.388  -0.272   7.412  0.2549 -0.8820 -1.8840
   78SLPC   C24 7122   1.498  -0.167   7.263 -0.0275  0.1329  0.5414
   78SLPC   H4R 7123   1.594  -0.219   7.283  1.4442  1.9299 -1.4452
   78SLPC   H4S 7124   1.533  -0.068   7.228  0.4226  0.4652  1.8860
   78SLPC   C25 7125   1.417  -0.255   7.161 -0.3332  0.6543  0.2591
   78SLPC   H5R 7126   1.314  -0.215   7.149 -1.6356 -1.9663  1.8910
   78SLPC   H5S 7127   1.401  -0.360   7.191 -1.7358  0.7726  0.0307
   78SLPC   C26 7128   1.478  -0.279   7.021 -0.8790 -0.1583 -0.0428
   78SLPC   H6R 7129   1.568  -0.345   7.026 -2.0164 -2.1830 -3.0728
   78SLPC   H6S 7130   1.526  -0.193   6.968  1.2371 -0.9426  0.4890
   78SLPC   C27 7131   1.388  -0.352   6.919  0.1510  0.3433 -0.3986
   78SLPC   H7R 7132   1.294  -0.299   6.893  1.0524  1.1776 -2.0782
   78SLPC   H7S 7133   1.357  -0.453   6.953 -3.1975  1.4957  0.3656
   78SLPC   C28 7134   1.468  -0.366   6.784  0.0797 -0.0897 -0.6706
   78SLPC   H8R 7135   1.549  -0.438   6.810 -1.8495 -1.4770  1.8979
   78SLPC   H8S 7136   1.510  -0.270   6.746  0.1038  0.8927  1.7101
   78SLPC   C29 7137   1.389  -0.424   6.668  0.2828 -0.1261  0.5774
   78SLPC   H9R 7138   1.288  -0.460   6.692 -0.4007  1.1674 -0.2415
   78SLPC  C210 7139   1.436  -0.446   6.545 -0.5941  0.8351  0.7808
   78SLPC  H10R 7140   1.369  -0.498   6.475 -2.5314 -1.0175  3.8002
   78SLPC  C211 7141   1.573  -0.407   6.489 -0.0503  0.4370 -0.7658
   78SLPC  H11R 7142   1.617  -0.496   6.439  0.1170 -1.2081  2.1184
   78SLPC  H11S 7143   1.640  -0.386   6.575  1.5585 -1.3236 -1.5408
   78SLPC  C212 7144   1.566  -0.282   6.402 -0.1863  0.0031 -0.3405
   78SLPC  H12R 7145   1.497  -0.200   6.427 -0.0314 -0.3430  1.4174
   78SLPC  C213 7146   1.644  -0.251   6.299  0.5366  0.1190 -0.5685
   78SLPC  H13R 7147   1.617  -0.159   6.245  2.1187  0.5429 -0.6942
   78SLPC  C214 7148   1.756  -0.324   6.229 -0.1132  0.0012 -0.5239
   78SLPC  H14R 7149   1.768  -0.427   6.269 -2.3678 -0.7144 -1.5270
   78SLPC  H14S 7150   1.848  -0.266   6.249 -0.7044  0.8216 -0.1436
   78SLPC  C215 7151   1.734  -0.313   6.081 -0.2635  0.0609 -0.1245
   78SLPC  H15R 7152   1.629  -0.338   6.053 -0.7123  1.7160 -0.0105
   78SLPC  H15S 7153   1.790  -0.389   6.023 -1.3357 -0.2495 -0.7855
   78SLPC  C216 7154   1.773  -0.176   6.021  0.1676 -0.1303  0.0096
   78SLPC  H16R 7155   1.866  -0.150   6.077 -0.1186 -0.0159  0.4336
   78SLPC  H16S 7156   1.706  -0.095   6.054  0.6317 -0.2426  1.2948
   78SLPC  C217 7157   1.783  -0.183   5.867  0.1769  0.0234  0.7496
   78SLPC  H17R 7158   1.680  -0.204   5.833  0.0003  1.6728  0.1806
   78SLPC  H17S 7159   1.839  -0.274   5.835 -2.1155 -1.3584  0.4510
   78SLPC  C218 7160   1.838  -0.062   5.800  0.2204 -0.0371 -0.3640
   78SLPC  H18R 7161   1.807   0.028   5.857  0.7520  0.4767 -0.8694
   78SLPC  H18S 7162   1.797  -0.053   5.697 -2.0128  1.1050  0.5683
   78SLPC  H18T 7163   1.949  -0.057   5.792  0.2732  0.2405  0.4611
   78SLPC   C33 7164   1.480   0.401   7.610 -0.3284  0.2221 -0.1542
   78SLPC   H3X 7165   1.577   0.357   7.641 -0.8966  0.5228  2.2057
   78SLPC   H3Y 7166   1.509   0.498   7.563 -0.8601  0.0387 -0.8807
   78SLPC   C34 7167   1.408   0.328   7.501 -0.0199 -0.0605  0.0896
   78SLPC   H4X 7168   1.299   0.340   7.513 -0.3753 -1.5653 -1.2873
   78SLPC   H4Y 7169   1.420   0.218   7.514  0.3255 -0.0001  0.3046
   78SLPC   C35 7170   1.447   0.363   7.355 -0.1781  0.4496  0.4018
   78SLPC   H5X 7171   1.558   0.364   7.353 -0.0617  0.5608  2.9901
   78SLPC   H5Y 7172   1.420   0.470   7.342  2.1076  1.1291  0.9261
   78SLPC   C36 7173   1.397   0.268   7.250 -0.4439 -0.2137 -0.6845
   78SLPC   H6X 7174   1.288   0.281   7.231 -0.0871  0.7360 -2.2109
   78SLPC   H6Y 7175   1.407   0.164   7.288  0.4925 -0.4930 -1.6618
   78SLPC   C37 7176   1.482   0.281   7.124  0.6289 -0.6429  0.3454
   78SLPC   H7X 7177   1.472   0.186   7.066  0.5459 -1.2617  1.3449
   78SLPC   H7Y 7178   1.588   0.294   7.155  0.0274  1.4449  1.6801
   78SLPC   C38 7179   1.438   0.395   7.028  0.2178 -0.0538  0.1730
   78SLPC   H8X 7180   1.465   0.492   7.075 -0.9060  0.4926 -0.2792
   78SLPC   H8Y 7181   1.328   0.388   7.020  0.3515 -1.2423 -0.9887
   78SLPC   C39 7182   1.496   0.387   6.885  0.3043 -0.6394  0.0303
   78SLPC   H9X 7183   1.505   0.278   6.864 -1.3011 -0.8691  0.3540
   78SLPC   H9Y 7184   1.593   0.439   6.887 -1.4110  2.9569 -1.3812
   78SLPC  C310 7185   1.409   0.457   6.780 -0.2138  0.5156  0.1081
   78SLPC  H10X 7186   1.389   0.563   6.807  1.6660  0.9194  0.0067
   78SLPC  H10Y 7187   1.313   0.400   6.779  0.3464 -0.4359 -0.3299
   78SLPC  C311 7188   1.465   0.436   6.638  0.4998  0.4514 -0.1293
   78SLPC  H11X 7189   1.463   0.330   6.605  1.1647  1.2567 -3.0339
   78SLPC  H11Y 7190   1.571   0.467   6.644  0.5042  0.4222 -0.0589
   78SLPC  C312 7191   1.398   0.525   6.535 -0.0180 -0.4825 -0.3857
   78SLPC  H12X 7192   1.364   0.619   6.584 -0.9275 -0.9788 -0.0334
   78SLPC  H12Y 7193   1.307   0.490   6.481  0.9969 -0.7369 -2.0009
   78SLPC  C313 7194   1.493   0.564   6.423  0.2123  0.2063  0.1700
   78SLPC  H13X 7195   1.532   0.467   6.383  0.0096 -0.1798  0.8972
   78SLPC  H13Y 7196   1.583   0.615   6.464 -0.1801  0.2422  1.0007
   78SLPC  C314 7197   1.435   0.660   6.316 -0.2851  0.1820 -0.3863
   78SLPC  H14X 7198   1.441   0.764   6.355  0.4698 -0.4141  1.1463
   78SLPC  H14Y 7199   1.332   0.623   6.298 -0.6651  0.8866  0.2962
   78SLPC  C315 7200   1.509   0.648   6.178  0.2423 -0.7080 -0.6960
   78SLPC  H15X 7201   1.507   0.537   6.168  0.4414 -0.8607  0.8222
   78SLPC  H15Y 7202   1.612   0.690   6.181 -0.2298  0.5951 -1.5777
   78SLPC  C316 7203   1.442   0.734   6.070  0.3567  0.3516  0.5008
   78SLPC  H16X 7204   1.461   0.842   6.085 -2.0812  1.0017 -0.5884
   78SLPC  H16Y 7205   1.332   0.727   6.085 -0.3723  0.3531 -3.6178
   78SLPC  C317 7206   1.489   0.686   5.930  0.2782 -0.0322 -0.1315
   78SLPC  H17X 7207   1.483   0.575   5.940 -1.2957 -0.0400 -0.8039
   78SLPC  H17Y 7208   1.589   0.728   5.909 -1.0919  2.3040 -2.5338
   78SLPC  C318 7209   1.392   0.724   5.808  0.7165 -0.0734 -0.1535
   78SLPC  H18X 7210   1.410   0.668   5.715  1.3342  0.0003 -0.0853
   78SLPC  H18Y 7211   1.384   0.833   5.786  2.4456  0.9015  3.2294
   78SLPC  H18Z 7212   1.290   0.693   5.838  0.6094  0.8455  0.4775
   79SLPC     N 7213   4.534   4.065   8.411  0.2144  0.1934 -0.6594
   79SLPC   C13 7214   4.592   4.006   8.285 -0.0734  0.0548  0.1082
   79SLPC  H13A 7215   4.685   4.060   8.272  0.1467 -0.2938  0.2110
   79SLPC  H13B 7216   4.625   3.904   8.295 -0.0628  0.1531  1.2093
   79SLPC  H13C 7217   4.518   4.009   8.206 -0.0165 -0.4935  0.0352
   79SLPC   C14 7218   4.618   4.022   8.522 -0.0560  0.0207 -0.4947
   79SLPC  H14A 7219   4.589   4.067   8.615 -2.1317 -1.8458 -0.1427
   79SLPC  H14B 7220   4.615   3.915   8.537 -0.4920  0.2768  1.5441
   79SLPC  H14C 7221   4.720   4.053   8.503 -0.0347 -0.0419 -0.4852
   79SLPC   C15 7222   4.405   4.008   8.436 -0.3449 -0.3585  0.5850
   79SLPC  H15A 7223   4.358   4.043   8.527 -1.6758  1.6797 -0.8014
   79SLPC  H15B 7224   4.339   4.038   8.356 -1.1460 -0.8324  1.0509
   79SLPC  H15C 7225   4.406   3.900   8.440  0.2365 -0.3181  1.7697
   79SLPC   C12 7226   4.512   4.216   8.401  0.2549  0.0219  0.7440
   79SLPC  H12A 7227   4.475   4.261   8.492  0.8010  0.0420  0.9638
   79SLPC  H12B 7228   4.451   4.234   8.314  2.3252  0.7840 -0.6184
   79SLPC   C11 7229   4.635   4.299   8.363  0.6033  0.1780  0.5575
   79SLPC  H11A 7230   4.597   4.401   8.343  0.6780 -0.0965 -1.1150
   79SLPC  H11B 7231   4.665   4.256   8.265  0.8445 -1.4169  1.2994
   79SLPC     P 7232   4.879   4.303   8.461 -0.4850 -0.1695 -0.3307
   79SLPC   O13 7233   4.938   4.378   8.578  0.0531  0.2121 -0.1874
   79SLPC   O14 7234   4.926   4.164   8.437 -0.0992  0.3830 -0.2794
   79SLPC   O12 7235   4.721   4.303   8.473  0.1266  0.0361 -0.0246
   79SLPC   O11 7236   4.898   4.388   8.333  0.1332 -0.0811  0.0704
   79SLPC    C1 7237   5.021   4.387   8.256 -0.2960  0.4254  0.3093
   79SLPC    HA 7238   5.104   4.441   8.307  0.0332 -1.2623  1.6554
   79SLPC    HB 7239   5.048   4.286   8.221 -1.1811 -0.1510  1.2225
   79SLPC    C2 7240   5.010   4.474   8.125 -0.2923  0.2303 -0.3522
   79SLPC    HS 7241   4.910   4.452   8.082 -1.0252 -0.0146  1.3865
   79SLPC   O21 7242   5.123   4.446   8.032 -0.6559 -0.1991 -0.0650
   79SLPC   C21 7243   5.110   4.339   7.957 -0.3106 -0.1919 -0.2030
   79SLPC   O22 7244   5.008   4.270   7.945  0.6488 -0.0556 -0.8001
   79SLPC   C22 7245   5.234   4.306   7.874 -0.5230 -1.2094  0.3841
   79SLPC   H2R 7246   5.232   4.370   7.783  0.2576 -0.6890  0.7203
   79SLPC   H2S 7247   5.322   4.337   7.934  0.2821 -0.9928 -0.8735
   79SLPC    C3 7248   5.017   4.624   8.169 -0.0603 -0.6714  0.5596
   79SLPC    HX 7249   5.120   4.627   8.210  0.3047 -0.2626 -0.3569
   79SLPC    HY 7250   4.947   4.642   8.254  1.6096 -0.2188  1.8903
   79SLPC   O31 7251   4.990   4.708   8.056 -0.0563  0.2668  0.6746
   79SLPC   C31 7252   5.043   4.828   8.076 -0.0468 -0.4999  0.1612
   79SLPC   O32 7253   5.094   4.872   8.179  0.3405  0.2891  0.0523
   79SLPC   C32 7254   5.013   4.903   7.952  0.0277  0.2010  0.2579
   79SLPC   H2X 7255   5.075   4.994   7.941 -2.4376  1.7032 -2.6622
   79SLPC   H2Y 7256   4.906   4.933   7.946  0.4705  1.9653  0.5697
   79SLPC   C23 7257   5.270   4.156   7.839  0.0437 -0.4004 -0.8181
   79SLPC   H3R 7258   5.175   4.101   7.821  0.6951 -2.0855  0.4902
   79SLPC   H3S 7259   5.322   4.105   7.923  1.1671  1.5868 -0.2613
   79SLPC   C24 7260   5.355   4.143   7.712 -0.5354  1.0037 -1.1387
   79SLPC   H4R 7261   5.387   4.038   7.702 -3.0042  0.3398 -3.1202
   79SLPC   H4S 7262   5.432   4.222   7.727 -1.2101  1.6386 -0.9705
   79SLPC   C25 7263   5.297   4.175   7.578 -0.9885 -0.3709  0.0435
   79SLPC   H5R 7264   5.266   4.281   7.580  0.4630  0.0667  0.8503
   79SLPC   H5S 7265   5.207   4.113   7.562 -0.7201 -0.8659  0.4093
   79SLPC   C26 7266   5.400   4.133   7.469  0.7303 -0.2454  0.2150
   79SLPC   H6R 7267   5.416   4.023   7.470 -0.6194 -0.4821 -0.4604
   79SLPC   H6S 7268   5.493   4.190   7.488 -0.4974  1.5006  1.3533
   79SLPC   C27 7269   5.348   4.178   7.326 -0.0335 -0.2050  0.1937
   79SLPC   H7R 7270   5.351   4.289   7.321  2.0700 -0.0491  2.9420
   79SLPC   H7S 7271   5.248   4.135   7.302 -1.1488  2.2002  0.2497
   79SLPC   C28 7272   5.444   4.127   7.216  0.0467 -0.1184  0.2919
   79SLPC   H8R 7273   5.438   4.017   7.215 -1.9860 -0.0548 -1.6577
   79SLPC   H8S 7274   5.548   4.165   7.227  0.2424 -0.9695  1.4354
   79SLPC   C29 7275   5.395   4.175   7.081  0.2966  1.2663 -0.1492
   79SLPC   H9R 7276   5.288   4.200   7.080 -0.4914 -1.6969 -0.9032
   79SLPC  C210 7277   5.472   4.201   6.972 -0.0844  0.0795 -0.2740
   79SLPC  H10R 7278   5.414   4.211   6.880 -1.2081  2.4573  0.6080
   79SLPC  C211 7279   5.622   4.210   6.949  0.3222 -0.5544 -0.6333
   79SLPC  H11R 7280   5.672   4.235   7.045 -1.2361  2.6951 -0.5581
   79SLPC  H11S 7281   5.638   4.295   6.879  0.8171 -0.3812 -0.3143
   79SLPC  C212 7282   5.663   4.079   6.885 -0.2610  0.0000 -0.2571
   79SLPC  H12R 7283   5.646   3.996   6.954  0.0484  0.4819  0.4069
   79SLPC  C213 7284   5.724   4.053   6.770  0.5313 -0.2841  0.5410
   79SLPC  H13R 7285   5.720   3.948   6.738  2.8713  0.1019 -1.3388
   79SLPC  C214 7286   5.763   4.154   6.669 -0.4078 -0.3729  0.0603
   79SLPC  H14R 7287   5.836   4.108   6.599  0.1817  1.6943 -0.7661
   79SLPC  H14S 7288   5.825   4.230   6.721 -0.6589  0.0594 -0.2655
   79SLPC  C215 7289   5.652   4.214   6.585 -0.1012  0.1146 -0.4274
   79SLPC  H15R 7290   5.684   4.305   6.530  0.2988  0.5454  0.4972
   79SLPC  H15S 7291   5.571   4.248   6.653  0.0499 -1.8876  0.8447
   79SLPC  C216 7292   5.581   4.119   6.482  0.7588 -0.2194  0.3731
   79SLPC  H16R 7293   5.605   4.018   6.521 -0.8729 -0.7303  0.1559
   79SLPC  H16S 7294   5.627   4.130   6.381  0.3605 -1.7932 -0.0063
   79SLPC  C217 7295   5.426   4.142   6.469 -0.1240 -0.1425  0.1005
   79SLPC  H17R 7296   5.399   4.238   6.421  2.0016 -1.2639 -3.7609
   79SLPC  H17S 7297   5.373   4.133   6.566 -1.0039  0.5465 -0.3094
   79SLPC  C218 7298   5.367   4.033   6.374 -0.6646  0.1886  0.0601
   79SLPC  H18R 7299   5.400   4.052   6.270 -0.5808  0.2385  0.0957
   79SLPC  H18S 7300   5.256   4.030   6.378 -0.6482 -1.8891 -0.0077
   79SLPC  H18T 7301   5.399   3.935   6.414 -0.7294  0.1953  0.1291
   79SLPC   C33 7302   5.025   4.821   7.824 -0.1389 -0.0163  0.0430
   79SLPC   H3X 7303   4.991   4.885   7.739 -0.2438 -2.9152 -2.2794
   79SLPC   H3Y 7304   4.954   4.735   7.816  0.3967 -0.3636 -1.4506
   79SLPC   C34 7305   5.164   4.769   7.798 -0.3868  0.2228 -0.3036
   79SLPC   H4X 7306   5.180   4.669   7.844  0.2931  0.2710 -0.4324
   79SLPC   H4Y 7307   5.242   4.823   7.855  0.2727 -1.1718  0.1623
   79SLPC   C35 7308   5.186   4.745   7.643  0.2770 -0.6730  0.2087
   79SLPC   H5X 7309   5.190   4.843   7.591 -1.4347 -1.8617 -2.3927
   79SLPC   H5Y 7310   5.105   4.680   7.604  0.4983 -0.3791 -0.7575
   79SLPC   C36 7311   5.317   4.675   7.619 -0.0821  0.1773  0.9006
   79SLPC   H6X 7312   5.320   4.582   7.681 -0.3977  0.0241  0.6900
   79SLPC   H6Y 7313   5.397   4.739   7.661 -2.7655  1.9787  3.6769
   79SLPC   C37 7314   5.347   4.629   7.473 -0.4433 -0.4577 -0.1610
   79SLPC   H7X 7315   5.253   4.580   7.439 -0.9637 -0.4397  1.1894
   79SLPC   H7Y 7316   5.427   4.552   7.462 -0.0615 -0.2308  0.9393
   79SLPC   C38 7317   5.393   4.751   7.390  0.1229  0.3726 -0.2409
   79SLPC   H8X 7318   5.469   4.808   7.446  0.4403  0.2865 -0.5795
   79SLPC   H8Y 7319   5.310   4.821   7.368  1.2584  1.4421 -1.2472
   79SLPC   C39 7320   5.465   4.723   7.252  0.2458  0.4389  0.6422
   79SLPC   H9X 7321   5.547   4.650   7.270 -0.7685 -0.8335  0.1924
   79SLPC   H9Y 7322   5.509   4.814   7.205  0.2826 -0.0174 -0.2316
   79SLPC  C310 7323   5.373   4.650   7.147 -0.0348 -0.0090 -0.9687
   79SLPC  H10X 7324   5.274   4.698   7.161  1.7519  3.5894  0.9264
   79SLPC  H10Y 7325   5.364   4.545   7.183 -0.2851  0.0276 -0.9274
   79SLPC  C311 7326   5.409   4.633   6.999  0.4628  0.4344 -0.0448
   79SLPC  H11X 7327   5.510   4.586   6.998  0.4749  0.4273 -1.6588
   79SLPC  H11Y 7328   5.416   4.732   6.950  3.5346  0.5666  0.4679
   79SLPC  C312 7329   5.307   4.556   6.921  0.2403 -0.3062 -0.2285
   79SLPC  H12X 7330   5.208   4.606   6.920  0.5594  0.3897 -2.1255
   79SLPC  H12Y 7331   5.279   4.461   6.972 -1.3114 -0.5567 -1.4688
   79SLPC  C313 7332   5.342   4.512   6.775  0.0322 -0.5021 -0.0983
   79SLPC  H13X 7333   5.440   4.461   6.774  1.2265  1.6475 -0.7958
   79SLPC  H13Y 7334   5.358   4.604   6.714  1.0792 -0.2231  0.5598
   79SLPC  C314 7335   5.237   4.420   6.700  0.4817 -0.3306  0.3741
   79SLPC  H14X 7336   5.165   4.382   6.777 -1.4049  2.4549  0.1115
   79SLPC  H14Y 7337   5.281   4.340   6.636  0.7919 -0.8214  1.1680
   79SLPC  C315 7338   5.144   4.506   6.609 -0.5504 -0.3695  0.5752
   79SLPC  H15X 7339   5.207   4.563   6.537  1.1991  1.1042  3.1499
   79SLPC  H15Y 7340   5.086   4.591   6.650 -0.7540 -0.8429  1.2876
   79SLPC  C316 7341   5.060   4.414   6.505  0.5654  0.8536 -0.3021
   79SLPC  H16X 7342   4.993   4.349   6.566  0.5224  0.5436 -0.6747
   79SLPC  H16Y 7343   5.135   4.355   6.448  2.8974  2.9084  0.4350
   79SLPC  C317 7344   4.984   4.491   6.396 -0.0134  0.4169  0.3272
   79SLPC  H17X 7345   5.054   4.534   6.321 -2.3016  1.4692 -1.3164
   79SLPC  H17Y 7346   4.925   4.574   6.440  0.4109  0.5182  0.7111
   79SLPC  C318 7347   4.881   4.411   6.315 -1.0685  0.6477 -0.3335
   79SLPC  H18X 7348   4.807   4.474   6.260  0.8391  2.2567 -1.1968
   79SLPC  H18Y 7349   4.833   4.335   6.379  0.3785 -0.7725 -0.8722
   79SLPC  H18Z 7350   4.930   4.363   6.227  1.3285  1.6787  0.3675
   80SLPC     N 7351   5.755   6.814   8.214  0.4432  0.2641 -0.1227
   80SLPC   C13 7352   5.827   6.902   8.311  0.5170 -0.5739 -0.4883
   80SLPC  H13A 7353   5.754   6.974   8.345  0.5093 -1.3287  1.1807
   80SLPC  H13B 7354   5.839   6.852   8.405 -2.0207 -1.0238 -0.3326
   80SLPC  H13C 7355   5.918   6.938   8.265  0.1363 -0.3346 -1.0769
   80SLPC   C14 7356   5.620   6.766   8.255 -0.3679  0.9296  0.2823
   80SLPC  H14A 7357   5.592   6.685   8.189  0.8037 -0.5533  1.5334
   80SLPC  H14B 7358   5.614   6.722   8.353  0.8289 -0.7487 -0.3502
   80SLPC  H14C 7359   5.550   6.848   8.251 -1.2038  0.4462  2.9271
   80SLPC   C15 7360   5.847   6.690   8.193 -0.2437  0.2383 -0.4841
   80SLPC  H15A 7361   5.796   6.613   8.137 -1.3978  0.9646 -0.4619
   80SLPC  H15B 7362   5.942   6.714   8.148  1.2320 -0.0407  2.2905
   80SLPC  H15C 7363   5.868   6.635   8.283 -0.3947 -1.8746 -1.6707
   80SLPC   C12 7364   5.745   6.875   8.078 -0.4362 -0.7473  0.8817
   80SLPC  H12A 7365   5.701   6.801   8.012 -0.3968  1.8597 -2.3051
   80SLPC  H12B 7366   5.842   6.891   8.035 -0.4722 -2.4335  0.0683
   80SLPC   C11 7367   5.665   7.006   8.065 -0.1983  1.1346  0.1223
   80SLPC  H11A 7368   5.685   7.058   7.969 -0.1135  1.2572  0.2052
   80SLPC  H11B 7369   5.704   7.076   8.143  2.4418  0.6224 -0.6273
   80SLPC     P 7370   5.423   6.937   7.995 -0.2612 -0.5099  0.2577
   80SLPC   O13 7371   5.337   6.846   8.072  0.5854  0.4435  0.2356
   80SLPC   O14 7372   5.354   7.046   7.921  0.3157  0.7744  0.6750
   80SLPC   O12 7373   5.526   7.003   8.093  0.0323  0.4228 -0.4914
   80SLPC   O11 7374   5.508   6.846   7.891  0.0655 -0.1787  0.6261
   80SLPC    C1 7375   5.476   6.711   7.855 -1.0124  0.1463  0.1368
   80SLPC    HA 7376   5.421   6.658   7.936  1.3430 -1.8634  0.5415
   80SLPC    HB 7377   5.428   6.714   7.754  0.4098  0.7191 -0.5433
   80SLPC    C2 7378   5.609   6.628   7.846  0.8144 -0.5310  0.6694
   80SLPC    HS 7379   5.657   6.646   7.944 -1.0512 -2.0850  1.9519
   80SLPC   O21 7380   5.684   6.689   7.737 -0.3684 -0.0168 -0.4240
   80SLPC   C21 7381   5.813   6.686   7.745 -0.2438  0.0968 -0.0089
   80SLPC   O22 7382   5.874   6.639   7.841 -0.2528  0.4014  0.1351
   80SLPC   C22 7383   5.879   6.735   7.615 -0.6038  0.2718 -0.6288
   80SLPC   H2R 7384   5.835   6.831   7.580  4.3394  2.7557 -0.9194
   80SLPC   H2S 7385   5.984   6.758   7.646 -1.0822  1.2074  0.3934
   80SLPC    C3 7386   5.590   6.471   7.830  0.0666 -0.1199 -1.1832
   80SLPC    HX 7387   5.533   6.435   7.919 -0.2659 -0.7126 -1.6310
   80SLPC    HY 7388   5.687   6.417   7.836  0.8943  1.2116 -1.9384
   80SLPC   O31 7389   5.506   6.426   7.720  0.2295  0.3094 -0.1914
   80SLPC   C31 7390   5.569   6.410   7.608  0.1505  0.8034 -0.2439
   80SLPC   O32 7391   5.689   6.401   7.593  0.8396  0.0677  0.5293
   80SLPC   C32 7392   5.463   6.405   7.500 -0.7206 -0.5127  0.0030
   80SLPC   H2X 7393   5.424   6.508   7.487  0.0712 -0.1731  0.2340
   80SLPC   H2Y 7394   5.386   6.335   7.539  0.1183 -2.1730 -1.1950
   80SLPC   C23 7395   5.886   6.643   7.488  0.1385 -0.1141 -0.5344
   80SLPC   H3R 7396   5.788   6.647   7.434 -0.7509  0.4349  1.0651
   80SLPC   H3S 7397   5.908   6.540   7.521  0.7558 -0.2252 -1.2502
   80SLPC   C24 7398   5.999   6.688   7.390  0.4022 -0.2070 -0.4391
   80SLPC   H4R 7399   6.099   6.674   7.437 -1.3215 -0.0505  3.6982
   80SLPC   H4S 7400   5.981   6.795   7.369 -2.5265 -1.0738 -3.1094
   80SLPC   C25 7401   5.999   6.613   7.256 -0.4571 -0.6408 -0.2754
   80SLPC   H5R 7402   5.969   6.509   7.281  2.3612 -1.2435  0.9944
   80SLPC   H5S 7403   6.096   6.592   7.206  0.9586 -0.7858  2.3516
   80SLPC   C26 7404   5.897   6.687   7.165 -0.2222 -0.1371  0.0345
   80SLPC   H6R 7405   5.933   6.790   7.142 -2.5416  1.1073  1.6111
   80SLPC   H6S 7406   5.796   6.693   7.209  0.1228 -0.5776  0.8999
   80SLPC   C27 7407   5.863   6.626   7.036 -0.1650  0.9208 -0.7869
   80SLPC   H7R 7408   5.823   6.524   7.056  3.6444 -1.1447 -2.5890
   80SLPC   H7S 7409   5.945   6.605   6.964 -0.6677 -2.0271 -0.6054
   80SLPC   C28 7410   5.741   6.684   6.963 -0.6711  0.1219  0.1727
   80SLPC   H8R 7411   5.646   6.678   7.021 -2.2305 -2.1499 -2.4381
   80SLPC   H8S 7412   5.718   6.620   6.876  0.6924 -0.5196  0.2584
   80SLPC   C29 7413   5.758   6.826   6.923  0.1136 -0.2332 -0.5751
   80SLPC   H9R 7414   5.798   6.882   7.009  0.2681  1.0296 -1.4414
   80SLPC  C210 7415   5.750   6.884   6.799  0.5098  0.5331 -0.7384
   80SLPC  H10R 7416   5.747   6.993   6.791 -1.7044  0.8424  2.2586
   80SLPC  C211 7417   5.700   6.811   6.676 -0.0145 -0.3863 -1.2387
   80SLPC  H11R 7418   5.594   6.833   6.651  0.1356 -0.0769 -1.6158
   80SLPC  H11S 7419   5.710   6.702   6.693  2.1555 -0.1613 -0.7655
   80SLPC  C212 7420   5.789   6.837   6.559 -0.0305  0.5399 -0.4069
   80SLPC  H12R 7421   5.794   6.944   6.534  0.5485  0.5405 -0.3029
   80SLPC  C213 7422   5.851   6.754   6.478 -0.3692  0.6930  0.4853
   80SLPC  H13R 7423   5.902   6.801   6.392 -1.0651  0.5929  0.0116
   80SLPC  C214 7424   5.860   6.604   6.485  0.0070 -0.0066  0.7725
   80SLPC  H14R 7425   5.870   6.553   6.386 -1.0210  0.4493  0.4209
   80SLPC  H14S 7426   5.771   6.572   6.544  1.4592 -1.3188  2.3718
   80SLPC  C215 7427   5.973   6.554   6.574  0.2291 -0.2635 -0.4676
   80SLPC  H15R 7428   5.954   6.598   6.674 -1.1688  0.1406 -0.8928
   80SLPC  H15S 7429   6.069   6.596   6.537 -0.3944  2.7962  1.0557
   80SLPC  C216 7430   5.983   6.398   6.590 -0.3903 -0.5449 -0.6454
   80SLPC  H16R 7431   5.995   6.346   6.492 -2.1537 -2.3477  0.0116
   80SLPC  H16S 7432   5.884   6.370   6.633  0.6279 -0.2037  2.0614
   80SLPC  C217 7433   6.099   6.363   6.675  0.0852  0.0090  0.1514
   80SLPC  H17R 7434   6.187   6.402   6.620  0.5212 -1.6377 -0.3872
   80SLPC  H17S 7435   6.117   6.253   6.670  0.4464  0.0959 -0.6594
   80SLPC  C218 7436   6.098   6.414   6.817  0.6491 -0.3539  0.7702
   80SLPC  H18R 7437   6.086   6.524   6.807 -2.2552 -0.7149 -0.7289
   80SLPC  H18S 7438   6.195   6.399   6.869  0.6477 -0.1559  0.8290
   80SLPC  H18T 7439   6.016   6.378   6.882 -0.7832 -1.1743 -1.3645
   80SLPC   C33 7440   5.512   6.338   7.364 -0.0532  0.2639 -0.0504
   80SLPC   H3X 7441   5.531   6.231   7.391 -1.0960 -0.1365 -0.8427
   80SLPC   H3Y 7442   5.608   6.382   7.329 -0.7624  0.9426 -1.1793
   80SLPC   C34 7443   5.403   6.333   7.254 -0.0642 -0.0551  0.1961
   80SLPC   H4X 7444   5.348   6.427   7.231 -3.6430 -2.2730 -1.0689
   80SLPC   H4Y 7445   5.326   6.264   7.293 -0.8891  0.4170 -0.5670
   80SLPC   C35 7446   5.466   6.294   7.122  0.1672 -0.2700  0.4032
   80SLPC   H5X 7447   5.495   6.186   7.122 -1.7115 -0.8014  0.8353
   80SLPC   H5Y 7448   5.556   6.357   7.108  0.2302 -0.5636 -0.5999
   80SLPC   C36 7449   5.371   6.306   7.005 -0.0019  0.0091  0.0638
   80SLPC   H6X 7450   5.356   6.415   6.991  2.0536  0.2657 -0.5242
   80SLPC   H6Y 7451   5.276   6.256   7.032  0.0974  0.1563  0.7142
   80SLPC   C37 7452   5.439   6.245   6.873  0.4140  0.2452 -0.1586
   80SLPC   H7X 7453   5.363   6.204   6.803  0.1330  0.6062 -0.0672
   80SLPC   H7Y 7454   5.493   6.152   6.899 -1.2893 -0.6983  0.1480
   80SLPC   C38 7455   5.525   6.358   6.803 -0.0264 -0.3630 -0.2642
   80SLPC   H8X 7456   5.589   6.409   6.879 -1.6733  2.6518 -0.7467
   80SLPC   H8Y 7457   5.451   6.435   6.773  0.7771  1.0497  1.2018
   80SLPC   C39 7458   5.604   6.314   6.677 -0.9445 -0.1297 -0.5119
   80SLPC   H9X 7459   5.679   6.239   6.709 -2.0138 -1.2078 -0.4558
   80SLPC   H9Y 7460   5.651   6.407   6.639  0.3670 -0.2788  0.6714
   80SLPC  C310 7461   5.513   6.254   6.567 -0.0269 -0.7214 -0.2585
   80SLPC  H10X 7462   5.433   6.331   6.564  1.4744  1.0289  1.9405
   80SLPC  H10Y 7463   5.480   6.152   6.597  1.3114 -0.6095  1.7279
   80SLPC  C311 7464   5.579   6.232   6.423 -0.2630 -0.4024 -0.1424
   80SLPC  H11X 7465   5.596   6.330   6.373 -0.4406  0.1857  0.9103
   80SLPC  H11Y 7466   5.499   6.177   6.370 -2.1066  1.0485  0.9957
   80SLPC  C312 7467   5.705   6.147   6.420  0.2059 -0.5609  0.0558
   80SLPC  H12X 7468   5.682   6.039   6.407 -2.5686 -0.1125  0.7010
   80SLPC  H12Y 7469   5.749   6.154   6.522 -1.8057  0.9363  0.8755
   80SLPC  C313 7470   5.808   6.182   6.308  0.0216 -0.7111 -0.2446
   80SLPC  H13X 7471   5.906   6.129   6.314  0.4407  0.1461  0.6634
   80SLPC  H13Y 7472   5.839   6.287   6.328  2.1393 -1.4403  0.6106
   80SLPC  C314 7473   5.739   6.165   6.166  0.8118 -0.0188 -0.2723
   80SLPC  H14X 7474   5.807   6.226   6.103  0.1769  1.4126  0.3924
   80SLPC  H14Y 7475   5.639   6.212   6.172  1.8590  2.1455  1.8592
   80SLPC  C315 7476   5.717   6.020   6.133  0.1268 -0.3022  0.4825
   80SLPC  H15X 7477   5.624   5.999   6.191 -0.0661  0.8066  0.6005
   80SLPC  H15Y 7478   5.804   5.956   6.158 -0.8337 -2.1857 -0.7945
   80SLPC  C316 7479   5.681   6.007   5.988  0.2559  0.3722 -0.2608
   80SLPC  H16X 7480   5.762   6.056   5.931  3.0844  0.1468  3.2096
   80SLPC  H16Y 7481   5.587   6.061   5.963 -0.9892 -1.9020 -0.7329
   80SLPC  C317 7482   5.680   5.857   5.939  0.8564  0.3873 -0.3962
   80SLPC  H17X 7483   5.620   5.788   6.001 -2.7131  1.6999 -2.1039
   80SLPC  H17Y 7484   5.784   5.817   5.944  1.6100  2.2584 -0.4952
   80SLPC  C318 7485   5.619   5.842   5.800 -0.3228  0.8618 -0.1347
   80SLPC  H18X 7486   5.614   5.735   5.770  0.5508  1.1408 -1.3399
   80SLPC  H18Y 7487   5.679   5.905   5.731 -2.4148  1.8417 -1.1581
   80SLPC  H18Z 7488   5.511   5.871   5.797 -0.8244 -0.9257 -0.3200
   81SLPC     N 7489   5.424   0.828   3.636 -0.3508 -0.1062 -0.1524
   81SLPC   C13 7490   5.366   0.690   3.625 -0.3547 -0.8759  0.9055
   81SLPC  H13A 7491   5.306   0.682   3.535  0.1792 -0.6429  0.5210
   81SLPC  H13B 7492   5.444   0.615   3.624 -2.2141 -2.9385  1.6384
   81SLPC  H13C 7493   5.297   0.669   3.705 -1.9844  0.6307 -0.0255
   81SLPC   C14 7494   5.523   0.838   3.522  0.3238 -0.0438 -0.2456
   81SLPC  H14A 7495   5.567   0.937   3.521  2.3117 -0.8669 -1.9029
   81SLPC  H14B 7496   5.608   0.772   3.537 -0.0749 -0.5265 -0.1006
   81SLPC  H14C 7497   5.478   0.826   3.425 -0.3034 -0.4841  0.0955
   81SLPC   C15 7498   5.491   0.842   3.774  0.0006 -0.2591  0.1576
   81SLPC  H15A 7499   5.556   0.759   3.796 -1.0473 -1.1186  0.0978
   81SLPC  H15B 7500   5.545   0.935   3.777 -0.3760 -0.0634  1.9678
   81SLPC  H15C 7501   5.409   0.850   3.843  0.6257  3.1674  0.6799
   81SLPC   C12 7502   5.320   0.932   3.612 -0.1725 -0.1535  0.6775
   81SLPC  H12A 7503   5.287   0.909   3.512 -0.0590  1.6104  0.1948
   81SLPC  H12B 7504   5.355   1.034   3.603  0.5541 -0.3668  1.0076
   81SLPC   C11 7505   5.210   0.937   3.715  0.2596 -0.4559 -0.2499
   81SLPC  H11A 7506   5.160   0.837   3.716 -0.9147 -0.0715 -3.9750
   81SLPC  H11B 7507   5.125   0.996   3.676 -0.4989 -2.5247 -1.9147
   81SLPC     P 7508   5.252   1.130   3.894 -0.0900  0.3811 -0.2513
   81SLPC   O13 7509   5.393   1.159   3.927  0.2049  0.1407  0.0487
   81SLPC   O14 7510   5.187   1.218   3.798  0.2140  0.0292  0.5671
   81SLPC   O12 7511   5.249   0.978   3.844 -0.3196 -0.6036 -0.1673
   81SLPC   O11 7512   5.168   1.138   4.035  0.2460 -0.7823  0.4762
   81SLPC    C1 7513   5.222   1.109   4.165 -0.3732 -0.6302 -1.3267
   81SLPC    HA 7514   5.146   1.073   4.237  2.7221 -5.5268 -0.0651
   81SLPC    HB 7515   5.299   1.030   4.156 -0.2850 -0.5022 -1.7192
   81SLPC    C2 7516   5.276   1.242   4.237  0.0731 -0.1200 -1.0188
   81SLPC    HS 7517   5.367   1.265   4.178  1.2559 -0.4168  0.6454
   81SLPC   O21 7518   5.328   1.213   4.369 -0.4957 -0.0330 -0.3639
   81SLPC   C21 7519   5.409   1.307   4.426  0.0321  0.2754 -0.4939
   81SLPC   O22 7520   5.436   1.413   4.375  0.2780 -0.6409  0.6671
   81SLPC   C22 7521   5.444   1.259   4.567 -0.1959  0.2848  0.0203
   81SLPC   H2R 7522   5.482   1.156   4.550  1.4816  1.0331 -1.0193
   81SLPC   H2S 7523   5.533   1.317   4.599 -0.7484  1.3396 -0.3113
   81SLPC    C3 7524   5.172   1.356   4.227  1.3306 -0.3256 -1.2101
   81SLPC    HX 7525   5.144   1.363   4.120 -1.4671 -2.4570 -0.7536
   81SLPC    HY 7526   5.212   1.456   4.253 -3.2350  1.5563 -0.3277
   81SLPC   O31 7527   5.053   1.336   4.308 -0.6223  0.2826  0.1124
   81SLPC   C31 7528   5.041   1.415   4.414  0.4423 -0.2533  0.2704
   81SLPC   O32 7529   5.108   1.512   4.437 -0.5444 -0.0910 -0.0003
   81SLPC   C32 7530   4.936   1.352   4.511  0.1353  0.5371 -0.3803
   81SLPC   H2X 7531   4.955   1.243   4.515 -4.0682 -0.3028  0.7101
   81SLPC   H2Y 7532   4.839   1.364   4.459  0.2738  0.6032 -0.6279
   81SLPC   C23 7533   5.319   1.268   4.657 -0.2412  0.3609 -0.1718
   81SLPC   H3R 7534   5.251   1.353   4.636 -4.3657 -2.4607  0.4333
   81SLPC   H3S 7535   5.353   1.283   4.762 -1.4714 -0.4230  0.3685
   81SLPC   C24 7536   5.229   1.146   4.645 -0.4554 -0.7249  0.5738
   81SLPC   H4R 7537   5.281   1.056   4.607 -0.3690 -0.3958 -0.1149
   81SLPC   H4S 7538   5.145   1.173   4.578  0.5097  1.8141  0.2605
   81SLPC   C25 7539   5.171   1.109   4.783  0.2252 -0.3527  0.6451
   81SLPC   H5R 7540   5.105   1.192   4.817 -0.3235  0.4869 -2.1905
   81SLPC   H5S 7541   5.252   1.077   4.852 -0.3310 -1.6292  0.7282
   81SLPC   C26 7542   5.067   0.990   4.772  0.4313 -0.0672 -0.3439
   81SLPC   H6R 7543   5.104   0.918   4.848  2.8672  0.5649 -0.8456
   81SLPC   H6S 7544   5.059   0.951   4.668  0.4033 -0.4640 -0.1925
   81SLPC   C27 7545   4.927   1.034   4.814 -0.6587  0.3871 -0.3341
   81SLPC   H7R 7546   4.900   1.116   4.745  1.4089 -0.9483 -2.8969
   81SLPC   H7S 7547   4.920   1.062   4.922  3.9864  1.8054 -0.1651
   81SLPC   C28 7548   4.822   0.922   4.782 -0.0843  0.1691 -0.1791
   81SLPC   H8R 7549   4.855   0.827   4.830  0.9978 -0.6766 -2.4794
   81SLPC   H8S 7550   4.832   0.903   4.673 -3.7021 -0.8524 -0.4528
   81SLPC   C29 7551   4.671   0.937   4.793 -0.2842 -0.5497  0.3085
   81SLPC   H9R 7552   4.634   0.989   4.703  0.9601 -5.1526 -3.2462
   81SLPC  C210 7553   4.587   0.896   4.895 -0.7020 -0.2011 -0.0476
   81SLPC  H10R 7554   4.479   0.914   4.897 -1.0465 -2.0995  1.9337
   81SLPC  C211 7555   4.654   0.827   5.010  0.9246  0.5457 -0.5478
   81SLPC  H11R 7556   4.649   0.903   5.091 -1.0836  0.8670 -0.9125
   81SLPC  H11S 7557   4.756   0.787   4.990  0.5392  0.4964 -2.5949
   81SLPC  C212 7558   4.562   0.708   5.047 -0.3256  0.5553  0.2882
   81SLPC  H12R 7559   4.585   0.614   4.994 -1.7405  0.5328 -0.3256
   81SLPC  C213 7560   4.457   0.705   5.127 -0.4455 -0.9544 -0.3787
   81SLPC  H13R 7561   4.410   0.610   5.157  1.8721 -1.8476  0.7144
   81SLPC  C214 7562   4.407   0.822   5.208  0.0022 -0.6699  0.0365
   81SLPC  H14R 7563   4.298   0.803   5.213 -0.2927  1.1381  1.6797
   81SLPC  H14S 7564   4.425   0.915   5.150  1.7812 -0.7889  0.3433
   81SLPC  C215 7565   4.463   0.830   5.348 -0.2038 -0.1412  0.5405
   81SLPC  H15R 7566   4.571   0.852   5.352 -0.5495  1.5407  1.5781
   81SLPC  H15S 7567   4.447   0.731   5.396 -1.6288 -2.1558 -3.6226
   81SLPC  C216 7568   4.394   0.942   5.416 -0.3834  0.4709 -1.0643
   81SLPC  H16R 7569   4.284   0.930   5.415 -0.4617  0.8909  0.1817
   81SLPC  H16S 7570   4.431   1.040   5.378 -0.8635  1.7060  1.4646
   81SLPC  C217 7571   4.429   0.941   5.567  0.7275 -0.0621  0.0458
   81SLPC  H17R 7572   4.378   0.849   5.604  1.8470 -0.4990  0.5685
   81SLPC  H17S 7573   4.377   1.023   5.620 -0.3803 -1.6847  1.6282
   81SLPC  C218 7574   4.576   0.942   5.596  0.1538  0.2764 -0.4600
   81SLPC  H18R 7575   4.624   0.857   5.542  1.4047  1.7674 -1.7837
   81SLPC  H18S 7576   4.594   0.934   5.705  0.3821 -2.1033 -0.6001
   81SLPC  H18T 7577   4.623   1.034   5.556  1.4034 -0.5705 -1.0349
   81SLPC   C33 7578   4.928   1.428   4.650  0.2736  0.4066  0.0935
   81SLPC   H3X 7579   4.931   1.538   4.634  1.3773  0.5068  0.8727
   81SLPC   H3Y 7580   5.008   1.390   4.717  0.5054  1.3923  0.3920
   81SLPC   C34 7581   4.804   1.386   4.729 -0.5663 -0.2899  0.2154
   81SLPC   H4X 7582   4.798   1.276   4.720 -1.5049 -0.2964  0.7903
   81SLPC   H4Y 7583   4.718   1.441   4.684  0.4244  0.8055 -0.3766
   81SLPC   C35 7584   4.804   1.408   4.878  0.2418 -0.6726 -0.1566
   81SLPC   H5X 7585   4.815   1.514   4.908 -0.3929 -1.2299  2.2962
   81SLPC   H5Y 7586   4.895   1.364   4.924 -0.3237 -0.6106  1.0813
   81SLPC   C36 7587   4.683   1.354   4.955 -0.7313 -0.6153  0.1372
   81SLPC   H6X 7588   4.680   1.243   4.961 -1.8216 -0.8614 -3.2648
   81SLPC   H6Y 7589   4.593   1.366   4.892 -1.5628 -2.5092  0.8938
   81SLPC   C37 7590   4.655   1.402   5.094 -0.8471  0.3775  0.2308
   81SLPC   H7X 7591   4.657   1.513   5.093  1.3393  0.4457  2.4012
   81SLPC   H7Y 7592   4.736   1.374   5.165 -0.5746 -1.9947 -0.9064
   81SLPC   C38 7593   4.524   1.344   5.152  0.1553  0.4574 -0.1747
   81SLPC   H8X 7594   4.534   1.234   5.153 -0.2725  0.3728 -2.1314
   81SLPC   H8Y 7595   4.438   1.367   5.085 -0.5339 -0.9969  0.1743
   81SLPC   C39 7596   4.482   1.400   5.290  0.2360 -0.1911  0.4827
   81SLPC   H9X 7597   4.374   1.372   5.298  0.5628 -1.2683  1.3130
   81SLPC   H9Y 7598   4.494   1.510   5.284  1.3420 -0.3796 -2.3102
   81SLPC  C310 7599   4.554   1.344   5.411  0.7199 -0.0034  0.0165
   81SLPC  H10X 7600   4.661   1.370   5.419  0.3367  1.5475  0.4900
   81SLPC  H10Y 7601   4.548   1.234   5.401  1.6477 -0.1501  0.8600
   81SLPC  C311 7602   4.493   1.385   5.545  1.2362  0.1772 -0.7460
   81SLPC  H11X 7603   4.435   1.304   5.593  3.1024 -0.4526  0.5341
   81SLPC  H11Y 7604   4.436   1.477   5.518  0.4570 -0.2774 -0.6887
   81SLPC  C312 7605   4.598   1.417   5.647 -0.3072  0.2054 -0.0368
   81SLPC  H12X 7606   4.678   1.479   5.602  0.6980 -1.2106 -0.2787
   81SLPC  H12Y 7607   4.633   1.314   5.673 -1.3638 -0.0140  0.5896
   81SLPC  C313 7608   4.558   1.484   5.775  0.3993  0.1189 -0.3737
   81SLPC  H13X 7609   4.642   1.468   5.847  2.1894 -0.8432 -2.5576
   81SLPC  H13Y 7610   4.479   1.421   5.823  2.9864 -2.0439  1.3333
   81SLPC  C314 7611   4.523   1.633   5.760 -0.7039  0.9452  0.4075
   81SLPC  H14X 7612   4.456   1.661   5.675  0.4308  0.4615 -0.6800
   81SLPC  H14Y 7613   4.624   1.678   5.750  0.8140 -1.8476  1.9275
   81SLPC  C315 7614   4.454   1.691   5.893  0.3604  0.3781  0.0510
   81SLPC  H15X 7615   4.510   1.662   5.984 -0.0394 -0.2824  0.0878
   81SLPC  H15Y 7616   4.356   1.640   5.902  1.3009 -1.2979  1.2826
   81SLPC  C316 7617   4.439   1.837   5.886  0.4733 -0.6778  0.4484
   81SLPC  H16X 7618   4.371   1.873   5.805  2.4916 -1.3100 -1.6398
   81SLPC  H16Y 7619   4.534   1.892   5.872  0.9159 -1.9709 -2.1848
   81SLPC  C317 7620   4.382   1.883   6.021 -0.9749  0.9252  0.2075
   81SLPC  H17X 7621   4.432   1.819   6.098 -0.8038 -0.1272 -0.7545
   81SLPC  H17Y 7622   4.274   1.860   6.008 -0.7143  0.1274 -0.7183
   81SLPC  C318 7623   4.404   2.025   6.072  0.1765 -0.4183  0.6147
   81SLPC  H18X 7624   4.348   2.094   6.006  0.0208 -0.9474  0.1842
   81SLPC  H18Y 7625   4.509   2.053   6.095  0.3752 -0.1872 -0.4811
   81SLPC  H18Z 7626   4.345   2.043   6.164  0.8453  2.6534  0.5321
   82SLPC     N 7627   1.101   3.130   3.745 -0.2830  0.0525  0.2367
   82SLPC   C13 7628   1.004   3.026   3.698  0.2984 -0.2720 -0.1888
   82SLPC  H13A 7629   0.911   3.059   3.743  0.0640 -1.6760  0.3957
   82SLPC  H13B 7630   1.000   3.014   3.591  0.8254 -2.8732  0.0219
   82SLPC  H13C 7631   1.021   2.928   3.739  0.5481 -2.0328 -4.1377
   82SLPC   C14 7632   1.077   3.267   3.682 -0.1691  0.4774  0.2324
   82SLPC  H14A 7633   0.989   3.309   3.727  2.5797  2.4735  4.3631
   82SLPC  H14B 7634   1.154   3.341   3.695 -0.8439  1.5973 -1.7385
   82SLPC  H14C 7635   1.060   3.240   3.578  0.0130 -4.0585  1.1707
   82SLPC   C15 7636   1.238   3.083   3.735  0.4431 -0.5978  0.8064
   82SLPC  H15A 7637   1.267   3.009   3.808 -0.4410 -1.6995  0.0815
   82SLPC  H15B 7638   1.250   3.039   3.637 -0.3033  1.5720 -0.3172
   82SLPC  H15C 7639   1.300   3.171   3.744 -2.5652  1.7260  0.4197
   82SLPC   C12 7640   1.090   3.155   3.901 -0.4044  0.2305  1.1502
   82SLPC  H12A 7641   1.154   3.234   3.940  1.3970 -0.8358  0.4987
   82SLPC  H12B 7642   1.124   3.064   3.949  1.0032  0.7129  1.1209
   82SLPC   C11 7643   0.952   3.185   3.965  0.3289 -0.7579 -0.2822
   82SLPC  H11A 7644   0.913   3.284   3.935  1.2578 -0.1964  0.3026
   82SLPC  H11B 7645   0.975   3.208   4.072 -0.7386 -0.7564 -0.0399
   82SLPC     P 7646   0.712   3.108   3.934  0.8123  0.3789  0.2804
   82SLPC   O13 7647   0.689   3.231   3.862  0.2237  0.4768 -0.0117
   82SLPC   O14 7648   0.638   2.994   3.880 -0.2747  0.1421 -0.3428
   82SLPC   O12 7649   0.864   3.079   3.946 -0.0374  0.2855  0.7548
   82SLPC   O11 7650   0.666   3.123   4.084  0.1375  0.5227 -0.3782
   82SLPC    C1 7651   0.716   3.035   4.184  0.6296 -0.2083 -0.0689
   82SLPC    HA 7652   0.684   2.932   4.156  1.2875 -0.1517 -1.0783
   82SLPC    HB 7653   0.826   3.039   4.196  0.5367  0.5874  0.5622
   82SLPC    C2 7654   0.642   3.066   4.326  0.7258  0.1089  0.1375
   82SLPC    HS 7655   0.683   2.996   4.402 -2.7653 -0.6695  1.5035
   82SLPC   O21 7656   0.494   3.044   4.313 -0.6194 -0.0712  0.6233
   82SLPC   C21 7657   0.447   2.989   4.429  0.5005 -0.2446  0.6450
   82SLPC   O22 7658   0.513   2.958   4.522 -0.5899 -0.1094 -0.5614
   82SLPC   C22 7659   0.294   2.961   4.423  0.0742 -0.5047  0.1298
   82SLPC   H2R 7660   0.253   3.014   4.334  1.8623 -0.2060 -0.5418
   82SLPC   H2S 7661   0.276   2.851   4.416 -2.5964 -0.1134 -0.3982
   82SLPC    C3 7662   0.664   3.215   4.372 -0.2391 -0.3014 -0.1526
   82SLPC    HX 7663   0.617   3.280   4.295  1.4604  1.1638 -0.0061
   82SLPC    HY 7664   0.774   3.228   4.378 -0.1821 -1.1473  1.0684
   82SLPC   O31 7665   0.618   3.242   4.502 -0.5398 -0.0613  0.6241
   82SLPC   C31 7666   0.517   3.323   4.522 -0.2468 -0.8470  0.2135
   82SLPC   O32 7667   0.430   3.351   4.436  0.3976  0.1513 -0.8844
   82SLPC   C32 7668   0.515   3.362   4.663  0.1115  0.2894 -0.8291
   82SLPC   H2X 7669   0.518   3.472   4.679  1.1798  0.1691 -0.0768
   82SLPC   H2Y 7670   0.603   3.316   4.713 -0.4461  0.1436  0.0403
   82SLPC   C23 7671   0.225   3.019   4.547 -0.2192  0.1828 -0.5236
   82SLPC   H3R 7672   0.116   3.019   4.528 -0.1973  0.7261 -0.6826
   82SLPC   H3S 7673   0.247   3.128   4.558 -2.6556  0.9143 -2.1779
   82SLPC   C24 7674   0.256   2.948   4.683  0.0033 -0.1380  0.1840
   82SLPC   H4R 7675   0.352   2.977   4.730 -0.4847 -0.2231  1.2489
   82SLPC   H4S 7676   0.269   2.840   4.658 -2.3763 -0.6985  1.1520
   82SLPC   C25 7677   0.163   2.977   4.794 -0.4296  1.2181 -0.5340
   82SLPC   H5R 7678   0.058   2.959   4.762 -0.5761  3.2990 -1.3185
   82SLPC   H5S 7679   0.169   3.083   4.826 -2.6184  1.7533 -1.7100
   82SLPC   C26 7680   0.196   2.891   4.923  0.5506 -0.2536  0.4026
   82SLPC   H6R 7681   0.305   2.871   4.927  1.0587  1.9898 -0.5007
   82SLPC   H6S 7682   0.149   2.791   4.928 -0.7068  0.2395 -0.9506
   82SLPC   C27 7683   0.142   2.969   5.046  0.5778  0.0867  0.4347
   82SLPC   H7R 7684   0.103   2.897   5.121 -1.0060  1.4585  0.9772
   82SLPC   H7S 7685   0.053   3.028   5.013  0.4618 -0.6860 -0.7268
   82SLPC   C28 7686   0.256   3.045   5.120 -0.3363  0.2251  0.0594
   82SLPC   H8R 7687   0.322   3.086   5.041  3.2142 -2.0389  1.5879
   82SLPC   H8S 7688   0.314   2.967   5.175  0.7850 -0.7349 -2.3431
   82SLPC   C29 7689   0.173   3.132   5.210  0.1626 -0.5569  0.6191
   82SLPC   H9R 7690   0.090   3.185   5.162  0.3228  0.0528  1.0079
   82SLPC  C210 7691   0.185   3.137   5.342 -0.0878 -0.5622 -0.3745
   82SLPC  H10R 7692   0.115   3.196   5.402 -1.2976  0.1757 -2.4082
   82SLPC  C211 7693   0.281   3.067   5.423 -0.4057 -0.3706  0.0228
   82SLPC  H11R 7694   0.282   2.959   5.397  0.6788 -0.5983  0.9263
   82SLPC  H11S 7695   0.244   3.077   5.528  1.0382  0.5336  0.4731
   82SLPC  C212 7696   0.422   3.127   5.432 -1.2200  0.3135  0.5424
   82SLPC  H12R 7697   0.506   3.078   5.381 -1.3327  1.7056 -1.0342
   82SLPC  C213 7698   0.464   3.231   5.511  0.4262  0.2479 -0.3530
   82SLPC  H13R 7699   0.566   3.270   5.505 -0.7589  3.3980 -2.6590
   82SLPC  C214 7700   0.390   3.309   5.617 -0.5685 -0.2899 -0.0300
   82SLPC  H14R 7701   0.285   3.275   5.628 -1.8529  3.1025 -0.6027
   82SLPC  H14S 7702   0.380   3.411   5.574  4.0339 -0.2928 -1.6319
   82SLPC  C215 7703   0.453   3.305   5.753 -0.4493 -1.1167 -0.4088
   82SLPC  H15R 7704   0.562   3.326   5.742 -0.6650  0.9394  0.8293
   82SLPC  H15S 7705   0.445   3.201   5.791  0.8073 -1.3123 -0.6315
   82SLPC  C216 7706   0.393   3.407   5.853 -0.6189  0.6533 -0.5988
   82SLPC  H16R 7707   0.426   3.508   5.821 -1.1715  0.3046 -2.3888
   82SLPC  H16S 7708   0.428   3.386   5.956  0.0570  2.8706 -0.3343
   82SLPC  C217 7709   0.244   3.395   5.855 -0.4283 -0.2868  0.0357
   82SLPC  H17R 7710   0.212   3.291   5.878 -0.1205 -0.2217  0.7725
   82SLPC  H17S 7711   0.198   3.426   5.759  0.9445  1.4320 -0.1054
   82SLPC  C218 7712   0.189   3.486   5.964 -0.5988  0.4185  0.2768
   82SLPC  H18R 7713   0.203   3.443   6.065  0.7230  2.0621  0.8262
   82SLPC  H18S 7714   0.080   3.505   5.955 -0.0379  3.2594 -1.9987
   82SLPC  H18T 7715   0.230   3.589   5.956  2.3979 -0.7951 -1.8296
   82SLPC   C33 7716   0.396   3.299   4.721 -0.1863 -0.0006 -1.1146
   82SLPC   H3X 7717   0.396   3.188   4.708  1.0034 -0.2222  0.4446
   82SLPC   H3Y 7718   0.295   3.331   4.687 -1.8862 -1.7523  1.8420
   82SLPC   C34 7719   0.394   3.336   4.875 -0.2270  0.2913  0.6883
   82SLPC   H4X 7720   0.316   3.275   4.927 -0.8724 -1.2045 -1.8529
   82SLPC   H4Y 7721   0.366   3.442   4.887  0.3990  0.2316  3.2229
   82SLPC   C35 7722   0.526   3.317   4.958  0.3999 -0.3260 -0.8589
   82SLPC   H5X 7723   0.607   3.387   4.927 -0.2396 -0.1723 -2.2766
   82SLPC   H5Y 7724   0.553   3.212   4.933 -0.5965 -0.5437 -1.0706
   82SLPC   C36 7725   0.504   3.326   5.105  0.0421 -0.1845 -0.3105
   82SLPC   H6X 7726   0.596   3.288   5.154 -0.4513 -1.2091 -0.1433
   82SLPC   H6Y 7727   0.420   3.261   5.137  0.5714 -0.5635  0.3242
   82SLPC   C37 7728   0.494   3.474   5.150 -1.0971  0.0039  0.5901
   82SLPC   H7X 7729   0.389   3.509   5.146 -1.0101  0.2883  0.7254
   82SLPC   H7Y 7730   0.552   3.540   5.081  1.8429 -0.0571  2.8111
   82SLPC   C38 7731   0.576   3.496   5.276  0.2690  0.7309 -0.6291
   82SLPC   H8X 7732   0.682   3.469   5.257 -0.4671 -1.4134 -2.0795
   82SLPC   H8Y 7733   0.525   3.433   5.352  1.7447 -0.3882 -0.5186
   82SLPC   C39 7734   0.563   3.643   5.320  0.2116 -0.1864  0.4131
   82SLPC   H9X 7735   0.454   3.665   5.315  0.2677 -0.1681 -1.1316
   82SLPC   H9Y 7736   0.600   3.707   5.237  1.1872 -0.8819  0.2946
   82SLPC  C310 7737   0.642   3.686   5.439 -0.7783  0.1122 -0.4974
   82SLPC  H10X 7738   0.748   3.661   5.416 -0.2078  1.5927  0.3918
   82SLPC  H10Y 7739   0.623   3.627   5.531 -0.2591 -0.2180 -0.5968
   82SLPC  C311 7740   0.632   3.832   5.469 -0.5978  0.2629 -0.4833
   82SLPC  H11X 7741   0.529   3.842   5.509 -0.3601 -1.1217  0.5163
   82SLPC  H11Y 7742   0.633   3.887   5.372  1.4941  3.3687  1.1142
   82SLPC  C312 7743   0.727   3.877   5.572 -0.2484  0.0361  0.3022
   82SLPC  H12X 7744   0.829   3.884   5.528 -0.0585  1.4663  0.9228
   82SLPC  H12Y 7745   0.727   3.807   5.658  1.3140 -0.5136 -0.0979
   82SLPC  C313 7746   0.691   4.009   5.641 -0.0961  0.0493  0.2759
   82SLPC  H13X 7747   0.584   3.994   5.670 -0.1276  1.1713  0.7861
   82SLPC  H13Y 7748   0.706   4.091   5.568  1.2513  1.7759  2.3594
   82SLPC  C314 7749   0.775   4.044   5.772 -0.3569 -0.2226  0.1024
   82SLPC  H14X 7750   0.883   4.057   5.752 -0.3748  1.3792  0.8720
   82SLPC  H14Y 7751   0.763   3.970   5.854 -1.4417 -0.8049 -0.5463
   82SLPC  C315 7752   0.724   4.176   5.835 -0.1144 -0.0385  0.0502
   82SLPC  H15X 7753   0.618   4.157   5.860  0.0876  2.1565  3.1645
   82SLPC  H15Y 7754   0.732   4.257   5.759  1.3013 -0.2910 -0.0909
   82SLPC  C316 7755   0.802   4.204   5.964 -0.1413  0.0088 -0.0840
   82SLPC  H16X 7756   0.779   4.308   5.994 -0.1128 -0.4201  1.5049
   82SLPC  H16Y 7757   0.909   4.219   5.938 -0.6648  1.8557 -1.3328
   82SLPC  C317 7758   0.759   4.123   6.083  0.1408 -0.4829 -0.6881
   82SLPC  H17X 7759   0.841   4.149   6.154 -0.1205 -1.5508  0.0299
   82SLPC  H17Y 7760   0.760   4.015   6.055  1.0092 -0.9431  0.9517
   82SLPC  C318 7761   0.633   4.168   6.146 -0.3852  0.4493 -0.3553
   82SLPC  H18X 7762   0.649   4.267   6.193 -0.4759  0.1475  0.3432
   82SLPC  H18Y 7763   0.608   4.118   6.242 -1.0936  1.3556 -0.0550
   82SLPC  H18Z 7764   0.545   4.160   6.079 -0.6657  0.5525 -0.0036
   83SLPC     N 7765   4.135   1.459   3.636  0.0520 -0.7690  1.0075
   83SLPC   C13 7766   4.129   1.366   3.513  0.9912 -0.0734 -0.6751
   83SLPC  H13A 7767   4.226   1.329   3.484  1.4181  0.9394 -0.5645
   83SLPC  H13B 7768   4.062   1.283   3.529  0.4481  0.6942  1.3849
   83SLPC  H13C 7769   4.093   1.426   3.430 -0.7031  0.0603  0.1105
   83SLPC   C14 7770   4.198   1.382   3.750  0.1149  0.2836  0.5863
   83SLPC  H14A 7771   4.183   1.431   3.845 -0.5405  0.3801  0.4369
   83SLPC  H14B 7772   4.158   1.282   3.754  1.7238 -0.3610  1.7783
   83SLPC  H14C 7773   4.302   1.368   3.725 -0.2163  0.5513 -1.0299
   83SLPC   C15 7774   3.990   1.473   3.673 -0.1457 -0.2153 -0.7759
   83SLPC  H15A 7775   3.949   1.544   3.602  1.5025 -0.0867 -1.6485
   83SLPC  H15B 7776   3.939   1.379   3.657 -0.1071 -0.6752  1.5425
   83SLPC  H15C 7777   3.962   1.498   3.774  1.6517  0.5142 -0.4263
   83SLPC   C12 7778   4.195   1.591   3.618 -1.2027  0.0519 -0.2019
   83SLPC  H12A 7779   4.301   1.577   3.607 -0.9607  1.6323 -0.1074
   83SLPC  H12B 7780   4.183   1.652   3.706 -0.0103 -1.3692  0.9998
   83SLPC   C11 7781   4.147   1.681   3.500 -0.7090  0.1716  0.3234
   83SLPC  H11A 7782   4.174   1.628   3.406  2.5438 -0.4543  1.4729
   83SLPC  H11B 7783   4.203   1.777   3.499 -2.0738  0.9934  0.5438
   83SLPC     P 7784   3.951   1.872   3.532  0.0237 -0.2766  0.0793
   83SLPC   O13 7785   3.989   1.964   3.429  0.4733  0.2903 -0.4173
   83SLPC   O14 7786   3.805   1.853   3.545 -0.0827  0.0052 -0.5075
   83SLPC   O12 7787   4.007   1.718   3.506  0.0669  0.1333  0.3205
   83SLPC   O11 7788   4.014   1.910   3.671 -0.3659 -0.1443 -0.1427
   83SLPC    C1 7789   3.956   1.849   3.787  1.0035 -0.1135  0.0256
   83SLPC    HA 7790   3.858   1.895   3.812  0.9630 -0.2588  0.1397
   83SLPC    HB 7791   3.941   1.740   3.772  1.0405 -0.0138 -0.7406
   83SLPC    C2 7792   4.033   1.873   3.916 -0.1444  0.6749 -0.0152
   83SLPC    HS 7793   4.138   1.848   3.891  0.1464 -0.0948  1.8486
   83SLPC   O21 7794   3.989   1.793   4.027  0.2928 -0.0816 -0.4026
   83SLPC   C21 7795   4.035   1.670   4.022 -0.2399  0.6575 -0.0979
   83SLPC   O22 7796   4.127   1.627   3.954  0.2061 -0.4781 -0.8533
   83SLPC   C22 7797   3.968   1.581   4.124  0.4943  0.5742 -0.2979
   83SLPC   H2R 7798   3.872   1.541   4.085  0.0579 -0.0125  1.3281
   83SLPC   H2S 7799   4.037   1.494   4.115 -0.4495 -0.3941  1.4844
   83SLPC    C3 7800   4.025   2.025   3.962 -0.4330 -0.0046  0.4666
   83SLPC    HX 7801   3.920   2.042   3.996 -0.0675  1.3838  0.9421
   83SLPC    HY 7802   4.041   2.087   3.871 -0.7328  1.4392  1.3617
   83SLPC   O31 7803   4.128   2.043   4.058  0.3801 -0.0101  0.6473
   83SLPC   C31 7804   4.107   2.132   4.148 -0.7348 -0.0892  1.0986
   83SLPC   O32 7805   4.014   2.202   4.161 -0.2897  0.2845 -0.1240
   83SLPC   C32 7806   4.234   2.133   4.239  0.3798  0.0300  0.5746
   83SLPC   H2X 7807   4.231   2.223   4.304  0.1257 -0.6305  1.5100
   83SLPC   H2Y 7808   4.320   2.147   4.171 -0.9205 -3.2444 -2.0255
   83SLPC   C23 7809   3.962   1.640   4.267 -0.7858 -0.4533 -0.4752
   83SLPC   H3R 7810   3.879   1.713   4.279  0.2906  0.8941 -0.9111
   83SLPC   H3S 7811   4.056   1.695   4.287 -0.5966 -1.1559  0.6280
   83SLPC   C24 7812   3.957   1.527   4.366  0.1650  0.4007  0.0967
   83SLPC   H4R 7813   4.033   1.453   4.332 -1.0291  0.4611 -3.0282
   83SLPC   H4S 7814   3.858   1.477   4.358  0.0706  0.9007 -3.0783
   83SLPC   C25 7815   3.970   1.590   4.505  0.2111 -0.3696  0.2155
   83SLPC   H5R 7816   3.906   1.681   4.512 -0.4431 -0.7200 -1.0046
   83SLPC   H5S 7817   4.073   1.623   4.527  0.3939 -1.6048  1.3120
   83SLPC   C26 7818   3.933   1.498   4.619 -0.7806 -0.4270  0.5240
   83SLPC   H6R 7819   4.023   1.439   4.647  0.6275  1.2676 -0.2804
   83SLPC   H6S 7820   3.851   1.430   4.588  0.3247 -1.5494 -0.0343
   83SLPC   C27 7821   3.885   1.584   4.738 -0.6005 -0.5195 -0.5369
   83SLPC   H7R 7822   3.850   1.516   4.818  1.3453 -1.2207 -0.2241
   83SLPC   H7S 7823   3.800   1.646   4.702 -0.3502  1.3707  1.9032
   83SLPC   C28 7824   3.991   1.682   4.793 -0.6180  0.3684  0.5337
   83SLPC   H8R 7825   3.935   1.755   4.855 -0.1627  1.1210  0.0756
   83SLPC   H8S 7826   4.046   1.748   4.722  2.0948  1.2068  3.1735
   83SLPC   C29 7827   4.098   1.620   4.882 -0.0662  0.6639 -0.3612
   83SLPC   H9R 7828   4.173   1.574   4.817 -0.8355 -0.4543 -0.4794
   83SLPC  C210 7829   4.107   1.623   5.015  0.6252  0.5253 -0.2556
   83SLPC  H10R 7830   4.191   1.569   5.060  1.6254  1.2096 -1.2359
   83SLPC  C211 7831   4.016   1.672   5.119 -0.0141 -0.2057  0.2341
   83SLPC  H11R 7832   3.955   1.754   5.077  0.0250  0.7554  1.9733
   83SLPC  H11S 7833   4.085   1.728   5.186  2.1286  1.6647 -3.2288
   83SLPC  C212 7834   3.927   1.561   5.159 -0.1265  0.7398 -0.7121
   83SLPC  H12R 7835   3.860   1.540   5.075 -1.6953  0.8109  0.4818
   83SLPC  C213 7836   3.916   1.510   5.283 -0.5815 -0.0114 -0.2869
   83SLPC  H13R 7837   3.851   1.421   5.285 -2.2319  1.1300 -0.9975
   83SLPC  C214 7838   4.008   1.540   5.395 -0.1521 -0.5236 -0.1091
   83SLPC  H14R 7839   3.949   1.558   5.487  1.7371 -1.3948  1.3597
   83SLPC  H14S 7840   4.057   1.639   5.382  0.7591 -1.0450 -0.7448
   83SLPC  C215 7841   4.107   1.424   5.435  0.2685 -0.6423 -0.1263
   83SLPC  H15R 7842   4.187   1.463   5.501 -0.3301  0.7351 -0.1601
   83SLPC  H15S 7843   4.146   1.384   5.339  0.0820 -0.5311 -0.2506
   83SLPC  C216 7844   4.032   1.301   5.502  0.6136  0.1966 -0.1064
   83SLPC  H16R 7845   3.952   1.275   5.429  0.3785 -0.0340  0.2328
   83SLPC  H16S 7846   3.979   1.323   5.597  0.5672 -1.7520  0.3700
   83SLPC  C217 7847   4.120   1.179   5.530 -0.7623 -0.0378 -0.0605
   83SLPC  H17R 7848   4.176   1.216   5.618  1.0947 -3.6248  0.4586
   83SLPC  H17S 7849   4.166   1.155   5.432  0.3234 -0.0639  0.4401
   83SLPC  C218 7850   4.036   1.054   5.561 -0.2844 -0.1652  0.5033
   83SLPC  H18R 7851   4.099   0.968   5.591  1.4075  1.6647  2.5299
   83SLPC  H18S 7852   3.973   1.032   5.472 -0.4138 -2.1114  1.0365
   83SLPC  H18T 7853   3.967   1.075   5.645 -0.1323 -3.0431  1.4593
   83SLPC   C33 7854   4.239   2.005   4.337 -0.6239 -0.6385  0.7158
   83SLPC   H3X 7855   4.231   1.908   4.284  1.7054 -0.3821 -0.2339
   83SLPC   H3Y 7856   4.158   2.012   4.412  1.2186  0.0167  2.7350
   83SLPC   C34 7857   4.379   2.006   4.407  0.9129  0.4335 -0.3615
   83SLPC   H4X 7858   4.380   2.103   4.460 -2.1606  0.4520 -0.1766
   83SLPC   H4Y 7859   4.453   1.996   4.324 -1.1083  0.2966 -2.2243
   83SLPC   C35 7860   4.399   1.885   4.505 -0.1380 -0.0917  0.4851
   83SLPC   H5X 7861   4.321   1.879   4.583 -0.4578 -0.9505  0.1059
   83SLPC   H5Y 7862   4.503   1.898   4.543  0.2892  0.2934 -0.7776
   83SLPC   C36 7863   4.395   1.744   4.442  1.0511  0.1329  0.2396
   83SLPC   H6X 7864   4.460   1.726   4.354 -0.6637  1.2886 -1.3555
   83SLPC   H6Y 7865   4.293   1.725   4.403  1.2760  0.3876 -0.4970
   83SLPC   C37 7866   4.431   1.632   4.535  0.3761  0.6329 -0.1579
   83SLPC   H7X 7867   4.365   1.638   4.624  2.1796 -1.2755  1.4267
   83SLPC   H7Y 7868   4.539   1.623   4.562  0.0789  1.7983  1.5337
   83SLPC   C38 7869   4.411   1.492   4.466 -0.0231 -0.0072  0.1372
   83SLPC   H8X 7870   4.476   1.488   4.376  0.6787 -0.3988  0.6438
   83SLPC   H8Y 7871   4.312   1.486   4.416 -0.4128  0.4106  0.8532
   83SLPC   C39 7872   4.425   1.370   4.559  0.3425 -0.1404  0.1077
   83SLPC   H9X 7873   4.520   1.388   4.613 -0.5394  2.4313  0.9324
   83SLPC   H9Y 7874   4.424   1.277   4.498 -0.6894 -1.1102  1.5609
   83SLPC  C310 7875   4.327   1.369   4.674  0.4914  0.5426  0.0470
   83SLPC  H10X 7876   4.224   1.395   4.642  0.4882  0.0115 -0.3831
   83SLPC  H10Y 7877   4.351   1.460   4.735  1.4270  0.6874 -0.5246
   83SLPC  C311 7878   4.339   1.245   4.760  0.6013 -0.4073 -0.5020
   83SLPC  H11X 7879   4.446   1.229   4.786  0.2731 -1.6783  0.1329
   83SLPC  H11Y 7880   4.308   1.157   4.701 -1.3277 -0.2595  0.2107
   83SLPC  C312 7881   4.253   1.257   4.892  0.0272 -0.4147  0.5694
   83SLPC  H12X 7882   4.151   1.270   4.852  0.4951 -1.0436 -0.8775
   83SLPC  H12Y 7883   4.273   1.341   4.962  1.1048  0.6344 -0.9368
   83SLPC  C313 7884   4.259   1.135   4.987 -0.0548  0.3686 -0.1020
   83SLPC  H13X 7885   4.366   1.109   5.001 -0.3495 -0.2053  1.2848
   83SLPC  H13Y 7886   4.220   1.041   4.942 -1.1081  0.6555  0.1799
   83SLPC  C314 7887   4.189   1.157   5.127  0.0248  0.7446 -0.6816
   83SLPC  H14X 7888   4.243   1.237   5.182  0.6214 -0.7634  1.0358
   83SLPC  H14Y 7889   4.209   1.064   5.186 -2.5294  0.8179  0.3987
   83SLPC  C315 7890   4.038   1.167   5.132 -0.0139 -0.2155  0.4075
   83SLPC  H15X 7891   3.997   1.267   5.104  1.0878 -0.3670 -1.9191
   83SLPC  H15Y 7892   4.018   1.147   5.240 -0.4587 -0.5548  0.2621
   83SLPC  C316 7893   3.963   1.062   5.051  0.0417  0.1825  0.4186
   83SLPC  H16X 7894   3.972   0.972   5.115  0.8119  0.5608  0.8617
   83SLPC  H16Y 7895   3.997   1.044   4.947 -0.4024 -2.1836  0.6436
   83SLPC  C317 7896   3.817   1.105   5.046 -0.0047 -0.2312 -0.8564
   83SLPC  H17X 7897   3.810   1.213   5.025  0.7901  0.2645  1.1684
   83SLPC  H17Y 7898   3.785   1.105   5.153  1.2438  1.9948 -0.4193
   83SLPC  C318 7899   3.727   1.024   4.953 -0.8879  0.5822  0.0858
   83SLPC  H18X 7900   3.625   1.067   4.943 -1.4629 -0.7605 -0.1090
   83SLPC  H18Y 7901   3.713   0.918   4.985 -0.4576  0.7738  0.9304
   83SLPC  H18Z 7902   3.777   1.027   4.854 -0.9175  0.2288  0.0598
   84SLPC     N 7903   6.908   5.372   3.814  0.1038 -0.2313 -0.1338
   84SLPC   C13 7904   7.025   5.466   3.836  0.0032 -0.3648 -0.0536
   84SLPC  H13A 7905   7.094   5.444   3.756 -2.8543  0.2966 -2.8988
   84SLPC  H13B 7906   6.988   5.566   3.821 -1.0415 -0.5172  1.2831
   84SLPC  H13C 7907   7.078   5.460   3.930 -2.3279  0.7323  1.4353
   84SLPC   C14 7908   6.956   5.236   3.797  0.0557  1.1169  0.0071
   84SLPC  H14A 7909   6.881   5.160   3.782 -1.2032  2.4224 -0.6126
   84SLPC  H14B 7910   7.022   5.227   3.712  0.3957  1.7064  0.2007
   84SLPC  H14C 7911   7.014   5.203   3.881 -1.5093 -2.0264 -0.0069
   84SLPC   C15 7912   6.832   5.402   3.689 -0.0394 -0.0223  0.9015
   84SLPC  H15A 7913   6.766   5.316   3.687 -1.0813  0.7446  1.1817
   84SLPC  H15B 7914   6.782   5.498   3.687 -1.2788 -0.6445  1.0473
   84SLPC  H15C 7915   6.893   5.400   3.601 -1.8879  0.0617 -0.4467
   84SLPC   C12 7916   6.823   5.379   3.940  0.4620  0.6279 -0.4663
   84SLPC  H12A 7917   6.875   5.331   4.021  1.6123  2.9041  0.2207
   84SLPC  H12B 7918   6.744   5.306   3.925  0.3245  0.1815  1.9990
   84SLPC   C11 7919   6.760   5.505   3.986 -0.4735 -0.9963  0.1819
   84SLPC  H11A 7920   6.818   5.599   3.995 -1.6529 -0.4010  1.9281
   84SLPC  H11B 7921   6.732   5.483   4.091  0.9743 -2.8869  0.2424
   84SLPC     P 7922   6.508   5.466   3.953  0.3610 -0.0383  0.1685
   84SLPC   O13 7923   6.401   5.523   3.861 -0.6540  1.0043  0.2386
   84SLPC   O14 7924   6.528   5.320   3.962 -0.4184 -0.3646  0.4142
   84SLPC   O12 7925   6.642   5.533   3.913  0.1051 -0.5468  0.2593
   84SLPC   O11 7926   6.474   5.515   4.102 -0.7827  0.1468  0.0920
   84SLPC    C1 7927   6.440   5.647   4.124  0.6358  0.1626  0.2425
   84SLPC    HA 7928   6.515   5.717   4.079 -1.0169  1.0697 -1.2484
   84SLPC    HB 7929   6.334   5.665   4.097  0.4729  0.9598  1.3493
   84SLPC    C2 7930   6.455   5.682   4.271 -0.1802  0.6067  0.8691
   84SLPC    HS 7931   6.432   5.790   4.280  3.4670  1.6756 -0.7901
   84SLPC   O21 7932   6.590   5.670   4.325  0.0925 -0.2859 -0.7146
   84SLPC   C21 7933   6.668   5.774   4.335  1.1180  0.4971  0.6196
   84SLPC   O22 7934   6.644   5.887   4.302  0.1410 -0.1309 -0.1421
   84SLPC   C22 7935   6.805   5.726   4.357 -0.3909  0.5119  0.9909
   84SLPC   H2R 7936   6.803   5.615   4.368  0.7243  0.5030  1.2005
   84SLPC   H2S 7937   6.854   5.755   4.261 -1.7426  2.4338  0.8413
   84SLPC    C3 7938   6.348   5.610   4.366 -0.0197 -0.4081 -0.2154
   84SLPC    HX 7939   6.356   5.499   4.365 -4.2731 -0.9391  1.5419
   84SLPC    HY 7940   6.253   5.620   4.310  0.2046  0.8183 -0.4153
   84SLPC   O31 7941   6.338   5.680   4.496  0.0001 -0.5505 -0.8949
   84SLPC   C31 7942   6.340   5.588   4.600  0.4364 -0.2850  0.5504
   84SLPC   O32 7943   6.325   5.468   4.578 -0.0189 -0.0176  0.3847
   84SLPC   C32 7944   6.382   5.650   4.736 -0.9253  0.1515 -0.1822
   84SLPC   H2X 7945   6.295   5.707   4.774 -1.5148 -1.2152  0.5959
   84SLPC   H2Y 7946   6.462   5.726   4.724 -2.1933  1.2677 -2.0054
   84SLPC   C23 7947   6.854   5.786   4.476  0.0801 -0.6781  0.3881
   84SLPC   H3R 7948   6.865   5.895   4.454 -3.5342  0.1179  1.7494
   84SLPC   H3S 7949   6.956   5.747   4.496  0.8185  0.4901 -0.8855
   84SLPC   C24 7950   6.757   5.778   4.591 -0.0450 -0.1591  0.2008
   84SLPC   H4R 7951   6.746   5.672   4.620 -0.0559 -0.1554  0.2101
   84SLPC   H4S 7952   6.650   5.810   4.591  0.0528  0.2351  1.5632
   84SLPC   C25 7953   6.814   5.841   4.720  0.4050 -0.6890 -0.2299
   84SLPC   H5R 7954   6.825   5.952   4.711 -1.4737 -0.0762  3.1373
   84SLPC   H5S 7955   6.909   5.796   4.756  0.5281  1.9247  3.2929
   84SLPC   C26 7956   6.730   5.823   4.844  0.2805  0.0121  0.6905
   84SLPC   H6R 7957   6.715   5.713   4.837  0.8641 -0.0199 -0.1930
   84SLPC   H6S 7958   6.639   5.887   4.838 -1.1297 -1.9717 -0.7095
   84SLPC   C27 7959   6.805   5.838   4.972 -0.2871  0.1189 -0.8985
   84SLPC   H7R 7960   6.829   5.946   4.985  1.5536 -0.4818  1.2199
   84SLPC   H7S 7961   6.900   5.781   4.977  0.9293  2.1401  0.9181
   84SLPC   C28 7962   6.724   5.797   5.101 -0.3005 -0.5377  1.1739
   84SLPC   H8R 7963   6.698   5.689   5.096 -0.4442 -0.4840  0.6674
   84SLPC   H8S 7964   6.633   5.861   5.099  0.9514  1.4485 -2.3363
   84SLPC   C29 7965   6.813   5.823   5.226 -0.5764  0.1563  0.2158
   84SLPC   H9R 7966   6.897   5.757   5.252  0.1936  1.1782  0.3553
   84SLPC  C210 7967   6.784   5.926   5.313  0.3105  0.6940 -0.0976
   84SLPC  H10R 7968   6.846   5.933   5.403  0.7627 -0.4984 -0.3058
   84SLPC  C211 7969   6.665   6.021   5.300 -0.5055  0.6064  0.1206
   84SLPC  H11R 7970   6.568   5.971   5.278 -1.6644  2.8068 -0.0771
   84SLPC  H11S 7971   6.687   6.082   5.210  0.2495  0.9517  0.5202
   84SLPC  C212 7972   6.652   6.123   5.405  0.4558  0.3312  0.1416
   84SLPC  H12R 7973   6.682   6.222   5.368  2.8504 -0.4671 -0.1807
   84SLPC  C213 7974   6.624   6.108   5.537 -0.3016 -0.1877  0.3892
   84SLPC  H13R 7975   6.617   6.194   5.604 -0.5708 -1.0449  1.4880
   84SLPC  C214 7976   6.612   5.972   5.617  0.0460 -0.4930  0.4922
   84SLPC  H14R 7977   6.615   5.889   5.544  0.0192  0.0995 -0.1934
   84SLPC  H14S 7978   6.511   5.964   5.662 -0.2111 -1.0583 -0.1680
   84SLPC  C215 7979   6.717   5.956   5.724 -0.3008 -0.0168  0.0346
   84SLPC  H15R 7980   6.811   5.973   5.666  0.0270 -1.7951 -0.0044
   84SLPC  H15S 7981   6.724   5.854   5.765 -2.2875 -1.3776 -2.7085
   84SLPC  C216 7982   6.710   6.055   5.840 -0.1053  0.5279 -0.1628
   84SLPC  H16R 7983   6.715   6.160   5.804  1.7331  0.4832 -0.1302
   84SLPC  H16S 7984   6.799   6.029   5.901 -0.8773 -2.3654 -0.1159
   84SLPC  C217 7985   6.586   6.043   5.924  0.1063 -0.7945 -0.1155
   84SLPC  H17R 7986   6.583   5.940   5.965  0.9495 -1.3395 -1.3565
   84SLPC  H17S 7987   6.493   6.056   5.865  0.0352 -1.8463 -0.2584
   84SLPC  C218 7988   6.581   6.138   6.044 -0.8017 -0.2063 -0.3370
   84SLPC  H18R 7989   6.666   6.125   6.114  1.0079 -1.6847 -2.6724
   84SLPC  H18S 7990   6.489   6.121   6.105 -0.4565 -0.5883  0.0903
   84SLPC  H18T 7991   6.563   6.244   6.017 -3.5338  0.0609  2.0092
   84SLPC   C33 7992   6.413   5.543   4.842  0.2508  0.0261 -0.1725
   84SLPC   H3X 7993   6.512   5.492   4.832  0.3561 -0.0867  1.2506
   84SLPC   H3Y 7994   6.349   5.452   4.844 -0.1186  0.2060 -2.1222
   84SLPC   C34 7995   6.414   5.599   4.991  0.6875 -0.1627  0.7166
   84SLPC   H4X 7996   6.327   5.661   5.020  0.7474  0.5482 -0.5912
   84SLPC   H4Y 7997   6.507   5.656   5.007  1.5017 -1.3055  0.2384
   84SLPC   C35 7998   6.426   5.481   5.090 -0.2546 -0.3387 -0.3528
   84SLPC   H5X 7999   6.508   5.414   5.057  2.1449  1.0354  2.3863
   84SLPC   H5Y 8000   6.335   5.418   5.095 -0.9217  0.5483 -1.0404
   84SLPC   C36 8001   6.457   5.534   5.235  0.6221  0.2648  1.1332
   84SLPC   H6X 8002   6.556   5.584   5.241 -0.0009  1.8725 -0.8990
   84SLPC   H6Y 8003   6.474   5.443   5.297  1.7441  0.4834  1.1807
   84SLPC   C37 8004   6.347   5.612   5.291 -0.3159  0.0599  0.6616
   84SLPC   H7X 8005   6.259   5.546   5.310  0.4333 -1.6248 -1.4236
   84SLPC   H7Y 8006   6.335   5.694   5.217 -1.0395 -2.2211 -1.8945
   84SLPC   C38 8007   6.394   5.687   5.415  0.1812 -0.7363  0.1583
   84SLPC   H8X 8008   6.335   5.781   5.419  1.7745  0.3651 -1.1552
   84SLPC   H8Y 8009   6.503   5.704   5.422  0.1267 -0.9836  2.8088
   84SLPC   C39 8010   6.368   5.601   5.545  0.2916  0.8270  0.3960
   84SLPC   H9X 8011   6.426   5.506   5.537  0.2289  0.7939  0.3170
   84SLPC   H9Y 8012   6.260   5.575   5.547  0.5266 -0.2079  2.1834
   84SLPC  C310 8013   6.395   5.667   5.677 -0.5718  0.0137 -0.1936
   84SLPC  H10X 8014   6.348   5.767   5.674 -2.1764 -0.6364  1.3729
   84SLPC  H10Y 8015   6.504   5.686   5.694 -0.1537 -2.6715  0.6221
   84SLPC  C311 8016   6.339   5.578   5.791 -0.3678  0.0010 -0.3985
   84SLPC  H11X 8017   6.388   5.481   5.770 -3.4783 -1.4223 -1.7156
   84SLPC  H11Y 8018   6.229   5.565   5.782 -0.4882  1.0235 -0.5165
   84SLPC  C312 8019   6.379   5.637   5.918  0.3223 -0.5275  0.1944
   84SLPC  H12X 8020   6.329   5.581   6.000 -1.2087  1.1693  0.5126
   84SLPC  H12Y 8021   6.362   5.747   5.923 -0.7799 -0.4434 -3.0542
   84SLPC  C313 8022   6.532   5.616   5.951 -0.9256 -0.1140  0.1144
   84SLPC  H13X 8023   6.592   5.684   5.888  2.1557 -0.1088  2.8162
   84SLPC  H13Y 8024   6.546   5.509   5.927 -0.0670  0.4301 -1.9764
   84SLPC  C314 8025   6.548   5.654   6.098 -1.3503  0.2632 -0.6888
   84SLPC  H14X 8026   6.463   5.611   6.156 -0.6872  2.0584  1.7722
   84SLPC  H14Y 8027   6.540   5.764   6.111 -3.6408 -0.1564  3.0500
   84SLPC  C315 8028   6.685   5.607   6.162  0.1867 -0.4179 -0.5153
   84SLPC  H15X 8029   6.771   5.668   6.128  0.3169 -0.3082 -0.0015
   84SLPC  H15Y 8030   6.707   5.504   6.127  0.8738 -0.2140 -0.6953
   84SLPC  C316 8031   6.673   5.620   6.318  0.3374  0.6367 -0.3518
   84SLPC  H16X 8032   6.774   5.606   6.362  1.2758 -0.7568 -2.6996
   84SLPC  H16Y 8033   6.619   5.528   6.350  1.0065  1.0391  2.0675
   84SLPC  C317 8034   6.620   5.754   6.373 -0.3261  0.2580  0.1335
   84SLPC  H17X 8035   6.648   5.752   6.481 -1.5757  1.4524  0.5141
   84SLPC  H17Y 8036   6.509   5.759   6.363 -0.2054 -0.4903 -2.1045
   84SLPC  C318 8037   6.688   5.879   6.314  0.0792 -0.1665  0.2863
   84SLPC  H18X 8038   6.798   5.874   6.327  0.0932  0.5374  0.4819
   84SLPC  H18Y 8039   6.660   5.983   6.340  4.6766  1.2479  0.3608
   84SLPC  H18Z 8040   6.675   5.889   6.204 -0.4721  0.8825  0.4323
   85SLPC     N 8041   5.267   2.727   3.859 -0.2361 -0.2429 -0.2631
   85SLPC   C13 8042   5.132   2.665   3.827 -0.4687 -0.4122  0.6717
   85SLPC  H13A 8043   5.048   2.706   3.879 -0.0269  1.5971 -0.1307
   85SLPC  H13B 8044   5.118   2.667   3.720 -0.0742  1.6961  0.6251
   85SLPC  H13C 8045   5.146   2.562   3.856  1.6571 -0.1596  0.7166
   85SLPC   C14 8046   5.270   2.862   3.798 -0.2339  0.1596 -0.8638
   85SLPC  H14A 8047   5.290   2.863   3.692 -1.7326 -1.0576 -1.1924
   85SLPC  H14B 8048   5.178   2.916   3.819 -1.2028 -1.1067 -1.7302
   85SLPC  H14C 8049   5.346   2.921   3.847  0.1635 -0.4814 -0.7079
   85SLPC   C15 8050   5.377   2.637   3.798  0.4195  0.1650  0.4390
   85SLPC  H15A 8051   5.471   2.690   3.795  0.3140  0.3635 -2.1587
   85SLPC  H15B 8052   5.384   2.553   3.865  0.4958  0.1981  0.4719
   85SLPC  H15C 8053   5.344   2.606   3.700 -1.7930  1.3963  0.7127
   85SLPC   C12 8054   5.278   2.736   4.013  0.4367 -0.4657  0.0919
   85SLPC  H12A 8055   5.371   2.784   4.039 -0.2403  1.7977 -1.3453
   85SLPC  H12B 8056   5.279   2.636   4.055 -0.5177  0.4508  2.4940
   85SLPC   C11 8057   5.168   2.824   4.092 -0.0625 -0.4315  0.9707
   85SLPC  H11A 8058   5.182   2.818   4.202 -1.4219 -1.6032  1.1003
   85SLPC  H11B 8059   5.067   2.781   4.074 -0.4727  0.7687  0.3003
   85SLPC     P 8060   5.047   3.044   4.008 -0.5201  0.4739  0.0094
   85SLPC   O13 8061   5.080   3.169   3.940 -0.4114 -0.1046  0.1630
   85SLPC   O14 8062   4.944   2.964   3.940  0.1823 -0.0440 -0.6397
   85SLPC   O12 8063   5.170   2.963   4.047 -0.7895  0.1450  0.5559
   85SLPC   O11 8064   4.987   3.088   4.144 -0.4244 -0.2326 -0.1073
   85SLPC    C1 8065   5.075   3.136   4.252  0.0273  0.2951 -0.2777
   85SLPC    HA 8066   5.182   3.128   4.225 -0.0713 -1.0194 -0.3227
   85SLPC    HB 8067   5.054   3.238   4.292 -0.4406 -0.2485  0.9005
   85SLPC    C2 8068   5.064   3.045   4.385 -0.3905  0.4602  0.3267
   85SLPC    HS 8069   5.045   2.942   4.349  1.7234  0.2703 -0.4357
   85SLPC   O21 8070   4.975   3.088   4.489  0.4323  0.0881  0.0704
   85SLPC   C21 8071   4.884   2.997   4.530 -0.6473  0.0392 -0.1006
   85SLPC   O22 8072   4.874   2.884   4.482  0.3621 -0.3265 -0.6821
   85SLPC   C22 8073   4.815   3.064   4.640  0.3355 -0.0568 -0.5438
   85SLPC   H2R 8074   4.884   3.099   4.719 -1.4327  1.1814  0.5235
   85SLPC   H2S 8075   4.768   3.159   4.607  0.1810  0.1050  0.1256
   85SLPC    C3 8076   5.203   3.041   4.462 -0.1709 -0.4048  0.3370
   85SLPC    HX 8077   5.241   3.139   4.496 -0.0552  1.1631 -3.7446
   85SLPC    HY 8078   5.292   3.016   4.402  0.4016  0.3657  0.8527
   85SLPC   O31 8079   5.206   2.948   4.569  0.0141 -0.3940  0.0479
   85SLPC   C31 8080   5.176   2.987   4.694 -0.0695  0.0904 -0.1958
   85SLPC   O32 8081   5.143   3.098   4.734  0.9072 -0.5663 -0.0591
   85SLPC   C32 8082   5.186   2.864   4.786  0.2173  0.1240 -0.2385
   85SLPC   H2X 8083   5.274   2.881   4.853  0.2283 -0.8574  0.0148
   85SLPC   H2Y 8084   5.192   2.774   4.722 -1.1646 -2.0887  2.5223
   85SLPC   C23 8085   4.707   2.987   4.708  0.2409  0.3722  0.3492
   85SLPC   H3R 8086   4.755   2.891   4.740  0.4161  0.6870  1.0440
   85SLPC   H3S 8087   4.620   2.969   4.641  0.3527 -0.6136  0.4469
   85SLPC   C24 8088   4.652   3.050   4.834  0.8161 -0.2785  0.3292
   85SLPC   H4R 8089   4.609   3.145   4.795  2.0439  1.1875  2.3906
   85SLPC   H4S 8090   4.743   3.069   4.894 -0.0783  1.2835  1.2620
   85SLPC   C25 8091   4.531   2.971   4.910 -0.1959 -0.2309  0.7135
   85SLPC   H5R 8092   4.470   3.037   4.975 -0.0166  0.9536 -0.2695
   85SLPC   H5S 8093   4.469   2.945   4.821  1.4468  1.2118 -0.9539
   85SLPC   C26 8094   4.579   2.851   4.990 -0.3484  0.0455 -0.7987
   85SLPC   H6R 8095   4.627   2.785   4.915  1.0263  0.7969 -0.6038
   85SLPC   H6S 8096   4.493   2.797   5.036  1.1675 -0.8204  1.1674
   85SLPC   C27 8097   4.670   2.894   5.105 -0.0541 -0.1666  0.9521
   85SLPC   H7R 8098   4.636   2.995   5.139 -1.2543  0.2775 -1.3367
   85SLPC   H7S 8099   4.768   2.890   5.053 -1.7504 -0.7061 -2.4968
   85SLPC   C28 8100   4.673   2.791   5.223  0.1487  0.8992  0.5491
   85SLPC   H8R 8101   4.722   2.697   5.188  0.0648  1.6006 -1.5856
   85SLPC   H8S 8102   4.572   2.750   5.245  1.4316 -2.1187  1.3242
   85SLPC   C29 8103   4.748   2.841   5.341  0.4025 -0.2860  0.3494
   85SLPC   H9R 8104   4.853   2.862   5.314  0.6245  0.3488  1.5993
   85SLPC  C210 8105   4.700   2.865   5.457 -0.4591  0.5084 -0.3207
   85SLPC  H10R 8106   4.764   2.899   5.540 -1.9934 -0.9269  1.5527
   85SLPC  C211 8107   4.558   2.840   5.512  0.7336  0.3332  0.0070
   85SLPC  H11R 8108   4.486   2.803   5.435  0.0735  2.9626 -0.7680
   85SLPC  H11S 8109   4.514   2.939   5.536 -0.2789  0.0105 -0.4503
   85SLPC  C212 8110   4.572   2.765   5.642 -0.6122 -0.2148 -0.4084
   85SLPC  H12R 8111   4.601   2.661   5.622  0.8750  0.2260 -0.6507
   85SLPC  C213 8112   4.559   2.799   5.769  0.3980 -0.6524  0.6276
   85SLPC  H13R 8113   4.582   2.722   5.844 -1.7611 -1.0422  0.9751
   85SLPC  C214 8114   4.542   2.946   5.812 -0.0355  0.2254 -0.1058
   85SLPC  H14R 8115   4.486   2.995   5.729 -0.3495  1.6311  0.9157
   85SLPC  H14S 8116   4.648   2.973   5.829  0.8500 -2.0260 -1.5003
   85SLPC  C215 8117   4.484   2.972   5.951  0.6412  0.4624  0.8055
   85SLPC  H15R 8118   4.503   3.081   5.965  2.8203  0.6155 -2.1493
   85SLPC  H15S 8119   4.543   2.924   6.032 -0.0397  0.0360  1.0597
   85SLPC  C216 8120   4.332   2.928   5.949  0.5002 -0.3841 -0.0782
   85SLPC  H16R 8121   4.320   2.818   5.957 -2.1125 -0.0916  1.0279
   85SLPC  H16S 8122   4.287   2.965   5.854 -1.4136  0.6252  1.1549
   85SLPC  C217 8123   4.249   2.991   6.062 -0.0556  0.3862  0.3144
   85SLPC  H17R 8124   4.257   3.102   6.050 -1.3631  0.5678  0.9800
   85SLPC  H17S 8125   4.295   2.972   6.162 -1.7331 -1.1738  0.8266
   85SLPC  C218 8126   4.098   2.967   6.060  0.9464  0.1815 -0.3389
   85SLPC  H18R 8127   4.085   2.861   6.090  0.2176  0.1008 -0.9206
   85SLPC  H18S 8128   4.065   2.974   5.954  1.7556  1.1501 -0.5389
   85SLPC  H18T 8129   4.035   3.031   6.125  1.4205 -0.8317  1.1549
   85SLPC   C33 8130   5.061   2.847   4.879  0.3155  0.3560 -0.4354
   85SLPC   H3X 8131   4.975   2.799   4.828  0.0880 -0.2884  0.5170
   85SLPC   H3Y 8132   5.028   2.947   4.916 -0.3495  0.4504 -1.2653
   85SLPC   C34 8133   5.100   2.759   4.998  0.0286  0.2972  0.3736
   85SLPC   H4X 8134   5.114   2.651   4.981  0.3787  0.3867  0.0922
   85SLPC   H4Y 8135   5.004   2.767   5.054  0.7999  1.0424  1.6478
   85SLPC   C35 8136   5.212   2.805   5.099  0.4490  0.1438  0.0368
   85SLPC   H5X 8137   5.216   2.913   5.125 -0.1325 -0.1050  1.2308
   85SLPC   H5Y 8138   5.311   2.783   5.053  0.6859  0.9229  0.1649
   85SLPC   C36 8139   5.210   2.722   5.223  0.1909 -0.2139 -0.5740
   85SLPC   H6X 8140   5.253   2.620   5.214  1.9652  0.0943  2.7883
   85SLPC   H6Y 8141   5.104   2.709   5.253  0.4752 -1.6446 -0.1123
   85SLPC   C37 8142   5.285   2.778   5.345 -0.3959  0.0143  0.4332
   85SLPC   H7X 8143   5.261   2.887   5.344 -2.0831 -0.3257 -1.5091
   85SLPC   H7Y 8144   5.395   2.767   5.331 -0.3518 -0.3608  1.0514
   85SLPC   C38 8145   5.260   2.714   5.481 -0.3084  0.1630  1.0580
   85SLPC   H8X 8146   5.352   2.726   5.542 -0.3914 -1.6453  1.5987
   85SLPC   H8Y 8147   5.255   2.605   5.461 -0.2546  0.6110 -1.7615
   85SLPC   C39 8148   5.129   2.758   5.545  0.8187 -0.1704 -0.1582
   85SLPC   H9X 8149   5.049   2.733   5.473 -0.0091  2.4934 -0.2702
   85SLPC   H9Y 8150   5.132   2.867   5.564 -1.3619 -0.3184  1.3482
   85SLPC  C310 8151   5.094   2.688   5.673  0.2674 -0.1509  0.3864
   85SLPC  H10X 8152   5.185   2.692   5.736  0.2391  2.1812  0.3580
   85SLPC  H10Y 8153   5.071   2.583   5.647 -1.7653  0.9742 -2.8989
   85SLPC  C311 8154   4.975   2.730   5.762  0.0500 -0.2606  0.2615
   85SLPC  H11X 8155   4.878   2.719   5.709  0.2524  0.8951 -0.3818
   85SLPC  H11Y 8156   4.989   2.837   5.791 -0.0756 -0.0303 -0.5162
   85SLPC  C312 8157   4.978   2.631   5.888 -0.4904  0.0667 -0.0053
   85SLPC  H12X 8158   5.071   2.639   5.947 -1.6043  1.1985  1.6951
   85SLPC  H12Y 8159   4.977   2.529   5.843 -1.5741 -0.5958  1.4453
   85SLPC  C313 8160   4.859   2.657   5.991 -0.7309  0.0717 -0.2481
   85SLPC  H13X 8161   4.766   2.623   5.940 -0.2776 -0.0385 -1.0205
   85SLPC  H13Y 8162   4.839   2.763   6.019  0.1192  0.2572 -0.3107
   85SLPC  C314 8163   4.893   2.590   6.125  0.3136  0.2740 -0.3152
   85SLPC  H14X 8164   4.994   2.633   6.144  0.9563 -0.2960 -2.1663
   85SLPC  H14Y 8165   4.899   2.479   6.118 -2.2900 -0.0496  1.2931
   85SLPC  C315 8166   4.798   2.628   6.241  0.5596  0.2013  0.4529
   85SLPC  H15X 8167   4.699   2.581   6.225 -0.3610  1.9622  0.7324
   85SLPC  H15Y 8168   4.789   2.738   6.240  0.0476  0.1591  0.0286
   85SLPC  C316 8169   4.866   2.602   6.381 -0.1521  0.5299  0.2225
   85SLPC  H16X 8170   4.969   2.644   6.374 -0.9988  2.3953 -2.1896
   85SLPC  H16Y 8171   4.871   2.491   6.383 -2.5052  0.2628 -2.2799
   85SLPC  C317 8172   4.798   2.653   6.511 -0.5380  0.6493 -0.4183
   85SLPC  H17X 8173   4.856   2.607   6.594  2.6513  2.0788 -1.6765
   85SLPC  H17Y 8174   4.701   2.600   6.501 -0.7065  1.2679 -2.5959
   85SLPC  C318 8175   4.780   2.798   6.522  0.0115 -0.3421 -0.0681
   85SLPC  H18X 8176   4.737   2.831   6.618 -2.1964 -2.6626 -0.1386
   85SLPC  H18Y 8177   4.700   2.817   6.446  0.0550 -0.5301 -0.1626
   85SLPC  H18Z 8178   4.868   2.858   6.493 -0.6345  0.0209 -1.3916
   86SLPC     N 8179   0.724   0.356   3.500 -0.7023 -0.0751  0.7139
   86SLPC   C13 8180   0.777   0.385   3.635 -0.3783  0.5285  0.8271
   86SLPC  H13A 8181   0.873   0.337   3.644  0.6918  1.9728 -2.0128
   86SLPC  H13B 8182   0.782   0.491   3.651 -0.9141  0.9307 -1.3552
   86SLPC  H13C 8183   0.710   0.349   3.712 -0.4977  1.4077  1.1457
   86SLPC   C14 8184   0.821   0.401   3.398 -0.6268 -0.9059 -0.5371
   86SLPC  H14A 8185   0.901   0.328   3.399  0.1145 -0.1125  0.9808
   86SLPC  H14B 8186   0.761   0.412   3.309 -2.5364 -1.0038  0.6909
   86SLPC  H14C 8187   0.861   0.498   3.420 -0.8995 -0.9741  0.2853
   86SLPC   C15 8188   0.598   0.444   3.488  0.2784  0.1129  0.0600
   86SLPC  H15A 8189   0.565   0.465   3.387 -0.5312 -0.7234  0.1389
   86SLPC  H15B 8190   0.511   0.404   3.537  1.8799 -4.7775 -0.5296
   86SLPC  H15C 8191   0.630   0.541   3.525  0.2264 -0.0030  0.4092
   86SLPC   C12 8192   0.687   0.213   3.473 -0.1291  0.4589  0.3513
   86SLPC  H12A 8193   0.777   0.153   3.486 -0.4684 -0.0012  0.6201
   86SLPC  H12B 8194   0.662   0.202   3.368  0.0797 -2.2894  0.5075
   86SLPC   C11 8195   0.577   0.147   3.556 -0.3188 -0.0588 -0.3977
   86SLPC  H11A 8196   0.601   0.168   3.662 -0.9681 -0.9758 -0.0514
   86SLPC  H11B 8197   0.581   0.038   3.537 -2.0600 -0.5675  1.7029
   86SLPC     P 8198   0.324   0.205   3.591 -0.0922  0.2983 -0.2616
   86SLPC   O13 8199   0.321   0.349   3.626 -0.0649  0.6564  0.3402
   86SLPC   O14 8200   0.208   0.158   3.521 -0.0890 -0.5327  0.4256
   86SLPC   O12 8201   0.446   0.181   3.510 -0.3810  0.1876  0.3133
   86SLPC   O11 8202   0.359   0.121   3.726 -0.1620  0.1762  0.5563
   86SLPC    C1 8203   0.253   0.046   3.782 -0.0491  0.5006 -0.4189
   86SLPC    HA 8204   0.211  -0.022   3.705  0.1980 -0.5717  0.3603
   86SLPC    HB 8205   0.294  -0.031   3.850 -0.0502 -1.1445 -2.1988
   86SLPC    C2 8206   0.131   0.125   3.849 -0.4212 -0.2475  0.0762
   86SLPC    HS 8207   0.065   0.168   3.771 -0.9728 -1.0260  0.0976
   86SLPC   O21 8208   0.190   0.236   3.919 -0.1453 -0.3937  0.1122
   86SLPC   C21 8209   0.111   0.343   3.952 -0.7143 -0.1311  0.1140
   86SLPC   O22 8210   0.007   0.372   3.898 -0.4597  0.5690 -0.3324
   86SLPC   C22 8211   0.191   0.419   4.056  0.5655 -0.2651  0.3568
   86SLPC   H2R 8212   0.285   0.453   4.008  1.1150 -0.7069  1.1066
   86SLPC   H2S 8213   0.125   0.504   4.082  0.6891  0.5966 -1.8905
   86SLPC    C3 8214   0.050   0.035   3.940 -0.0457  0.8401  0.3937
   86SLPC    HX 8215   0.020  -0.054   3.881  0.1956  2.4691 -2.4182
   86SLPC    HY 8216  -0.047   0.086   3.958 -0.9332 -0.3594 -0.7928
   86SLPC   O31 8217   0.124  -0.001   4.061 -0.2391 -0.7118  0.5767
   86SLPC   C31 8218   0.080   0.056   4.170 -0.4402 -0.0634 -0.8249
   86SLPC   O32 8219  -0.007   0.137   4.189 -0.6255 -0.5267  0.3112
   86SLPC   C32 8220   0.173  -0.001   4.283  0.2590  0.1417 -0.4431
   86SLPC   H2X 8221   0.271   0.050   4.268 -0.4666  1.5008 -0.7804
   86SLPC   H2Y 8222   0.179  -0.111   4.273  0.5537 -0.1057  1.9721
   86SLPC   C23 8223   0.231   0.353   4.185  0.5073  0.2709 -0.0360
   86SLPC   H3R 8224   0.312   0.279   4.168  1.6250  1.4667 -0.0562
   86SLPC   H3S 8225   0.143   0.309   4.237  1.6412 -3.3078 -0.8397
   86SLPC   C24 8226   0.288   0.464   4.266 -0.0197 -0.6618  0.2751
   86SLPC   H4R 8227   0.206   0.534   4.292  0.6208 -0.5872  2.2698
   86SLPC   H4S 8228   0.364   0.517   4.205 -1.1767 -0.8902 -1.4217
   86SLPC   C25 8229   0.348   0.423   4.394 -0.1650  0.0964 -0.3273
   86SLPC   H5R 8230   0.417   0.339   4.370  1.0301  1.1395 -0.6072
   86SLPC   H5S 8231   0.261   0.385   4.453 -1.1913 -3.0052 -3.4397
   86SLPC   C26 8232   0.421   0.535   4.468 -0.1442 -0.1482 -0.2919
   86SLPC   H6R 8233   0.350   0.620   4.480 -0.4855 -0.1151 -2.1976
   86SLPC   H6S 8234   0.502   0.578   4.406 -0.3886  0.7167 -0.0271
   86SLPC   C27 8235   0.469   0.510   4.610  0.3550  0.2569 -0.4491
   86SLPC   H7R 8236   0.378   0.469   4.659  1.9426 -3.0488 -0.0047
   86SLPC   H7S 8237   0.494   0.606   4.660  1.3581 -0.5594  0.6874
   86SLPC   C28 8238   0.576   0.407   4.623  0.5331 -0.1410  0.6684
   86SLPC   H8R 8239   0.680   0.441   4.604  0.7942 -2.0566 -1.8456
   86SLPC   H8S 8240   0.550   0.341   4.537  0.8237 -0.3954  0.7750
   86SLPC   C29 8241   0.568   0.332   4.756  0.7122 -1.4756  0.1275
   86SLPC   H9R 8242   0.505   0.242   4.746 -3.7107  1.4494 -1.9371
   86SLPC  C210 8243   0.632   0.352   4.871  0.3279 -0.1525  0.0437
   86SLPC  H10R 8244   0.608   0.281   4.952  0.0518  0.4042  0.4498
   86SLPC  C211 8245   0.728   0.466   4.900  0.1446 -0.1130 -0.0720
   86SLPC  H11R 8246   0.798   0.482   4.814  1.7102 -2.1497  0.7529
   86SLPC  H11S 8247   0.788   0.418   4.980 -0.3383  0.1340  0.4392
   86SLPC  C212 8248   0.664   0.595   4.949  0.1422 -0.2146 -0.1178
   86SLPC  H12R 8249   0.559   0.621   4.929  0.1371 -1.4708 -1.9809
   86SLPC  C213 8250   0.721   0.682   5.035  0.0552  0.2592  0.0039
   86SLPC  H13R 8251   0.668   0.776   5.057 -1.6511 -0.6333 -0.0840
   86SLPC  C214 8252   0.856   0.675   5.090 -0.8140  0.5160 -0.5258
   86SLPC  H14R 8253   0.913   0.587   5.054  0.1619  0.2651  1.5152
   86SLPC  H14S 8254   0.842   0.643   5.195  2.2061  2.4777  0.5839
   86SLPC  C215 8255   0.939   0.800   5.096  0.2919  0.2659  0.5324
   86SLPC  H15R 8256   0.898   0.880   5.162  2.4739  1.0777  0.9923
   86SLPC  H15S 8257   0.931   0.843   4.994  0.2745  0.3505  0.5696
   86SLPC  C216 8258   1.087   0.764   5.129 -0.1673  0.0235 -0.4186
   86SLPC  H16R 8259   1.122   0.696   5.049  0.9730 -0.7554  0.6914
   86SLPC  H16S 8260   1.090   0.709   5.226 -1.4767  0.3272 -0.1873
   86SLPC  C217 8261   1.180   0.886   5.141  0.0012  0.1272  0.5066
   86SLPC  H17R 8262   1.120   0.965   5.190 -0.3272 -0.2152  0.6648
   86SLPC  H17S 8263   1.204   0.917   5.037  0.7446 -0.8541  0.3659
   86SLPC  C218 8264   1.309   0.854   5.217  0.4631  0.0616  0.3248
   86SLPC  H18R 8265   1.365   0.947   5.240 -2.2227  1.4146  1.9094
   86SLPC  H18S 8266   1.373   0.795   5.148  2.4950  1.2818  1.0828
   86SLPC  H18T 8267   1.283   0.800   5.311  0.4392  0.2237  0.4117
   86SLPC   C33 8268   0.108   0.022   4.422 -0.2905  0.2780 -0.6788
   86SLPC   H3X 8269   0.005  -0.020   4.427  0.0540 -1.8430 -5.3839
   86SLPC   H3Y 8270   0.092   0.131   4.433 -0.1456  0.1483  1.0945
   86SLPC   C34 8271   0.190  -0.023   4.545 -0.1477 -0.3221 -0.5834
   86SLPC   H4X 8272   0.299  -0.003   4.535 -0.2269 -0.0015 -0.8043
   86SLPC   H4Y 8273   0.175  -0.132   4.555  0.2533 -0.2766  0.6280
   86SLPC   C35 8274   0.145   0.056   4.672 -0.6276  0.4230 -0.1518
   86SLPC   H5X 8275   0.041   0.027   4.697 -1.9370  2.3137 -2.9112
   86SLPC   H5Y 8276   0.139   0.167   4.664 -0.2844  0.6653  2.1539
   86SLPC   C36 8277   0.238   0.029   4.793 -0.3277  0.0972 -0.2791
   86SLPC   H6X 8278   0.339   0.058   4.759 -0.4419  3.3671  1.7653
   86SLPC   H6Y 8279   0.222  -0.078   4.818 -0.4073 -0.3026 -1.9035
   86SLPC   C37 8280   0.223   0.126   4.905 -0.0490 -0.4464  0.6295
   86SLPC   H7X 8281   0.118   0.105   4.934 -0.1929 -1.0907 -0.3374
   86SLPC   H7Y 8282   0.222   0.231   4.869 -4.3245 -0.0132  1.4178
   86SLPC   C38 8283   0.320   0.109   5.022 -0.3929  0.1863 -0.2546
   86SLPC   H8X 8284   0.421   0.125   4.979  0.4031  1.4035  1.9282
   86SLPC   H8Y 8285   0.310   0.008   5.068 -1.5974  0.8505  1.0365
   86SLPC   C39 8286   0.303   0.208   5.138 -0.5365  0.3247  0.4865
   86SLPC   H9X 8287   0.213   0.190   5.200 -1.1600 -1.1394 -0.7544
   86SLPC   H9Y 8288   0.294   0.312   5.099  2.2340  0.8261  0.9157
   86SLPC  C310 8289   0.412   0.212   5.241 -0.5713  0.2081  0.0879
   86SLPC  H10X 8290   0.510   0.235   5.193 -1.2303 -1.8734 -2.4743
   86SLPC  H10Y 8291   0.420   0.105   5.271  0.7333 -0.2885 -1.8003
   86SLPC  C311 8292   0.380   0.310   5.357  0.2562  0.7028 -0.6267
   86SLPC  H11X 8293   0.280   0.292   5.400 -0.4957  2.5595 -1.4883
   86SLPC  H11Y 8294   0.400   0.411   5.315 -1.5640  0.3858 -2.4212
   86SLPC  C312 8295   0.474   0.304   5.476  0.1180 -0.9106 -0.3730
   86SLPC  H12X 8296   0.576   0.344   5.457 -0.7372  2.9112  2.0309
   86SLPC  H12Y 8297   0.489   0.196   5.497 -0.1583 -1.3136 -2.1300
   86SLPC  C313 8298   0.424   0.375   5.598  0.3387  0.4738 -0.2048
   86SLPC  H13X 8299   0.334   0.316   5.629  0.1915  0.6446 -0.3081
   86SLPC  H13Y 8300   0.391   0.477   5.572 -3.0045 -0.4062  0.0671
   86SLPC  C314 8301   0.527   0.376   5.715 -0.6376 -0.1932 -0.9431
   86SLPC  H14X 8302   0.579   0.278   5.722  3.4387  1.8191  0.2133
   86SLPC  H14Y 8303   0.479   0.375   5.815 -1.1372 -0.0129 -1.1756
   86SLPC  C315 8304   0.627   0.491   5.726  0.5971 -0.6890  0.4276
   86SLPC  H15X 8305   0.567   0.584   5.732 -1.8320 -2.0679 -0.8988
   86SLPC  H15Y 8306   0.685   0.500   5.632  1.4307  2.9982  1.1543
   86SLPC  C316 8307   0.734   0.468   5.839 -0.1747 -0.2425 -0.1904
   86SLPC  H16X 8308   0.780   0.368   5.823  0.7731  0.0464  0.5824
   86SLPC  H16Y 8309   0.680   0.475   5.936  1.2294  0.8035  0.5449
   86SLPC  C317 8310   0.849   0.571   5.835 -0.1588  0.0680 -0.2859
   86SLPC  H17X 8311   0.808   0.674   5.843  2.0983  0.9442  0.9891
   86SLPC  H17Y 8312   0.891   0.585   5.734 -1.2605 -2.2216 -1.1374
   86SLPC  C318 8313   0.969   0.547   5.923 -0.3227 -0.1879  0.4280
   86SLPC  H18X 8314   1.011   0.445   5.906 -2.3556 -0.9066 -0.6632
   86SLPC  H18Y 8315   0.943   0.567   6.029 -0.8255 -1.2656  0.5327
   86SLPC  H18Z 8316   1.048   0.621   5.900  0.6498 -1.3632 -0.1026
   87SLPC     N 8317   4.122   5.140   3.522 -0.1413 -0.6557 -0.0948
   87SLPC   C13 8318   4.000   5.076   3.592 -0.4223 -0.2261 -0.0175
   87SLPC  H13A 8319   4.021   5.102   3.695 -0.7358 -0.2425  0.0508
   87SLPC  H13B 8320   3.909   5.119   3.553  1.2015  1.8488 -1.7574
   87SLPC  H13C 8321   3.985   4.970   3.579 -2.6429 -0.0587  0.5981
   87SLPC   C14 8322   4.106   5.292   3.516 -0.2767  0.1735  0.3978
   87SLPC  H14A 8323   4.169   5.335   3.440 -2.2571  3.3753  0.4055
   87SLPC  H14B 8324   4.002   5.302   3.491 -0.3562 -3.0939 -1.1185
   87SLPC  H14C 8325   4.134   5.336   3.611 -0.3943  0.1389  0.4474
   87SLPC   C15 8326   4.125   5.091   3.380  0.2262 -0.0002  0.2592
   87SLPC  H15A 8327   4.219   5.114   3.332 -0.8947  2.7653 -0.7782
   87SLPC  H15B 8328   4.118   4.983   3.381 -0.6155  0.0459 -0.1369
   87SLPC  H15C 8329   4.046   5.130   3.318  0.7169  0.8114  0.1330
   87SLPC   C12 8330   4.250   5.099   3.590  0.3544  0.2346  0.2337
   87SLPC  H12A 8331   4.330   5.091   3.519  0.0258  0.9173 -0.2204
   87SLPC  H12B 8332   4.246   4.994   3.614  1.5164  0.0420 -0.3363
   87SLPC   C11 8333   4.289   5.166   3.716 -0.9239 -0.9821 -0.3859
   87SLPC  H11A 8334   4.322   5.270   3.694 -1.9904 -0.9111 -1.8197
   87SLPC  H11B 8335   4.384   5.127   3.757  0.6874 -1.0568 -3.8277
   87SLPC     P 8336   4.171   5.037   3.898  0.0899 -0.4015 -0.0715
   87SLPC   O13 8337   4.031   4.995   3.892  0.0082 -0.7227  0.0018
   87SLPC   O14 8338   4.268   4.939   3.852 -0.5948  0.2859  0.3018
   87SLPC   O12 8339   4.190   5.164   3.816  0.5239 -0.3216 -0.5436
   87SLPC   O11 8340   4.195   5.075   4.046 -0.4422  0.0792 -0.0233
   87SLPC    C1 8341   4.238   5.203   4.080 -0.0262 -0.2378  0.8572
   87SLPC    HA 8342   4.345   5.199   4.109  0.5588 -1.4291 -1.2384
   87SLPC    HB 8343   4.221   5.291   4.013  1.6987 -0.8515 -0.4684
   87SLPC    C2 8344   4.156   5.245   4.206 -0.2962  0.7743 -0.3342
   87SLPC    HS 8345   4.184   5.346   4.245 -3.7496  1.0286  1.8937
   87SLPC   O21 8346   4.182   5.150   4.310  0.0806  0.4341  0.2486
   87SLPC   C21 8347   4.297   5.173   4.376  0.5470 -0.1067 -0.2190
   87SLPC   O22 8348   4.381   5.259   4.353 -0.0784 -0.2463 -0.1642
   87SLPC   C22 8349   4.293   5.081   4.497  0.2334 -0.3506  0.0645
   87SLPC   H2R 8350   4.202   5.108   4.555  0.3634  0.4001 -0.0669
   87SLPC   H2S 8351   4.283   4.983   4.446  0.8930 -0.7266  0.6599
   87SLPC    C3 8352   4.010   5.267   4.183  0.1508  0.1785 -0.0108
   87SLPC    HX 8353   3.959   5.170   4.164 -0.8680  1.0620 -2.1361
   87SLPC    HY 8354   4.001   5.339   4.099  2.1734  1.4550  0.7914
   87SLPC   O31 8355   3.965   5.336   4.305  0.2639 -0.1657  1.0155
   87SLPC   C31 8356   3.864   5.275   4.370 -0.0877 -0.9836 -0.1602
   87SLPC   O32 8357   3.814   5.174   4.342 -0.1637 -0.1092 -0.1214
   87SLPC   C32 8358   3.826   5.360   4.486 -0.5425  0.9044  0.1770
   87SLPC   H2X 8359   3.716   5.377   4.485 -1.1308 -2.1074  1.5156
   87SLPC   H2Y 8360   3.872   5.460   4.475  3.0034 -0.5250  0.7288
   87SLPC   C23 8361   4.418   5.086   4.582  0.4970  0.3923  0.7781
   87SLPC   H3R 8362   4.452   5.186   4.617  0.7423  2.1488 -3.8565
   87SLPC   H3S 8363   4.511   5.065   4.526  0.3996 -0.7304  1.0149
   87SLPC   C24 8364   4.428   4.977   4.681  0.5976 -0.9475 -0.4248
   87SLPC   H4R 8365   4.434   4.881   4.624  0.1657 -1.4161  0.3059
   87SLPC   H4S 8366   4.345   4.987   4.754  0.3810 -0.1898 -0.7724
   87SLPC   C25 8367   4.552   4.983   4.768 -0.2550 -0.6114  0.5690
   87SLPC   H5R 8368   4.569   5.073   4.831  1.5054  0.5167 -1.4045
   87SLPC   H5S 8369   4.637   4.976   4.697 -1.5893  0.1275 -1.1893
   87SLPC   C26 8370   4.535   4.878   4.878  0.1412  0.3240  0.4312
   87SLPC   H6R 8371   4.561   4.773   4.851  4.5225  1.4195 -0.3171
   87SLPC   H6S 8372   4.432   4.887   4.919 -0.3461 -1.5516 -0.2930
   87SLPC   C27 8373   4.625   4.902   5.001 -0.2064  0.0062 -0.3127
   87SLPC   H7R 8374   4.564   4.961   5.071 -0.6098 -0.1956 -0.4913
   87SLPC   H7S 8375   4.714   4.962   4.971 -1.1470  1.2451 -0.6770
   87SLPC   C28 8376   4.675   4.762   5.056  0.6991 -0.0629  0.0897
   87SLPC   H8R 8377   4.757   4.780   5.128  1.3929  1.1380 -0.9648
   87SLPC   H8S 8378   4.737   4.716   4.976  0.5583 -2.4437  1.2722
   87SLPC   C29 8379   4.562   4.670   5.104  0.8545  0.5237  0.3096
   87SLPC   H9R 8380   4.482   4.641   5.035  2.1394 -0.4595 -0.8349
   87SLPC  C210 8381   4.564   4.607   5.225  1.0784 -0.5771 -0.2699
   87SLPC  H10R 8382   4.490   4.527   5.242  1.2519 -0.4606  1.2229
   87SLPC  C211 8383   4.659   4.625   5.337  0.4225  0.0720 -0.1263
   87SLPC  H11R 8384   4.598   4.577   5.417  0.4071  0.8542  0.3333
   87SLPC  H11S 8385   4.667   4.733   5.361  1.6471  0.2301 -1.1192
   87SLPC  C212 8386   4.784   4.552   5.337  0.3352 -0.0526  0.6011
   87SLPC  H12R 8387   4.808   4.482   5.256  0.0291 -1.7636  1.9184
   87SLPC  C213 8388   4.882   4.566   5.423 -1.0119 -0.0766 -0.4722
   87SLPC  H13R 8389   4.975   4.508   5.415 -0.7804  0.0107  1.1812
   87SLPC  C214 8390   4.870   4.654   5.547 -0.3575 -0.3531 -1.0570
   87SLPC  H14R 8391   4.763   4.669   5.572 -0.7908 -0.9447 -2.4924
   87SLPC  H14S 8392   4.914   4.756   5.544 -0.4558 -0.2183  0.7569
   87SLPC  C215 8393   4.919   4.595   5.686 -0.1120  0.0121 -0.1506
   87SLPC  H15R 8394   4.895   4.486   5.684  1.0057 -0.2562 -2.6976
   87SLPC  H15S 8395   4.852   4.639   5.762  0.4910 -0.4756  0.6755
   87SLPC  C216 8396   5.075   4.607   5.700  0.4654 -0.5906  0.3028
   87SLPC  H16R 8397   5.099   4.577   5.804  1.3358  1.6004  0.7912
   87SLPC  H16S 8398   5.101   4.715   5.689 -0.6845 -0.2962  0.3361
   87SLPC  C217 8399   5.167   4.527   5.596  0.1518  0.0882 -0.6602
   87SLPC  H17R 8400   5.171   4.580   5.499 -1.1600 -1.3383 -1.5379
   87SLPC  H17S 8401   5.118   4.428   5.579  2.1183 -1.9604  3.7984
   87SLPC  C218 8402   5.316   4.490   5.649 -0.4549 -0.0086 -0.0425
   87SLPC  H18R 8403   5.304   4.409   5.724 -1.9824  1.0973  0.9535
   87SLPC  H18S 8404   5.357   4.570   5.714  0.0592  0.7623 -1.2712
   87SLPC  H18T 8405   5.390   4.459   5.572  0.3146  1.0961  0.2229
   87SLPC   C33 8406   3.874   5.303   4.626  0.2505 -0.2171  0.2158
   87SLPC   H3X 8407   3.969   5.245   4.625 -0.7110 -1.8526 -0.7252
   87SLPC   H3Y 8408   3.795   5.233   4.658  0.2753  0.1246  1.0557
   87SLPC   C34 8409   3.874   5.408   4.742  0.0951 -1.1917  1.2817
   87SLPC   H4X 8410   3.782   5.469   4.752  1.1479  0.4282  1.4715
   87SLPC   H4Y 8411   3.955   5.482   4.726 -1.8670  0.3795 -2.7419
   87SLPC   C35 8412   3.893   5.338   4.874 -0.2712  1.2917  0.8807
   87SLPC   H5X 8413   3.971   5.260   4.863 -1.1446  0.6555 -1.5358
   87SLPC   H5Y 8414   3.802   5.283   4.907 -0.3768  0.4723 -0.7134
   87SLPC   C36 8415   3.930   5.440   4.979 -0.0059  0.3517  0.2989
   87SLPC   H6X 8416   3.844   5.511   4.984  0.0673  0.3973  1.0819
   87SLPC   H6Y 8417   4.002   5.510   4.931 -1.7830  0.9438 -1.6359
   87SLPC   C37 8418   3.977   5.386   5.111 -0.0534  0.1859 -0.8297
   87SLPC   H7X 8419   3.987   5.463   5.191 -1.5648  0.6736 -1.0848
   87SLPC   H7Y 8420   4.080   5.352   5.085  0.2049  2.0539 -2.5109
   87SLPC   C38 8421   3.891   5.270   5.179  0.6156 -0.9304  0.2299
   87SLPC   H8X 8422   3.856   5.201   5.099  1.0170 -1.0630  0.1673
   87SLPC   H8Y 8423   3.792   5.301   5.220 -0.1566 -1.2236 -1.3336
   87SLPC   C39 8424   3.965   5.191   5.291  0.0082  0.4091 -0.1269
   87SLPC   H9X 8425   4.055   5.158   5.235  0.5388  2.0554 -0.2811
   87SLPC   H9Y 8426   3.898   5.106   5.316  0.4461 -0.9123 -3.0095
   87SLPC  C310 8427   4.021   5.267   5.408  0.5707  0.6842 -0.5951
   87SLPC  H10X 8428   3.959   5.350   5.448  2.2839  0.7758  2.1285
   87SLPC  H10Y 8429   4.112   5.324   5.379  0.5019  1.6037  0.9049
   87SLPC  C311 8430   4.056   5.170   5.526  0.5970  0.2640  0.1194
   87SLPC  H11X 8431   4.079   5.070   5.483  0.4901 -0.0693  0.8294
   87SLPC  H11Y 8432   3.965   5.150   5.585 -1.5259  1.2259 -2.6120
   87SLPC  C312 8433   4.179   5.210   5.615 -0.1041  0.2150  0.2388
   87SLPC  H12X 8434   4.164   5.312   5.655 -1.7631 -0.0824  0.4359
   87SLPC  H12Y 8435   4.276   5.217   5.561 -0.9260 -0.9654 -1.4822
   87SLPC  C313 8436   4.197   5.113   5.735 -0.0713  0.4960  0.0925
   87SLPC  H13X 8437   4.225   5.011   5.699  0.9793  0.8159 -0.0300
   87SLPC  H13Y 8438   4.095   5.100   5.776  0.3494 -2.6597  0.4167
   87SLPC  C314 8439   4.292   5.160   5.844  0.8513  0.3535 -0.0799
   87SLPC  H14X 8440   4.387   5.191   5.796  1.0852  0.0770  0.2005
   87SLPC  H14Y 8441   4.318   5.070   5.905  0.9047  0.7656  0.5099
   87SLPC  C315 8442   4.235   5.275   5.924  0.6465  0.2192  0.6705
   87SLPC  H15X 8443   4.126   5.271   5.941  0.5173 -0.3970 -0.1937
   87SLPC  H15Y 8444   4.243   5.359   5.852 -0.8020  0.3497  0.6262
   87SLPC  C316 8445   4.316   5.306   6.047  0.0292 -0.0568  0.0951
   87SLPC  H16X 8446   4.425   5.301   6.024  0.0841 -0.1971  0.3860
   87SLPC  H16Y 8447   4.294   5.215   6.107  1.6119 -0.4548  0.1182
   87SLPC  C317 8448   4.290   5.433   6.128  1.0342 -0.1469 -0.6407
   87SLPC  H17X 8449   4.357   5.438   6.217 -0.9231 -1.2726  0.9795
   87SLPC  H17Y 8450   4.182   5.423   6.153  0.1163 -0.0292 -4.1147
   87SLPC  C318 8451   4.295   5.561   6.049  0.3589 -0.8358 -0.2779
   87SLPC  H18X 8452   4.210   5.551   5.978  1.7687 -2.8979 -1.7669
   87SLPC  H18Y 8453   4.393   5.557   5.997  1.1147 -2.2517  1.1737
   87SLPC  H18Z 8454   4.302   5.649   6.117 -0.8361 -1.0858  0.1962
   88SLPC     N 8455   1.211   5.464   3.649  0.6498  0.1106 -0.1517
   88SLPC   C13 8456   1.319   5.532   3.577 -0.1490  0.4464 -0.3481
   88SLPC  H13A 8457   1.299   5.638   3.564 -0.0162  0.4160 -0.8426
   88SLPC  H13B 8458   1.412   5.525   3.632 -1.1050 -2.0547  1.0811
   88SLPC  H13C 8459   1.331   5.484   3.481 -0.1878 -1.7038  0.6691
   88SLPC   C14 8460   1.244   5.318   3.659 -0.8509  0.0528  0.7429
   88SLPC  H14A 8461   1.255   5.280   3.558 -2.0249  1.2315  0.1371
   88SLPC  H14B 8462   1.332   5.312   3.721  1.8010 -0.1804 -2.7485
   88SLPC  H14C 8463   1.166   5.266   3.713 -2.0845 -0.2741 -1.2412
   88SLPC   C15 8464   1.084   5.490   3.576 -0.2512  0.6362 -0.0356
   88SLPC  H15A 8465   1.045   5.589   3.594  1.3028  1.3879 -0.6320
   88SLPC  H15B 8466   1.091   5.487   3.468 -0.2725 -0.0531 -0.0202
   88SLPC  H15C 8467   1.009   5.420   3.609 -0.4515  1.5676  1.5615
   88SLPC   C12 8468   1.192   5.525   3.792  0.2635 -0.5568 -0.6945
   88SLPC  H12A 8469   1.146   5.622   3.779  0.8063 -0.4828 -2.2803
   88SLPC  H12B 8470   1.293   5.531   3.830  0.3972 -0.7949 -1.0155
   88SLPC   C11 8471   1.108   5.458   3.892  0.5829 -0.0746 -0.8363
   88SLPC  H11A 8472   1.014   5.412   3.853 -0.2328  1.5230 -0.8851
   88SLPC  H11B 8473   1.079   5.534   3.968  2.7432 -0.5191  0.4888
   88SLPC     P 8474   1.131   5.212   3.990  0.2757  0.7960  0.0881
   88SLPC   O13 8475   1.053   5.167   3.875 -0.4608 -0.2361 -0.4717
   88SLPC   O14 8476   1.249   5.126   4.018 -0.3992  0.0579 -0.2907
   88SLPC   O12 8477   1.188   5.359   3.958  0.1200  0.6612  0.3256
   88SLPC   O11 8478   1.054   5.233   4.120 -0.1033  0.1973  0.3201
   88SLPC    C1 8479   1.102   5.289   4.244 -0.4830  0.3884 -0.0761
   88SLPC    HA 8480   1.051   5.234   4.325 -0.7328 -1.1148 -1.2018
   88SLPC    HB 8481   1.213   5.282   4.248 -0.6083 -1.2256  2.0151
   88SLPC    C2 8482   1.065   5.444   4.253  0.1369 -0.6179 -0.2610
   88SLPC    HS 8483   1.140   5.498   4.191  0.5243  0.3433  0.9843
   88SLPC   O21 8484   1.086   5.483   4.395  0.0388 -0.1664 -0.1889
   88SLPC   C21 8485   1.114   5.606   4.428  0.5497 -0.2988  0.8842
   88SLPC   O22 8486   1.119   5.699   4.346  0.0500  0.0229 -0.3486
   88SLPC   C22 8487   1.147   5.628   4.577 -0.4233 -0.9109  0.4469
   88SLPC   H2R 8488   1.221   5.711   4.580  0.2042 -1.4128 -0.5997
   88SLPC   H2S 8489   1.055   5.653   4.634 -0.3404  0.2130  0.1093
   88SLPC    C3 8490   0.915   5.476   4.219 -0.0215  0.6724  0.3384
   88SLPC    HX 8491   0.905   5.446   4.112 -0.9881  1.2526  0.2516
   88SLPC    HY 8492   0.902   5.586   4.215  2.3018  0.9503 -0.9623
   88SLPC   O31 8493   0.833   5.395   4.309  0.1244 -0.1536 -0.3385
   88SLPC   C31 8494   0.772   5.455   4.405 -0.6412 -0.3206  0.6952
   88SLPC   O32 8495   0.780   5.576   4.424  0.1126  0.2168 -0.1777
   88SLPC   C32 8496   0.687   5.352   4.483 -0.5344 -0.0493  0.1533
   88SLPC   H2X 8497   0.763   5.276   4.510  1.2280  1.8689  0.8829
   88SLPC   H2Y 8498   0.596   5.319   4.428  0.1956 -0.5175 -0.8145
   88SLPC   C23 8499   1.207   5.507   4.646 -0.8445  0.5376  0.8663
   88SLPC   H3R 8500   1.272   5.451   4.577  0.1594  1.5873  0.9241
   88SLPC   H3S 8501   1.125   5.437   4.673  0.2851 -1.8232 -1.3631
   88SLPC   C24 8502   1.291   5.538   4.770  0.3023 -0.1185 -0.3579
   88SLPC   H4R 8503   1.358   5.623   4.746 -0.2915  0.4605 -0.0102
   88SLPC   H4S 8504   1.351   5.447   4.794 -0.6956 -0.6103  0.3937
   88SLPC   C25 8505   1.205   5.579   4.888 -0.2093 -0.6071  0.7746
   88SLPC   H5R 8506   1.145   5.490   4.916 -1.0674 -0.4643 -0.5171
   88SLPC   H5S 8507   1.129   5.656   4.864  0.4237 -0.3862 -0.6440
   88SLPC   C26 8508   1.277   5.620   5.017  0.8581  1.0128 -0.1487
   88SLPC   H6R 8509   1.348   5.539   5.044 -0.9322 -1.1260 -1.4689
   88SLPC   H6S 8510   1.194   5.628   5.090 -0.0135  2.3407 -1.2325
   88SLPC   C27 8511   1.346   5.752   5.000  0.2986 -0.1412  0.0998
   88SLPC   H7R 8512   1.276   5.815   4.941 -0.1054 -0.4692  0.2298
   88SLPC   H7S 8513   1.430   5.746   4.927  1.2137  1.7600  0.9286
   88SLPC   C28 8514   1.376   5.822   5.136  0.6870 -0.1990 -0.0565
   88SLPC   H8R 8515   1.293   5.807   5.208  1.0917 -1.1696  0.2263
   88SLPC   H8S 8516   1.378   5.932   5.118 -2.6000 -0.1818 -0.7992
   88SLPC   C29 8517   1.504   5.771   5.204  0.3965  0.0889  0.3683
   88SLPC   H9R 8518   1.603   5.761   5.157  1.6541  1.6889  2.5122
   88SLPC  C210 8519   1.496   5.724   5.330  0.4957  0.5082  0.2196
   88SLPC  H10R 8520   1.587   5.681   5.374  0.1414 -0.3907  0.0889
   88SLPC  C211 8521   1.371   5.713   5.421 -0.1718  1.0847 -0.1955
   88SLPC  H11R 8522   1.287   5.666   5.365  0.2149  1.3538 -1.0059
   88SLPC  H11S 8523   1.344   5.815   5.456  1.4121  1.5989 -0.4019
   88SLPC  C212 8524   1.412   5.632   5.540 -0.0338  0.2127 -0.0841
   88SLPC  H12R 8525   1.510   5.657   5.583  0.1378 -1.1434  0.3895
   88SLPC  C213 8526   1.340   5.530   5.594  0.1563 -0.7024  0.2894
   88SLPC  H13R 8527   1.379   5.461   5.671  0.3528  0.1110  0.9420
   88SLPC  C214 8528   1.198   5.502   5.556 -0.1514  0.0495 -0.0626
   88SLPC  H14R 8529   1.191   5.392   5.546 -0.9555 -0.1245  1.9320
   88SLPC  H14S 8530   1.186   5.527   5.448  3.6222 -0.3241 -0.7317
   88SLPC  C215 8531   1.098   5.540   5.665  0.0596 -1.0233  0.2070
   88SLPC  H15R 8532   1.089   5.649   5.680  0.3015 -0.9927  0.1302
   88SLPC  H15S 8533   1.123   5.497   5.764  1.0576 -0.3594  0.2536
   88SLPC  C216 8534   0.957   5.500   5.633 -0.2512  0.2930  0.4155
   88SLPC  H16R 8535   0.951   5.393   5.664 -0.7592  0.4123  0.7486
   88SLPC  H16S 8536   0.935   5.484   5.525 -3.4597 -2.3383  1.2772
   88SLPC  C217 8537   0.847   5.592   5.688 -0.3412  0.2036  0.3272
   88SLPC  H17R 8538   0.747   5.554   5.659 -0.0326  0.1747 -0.7205
   88SLPC  H17S 8539   0.858   5.690   5.636  0.5785 -0.2255 -0.3058
   88SLPC  C218 8540   0.858   5.604   5.839 -0.2099 -0.2148  0.3587
   88SLPC  H18R 8541   0.820   5.523   5.905 -0.6211  1.2939  2.0712
   88SLPC  H18S 8542   0.810   5.697   5.876  2.6109  1.7407 -0.6239
   88SLPC  H18T 8543   0.962   5.624   5.871  0.6363 -0.6194 -1.9466
   88SLPC   C33 8544   0.631   5.400   4.624  0.0281 -0.0047  1.6928
   88SLPC   H3X 8545   0.706   5.470   4.667 -0.3022  0.9158  0.8071
   88SLPC   H3Y 8546   0.628   5.313   4.694 -2.6419 -0.4791  1.0756
   88SLPC   C34 8547   0.489   5.457   4.605  0.3269 -0.8542  0.7682
   88SLPC   H4X 8548   0.412   5.386   4.568 -1.1402  0.9450  0.2418
   88SLPC   H4Y 8549   0.504   5.537   4.530 -0.2253  0.5979  2.1449
   88SLPC   C35 8550   0.432   5.523   4.727  0.0514  0.1235 -0.6209
   88SLPC   H5X 8551   0.329   5.559   4.706 -0.3386 -0.5932  0.0135
   88SLPC   H5Y 8552   0.496   5.607   4.760  0.7940 -1.6192  2.9121
   88SLPC   C36 8553   0.416   5.449   4.860 -0.1111 -0.3950 -0.6868
   88SLPC   H6X 8554   0.516   5.415   4.894 -0.3764 -1.3533 -0.8426
   88SLPC   H6Y 8555   0.346   5.364   4.846 -0.2881 -0.3045 -0.3597
   88SLPC   C37 8556   0.358   5.536   4.976 -0.1484 -0.3469 -0.1490
   88SLPC   H7X 8557   0.267   5.586   4.937 -0.3181 -0.6677 -0.1656
   88SLPC   H7Y 8558   0.423   5.619   5.010 -1.4389  0.7259 -0.2487
   88SLPC   C38 8559   0.309   5.440   5.087  0.2551  1.0452  0.0511
   88SLPC   H8X 8560   0.398   5.385   5.124  0.7603  1.5642 -0.3802
   88SLPC   H8Y 8561   0.256   5.354   5.040  3.8336 -1.1679 -0.2936
   88SLPC   C39 8562   0.241   5.497   5.206  0.0807 -0.4837  0.1378
   88SLPC   H9X 8563   0.138   5.512   5.167  0.2301  1.9000  0.5173
   88SLPC   H9Y 8564   0.286   5.597   5.221 -0.1615 -0.1300 -1.3649
   88SLPC  C310 8565   0.252   5.407   5.335 -0.0402 -0.7349 -0.3484
   88SLPC  H10X 8566   0.309   5.313   5.317  0.7870 -0.3696  0.2583
   88SLPC  H10Y 8567   0.149   5.379   5.365 -0.2727  1.3168  0.9773
   88SLPC  C311 8568   0.326   5.486   5.449  0.7974  0.0562  0.6167
   88SLPC  H11X 8569   0.252   5.558   5.488  0.6614 -0.6234  1.6504
   88SLPC  H11Y 8570   0.416   5.537   5.408  0.6379 -0.3856 -0.3265
   88SLPC  C312 8571   0.377   5.402   5.568  0.2616  0.4126  0.1968
   88SLPC  H12X 8572   0.438   5.314   5.537  0.9065  1.0854 -0.5043
   88SLPC  H12Y 8573   0.290   5.363   5.624 -0.4676  0.6973 -0.7084
   88SLPC  C313 8574   0.466   5.486   5.658  0.0948 -0.1246 -0.8713
   88SLPC  H13X 8575   0.539   5.530   5.588 -0.0009 -0.9355 -1.5007
   88SLPC  H13Y 8576   0.512   5.418   5.733 -0.8050  0.6701  0.4361
   88SLPC  C314 8577   0.392   5.594   5.739  0.2774 -0.4784  0.0461
   88SLPC  H14X 8578   0.309   5.552   5.799  0.5444  1.4455  1.8681
   88SLPC  H14Y 8579   0.341   5.663   5.669  0.7121 -0.9968 -0.7980
   88SLPC  C315 8580   0.486   5.678   5.828  0.5773  0.4435  0.1315
   88SLPC  H15X 8581   0.565   5.704   5.753  0.7130  0.9787  0.4576
   88SLPC  H15Y 8582   0.531   5.624   5.914 -0.9317 -1.1606 -0.0290
   88SLPC  C316 8583   0.404   5.793   5.886 -0.8528  0.4658 -0.3788
   88SLPC  H16X 8584   0.306   5.755   5.920  0.6218 -2.0519  1.3859
   88SLPC  H16Y 8585   0.393   5.864   5.801  2.2146  1.5240 -0.0552
   88SLPC  C317 8586   0.474   5.874   5.995 -0.0930  0.1629  0.3796
   88SLPC  H17X 8587   0.552   5.936   5.947  0.4397 -1.5815 -1.1527
   88SLPC  H17Y 8588   0.511   5.804   6.073 -0.1551  0.1928  0.4361
   88SLPC  C318 8589   0.373   5.969   6.073 -0.3531  0.5039  0.0266
   88SLPC  H18X 8590   0.306   5.903   6.132  0.0448 -0.1508 -0.2348
   88SLPC  H18Y 8591   0.310   6.031   6.005 -1.4488  0.5327  1.0316
   88SLPC  H18Z 8592   0.427   6.034   6.144  2.4360 -2.7391  1.1396
   89SAPE     N 8593   3.092   3.502   8.517  0.0527  0.4547 -0.3126
   89SAPE   HN1 8594   3.055   3.593   8.482  0.6612  0.9721  0.3326
   89SAPE   HN2 8595   3.029   3.467   8.592 -0.8607 -0.9988 -1.6988
   89SAPE   HN3 8596   3.180   3.525   8.568  0.9571  0.0474 -1.6535
   89SAPE   C12 8597   3.109   3.404   8.398  0.3133  0.2369 -0.5464
   89SAPE  H12A 8598   3.008   3.396   8.354 -1.2576  1.1135  2.6012
   89SAPE  H12B 8599   3.156   3.310   8.436  1.1080  0.4834 -0.8972
   89SAPE   C11 8600   3.195   3.473   8.288 -0.0344 -0.0036  0.0408
   89SAPE  H11A 8601   3.153   3.574   8.267  0.2826 -0.0660 -0.9780
   89SAPE  H11B 8602   3.189   3.431   8.185 -2.2230  2.8146 -1.1388
   89SAPE     P 8603   3.415   3.603   8.333  0.1024  0.2167  0.2216
   89SAPE   O13 8604   3.344   3.717   8.384 -0.8736  0.3883 -0.0581
   89SAPE   O14 8605   3.553   3.570   8.387 -0.6145 -0.2380 -0.0351
   89SAPE   O12 8606   3.323   3.479   8.355 -0.8439 -0.3724  0.0818
   89SAPE   O11 8607   3.417   3.620   8.176  0.0034 -0.1526 -0.0436
   89SAPE    C1 8608   3.470   3.513   8.102  0.2350  0.4918 -0.6785
   89SAPE    HA 8609   3.581   3.516   8.113  0.5426  1.1008 -3.2805
   89SAPE    HB 8610   3.425   3.413   8.124  1.5926  0.4873  2.8529
   89SAPE    C2 8611   3.447   3.530   7.948  0.6483  0.4159 -0.4482
   89SAPE    HS 8612   3.514   3.457   7.896 -1.0250 -0.0101 -2.1123
   89SAPE   O21 8613   3.475   3.664   7.906  0.0790  0.5279 -0.1138
   89SAPE   C21 8614   3.590   3.704   7.889  0.4131  0.1430  0.0463
   89SAPE   O22 8615   3.696   3.645   7.911  0.0738 -0.0955  0.0056
   89SAPE   C22 8616   3.577   3.849   7.841 -0.0041 -0.1214  0.2767
   89SAPE   H2R 8617   3.471   3.871   7.815  0.1541  0.4689  0.1263
   89SAPE   H2S 8618   3.622   3.918   7.916 -0.6161  2.1982 -1.4002
   89SAPE    C3 8619   3.305   3.490   7.908 -0.1701 -0.0266 -1.1158
   89SAPE    HX 8620   3.270   3.545   7.819  1.5196  4.5530  0.7726
   89SAPE    HY 8621   3.242   3.536   7.987  0.0312  0.6592 -1.3558
   89SAPE   O31 8622   3.302   3.346   7.893  0.3374  0.7957  0.5808
   89SAPE   C31 8623   3.345   3.294   7.779  0.2101 -0.6495  0.0697
   89SAPE   O32 8624   3.404   3.360   7.696  0.1302 -0.0861 -0.3872
   89SAPE   C32 8625   3.310   3.146   7.770 -0.7605  0.2932  0.2404
   89SAPE   H2X 8626   3.201   3.138   7.788 -0.6883  0.8333  0.9569
   89SAPE   H2Y 8627   3.352   3.095   7.859 -0.6579 -0.0645 -0.0076
   89SAPE   C23 8628   3.665   3.859   7.712 -0.1558 -0.2703 -0.2135
   89SAPE   H3R 8629   3.766   3.820   7.737  0.0628  1.5031  1.9946
   89SAPE   H3S 8630   3.696   3.965   7.694  1.5022 -1.2355 -3.9235
   89SAPE   C24 8631   3.600   3.796   7.590  0.2610  0.1323 -0.2916
   89SAPE   H4R 8632   3.547   3.886   7.552 -2.5270 -1.3123 -0.0545
   89SAPE   H4S 8633   3.524   3.717   7.604 -0.6431  0.5716 -2.3995
   89SAPE   C25 8634   3.713   3.757   7.498 -0.4562 -0.2935 -0.2188
   89SAPE   H5R 8635   3.793   3.706   7.554 -0.8616  0.9259  1.5543
   89SAPE   C26 8636   3.731   3.772   7.364  0.2293  0.2062 -0.6976
   89SAPE   H6R 8637   3.825   3.737   7.318 -0.1342 -1.2174 -0.4224
   89SAPE   C27 8638   3.637   3.842   7.274  0.4153 -0.4767 -0.2909
   89SAPE   H7R 8639   3.555   3.894   7.329  1.3289 -0.4439  1.0906
   89SAPE   H7S 8640   3.581   3.777   7.204  0.3605 -0.3082 -0.4058
   89SAPE   C28 8641   3.702   3.960   7.208 -0.2218  0.8785  0.4740
   89SAPE   H8R 8642   3.678   4.060   7.246 -2.4475  0.7103 -0.3500
   89SAPE   C29 8643   3.766   3.957   7.085 -0.0639 -0.1939 -0.1798
   89SAPE   H9R 8644   3.794   4.054   7.041  0.2743 -0.8612 -1.4938
   89SAPE  C210 8645   3.791   3.833   7.010  0.2237  0.2928 -0.0937
   89SAPE  H10R 8646   3.726   3.839   6.920 -1.0826  1.1412  0.8778
   89SAPE  H10S 8647   3.751   3.741   7.058 -1.9377  1.0231 -0.3768
   89SAPE  C211 8648   3.939   3.803   6.984  0.1931 -0.2367 -0.1174
   89SAPE  H11R 8649   4.010   3.834   7.061  0.6735  0.6106 -0.8779
   89SAPE  C212 8650   3.993   3.768   6.868  0.0153  0.4977  1.2356
   89SAPE  H12R 8651   4.103   3.766   6.861  0.0713 -1.6331  1.9749
   89SAPE  C213 8652   3.915   3.743   6.736  0.5145 -0.2386  0.5481
   89SAPE  H13R 8653   3.911   3.835   6.674 -0.9655  0.3142  1.3877
   89SAPE  H13S 8654   3.809   3.721   6.762 -0.1795  1.3041 -0.8499
   89SAPE  C214 8655   3.963   3.626   6.650 -0.1459 -0.1319  0.3400
   89SAPE  H14R 8656   3.930   3.527   6.686  0.0116  0.2785  1.6805
   89SAPE  C215 8657   4.033   3.647   6.538  0.0696 -0.4572 -0.4631
   89SAPE  H15R 8658   4.064   3.566   6.469  1.9535  0.0464 -0.2760
   89SAPE  C216 8659   4.069   3.784   6.489  0.5903 -0.1433 -0.2902
   89SAPE  H16R 8660   4.088   3.858   6.570 -0.0029 -1.1502  0.7984
   89SAPE  H16S 8661   3.983   3.821   6.428 -0.1029 -1.2047  0.0240
   89SAPE  C217 8662   4.195   3.789   6.399  0.1942  0.4316  0.1427
   89SAPE  H17R 8663   4.157   3.772   6.297  0.2858 -3.8686  0.6322
   89SAPE  H17S 8664   4.263   3.702   6.415  0.1134  0.4818  0.7884
   89SAPE  C218 8665   4.285   3.916   6.396 -0.4670 -0.1931  0.1950
   89SAPE  H18R 8666   4.328   3.926   6.498  0.3842  2.3327 -0.3422
   89SAPE  H18S 8667   4.221   4.003   6.370  1.3590  1.3503  0.5945
   89SAPE  C219 8668   4.414   3.891   6.311 -0.3142 -0.6851  0.4537
   89SAPE  H19R 8669   4.392   3.862   6.207 -1.8307  0.5293  0.4022
   89SAPE  H19S 8670   4.463   3.807   6.365 -2.5937 -2.1664  0.3291
   89SAPE  C220 8671   4.510   4.005   6.306 -0.6943 -0.4118 -0.2038
   89SAPE  H20R 8672   4.601   3.969   6.254  0.2226 -2.1815  2.4093
   89SAPE  H20S 8673   4.537   4.030   6.411 -1.0477 -0.4208 -0.1078
   89SAPE  H20T 8674   4.470   4.093   6.252  0.3881 -0.9684 -1.9888
   89SAPE   C33 8675   3.357   3.076   7.646 -0.0851 -0.2714 -0.4699
   89SAPE   H3X 8676   3.338   2.967   7.656  0.4233 -0.4887 -1.6442
   89SAPE   H3Y 8677   3.468   3.083   7.639 -0.0670  0.7749  0.5977
   89SAPE   C34 8678   3.309   3.117   7.507  0.7837  0.4109 -0.6437
   89SAPE   H4X 8679   3.309   3.225   7.482 -2.0605  0.9458  1.1359
   89SAPE   H4Y 8680   3.203   3.083   7.509  1.0846 -0.5606 -0.5950
   89SAPE   C35 8681   3.369   3.025   7.397 -0.2001  0.0864  0.5104
   89SAPE   H5X 8682   3.358   2.920   7.431 -1.0666 -0.9509 -2.6662
   89SAPE   H5Y 8683   3.474   3.052   7.370 -0.2699  0.8024  0.9230
   89SAPE   C36 8684   3.282   3.048   7.269  0.2042  0.9754  0.2997
   89SAPE   H6X 8685   3.290   3.157   7.249  1.1187  0.6617 -1.1939
   89SAPE   H6Y 8686   3.177   3.026   7.299  0.0658  1.5550  0.2531
   89SAPE   C37 8687   3.310   2.962   7.144  0.5949  0.2302  0.2804
   89SAPE   H7X 8688   3.218   2.964   7.083  0.7797  0.6921  0.0108
   89SAPE   H7Y 8689   3.321   2.859   7.186 -0.0124  0.2837  0.5718
   89SAPE   C38 8690   3.427   3.004   7.061 -0.7763 -0.4938  0.2982
   89SAPE   H8X 8691   3.517   2.987   7.124 -0.0733 -1.0837 -0.8257
   89SAPE   H8Y 8692   3.406   3.108   7.029  1.4703  0.0689  0.4754
   89SAPE   C39 8693   3.457   2.911   6.945  0.2206  0.1367  0.0238
   89SAPE   H9X 8694   3.462   2.803   6.973  1.1359  0.3287  0.6651
   89SAPE   H9Y 8695   3.563   2.931   6.918  0.2082 -0.5537 -0.5817
   89SAPE  C310 8696   3.371   2.933   6.809 -0.1927  0.7257  0.0822
   89SAPE  H10X 8697   3.404   3.030   6.767  1.4752 -0.0510 -0.4581
   89SAPE  H10Y 8698   3.260   2.928   6.822 -0.0815  0.2391  0.9384
   89SAPE  C311 8699   3.389   2.824   6.706 -0.2255  0.0135 -0.5051
   89SAPE  H11X 8700   3.374   2.724   6.753  1.6862  0.7534  1.8456
   89SAPE  H11Y 8701   3.496   2.823   6.677 -0.3461 -1.1815 -0.9703
   89SAPE  C312 8702   3.300   2.839   6.587 -0.1547 -0.4337 -0.1862
   89SAPE  H12X 8703   3.327   2.939   6.546  1.1511 -0.5234  0.3947
   89SAPE  H12Y 8704   3.196   2.839   6.626 -0.9010 -2.2570 -1.9837
   89SAPE  C313 8705   3.328   2.746   6.472  0.3483  0.1642 -0.2363
   89SAPE  H13X 8706   3.277   2.651   6.497 -1.1388  0.5793 -1.4959
   89SAPE  H13Y 8707   3.437   2.728   6.474  1.2613  4.4849  0.1422
   89SAPE  C314 8708   3.300   2.799   6.332  0.3868  0.0407  0.6201
   89SAPE  H14X 8709   3.362   2.889   6.314  0.4230  0.8288  3.9779
   89SAPE  H14Y 8710   3.195   2.835   6.340  1.2813  2.6245  1.7828
   89SAPE  C315 8711   3.314   2.688   6.236 -0.4430  0.6371 -0.3486
   89SAPE  H15X 8712   3.259   2.594   6.260  2.1351 -0.7828  0.3808
   89SAPE  H15Y 8713   3.422   2.664   6.247 -0.8538 -1.5670 -0.5077
   89SAPE  C316 8714   3.270   2.714   6.097 -0.0034 -0.7205  0.2752
   89SAPE  H16X 8715   3.320   2.809   6.068  0.6534 -0.9429  0.6542
   89SAPE  H16Y 8716   3.161   2.732   6.090  0.0986  0.6895  1.7047
   89SAPE  C317 8717   3.307   2.596   6.002  0.0010  0.6004  0.2754
   89SAPE  H17X 8718   3.247   2.604   5.909  0.1812  0.7795  0.1714
   89SAPE  H17Y 8719   3.273   2.502   6.049  0.6532  0.1720 -0.0893
   89SAPE  C318 8720   3.457   2.584   5.975  0.1080  0.3922  0.6693
   89SAPE  H18X 8721   3.511   2.589   6.072  0.2208  0.7535  0.5907
   89SAPE  H18Y 8722   3.497   2.656   5.900 -1.6489  1.0995  0.3704
   89SAPE  H18Z 8723   3.486   2.482   5.942 -0.9608  0.0315  0.7999
   90SAPE     N 8724   4.451   2.123   8.036 -0.0015 -0.6256  0.4286
   90SAPE   HN1 8725   4.502   2.070   8.110  1.5802  0.7900  0.4330
   90SAPE   HN2 8726   4.521   2.162   7.970  1.2575 -0.1826  1.9777
   90SAPE   HN3 8727   4.391   2.197   8.079 -0.3056 -0.6916  0.1267
   90SAPE   C12 8728   4.364   2.023   7.961 -0.1364  0.3859 -0.7555
   90SAPE  H12A 8729   4.305   2.077   7.884 -1.4850  0.1660  0.1010
   90SAPE  H12B 8730   4.295   1.987   8.039  2.7040 -1.7596  0.9516
   90SAPE   C11 8731   4.450   1.908   7.902  0.6161 -0.1398  0.6591
   90SAPE  H11A 8732   4.491   1.952   7.808 -2.7462  0.7646 -0.5276
   90SAPE  H11B 8733   4.396   1.821   7.860 -0.3242  1.0295 -0.6599
   90SAPE     P 8734   4.517   1.751   8.101 -0.1326 -0.3832  0.2865
   90SAPE   O13 8735   4.625   1.739   8.202  0.0794  0.2992 -0.3254
   90SAPE   O14 8736   4.381   1.768   8.145 -0.3419  0.0775  0.9550
   90SAPE   O12 8737   4.550   1.869   7.995  0.0693  0.4390 -0.2043
   90SAPE   O11 8738   4.510   1.617   8.013 -0.7587  0.4622  0.0575
   90SAPE    C1 8739   4.601   1.612   7.899 -0.3753 -0.5367 -0.9897
   90SAPE    HA 8740   4.583   1.690   7.822 -0.0618  0.4813 -0.0524
   90SAPE    HB 8741   4.706   1.622   7.934 -1.0883  1.6203  0.7617
   90SAPE    C2 8742   4.591   1.477   7.825 -0.1051 -0.1293  0.5570
   90SAPE    HS 8743   4.661   1.476   7.739 -1.7566 -1.8873 -0.8679
   90SAPE   O21 8744   4.458   1.457   7.772 -0.6219 -0.1502  0.0515
   90SAPE   C21 8745   4.444   1.511   7.649 -0.0999 -0.2918 -0.5745
   90SAPE   O22 8746   4.529   1.579   7.593 -0.0543 -0.8009  0.1032
   90SAPE   C22 8747   4.312   1.462   7.591  0.4455 -0.1812 -0.8300
   90SAPE   H2R 8748   4.319   1.352   7.577 -0.6496 -0.4516  0.5163
   90SAPE   H2S 8749   4.235   1.484   7.668  1.3911 -0.9750  0.3881
   90SAPE    C3 8750   4.617   1.360   7.919 -0.3406 -0.1299 -0.3504
   90SAPE    HX 8751   4.527   1.331   7.978  0.9792  0.1278  1.9298
   90SAPE    HY 8752   4.690   1.386   7.999  0.0193 -1.0669 -0.3627
   90SAPE   O31 8753   4.678   1.258   7.836  0.2738 -0.1158  0.2968
   90SAPE   C31 8754   4.807   1.267   7.815  0.1930 -0.4306 -0.1708
   90SAPE   O32 8755   4.884   1.354   7.850 -0.1606  0.0531  0.5879
   90SAPE   C32 8756   4.856   1.158   7.709  0.6994 -0.2383 -0.0978
   90SAPE   H2X 8757   4.855   1.053   7.747  3.9590 -1.8428 -3.8264
   90SAPE   H2Y 8758   4.960   1.191   7.693  1.4604 -1.3942  2.0517
   90SAPE   C23 8759   4.261   1.543   7.466  0.1887  0.2438  0.4896
   90SAPE   H3R 8760   4.295   1.647   7.482 -1.3167  0.9833 -0.8953
   90SAPE   H3S 8761   4.152   1.524   7.464  0.3093 -0.4676 -0.0192
   90SAPE   C24 8762   4.328   1.488   7.332 -0.2978  0.2807 -0.3548
   90SAPE   H4R 8763   4.290   1.387   7.305 -2.3194  1.0047 -0.3874
   90SAPE   H4S 8764   4.438   1.487   7.341  0.1458  2.5103 -3.8066
   90SAPE   C25 8765   4.310   1.588   7.219  0.4434  0.6645 -0.5391
   90SAPE   H5R 8766   4.398   1.654   7.210  1.4016 -0.5375 -0.2492
   90SAPE   C26 8767   4.206   1.597   7.137 -0.4409 -0.8112 -0.4007
   90SAPE   H6R 8768   4.205   1.673   7.057 -0.3146  0.2734  0.5954
   90SAPE   C27 8769   4.091   1.499   7.121  0.4219 -0.4332  0.4077
   90SAPE   H7R 8770   3.994   1.554   7.113  0.4331 -0.5163 -0.4213
   90SAPE   H7S 8771   4.071   1.436   7.211 -0.7638 -0.4059  0.1877
   90SAPE   C28 8772   4.109   1.409   7.001 -0.1120  0.0991 -0.1119
   90SAPE   H8R 8773   4.174   1.324   7.028 -0.6390  0.0792  1.2012
   90SAPE   C29 8774   4.078   1.431   6.871 -0.0944 -0.3839  0.3653
   90SAPE   H9R 8775   4.092   1.352   6.797 -0.2956 -0.3128  0.2493
   90SAPE  C210 8776   4.003   1.547   6.814  0.2428  0.4950 -1.0949
   90SAPE  H10R 8777   4.065   1.592   6.733  0.0857  0.0129 -1.4885
   90SAPE  H10S 8778   4.002   1.629   6.889 -0.2286  0.4462 -1.0436
   90SAPE  C211 8779   3.861   1.515   6.767 -0.3876 -0.1880  0.5967
   90SAPE  H11R 8780   3.781   1.521   6.841  0.0074 -2.5860  1.3096
   90SAPE  C212 8781   3.833   1.445   6.657  0.7479 -0.0003 -0.7663
   90SAPE  H12R 8782   3.726   1.427   6.642  0.1379  1.5651  1.2736
   90SAPE  C213 8783   3.927   1.395   6.553  0.6267  0.2222  0.0201
   90SAPE  H13R 8784   3.897   1.288   6.556 -1.3611  0.7166  2.9299
   90SAPE  H13S 8785   4.034   1.407   6.581  1.2676 -0.5554 -1.9215
   90SAPE  C214 8786   3.909   1.458   6.414  0.3489 -0.6401  0.6155
   90SAPE  H14R 8787   3.821   1.523   6.402  1.3994  0.7232 -0.0437
   90SAPE  C215 8788   3.992   1.438   6.305 -0.6327 -0.5518 -0.5436
   90SAPE  H15R 8789   3.962   1.484   6.210  0.4823  0.5802 -0.3779
   90SAPE  C216 8790   4.119   1.356   6.307  0.7960  0.1908  0.2124
   90SAPE  H16R 8791   4.098   1.259   6.357 -0.3168 -0.3484 -1.2480
   90SAPE  H16S 8792   4.189   1.412   6.373  0.8323  1.6034 -0.9831
   90SAPE  C217 8793   4.179   1.323   6.169  0.4421 -0.7099  0.3669
   90SAPE  H17R 8794   4.276   1.271   6.185  0.4477 -0.2657  1.8311
   90SAPE  H17S 8795   4.218   1.413   6.117 -0.2060 -1.5102 -1.5985
   90SAPE  C218 8796   4.095   1.246   6.064  0.5937 -0.2239  0.0299
   90SAPE  H18R 8797   4.150   1.247   5.968 -0.7655  1.1778 -0.7892
   90SAPE  H18S 8798   4.011   1.311   6.034 -0.2973  0.3307  3.3478
   90SAPE  C219 8799   4.047   1.106   6.106 -0.6261 -0.0741  0.0011
   90SAPE  H19R 8800   3.970   1.106   6.186 -0.6983 -0.0494 -0.0681
   90SAPE  H19S 8801   4.134   1.047   6.140 -0.7801 -0.6735 -0.6151
   90SAPE  C220 8802   3.993   1.019   5.990  0.0947 -0.7207 -1.0376
   90SAPE  H20R 8803   4.081   0.962   5.953 -0.3410 -2.6366  0.7369
   90SAPE  H20S 8804   3.937   1.079   5.915 -0.4870  0.5060  0.3202
   90SAPE  H20T 8805   3.913   0.958   6.036  0.8845 -0.1207  1.2690
   90SAPE   C33 8806   4.761   1.167   7.588  0.0805 -0.3954 -0.4219
   90SAPE   H3X 8807   4.748   1.272   7.557  0.3869 -0.6678 -1.5013
   90SAPE   H3Y 8808   4.665   1.132   7.634  0.6471  0.2998  1.3684
   90SAPE   C34 8809   4.798   1.092   7.465  0.2360  0.0744 -0.2035
   90SAPE   H4X 8810   4.851   1.000   7.500  0.2993  0.3716  0.4908
   90SAPE   H4Y 8811   4.873   1.148   7.405  0.9179 -1.3831 -0.7692
   90SAPE   C35 8812   4.686   1.054   7.371 -0.1902  0.1726 -0.4583
   90SAPE   H5X 8813   4.651   0.961   7.420 -0.5220  0.6116  0.1591
   90SAPE   H5Y 8814   4.740   1.029   7.277  1.4945 -0.0454  0.5224
   90SAPE   C36 8815   4.576   1.157   7.350  0.0951  0.1013 -0.0378
   90SAPE   H6X 8816   4.624   1.256   7.337  1.1208 -0.1668  1.5340
   90SAPE   H6Y 8817   4.524   1.156   7.448  0.5164 -1.6486  0.1959
   90SAPE   C37 8818   4.484   1.119   7.241 -0.0492 -0.8589 -0.0223
   90SAPE   H7X 8819   4.378   1.144   7.261  0.5474  2.2983 -0.3067
   90SAPE   H7Y 8820   4.486   1.012   7.211 -4.0793 -0.8553 -0.7820
   90SAPE   C38 8821   4.520   1.205   7.120  0.1380 -0.7020 -0.5543
   90SAPE   H8X 8822   4.630   1.211   7.104  0.2768  2.5179  0.8968
   90SAPE   H8Y 8823   4.494   1.309   7.148  0.0553 -1.3148  1.8491
   90SAPE   C39 8824   4.461   1.167   6.977  0.3034  0.0146  0.0682
   90SAPE   H9X 8825   4.352   1.180   6.957  0.5819 -0.7063 -2.2366
   90SAPE   H9Y 8826   4.496   1.063   6.958 -1.4778 -0.8781  1.3513
   90SAPE  C310 8827   4.530   1.256   6.867  0.7815  0.1149 -0.5205
   90SAPE  H10X 8828   4.641   1.266   6.877  0.8296 -0.7540 -0.0357
   90SAPE  H10Y 8829   4.499   1.362   6.875  0.7659  0.1093 -0.5086
   90SAPE  C311 8830   4.491   1.201   6.728 -0.2003 -0.8499  0.5769
   90SAPE  H11X 8831   4.381   1.185   6.727 -0.5427  1.0081  2.0033
   90SAPE  H11Y 8832   4.537   1.101   6.717 -0.4517 -1.0315  1.1365
   90SAPE  C312 8833   4.550   1.296   6.617  0.3790  0.5353  0.2290
   90SAPE  H12X 8834   4.654   1.317   6.653 -0.0986  0.6063  1.6473
   90SAPE  H12Y 8835   4.492   1.388   6.596  0.0093  0.0540 -0.9127
   90SAPE  C313 8836   4.563   1.214   6.481 -0.1460  0.0200 -0.3140
   90SAPE  H13X 8837   4.622   1.122   6.501 -2.2414 -1.3666 -0.1858
   90SAPE  H13Y 8838   4.620   1.289   6.421  0.8359  1.4435  2.2346
   90SAPE  C314 8839   4.430   1.179   6.415  0.5054 -0.7036 -0.3304
   90SAPE  H14X 8840   4.384   1.277   6.388 -0.2709 -1.1214 -0.5635
   90SAPE  H14Y 8841   4.374   1.141   6.503  0.3172  0.3864  0.0382
   90SAPE  C315 8842   4.435   1.078   6.308  0.1174 -0.3824 -0.0542
   90SAPE  H15X 8843   4.333   1.049   6.277 -0.3229  2.3312 -1.4184
   90SAPE  H15Y 8844   4.482   0.984   6.344  1.6909  0.4848  0.2753
   90SAPE  C316 8845   4.519   1.131   6.186 -0.6090  0.1759  0.7989
   90SAPE  H16X 8846   4.628   1.117   6.202 -0.1865  1.0989 -1.0058
   90SAPE  H16Y 8847   4.490   1.236   6.168  2.1756  0.7724 -0.9250
   90SAPE  C317 8848   4.488   1.038   6.067 -0.2912 -0.2147 -0.1233
   90SAPE  H17X 8849   4.546   1.082   5.983  3.9105 -0.8686  2.1596
   90SAPE  H17Y 8850   4.379   1.024   6.045 -0.3498 -0.1930  0.1495
   90SAPE  C318 8851   4.544   0.898   6.076 -0.3106 -0.3923 -0.2686
   90SAPE  H18X 8852   4.483   0.830   6.140 -0.9770  0.6634  0.2367
   90SAPE  H18Y 8853   4.642   0.912   6.126 -0.9981 -0.9517  1.2854
   90SAPE  H18Z 8854   4.559   0.859   5.973  1.2983  1.7081 -0.8862
   91SAPE     N 8855   2.039   6.838   0.045  0.2012  0.6564  0.3719
   91SAPE   HN1 8856   2.005   6.923   0.094  0.4668  0.4516  0.9130
   91SAPE   HN2 8857   1.980   6.754   0.057 -0.0365  0.7736  0.0391
   91SAPE   HN3 8858   2.132   6.809   0.080  0.2378 -0.9155 -0.9306
   91SAPE   C12 8859   2.033   6.877  -0.101 -0.2620  0.3716 -0.4389
   91SAPE  H12A 8860   1.994   6.786  -0.153  0.1757 -1.4619  2.2462
   91SAPE  H12B 8861   2.136   6.901  -0.136 -0.2664  0.7419 -0.1992
   91SAPE   C11 8862   1.933   6.996  -0.124  0.1647  0.9735 -0.0104
   91SAPE  H11A 8863   1.835   6.955  -0.091 -0.1274  0.5682 -1.3112
   91SAPE  H11B 8864   1.921   7.024  -0.231 -1.7223 -2.3103 -0.8061
   91SAPE     P 8865   1.879   7.233  -0.029 -0.2859 -0.6042  0.1685
   91SAPE   O13 8866   1.735   7.199  -0.022  0.0299  0.9713 -0.3181
   91SAPE   O14 8867   1.936   7.307   0.084  0.5491 -0.0917 -0.1343
   91SAPE   O12 8868   1.968   7.103  -0.037 -0.7049  0.2688  0.3162
   91SAPE   O11 8869   1.899   7.327  -0.157 -0.1115 -0.1857  0.0411
   91SAPE    C1 8870   2.034   7.354  -0.197  0.2351 -0.3676 -0.1289
   91SAPE    HA 8871   2.073   7.423  -0.119 -1.5388  0.0303  0.4440
   91SAPE    HB 8872   2.099   7.264  -0.189 -0.5743 -1.1653 -2.0344
   91SAPE    C2 8873   2.048   7.403  -0.342 -0.0963  0.2835 -0.6140
   91SAPE    HS 8874   1.987   7.495  -0.353  0.6731  0.7357 -1.2471
   91SAPE   O21 8875   2.008   7.285  -0.431  0.6221 -0.3668 -0.1075
   91SAPE   C21 8876   1.970   7.325  -0.551  0.8275  0.7471 -0.5754
   91SAPE   O22 8877   1.941   7.440  -0.588 -0.4217 -0.3227 -0.7973
   91SAPE   C22 8878   1.958   7.203  -0.641  0.1174  0.1253  0.1018
   91SAPE   H2R 8879   2.024   7.119  -0.610 -1.7122 -0.4239  2.8943
   91SAPE   H2S 8880   1.853   7.169  -0.640  0.3702 -1.0748 -3.0864
   91SAPE    C3 8881   2.198   7.452  -0.360  0.2096  0.9067 -0.8939
   91SAPE    HX 8882   2.256   7.358  -0.348 -0.2969  0.6155 -0.6880
   91SAPE    HY 8883   2.231   7.525  -0.283 -0.9299  2.0508 -1.4508
   91SAPE   O31 8884   2.221   7.498  -0.497  0.3289  0.1644  0.7128
   91SAPE   C31 8885   2.172   7.617  -0.530  0.5809 -0.2222 -0.5324
   91SAPE   O32 8886   2.130   7.701  -0.451  0.0514 -0.1024  0.0419
   91SAPE   C32 8887   2.181   7.634  -0.689  0.3559  0.3514 -0.4327
   91SAPE   H2X 8888   2.186   7.742  -0.715 -1.4715  0.3035 -1.1250
   91SAPE   H2Y 8889   2.092   7.587  -0.735  1.3464 -0.5674 -1.4800
   91SAPE   C23 8890   1.982   7.249  -0.790  0.6802 -0.0912 -0.2329
   91SAPE   H3R 8891   2.088   7.279  -0.798  0.4234  1.0473  0.4231
   91SAPE   H3S 8892   1.924   7.342  -0.809  0.4401  0.2340  1.8543
   91SAPE   C24 8893   1.967   7.143  -0.899  0.4842 -0.6827  0.3087
   91SAPE   H4R 8894   2.024   7.052  -0.872  2.6094  0.5497  0.2029
   91SAPE   H4S 8895   2.011   7.180  -0.994 -1.3619 -3.8415 -1.9988
   91SAPE   C25 8896   1.823   7.121  -0.926 -0.5498 -0.0404 -0.7123
   91SAPE   H5R 8897   1.761   7.132  -0.835 -1.4900 -0.0037 -1.3478
   91SAPE   C26 8898   1.770   7.109  -1.048  0.2708 -0.6385  0.2976
   91SAPE   H6R 8899   1.660   7.117  -1.056  0.2677  1.3692  1.6595
   91SAPE   C27 8900   1.851   7.112  -1.179 -0.0676  0.5298  0.6575
   91SAPE   H7R 8901   1.960   7.126  -1.161 -0.2043  1.6991  0.6713
   91SAPE   H7S 8902   1.827   7.202  -1.239 -1.0819  1.8063  2.8482
   91SAPE   C28 8903   1.822   6.986  -1.259 -0.3089  0.3802 -0.3728
   91SAPE   H8R 8904   1.784   6.905  -1.194 -0.4086  1.4768  0.9832
   91SAPE   C29 8905   1.820   6.973  -1.396 -0.2641 -0.1402  0.4918
   91SAPE   H9R 8906   1.805   6.871  -1.432  0.7105 -0.4687  0.9915
   91SAPE  C210 8907   1.851   7.067  -1.511 -0.4039 -0.3258  0.7119
   91SAPE  H10R 8908   1.842   7.171  -1.474 -1.8038 -0.2136  0.1142
   91SAPE  H10S 8909   1.768   7.059  -1.585  0.1170 -0.6978  0.1560
   91SAPE  C211 8910   1.982   7.047  -1.578  0.3849  0.3538 -0.2168
   91SAPE  H11R 8911   2.064   7.046  -1.504  0.4212  0.4234 -0.2558
   91SAPE  C212 8912   2.020   7.043  -1.705  0.1050  0.3173  0.3679
   91SAPE  H12R 8913   2.128   7.027  -1.719 -0.1361 -0.1362 -1.1478
   91SAPE  C213 8914   1.928   7.062  -1.820  0.2045 -0.0283 -0.6249
   91SAPE  H13R 8915   1.979   7.115  -1.903 -0.4567  0.0594 -0.9823
   91SAPE  H13S 8916   1.842   7.123  -1.783 -0.1405 -0.0883 -1.3070
   91SAPE  C214 8917   1.865   6.931  -1.868 -0.2727 -0.7973 -0.1943
   91SAPE  H14R 8918   1.921   6.837  -1.859 -1.4719 -1.7063 -1.7556
   91SAPE  C215 8919   1.753   6.916  -1.945 -0.4641  0.6672 -0.0604
   91SAPE  H15R 8920   1.730   6.812  -1.971 -0.9212  0.7819 -0.1230
   91SAPE  C216 8921   1.670   7.033  -1.998  0.6425  0.7657 -0.7299
   91SAPE  H16R 8922   1.599   7.076  -1.926  1.3913 -0.6103  0.9052
   91SAPE  H16S 8923   1.602   6.986  -2.072 -0.8634  1.6405  0.0598
   91SAPE  C217 8924   1.750   7.128  -2.085 -0.6188 -0.1406  1.3121
   91SAPE  H17R 8925   1.835   7.166  -2.023  0.0968  1.1421 -0.3939
   91SAPE  H17S 8926   1.693   7.220  -2.110 -2.0979 -1.3595  0.1000
   91SAPE  C218 8927   1.802   7.065  -2.219  0.2787  0.1643 -0.2045
   91SAPE  H18R 8928   1.724   7.028  -2.289 -2.0597  1.6077  1.4693
   91SAPE  H18S 8929   1.854   6.971  -2.191 -0.3572 -0.1577 -0.0819
   91SAPE  C219 8930   1.901   7.153  -2.298 -0.0598  0.1946 -0.3215
   91SAPE  H19R 8931   1.935   7.082  -2.376  0.0453 -2.5765  2.0878
   91SAPE  H19S 8932   1.982   7.180  -2.227  0.3454 -0.0577 -0.6814
   91SAPE  C220 8933   1.839   7.280  -2.359 -0.5874 -0.5386 -0.7585
   91SAPE  H20R 8934   1.914   7.331  -2.423  1.9885 -0.1404  2.3420
   91SAPE  H20S 8935   1.798   7.352  -2.284 -0.1884 -1.0546 -0.0406
   91SAPE  H20T 8936   1.764   7.257  -2.438  0.7799 -1.9048 -1.6914
   91SAPE   C33 8937   2.301   7.556  -0.751  0.3582 -0.2733 -0.5384
   91SAPE   H3X 8938   2.273   7.449  -0.769 -0.1650 -0.2914  0.3078
   91SAPE   H3Y 8939   2.383   7.560  -0.677  1.2292  1.6559 -1.5439
   91SAPE   C34 8940   2.350   7.618  -0.878  0.1536 -0.7313 -0.0928
   91SAPE   H4X 8941   2.432   7.552  -0.914  1.5408  0.4454  0.8202
   91SAPE   H4Y 8942   2.395   7.717  -0.856 -0.9554  0.0968 -1.3689
   91SAPE   C35 8943   2.243   7.635  -0.985 -0.7813 -0.2095  0.1549
   91SAPE   H5X 8944   2.160   7.684  -0.930  1.2793  0.3236  3.0655
   91SAPE   H5Y 8945   2.208   7.533  -1.012  1.4054 -0.9643 -0.0294
   91SAPE   C36 8946   2.295   7.733  -1.094 -0.3763  0.3225  0.4279
   91SAPE   H6X 8947   2.314   7.837  -1.061  1.6072  0.2494 -0.4018
   91SAPE   H6Y 8948   2.219   7.736  -1.176  0.6971  0.9008 -0.5687
   91SAPE   C37 8949   2.425   7.677  -1.160  0.1473 -0.2476 -0.0705
   91SAPE   H7X 8950   2.402   7.582  -1.212  1.6445  0.3360 -1.9185
   91SAPE   H7Y 8951   2.510   7.667  -1.089 -0.4855 -0.6961  0.6393
   91SAPE   C38 8952   2.456   7.766  -1.289  0.1154 -0.0385 -0.4047
   91SAPE   H8X 8953   2.561   7.758  -1.325 -0.2159  0.4505 -1.5257
   91SAPE   H8Y 8954   2.413   7.866  -1.271  0.9038  0.3457 -0.6428
   91SAPE   C39 8955   2.367   7.720  -1.409  0.2933  0.1806  0.7009
   91SAPE   H9X 8956   2.264   7.695  -1.374 -1.5002  2.0769 -2.6745
   91SAPE   H9Y 8957   2.417   7.631  -1.451  2.4791  1.7536 -0.2611
   91SAPE  C310 8958   2.360   7.823  -1.528  0.5809 -0.3524 -0.1020
   91SAPE  H10X 8959   2.465   7.833  -1.562  0.0610  0.6915 -1.5171
   91SAPE  H10Y 8960   2.330   7.919  -1.480  3.5268 -0.4010  2.0901
   91SAPE  C311 8961   2.305   7.783  -1.663 -0.4061  0.2361 -0.1584
   91SAPE  H11X 8962   2.194   7.784  -1.660 -0.3888  0.2859  1.8446
   91SAPE  H11Y 8963   2.340   7.683  -1.697  3.2345  1.8005 -1.5674
   91SAPE  C312 8964   2.363   7.877  -1.771  0.0715 -0.0953 -0.4979
   91SAPE  H12X 8965   2.474   7.880  -1.771  0.0802  0.5630 -2.4233
   91SAPE  H12Y 8966   2.329   7.981  -1.752 -1.5375 -0.8882  1.3512
   91SAPE  C313 8967   2.324   7.847  -1.914  0.0843 -0.5298  0.5771
   91SAPE  H13X 8968   2.214   7.853  -1.928  0.1618  0.7671  0.4385
   91SAPE  H13Y 8969   2.339   7.737  -1.916 -2.2555 -0.9574  2.6181
   91SAPE  C314 8970   2.395   7.921  -2.034  0.1948 -0.0345 -0.4698
   91SAPE  H14X 8971   2.501   7.943  -2.009  0.0594 -0.5084  0.5751
   91SAPE  H14Y 8972   2.347   8.021  -2.026  0.8457  0.2149  0.5417
   91SAPE  C315 8973   2.378   7.838  -2.162 -0.8544  0.5939 -0.3260
   91SAPE  H15X 8974   2.333   7.737  -2.148 -0.2906  0.0419 -2.2981
   91SAPE  H15Y 8975   2.483   7.829  -2.194  0.5510  0.9652  3.6167
   91SAPE  C316 8976   2.300   7.915  -2.274 -0.1991 -0.3924  0.0889
   91SAPE  H16X 8977   2.316   8.023  -2.255  0.6897 -0.5829  0.4863
   91SAPE  H16Y 8978   2.189   7.910  -2.282 -0.2311 -0.4983  0.5974
   91SAPE  C317 8979   2.341   7.876  -2.420 -0.0488  0.1909  0.0205
   91SAPE  H17X 8980   2.246   7.867  -2.477  0.8634  1.6444 -1.8807
   91SAPE  H17Y 8981   2.397   7.781  -2.429 -2.2136 -1.1701  0.3296
   91SAPE  C318 8982   2.413   7.995  -2.485 -0.2434  0.2738 -0.5952
   91SAPE  H18X 8983   2.455   7.963  -2.582  1.8463 -2.4100  1.0378
   91SAPE  H18Y 8984   2.493   8.033  -2.417 -1.5301  0.2562  0.9907
   91SAPE  H18Z 8985   2.343   8.078  -2.507 -0.4479 -0.4534 -2.8894
   92SAPE     N 8986   2.362   5.478   7.985  0.2314  0.1693 -0.5710
   92SAPE   HN1 8987   2.270   5.513   8.018  0.6138  0.9870 -0.3569
   92SAPE   HN2 8988   2.351   5.375   7.976 -2.1285  0.3017  0.0754
   92SAPE   HN3 8989   2.440   5.498   8.050  1.0997 -3.9196 -0.0527
   92SAPE   C12 8990   2.391   5.541   7.848 -0.0327 -1.3500 -0.7876
   92SAPE  H12A 8991   2.320   5.499   7.773  0.5184 -2.3365 -0.7686
   92SAPE  H12B 8992   2.495   5.520   7.814  1.4489  2.9277  0.3868
   92SAPE   C11 8993   2.400   5.699   7.850  0.6931  0.7045 -0.6152
   92SAPE  H11A 8994   2.299   5.727   7.888  0.6189  1.1450 -1.1250
   92SAPE  H11B 8995   2.410   5.732   7.744 -1.5382 -0.6449 -1.3210
   92SAPE     P 8996   2.477   5.832   8.069  0.0445 -0.5329 -0.6452
   92SAPE   O13 8997   2.340   5.822   8.122 -0.2803  0.1633  0.3615
   92SAPE   O14 8998   2.573   5.798   8.176  0.1435 -0.0989  0.0667
   92SAPE   O12 8999   2.509   5.750   7.937  0.0242  0.5902 -0.2771
   92SAPE   O11 9000   2.512   5.975   8.010  0.2781  0.0077  0.7641
   92SAPE    C1 9001   2.638   6.021   7.967  0.3442  0.8549  0.0487
   92SAPE    HA 9002   2.686   6.083   8.045 -0.2655  0.9269  0.3694
   92SAPE    HB 9003   2.703   5.935   7.938 -0.6194  0.9147 -2.5573
   92SAPE    C2 9004   2.625   6.102   7.837 -0.1064 -0.4044  0.3044
   92SAPE    HS 9005   2.726   6.129   7.797 -0.9220  1.3900 -0.6909
   92SAPE   O21 9006   2.546   6.224   7.848  0.3095  0.5375  0.1962
   92SAPE   C21 9007   2.598   6.335   7.890  0.3083  0.1464 -0.6976
   92SAPE   O22 9008   2.709   6.358   7.931  0.1991  0.2681 -1.1968
   92SAPE   C22 9009   2.495   6.449   7.881  0.5437 -0.3492 -0.4130
   92SAPE   H2R 9010   2.398   6.412   7.841 -0.3332  0.4698  0.8925
   92SAPE   H2S 9011   2.492   6.484   7.986  2.0901  0.6521 -0.6737
   92SAPE    C3 9012   2.580   6.011   7.725  0.3183 -0.2575 -0.7649
   92SAPE    HX 9013   2.472   5.999   7.748  0.8086 -0.2576  1.7852
   92SAPE    HY 9014   2.623   5.908   7.722  1.9823  0.3030  1.4529
   92SAPE   O31 9015   2.607   6.083   7.611  0.1199 -0.1923 -0.1195
   92SAPE   C31 9016   2.533   6.045   7.509  0.4221  0.4499 -0.2416
   92SAPE   O32 9017   2.445   5.957   7.507 -0.1714 -0.0579 -0.4157
   92SAPE   C32 9018   2.574   6.127   7.385 -0.4085 -0.2070  0.2288
   92SAPE   H2X 9019   2.539   6.231   7.400  1.8943  0.7785 -0.8481
   92SAPE   H2Y 9020   2.512   6.092   7.300  1.8006 -2.7148 -0.5055
   92SAPE   C23 9021   2.540   6.570   7.784 -0.5671 -0.6902  0.0432
   92SAPE   H3R 9022   2.642   6.593   7.823 -1.4977  3.5121  0.4284
   92SAPE   H3S 9023   2.469   6.654   7.797 -0.8031 -0.9012  0.1131
   92SAPE   C24 9024   2.539   6.534   7.634 -0.4251  0.1833  0.1431
   92SAPE   H4R 9025   2.449   6.473   7.611  0.2076 -0.1796 -1.5404
   92SAPE   H4S 9026   2.629   6.473   7.610 -0.0699  0.9041 -0.3739
   92SAPE   C25 9027   2.533   6.660   7.550 -0.4092 -0.3102 -0.6795
   92SAPE   H5R 9028   2.630   6.713   7.548 -0.0367 -0.7885  1.5151
   92SAPE   C26 9029   2.420   6.708   7.482 -0.1317 -0.0822  0.3999
   92SAPE   H6R 9030   2.440   6.796   7.419  2.2701 -1.3565 -0.7740
   92SAPE   C27 9031   2.284   6.651   7.475  0.2403 -0.0021  1.1470
   92SAPE   H7R 9032   2.253   6.586   7.560 -2.7103  0.6891  0.7114
   92SAPE   H7S 9033   2.278   6.580   7.389 -1.9623 -0.2651  1.4576
   92SAPE   C28 9034   2.165   6.746   7.457 -0.4694  0.4673 -0.0486
   92SAPE   H8R 9035   2.128   6.776   7.556 -1.8085  2.8733 -1.2037
   92SAPE   C29 9036   2.127   6.811   7.345  0.1511 -0.1048  0.5591
   92SAPE   H9R 9037   2.050   6.888   7.356 -0.8202 -1.0793  0.7730
   92SAPE  C210 9038   2.169   6.766   7.205 -0.4177 -0.0057  0.0547
   92SAPE  H10R 9039   2.081   6.782   7.139 -0.3304 -1.4070 -0.4270
   92SAPE  H10S 9040   2.198   6.659   7.207  1.9029  0.5675  0.1268
   92SAPE  C211 9041   2.295   6.837   7.158 -0.4267 -0.5205  0.0657
   92SAPE  H11R 9042   2.327   6.925   7.215 -1.1212 -1.4166  1.9227
   92SAPE  C212 9043   2.374   6.794   7.059  0.2658  0.0489  0.7648
   92SAPE  H12R 9044   2.463   6.856   7.045 -1.6095  2.7655  0.0373
   92SAPE  C213 9045   2.350   6.674   6.973 -0.3650  0.1017  0.4389
   92SAPE  H13R 9046   2.323   6.581   7.028  1.4118 -1.8548 -1.7946
   92SAPE  H13S 9047   2.449   6.647   6.931 -0.2359 -1.4559  1.6780
   92SAPE  C214 9048   2.253   6.706   6.859 -0.3433 -0.0465 -0.5269
   92SAPE  H14R 9049   2.215   6.809   6.853  0.9612  0.4758 -0.0128
   92SAPE  C215 9050   2.227   6.627   6.758 -0.4569 -0.7280 -0.0162
   92SAPE  H15R 9051   2.154   6.670   6.689 -0.8602 -0.2993  0.6709
   92SAPE  C216 9052   2.270   6.476   6.740 -0.0866 -0.0128 -0.0345
   92SAPE  H16R 9053   2.181   6.411   6.725  0.9688 -1.7722  0.8707
   92SAPE  H16S 9054   2.315   6.439   6.835 -1.6645 -0.9958  0.3613
   92SAPE  C217 9055   2.354   6.465   6.610  0.4276 -0.0371 -0.2763
   92SAPE  H17R 9056   2.304   6.508   6.521  0.2906 -1.6276 -0.9971
   92SAPE  H17S 9057   2.360   6.359   6.577  1.2209 -0.1770  0.2890
   92SAPE  C218 9058   2.495   6.520   6.622 -0.5479 -0.5453 -0.4860
   92SAPE  H18R 9059   2.534   6.496   6.723  0.5094 -0.9736 -0.9774
   92SAPE  H18S 9060   2.486   6.631   6.624 -0.0091 -0.4742 -1.3305
   92SAPE  C219 9061   2.592   6.454   6.516 -0.4003 -0.0633  0.2423
   92SAPE  H19R 9062   2.588   6.344   6.529 -2.7746  0.2369  2.9711
   92SAPE  H19S 9063   2.693   6.495   6.538 -0.1723 -0.6141  0.2481
   92SAPE  C220 9064   2.553   6.483   6.370  0.0487 -0.1181 -0.4924
   92SAPE  H20R 9065   2.451   6.441   6.358 -0.8505  1.7221  0.2183
   92SAPE  H20S 9066   2.629   6.444   6.300  0.0578 -0.2145 -0.4299
   92SAPE  H20T 9067   2.532   6.591   6.356 -0.7242 -0.0408  1.0408
   92SAPE   C33 9068   2.737   6.138   7.367  0.2009  0.5203  0.7451
   92SAPE   H3X 9069   2.775   6.181   7.463  2.1101  1.0878 -0.2219
   92SAPE   H3Y 9070   2.751   6.217   7.290 -1.9160 -0.4798 -0.7673
   92SAPE   C34 9071   2.809   6.006   7.333 -0.0991  0.4796 -0.1363
   92SAPE   H4X 9072   2.828   5.952   7.429  1.1805 -0.4934 -0.8963
   92SAPE   H4Y 9073   2.912   6.026   7.295  0.2565 -1.2901 -0.1968
   92SAPE   C35 9074   2.749   5.933   7.214  0.2481  0.4382  0.4702
   92SAPE   H5X 9075   2.639   5.928   7.219  0.2171 -2.0720 -1.0700
   92SAPE   H5Y 9076   2.794   5.832   7.208  0.7211  0.6603  0.0635
   92SAPE   C36 9077   2.786   5.994   7.076 -0.0592 -0.1119 -0.0594
   92SAPE   H6X 9078   2.893   5.987   7.048 -0.3866 -0.6680 -1.2634
   92SAPE   H6Y 9079   2.768   6.104   7.084  4.2369  0.8364 -1.1097
   92SAPE   C37 9080   2.685   5.939   6.965  0.4843 -0.2696  0.2819
   92SAPE   H7X 9081   2.583   5.976   6.990  0.5389 -0.6413  1.0941
   92SAPE   H7Y 9082   2.683   5.828   6.967  1.2391 -0.2838  0.1878
   92SAPE   C38 9083   2.716   5.992   6.826 -0.1572 -0.4182 -1.0703
   92SAPE   H8X 9084   2.815   5.956   6.791  0.2569  0.7243 -1.1077
   92SAPE   H8Y 9085   2.729   6.102   6.833  1.8687 -0.7471  1.4778
   92SAPE   C39 9086   2.622   5.956   6.719  0.3454 -0.2517 -0.0111
   92SAPE   H9X 9087   2.521   5.972   6.761  0.5993 -1.2501  1.0308
   92SAPE   H9Y 9088   2.642   5.851   6.687  0.8433 -0.3854  0.7180
   92SAPE  C310 9089   2.631   6.057   6.600  0.0279  0.1175  0.3056
   92SAPE  H10X 9090   2.740   6.077   6.597  0.5732 -2.2597  1.7774
   92SAPE  H10Y 9091   2.574   6.151   6.618 -0.6560 -0.1902 -0.2214
   92SAPE  C311 9092   2.586   5.982   6.472  0.3196 -0.4488  0.3864
   92SAPE  H11X 9093   2.482   5.947   6.493  0.1737 -0.1826  0.1085
   92SAPE  H11Y 9094   2.650   5.891   6.460  0.2817 -0.2072 -2.1311
   92SAPE  C312 9095   2.572   6.075   6.349 -0.3932 -0.0282 -0.3328
   92SAPE  H12X 9096   2.482   6.140   6.349 -0.0119  0.5142 -1.5224
   92SAPE  H12Y 9097   2.556   6.008   6.262 -0.9241 -0.3892  0.0302
   92SAPE  C313 9098   2.708   6.151   6.327  0.1594 -0.2834  0.4415
   92SAPE  H13X 9099   2.787   6.087   6.371 -0.8105 -2.0106 -0.2074
   92SAPE  H13Y 9100   2.705   6.245   6.385 -0.9156 -0.0220 -0.0091
   92SAPE  C314 9101   2.730   6.192   6.181  1.1467 -0.4415 -0.5899
   92SAPE  H14X 9102   2.662   6.274   6.150  1.1215 -0.4085 -0.4425
   92SAPE  H14Y 9103   2.700   6.110   6.112 -2.0277  1.1503 -1.2762
   92SAPE  C315 9104   2.872   6.247   6.156  0.0696  0.1614  0.3014
   92SAPE  H15X 9105   2.937   6.161   6.129 -0.9308 -0.2940 -0.7544
   92SAPE  H15Y 9106   2.901   6.297   6.251 -0.1068  0.7323  0.0595
   92SAPE  C316 9107   2.883   6.338   6.037 -0.1817 -0.0816  0.4812
   92SAPE  H16X 9108   2.837   6.435   6.066  1.0967  0.6310  0.1931
   92SAPE  H16Y 9109   2.830   6.294   5.950  0.5626 -0.8635  0.4211
   92SAPE  C317 9110   3.034   6.371   5.993  0.9064  0.8136 -0.5239
   92SAPE  H17X 9111   3.037   6.437   5.904 -1.3971  0.5847 -0.8323
   92SAPE  H17Y 9112   3.076   6.279   5.946  0.3703  0.5650 -0.5297
   92SAPE  C318 9113   3.123   6.404   6.111  0.4199  0.0266 -0.1058
   92SAPE  H18X 9114   3.144   6.316   6.176  1.8046  0.3977 -0.0272
   92SAPE  H18Y 9115   3.087   6.486   6.176  2.2727  1.1817 -0.4766
   92SAPE  H18Z 9116   3.226   6.437   6.087  1.7008 -1.5019  2.7132
   93SAPE     N 9117   6.306   2.715   0.017  0.6598 -0.6702 -0.1594
   93SAPE   HN1 9118   6.406   2.686   0.007  1.0019  0.6217 -0.6477
   93SAPE   HN2 9119   6.282   2.789  -0.052  0.5406 -1.5946 -1.1329
   93SAPE   HN3 9120   6.276   2.751   0.110 -1.2125  1.4267 -1.4909
   93SAPE   C12 9121   6.221   2.598  -0.029  0.1083  0.0846 -0.1734
   93SAPE  H12A 9122   6.268   2.509   0.018  1.4661  1.1466  0.5426
   93SAPE  H12B 9123   6.224   2.598  -0.140  2.2742  0.4537 -0.1536
   93SAPE   C11 9124   6.077   2.607   0.017 -0.5361 -1.0156  0.1811
   93SAPE  H11A 9125   6.089   2.572   0.122 -0.6496 -0.1094  0.5010
   93SAPE  H11B 9126   6.014   2.536  -0.042  0.1588 -1.9418  0.5297
   93SAPE     P 9127   5.989   2.809  -0.140  0.5804 -0.0422 -0.3676
   93SAPE   O13 9128   5.966   2.707  -0.245  0.7226 -0.2583  0.1984
   93SAPE   O14 9129   5.882   2.914  -0.133 -0.3057  0.1882 -0.2620
   93SAPE   O12 9130   6.025   2.742   0.003  0.7020  0.2259 -0.0868
   93SAPE   O11 9131   6.126   2.882  -0.167  0.4938 -0.0501  0.0815
   93SAPE    C1 9132   6.153   3.018  -0.194  0.6803  0.3950 -0.0276
   93SAPE    HA 9133   6.124   3.074  -0.102 -0.7330 -1.5762  0.8328
   93SAPE    HB 9134   6.263   3.016  -0.204  1.0114 -1.1349  2.7496
   93SAPE    C2 9135   6.079   3.073  -0.327  0.5420 -0.6257  0.0522
   93SAPE    HS 9136   5.971   3.080  -0.303  0.4973 -0.8108 -0.0933
   93SAPE   O21 9137   6.095   2.978  -0.431  0.2520 -0.1440  0.4507
   93SAPE   C21 9138   6.000   2.970  -0.519  0.0436 -0.1505  0.5988
   93SAPE   O22 9139   5.922   3.059  -0.556  0.2214  0.6254 -0.7241
   93SAPE   C22 9140   6.007   2.835  -0.598  0.7060  0.4404  0.0594
   93SAPE   H2R 9141   6.114   2.811  -0.616 -0.1080 -1.3029 -3.2076
   93SAPE   H2S 9142   5.951   2.767  -0.529  0.1571 -0.2172 -1.0062
   93SAPE    C3 9143   6.122   3.222  -0.358  0.1950  0.4414  0.2349
   93SAPE    HX 9144   6.097   3.288  -0.273  1.0154  0.2229  0.6579
   93SAPE    HY 9145   6.059   3.263  -0.439  0.5290  0.3935 -0.0517
   93SAPE   O31 9146   6.266   3.229  -0.392  0.2268 -0.4155 -0.0159
   93SAPE   C31 9147   6.298   3.227  -0.523 -0.0064  0.3324 -0.0185
   93SAPE   O32 9148   6.220   3.231  -0.616  0.3368  0.2829 -0.0962
   93SAPE   C32 9149   6.454   3.208  -0.538  0.2756  0.2431 -0.1768
   93SAPE   H2X 9150   6.484   3.170  -0.438 -1.7994 -0.6185  0.1843
   93SAPE   H2Y 9151   6.505   3.305  -0.550  2.1939 -0.1851  3.2856
   93SAPE   C23 9152   5.937   2.854  -0.733 -0.3219 -0.1308 -0.8819
   93SAPE   H3R 9153   5.999   2.932  -0.782  0.8081 -1.3687 -1.4621
   93SAPE   H3S 9154   5.833   2.889  -0.712  0.4061  1.2268  0.6965
   93SAPE   C24 9155   5.940   2.729  -0.826  0.7026  0.1665 -0.0321
   93SAPE   H4R 9156   5.857   2.738  -0.898  0.3841 -1.5220  0.0894
   93SAPE   H4S 9157   5.922   2.644  -0.757 -1.7722  0.0617 -0.7327
   93SAPE   C25 9158   6.080   2.724  -0.890  0.7900 -0.6148  0.0562
   93SAPE   H5R 9159   6.165   2.759  -0.829  0.4733 -0.5889  0.4919
   93SAPE   C26 9160   6.107   2.685  -1.016  0.7526  0.5025  0.6356
   93SAPE   H6R 9161   6.211   2.686  -1.054  0.9678 -1.3497  1.0778
   93SAPE   C27 9162   6.013   2.646  -1.123  0.7203  0.7855 -0.4497
   93SAPE   H7R 9163   6.032   2.707  -1.214 -0.6796  0.7265 -0.8040
   93SAPE   H7S 9164   5.910   2.668  -1.088  1.3124 -0.4214  2.3435
   93SAPE   C28 9165   6.027   2.498  -1.161  0.9278 -0.1528 -0.1525
   93SAPE   H8R 9166   6.062   2.431  -1.081  1.1149  1.9007  1.5557
   93SAPE   C29 9167   5.980   2.428  -1.269  0.1640  0.3897 -0.0150
   93SAPE   H9R 9168   6.028   2.331  -1.290  1.8623  1.2511 -0.3057
   93SAPE  C210 9169   5.908   2.489  -1.382 -0.4506  0.2374 -0.1959
   93SAPE  H10R 9170   5.866   2.587  -1.351 -0.7726  0.3278 -0.9048
   93SAPE  H10S 9171   5.819   2.425  -1.399 -0.6883  0.4169  0.3484
   93SAPE  C211 9172   6.007   2.505  -1.496 -0.6512  0.1691  1.2040
   93SAPE  H11R 9173   6.073   2.593  -1.497  2.6095 -2.0940  0.6934
   93SAPE  C212 9174   6.013   2.420  -1.600  0.5745 -0.3268 -0.2078
   93SAPE  H12R 9175   6.075   2.453  -1.685 -0.2802 -0.2801 -0.8205
   93SAPE  C213 9176   5.936   2.294  -1.619  0.5751 -0.0925  0.0289
   93SAPE  H13R 9177   5.913   2.288  -1.728  1.8911 -1.0209 -0.2252
   93SAPE  H13S 9178   5.834   2.295  -1.575  0.2689 -0.6762 -0.6447
   93SAPE  C214 9179   6.023   2.179  -1.569  0.2589  0.2694  0.2584
   93SAPE  H14R 9180   6.083   2.194  -1.478 -0.5303  0.2163  0.7985
   93SAPE  C215 9181   6.036   2.067  -1.643  0.0588  0.4106  0.0153
   93SAPE  H15R 9182   6.107   1.997  -1.597  0.5119  1.7478  1.4218
   93SAPE  C216 9183   5.953   2.019  -1.760  0.7637 -0.0522  0.0816
   93SAPE  H16R 9184   5.853   2.068  -1.764  0.4148 -0.6816  0.7755
   93SAPE  H16S 9185   5.915   1.917  -1.736  0.1034 -0.3007 -1.8641
   93SAPE  C217 9186   6.014   2.023  -1.899 -0.5392 -0.5514 -0.5858
   93SAPE  H17R 9187   6.124   2.006  -1.891 -0.6868 -0.6606  1.6913
   93SAPE  H17S 9188   6.006   2.126  -1.940 -0.2326 -0.8396 -1.3944
   93SAPE  C218 9189   5.943   1.938  -2.003  0.4656  0.1058 -0.1756
   93SAPE  H18R 9190   5.833   1.938  -1.990  0.6623 -0.5314  1.6904
   93SAPE  H18S 9191   5.965   1.831  -1.984  0.6812 -0.0747 -1.3178
   93SAPE  C219 9192   5.984   1.952  -2.147 -0.3557 -0.0174 -0.0169
   93SAPE  H19R 9193   6.089   1.916  -2.158 -0.2973  0.1764 -0.0883
   93SAPE  H19S 9194   5.990   2.056  -2.183  1.2905  1.0661  2.9607
   93SAPE  C220 9195   5.896   1.866  -2.241 -0.3887  0.5316  0.3498
   93SAPE  H20R 9196   5.924   1.891  -2.346  0.0241 -1.9220 -0.1806
   93SAPE  H20S 9197   5.787   1.888  -2.231 -0.7085 -1.1797  0.8495
   93SAPE  H20T 9198   5.923   1.759  -2.241  0.2423  0.6654 -0.9097
   93SAPE   C33 9199   6.480   3.098  -0.643  0.0937 -0.3346 -0.2125
   93SAPE   H3X 9200   6.590   3.082  -0.640  0.2826  0.9420  0.1774
   93SAPE   H3Y 9201   6.482   3.146  -0.742  2.7079 -0.6871 -0.4172
   93SAPE   C34 9202   6.404   2.970  -0.622 -0.3593 -0.0550  0.5258
   93SAPE   H4X 9203   6.293   2.979  -0.615 -0.2629  0.7134  1.1667
   93SAPE   H4Y 9204   6.433   2.931  -0.522  1.9638 -1.7793 -0.7153
   93SAPE   C35 9205   6.438   2.863  -0.733  0.4955 -0.0325  0.2806
   93SAPE   H5X 9206   6.366   2.779  -0.732 -2.2304  2.0267 -2.9653
   93SAPE   H5Y 9207   6.542   2.828  -0.714  2.8482  3.3931 -4.5012
   93SAPE   C36 9208   6.431   2.925  -0.878  0.2023  0.3222 -0.6349
   93SAPE   H6X 9209   6.498   3.011  -0.901  0.5533  0.2509  0.1215
   93SAPE   H6Y 9210   6.328   2.963  -0.890 -0.9097 -2.3903 -0.4421
   93SAPE   C37 9211   6.469   2.822  -0.986 -0.5606  0.1292 -0.4563
   93SAPE   H7X 9212   6.408   2.730  -0.969 -0.4355  0.1151 -0.0724
   93SAPE   H7Y 9213   6.568   2.789  -0.949 -0.5854 -0.4337 -0.8827
   93SAPE   C38 9214   6.466   2.875  -1.130  0.8468  0.1911 -0.0923
   93SAPE   H8X 9215   6.500   2.981  -1.142 -2.0168  1.1366 -0.9163
   93SAPE   H8Y 9216   6.357   2.894  -1.148  0.8499  1.6184  1.2088
   93SAPE   C39 9217   6.518   2.772  -1.225 -0.5466  0.8465  0.1241
   93SAPE   H9X 9218   6.462   2.678  -1.207 -1.2149  1.3021  0.4613
   93SAPE   H9Y 9219   6.625   2.744  -1.213 -0.7321  0.5365  1.1237
   93SAPE  C310 9220   6.491   2.820  -1.370  0.0431 -0.1270  0.7865
   93SAPE  H10X 9221   6.520   2.921  -1.404  1.3204 -1.0489 -0.9953
   93SAPE  H10Y 9222   6.381   2.836  -1.375 -0.4183 -2.5493  1.7563
   93SAPE  C311 9223   6.529   2.719  -1.483  0.6436 -1.0925 -0.0272
   93SAPE  H11X 9224   6.510   2.613  -1.458  1.8850 -1.1926  0.5895
   93SAPE  H11Y 9225   6.640   2.724  -1.486  0.6492 -1.4510 -0.5222
   93SAPE  C312 9226   6.486   2.760  -1.624  0.3808 -0.3530  0.2311
   93SAPE  H12X 9227   6.489   2.871  -1.623 -0.1973 -0.3125 -0.9029
   93SAPE  H12Y 9228   6.377   2.740  -1.635  0.5292  0.0646 -3.1791
   93SAPE  C313 9229   6.566   2.699  -1.740  0.2438  0.1612 -0.3003
   93SAPE  H13X 9230   6.585   2.591  -1.726 -0.6446  0.1181  0.6513
   93SAPE  H13Y 9231   6.659   2.761  -1.739 -1.8840  3.6382 -0.9652
   93SAPE  C314 9232   6.501   2.732  -1.875 -0.4735 -0.0630  0.2767
   93SAPE  H14X 9233   6.575   2.702  -1.952 -1.1215 -0.6306 -0.1471
   93SAPE  H14Y 9234   6.484   2.841  -1.889  1.2282  0.0189 -1.6376
   93SAPE  C315 9235   6.365   2.669  -1.899  0.4644  0.7219 -0.0709
   93SAPE  H15X 9236   6.313   2.725  -1.979 -0.0296 -0.2986 -0.4782
   93SAPE  H15Y 9237   6.298   2.671  -1.811 -0.8267  0.6067 -1.0261
   93SAPE  C316 9238   6.364   2.516  -1.932  0.5722 -0.0992 -0.2117
   93SAPE  H16X 9239   6.378   2.459  -1.837  3.0824 -0.1889 -0.5765
   93SAPE  H16Y 9240   6.452   2.500  -1.997  0.0046  0.2208 -1.0677
   93SAPE  C317 9241   6.228   2.463  -1.989 -0.4931 -0.0573 -0.0293
   93SAPE  H17X 9242   6.203   2.509  -2.087  0.6703  2.0280  0.5784
   93SAPE  H17Y 9243   6.150   2.493  -1.916  0.9447 -0.1826  1.6290
   93SAPE  C318 9244   6.217   2.309  -2.003  0.0137 -0.6192  0.0850
   93SAPE  H18X 9245   6.121   2.284  -2.053  0.2100  0.1318 -0.6777
   93SAPE  H18Y 9246   6.226   2.266  -1.900  0.3024 -1.9526 -0.4781
   93SAPE  H18Z 9247   6.302   2.269  -2.061  1.2494  1.8413  0.0635
   94SAPE     N 9248   4.643   6.485   8.540  0.1771  0.2361  0.1198
   94SAPE   HN1 9249   4.685   6.400   8.496  0.0477 -0.4485  1.2807
   94SAPE   HN2 9250   4.583   6.526   8.466 -1.1999 -2.9149 -0.6659
   94SAPE   HN3 9251   4.714   6.554   8.574 -1.4417  1.0876  1.9707
   94SAPE   C12 9252   4.540   6.451   8.651 -0.4609 -0.2116  0.2990
   94SAPE  H12A 9253   4.521   6.539   8.717  0.4650 -0.1342  0.4855
   94SAPE  H12B 9254   4.599   6.376   8.708  1.1060  0.3715 -0.4952
   94SAPE   C11 9255   4.412   6.413   8.581  0.1727  0.0609  0.0008
   94SAPE  H11A 9256   4.334   6.396   8.659  0.8782 -2.0707  0.3140
   94SAPE  H11B 9257   4.431   6.319   8.525  3.0971  1.0368 -0.7848
   94SAPE     P 9258   4.207   6.553   8.491  0.2638 -0.1234  0.1122
   94SAPE   O13 9259   4.157   6.542   8.627 -1.0535  0.3033 -0.4557
   94SAPE   O14 9260   4.198   6.688   8.433  0.8063  0.2453  0.1570
   94SAPE   O12 9261   4.360   6.502   8.486 -0.1842  0.4267 -0.3893
   94SAPE   O11 9262   4.132   6.445   8.409  0.4510  1.3580 -0.1883
   94SAPE    C1 9263   4.197   6.347   8.327 -0.8812 -0.1779  0.3247
   94SAPE    HA 9264   4.306   6.368   8.314 -1.4129  1.5096 -2.1137
   94SAPE    HB 9265   4.192   6.245   8.369  3.6442  0.4009  2.9215
   94SAPE    C2 9266   4.144   6.362   8.181 -0.5578 -0.0658  1.0103
   94SAPE    HS 9267   4.206   6.295   8.118 -0.7071 -1.0823  1.9327
   94SAPE   O21 9268   4.153   6.501   8.135  0.0306  0.4750  0.1222
   94SAPE   C21 9269   4.274   6.563   8.131  0.2617  0.9497  0.0127
   94SAPE   O22 9270   4.384   6.525   8.152  0.4424 -0.0148  0.4640
   94SAPE   C22 9271   4.247   6.703   8.073  0.4644  0.5211  0.0302
   94SAPE   H2R 9272   4.144   6.736   8.096 -0.5168 -2.2184 -0.0781
   94SAPE   H2S 9273   4.321   6.765   8.128 -0.1549  2.0351 -0.7687
   94SAPE    C3 9274   3.998   6.311   8.171  0.3590 -0.2602 -0.1637
   94SAPE    HX 9275   3.932   6.400   8.180  0.5524 -0.1809  0.5083
   94SAPE    HY 9276   3.985   6.242   8.257 -0.9977 -0.1608 -0.2572
   94SAPE   O31 9277   3.965   6.233   8.056 -0.4905  0.3686  0.3806
   94SAPE   C31 9278   4.008   6.102   8.045  0.1571 -0.1128  0.1924
   94SAPE   O32 9279   4.083   6.054   8.127  0.2662  0.2570  0.2543
   94SAPE   C32 9280   3.936   6.036   7.925  0.2755  0.0553 -0.5804
   94SAPE   H2X 9281   3.916   6.109   7.844 -2.7010  0.4007  0.3335
   94SAPE   H2Y 9282   3.838   6.014   7.973 -0.0072  0.1862 -1.0911
   94SAPE   C23 9283   4.265   6.719   7.920 -0.0906  0.4072  0.2233
   94SAPE   H3R 9284   4.182   6.661   7.874 -0.7931  0.0944  1.8162
   94SAPE   H3S 9285   4.359   6.672   7.883 -0.8468  0.6354 -2.1527
   94SAPE   C24 9286   4.275   6.865   7.873 -0.7111 -0.1275  0.2389
   94SAPE   H4R 9287   4.174   6.909   7.890 -0.3951  1.0093 -0.6919
   94SAPE   H4S 9288   4.288   6.870   7.763  0.2056 -2.3760  0.1958
   94SAPE   C25 9289   4.373   6.951   7.945 -0.3357  0.5026 -0.1129
   94SAPE   H5R 9290   4.345   6.980   8.047  1.3287  1.2726  0.1580
   94SAPE   C26 9291   4.488   6.992   7.897 -0.0660  0.3819  0.0464
   94SAPE   H6R 9292   4.559   7.046   7.961  1.3781  1.3795 -2.2706
   94SAPE   C27 9293   4.543   6.955   7.765  0.6077 -0.8048  0.6438
   94SAPE   H7R 9294   4.491   6.876   7.707  0.8805  1.1395 -2.5004
   94SAPE   H7S 9295   4.646   6.915   7.774  0.7248 -1.0884 -1.4365
   94SAPE   C28 9296   4.552   7.085   7.678  0.2483 -0.1069  0.1026
   94SAPE   H8R 9297   4.544   7.183   7.728  2.4938 -0.6450  1.6855
   94SAPE   C29 9298   4.583   7.084   7.548 -0.2779 -0.1809 -0.5666
   94SAPE   H9R 9299   4.584   7.177   7.489  2.2311  0.6213  0.6054
   94SAPE  C210 9300   4.601   6.963   7.458 -0.2713  0.1582  0.1221
   94SAPE  H10R 9301   4.573   6.985   7.353  0.7778  0.5968 -0.0732
   94SAPE  H10S 9302   4.532   6.880   7.484 -0.5218  0.3814  0.1868
   94SAPE  C211 9303   4.750   6.918   7.449  0.2750  0.1296  0.1115
   94SAPE  H11R 9304   4.820   6.946   7.528  0.5695 -1.1000  0.3097
   94SAPE  C212 9305   4.800   6.847   7.339 -0.0311 -0.2698  0.4226
   94SAPE  H12R 9306   4.905   6.814   7.342  0.4202  1.1393  0.8738
   94SAPE  C213 9307   4.723   6.780   7.226  0.8874  0.3621 -1.1075
   94SAPE  H13R 9308   4.616   6.811   7.232  1.0180  0.6404  0.0259
   94SAPE  H13S 9309   4.713   6.673   7.254 -0.3155  1.0107  1.2420
   94SAPE  C214 9310   4.787   6.804   7.092 -0.1662  0.1488  0.8780
   94SAPE  H14R 9311   4.894   6.821   7.106  0.0815 -0.4200 -0.2192
   94SAPE  C215 9312   4.736   6.778   6.967 -0.0536  0.1850 -0.0940
   94SAPE  H15R 9313   4.790   6.795   6.872 -1.0750 -0.6094 -0.8394
   94SAPE  C216 9314   4.599   6.722   6.939  1.0134 -0.6478  0.8484
   94SAPE  H16R 9315   4.529   6.705   7.024 -0.5624  0.1297 -0.2381
   94SAPE  H16S 9316   4.590   6.631   6.877 -1.4038 -0.0047  0.1519
   94SAPE  C217 9317   4.513   6.828   6.856 -0.1073  0.6703  0.0776
   94SAPE  H17R 9318   4.497   6.918   6.919 -1.7922  1.1881 -1.0059
   94SAPE  H17S 9319   4.408   6.795   6.842 -0.3007  1.3575 -0.1429
   94SAPE  C218 9320   4.566   6.876   6.717  0.2624  0.4368  1.1247
   94SAPE  H18R 9321   4.570   6.786   6.652  1.8860 -0.6038  2.5998
   94SAPE  H18S 9322   4.670   6.914   6.729  0.1547  0.8883  0.6746
   94SAPE  C219 9323   4.471   6.985   6.667 -0.1780 -0.3780  0.6777
   94SAPE  H19R 9324   4.532   7.059   6.610 -1.9401 -0.0381 -0.8573
   94SAPE  H19S 9325   4.441   7.041   6.758 -0.9007  0.5059 -0.0881
   94SAPE  C220 9326   4.359   6.930   6.581 -0.4725  0.5974  0.4982
   94SAPE  H20R 9327   4.293   7.014   6.549 -0.9845 -0.6052 -1.7808
   94SAPE  H20S 9328   4.293   6.868   6.645 -3.1502  1.0142 -1.6399
   94SAPE  H20T 9329   4.403   6.890   6.487  1.9339  2.4730  0.7298
   94SAPE   C33 9330   4.006   5.914   7.875  0.8141  0.7810  0.2907
   94SAPE   H3X 9331   3.948   5.847   7.808  1.3170 -0.8644  1.4417
   94SAPE   H3Y 9332   4.034   5.848   7.960 -2.1879  0.6157  1.2613
   94SAPE   C34 9333   4.144   5.943   7.798 -0.0495  0.4355  0.5271
   94SAPE   H4X 9334   4.193   5.843   7.796  1.2737  1.0701  0.6890
   94SAPE   H4Y 9335   4.205   6.006   7.866  0.7108  1.0294 -0.6818
   94SAPE   C35 9336   4.124   6.011   7.677  0.5370 -0.2859  1.1367
   94SAPE   H5X 9337   4.080   6.112   7.691  0.5843  0.3086 -2.2686
   94SAPE   H5Y 9338   4.050   5.951   7.620 -0.4807  0.2662  1.8398
   94SAPE   C36 9339   4.250   6.019   7.594  0.7650 -0.1705 -0.2346
   94SAPE   H6X 9340   4.281   5.916   7.565 -0.4712 -0.9023  0.9072
   94SAPE   H6Y 9341   4.332   6.058   7.659  1.2032 -2.0660  0.4248
   94SAPE   C37 9342   4.240   6.117   7.483  0.5083  0.2008  1.0176
   94SAPE   H7X 9343   4.217   6.221   7.514  1.2497  0.9012 -0.6321
   94SAPE   H7Y 9344   4.162   6.083   7.411  0.1758 -2.0670  2.3360
   94SAPE   C38 9345   4.362   6.122   7.393  0.2166 -0.4883  0.0513
   94SAPE   H8X 9346   4.390   6.019   7.361 -1.3009 -0.9516  0.1302
   94SAPE   H8Y 9347   4.447   6.164   7.452 -0.1746  2.1498 -1.1164
   94SAPE   C39 9348   4.344   6.210   7.269  0.5242 -0.1886  0.5961
   94SAPE   H9X 9349   4.318   6.313   7.300 -0.3123 -0.0242 -0.5794
   94SAPE   H9Y 9350   4.261   6.169   7.207 -1.1470 -1.2472  3.3746
   94SAPE  C310 9351   4.474   6.218   7.185  0.0019 -0.7298  0.3603
   94SAPE  H10X 9352   4.491   6.120   7.137 -0.8735 -1.3944  1.3610
   94SAPE  H10Y 9353   4.553   6.246   7.258 -2.4855  0.7426  2.6878
   94SAPE  C311 9354   4.484   6.323   7.071 -0.3132 -0.4977 -0.2035
   94SAPE  H11X 9355   4.581   6.313   7.017  1.3249  1.8010  2.0465
   94SAPE  H11Y 9356   4.494   6.423   7.120 -3.0901  1.0659 -2.4820
   94SAPE  C312 9357   4.368   6.323   6.971 -0.3694 -0.6445  0.2505
   94SAPE  H12X 9358   4.273   6.355   7.019 -0.1680  1.8656 -0.8585
   94SAPE  H12Y 9359   4.368   6.215   6.945  0.3060 -0.7966  0.8249
   94SAPE  C313 9360   4.397   6.400   6.840 -0.3975 -0.0169  0.5685
   94SAPE  H13X 9361   4.471   6.338   6.784  0.8327  1.0407  0.9667
   94SAPE  H13Y 9362   4.442   6.491   6.886  0.2728  0.0006 -0.1062
   94SAPE  C314 9363   4.280   6.443   6.758 -0.2840  0.1422  0.3336
   94SAPE  H14X 9364   4.197   6.504   6.799 -1.6814 -0.5117 -1.4008
   94SAPE  H14Y 9365   4.234   6.347   6.724 -0.4398 -0.7125  2.7654
   94SAPE  C315 9366   4.319   6.523   6.633  0.2656  0.0566 -0.1314
   94SAPE  H15X 9367   4.401   6.465   6.585 -1.0506 -1.0977 -1.0669
   94SAPE  H15Y 9368   4.348   6.624   6.670  0.4189  0.2863 -0.8717
   94SAPE  C316 9369   4.207   6.536   6.526  0.4974 -0.1615 -0.1703
   94SAPE  H16X 9370   4.147   6.621   6.565  3.7689  1.4100  1.9082
   94SAPE  H16Y 9371   4.152   6.440   6.528  0.1812  0.0130 -0.3686
   94SAPE  C317 9372   4.258   6.563   6.384  0.6769  0.3697 -0.4627
   94SAPE  H17X 9373   4.340   6.493   6.355  0.0137 -0.7460  0.3160
   94SAPE  H17Y 9374   4.294   6.667   6.399  0.2613  0.2296  1.7939
   94SAPE  C318 9375   4.152   6.559   6.273  0.6806 -0.3175 -0.2325
   94SAPE  H18X 9376   4.075   6.480   6.282 -1.1311  1.4777  1.1341
   94SAPE  H18Y 9377   4.206   6.553   6.176  0.5311 -0.2526 -0.3199
   94SAPE  H18Z 9378   4.096   6.655   6.272  0.6770 -0.1681  2.8275
   95SAPE     N 9379   1.420   3.881   8.224 -0.0135  0.6184  0.1061
   95SAPE   HN1 9380   1.438   3.951   8.149  1.2432  2.6600  2.2222
   95SAPE   HN2 9381   1.321   3.876   8.255 -0.0739 -3.9646 -0.0894
   95SAPE   HN3 9382   1.479   3.917   8.301  1.0257  0.4074 -0.5673
   95SAPE   C12 9383   1.478   3.746   8.181  0.2604 -0.1154  0.3471
   95SAPE  H12A 9384   1.582   3.761   8.146 -0.7769  1.5662 -2.3605
   95SAPE  H12B 9385   1.415   3.706   8.099  1.0792 -1.9369  0.5515
   95SAPE   C11 9386   1.474   3.644   8.292  0.4052 -0.1253  0.3269
   95SAPE  H11A 9387   1.536   3.673   8.380  2.0392 -0.7997 -0.5624
   95SAPE  H11B 9388   1.532   3.557   8.254 -0.9415 -0.8567 -0.1239
   95SAPE     P 9389   1.283   3.468   8.282  0.0950 -0.1462  0.4514
   95SAPE   O13 9390   1.347   3.350   8.344  0.4644  0.1727  0.0890
   95SAPE   O14 9391   1.134   3.472   8.298 -0.4594  0.1733  0.5960
   95SAPE   O12 9392   1.343   3.601   8.335 -0.0895  0.2381  0.0576
   95SAPE   O11 9393   1.313   3.465   8.127 -0.1003 -0.2927  1.2497
   95SAPE    C1 9394   1.226   3.517   8.032  0.1856 -0.4943  0.5592
   95SAPE    HA 9395   1.192   3.619   8.058  1.2715  0.2715 -0.9049
   95SAPE    HB 9396   1.288   3.541   7.943  0.2549  1.0559  0.9908
   95SAPE    C2 9397   1.114   3.425   7.980  0.0820 -0.3079 -0.6540
   95SAPE    HS 9398   1.055   3.402   8.071  0.9644  0.5022  0.1528
   95SAPE   O21 9399   1.170   3.307   7.930  0.1225  0.4741  0.1023
   95SAPE   C21 9400   1.099   3.194   7.948 -0.3748 -0.1774  0.8687
   95SAPE   O22 9401   0.985   3.189   7.981  0.9063  0.2902 -0.2571
   95SAPE   C22 9402   1.184   3.073   7.912 -0.1120  0.4657  0.4616
   95SAPE   H2R 9403   1.285   3.110   7.883 -0.1554 -0.2632 -0.7013
   95SAPE   H2S 9404   1.193   3.021   8.010 -0.2579  1.4841  1.0251
   95SAPE    C3 9405   1.037   3.487   7.863  0.1338  0.0300  0.1257
   95SAPE    HX 9406   0.971   3.408   7.821  2.0724 -0.5821 -1.9734
   95SAPE    HY 9407   1.106   3.508   7.778  0.7300 -0.8538  0.3851
   95SAPE   O31 9408   0.976   3.613   7.910  0.4947 -0.0187 -0.2184
   95SAPE   C31 9409   0.846   3.592   7.945  0.3600  0.2530 -0.7281
   95SAPE   O32 9410   0.772   3.497   7.928 -0.8596 -0.6721 -0.8692
   95SAPE   C32 9411   0.794   3.725   8.005  0.1313  0.5210  0.5520
   95SAPE   H2X 9412   0.878   3.794   8.028 -0.2393  1.3040 -0.3637
   95SAPE   H2Y 9413   0.751   3.689   8.101 -1.4394  1.7089  0.3325
   95SAPE   C23 9414   1.127   2.969   7.815  0.7821 -0.6976  0.0043
   95SAPE   H3R 9415   1.109   3.013   7.714 -0.3969 -0.7724  0.1621
   95SAPE   H3S 9416   1.022   2.945   7.841  0.5336 -2.0359 -2.0132
   95SAPE   C24 9417   1.198   2.842   7.814  0.4406  0.1741  0.1231
   95SAPE   H4R 9418   1.223   2.806   7.917 -1.6217  0.8461  0.9056
   95SAPE   H4S 9419   1.297   2.854   7.765  0.3827  2.3020  0.4173
   95SAPE   C25 9420   1.125   2.731   7.738  0.4152  0.5697 -0.4923
   95SAPE   H5R 9421   1.060   2.669   7.801 -0.3390  2.0396  0.2175
   95SAPE   C26 9422   1.124   2.707   7.602 -0.0865  0.2624 -0.2156
   95SAPE   H6R 9423   1.056   2.625   7.572  1.1027  0.1221 -2.8180
   95SAPE   C27 9424   1.199   2.776   7.495 -0.4872 -0.2112 -0.3037
   95SAPE   H7R 9425   1.278   2.833   7.549 -1.6398  1.3380 -0.1752
   95SAPE   H7S 9426   1.138   2.862   7.459  1.2339  1.0510 -0.3220
   95SAPE   C28 9427   1.246   2.689   7.387  0.1383 -0.6968  0.5821
   95SAPE   H8R 9428   1.287   2.593   7.423 -1.0052 -1.0923  0.8796
   95SAPE   C29 9429   1.241   2.699   7.249  0.4724  0.1744 -0.1362
   95SAPE   H9R 9430   1.293   2.621   7.192  0.7508  0.9366 -0.9428
   95SAPE  C210 9431   1.176   2.809   7.168 -0.1766  0.1696 -0.3244
   95SAPE  H10R 9432   1.160   2.899   7.231 -0.1512  0.2198 -0.3897
   95SAPE  H10S 9433   1.079   2.762   7.141 -1.7423  1.7845  2.1461
   95SAPE  C211 9434   1.262   2.847   7.049 -0.3604 -0.2247 -0.8328
   95SAPE  H11R 9435   1.358   2.891   7.079 -1.0576  0.4261  0.5046
   95SAPE  C212 9436   1.220   2.859   6.921  0.3802 -0.8321  0.3309
   95SAPE  H12R 9437   1.301   2.892   6.856  0.4330  0.4649  1.0256
   95SAPE  C213 9438   1.094   2.813   6.856  0.5000 -0.0030 -0.7241
   95SAPE  H13R 9439   1.028   2.778   6.938 -0.3536  3.4097  0.1907
   95SAPE  H13S 9440   1.110   2.730   6.784  2.1258  1.2315 -1.8614
   95SAPE  C214 9441   1.022   2.921   6.787  0.4677 -0.1889 -0.5258
   95SAPE  H14R 9442   1.077   2.933   6.692 -0.8109 -0.4299 -1.3190
   95SAPE  C215 9443   0.912   2.992   6.815 -0.3288  0.3609 -0.3883
   95SAPE  H15R 9444   0.869   3.066   6.746 -0.1603  2.7595  1.9417
   95SAPE  C216 9445   0.825   2.964   6.932 -0.6666 -1.1733  0.8358
   95SAPE  H16R 9446   0.780   3.063   6.953 -0.5254 -0.8201 -0.4408
   95SAPE  H16S 9447   0.874   2.932   7.027 -0.7401 -0.3825  1.1504
   95SAPE  C217 9448   0.720   2.856   6.895  0.0501  0.7796  0.1817
   95SAPE  H17R 9449   0.760   2.767   6.841 -0.7327  1.9817 -2.5627
   95SAPE  H17S 9450   0.644   2.885   6.820 -0.8071 -2.5851 -0.4377
   95SAPE  C218 9451   0.667   2.807   7.027  0.1981  0.0130  0.3742
   95SAPE  H18R 9452   0.641   2.888   7.098 -1.4542  0.0623 -0.2443
   95SAPE  H18S 9453   0.748   2.747   7.074  1.3430  1.8424  0.8469
   95SAPE  C219 9454   0.537   2.724   7.029  0.0237 -0.5262 -0.3754
   95SAPE  H19R 9455   0.539   2.630   6.970 -1.6834  0.5040 -2.2018
   95SAPE  H19S 9456   0.457   2.781   6.977  0.2283  0.4120  0.2974
   95SAPE  C220 9457   0.492   2.704   7.176 -0.1273 -0.8554 -0.3546
   95SAPE  H20R 9458   0.407   2.633   7.176 -0.9621  0.0861  1.4798
   95SAPE  H20S 9459   0.467   2.799   7.227  0.3289 -2.1161  2.4333
   95SAPE  H20T 9460   0.582   2.655   7.219 -0.0918 -3.1847 -2.7941
   95SAPE   C33 9461   0.680   3.780   7.910 -0.1634  0.0410 -0.0932
   95SAPE   H3X 9462   0.640   3.875   7.952  0.9384  1.3171 -1.7729
   95SAPE   H3Y 9463   0.588   3.718   7.913 -0.2399  0.1919  1.8382
   95SAPE   C34 9464   0.730   3.809   7.763  0.2379 -0.2566 -0.2366
   95SAPE   H4X 9465   0.833   3.849   7.776  0.0518 -0.2599  1.4475
   95SAPE   H4Y 9466   0.660   3.887   7.726  1.4107  1.4894  1.0825
   95SAPE   C35 9467   0.739   3.691   7.679  0.4782  0.2240 -0.1663
   95SAPE   H5X 9468   0.660   3.618   7.709 -1.0492  1.9570  0.2229
   95SAPE   H5Y 9469   0.837   3.638   7.683 -0.1968 -1.0507  0.1927
   95SAPE   C36 9470   0.726   3.718   7.524  0.0163  0.2385  0.4838
   95SAPE   H6X 9471   0.805   3.779   7.476 -1.3357  0.8349 -1.0768
   95SAPE   H6Y 9472   0.626   3.765   7.511  0.0122  0.2940  0.7139
   95SAPE   C37 9473   0.724   3.584   7.454 -0.7064  0.6640  0.4579
   95SAPE   H7X 9474   0.690   3.505   7.523  1.9327  0.9209  2.1827
   95SAPE   H7Y 9475   0.821   3.560   7.406 -1.3582  1.5580 -1.4134
   95SAPE   C38 9476   0.609   3.578   7.343 -0.2259  0.1497  0.2044
   95SAPE   H8X 9477   0.612   3.663   7.272  1.6529 -1.7830 -2.2149
   95SAPE   H8Y 9478   0.514   3.591   7.399 -0.0913  2.2846  0.0181
   95SAPE   C39 9479   0.604   3.449   7.261  0.3704  0.6341  0.7915
   95SAPE   H9X 9480   0.501   3.434   7.221  0.6836  1.0241 -0.1963
   95SAPE   H9Y 9481   0.608   3.362   7.330 -1.7162  0.2982  0.5856
   95SAPE  C310 9482   0.716   3.433   7.157 -0.8126 -0.2128  0.2148
   95SAPE  H10X 9483   0.814   3.419   7.208 -0.2962  1.0561 -0.3750
   95SAPE  H10Y 9484   0.724   3.534   7.112  0.9772 -0.6870 -0.6160
   95SAPE  C311 9485   0.681   3.327   7.059 -0.1551  0.8011  0.9686
   95SAPE  H11X 9486   0.572   3.334   7.035 -0.0357 -0.5549 -0.0540
   95SAPE  H11Y 9487   0.690   3.223   7.095 -0.7920  0.6243  0.6235
   95SAPE  C312 9488   0.760   3.358   6.925  0.0609  0.3889  0.2718
   95SAPE  H12X 9489   0.861   3.314   6.932  0.1433  0.6782  1.0600
   95SAPE  H12Y 9490   0.774   3.466   6.906 -0.3558  0.7792  1.9778
   95SAPE  C313 9491   0.693   3.307   6.793 -0.4145  0.2550 -0.1439
   95SAPE  H13X 9492   0.591   3.346   6.771  0.9136  3.4677 -1.1849
   95SAPE  H13Y 9493   0.688   3.197   6.806  0.6699  0.2178  0.0097
   95SAPE  C314 9494   0.782   3.315   6.664 -0.2643 -0.4494  0.2609
   95SAPE  H14X 9495   0.882   3.267   6.668  0.6251  1.2590 -0.3406
   95SAPE  H14Y 9496   0.797   3.420   6.633  0.2316 -0.5524  0.1440
   95SAPE  C315 9497   0.710   3.256   6.544  0.1701  0.1106 -0.2104
   95SAPE  H15X 9498   0.610   3.304   6.535 -0.2982 -1.0054 -1.1708
   95SAPE  H15Y 9499   0.678   3.150   6.546  1.2503 -0.2209  0.2705
   95SAPE  C316 9500   0.777   3.295   6.409 -0.1474  0.3599  0.2370
   95SAPE  H16X 9501   0.887   3.277   6.415 -0.0542  0.9976  0.4884
   95SAPE  H16Y 9502   0.760   3.403   6.392 -0.7382  0.5711  1.9895
   95SAPE  C317 9503   0.712   3.205   6.300  0.2768 -0.2510 -1.0326
   95SAPE  H17X 9504   0.602   3.206   6.314 -0.1787  1.8863 -3.7845
   95SAPE  H17Y 9505   0.744   3.098   6.305  0.4440 -0.1398  1.0481
   95SAPE  C318 9506   0.757   3.246   6.157 -0.5661 -0.1263 -0.1705
   95SAPE  H18X 9507   0.740   3.356   6.152  3.0478  0.5133 -0.9447
   95SAPE  H18Y 9508   0.694   3.194   6.082 -1.5381 -0.1160  0.6144
   95SAPE  H18Z 9509   0.863   3.227   6.130 -0.7185 -0.0184 -0.8635
   96SAPE     N 9510   3.854   4.476   8.086  0.5122  0.1155  0.0372
   96SAPE   HN1 9511   3.918   4.456   8.006 -1.2266  2.0258 -1.9809
   96SAPE   HN2 9512   3.810   4.389   8.121 -1.7861  1.5464  0.9320
   96SAPE   HN3 9513   3.791   4.550   8.049 -1.3054 -0.9814  0.8054
   96SAPE   C12 9514   3.923   4.545   8.201 -0.0975 -0.2099  0.2211
   96SAPE  H12A 9515   3.848   4.558   8.282  0.3861  1.5886  0.4406
   96SAPE  H12B 9516   3.960   4.648   8.180 -0.2921  0.2119  1.7847
   96SAPE   C11 9517   4.030   4.451   8.259 -0.3187  0.1594 -0.4196
   96SAPE  H11A 9518   3.971   4.365   8.297  0.0092  0.5915  1.1301
   96SAPE  H11B 9519   4.089   4.505   8.336  0.1995 -0.6044 -0.2750
   96SAPE     P 9520   4.226   4.289   8.185  0.2213  0.3452 -0.3853
   96SAPE   O13 9521   4.195   4.209   8.306  0.5275  0.3351  0.5629
   96SAPE   O14 9522   4.240   4.214   8.061  0.0968  0.5210 -0.0199
   96SAPE   O12 9523   4.118   4.398   8.157 -0.5708 -0.4418  0.1111
   96SAPE   O11 9524   4.364   4.365   8.211 -0.9274  0.3234 -0.5870
   96SAPE    C1 9525   4.385   4.499   8.174  0.2145 -0.6993  0.2904
   96SAPE    HA 9526   4.297   4.566   8.183  0.3356 -0.3507 -0.9224
   96SAPE    HB 9527   4.457   4.544   8.246  0.2919 -1.5197  0.7370
   96SAPE    C2 9528   4.472   4.505   8.046  0.5531  0.2920  0.5724
   96SAPE    HS 9529   4.522   4.604   8.042  2.5982 -0.7263 -1.6485
   96SAPE   O21 9530   4.369   4.496   7.945  0.2315 -0.1201 -0.0487
   96SAPE   C21 9531   4.293   4.596   7.923 -0.2978 -0.5717 -0.4244
   96SAPE   O22 9532   4.307   4.704   7.982 -0.2658  0.5059  0.4880
   96SAPE   C22 9533   4.201   4.550   7.813  0.8344 -0.6959  0.3559
   96SAPE   H2R 9534   4.183   4.440   7.818 -1.7907 -0.3065  0.8542
   96SAPE   H2S 9535   4.098   4.581   7.838 -0.2161 -3.0408 -0.6854
   96SAPE    C3 9536   4.578   4.394   8.026  0.2752  0.1811 -0.3592
   96SAPE    HX 9537   4.523   4.298   8.013  0.9920 -0.1351 -1.2036
   96SAPE    HY 9538   4.636   4.384   8.120  1.1852  0.9378 -0.8303
   96SAPE   O31 9539   4.664   4.418   7.912  0.9006 -0.1653  0.5038
   96SAPE   C31 9540   4.712   4.307   7.853 -0.4187  1.1838 -0.4243
   96SAPE   O32 9541   4.703   4.196   7.903  0.2422  0.2788 -0.8939
   96SAPE   C32 9542   4.761   4.345   7.718  0.5072 -0.0066 -0.4544
   96SAPE   H2X 9543   4.668   4.340   7.656 -0.0329  0.5358  0.2842
   96SAPE   H2Y 9544   4.834   4.268   7.686 -0.9968 -1.5920 -0.2141
   96SAPE   C23 9545   4.232   4.609   7.673 -0.6088  0.3501 -0.5664
   96SAPE   H3R 9546   4.242   4.720   7.676  0.9485  0.2190  1.3428
   96SAPE   H3S 9547   4.159   4.580   7.594  0.3250  1.8179 -2.0415
   96SAPE   C24 9548   4.367   4.559   7.610 -0.2432 -0.9219  0.1253
   96SAPE   H4R 9549   4.447   4.601   7.674 -0.4642  1.2575 -0.9036
   96SAPE   H4S 9550   4.376   4.612   7.513 -1.0097 -1.3458 -0.1878
   96SAPE   C25 9551   4.386   4.407   7.596  0.6068 -0.3166  0.5442
   96SAPE   H5R 9552   4.349   4.355   7.685 -1.2115 -0.1271 -0.0510
   96SAPE   C26 9553   4.398   4.334   7.486 -0.7019 -0.0650 -0.0352
   96SAPE   H6R 9554   4.405   4.226   7.506  0.3623  0.1029  0.6158
   96SAPE   C27 9555   4.442   4.381   7.344 -0.2740  0.4860  0.6242
   96SAPE   H7R 9556   4.530   4.448   7.343  2.1065 -2.4408 -1.5012
   96SAPE   H7S 9557   4.351   4.429   7.303  1.1264  2.7800  0.0764
   96SAPE   C28 9558   4.478   4.264   7.255 -0.2041  0.5739  0.3392
   96SAPE   H8R 9559   4.410   4.242   7.171 -0.3935 -3.4959  1.3785
   96SAPE   C29 9560   4.592   4.189   7.260  0.1425 -0.0299 -0.0220
   96SAPE   H9R 9561   4.616   4.120   7.177  0.9933  0.7396 -0.4366
   96SAPE  C210 9562   4.694   4.186   7.375 -0.2868 -0.0417 -0.7075
   96SAPE  H10R 9563   4.692   4.275   7.442  1.9144  1.2687 -2.2297
   96SAPE  H10S 9564   4.792   4.200   7.324 -0.2994 -1.5047 -1.1619
   96SAPE  C211 9565   4.695   4.067   7.470 -0.4767  0.6254  0.1553
   96SAPE  H11R 9566   4.598   4.064   7.521 -0.3779  0.3521  0.3294
   96SAPE  C212 9567   4.802   3.993   7.517 -0.0302  0.2264 -0.2740
   96SAPE  H12R 9568   4.788   3.902   7.577  0.6214  0.5043  0.3099
   96SAPE  C213 9569   4.943   4.009   7.466 -0.2299 -1.0991 -0.0141
   96SAPE  H13R 9570   4.988   4.087   7.530  1.9407 -1.6670 -0.7731
   96SAPE  H13S 9571   4.946   4.047   7.362 -0.3874  2.9400  1.3156
   96SAPE  C214 9572   5.026   3.883   7.505 -0.0486  0.3894  0.2220
   96SAPE  H14R 9573   5.036   3.870   7.614 -1.2062  0.5193  0.3601
   96SAPE  C215 9574   5.108   3.809   7.421  0.0585  0.1974 -0.2690
   96SAPE  H15R 9575   5.150   3.720   7.470 -1.1965  0.2034  0.8929
   96SAPE  C216 9576   5.119   3.818   7.271 -0.4288  0.5919  0.0011
   96SAPE  H16R 9577   5.181   3.908   7.248 -1.4968  0.8524 -2.0506
   96SAPE  H16S 9578   5.022   3.824   7.218 -1.6383  0.8623  2.1132
   96SAPE  C217 9579   5.197   3.687   7.227 -0.0144 -0.4831  0.3027
   96SAPE  H17R 9580   5.133   3.596   7.238 -1.6054  0.7306  1.6372
   96SAPE  H17S 9581   5.294   3.679   7.281  1.8388  0.0555 -2.7714
   96SAPE  C218 9582   5.238   3.706   7.082  0.6542  0.0075  0.5787
   96SAPE  H18R 9583   5.303   3.795   7.070 -0.4545  0.4137 -4.5930
   96SAPE  H18S 9584   5.148   3.731   7.022  1.2777 -0.6993 -0.6772
   96SAPE  C219 9585   5.315   3.597   7.010 -0.5286  0.4642 -0.2037
   96SAPE  H19R 9586   5.262   3.500   7.000  1.0491 -0.4995  0.3316
   96SAPE  H19S 9587   5.405   3.582   7.075  1.1388 -0.6998 -2.6100
   96SAPE  C220 9588   5.366   3.643   6.873  0.3434 -0.0819 -0.1921
   96SAPE  H20R 9589   5.421   3.559   6.825 -0.3253 -0.9553  0.5295
   96SAPE  H20S 9590   5.437   3.726   6.892  1.4321 -1.1203  0.3948
   96SAPE  H20T 9591   5.283   3.670   6.804 -0.3872 -2.7896 -0.4928
   96SAPE   C33 9592   4.826   4.482   7.705  0.0206 -0.5501 -0.0179
   96SAPE   H3X 9593   4.924   4.472   7.756 -0.1139 -2.5394 -0.0466
   96SAPE   H3Y 9594   4.762   4.560   7.750  1.7164  0.4789  0.6988
   96SAPE   C34 9595   4.849   4.522   7.559 -0.1615 -0.1827  0.0728
   96SAPE   H4X 9596   4.893   4.624   7.556 -0.9169  0.1445 -0.3297
   96SAPE   H4Y 9597   4.749   4.526   7.510  0.2314 -0.4884 -0.7647
   96SAPE   C35 9598   4.955   4.437   7.488 -0.0083  0.4893  0.5751
   96SAPE   H5X 9599   4.923   4.331   7.486 -0.4963  0.6089  1.4126
   96SAPE   H5Y 9600   5.058   4.447   7.530  1.6270 -2.0898 -2.3824
   96SAPE   C36 9601   4.969   4.473   7.336  0.3291  0.1112 -0.7505
   96SAPE   H6X 9602   5.015   4.575   7.333 -0.8183  0.6770  0.1127
   96SAPE   H6Y 9603   4.868   4.486   7.292 -0.5971 -1.7238  0.7181
   96SAPE   C37 9604   5.046   4.385   7.249 -1.0229  0.3968 -0.3259
   96SAPE   H7X 9605   5.019   4.279   7.264 -1.5182  0.4088 -1.0861
   96SAPE   H7Y 9606   5.148   4.396   7.293 -1.4375 -0.1546  0.8090
   96SAPE   C38 9607   5.029   4.395   7.098  0.2733 -0.2945  0.1941
   96SAPE   H8X 9608   5.116   4.343   7.053 -0.8040 -2.3504  0.3465
   96SAPE   H8Y 9609   5.019   4.502   7.071 -1.1022 -0.6740 -0.9555
   96SAPE   C39 9610   4.895   4.335   7.049  0.4007 -0.1292 -0.1600
   96SAPE   H9X 9611   4.809   4.379   7.104  0.1084  2.4684 -2.4338
   96SAPE   H9Y 9612   4.884   4.226   7.068  0.9187 -0.0265  0.7425
   96SAPE  C310 9613   4.873   4.357   6.898  0.0949 -0.2945 -0.1392
   96SAPE  H10X 9614   4.960   4.312   6.846 -1.9010 -2.4967 -1.8679
   96SAPE  H10Y 9615   4.868   4.464   6.871  1.0174 -0.2162 -0.0270
   96SAPE  C311 9616   4.755   4.282   6.842  0.2335 -0.4043  0.1442
   96SAPE  H11X 9617   4.667   4.337   6.883  3.3719  3.6257  2.1435
   96SAPE  H11Y 9618   4.735   4.179   6.880 -2.8972 -0.3588 -1.0988
   96SAPE  C312 9619   4.752   4.291   6.689  0.4762  0.0243  0.2130
   96SAPE  H12X 9620   4.819   4.214   6.645  3.5439  2.8401 -0.4832
   96SAPE  H12Y 9621   4.788   4.388   6.648 -1.4452  0.4304 -0.6276
   96SAPE  C313 9622   4.615   4.269   6.638  0.0627 -0.2647 -0.3660
   96SAPE  H13X 9623   4.567   4.191   6.700  2.1749 -0.6155  0.9385
   96SAPE  H13Y 9624   4.629   4.239   6.532  0.9293  0.8968 -0.6029
   96SAPE  C314 9625   4.523   4.392   6.646 -0.4178 -1.0260  0.4196
   96SAPE  H14X 9626   4.574   4.481   6.606 -3.8017  0.0097 -2.0606
   96SAPE  H14Y 9627   4.488   4.423   6.747 -1.9941 -1.0238 -0.0950
   96SAPE  C315 9628   4.388   4.369   6.567 -0.0356 -0.2939 -0.4293
   96SAPE  H15X 9629   4.315   4.443   6.606  1.2358 -0.0944  1.7846
   96SAPE  H15Y 9630   4.364   4.264   6.594  2.1488 -0.2646  2.1260
   96SAPE  C316 9631   4.406   4.393   6.416  0.8057  0.4995  0.1632
   96SAPE  H16X 9632   4.506   4.359   6.384  1.6989  0.7337  2.4677
   96SAPE  H16Y 9633   4.410   4.504   6.419  2.4121  0.4798 -0.5842
   96SAPE  C317 9634   4.293   4.331   6.327 -0.2817 -0.2973 -0.2610
   96SAPE  H17X 9635   4.289   4.222   6.348 -1.7240 -0.1378  0.4121
   96SAPE  H17Y 9636   4.336   4.351   6.227 -1.6973  2.9109 -0.3678
   96SAPE  C318 9637   4.158   4.390   6.366 -0.3655 -0.2578  0.3268
   96SAPE  H18X 9638   4.075   4.343   6.309 -0.3928  0.7413 -0.4909
   96SAPE  H18Y 9639   4.144   4.500   6.357 -0.0314 -0.2309  0.1385
   96SAPE  H18Z 9640   4.140   4.356   6.470  1.7237 -1.2624  0.4112
   97SAPE     N 9641   5.557   1.984   7.739  0.1519 -0.0481 -0.6021
   97SAPE   HN1 9642   5.473   2.031   7.699 -0.4921 -1.2595 -0.7246
   97SAPE   HN2 9643   5.519   1.902   7.789  0.5524  1.7873  3.0493
   97SAPE   HN3 9644   5.596   2.043   7.815 -2.0291 -0.0768  0.6236
   97SAPE   C12 9645   5.650   1.927   7.645  0.2920  0.3858  0.2891
   97SAPE  H12A 9646   5.674   2.006   7.571  0.3797 -0.1224 -0.2362
   97SAPE  H12B 9647   5.599   1.841   7.595  1.5458 -0.1375 -0.1370
   97SAPE   C11 9648   5.774   1.862   7.707 -0.3547 -0.2484  0.2187
   97SAPE  H11A 9649   5.835   1.814   7.628 -0.9703  1.0160 -1.0723
   97SAPE  H11B 9650   5.735   1.787   7.779 -0.3829 -0.4978 -0.0536
   97SAPE     P 9651   5.972   1.935   7.873 -0.0139 -0.4206  0.4129
   97SAPE   O13 9652   6.053   2.060   7.883 -0.8081  0.2211  0.3797
   97SAPE   O14 9653   5.918   1.890   7.999  0.3181  0.0219  0.4956
   97SAPE   O12 9654   5.848   1.965   7.777  0.1314  1.1463  0.2332
   97SAPE   O11 9655   6.067   1.825   7.803 -0.1051  0.4001  0.6678
   97SAPE    C1 9656   6.037   1.688   7.805 -0.1823  0.7242  0.0904
   97SAPE    HA 9657   6.051   1.644   7.906 -0.1555 -2.2395 -1.1170
   97SAPE    HB 9658   5.936   1.660   7.770  0.6991 -0.0585 -1.9489
   97SAPE    C2 9659   6.125   1.608   7.711  0.3482 -0.0260  0.0651
   97SAPE    HS 9660   6.230   1.620   7.746  0.8043 -0.1526 -1.2293
   97SAPE   O21 9661   6.105   1.666   7.580 -0.2423  0.6008  0.1633
   97SAPE   C21 9662   6.205   1.647   7.502 -0.3676  0.3839  0.2329
   97SAPE   O22 9663   6.312   1.599   7.538 -0.2952 -0.0157  0.7575
   97SAPE   C22 9664   6.176   1.674   7.356  0.0542 -0.4934 -0.2352
   97SAPE   H2R 9665   6.126   1.580   7.327  1.3166 -0.6454 -2.0541
   97SAPE   H2S 9666   6.113   1.764   7.338  0.6051 -0.1850 -0.6402
   97SAPE    C3 9667   6.081   1.454   7.711 -0.0006  0.6137  0.1913
   97SAPE    HX 9668   6.123   1.416   7.806  0.4230  0.6870  0.0359
   97SAPE    HY 9669   6.142   1.408   7.630  0.0593  3.0187 -1.2401
   97SAPE   O31 9670   5.946   1.433   7.712  0.6396  0.3906 -0.5493
   97SAPE   C31 9671   5.883   1.426   7.587 -0.4521 -0.4756  0.6634
   97SAPE   O32 9672   5.946   1.438   7.483  0.2366  0.1762 -0.1359
   97SAPE   C32 9673   5.736   1.392   7.615 -0.5885  0.5841  1.0471
   97SAPE   H2X 9674   5.706   1.420   7.719 -2.4528 -0.5219  0.8617
   97SAPE   H2Y 9675   5.728   1.281   7.609  1.1966  0.4973 -0.8575
   97SAPE   C23 9676   6.311   1.687   7.278  0.0683 -0.5038  0.4265
   97SAPE   H3R 9677   6.371   1.594   7.290 -0.2498 -0.3667  4.2184
   97SAPE   H3S 9678   6.365   1.770   7.328 -1.3514  1.4453 -1.0765
   97SAPE   C24 9679   6.278   1.710   7.132  0.2393  0.4155  0.2876
   97SAPE   H4R 9680   6.194   1.782   7.123 -0.7625 -0.8395 -0.6685
   97SAPE   H4S 9681   6.233   1.613   7.102 -0.9842 -0.5674  4.6042
   97SAPE   C25 9682   6.396   1.734   7.048 -0.6894 -0.8693  0.1227
   97SAPE   H5R 9683   6.490   1.759   7.098 -1.2055 -0.9158  1.1295
   97SAPE   C26 9684   6.382   1.764   6.913  0.1551  0.2664 -0.2721
   97SAPE   H6R 9685   6.471   1.791   6.854  0.2141  0.3093 -0.1629
   97SAPE   C27 9686   6.256   1.731   6.831  0.0693  0.0165  0.3025
   97SAPE   H7R 9687   6.220   1.820   6.776  0.1961  0.3602  0.7633
   97SAPE   H7S 9688   6.170   1.689   6.887 -0.2835  0.4818  0.1088
   97SAPE   C28 9689   6.311   1.617   6.747 -0.2627  0.0441 -0.4304
   97SAPE   H8R 9690   6.347   1.530   6.804  0.2468  0.2064 -0.5002
   97SAPE   C29 9691   6.313   1.609   6.618  0.6914 -0.3532 -0.3387
   97SAPE   H9R 9692   6.368   1.528   6.568 -0.3754 -1.6208  0.4559
   97SAPE  C210 9693   6.254   1.714   6.518  0.3717  0.5419 -0.4830
   97SAPE  H10R 9694   6.167   1.771   6.555  0.8143 -0.3288  2.1899
   97SAPE  H10S 9695   6.209   1.654   6.436  2.8925 -1.6403 -0.4344
   97SAPE  C211 9696   6.360   1.803   6.455 -1.0467  0.0990  0.0911
   97SAPE  H11R 9697   6.408   1.869   6.528  0.7797  0.8970 -1.7527
   97SAPE  C212 9698   6.388   1.812   6.324  0.2208  0.0378  0.2776
   97SAPE  H12R 9699   6.467   1.879   6.287 -1.3954  1.6439 -0.4195
   97SAPE  C213 9700   6.335   1.738   6.205  0.4456  0.8090  0.4592
   97SAPE  H13R 9701   6.330   1.629   6.228  0.3239  0.0976 -2.4851
   97SAPE  H13S 9702   6.417   1.750   6.131 -0.2883 -2.6261 -1.1285
   97SAPE  C214 9703   6.202   1.800   6.154  0.2595  0.2390  0.3451
   97SAPE  H14R 9704   6.115   1.732   6.163  1.7435 -1.7310  0.6399
   97SAPE  C215 9705   6.181   1.924   6.097 -0.9021 -0.2128  0.2266
   97SAPE  H15R 9706   6.082   1.964   6.069  0.1965  2.0308 -0.8026
   97SAPE  C216 9707   6.287   2.028   6.104 -0.3497 -0.1889  0.2555
   97SAPE  H16R 9708   6.349   2.021   6.012  1.8242 -0.7541  1.7062
   97SAPE  H16S 9709   6.371   2.007   6.173 -0.0212  1.2743  0.3317
   97SAPE  C217 9710   6.244   2.169   6.146  0.6964  0.0846  1.0231
   97SAPE  H17R 9711   6.208   2.171   6.251  1.1865  0.6408  1.1885
   97SAPE  H17S 9712   6.154   2.198   6.087  0.3624 -2.2363  0.3069
   97SAPE  C218 9713   6.363   2.275   6.157  0.2514  0.5083 -0.1223
   97SAPE  H18R 9714   6.415   2.293   6.061  0.1595 -1.9916 -0.6985
   97SAPE  H18S 9715   6.433   2.225   6.226 -2.5654 -2.3199  0.9235
   97SAPE  C219 9716   6.334   2.413   6.225  0.4722 -0.1431  0.3783
   97SAPE  H19R 9717   6.275   2.391   6.317 -0.9095 -1.5348 -0.7934
   97SAPE  H19S 9718   6.271   2.474   6.156 -0.1083  1.0109  1.8656
   97SAPE  C220 9719   6.458   2.491   6.260  0.3460 -0.0461 -0.3561
   97SAPE  H20R 9720   6.429   2.588   6.304  3.6174  1.2078 -0.6880
   97SAPE  H20S 9721   6.517   2.513   6.168  0.5542 -0.0980 -0.2362
   97SAPE  H20T 9722   6.525   2.439   6.332  0.6343  0.7415 -0.0539
   97SAPE   C33 9723   5.634   1.461   7.519  0.4573  0.0765 -0.4576
   97SAPE   H3X 9724   5.637   1.572   7.523  2.0877  0.0435  2.4783
   97SAPE   H3Y 9725   5.538   1.438   7.570  0.6779  0.9944  0.4009
   97SAPE   C34 9726   5.628   1.402   7.377  0.4446  0.4605 -0.7449
   97SAPE   H4X 9727   5.596   1.297   7.395  1.1060 -0.0657 -2.4636
   97SAPE   H4Y 9728   5.725   1.397   7.324 -0.1754 -0.4572 -1.8743
   97SAPE   C35 9729   5.522   1.470   7.291  0.1669 -0.5154  0.2178
   97SAPE   H5X 9730   5.531   1.579   7.313  0.5475 -0.0952 -1.8305
   97SAPE   H5Y 9731   5.420   1.443   7.326  0.0764  1.0128  1.2545
   97SAPE   C36 9732   5.537   1.427   7.148 -0.2012 -0.6452  0.8743
   97SAPE   H6X 9733   5.544   1.317   7.132  1.5388 -0.6638  1.5003
   97SAPE   H6Y 9734   5.635   1.453   7.102 -1.4098  1.0335 -0.8900
   97SAPE   C37 9735   5.421   1.480   7.062 -0.7095  0.4903 -0.3938
   97SAPE   H7X 9736   5.428   1.591   7.058  1.2607  0.4154 -0.1435
   97SAPE   H7Y 9737   5.334   1.440   7.119  0.6546 -1.2606  0.5896
   97SAPE   C38 9738   5.412   1.437   6.910  0.5980 -0.0138 -0.2219
   97SAPE   H8X 9739   5.504   1.484   6.870  0.4457  0.5049  0.0349
   97SAPE   H8Y 9740   5.315   1.480   6.877  0.0406 -0.9561  0.1397
   97SAPE   C39 9741   5.410   1.282   6.882 -0.5867 -0.4326  0.4721
   97SAPE   H9X 9742   5.323   1.238   6.936 -0.3315  1.0545  2.1908
   97SAPE   H9Y 9743   5.505   1.247   6.927 -0.3856 -0.6081 -0.0804
   97SAPE  C310 9744   5.419   1.241   6.733  0.1678  0.1283 -0.3663
   97SAPE  H10X 9745   5.513   1.277   6.685  2.5752 -2.9530  1.6003
   97SAPE  H10Y 9746   5.331   1.287   6.684 -0.0732 -1.2881 -1.3165
   97SAPE  C311 9747   5.414   1.082   6.713 -0.6193 -0.4965  0.4360
   97SAPE  H11X 9748   5.314   1.046   6.746 -0.2599 -0.1610  1.9704
   97SAPE  H11Y 9749   5.495   1.037   6.774  0.4709  0.9111  0.0727
   97SAPE  C312 9750   5.437   1.051   6.571  0.0064 -0.6631  0.3133
   97SAPE  H12X 9751   5.534   1.092   6.538 -0.6945  0.7840 -0.0417
   97SAPE  H12Y 9752   5.355   1.101   6.515 -1.1014  0.4177  2.7520
   97SAPE  C313 9753   5.423   0.901   6.538 -0.5006  0.3999  0.6613
   97SAPE  H13X 9754   5.319   0.878   6.570 -0.7923  0.8938  0.0979
   97SAPE  H13Y 9755   5.495   0.843   6.600  0.1434 -0.5034 -0.8644
   97SAPE  C314 9756   5.451   0.854   6.393  0.4633  0.2200  0.3138
   97SAPE  H14X 9757   5.429   0.745   6.394 -0.2392  0.3495 -0.2139
   97SAPE  H14Y 9758   5.559   0.869   6.374  0.0178  0.7833 -1.9713
   97SAPE  C315 9759   5.374   0.928   6.284  0.5070  0.1772 -0.1866
   97SAPE  H15X 9760   5.369   1.037   6.307 -3.5030  0.3070 -0.8622
   97SAPE  H15Y 9761   5.269   0.892   6.291  0.5442 -0.3187 -1.7107
   97SAPE  C316 9762   5.405   0.905   6.141 -0.2956  0.2490 -0.1579
   97SAPE  H16X 9763   5.328   0.956   6.079 -0.4035 -0.2210 -0.4162
   97SAPE  H16Y 9764   5.405   0.798   6.112  1.9231  0.3565 -0.7842
   97SAPE  C317 9765   5.548   0.951   6.103 -0.5196  0.6860 -0.1700
   97SAPE  H17X 9766   5.547   0.924   5.995  1.6886 -1.1540  0.1819
   97SAPE  H17Y 9767   5.625   0.895   6.160  0.9936 -1.4929 -3.9096
   97SAPE  C318 9768   5.572   1.109   6.112 -0.7886  0.6746  0.4433
   97SAPE  H18X 9769   5.480   1.168   6.094 -0.4184  0.7070 -1.6440
   97SAPE  H18Y 9770   5.655   1.147   6.049  0.5280  1.9764  2.8251
   97SAPE  H18Z 9771   5.604   1.116   6.218  0.5623 -4.2235  0.5727
   98SAPE     N 9772   1.410   3.309   0.047 -0.4672  0.0301 -0.2925
   98SAPE   HN1 9773   1.483   3.300  -0.026 -1.8372 -1.1517 -1.5867
   98SAPE   HN2 9774   1.322   3.284  -0.002 -0.2677 -0.2251 -0.5235
   98SAPE   HN3 9775   1.415   3.402   0.093 -0.9657 -0.3972  0.6400
   98SAPE   C12 9776   1.425   3.209   0.161  0.7475  0.0375 -0.0618
   98SAPE  H12A 9777   1.344   3.221   0.236  0.1503 -3.7757  0.1385
   98SAPE  H12B 9778   1.525   3.229   0.204  0.2135  0.1477  1.1747
   98SAPE   C11 9779   1.403   3.075   0.099  0.2438  1.7727 -0.0998
   98SAPE  H11A 9780   1.301   3.069   0.053 -0.6219  2.9563  1.5790
   98SAPE  H11B 9781   1.410   2.999   0.179  1.0124  1.8458 -0.0912
   98SAPE     P 9782   1.654   2.986   0.044  0.8562  0.1636  0.4759
   98SAPE   O13 9783   1.758   3.080   0.000 -0.4654  0.8849  0.1863
   98SAPE   O14 9784   1.652   2.951   0.188  0.2981  0.1066  0.3584
   98SAPE   O12 9785   1.508   3.046   0.005  0.3898  0.4439  0.3345
   98SAPE   O11 9786   1.645   2.851  -0.031 -0.1530 -0.2781 -0.2883
   98SAPE    C1 9787   1.537   2.758   0.009 -0.2843  0.1102  0.5082
   98SAPE    HA 9788   1.477   2.785   0.099 -1.6624  1.6217 -0.7995
   98SAPE    HB 9789   1.471   2.752  -0.081  0.7608 -0.7217 -0.2320
   98SAPE    C2 9790   1.588   2.610   0.033 -0.3116 -0.4752 -0.2069
   98SAPE    HS 9791   1.656   2.602   0.120 -0.1220 -0.9884 -0.3971
   98SAPE   O21 9792   1.644   2.573  -0.090 -0.5263 -0.3596  0.6475
   98SAPE   C21 9793   1.734   2.471  -0.078  0.5796 -0.9466 -1.1329
   98SAPE   O22 9794   1.743   2.399   0.023 -0.4267  0.3026 -0.2272
   98SAPE   C22 9795   1.819   2.449  -0.208 -0.0933 -0.3045 -0.2660
   98SAPE   H2R 9796   1.884   2.538  -0.216  0.5960 -0.5584  1.9278
   98SAPE   H2S 9797   1.887   2.362  -0.205  1.4004  0.8120 -0.4479
   98SAPE    C3 9798   1.474   2.513   0.068  0.0961 -0.4290 -0.0880
   98SAPE    HX 9799   1.428   2.547   0.163 -0.3272  0.8392 -0.7254
   98SAPE    HY 9800   1.503   2.408   0.088 -0.2120 -0.7989 -1.4725
   98SAPE   O31 9801   1.374   2.514  -0.035  0.5391  0.2981 -0.1361
   98SAPE   C31 9802   1.382   2.430  -0.140  0.7527 -0.7264  0.3738
   98SAPE   O32 9803   1.447   2.330  -0.158 -0.1924  0.1945  0.2701
   98SAPE   C32 9804   1.330   2.512  -0.255  0.1882 -0.4481  0.1722
   98SAPE   H2X 9805   1.378   2.611  -0.241  0.5264 -0.4007 -1.2078
   98SAPE   H2Y 9806   1.220   2.526  -0.255  0.0678 -1.2907 -0.9214
   98SAPE   C23 9807   1.725   2.463  -0.326  0.4212  0.4112  0.5184
   98SAPE   H3R 9808   1.679   2.564  -0.332 -0.7823 -0.1980 -1.0729
   98SAPE   H3S 9809   1.640   2.392  -0.324  0.9163 -0.1945  0.4908
   98SAPE   C24 9810   1.799   2.433  -0.458 -0.1107  0.6890 -0.3683
   98SAPE   H4R 9811   1.894   2.487  -0.439 -0.7363  1.5655  0.3730
   98SAPE   H4S 9812   1.737   2.483  -0.535 -0.9423  3.8488  2.1215
   98SAPE   C25 9813   1.825   2.288  -0.495 -0.5615 -0.0340 -0.4569
   98SAPE   H5R 9814   1.752   2.213  -0.459 -0.0699  0.2253  1.1565
   98SAPE   C26 9815   1.919   2.246  -0.578 -0.2404 -0.4438  0.5725
   98SAPE   H6R 9816   1.918   2.141  -0.612 -0.3453 -0.5281  0.8383
   98SAPE   C27 9817   2.016   2.334  -0.653 -0.1332 -0.3832 -0.2663
   98SAPE   H7R 9818   2.041   2.423  -0.591 -2.7750 -0.6596  1.3310
   98SAPE   H7S 9819   1.979   2.373  -0.751  0.2320 -0.6766 -0.5208
   98SAPE   C28 9820   2.146   2.261  -0.673  0.4852  0.2868  0.6770
   98SAPE   H8R 9821   2.157   2.158  -0.636  0.2254  0.2378  0.6179
   98SAPE   C29 9822   2.252   2.316  -0.738  0.5908 -0.1375 -0.2450
   98SAPE   H9R 9823   2.349   2.264  -0.741  1.0636  0.6715  0.3515
   98SAPE  C210 9824   2.255   2.454  -0.800 -0.1898  0.6531  0.5989
   98SAPE  H10R 9825   2.195   2.529  -0.745  0.3946  2.2636 -0.8901
   98SAPE  H10S 9826   2.210   2.457  -0.901 -1.2800 -0.6768  1.0253
   98SAPE  C211 9827   2.399   2.508  -0.800  0.0502  0.5523  0.1142
   98SAPE  H11R 9828   2.432   2.545  -0.702 -0.3159 -1.5958  1.1082
   98SAPE  C212 9829   2.478   2.524  -0.905  0.0448 -0.4068  0.0402
   98SAPE  H12R 9830   2.582   2.556  -0.889 -0.0782 -0.3622  0.8161
   98SAPE  C213 9831   2.462   2.478  -1.046  0.4786 -1.0850 -0.6179
   98SAPE  H13R 9832   2.387   2.551  -1.083  1.4846  1.6467  2.2741
   98SAPE  H13S 9833   2.412   2.379  -1.052 -0.2743 -0.6984 -0.8547
   98SAPE  C214 9834   2.594   2.459  -1.126  0.4341 -0.0621 -0.3013
   98SAPE  H14R 9835   2.664   2.543  -1.113  1.1058 -0.1599 -2.7933
   98SAPE  C215 9836   2.617   2.366  -1.228 -0.0674 -0.0356  0.1284
   98SAPE  H15R 9837   2.712   2.357  -1.283 -0.4947  1.4756 -0.9236
   98SAPE  C216 9838   2.513   2.260  -1.269 -0.9112 -0.2181 -0.4361
   98SAPE  H16R 9839   2.424   2.304  -1.320 -0.4003 -2.0533 -3.1196
   98SAPE  H16S 9840   2.474   2.209  -1.178  1.1356  0.6483  0.9963
   98SAPE  C217 9841   2.570   2.144  -1.353 -0.1755 -0.3265 -0.4308
   98SAPE  H17R 9842   2.483   2.075  -1.357 -2.6194  2.1602  3.4276
   98SAPE  H17S 9843   2.652   2.091  -1.299 -0.7111 -1.8015 -1.0162
   98SAPE  C218 9844   2.615   2.172  -1.496  0.1535  0.2825 -0.2362
   98SAPE  H18R 9845   2.642   2.072  -1.537 -0.0777 -0.4921  1.4337
   98SAPE  H18S 9846   2.711   2.227  -1.510  1.9203 -2.5173  0.0766
   98SAPE  C219 9847   2.507   2.246  -1.574 -0.1035  0.5968 -0.0910
   98SAPE  H19R 9848   2.536   2.246  -1.681 -0.1413  1.1705 -0.1068
   98SAPE  H19S 9849   2.511   2.353  -1.545 -1.6018  0.8520 -0.7198
   98SAPE  C220 9850   2.368   2.191  -1.577  0.1935 -0.5080  0.1843
   98SAPE  H20R 9851   2.355   2.088  -1.616  0.3804  0.1235 -1.6562
   98SAPE  H20S 9852   2.296   2.253  -1.635  1.0902  0.6184  0.2373
   98SAPE  H20T 9853   2.335   2.196  -1.471  2.8015  1.2853  1.0066
   98SAPE   C33 9854   1.353   2.446  -0.397 -0.5604  0.1317  0.1873
   98SAPE   H3X 9855   1.327   2.339  -0.401 -0.0529  0.0287 -0.4587
   98SAPE   H3Y 9856   1.460   2.444  -0.425 -0.2839  1.0069  1.1112
   98SAPE   C34 9857   1.292   2.508  -0.516 -0.1702 -0.1425 -0.3437
   98SAPE   H4X 9858   1.250   2.606  -0.486  3.4988  1.5456 -0.1881
   98SAPE   H4Y 9859   1.204   2.458  -0.563 -0.0289 -0.4788 -0.2560
   98SAPE   C35 9860   1.399   2.520  -0.633 -0.5035  0.2157 -0.6405
   98SAPE   H5X 9861   1.480   2.590  -0.602 -0.0623  0.7322 -2.8010
   98SAPE   H5Y 9862   1.355   2.580  -0.716 -0.8470  1.8828  0.6844
   98SAPE   C36 9863   1.464   2.386  -0.679  0.1350 -0.1042  0.0894
   98SAPE   H6X 9864   1.390   2.311  -0.714  1.6353 -1.8471  0.4848
   98SAPE   H6Y 9865   1.526   2.340  -0.599  0.5844 -1.3419 -0.9242
   98SAPE   C37 9866   1.564   2.400  -0.797  0.5627  0.3269  0.8068
   98SAPE   H7X 9867   1.602   2.297  -0.813 -0.6991  0.0344 -0.5869
   98SAPE   H7Y 9868   1.639   2.479  -0.773 -1.0884  1.4588  2.5137
   98SAPE   C38 9869   1.508   2.435  -0.933 -0.5370  0.2527  0.1378
   98SAPE   H8X 9870   1.458   2.534  -0.934  1.2029  1.1612 -0.1904
   98SAPE   H8Y 9871   1.436   2.355  -0.962 -1.3713  0.3623  1.8086
   98SAPE   C39 9872   1.604   2.425  -1.058  0.4491  0.3502 -0.3415
   98SAPE   H9X 9873   1.623   2.318  -1.079 -0.0708 -0.2444  1.9725
   98SAPE   H9Y 9874   1.699   2.472  -1.026  0.1696  0.5499  0.2163
   98SAPE  C310 9875   1.554   2.489  -1.185  0.4018 -0.2815 -0.0573
   98SAPE  H10X 9876   1.510   2.588  -1.158 -2.5990 -1.5765  0.1713
   98SAPE  H10Y 9877   1.470   2.430  -1.226 -0.1305  0.9616 -0.8166
   98SAPE  C311 9878   1.669   2.512  -1.288 -0.0780  0.2188 -0.0254
   98SAPE  H11X 9879   1.725   2.420  -1.314  1.7885  1.0345  0.9047
   98SAPE  H11Y 9880   1.746   2.587  -1.258  1.2737 -1.5048  0.9902
   98SAPE  C312 9881   1.605   2.568  -1.418  0.2790 -0.1547  0.1783
   98SAPE  H12X 9882   1.556   2.666  -1.396  1.5368 -0.0244  2.7905
   98SAPE  H12Y 9883   1.530   2.497  -1.459 -1.4775  0.5245  2.0179
   98SAPE  C313 9884   1.715   2.587  -1.526 -0.3741  0.2999 -0.4799
   98SAPE  H13X 9885   1.761   2.488  -1.544 -1.8971 -0.5560  0.1682
   98SAPE  H13Y 9886   1.790   2.662  -1.492 -1.1289  0.7492  0.2317
   98SAPE  C314 9887   1.664   2.638  -1.659  1.4589  0.1597 -0.1327
   98SAPE  H14X 9888   1.588   2.716  -1.636  2.5556  1.4865 -0.8756
   98SAPE  H14Y 9889   1.604   2.551  -1.696  0.4204  0.3150  1.0996
   98SAPE  C315 9890   1.777   2.682  -1.746 -0.3643 -0.6840 -0.0611
   98SAPE  H15X 9891   1.846   2.596  -1.733  0.7332  0.1302 -0.3217
   98SAPE  H15Y 9892   1.833   2.769  -1.704  2.0006 -0.6088 -3.0240
   98SAPE  C316 9893   1.737   2.690  -1.892  0.2901  0.0906 -1.0747
   98SAPE  H16X 9894   1.671   2.778  -1.911 -1.2726 -0.8427 -0.1846
   98SAPE  H16Y 9895   1.681   2.597  -1.912  3.2298 -2.0354 -0.1007
   98SAPE  C317 9896   1.852   2.691  -1.982  0.1360 -0.1398 -0.2089
   98SAPE  H17X 9897   1.906   2.595  -1.990  1.2795  0.4603  0.1286
   98SAPE  H17Y 9898   1.928   2.758  -1.938 -1.3086  0.9767  0.6771
   98SAPE  C318 9899   1.811   2.723  -2.121  0.1945 -0.4894 -0.1986
   98SAPE  H18X 9900   1.897   2.719  -2.191  0.9849  3.6431  0.2917
   98SAPE  H18Y 9901   1.777   2.829  -2.123  0.9644 -0.2467 -1.2305
   98SAPE  H18Z 9902   1.731   2.656  -2.161  1.7668 -1.5614 -1.7007
   99SAPE     N 9903   6.399   1.286   8.077 -0.0028  0.2553 -0.3402
   99SAPE   HN1 9904   6.480   1.334   8.121  0.5283 -0.7574 -0.1910
   99SAPE   HN2 9905   6.327   1.361   8.072  1.2891  1.5596  0.0706
   99SAPE   HN3 9906   6.349   1.212   8.131 -0.2154  1.0346  0.5465
   99SAPE   C12 9907   6.453   1.234   7.946 -0.3214 -0.6284  0.9764
   99SAPE  H12A 9908   6.465   1.321   7.877 -0.1169 -1.8680 -0.6074
   99SAPE  H12B 9909   6.368   1.178   7.902 -0.8020  0.8488 -0.0662
   99SAPE   C11 9910   6.583   1.148   7.963 -0.0732 -0.6660 -0.2836
   99SAPE  H11A 9911   6.659   1.227   7.983 -0.4647 -0.8787  2.3963
   99SAPE  H11B 9912   6.609   1.102   7.865  2.5235  0.1932 -0.0856
   99SAPE     P 9913   6.683   0.931   8.055 -0.1638  0.2333  0.0683
   99SAPE   O13 9914   6.813   0.982   8.010 -0.4093  0.2349  0.3281
   99SAPE   O14 9915   6.683   0.851   8.184  0.4892  0.2124  0.3193
   99SAPE   O12 9916   6.578   1.051   8.072  0.0584  0.0446 -0.2674
   99SAPE   O11 9917   6.619   0.850   7.936 -0.4438  0.0108  0.1629
   99SAPE    C1 9918   6.482   0.807   7.939 -0.1673 -0.0662  0.0814
   99SAPE    HA 9919   6.481   0.707   7.988  0.1560  0.0211  0.2730
   99SAPE    HB 9920   6.420   0.877   7.999 -0.1982 -1.1469  1.3660
   99SAPE    C2 9921   6.428   0.799   7.800  0.1288 -0.1957 -0.6216
   99SAPE    HS 9922   6.332   0.744   7.802  0.4363 -0.9765 -3.1412
   99SAPE   O21 9923   6.524   0.724   7.724  0.3677  0.1165  0.4252
   99SAPE   C21 9924   6.509   0.592   7.728 -0.0135  0.3178 -0.4861
   99SAPE   O22 9925   6.429   0.532   7.802 -0.1244 -0.4672 -0.1797
   99SAPE   C22 9926   6.606   0.524   7.631 -0.7881 -0.6414 -0.0441
   99SAPE   H2R 9927   6.712   0.549   7.653 -0.6074 -0.4205 -1.1170
   99SAPE   H2S 9928   6.593   0.417   7.656 -1.8433 -0.4353  0.3796
   99SAPE    C3 9929   6.420   0.940   7.732  0.4137 -0.9293 -0.2539
   99SAPE    HX 9930   6.524   0.978   7.722 -0.1945  1.3183  1.2458
   99SAPE    HY 9931   6.369   1.000   7.811  0.8560  0.8302 -1.2774
   99SAPE   O31 9932   6.357   0.941   7.600 -0.4415  0.1064 -0.1016
   99SAPE   C31 9933   6.279   1.048   7.585 -0.6690 -0.5522 -0.4856
   99SAPE   O32 9934   6.272   1.145   7.662 -0.2438 -0.0789  0.0342
   99SAPE   C32 9935   6.217   1.034   7.448 -0.3539 -0.1785 -0.2742
   99SAPE   H2X 9936   6.195   0.926   7.430 -0.1703 -0.3489  0.4995
   99SAPE   H2Y 9937   6.302   1.066   7.384 -0.8831 -1.3370 -1.6121
   99SAPE   C23 9938   6.566   0.546   7.482  0.3562 -0.8721 -0.3661
   99SAPE   H3R 9939   6.650   0.514   7.415  0.9321  1.9641 -1.1155
   99SAPE   H3S 9940   6.550   0.652   7.454  0.4397 -1.2104 -1.8172
   99SAPE   C24 9941   6.445   0.461   7.455  0.1700  0.2924  0.0213
   99SAPE   H4R 9942   6.360   0.527   7.480  0.8796  1.4817 -0.5824
   99SAPE   H4S 9943   6.434   0.365   7.508  1.0637 -0.0192 -0.3389
   99SAPE   C25 9944   6.424   0.414   7.314 -0.9833 -0.5962  0.6321
   99SAPE   H5R 9945   6.423   0.305   7.304 -1.1261 -0.4696 -1.0828
   99SAPE   C26 9946   6.410   0.483   7.196 -0.4625  0.1456 -0.2872
   99SAPE   H6R 9947   6.388   0.430   7.102 -0.2903  1.0996 -0.8772
   99SAPE   C27 9948   6.389   0.635   7.183  0.2606  0.3239 -0.8847
   99SAPE   H7R 9949   6.404   0.664   7.077 -1.8135 -1.5356 -1.7457
   99SAPE   H7S 9950   6.471   0.674   7.248 -0.5893  1.6622 -0.5569
   99SAPE   C28 9951   6.255   0.681   7.233  0.3523  0.1209  0.3207
   99SAPE   H8R 9952   6.235   0.662   7.339  0.1299 -0.1394  0.2344
   99SAPE   C29 9953   6.151   0.724   7.155 -0.1295 -0.1633 -0.1094
   99SAPE   H9R 9954   6.053   0.745   7.199 -0.5856 -0.8279 -0.7848
   99SAPE  C210 9955   6.164   0.731   7.004 -0.0993  0.7748 -0.1912
   99SAPE  H10R 9956   6.218   0.639   6.971 -2.0123  0.0118 -1.3755
   99SAPE  H10S 9957   6.221   0.825   6.984 -1.0114  1.9082  2.1701
   99SAPE  C211 9958   6.031   0.751   6.934  0.3324 -0.5216  0.8694
   99SAPE  H11R 9959   5.946   0.789   6.992  0.6367  0.6884  0.5354
   99SAPE  C212 9960   6.014   0.705   6.803  0.4300 -0.3870 -0.2552
   99SAPE  H12R 9961   5.911   0.721   6.769  0.6592 -1.1051 -1.3506
   99SAPE  C213 9962   6.120   0.655   6.708  0.6781 -0.1428 -0.8902
   99SAPE  H13R 9963   6.066   0.619   6.618  0.1138 -1.7060  0.0262
   99SAPE  H13S 9964   6.173   0.563   6.741 -1.4176 -1.4882 -1.0641
   99SAPE  C214 9965   6.216   0.758   6.663 -0.4406  0.2643  0.0535
   99SAPE  H14R 9966   6.203   0.865   6.681 -1.1587  0.2184 -0.1326
   99SAPE  C215 9967   6.319   0.721   6.594 -0.2294 -0.9847  0.0430
   99SAPE  H15R 9968   6.391   0.793   6.553  1.1172 -2.9640 -1.2288
   99SAPE  C216 9969   6.365   0.584   6.564 -0.0896 -0.3181  0.1157
   99SAPE  H16R 9970   6.398   0.573   6.458 -2.9267 -3.3421 -0.6020
   99SAPE  H16S 9971   6.277   0.516   6.567 -0.3043 -0.0237  0.7169
   99SAPE  C217 9972   6.487   0.535   6.648  0.1978 -0.4928  0.5185
   99SAPE  H17R 9973   6.487   0.424   6.646  0.9494 -0.5699 -3.4444
   99SAPE  H17S 9974   6.473   0.573   6.752 -1.2216 -2.4488  1.1064
   99SAPE  C218 9975   6.626   0.580   6.611 -0.2825  0.0137 -0.0416
   99SAPE  H18R 9976   6.630   0.687   6.639 -0.0812 -0.0361  0.1235
   99SAPE  H18S 9977   6.654   0.586   6.504 -2.4508  2.5183 -0.5629
   99SAPE  C219 9978   6.740   0.518   6.702  0.8604 -0.5690  0.5091
   99SAPE  H19R 9979   6.839   0.562   6.677  1.0012 -1.2106 -0.1080
   99SAPE  H19S 9980   6.742   0.408   6.683  0.0350 -0.5613  0.3408
   99SAPE  C220 9981   6.708   0.533   6.848  0.2766 -0.5490 -0.1247
   99SAPE  H20R 9982   6.649   0.618   6.888  2.2565  0.7055  0.2870
   99SAPE  H20S 9983   6.800   0.515   6.907 -0.0718  2.5238  1.5305
   99SAPE  H20T 9984   6.636   0.453   6.873  0.0549 -0.5280 -0.6807
   99SAPE   C33 9985   6.094   1.124   7.430 -0.0769  0.0787 -0.6168
   99SAPE   H3X 9986   6.120   1.232   7.434 -0.3757  0.1301  0.1655
   99SAPE   H3Y 9987   6.020   1.107   7.511  0.1830 -0.5678 -0.5095
   99SAPE   C34 9988   6.023   1.088   7.299  0.4887  0.2016 -0.3535
   99SAPE   H4X 9989   5.970   0.990   7.298  0.2730  0.2664  1.6889
   99SAPE   H4Y 9990   6.104   1.077   7.224  0.0181 -0.9235 -0.7213
   99SAPE   C35 9991   5.939   1.209   7.258 -0.2119  0.2640 -0.3645
   99SAPE   H5X 9992   5.993   1.306   7.251 -0.4443  0.3644 -0.9109
   99SAPE   H5Y 9993   5.870   1.225   7.344 -1.3336  0.4458 -1.2665
   99SAPE   C36 9994   5.850   1.174   7.130 -0.3461  0.2177  0.1584
   99SAPE   H6X 9995   5.774   1.251   7.109 -1.3676 -1.1760 -1.4799
   99SAPE   H6Y 9996   5.795   1.078   7.144 -0.0172  0.0586  0.4142
   99SAPE   C37 9997   5.941   1.149   7.014  1.2140  0.4605  0.6780
   99SAPE   H7X 9998   6.002   1.056   7.022  0.1169 -0.3879 -0.5503
   99SAPE   H7Y 9999   6.018   1.229   7.004  2.5826 -0.9655 -0.8030
   99SAPE   C3810000   5.856   1.141   6.879  0.3417 -1.1918 -0.2065
   99SAPE   H8X10001   5.791   1.230   6.873  0.3685 -1.2342 -1.1695
   99SAPE   H8Y10002   5.785   1.059   6.902 -1.1230  0.3718  1.1287
   99SAPE   C3910003   5.939   1.112   6.754 -0.1938 -0.4166 -0.1060
   99SAPE   H9X10004   6.011   1.029   6.770  2.7303  1.9109 -0.2335
   99SAPE   H9Y10005   6.004   1.201   6.744 -1.8068  0.6253 -1.7602
   99SAPE  C31010006   5.853   1.087   6.634 -0.2960  0.1329 -0.2597
   99SAPE  H10X10007   5.771   1.162   6.639 -2.6863 -2.3588  0.9240
   99SAPE  H10Y10008   5.805   0.987   6.647  1.7868 -1.4729 -3.5313
   99SAPE  C31110009   5.925   1.073   6.503 -0.5602 -0.4879  0.0929
   99SAPE  H11X10010   6.004   0.997   6.513  1.0755  1.2112  0.6652
   99SAPE  H11Y10011   5.971   1.173   6.485 -1.9183  0.4190  1.3582
   99SAPE  C31210012   5.830   1.019   6.395 -0.1848  0.6593 -1.0342
   99SAPE  H12X10013   5.745   1.090   6.382  0.0603  0.9856 -0.8854
   99SAPE  H12Y10014   5.784   0.930   6.443 -0.6548  2.6945  2.6823
   99SAPE  C31310015   5.904   0.991   6.264 -0.2295  0.1051 -0.5120
   99SAPE  H13X10016   5.959   1.074   6.215  1.4671  0.8553  2.4642
   99SAPE  H13Y10017   5.825   0.966   6.190 -0.5921 -0.1778 -0.0384
   99SAPE  C31410018   6.008   0.880   6.277 -0.5186  0.0353  0.2265
   99SAPE  H14X10019   6.091   0.895   6.349  0.3625 -1.5476 -0.3985
   99SAPE  H14Y10020   6.056   0.875   6.177  1.7930  1.4885  1.1852
   99SAPE  C31510021   5.944   0.752   6.316 -0.5865  0.1025  1.0471
   99SAPE  H15X10022   5.849   0.723   6.266 -0.4299  0.2912  0.6400
   99SAPE  H15Y10023   5.927   0.761   6.426 -1.8736  1.1009  0.7968
   99SAPE  C31610024   6.050   0.643   6.296 -1.0191  0.5091 -0.0059
   99SAPE  H16X10025   6.139   0.673   6.355 -1.0968  0.4729  0.1300
   99SAPE  H16Y10026   6.084   0.640   6.191 -0.8991 -2.4246  0.0372
   99SAPE  C31710027   6.005   0.502   6.339 -0.1851  0.2904 -0.6659
   99SAPE  H17X10028   5.923   0.472   6.269 -0.4085  2.2655 -1.3069
   99SAPE  H17Y10029   5.967   0.509   6.443 -1.3177  1.5341 -1.1318
   99SAPE  C31810030   6.112   0.399   6.332 -0.1639 -1.0160 -0.1385
   99SAPE  H18X10031   6.205   0.434   6.382  0.1306  2.1974 -2.6473
   99SAPE  H18Y10032   6.146   0.391   6.227 -0.7233  1.4961 -0.5601
   99SAPE  H18Z10033   6.081   0.299   6.370 -0.1741 -0.6592  0.8121
  100SAPE     N10034   0.356   2.581   8.486 -0.4452  0.2739  0.2951
  100SAPE   HN110035   0.361   2.538   8.391  0.7773 -0.4004  0.6536
  100SAPE   HN210036   0.379   2.509   8.557 -2.0825  0.7321  1.3457
  100SAPE   HN310037   0.256   2.600   8.507 -1.0413 -1.6967 -0.4829
  100SAPE   C1210038   0.440   2.705   8.493  0.0324  0.5665 -0.5860
  100SAPE  H12A10039   0.541   2.668   8.465  0.4464  1.2912 -0.0752
  100SAPE  H12B10040   0.442   2.744   8.597  2.6134  0.0018 -0.3513
  100SAPE   C1110041   0.398   2.817   8.395 -0.0789  0.5650 -0.5627
  100SAPE  H11A10042   0.422   2.783   8.292 -2.1328 -0.8267 -0.6293
  100SAPE  H11B10043   0.462   2.905   8.422 -0.0550  1.2723 -2.6828
  100SAPE     P10044   0.156   2.849   8.288  0.4110 -0.2980  0.3994
  100SAPE   O1310045   0.214   2.750   8.189 -0.3081 -0.5542 -0.0333
  100SAPE   O1410046   0.021   2.825   8.339  0.3765 -0.1415 -0.3528
  100SAPE   O1210047   0.260   2.853   8.411 -0.4051  0.9849 -0.4060
  100SAPE   O1110048   0.176   2.992   8.223  0.3400 -0.1505 -0.9937
  100SAPE    C110049   0.092   3.098   8.257  0.4387  0.4591 -0.9009
  100SAPE    HA10050  -0.011   3.073   8.291  0.3012 -0.2912 -1.8218
  100SAPE    HB10051   0.140   3.158   8.337 -2.8442  0.7845  1.0075
  100SAPE    C210052   0.074   3.199   8.142 -0.4881  0.2490  0.1299
  100SAPE    HS10053  -0.015   3.266   8.150 -0.8272  0.0495 -1.5729
  100SAPE   O2110054   0.043   3.128   8.021 -0.9052  0.3102 -0.5326
  100SAPE   C2110055  -0.069   3.052   8.022  0.5291  0.2401  0.0961
  100SAPE   O2210056  -0.165   3.081   8.093 -0.3805  0.3264 -0.5420
  100SAPE   C2210057  -0.078   2.967   7.897 -0.4892 -0.3593  0.7768
  100SAPE   H2R10058  -0.088   2.862   7.932  1.0390 -1.1509 -0.9848
  100SAPE   H2S10059  -0.167   3.004   7.842  0.5125  0.3363 -0.4473
  100SAPE    C310060   0.207   3.288   8.123  0.1854  0.0825 -0.7579
  100SAPE    HX10061   0.306   3.236   8.128  1.7458  2.7256 -1.9245
  100SAPE    HY10062   0.202   3.351   8.215  0.8908 -1.7718  0.6167
  100SAPE   O3110063   0.205   3.378   8.009  0.4747  0.0271  0.4759
  100SAPE   C3110064   0.279   3.329   7.907 -0.2664 -0.1284 -0.1140
  100SAPE   O3210065   0.338   3.222   7.910  0.6057 -0.6937 -0.1526
  100SAPE   C3210066   0.281   3.426   7.792 -0.2307  0.3341 -0.3890
  100SAPE   H2X10067   0.343   3.515   7.816  0.6601  0.8541 -3.9765
  100SAPE   H2Y10068   0.176   3.449   7.763 -1.2074 -1.6513  1.3375
  100SAPE   C2310069   0.050   2.961   7.812 -0.3254  0.4142  1.4434
  100SAPE   H3R10070   0.121   2.896   7.867 -1.1124 -2.2629 -0.4984
  100SAPE   H3S10071   0.101   3.060   7.804  1.1742 -0.2926  1.9435
  100SAPE   C2410072   0.016   2.904   7.672 -0.4538 -0.3389  0.1373
  100SAPE   H4R10073   0.024   2.994   7.606  0.2870  0.5423  1.3890
  100SAPE   H4S10074  -0.090   2.871   7.662 -1.2240  2.3626 -1.7892
  100SAPE   C2510075   0.108   2.800   7.624 -0.0070  0.2339  0.0613
  100SAPE   H5R10076   0.165   2.745   7.700 -0.9155 -0.1779  0.4485
  100SAPE   C2610077   0.143   2.760   7.500  0.4093 -0.0969  0.0233
  100SAPE   H6R10078   0.210   2.673   7.490 -1.4945 -1.4600 -1.6927
  100SAPE   C2710079   0.087   2.815   7.368 -0.2905  0.9719 -0.3072
  100SAPE   H7R10080   0.166   2.839   7.294 -0.4212 -0.5032 -0.9660
  100SAPE   H7S10081   0.032   2.910   7.386 -0.7597  0.8436 -1.0490
  100SAPE   C2810082   0.000   2.716   7.288 -0.1054 -0.7489 -0.4648
  100SAPE   H8R10083  -0.038   2.633   7.350 -1.4717  0.4235  0.3186
  100SAPE   C2910084  -0.026   2.709   7.156  0.3255  0.2931  0.1685
  100SAPE   H9R10085  -0.111   2.645   7.125 -0.5633  1.1225  0.8223
  100SAPE  C21010086   0.033   2.785   7.047  0.2888  0.0338  0.0073
  100SAPE  H10R10087   0.086   2.878   7.077  1.2258 -1.0575  1.9063
  100SAPE  H10S10088  -0.051   2.821   6.984  1.1062 -1.1919 -1.8997
  100SAPE  C21110089   0.143   2.714   6.970 -0.2430  0.0122 -0.1485
  100SAPE  H11R10090   0.224   2.665   7.026  0.8806  2.4998  0.5704
  100SAPE  C21210091   0.166   2.723   6.843 -0.0828 -0.4794  0.4088
  100SAPE  H12R10092   0.254   2.677   6.796  0.6410  3.0713 -2.1627
  100SAPE  C21310093   0.073   2.791   6.744  0.0446 -0.2177 -0.0523
  100SAPE  H13R10094   0.057   2.894   6.781  0.1916 -0.5661  1.0008
  100SAPE  H13S10095  -0.030   2.748   6.749 -0.7088  1.2575 -1.6125
  100SAPE  C21410096   0.117   2.785   6.598  0.9277  0.0277 -0.4257
  100SAPE  H14R10097   0.205   2.846   6.574  1.1542 -0.4906 -0.9511
  100SAPE  C21510098   0.074   2.703   6.503 -1.0387 -0.5166 -0.0314
  100SAPE  H15R10099   0.113   2.724   6.402  0.1402  2.0554  0.8722
  100SAPE  C21610100  -0.029   2.596   6.503 -0.4839 -0.4548  0.2451
  100SAPE  H16R10101  -0.042   2.548   6.602 -0.9176 -0.8053  0.0219
  100SAPE  H16S10102  -0.005   2.524   6.423  1.0526  0.5644 -0.2587
  100SAPE  C21710103  -0.155   2.653   6.429  0.0516  0.3938  0.1373
  100SAPE  H17R10104  -0.191   2.743   6.483 -0.6786  0.4658 -0.4628
  100SAPE  H17S10105  -0.229   2.572   6.439  0.1459  0.2133 -0.6146
  100SAPE  C21810106  -0.143   2.698   6.283 -0.0500 -0.6698 -0.5097
  100SAPE  H18R10107  -0.083   2.792   6.285  1.6250 -1.7025  0.3380
  100SAPE  H18S10108  -0.243   2.730   6.247  0.1640  1.6649  0.7968
  100SAPE  C21910109  -0.089   2.601   6.186 -0.4611 -1.0893  0.6747
  100SAPE  H19R10110  -0.120   2.498   6.212 -1.0606 -0.3259  3.3647
  100SAPE  H19S10111   0.021   2.604   6.200 -0.2923 -0.8295 -0.6128
  100SAPE  C22010112  -0.117   2.638   6.041  0.0537  1.2099 -0.0290
  100SAPE  H20R10113  -0.227   2.646   6.030 -0.3252 -3.5156 -1.9444
  100SAPE  H20S10114  -0.079   2.557   5.975  0.8471 -1.5712  3.5110
  100SAPE  H20T10115  -0.063   2.730   6.009  0.0821  1.0354 -0.4909
  100SAPE   C3310116   0.360   3.368   7.666 -0.3746  0.1817 -0.8217
  100SAPE   H3X10117   0.449   3.320   7.712 -0.9600 -0.4926 -0.3784
  100SAPE   H3Y10118   0.383   3.446   7.590 -0.7660  0.4287 -0.6895
  100SAPE   C3410119   0.282   3.256   7.603 -0.0699  0.1012 -0.0337
  100SAPE   H4X10120   0.190   3.300   7.558  1.9144  1.4334 -3.1628
  100SAPE   H4Y10121   0.258   3.177   7.677 -0.7532 -0.4289 -0.8028
  100SAPE   C3510122   0.365   3.193   7.481 -0.0575 -0.0681 -0.6815
  100SAPE   H5X10123   0.376   3.083   7.481  1.2527  0.0433 -0.1648
  100SAPE   H5Y10124   0.467   3.237   7.477  0.0211  0.0259  1.4696
  100SAPE   C3610125   0.305   3.231   7.345  0.1049 -0.0475  0.3262
  100SAPE   H6X10126   0.331   3.336   7.317 -1.5113  0.1202 -0.6842
  100SAPE   H6Y10127   0.194   3.232   7.349  0.1188 -1.4882  1.7199
  100SAPE   C3710128   0.351   3.130   7.240  0.4899 -0.2719  0.1111
  100SAPE   H7X10129   0.308   3.029   7.261 -0.5347  0.4264  1.5308
  100SAPE   H7Y10130   0.461   3.115   7.250  0.9032  2.4699  0.3189
  100SAPE   C3810131   0.327   3.180   7.096  0.9535 -0.0360  0.2548
  100SAPE   H8X10132   0.374   3.276   7.066 -0.5756 -0.2876 -3.5378
  100SAPE   H8Y10133   0.219   3.187   7.070  0.9434  1.0106  0.5535
  100SAPE   C3910134   0.371   3.070   6.995  0.0708  0.1444 -0.8804
  100SAPE   H9X10135   0.312   2.982   7.028  0.8284  0.0909  0.3837
  100SAPE   H9Y10136   0.478   3.046   7.016 -0.4050  0.3529  2.2439
  100SAPE  C31010137   0.352   3.118   6.849  0.3357  0.1300 -1.2034
  100SAPE  H10X10138   0.380   3.225   6.849  1.9167 -0.2071  0.7965
  100SAPE  H10Y10139   0.243   3.108   6.831 -0.3209 -1.2666  2.6955
  100SAPE  C31110140   0.428   3.042   6.743  0.3402  0.1018  0.0709
  100SAPE  H11X10141   0.394   2.937   6.747 -2.9827  1.0453 -0.0685
  100SAPE  H11Y10142   0.539   3.054   6.750  0.2390  1.4988 -0.3218
  100SAPE  C31210143   0.394   3.085   6.603  0.3178  0.0260 -0.0358
  100SAPE  H12X10144   0.434   3.187   6.586 -0.2049  0.0158 -1.4545
  100SAPE  H12Y10145   0.286   3.088   6.580  0.3016  0.0924  0.0517
  100SAPE  C31310146   0.440   2.979   6.500  0.7020  0.1663  0.2361
  100SAPE  H13X10147   0.416   2.876   6.533  0.2618  0.5387  1.0878
  100SAPE  H13Y10148   0.551   2.992   6.498  0.9860 -1.5935  1.8730
  100SAPE  C31410149   0.369   2.999   6.358 -0.2637 -0.7153 -0.0947
  100SAPE  H14X10150   0.412   3.097   6.330  1.9361 -2.2960 -2.7181
  100SAPE  H14Y10151   0.259   3.002   6.375  0.0268  1.9701  1.8992
  100SAPE  C31510152   0.400   2.886   6.259 -0.8877  0.8619 -0.2764
  100SAPE  H15X10153   0.353   2.792   6.297  0.3600  1.0389  1.8915
  100SAPE  H15Y10154   0.510   2.871   6.262 -1.0546 -0.8784 -1.6000
  100SAPE  C31610155   0.340   2.914   6.123 -0.3834  0.8840  0.2901
  100SAPE  H16X10156   0.369   3.018   6.096  1.9611  0.9472  2.5374
  100SAPE  H16Y10157   0.230   2.916   6.129 -0.8087  0.7154 -4.2873
  100SAPE  C31710158   0.368   2.814   6.006  0.1660 -0.0893  0.2197
  100SAPE  H17X10159   0.474   2.810   5.973 -0.3508  0.1514 -1.5930
  100SAPE  H17Y10160   0.311   2.854   5.919 -0.7379  1.6539  1.5376
  100SAPE  C31810161   0.318   2.675   6.035 -0.0163  0.0352 -1.0084
  100SAPE  H18X10162   0.306   2.618   5.940 -0.7800 -0.3231 -0.7009
  100SAPE  H18Y10163   0.216   2.680   6.078  0.4300  0.2029  0.0430
  100SAPE  H18Z10164   0.388   2.625   6.106  0.3885  1.4834 -0.3534
  101SAPE     N10165   5.475   5.917   0.067  0.5292 -0.1736  0.1613
  101SAPE   HN110166   5.452   5.837   0.005  1.2489 -0.1745 -0.1177
  101SAPE   HN210167   5.479   5.875   0.161 -0.5476  0.8735  0.7035
  101SAPE   HN310168   5.391   5.979   0.063  1.8018  1.6437 -0.1310
  101SAPE   C1210169   5.608   5.962   0.018  0.2577 -0.2296 -0.6165
  101SAPE  H12A10170   5.685   5.888   0.047 -0.0436  0.3910  2.0486
  101SAPE  H12B10171   5.628   6.063   0.061  0.5417 -0.8897  0.8679
  101SAPE   C1110172   5.599   5.991  -0.132 -0.2838  0.1452 -0.3746
  101SAPE  H11A10173   5.578   5.900  -0.191  1.3972  0.3694 -1.4117
  101SAPE  H11B10174   5.699   6.028  -0.165 -0.8361  1.8842 -0.1910
  101SAPE     P10175   5.527   6.237  -0.197 -0.2516 -0.3279 -0.1243
  101SAPE   O1310176   5.414   6.323  -0.151 -0.3204 -0.1335  0.2161
  101SAPE   O1410177   5.664   6.276  -0.148 -0.2714  0.1401 -0.6924
  101SAPE   O1210178   5.496   6.089  -0.157  0.0268  0.0772 -0.3719
  101SAPE   O1110179   5.522   6.244  -0.350  0.2076 -0.1862  0.1462
  101SAPE    C110180   5.411   6.196  -0.423 -0.2734  0.8794 -0.1931
  101SAPE    HA10181   5.320   6.195  -0.359  0.7488 -4.2642  1.7339
  101SAPE    HB10182   5.379   6.271  -0.498 -1.4193 -0.3548 -1.0000
  101SAPE    C210183   5.429   6.058  -0.484  0.3958 -0.7290 -0.0868
  101SAPE    HS10184   5.461   5.982  -0.409  0.1325  1.1495  1.9999
  101SAPE   O2110185   5.515   6.068  -0.604 -0.1687 -0.4797  0.3216
  101SAPE   C2110186   5.650   6.048  -0.582  0.1564  0.5422 -0.2625
  101SAPE   O2210187   5.686   5.993  -0.477  0.4654  0.1518 -0.2098
  101SAPE   C2210188   5.738   6.086  -0.700 -0.4419 -0.2694  0.3963
  101SAPE   H2R10189   5.787   6.183  -0.679 -1.9703  0.4773  0.6631
  101SAPE   H2S10190   5.829   6.023  -0.707 -0.8295 -1.0133  1.6746
  101SAPE    C310191   5.289   6.004  -0.525  0.1388  0.9377  0.3077
  101SAPE    HX10192   5.219   5.994  -0.439  2.3640  1.3796  2.2611
  101SAPE    HY10193   5.292   5.902  -0.569  0.8347  1.6394 -1.3256
  101SAPE   O3110194   5.226   6.090  -0.625  0.5882 -0.3997  0.4690
  101SAPE   C3110195   5.118   6.045  -0.683 -0.6452  0.0988 -0.1143
  101SAPE   O3210196   5.054   5.951  -0.657  0.0002  0.0270 -0.3097
  101SAPE   C3210197   5.097   6.125  -0.815  0.2279  0.3733  0.1657
  101SAPE   H2X10198   5.102   6.233  -0.792  0.2678  0.3391  0.3176
  101SAPE   H2Y10199   4.993   6.112  -0.852 -0.0868  0.2261  1.0603
  101SAPE   C2310200   5.665   6.106  -0.834 -0.0566  0.1660 -0.4042
  101SAPE   H3R10201   5.741   6.150  -0.903  0.9653  1.0727  1.2417
  101SAPE   H3S10202   5.594   6.191  -0.828  1.7491  1.7966 -1.0884
  101SAPE   C2410203   5.606   5.985  -0.902  0.6617 -0.5512  0.0667
  101SAPE   H4R10204   5.571   6.016  -1.003  0.3034  0.9112  0.6277
  101SAPE   H4S10205   5.518   5.956  -0.841  1.4781  0.8151  1.9696
  101SAPE   C2510206   5.697   5.863  -0.910 -0.4245  0.6324 -0.0677
  101SAPE   H5R10207   5.678   5.786  -0.834 -2.5032  0.6318 -0.5158
  101SAPE   C2610208   5.760   5.840  -1.025 -0.3509 -0.0300  0.0568
  101SAPE   H6R10209   5.803   5.741  -1.047 -2.5202 -0.8483 -0.7452
  101SAPE   C2710210   5.770   5.939  -1.142 -0.1989  0.7239  0.0507
  101SAPE   H7R10211   5.876   5.958  -1.168 -0.0641  2.8800  1.8350
  101SAPE   H7S10212   5.748   6.041  -1.104 -0.2923  1.3812 -1.6720
  101SAPE   C2810213   5.672   5.929  -1.259  0.1190 -0.7059  0.1577
  101SAPE   H8R10214   5.572   5.885  -1.240 -0.4214 -0.2509 -1.4819
  101SAPE   C2910215   5.679   5.979  -1.383  0.4227 -1.5087  0.1215
  101SAPE   H9R10216   5.594   5.957  -1.449  0.5187 -0.4720 -0.3593
  101SAPE  C21010217   5.801   6.050  -1.445  0.6063  0.6109 -0.1486
  101SAPE  H10R10218   5.863   6.098  -1.367 -2.6094  2.9984  1.1762
  101SAPE  H10S10219   5.762   6.133  -1.508 -1.0513  0.1463  0.2166
  101SAPE  C21110220   5.891   5.951  -1.515 -0.5921 -0.0666  0.3709
  101SAPE  H11R10221   5.956   5.897  -1.444 -3.5623 -2.4624  1.4848
  101SAPE  C21210222   5.888   5.916  -1.648 -0.1339  0.5054 -0.0291
  101SAPE  H12R10223   5.962   5.847  -1.690  0.1562  0.3245  0.7517
  101SAPE  C21310224   5.815   5.993  -1.748 -0.1475  0.7938  0.5062
  101SAPE  H13R10225   5.844   6.101  -1.747 -1.8721  1.2896  0.0735
  101SAPE  H13S10226   5.708   5.993  -1.719 -1.1946  3.7812 -2.6656
  101SAPE  C21410227   5.815   5.959  -1.895 -0.4870 -0.5873  0.4478
  101SAPE  H14R10228   5.716   5.924  -1.927  0.4046 -2.1570 -0.7770
  101SAPE  C21510229   5.921   5.935  -1.974 -0.2774 -0.1095 -0.7214
  101SAPE  H15R10230   5.888   5.909  -2.076 -0.7971 -1.1606 -0.3002
  101SAPE  C21610231   6.069   5.974  -1.955  0.1075 -0.1318  0.0738
  101SAPE  H16R10232   6.127   5.879  -1.959 -2.7199 -2.0073 -0.0562
  101SAPE  H16S10233   6.090   6.035  -1.865  0.4322 -1.2426  0.7752
  101SAPE  C21710234   6.133   6.045  -2.074  0.2756  0.1914  0.5533
  101SAPE  H17R10235   6.230   6.087  -2.041  0.9834 -0.3686 -0.7410
  101SAPE  H17S10236   6.069   6.132  -2.097 -0.0407 -0.0228  0.6129
  101SAPE  C21810237   6.149   5.954  -2.202 -0.5446  0.4758  0.5541
  101SAPE  H18R10238   6.047   5.935  -2.241 -0.6633 -1.4166  1.6725
  101SAPE  H18S10239   6.191   5.852  -2.190 -2.2358 -0.3879 -0.5466
  101SAPE  C21910240   6.234   6.035  -2.301 -0.2126 -1.0076 -0.4532
  101SAPE  H19R10241   6.340   6.023  -2.272 -0.0833  0.2487 -0.3522
  101SAPE  H19S10242   6.204   6.141  -2.286 -1.5260 -1.5440  1.0337
  101SAPE  C22010243   6.226   5.987  -2.443  0.2703 -0.4262 -0.9176
  101SAPE  H20R10244   6.294   6.035  -2.516 -0.4534  0.1572 -1.2242
  101SAPE  H20S10245   6.129   6.016  -2.490  0.1779 -0.2236 -0.6049
  101SAPE  H20T10246   6.247   5.880  -2.463  2.9969  0.4787 -3.6763
  101SAPE   C3310247   5.205   6.092  -0.917  0.3682 -0.9023 -0.1917
  101SAPE   H3X10248   5.310   6.093  -0.880  0.6612  0.6436 -0.9809
  101SAPE   H3Y10249   5.196   6.173  -0.992  3.3771  1.7007  1.9798
  101SAPE   C3410250   5.196   5.955  -0.989 -0.2270  0.4613 -0.0755
  101SAPE   H4X10251   5.090   5.923  -1.006 -0.6118  2.3503 -1.5857
  101SAPE   H4Y10252   5.219   5.880  -0.910 -0.9374  0.3460  0.0277
  101SAPE   C3510253   5.289   5.938  -1.110  0.7027 -0.4931  0.9317
  101SAPE   H5X10254   5.311   5.830  -1.125 -1.7474 -0.8483 -0.7274
  101SAPE   H5Y10255   5.381   5.997  -1.090 -0.7031  0.9815  3.5111
  101SAPE   C3610256   5.212   5.985  -1.237  0.5299  0.5378  0.1171
  101SAPE   H6X10257   5.193   6.094  -1.242  0.7946  0.6376  1.0470
  101SAPE   H6Y10258   5.114   5.934  -1.239  0.9515 -0.3308  0.6097
  101SAPE   C3710259   5.287   5.958  -1.372 -0.3434 -0.6809 -0.2072
  101SAPE   H7X10260   5.319   5.852  -1.375 -1.0350 -1.0127  1.9064
  101SAPE   H7Y10261   5.377   6.022  -1.370  0.1852 -1.4275  0.8327
  101SAPE   C3810262   5.197   5.990  -1.494 -0.2583  0.2245 -0.0203
  101SAPE   H8X10263   5.187   6.100  -1.477 -0.9477  0.1475  0.0740
  101SAPE   H8Y10264   5.100   5.938  -1.481 -0.7609  1.4501  1.4936
  101SAPE   C3910265   5.259   5.940  -1.626 -0.3564 -0.5104 -0.2937
  101SAPE   H9X10266   5.268   5.830  -1.609 -0.7645 -0.6003 -0.6521
  101SAPE   H9Y10267   5.362   5.974  -1.650  0.2540 -2.7554 -1.1178
  101SAPE  C31010268   5.159   5.953  -1.743 -0.4814  0.1691 -0.0220
  101SAPE  H10X10269   5.154   6.062  -1.763  0.4017  0.2866  0.3228
  101SAPE  H10Y10270   5.057   5.917  -1.719 -0.8967  1.8867  0.9493
  101SAPE  C31110271   5.214   5.878  -1.870 -0.3158 -0.0309  0.3665
  101SAPE  H11X10272   5.229   5.774  -1.834  2.4113  0.5645  1.2576
  101SAPE  H11Y10273   5.315   5.909  -1.905  0.2799 -2.2588  0.0039
  101SAPE  C31210274   5.122   5.867  -1.988  0.1862  0.2185  0.0415
  101SAPE  H12X10275   5.047   5.787  -1.969  0.7922 -0.2460  0.5228
  101SAPE  H12Y10276   5.183   5.835  -2.075 -0.9843  1.3875 -1.2577
  101SAPE  C31310277   5.037   5.997  -2.011  0.3287 -0.4385  0.1802
  101SAPE  H13X10278   5.095   6.090  -2.024 -1.2379  0.5271 -0.2281
  101SAPE  H13Y10279   4.971   6.014  -1.923 -2.1561 -1.7623 -1.2884
  101SAPE  C31410280   4.955   5.986  -2.136  0.4596 -0.7646  0.1213
  101SAPE  H14X10281   4.876   5.909  -2.122 -1.1677  1.1276  2.0198
  101SAPE  H14Y10282   5.025   5.953  -2.216 -0.5241 -1.5699 -0.4478
  101SAPE  C31510283   4.870   6.111  -2.172 -0.5842  0.6700  1.1949
  101SAPE  H15X10284   4.805   6.143  -2.088 -2.0401  0.7420  0.0692
  101SAPE  H15Y10285   4.802   6.083  -2.256  0.2631 -0.6617  0.9220
  101SAPE  C31610286   4.956   6.234  -2.211 -0.1692 -0.0754  0.2718
  101SAPE  H16X10287   5.022   6.254  -2.125  0.6442  2.2330 -0.8309
  101SAPE  H16Y10288   4.884   6.318  -2.227 -0.4138 -0.1948  0.7322
  101SAPE  C31710289   5.027   6.209  -2.340  0.0367  0.6274 -0.5084
  101SAPE  H17X10290   4.946   6.196  -2.414 -1.1710  0.9786  0.7068
  101SAPE  H17Y10291   5.092   6.119  -2.337  3.0545  2.6408  2.7617
  101SAPE  C31810292   5.117   6.318  -2.386  0.8514  0.1534  0.0916
  101SAPE  H18X10293   5.157   6.283  -2.484 -2.1935 -0.3641 -1.0917
  101SAPE  H18Y10294   5.197   6.326  -2.310  0.0655 -2.0361  1.2495
  101SAPE  H18Z10295   5.064   6.412  -2.412  1.5336  0.8435  1.1365
  102SAPE     N10296   1.053   5.516   8.191  0.4678  0.1884  0.3876
  102SAPE   HN110297   0.953   5.517   8.163 -0.0199  0.6230  2.0387
  102SAPE   HN210298   1.083   5.615   8.182  1.3325 -0.1080 -0.0729
  102SAPE   HN310299   1.117   5.460   8.131  1.3996  1.7752 -0.1721
  102SAPE   C1210300   1.061   5.457   8.330  0.0304 -1.1871  0.2226
  102SAPE  H12A10301   1.004   5.531   8.392 -0.6351  1.4215 -3.1837
  102SAPE  H12B10302   1.166   5.449   8.366  0.9805 -0.9433 -2.3090
  102SAPE   C1110303   0.981   5.329   8.327 -0.1727 -0.3309  0.1268
  102SAPE  H11A10304   0.876   5.364   8.321  0.1973  1.0515  1.2011
  102SAPE  H11B10305   1.017   5.281   8.421  0.2848 -1.0606 -0.4121
  102SAPE     P10306   0.907   5.117   8.197 -0.0872 -0.5132  0.0753
  102SAPE   O1310307   0.994   4.996   8.184 -0.2796  0.0811 -1.1020
  102SAPE   O1410308   0.816   5.109   8.310  0.2379 -0.3331 -0.0049
  102SAPE   O1210309   1.007   5.240   8.213 -0.0648 -0.2962 -0.0571
  102SAPE   O1110310   0.826   5.144   8.061 -0.8102 -0.0975 -0.3090
  102SAPE    C110311   0.893   5.208   7.950  0.4037  0.6575 -0.2707
  102SAPE    HA10312   0.983   5.266   7.978  0.4116  1.4369 -1.8205
  102SAPE    HB10313   0.917   5.121   7.884 -1.3385 -0.2128  0.1606
  102SAPE    C210314   0.808   5.305   7.863 -0.3093 -0.5775  0.0110
  102SAPE    HS10315   0.746   5.370   7.929  0.7341 -0.9922  1.4366
  102SAPE   O2110316   0.727   5.225   7.776 -0.2860 -0.4534 -0.6659
  102SAPE   C2110317   0.634   5.284   7.700  0.1358 -0.3798 -0.0139
  102SAPE   O2210318   0.599   5.401   7.705 -0.6769 -0.2999 -0.4772
  102SAPE   C2210319   0.579   5.173   7.606  0.5577  0.2425  0.6347
  102SAPE   H2R10320   0.651   5.090   7.587  0.5424 -0.3337  2.8002
  102SAPE   H2S10321   0.491   5.134   7.661  0.3597  0.0530  0.1828
  102SAPE    C310322   0.896   5.407   7.779 -0.4758  0.6003 -0.2499
  102SAPE    HX10323   0.957   5.456   7.859 -1.4796 -1.5747  1.9533
  102SAPE    HY10324   0.827   5.482   7.735 -0.9698  0.3030  0.0217
  102SAPE   O3110325   0.972   5.348   7.669  0.4141  0.6750 -0.3646
  102SAPE   C3110326   1.056   5.435   7.614 -0.1632 -0.6518 -0.1624
  102SAPE   O3210327   1.066   5.550   7.647 -0.4728 -0.1504 -0.4577
  102SAPE   C3210328   1.133   5.358   7.502 -0.5068  0.5602  0.0927
  102SAPE   H2X10329   1.119   5.249   7.520 -0.1677  0.0091 -2.5657
  102SAPE   H2Y10330   1.242   5.380   7.500 -0.2712 -0.2542 -3.4597
  102SAPE   C2310331   0.517   5.255   7.481 -0.2677 -0.6720 -0.0505
  102SAPE   H3R10332   0.445   5.332   7.515 -1.4717 -1.2473 -1.1702
  102SAPE   H3S10333   0.459   5.179   7.424  1.2729 -1.7690 -0.2291
  102SAPE   C2410334   0.619   5.321   7.390  0.3342  0.0999  0.2222
  102SAPE   H4R10335   0.656   5.414   7.439 -4.0392  3.1655 -1.6278
  102SAPE   H4S10336   0.567   5.365   7.302 -0.2155  0.2011  0.5886
  102SAPE   C2510337   0.735   5.222   7.357  0.2044 -0.0374  0.0566
  102SAPE   H5R10338   0.818   5.227   7.430  1.0056  1.2903 -0.8989
  102SAPE   C2610339   0.750   5.147   7.246  0.4208  0.0982 -0.1524
  102SAPE   H6R10340   0.832   5.075   7.227  0.1228 -0.3089  0.0858
  102SAPE   C2710341   0.642   5.133   7.136  0.0265 -0.5454 -0.6777
  102SAPE   H7R10342   0.543   5.170   7.170  0.6178 -0.6916  1.3314
  102SAPE   H7S10343   0.627   5.026   7.107 -0.1356 -0.4875 -0.8076
  102SAPE   C2810344   0.696   5.223   7.024 -0.3014  0.3455 -0.0893
  102SAPE   H8R10345   0.741   5.318   7.056  1.5987 -0.3552 -0.5416
  102SAPE   C2910346   0.687   5.207   6.893 -0.4788 -0.0321 -0.4332
  102SAPE   H9R10347   0.731   5.283   6.827 -1.8809  3.0849  1.9653
  102SAPE  C21010348   0.625   5.095   6.825  0.5387 -0.6734  0.9904
  102SAPE  H10R10349   0.546   5.042   6.884 -0.7268 -0.2145 -0.2389
  102SAPE  H10S10350   0.705   5.022   6.802  0.8992 -0.0635  0.2714
  102SAPE  C21110351   0.563   5.147   6.699 -0.2052 -0.1911  0.5521
  102SAPE  H11R10352   0.460   5.187   6.705  0.2541  1.3396 -0.9078
  102SAPE  C21210353   0.601   5.116   6.576 -0.5702 -1.1267 -0.6273
  102SAPE  H12R10354   0.551   5.156   6.487 -1.4793 -1.4386 -0.2684
  102SAPE  C21310355   0.728   5.049   6.527  0.5595 -0.0352  0.7220
  102SAPE  H13R10356   0.704   4.964   6.459  0.4412  0.8117 -0.3260
  102SAPE  H13S10357   0.789   5.007   6.609  0.1893  0.2789  1.1632
  102SAPE  C21410358   0.820   5.137   6.460 -0.6082 -0.3227 -0.6256
  102SAPE  H14R10359   0.910   5.157   6.520 -0.5239  0.0681 -0.8763
  102SAPE  C21510360   0.833   5.189   6.340  1.1184 -1.0453  0.0986
  102SAPE  H15R10361   0.921   5.253   6.323  0.5111  0.4556  2.2159
  102SAPE  C21610362   0.715   5.201   6.238 -0.9406 -0.7716  0.6043
  102SAPE  H16R10363   0.706   5.302   6.191  1.3043 -0.6442  0.3232
  102SAPE  H16S10364   0.619   5.193   6.292 -1.4441 -0.3282 -0.2058
  102SAPE  C21710365   0.713   5.100   6.122  0.1910  0.4969  0.0515
  102SAPE  H17R10366   0.635   5.130   6.049 -0.0534  1.2074  0.5923
  102SAPE  H17S10367   0.679   5.000   6.157 -1.1482  0.6711 -0.6813
  102SAPE  C21810368   0.834   5.075   6.035  0.5686 -0.0068 -0.2386
  102SAPE  H18R10369   0.821   4.988   5.966 -2.3761 -0.6835  1.0553
  102SAPE  H18S10370   0.918   5.058   6.105 -0.2315  1.7454  1.1929
  102SAPE  C21910371   0.861   5.198   5.935  1.0076  0.7612  0.3448
  102SAPE  H19R10372   0.951   5.181   5.872 -0.9318 -1.2351 -2.1261
  102SAPE  H19S10373   0.891   5.292   5.985  2.4943  1.5337 -1.8254
  102SAPE  C22010374   0.761   5.229   5.820  1.0899 -0.2400  0.0469
  102SAPE  H20R10375   0.657   5.241   5.856  0.7232  2.8212 -1.6872
  102SAPE  H20S10376   0.769   5.144   5.749  1.2049 -0.6753  0.5853
  102SAPE  H20T10377   0.790   5.326   5.773  0.7647 -1.1405 -2.1475
  102SAPE   C3310378   1.091   5.400   7.356  0.8052  0.0072 -0.4789
  102SAPE   H3X10379   1.135   5.496   7.323  1.0293 -0.5306 -1.8125
  102SAPE   H3Y10380   0.980   5.414   7.354  0.6778 -0.6779  0.8050
  102SAPE   C3410381   1.130   5.292   7.251 -0.4463  0.6789  0.5831
  102SAPE   H4X10382   1.083   5.193   7.269  0.8580 -0.7129 -2.7269
  102SAPE   H4Y10383   1.239   5.271   7.252 -0.8046 -1.6916 -1.1527
  102SAPE   C3510384   1.109   5.330   7.099  0.4334  0.4628 -0.3765
  102SAPE   H5X10385   1.169   5.419   7.071  2.5374 -0.9664 -0.6323
  102SAPE   H5Y10386   1.002   5.351   7.079 -0.0588  1.1973  2.5496
  102SAPE   C3610387   1.141   5.206   7.002  0.4943  0.2568 -0.3059
  102SAPE   H6X10388   1.064   5.127   7.016  0.8388 -0.3573 -1.7165
  102SAPE   H6Y10389   1.242   5.165   7.018  0.2950 -0.2093 -0.2318
  102SAPE   C3710390   1.128   5.248   6.858 -0.1819 -0.9322 -0.9351
  102SAPE   H7X10391   1.206   5.323   6.833 -0.0102 -0.3751  1.0992
  102SAPE   H7Y10392   1.023   5.280   6.835 -0.6764 -0.3744  1.8191
  102SAPE   C3810393   1.156   5.124   6.768  0.3889 -0.3568  0.0288
  102SAPE   H8X10394   1.063   5.069   6.743 -0.5883  1.9455 -1.8302
  102SAPE   H8Y10395   1.232   5.053   6.807  1.1703  0.7685  0.6067
  102SAPE   C3910396   1.193   5.171   6.623  0.5137 -0.6634 -0.5326
  102SAPE   H9X10397   1.285   5.234   6.627  0.1303  0.0164 -1.8037
  102SAPE   H9Y10398   1.115   5.235   6.578  0.9565 -0.4069 -0.9504
  102SAPE  C31010399   1.234   5.054   6.528  0.0328  0.5838  0.0427
  102SAPE  H10X10400   1.168   4.968   6.552  0.8579 -0.4403 -1.2292
  102SAPE  H10Y10401   1.336   5.014   6.547 -0.2421 -1.3853 -2.2263
  102SAPE  C31110402   1.234   5.106   6.384 -0.4223 -0.2449 -0.4492
  102SAPE  H11X10403   1.295   5.199   6.386  0.1328 -0.5909 -0.8917
  102SAPE  H11Y10404   1.133   5.142   6.351 -1.0369  0.5006  2.0745
  102SAPE  C31210405   1.294   5.010   6.274  0.5245  0.0864 -0.3599
  102SAPE  H12X10406   1.291   5.069   6.179  0.2593  1.1050  0.2683
  102SAPE  H12Y10407   1.238   4.914   6.268  0.0213  0.1853  1.9252
  102SAPE  C31310408   1.449   4.987   6.285 -0.2429 -0.8063 -0.6217
  102SAPE  H13X10409   1.468   4.921   6.373 -0.1709 -0.4692 -0.3856
  102SAPE  H13Y10410   1.497   5.084   6.308 -0.7169 -0.6420 -0.3111
  102SAPE  C31410411   1.495   4.932   6.143  0.0573  0.2960 -0.1785
  102SAPE  H14X10412   1.602   4.901   6.144 -0.8537 -3.2897  0.1521
  102SAPE  H14Y10413   1.490   5.023   6.079  3.0517 -0.6938 -1.9911
  102SAPE  C31510414   1.408   4.829   6.069  0.8005  0.4068 -0.2342
  102SAPE  H15X10415   1.314   4.886   6.052 -0.4895 -0.2594  3.6998
  102SAPE  H15Y10416   1.379   4.739   6.128 -1.1497 -0.0784 -1.8050
  102SAPE  C31610417   1.468   4.791   5.932 -0.4494 -0.2793  0.1357
  102SAPE  H16X10418   1.460   4.880   5.866  0.4401  1.0558  1.7478
  102SAPE  H16Y10419   1.408   4.707   5.892  1.9417 -2.1229  0.2075
  102SAPE  C31710420   1.614   4.741   5.931 -0.1047  0.1977 -0.2529
  102SAPE  H17X10421   1.626   4.639   5.972  2.9500  0.2264 -0.8239
  102SAPE  H17Y10422   1.686   4.804   5.988  1.2295 -0.3315 -1.2833
  102SAPE  C31810423   1.676   4.736   5.794 -0.2787 -0.6125 -0.2902
  102SAPE  H18X10424   1.665   4.827   5.732 -1.8760 -2.4743 -2.9309
  102SAPE  H18Y10425   1.629   4.655   5.734  0.2977 -0.4049 -1.0417
  102SAPE  H18Z10426   1.784   4.713   5.803 -0.2026  0.0610  0.6610
  103SAPE     N10427   6.650   3.777   3.997 -0.7077  0.2820  0.1590
  103SAPE   HN110428   6.588   3.726   3.931  0.4267 -1.1460  0.1625
  103SAPE   HN210429   6.741   3.786   3.949 -1.8105  0.3191 -2.0269
  103SAPE   HN310430   6.671   3.708   4.072 -0.5749 -0.0433 -0.1756
  103SAPE   C1210431   6.594   3.908   4.040  0.1244 -0.1463  0.2779
  103SAPE  H12A10432   6.501   3.893   4.098 -0.2125 -0.5500 -0.3548
  103SAPE  H12B10433   6.558   3.963   3.951 -1.1357 -0.1965  0.7425
  103SAPE   C1110434   6.698   3.984   4.124 -0.2831 -0.6902  0.1101
  103SAPE  H11A10435   6.722   3.920   4.211  0.5904 -1.0634 -0.3937
  103SAPE  H11B10436   6.645   4.077   4.155  0.7051 -0.1029  0.0651
  103SAPE     P10437   6.948   3.941   4.074 -0.0243 -0.2799  0.3110
  103SAPE   O1310438   6.923   3.797   4.048  0.5545 -0.0434  0.5529
  103SAPE   O1410439   7.053   4.015   3.991  0.1404 -0.2672  0.1134
  103SAPE   O1210440   6.812   4.031   4.047  0.1103  0.1054  0.1618
  103SAPE   O1110441   6.973   3.952   4.232 -0.6527 -0.0167 -0.2002
  103SAPE    C110442   6.973   4.086   4.294  0.2969  0.6751  0.0900
  103SAPE    HA10443   7.024   4.168   4.240  2.0835 -2.1834 -2.9167
  103SAPE    HB10444   6.867   4.117   4.304 -0.1111 -0.8135  0.6828
  103SAPE    C210445   7.028   4.087   4.436 -0.3080 -0.4588  0.3145
  103SAPE    HS10446   7.044   4.196   4.451  2.9113 -0.4552 -2.0850
  103SAPE   O2110447   7.141   4.007   4.468 -0.1782 -0.2449 -0.1827
  103SAPE   C2110448   7.249   4.024   4.395 -0.7520 -0.2614  0.1810
  103SAPE   O2210449   7.273   4.118   4.321  0.3297 -0.0478 -0.0573
  103SAPE   C2210450   7.349   3.919   4.435 -0.0561  0.2359  0.6767
  103SAPE   H2R10451   7.318   3.861   4.525  3.3068 -0.9764  1.1832
  103SAPE   H2S10452   7.370   3.846   4.354 -1.0654 -0.4012  0.9726
  103SAPE    C310453   6.921   4.041   4.546  0.3188 -0.1076  0.5441
  103SAPE    HX10454   6.915   3.930   4.534 -0.1971  0.0138 -0.4261
  103SAPE    HY10455   6.819   4.081   4.527  1.0473  0.7524 -1.8235
  103SAPE   O3110456   6.954   4.074   4.677 -0.3982  0.8552 -0.0171
  103SAPE   C3110457   6.918   4.194   4.721 -0.1433  0.3304  0.3390
  103SAPE   O3210458   6.842   4.274   4.666  0.1097 -0.1807  0.5035
  103SAPE   C3210459   6.963   4.206   4.868  0.0231 -0.0022 -0.1120
  103SAPE   H2X10460   7.074   4.204   4.877  0.3229 -0.4037 -2.9054
  103SAPE   H2Y10461   6.913   4.133   4.935 -0.2438 -0.5132 -0.8493
  103SAPE   C2310462   7.482   3.980   4.490  0.1493 -0.0113 -0.2121
  103SAPE   H3R10463   7.524   3.904   4.560  1.1611 -0.6709 -1.4749
  103SAPE   H3S10464   7.447   4.057   4.561  1.0322  0.1689  0.0495
  103SAPE   C2410465   7.578   4.024   4.382 -0.1523 -0.2142  0.3009
  103SAPE   H4R10466   7.529   4.102   4.320  0.6929  0.6929  0.7590
  103SAPE   H4S10467   7.611   3.943   4.313 -1.9019 -1.7587  1.2042
  103SAPE   C2510468   7.698   4.077   4.449  0.4241 -0.0924 -0.7426
  103SAPE   H5R10469   7.736   4.017   4.532 -0.6438  0.6469  0.3194
  103SAPE   C2610470   7.741   4.209   4.437 -0.0946  0.1332  0.7574
  103SAPE   H6R10471   7.800   4.249   4.520 -0.7720  0.7778  0.9412
  103SAPE   C2710472   7.692   4.308   4.331  0.0596 -0.4420 -0.1963
  103SAPE   H7R10473   7.659   4.251   4.242  0.6307 -1.8081  0.4370
  103SAPE   H7S10474   7.775   4.375   4.299  0.5415 -0.6985  0.4907
  103SAPE   C2810475   7.570   4.386   4.376  0.3041 -0.7270  0.2756
  103SAPE   H8R10476   7.472   4.337   4.365  0.0020 -0.3616  1.1956
  103SAPE   C2910477   7.566   4.518   4.409 -1.0140 -0.1756  0.1203
  103SAPE   H9R10478   7.471   4.564   4.441 -1.1831  1.2431 -2.1872
  103SAPE  C21010479   7.688   4.607   4.415  0.4044  1.1850 -0.1989
  103SAPE  H10R10480   7.689   4.664   4.319 -0.6786  2.2604  0.4034
  103SAPE  H10S10481   7.784   4.552   4.412 -0.7192 -0.8919 -2.9726
  103SAPE  C21110482   7.677   4.709   4.529 -0.3304  0.1663 -0.2674
  103SAPE  H11R10483   7.614   4.797   4.511 -1.0027 -0.6557 -2.3047
  103SAPE  C21210484   7.735   4.693   4.648  0.6777  0.1613 -0.7798
  103SAPE  H12R10485   7.733   4.765   4.732  1.3116 -1.9762  1.1837
  103SAPE  C21310486   7.823   4.576   4.685 -0.5117  0.3621 -0.3928
  103SAPE  H13R10487   7.804   4.485   4.624  0.8027  0.9644 -1.7745
  103SAPE  H13S10488   7.799   4.548   4.790  1.5874 -2.4578 -0.5510
  103SAPE  C21410489   7.967   4.612   4.665 -0.2068  0.6120  0.4185
  103SAPE  H14R10490   7.994   4.607   4.558 -1.7313  1.0356 -0.0128
  103SAPE  C21510491   8.047   4.663   4.765 -0.7032 -0.3745  0.0661
  103SAPE  H15R10492   8.147   4.694   4.731 -0.9942 -0.8896 -1.3312
  103SAPE  C21610493   8.023   4.667   4.914  0.1348  0.1614  0.2684
  103SAPE  H16R10494   8.106   4.610   4.959 -0.3163  1.0093  2.2647
  103SAPE  H16S10495   7.932   4.608   4.940  1.1601 -0.7753  1.8941
  103SAPE  C21710496   8.009   4.801   4.989  0.1580  0.1393  0.0996
  103SAPE  H17R10497   7.931   4.860   4.936  2.4912  1.4141 -2.1541
  103SAPE  H17S10498   8.105   4.854   5.005  0.0395  0.1108  0.9479
  103SAPE  C21810499   7.946   4.778   5.129  0.0251 -0.5470  0.5772
  103SAPE  H18R10500   7.853   4.719   5.113 -0.0584 -0.5461  1.0366
  103SAPE  H18S10501   7.925   4.882   5.162 -0.9725 -0.0377 -1.4478
  103SAPE  C21910502   8.022   4.720   5.248 -0.6492 -0.3368 -0.6473
  103SAPE  H19R10503   8.124   4.762   5.245 -0.8243  0.0340 -3.0848
  103SAPE  H19S10504   8.025   4.611   5.227 -0.9665 -0.5425  0.3299
  103SAPE  C22010505   7.950   4.744   5.389  0.3637 -0.3401  0.1784
  103SAPE  H20R10506   7.942   4.853   5.408 -2.3603 -0.7214  1.8015
  103SAPE  H20S10507   8.017   4.699   5.465  1.9072  0.5313 -0.6138
  103SAPE  H20T10508   7.852   4.691   5.398 -0.3417  1.0723  1.2724
  103SAPE   C3310509   6.935   4.341   4.925 -0.1663 -0.5239 -0.4365
  103SAPE   H3X10510   6.979   4.407   4.847  0.1319 -2.5017 -2.0100
  103SAPE   H3Y10511   7.002   4.355   5.013 -2.2733 -2.9683  1.7156
  103SAPE   C3410512   6.793   4.380   4.966  0.3382  0.0852 -0.1368
  103SAPE   H4X10513   6.726   4.386   4.878 -1.5972 -0.2320  1.2314
  103SAPE   H4Y10514   6.796   4.484   5.005 -1.7665  0.8511 -1.8390
  103SAPE   C3510515   6.729   4.286   5.068 -0.5735  0.0999 -0.7568
  103SAPE   H5X10516   6.725   4.176   5.051  3.3840 -0.2864 -0.2647
  103SAPE   H5Y10517   6.622   4.315   5.073 -0.5894 -0.1756  1.9507
  103SAPE   C3610518   6.778   4.310   5.211 -0.4521 -0.1926  0.3280
  103SAPE   H6X10519   6.782   4.417   5.239  0.9362 -0.4510  1.2219
  103SAPE   H6Y10520   6.885   4.279   5.218 -0.5303 -0.2726  1.2374
  103SAPE   C3710521   6.686   4.234   5.308 -0.5092 -0.3625 -0.2573
  103SAPE   H7X10522   6.704   4.125   5.312 -1.2205 -0.4452  1.4237
  103SAPE   H7Y10523   6.577   4.242   5.289 -1.2655 -1.7378  2.8925
  103SAPE   C3810524   6.717   4.265   5.458  0.3618 -0.3830 -0.4994
  103SAPE   H8X10525   6.690   4.370   5.482  0.1335 -0.2834 -1.1833
  103SAPE   H8Y10526   6.824   4.242   5.476  0.1968 -0.7195  0.0701
  103SAPE   C3910527   6.627   4.190   5.563 -0.3215  0.7566 -0.0078
  103SAPE   H9X10528   6.625   4.080   5.547 -1.7945  0.7074  0.3128
  103SAPE   H9Y10529   6.524   4.230   5.552 -0.9298 -1.4022 -4.3639
  103SAPE  C31010530   6.679   4.195   5.711  0.3484 -0.3208  0.2935
  103SAPE  H10X10531   6.784   4.160   5.706  0.6936  0.4760  1.6099
  103SAPE  H10Y10532   6.614   4.124   5.766 -2.3353  0.8365 -1.1649
  103SAPE  C31110533   6.657   4.334   5.775  0.3740  0.1369 -0.2784
  103SAPE  H11X10534   6.549   4.356   5.764  0.7732  1.4787 -1.8988
  103SAPE  H11Y10535   6.712   4.410   5.715  0.6958 -1.3300 -1.9313
  103SAPE  C31210536   6.699   4.351   5.920  0.0099  0.7174 -0.4261
  103SAPE  H12X10537   6.807   4.330   5.932  0.1388  1.1669 -0.7411
  103SAPE  H12Y10538   6.637   4.292   5.990  1.4137 -1.3094 -0.7931
  103SAPE  C31310539   6.710   4.500   5.948  0.0488 -0.3459 -0.1548
  103SAPE  H13X10540   6.611   4.541   5.921  0.5074  1.9610  1.3562
  103SAPE  H13Y10541   6.794   4.538   5.885  1.8663  1.0575  2.8669
  103SAPE  C31410542   6.746   4.540   6.088  0.3441  0.3672 -0.3784
  103SAPE  H14X10543   6.834   4.479   6.121 -0.4038 -0.5470 -0.0228
  103SAPE  H14Y10544   6.667   4.506   6.158  0.6629 -1.2524 -0.7482
  103SAPE  C31510545   6.754   4.690   6.103  0.0287  0.3341  0.0580
  103SAPE  H15X10546   6.778   4.720   6.207  0.5001  0.8367 -0.1880
  103SAPE  H15Y10547   6.660   4.732   6.062  0.3733 -0.4200 -1.5906
  103SAPE  C31610548   6.880   4.755   6.041  1.0500  0.1106 -0.1145
  103SAPE  H16X10549   6.878   4.864   6.059  1.5270  0.1117 -0.0677
  103SAPE  H16Y10550   6.887   4.738   5.931 -0.0720  0.5189 -0.2646
  103SAPE  C31710551   7.006   4.708   6.101  0.2326  0.3336 -0.4308
  103SAPE  H17X10552   7.034   4.602   6.082  1.1955  0.0352  2.2816
  103SAPE  H17Y10553   6.997   4.709   6.212  1.8143 -1.8613 -0.2028
  103SAPE  C31810554   7.121   4.804   6.060  0.7937 -0.1665  0.9350
  103SAPE  H18X10555   7.225   4.773   6.083  0.3443 -0.3588  2.8966
  103SAPE  H18Y10556   7.115   4.905   6.106 -0.0685 -0.7166  2.0712
  103SAPE  H18Z10557   7.131   4.803   5.949  1.7702 -2.4457  0.9902
  104SAPE     N10558   0.049   3.576   3.902 -0.0563 -0.3397 -0.2493
  104SAPE   HN110559   0.039   3.655   3.970  1.4082  1.0429 -1.5470
  104SAPE   HN210560   0.113   3.600   3.824 -1.0085  0.7252 -0.7372
  104SAPE   HN310561  -0.042   3.561   3.853  0.5285 -1.5385 -0.9930
  104SAPE   C1210562   0.085   3.441   3.965  0.2168 -0.4003  0.3887
  104SAPE  H12A10563   0.195   3.442   3.981  0.5978  0.6070 -1.9352
  104SAPE  H12B10564   0.070   3.362   3.889  0.6184 -0.6260  0.5452
  104SAPE   C1110565   0.000   3.414   4.091 -0.4607  0.4921 -0.6647
  104SAPE  H11A10566   0.003   3.497   4.165 -1.3567 -0.0413 -0.0117
  104SAPE  H11B10567   0.046   3.324   4.136  0.6840  2.2812  2.0002
  104SAPE     P10568  -0.253   3.409   4.143 -0.2559 -0.0819  0.0048
  104SAPE   O1310569  -0.261   3.558   4.144 -0.2876 -0.0746 -0.2017
  104SAPE   O1410570  -0.367   3.331   4.092  0.7062 -0.1373 -0.0369
  104SAPE   O1210571  -0.128   3.362   4.067  0.0665  0.4651 -0.9006
  104SAPE   O1110572  -0.221   3.367   4.292  0.2069 -1.0149 -0.4393
  104SAPE    C110573  -0.200   3.231   4.307  0.0273  0.5186 -0.5490
  104SAPE    HA10574  -0.271   3.166   4.252  0.1569  0.1941 -0.3367
  104SAPE    HB10575  -0.093   3.207   4.286  0.4385  3.0172 -1.7367
  104SAPE    C210576  -0.221   3.191   4.459  0.2878  0.3058 -0.8357
  104SAPE    HS10577  -0.327   3.222   4.474  0.2585 -0.5519  1.0461
  104SAPE   O2110578  -0.128   3.274   4.536 -0.1452 -0.0874  0.2830
  104SAPE   C2110579  -0.187   3.328   4.643  1.0583 -0.0752  0.4522
  104SAPE   O2210580  -0.302   3.307   4.680  0.3118 -0.3246  0.1942
  104SAPE   C2210581  -0.080   3.416   4.715 -0.3766  0.2882 -0.0788
  104SAPE   H2R10582   0.012   3.423   4.654  0.4408 -0.3294  1.0439
  104SAPE   H2S10583  -0.119   3.520   4.716 -1.8095 -0.2203  1.3842
  104SAPE    C310584  -0.191   3.040   4.491  0.3236 -0.1200 -0.4962
  104SAPE    HX10585  -0.088   3.002   4.473  0.2848 -1.1699  1.2383
  104SAPE    HY10586  -0.253   2.987   4.416 -1.0497 -0.3395  0.7472
  104SAPE   O3110587  -0.225   3.004   4.627  0.0255  0.6783  0.2779
  104SAPE   C3110588  -0.361   2.997   4.645 -0.2393  0.1393  0.4328
  104SAPE   O3210589  -0.445   3.013   4.556  0.1338 -0.4749 -1.0405
  104SAPE   C3210590  -0.394   2.988   4.793  0.3195 -0.2232 -0.6765
  104SAPE   H2X10591  -0.369   3.089   4.832 -1.8801 -0.0014  0.3632
  104SAPE   H2Y10592  -0.321   2.917   4.838 -1.1481 -1.9247 -0.8251
  104SAPE   C2310593  -0.049   3.354   4.854  0.2080 -0.2388 -0.5438
  104SAPE   H3R10594   0.008   3.259   4.849 -0.7070 -0.7863 -0.9000
  104SAPE   H3S10595  -0.150   3.333   4.895  0.5181 -2.9946 -1.0405
  104SAPE   C2410596   0.039   3.432   4.953  0.0232  0.1548  0.2529
  104SAPE   H4R10597   0.122   3.476   4.894 -0.8064 -0.7444 -1.6621
  104SAPE   H4S10598   0.072   3.357   5.028 -0.2257 -0.5088 -0.2954
  104SAPE   C2510599  -0.037   3.547   5.017 -0.2298 -0.7799 -0.0147
  104SAPE   H5R10600  -0.077   3.614   4.939  1.0681  0.0039 -0.0294
  104SAPE   C2610601  -0.027   3.588   5.145 -0.0020 -0.4239 -0.2701
  104SAPE   H6R10602  -0.085   3.676   5.178 -0.4981 -0.4389 -1.0940
  104SAPE   C2710603   0.041   3.526   5.260 -0.1901 -0.2501 -0.0492
  104SAPE   H7R10604   0.077   3.424   5.235 -1.6779 -0.5919 -0.9453
  104SAPE   H7S10605  -0.034   3.518   5.342 -0.5090 -1.2994 -0.4294
  104SAPE   C2810606   0.159   3.604   5.302  0.3443  0.6124  0.4092
  104SAPE   H8R10607   0.240   3.612   5.228 -0.4518  0.0065 -0.5519
  104SAPE   C2910608   0.173   3.672   5.421  0.1150  0.6122 -0.2364
  104SAPE   H9R10609   0.268   3.721   5.447 -0.0225  0.1703  1.1905
  104SAPE  C21010610   0.075   3.683   5.534  0.2696  0.6354 -0.1347
  104SAPE  H10R10611   0.131   3.695   5.629  2.2641 -1.5089 -0.9626
  104SAPE  H10S10612   0.018   3.589   5.548  2.4300 -0.6969  0.0588
  104SAPE  C21110613  -0.021   3.796   5.518  0.8700  0.4339  0.9834
  104SAPE  H11R10614  -0.107   3.769   5.455  1.2061  2.4813 -0.4652
  104SAPE  C21210615  -0.005   3.927   5.550  0.1206 -0.4598  0.4285
  104SAPE  H12R10616  -0.092   3.994   5.550  1.9223  2.0398  0.9377
  104SAPE  C21310617   0.115   3.992   5.620 -0.6974  0.5059 -0.4136
  104SAPE  H13R10618   0.149   4.087   5.575  0.5693  0.5223  0.4994
  104SAPE  H13S10619   0.194   3.915   5.605  0.0045  1.5302 -2.2338
  104SAPE  C21410620   0.108   4.013   5.765 -0.5402 -0.6961  0.0586
  104SAPE  H14R10621   0.032   3.948   5.810 -0.4162 -0.4930  0.5719
  104SAPE  C21510622   0.154   4.112   5.840  0.8270  0.0148  0.4882
  104SAPE  H15R10623   0.136   4.111   5.949  1.8177  1.7235  0.6871
  104SAPE  C21610624   0.236   4.229   5.799  0.3597 -0.5750  0.0832
  104SAPE  H16R10625   0.249   4.233   5.689  0.1832  3.1794  0.0927
  104SAPE  H16S10626   0.335   4.214   5.847  1.6338 -0.2028 -2.3178
  104SAPE  C21710627   0.187   4.366   5.848  0.3748  0.3878  0.1527
  104SAPE  H17R10628   0.275   4.433   5.851  0.6671  0.0519 -0.7468
  104SAPE  H17S10629   0.156   4.351   5.954 -0.4816  0.2078 -0.1087
  104SAPE  C21810630   0.084   4.435   5.745 -0.3310 -0.3304 -0.2687
  104SAPE  H18R10631   0.031   4.519   5.794 -0.7232 -0.5401 -0.3320
  104SAPE  H18S10632   0.001   4.368   5.714 -0.1279 -0.3558 -0.7747
  104SAPE  C21910633   0.149   4.479   5.613 -0.2042  0.0134  0.2733
  104SAPE  H19R10634   0.203   4.391   5.572  0.6184  0.1608  0.9987
  104SAPE  H19S10635   0.224   4.560   5.625  1.8177 -1.7687  0.4073
  104SAPE  C22010636   0.041   4.546   5.523  0.8086 -0.2657 -0.7056
  104SAPE  H20R10637   0.011   4.649   5.555 -2.7014 -2.2734  3.6337
  104SAPE  H20S10638  -0.044   4.477   5.543 -0.1828  0.5530 -1.9546
  104SAPE  H20T10639   0.058   4.536   5.414  1.8360 -2.1059 -0.4170
  104SAPE   C3310640  -0.541   2.962   4.837  0.1586 -0.2966 -0.5479
  104SAPE   H3X10641  -0.552   2.888   4.919 -0.0233 -3.2588 -3.0896
  104SAPE   H3Y10642  -0.600   2.918   4.754  0.3897  1.2340 -1.5769
  104SAPE   C3410643  -0.601   3.087   4.891 -0.5158  0.1018 -0.1095
  104SAPE   H4X10644  -0.712   3.090   4.879 -0.5015  3.7607 -0.5650
  104SAPE   H4Y10645  -0.565   3.169   4.825  0.6211 -0.7803 -0.6082
  104SAPE   C3510646  -0.576   3.130   5.037 -0.8862  0.0320  0.7581
  104SAPE   H5X10647  -0.617   3.046   5.097  0.1179 -0.3367  0.9490
  104SAPE   H5Y10648  -0.632   3.226   5.049  0.7499  1.1828 -0.3843
  104SAPE   C3610649  -0.430   3.167   5.075  0.9107 -0.1379  0.0789
  104SAPE   H6X10650  -0.400   3.257   5.018  0.7555 -0.2167 -0.1294
  104SAPE   H6Y10651  -0.373   3.082   5.032  1.9118  0.7497 -0.3976
  104SAPE   C3710652  -0.385   3.172   5.217  0.5212 -0.0270 -0.0436
  104SAPE   H7X10653  -0.408   3.076   5.268  0.5852 -0.2143 -0.3639
  104SAPE   H7Y10654  -0.451   3.242   5.275  1.3481  1.4192 -0.7951
  104SAPE   C3810655  -0.241   3.224   5.242  0.2567  0.3099 -0.2482
  104SAPE   H8X10656  -0.237   3.326   5.200  0.2748  1.4832  2.4075
  104SAPE   H8Y10657  -0.179   3.152   5.184  0.4429  1.8907 -2.0750
  104SAPE   C3910658  -0.194   3.219   5.387 -0.2099 -0.2557 -0.5333
  104SAPE   H9X10659  -0.084   3.216   5.400 -0.4945 -0.6582  2.3684
  104SAPE   H9Y10660  -0.222   3.122   5.433  0.2060  0.3498  1.0393
  104SAPE  C31010661  -0.256   3.327   5.487  0.8983  1.1629  0.7190
  104SAPE  H10X10662  -0.359   3.298   5.517  1.4794 -2.7723 -0.5240
  104SAPE  H10Y10663  -0.255   3.421   5.429  1.8220 -0.1831 -1.5975
  104SAPE  C31110664  -0.165   3.344   5.607 -0.2504  0.5562 -0.5447
  104SAPE  H11X10665  -0.064   3.381   5.578 -0.5239  1.2925 -0.5752
  104SAPE  H11Y10666  -0.161   3.245   5.657  1.5460  0.0832 -1.5461
  104SAPE  C31210667  -0.245   3.448   5.693 -0.2256  1.2932 -1.1212
  104SAPE  H12X10668  -0.337   3.398   5.730 -0.3459  1.2874 -1.4251
  104SAPE  H12Y10669  -0.277   3.532   5.629  1.2233  0.8575 -2.4632
  104SAPE  C31310670  -0.160   3.493   5.811  0.3202 -0.2644 -0.3265
  104SAPE  H13X10671  -0.072   3.542   5.763 -0.2649  0.9575 -0.1885
  104SAPE  H13Y10672  -0.125   3.410   5.876 -1.2863 -0.2271  0.6461
  104SAPE  C31410673  -0.226   3.592   5.907  0.6806  0.1279 -0.2470
  104SAPE  H14X10674  -0.166   3.591   6.000 -1.0224  1.8605  0.9504
  104SAPE  H14Y10675  -0.326   3.547   5.928  1.6513 -0.8853  2.7138
  104SAPE  C31510676  -0.225   3.735   5.850 -0.2529  0.0683  0.1239
  104SAPE  H15X10677  -0.301   3.756   5.772 -1.1440  1.6087  1.3464
  104SAPE  H15Y10678  -0.126   3.747   5.801 -1.9964 -1.3525 -4.2262
  104SAPE  C31610679  -0.264   3.843   5.950  0.0103  0.5211 -0.2607
  104SAPE  H16X10680  -0.248   3.946   5.912 -0.0245  0.3032 -0.8759
  104SAPE  H16Y10681  -0.200   3.833   6.040  1.5231  0.4040 -1.3145
  104SAPE  C31710682  -0.408   3.831   5.999  0.3812 -0.4140 -0.7927
  104SAPE  H17X10683  -0.473   3.771   5.933 -0.8832 -1.7018  1.5013
  104SAPE  H17Y10684  -0.457   3.930   6.012  0.3765 -0.3658 -1.1683
  104SAPE  C31810685  -0.411   3.762   6.138  0.5142 -0.3060  0.8831
  104SAPE  H18X10686  -0.353   3.827   6.207  1.0178 -0.4204  0.5679
  104SAPE  H18Y10687  -0.361   3.663   6.145 -0.4501 -0.7290  2.2621
  104SAPE  H18Z10688  -0.513   3.740   6.177 -0.3411 -1.1149 -1.6556
  105SAPE     N10689   2.190   0.976   3.779 -0.3483 -0.3376 -0.0490
  105SAPE   HN110690   2.099   0.963   3.729  0.1290 -0.3311 -0.9488
  105SAPE   HN210691   2.258   1.035   3.727  1.8219 -0.0267  2.9244
  105SAPE   HN310692   2.239   0.884   3.782  1.3046  0.5230  0.5292
  105SAPE   C1210693   2.152   1.044   3.907 -0.3192 -0.6300  0.2784
  105SAPE  H12A10694   2.043   1.065   3.916 -0.4859 -1.7594  1.1656
  105SAPE  H12B10695   2.213   1.136   3.906  1.0965 -1.5380 -0.4012
  105SAPE   C1110696   2.191   0.961   4.034  0.3102 -0.1880 -0.8124
  105SAPE  H11A10697   2.166   1.013   4.129 -0.3162 -2.2925  0.2190
  105SAPE  H11B10698   2.302   0.958   4.039  0.4563  1.3129 -2.3091
  105SAPE     P10699   2.191   0.696   4.009 -0.0024 -0.0741  0.1381
  105SAPE   O1310700   2.077   0.604   3.979 -0.2794 -0.1255 -0.5381
  105SAPE   O1410701   2.298   0.724   3.902  0.0729  0.2682 -0.9826
  105SAPE   O1210702   2.126   0.835   4.038  0.6656 -0.0108 -0.1110
  105SAPE   O1110703   2.259   0.657   4.145  0.4783 -0.5805  0.6755
  105SAPE    C110704   2.402   0.640   4.150  0.4062 -0.5162 -0.2697
  105SAPE    HA10705   2.412   0.531   4.134 -2.3637 -1.1756  1.6440
  105SAPE    HB10706   2.467   0.695   4.079  0.8276 -0.5901  0.0506
  105SAPE    C210707   2.450   0.677   4.298  0.5500 -0.1452 -0.5120
  105SAPE    HS10708   2.502   0.775   4.300  0.7722 -0.2531 -0.8949
  105SAPE   O2110709   2.543   0.583   4.334 -0.1063  0.1949 -0.0486
  105SAPE   C2110710   2.661   0.592   4.271 -0.3517  0.3885  0.7652
  105SAPE   O2210711   2.700   0.676   4.199 -0.3242 -0.3162  0.9325
  105SAPE   C2210712   2.740   0.472   4.324  0.2171  0.4222  0.2510
  105SAPE   H2R10713   2.705   0.373   4.288  0.2672 -0.2922  2.0682
  105SAPE   H2S10714   2.839   0.487   4.276 -0.6019 -2.7666 -2.7769
  105SAPE    C310715   2.344   0.665   4.419  0.0054  0.2191 -0.7454
  105SAPE    HX10716   2.292   0.567   4.414 -1.3808  0.9538 -1.2002
  105SAPE    HY10717   2.272   0.744   4.388  0.2081  0.2810 -1.0596
  105SAPE   O3110718   2.394   0.690   4.550 -0.0377  0.4573 -0.4679
  105SAPE   C3110719   2.401   0.597   4.643  0.3434 -0.7114  0.7816
  105SAPE   O3210720   2.390   0.477   4.623 -1.2173 -0.2568 -0.1448
  105SAPE   C3210721   2.406   0.657   4.788  0.7156 -0.2876  0.0910
  105SAPE   H2X10722   2.301   0.683   4.811  0.1290 -0.4811 -2.0867
  105SAPE   H2Y10723   2.459   0.754   4.782 -0.5960  0.3560 -2.1587
  105SAPE   C2310724   2.759   0.477   4.477 -0.0466  0.1042 -1.0100
  105SAPE   H3R10725   2.661   0.463   4.528 -0.1063  1.4521 -0.7217
  105SAPE   H3S10726   2.797   0.581   4.489  1.6060 -0.4461 -1.2224
  105SAPE   C2410727   2.866   0.382   4.530  0.3878 -0.0195  0.1298
  105SAPE   H4R10728   2.825   0.283   4.502 -1.1066  0.8364 -0.8479
  105SAPE   H4S10729   2.854   0.393   4.640 -0.0585  1.5195 -0.0496
  105SAPE   C2510730   3.008   0.403   4.485  0.0330  0.3018  0.4784
  105SAPE   H5R10731   3.026   0.423   4.379 -0.8867 -0.4210  0.1790
  105SAPE   C2610732   3.117   0.413   4.562  0.4140  0.0197  0.1714
  105SAPE   H6R10733   3.212   0.429   4.508  0.1945  4.0390  0.6428
  105SAPE   C2710734   3.117   0.393   4.717  0.1773  0.4733  0.3409
  105SAPE   H7R10735   3.168   0.296   4.732  3.3438  2.1403  1.2611
  105SAPE   H7S10736   3.013   0.405   4.756 -0.0260  0.1861 -0.1152
  105SAPE   C2810737   3.204   0.499   4.770 -0.9394  0.0747 -0.5317
  105SAPE   H8R10738   3.226   0.584   4.704  1.1812  0.3467  0.4274
  105SAPE   C2910739   3.248   0.500   4.900  0.6703 -0.3661 -0.4265
  105SAPE   H9R10740   3.311   0.579   4.944 -0.8234 -0.0536  1.2634
  105SAPE  C21010741   3.213   0.390   5.003  0.5210  0.0678  0.5268
  105SAPE  H10R10742   3.108   0.362   4.981  0.4532  1.2972 -0.8907
  105SAPE  H10S10743   3.214   0.443   5.101 -3.2366  0.0632  0.7316
  105SAPE  C21110744   3.299   0.267   5.002 -0.7045 -0.0023  0.5185
  105SAPE  H11R10745   3.336   0.238   4.903  0.7873  2.3434  0.3063
  105SAPE  C21210746   3.339   0.196   5.114  0.0894 -0.5009  0.2442
  105SAPE  H12R10747   3.409   0.111   5.105  2.1258  1.2543 -1.6620
  105SAPE  C21310748   3.285   0.229   5.252 -0.0241 -0.9509  0.8917
  105SAPE  H13R10749   3.174   0.239   5.243 -0.0323 -1.4689  0.3670
  105SAPE  H13S10750   3.314   0.330   5.290 -2.8789  1.0366 -1.6987
  105SAPE  C21410751   3.314   0.110   5.338  0.3380  0.3217 -0.4814
  105SAPE  H14R10752   3.237   0.032   5.340  0.6940 -0.0264 -0.3746
  105SAPE  C21510753   3.411   0.118   5.433  0.3008  0.4291 -0.2352
  105SAPE  H15R10754   3.418   0.030   5.499 -1.6465  1.3251  1.2400
  105SAPE  C21610755   3.512   0.225   5.453  0.3879 -0.4626  0.1550
  105SAPE  H16R10756   3.533   0.291   5.366  1.1147 -0.3396  0.4120
  105SAPE  H16S10757   3.610   0.177   5.475  2.2318  1.3360 -3.2809
  105SAPE  C21710758   3.495   0.325   5.566 -0.3994 -0.3588 -0.4425
  105SAPE  H17R10759   3.418   0.399   5.536  0.2427 -0.1451 -1.6183
  105SAPE  H17S10760   3.588   0.368   5.609 -0.9961 -0.1227  0.6480
  105SAPE  C21810761   3.427   0.269   5.699  0.6331  0.2573  0.1130
  105SAPE  H18R10762   3.503   0.199   5.741  1.2970  1.8133  1.6360
  105SAPE  H18S10763   3.331   0.221   5.669  0.7691  0.5493 -0.8102
  105SAPE  C21910764   3.398   0.390   5.799  0.1504 -0.0382  0.1605
  105SAPE  H19R10765   3.330   0.356   5.880  1.4330  0.9836  1.7099
  105SAPE  H19S10766   3.350   0.467   5.736 -0.9028 -1.2103 -0.5237
  105SAPE  C22010767   3.515   0.462   5.868 -0.0433  0.2074 -0.4369
  105SAPE  H20R10768   3.582   0.510   5.794  1.1592 -0.9794 -0.1623
  105SAPE  H20S10769   3.580   0.382   5.910 -1.8093 -1.1244 -0.1106
  105SAPE  H20T10770   3.472   0.533   5.942 -3.2430 -1.7874 -0.1941
  105SAPE   C3310771   2.450   0.551   4.888  0.1277  0.6911  0.5996
  105SAPE   H3X10772   2.558   0.526   4.882  0.3621  1.9318 -0.6653
  105SAPE   H3Y10773   2.405   0.450   4.876  0.7746  0.0149  3.1981
  105SAPE   C3410774   2.427   0.595   5.030  0.1884  0.0231  0.4131
  105SAPE   H4X10775   2.320   0.619   5.047 -0.4199 -1.7936 -0.5267
  105SAPE   H4Y10776   2.488   0.686   5.048 -1.9968  1.7402 -0.5148
  105SAPE   C3510777   2.485   0.500   5.133  0.8816 -0.6795  0.5690
  105SAPE   H5X10778   2.595   0.488   5.124  1.0195  0.3032  0.7564
  105SAPE   H5Y10779   2.439   0.403   5.108 -0.2569  0.5365 -2.4519
  105SAPE   C3610780   2.456   0.529   5.282  0.6539  0.0211  0.6098
  105SAPE   H6X10781   2.345   0.529   5.292  0.5194  1.0825 -0.5323
  105SAPE   H6Y10782   2.480   0.635   5.305  0.5005 -0.4752  3.2826
  105SAPE   C3710783   2.513   0.428   5.378 -0.0358 -0.1889 -0.8314
  105SAPE   H7X10784   2.623   0.434   5.394 -0.0550  0.4108 -0.9250
  105SAPE   H7Y10785   2.486   0.326   5.343 -2.8910 -0.0439  0.6596
  105SAPE   C3810786   2.444   0.430   5.514 -0.4555  0.0838 -0.1756
  105SAPE   H8X10787   2.335   0.423   5.496 -0.3873  0.0675 -0.6173
  105SAPE   H8Y10788   2.463   0.526   5.565  0.8463 -0.0438 -0.3769
  105SAPE   C3910789   2.493   0.311   5.592 -0.0593  0.1131 -0.9089
  105SAPE   H9X10790   2.586   0.335   5.647  0.5098 -2.2741 -0.7004
  105SAPE   H9Y10791   2.508   0.219   5.531 -1.4298 -1.0271  0.3817
  105SAPE  C31010792   2.386   0.265   5.695  0.0687  0.0193  0.2836
  105SAPE  H10X10793   2.436   0.178   5.743  1.4237  0.1413 -0.8421
  105SAPE  H10Y10794   2.292   0.220   5.656 -1.0082  2.7625 -0.5549
  105SAPE  C31110795   2.366   0.375   5.804 -0.1692  0.0285 -0.4262
  105SAPE  H11X10796   2.319   0.465   5.759 -2.1933 -0.4788  0.5360
  105SAPE  H11Y10797   2.470   0.398   5.838 -0.0344 -1.7105  0.4341
  105SAPE  C31210798   2.277   0.340   5.927 -0.0232  0.8257 -0.6370
  105SAPE  H12X10799   2.327   0.248   5.963  0.1885  1.5344  0.9822
  105SAPE  H12Y10800   2.175   0.327   5.884 -0.1509  2.3394 -0.8528
  105SAPE  C31310801   2.295   0.445   6.040 -0.3070 -0.5115  0.1750
  105SAPE  H13X10802   2.259   0.543   6.001  1.1493 -0.2674 -0.6112
  105SAPE  H13Y10803   2.404   0.455   6.055  0.1709  2.4312 -3.5709
  105SAPE  C31410804   2.222   0.406   6.169  0.5464 -0.6466  0.6560
  105SAPE  H14X10805   2.258   0.309   6.211 -2.9051 -3.0893 -1.4878
  105SAPE  H14Y10806   2.119   0.387   6.134  0.5459 -0.6371  0.6529
  105SAPE  C31510807   2.219   0.514   6.279  1.1404  0.2986  0.0105
  105SAPE  H15X10808   2.167   0.600   6.231  1.7502  0.8244  0.2836
  105SAPE  H15Y10809   2.323   0.548   6.297  0.8331  0.6604  1.2257
  105SAPE  C31610810   2.167   0.473   6.418 -0.1306  0.0317  0.1472
  105SAPE  H16X10811   2.123   0.372   6.411  2.2923 -1.0543 -0.8114
  105SAPE  H16Y10812   2.092   0.551   6.445 -1.0074 -0.1472 -1.6267
  105SAPE  C31710813   2.278   0.481   6.532 -0.2862 -0.5180  0.2468
  105SAPE  H17X10814   2.324   0.580   6.511 -0.1968 -0.3226  1.3029
  105SAPE  H17Y10815   2.347   0.398   6.506 -0.7980 -0.1531 -2.6720
  105SAPE  C31810816   2.229   0.464   6.671  0.5476 -0.4988 -0.8179
  105SAPE  H18X10817   2.139   0.527   6.689  1.0571 -0.4560  2.0320
  105SAPE  H18Y10818   2.307   0.503   6.740 -0.8607 -1.3755  1.3751
  105SAPE  H18Z10819   2.197   0.359   6.686 -1.1560  0.2352  1.0794
  106SAPE     N10820   2.907   3.259   3.963 -0.0601 -0.0379  0.5608
  106SAPE   HN110821   2.890   3.186   3.891  0.7819  1.8052 -1.6346
  106SAPE   HN210822   2.820   3.315   3.974 -0.2880 -0.3305  0.2841
  106SAPE   HN310823   2.974   3.330   3.928  0.7104 -1.3110 -0.6369
  106SAPE   C1210824   2.967   3.185   4.077  0.4356  0.0472  0.2523
  106SAPE  H12A10825   3.008   3.262   4.146  0.1884  0.9899 -0.6226
  106SAPE  H12B10826   3.037   3.108   4.041  0.5418 -0.1007  0.7696
  106SAPE   C1110827   2.854   3.118   4.151  0.4296  0.6873  0.0053
  106SAPE  H11A10828   2.785   3.189   4.201  2.0736 -0.0167  3.5480
  106SAPE  H11B10829   2.902   3.052   4.225 -2.8380 -0.5533  1.1901
  106SAPE     P10830   2.788   2.884   4.034  0.4279 -0.0408 -0.1122
  106SAPE   O1310831   2.683   2.829   3.946 -0.6442  0.7657  0.4102
  106SAPE   O1410832   2.928   2.854   3.997  0.1033  0.0221  0.4105
  106SAPE   O1210833   2.776   3.040   4.061 -0.2276  0.2963 -0.4582
  106SAPE   O1110834   2.761   2.821   4.181 -0.3201 -0.1896 -0.0532
  106SAPE    C110835   2.860   2.745   4.248 -0.4432  0.1920 -0.3626
  106SAPE    HA10836   2.883   2.652   4.191 -0.0908  0.3965 -0.5518
  106SAPE    HB10837   2.955   2.800   4.260 -0.3057  0.3711 -2.0064
  106SAPE    C210838   2.813   2.727   4.392  0.1153 -0.0687  0.0981
  106SAPE    HS10839   2.724   2.662   4.383  0.6951 -0.9401  0.5871
  106SAPE   O2110840   2.776   2.852   4.454 -0.0287 -0.3153  0.6420
  106SAPE   C2110841   2.691   2.849   4.557  0.1419 -0.6946 -0.0427
  106SAPE   O2210842   2.628   2.751   4.594  0.2019 -0.2113 -0.3082
  106SAPE   C2210843   2.698   2.988   4.638  0.8732  0.7347  0.8940
  106SAPE   H2R10844   2.807   2.996   4.658  0.9270  3.6570 -0.1245
  106SAPE   H2S10845   2.658   3.068   4.573  0.2009  0.6285  1.1691
  106SAPE    C310846   2.920   2.640   4.470  0.2800 -0.0574 -0.1513
  106SAPE    HX10847   3.009   2.702   4.446 -0.5342  1.0367 -0.4652
  106SAPE    HY10848   2.931   2.546   4.412 -2.3395 -0.5146 -0.0146
  106SAPE   O3110849   2.889   2.623   4.608  0.0126 -0.1279  0.3192
  106SAPE   C3110850   2.990   2.589   4.689  0.2726  0.2539  0.0666
  106SAPE   O3210851   3.104   2.577   4.651 -0.0484  0.0995 -0.0166
  106SAPE   C3210852   2.933   2.562   4.823 -0.0938 -0.1132 -0.0133
  106SAPE   H2X10853   2.887   2.461   4.815  0.0099 -0.0162 -3.0184
  106SAPE   H2Y10854   2.849   2.629   4.849 -0.3151 -0.4625  0.1822
  106SAPE   C2310855   2.616   3.002   4.767 -0.0810  0.0950  0.7761
  106SAPE   H3R10856   2.549   2.914   4.777  1.9943 -1.8597 -1.2743
  106SAPE   H3S10857   2.540   3.083   4.758 -0.9899 -0.8663 -0.5439
  106SAPE   C2410858   2.703   3.031   4.880 -0.3498 -0.3514 -0.2330
  106SAPE   H4R10859   2.629   3.064   4.956  1.6252  0.6782  1.3095
  106SAPE   H4S10860   2.774   3.113   4.858 -0.4052 -0.5767 -1.3240
  106SAPE   C2510861   2.788   2.915   4.939 -0.3539 -0.2069 -0.2158
  106SAPE   H5R10862   2.843   2.861   4.860 -0.9742 -1.9052  0.4709
  106SAPE   C2610863   2.792   2.872   5.068  1.4132  0.1350  0.3176
  106SAPE   H6R10864   2.860   2.789   5.092  1.5643 -0.5540 -2.2028
  106SAPE   C2710865   2.727   2.938   5.182 -0.5018 -0.3844 -0.2218
  106SAPE   H7R10866   2.679   3.033   5.151 -0.0512 -0.0509  0.0777
  106SAPE   H7S10867   2.795   2.968   5.265  0.5565  0.3016 -1.2899
  106SAPE   C2810868   2.618   2.846   5.234 -0.0161 -0.6560 -0.6636
  106SAPE   H8R10869   2.540   2.821   5.161 -0.9205  1.7070 -0.6075
  106SAPE   C2910870   2.610   2.808   5.365 -0.2813 -0.5264 -0.1818
  106SAPE   H9R10871   2.523   2.747   5.395 -1.2186  0.9785  0.2469
  106SAPE  C21010872   2.700   2.838   5.482 -0.0744 -0.3312 -0.3501
  106SAPE  H10R10873   2.797   2.870   5.438 -0.4351  0.6511 -0.4447
  106SAPE  H10S10874   2.717   2.749   5.547  1.1067  0.8716  1.0472
  106SAPE  C21110875   2.629   2.934   5.570  0.1456 -0.7065  0.0484
  106SAPE  H11R10876   2.640   3.038   5.534  1.1436 -1.5191 -2.2378
  106SAPE  C21210877   2.546   2.906   5.672 -0.6792  0.1110  0.2915
  106SAPE  H12R10878   2.501   2.997   5.715  1.6670  2.4893 -1.9252
  106SAPE  C21310879   2.519   2.774   5.745  0.1134  1.0275 -0.1687
  106SAPE  H13R10880   2.564   2.688   5.692 -0.1735  0.2019  0.8969
  106SAPE  H13S10881   2.416   2.735   5.758  1.3304 -2.8366 -0.7934
  106SAPE  C21410882   2.565   2.771   5.889 -0.2495 -1.0000 -0.7487
  106SAPE  H14R10883   2.674   2.777   5.905 -0.0968  0.2432 -2.1064
  106SAPE  C21510884   2.495   2.754   6.003 -0.0672  0.3081 -0.0086
  106SAPE  H15R10885   2.548   2.762   6.098 -0.1556 -0.0565  0.0742
  106SAPE  C21610886   2.343   2.749   6.008 -1.4195  0.4837  0.3268
  106SAPE  H16R10887   2.306   2.649   5.977 -3.5798  1.3608 -0.0902
  106SAPE  H16S10888   2.302   2.813   5.927  2.6068  2.4204 -0.4382
  106SAPE  C21710889   2.283   2.790   6.147 -0.7479  0.4967 -0.4769
  106SAPE  H17R10890   2.177   2.818   6.127 -0.5433  0.2372 -2.0706
  106SAPE  H17S10891   2.349   2.874   6.174  0.4406 -1.0113  1.5976
  106SAPE  C21810892   2.294   2.678   6.255 -0.6099 -0.1698 -0.6965
  106SAPE  H18R10893   2.252   2.717   6.350 -1.1604 -0.9876 -0.5898
  106SAPE  H18S10894   2.398   2.640   6.256 -1.4011 -2.5487  1.2655
  106SAPE  C21910895   2.194   2.565   6.229  0.2690  0.0848  0.7151
  106SAPE  H19R10896   2.236   2.504   6.147  4.0322  0.6175  2.0497
  106SAPE  H19S10897   2.104   2.620   6.194 -1.6634 -2.5390  1.2180
  106SAPE  C22010898   2.159   2.476   6.353 -0.1154  0.0339  0.0346
  106SAPE  H20R10899   2.076   2.409   6.320 -1.2910  0.4326  2.0270
  106SAPE  H20S10900   2.134   2.553   6.429 -0.4724  0.2312 -0.2801
  106SAPE  H20T10901   2.240   2.403   6.377  1.2963  1.8573  1.1650
  106SAPE   C3310902   3.033   2.579   4.936 -0.3643 -0.6157 -0.2180
  106SAPE   H3X10903   3.060   2.687   4.948 -0.2445 -0.7276  0.5467
  106SAPE   H3Y10904   3.130   2.531   4.913  0.8493  0.0137  3.0745
  106SAPE   C3410905   2.975   2.529   5.066  0.2324 -0.6190 -1.0243
  106SAPE   H4X10906   2.963   2.419   5.057 -0.2630 -0.5487 -1.3113
  106SAPE   H4Y10907   2.873   2.572   5.083  0.5931 -0.4445  0.9698
  106SAPE   C3510908   3.062   2.554   5.194 -0.1775 -0.9383  0.0238
  106SAPE   H5X10909   3.170   2.548   5.169 -0.4821  1.4294 -2.2643
  106SAPE   H5Y10910   3.039   2.464   5.255  1.0603 -0.8582  0.6291
  106SAPE   C3610911   3.043   2.692   5.269 -0.4450 -0.4415  0.0037
  106SAPE   H6X10912   2.936   2.708   5.295 -0.7893  0.6982 -1.9900
  106SAPE   H6Y10913   3.072   2.772   5.198 -1.4416 -0.6442 -0.6575
  106SAPE   C3710914   3.128   2.678   5.398  0.4386 -0.3973  0.1224
  106SAPE   H7X10915   3.236   2.674   5.372  0.5157  2.0066 -0.1271
  106SAPE   H7Y10916   3.104   2.584   5.452  1.8885 -1.1246 -0.4477
  106SAPE   C3810917   3.111   2.803   5.483 -0.1201  0.1602  0.6083
  106SAPE   H8X10918   3.002   2.822   5.495 -0.0792  1.9179 -1.1425
  106SAPE   H8Y10919   3.139   2.898   5.433 -1.3584  0.2143 -0.0083
  106SAPE   C3910920   3.175   2.789   5.617 -0.4825  0.0276 -1.0920
  106SAPE   H9X10921   3.285   2.793   5.602 -0.5654  1.5195 -1.4291
  106SAPE   H9Y10922   3.165   2.686   5.657 -0.2580  0.6424  0.6397
  106SAPE  C31010923   3.116   2.884   5.727 -0.9506  0.2559 -0.1063
  106SAPE  H10X10924   3.129   2.989   5.694  0.8482  0.4059  0.9280
  106SAPE  H10Y10925   3.178   2.880   5.820 -0.0799  2.3786 -0.5376
  106SAPE  C31110926   2.969   2.855   5.758  0.2919 -0.1232  0.2123
  106SAPE  H11X10927   2.940   2.748   5.750 -0.1452  0.0744 -1.3298
  106SAPE  H11Y10928   2.919   2.905   5.672 -2.4214 -2.9912 -0.0545
  106SAPE  C31210929   2.931   2.909   5.898 -0.1243 -0.3642  0.2166
  106SAPE  H12X10930   3.021   2.888   5.960  1.1866  2.1291 -0.7222
  106SAPE  H12Y10931   2.851   2.846   5.942  0.4434 -0.9735  0.3883
  106SAPE  C31310932   2.906   3.061   5.918 -0.5980  0.3095  0.7524
  106SAPE  H13X10933   2.803   3.078   5.882 -0.6362  1.8127  1.5094
  106SAPE  H13Y10934   2.980   3.129   5.871 -0.3768  0.8284  1.8194
  106SAPE  C31410935   2.876   3.093   6.067 -0.5239 -0.1361  0.1254
  106SAPE  H14X10936   2.817   3.010   6.111 -0.6503 -0.3404 -0.4299
  106SAPE  H14Y10937   2.816   3.186   6.058  0.4228  0.2685 -4.1816
  106SAPE  C31510938   3.009   3.114   6.148  0.1831  0.6833 -0.2677
  106SAPE  H15X10939   3.088   3.180   6.106 -0.4204  0.7665 -1.2978
  106SAPE  H15Y10940   3.044   3.008   6.149  0.3161  0.7173 -0.9445
  106SAPE  C31610941   2.980   3.172   6.285 -0.2162  0.0542 -0.3458
  106SAPE  H16X10942   2.906   3.118   6.347 -1.6981  2.1693 -0.1342
  106SAPE  H16Y10943   2.935   3.272   6.268  0.7317  0.5045 -0.2631
  106SAPE  C31710944   3.111   3.186   6.362 -0.2473 -0.8212  0.2671
  106SAPE  H17X10945   3.199   3.221   6.304  0.2182 -1.2278  0.7206
  106SAPE  H17Y10946   3.151   3.088   6.395 -1.2277 -1.8116 -1.3233
  106SAPE  C31810947   3.102   3.279   6.484 -0.5592 -0.1765 -0.9205
  106SAPE  H18X10948   3.006   3.264   6.538  0.8882 -1.2362  1.5374
  106SAPE  H18Y10949   3.100   3.383   6.444 -0.7538 -0.3330 -1.3207
  106SAPE  H18Z10950   3.193   3.262   6.545  0.6622  0.5304 -2.4947
  107SAPE     N10951   6.009   1.638   4.144 -0.1566  0.7417  0.5691
  107SAPE   HN110952   5.917   1.623   4.190 -0.6601  0.4467 -0.5027
  107SAPE   HN210953   6.002   1.717   4.077 -0.1917 -1.0086 -1.6055
  107SAPE   HN310954   6.027   1.547   4.097  2.0881  0.3052  2.1111
  107SAPE   C1210955   6.107   1.656   4.258  0.2001  0.3405  0.0747
  107SAPE  H12A10956   6.092   1.569   4.325 -2.1389  0.6413  0.0005
  107SAPE  H12B10957   6.105   1.757   4.304  4.0729  0.6661 -0.0931
  107SAPE   C1110958   6.250   1.649   4.192 -0.2605 -0.6940 -0.8712
  107SAPE  H11A10959   6.312   1.704   4.267 -1.6850  0.4228 -0.4749
  107SAPE  H11B10960   6.267   1.701   4.095  3.0370  0.9938  0.4238
  107SAPE     P10961   6.424   1.466   4.110  0.0665  0.1457 -0.2241
  107SAPE   O1310962   6.399   1.489   3.968 -0.6591  0.0255 -0.2985
  107SAPE   O1410963   6.546   1.531   4.169 -0.3547  0.4263 -0.1473
  107SAPE   O1210964   6.295   1.515   4.186  0.2679  0.1977 -0.2476
  107SAPE   O1110965   6.426   1.313   4.130 -0.1475  0.0773 -0.5777
  107SAPE    C110966   6.324   1.238   4.199 -0.6086 -0.5284  0.2561
  107SAPE    HA10967   6.230   1.298   4.196  0.2292  1.0103  2.3487
  107SAPE    HB10968   6.295   1.155   4.131 -2.6986  1.9857 -2.1777
  107SAPE    C210969   6.367   1.194   4.338 -0.2881 -0.3857 -0.2387
  107SAPE    HS10970   6.285   1.139   4.388 -1.3184  1.2996  0.0199
  107SAPE   O2110971   6.405   1.303   4.421  0.1676  0.5810 -0.2965
  107SAPE   C2110972   6.295   1.372   4.463 -0.0659  0.7641  0.4734
  107SAPE   O2210973   6.182   1.342   4.441 -0.1836  0.9168  0.2911
  107SAPE   C2210974   6.336   1.493   4.544  0.2509  0.0159 -0.6845
  107SAPE   H2R10975   6.412   1.539   4.477  1.0241 -1.0999 -0.5938
  107SAPE   H2S10976   6.245   1.556   4.554  0.1278  0.0039 -1.6563
  107SAPE    C310977   6.487   1.086   4.321  1.0510 -0.1712  0.4907
  107SAPE    HX10978   6.555   1.131   4.246  0.6527  1.0226  0.8375
  107SAPE    HY10979   6.457   0.996   4.262 -1.6914  0.2026  1.1473
  107SAPE   O3110980   6.547   1.057   4.451  0.1601 -0.1356 -0.2604
  107SAPE   C3110981   6.483   0.976   4.526  0.8817 -0.1261 -0.3616
  107SAPE   O3210982   6.383   0.908   4.498 -0.0613 -0.1709  0.1211
  107SAPE   C3210983   6.537   0.979   4.670 -0.2410  0.0008  0.3178
  107SAPE   H2X10984   6.474   1.045   4.733 -0.3113 -0.1791  0.4355
  107SAPE   H2Y10985   6.639   1.024   4.661  0.6822 -1.8465  1.1452
  107SAPE   C2310986   6.409   1.453   4.675  0.4237 -1.0958 -0.5271
  107SAPE   H3R10987   6.460   1.549   4.694 -0.5230 -0.5143 -0.8845
  107SAPE   H3S10988   6.487   1.374   4.663  0.7308 -0.8203 -0.3633
  107SAPE   C2410989   6.306   1.421   4.788 -0.3522 -0.1811  0.1561
  107SAPE   H4R10990   6.365   1.388   4.876  2.0111  0.7482 -0.9868
  107SAPE   H4S10991   6.249   1.334   4.748 -0.4024 -0.3135  0.5187
  107SAPE   C2510992   6.208   1.530   4.826  0.5242  0.1900 -0.8161
  107SAPE   H5R10993   6.172   1.598   4.747  0.0047  2.0638  0.9424
  107SAPE   C2610994   6.166   1.551   4.949 -0.1384  0.0948  0.0834
  107SAPE   H6R10995   6.080   1.618   4.961  1.0704  1.3680  2.0144
  107SAPE   C2710996   6.202   1.481   5.076 -0.0054  0.4091 -0.4164
  107SAPE   H7R10997   6.308   1.449   5.086 -0.8180 -2.0673  1.3468
  107SAPE   H7S10998   6.156   1.380   5.083  1.2835 -0.2397 -0.9188
  107SAPE   C2810999   6.154   1.559   5.188  1.0194 -0.2325 -0.0249
  107SAPE   H8R11000   6.203   1.654   5.214  0.0580  0.3876 -0.4430
  107SAPE   C2911001   6.045   1.537   5.271 -0.2745  0.1532  0.5289
  107SAPE   H9R11002   6.016   1.614   5.344 -0.8271  1.7154 -1.2315
  107SAPE  C21011003   5.972   1.411   5.279  0.1825 -0.5899 -0.4380
  107SAPE  H10R11004   6.033   1.330   5.324 -1.1585 -0.5798  1.4720
  107SAPE  H10S11005   5.953   1.363   5.180  0.3423 -0.6442 -0.4429
  107SAPE  C21111006   5.848   1.411   5.370 -0.0766  0.1058  0.2526
  107SAPE  H11R11007   5.782   1.498   5.365 -1.7215 -1.0741  0.5805
  107SAPE  C21211008   5.800   1.317   5.455 -0.1601 -0.0796 -0.1085
  107SAPE  H12R11009   5.703   1.329   5.505 -0.0820 -0.5334  0.1599
  107SAPE  C21311010   5.845   1.175   5.475  0.4424 -0.6018 -0.2947
  107SAPE  H13R11011   5.853   1.145   5.581  0.3531 -2.2033 -0.7121
  107SAPE  H13S11012   5.956   1.164   5.467  0.2961 -1.7492 -0.9983
  107SAPE  C21411013   5.791   1.076   5.375  0.5683 -0.8250  0.5836
  107SAPE  H14R11014   5.794   1.102   5.269  2.7710  1.0928  1.0410
  107SAPE  C21511015   5.740   0.954   5.399 -0.0389  0.4664 -0.2607
  107SAPE  H15R11016   5.729   0.889   5.311 -2.7240 -0.4672  0.6672
  107SAPE  C21611017   5.739   0.894   5.540 -0.3990 -0.0776  0.2554
  107SAPE  H16R11018   5.763   0.958   5.627  1.6020 -0.8026  0.2769
  107SAPE  H16S11019   5.816   0.815   5.544  1.2284  1.4870  0.8777
  107SAPE  C21711020   5.593   0.838   5.562  0.1948  0.3378 -0.2615
  107SAPE  H17R11021   5.603   0.780   5.656  0.1839 -0.4530 -0.7360
  107SAPE  H17S11022   5.565   0.768   5.481 -0.0944  1.0233 -0.7622
  107SAPE  C21811023   5.499   0.957   5.584  0.4922  0.4259 -0.1289
  107SAPE  H18R11024   5.482   1.014   5.490  1.5499 -0.7862 -1.1025
  107SAPE  H18S11025   5.548   1.011   5.667 -0.8556 -1.3245  1.9244
  107SAPE  C21911026   5.363   0.926   5.640 -0.8142  0.1278 -0.2086
  107SAPE  H19R11027   5.297   0.890   5.557 -0.6481  0.5840 -0.5434
  107SAPE  H19S11028   5.312   1.024   5.643  1.6374  1.4707 -0.0001
  107SAPE  C22011029   5.339   0.846   5.761  0.5239 -0.4703 -1.2851
  107SAPE  H20R11030   5.388   0.900   5.845 -0.4816 -0.0220 -0.9781
  107SAPE  H20S11031   5.375   0.741   5.752  3.0737 -0.3663  4.0057
  107SAPE  H20T11032   5.229   0.844   5.772  0.6320  0.7037  0.4304
  107SAPE   C3311033   6.556   0.840   4.731  0.3161 -0.6238  0.5963
  107SAPE   H3X11034   6.648   0.790   4.694 -0.4522 -1.1430 -0.6955
  107SAPE   H3Y11035   6.462   0.784   4.710  0.1284 -0.2635  0.4585
  107SAPE   C3411036   6.558   0.846   4.883  0.3071 -0.4088 -0.4485
  107SAPE   H4X11037   6.560   0.744   4.928 -0.2789 -0.1819  0.0949
  107SAPE   H4Y11038   6.464   0.888   4.924 -1.0302 -0.9592 -2.7898
  107SAPE   C3511039   6.678   0.921   4.949  0.1006  0.2862  0.0565
  107SAPE   H5X11040   6.645   1.024   4.975  0.6864  1.3224 -2.8614
  107SAPE   H5Y11041   6.767   0.926   4.883  0.3196 -0.0021  0.3264
  107SAPE   C3611042   6.710   0.844   5.075 -0.3203 -0.1652  0.4042
  107SAPE   H6X11043   6.775   0.757   5.054  3.5740  2.8270 -1.1809
  107SAPE   H6Y11044   6.616   0.819   5.130 -2.0913 -0.2363 -2.4600
  107SAPE   C3711045   6.785   0.933   5.168  0.1226  0.0334 -1.1114
  107SAPE   H7X11046   6.739   1.035   5.172  1.2323  0.5181  2.2121
  107SAPE   H7Y11047   6.889   0.966   5.144 -0.0912  0.0893 -2.0099
  107SAPE   C3811048   6.770   0.886   5.319  0.1014 -0.2302  0.0077
  107SAPE   H8X11049   6.785   0.777   5.332  1.4313 -0.1934 -0.9274
  107SAPE   H8Y11050   6.666   0.899   5.354 -0.1029 -1.7809  0.0407
  107SAPE   C3911051   6.862   0.969   5.408  0.0054  0.1265 -0.1786
  107SAPE   H9X11052   6.839   1.077   5.392  2.6714  0.6163 -1.3747
  107SAPE   H9Y11053   6.969   0.965   5.376  0.8586  2.8351  1.9635
  107SAPE  C31011054   6.849   0.933   5.553  0.2704 -0.2640 -1.0783
  107SAPE  H10X11055   6.940   0.969   5.607  1.4524 -2.0217 -1.8224
  107SAPE  H10Y11056   6.846   0.822   5.558  0.1910 -0.2041  1.2026
  107SAPE  C31111057   6.716   0.980   5.614  0.0761 -0.8744 -0.4635
  107SAPE  H11X11058   6.629   0.963   5.548  0.3358 -2.0029 -0.5292
  107SAPE  H11Y11059   6.727   1.090   5.627  0.0295 -0.8376 -0.7295
  107SAPE  C31211060   6.679   0.924   5.742 -0.4173 -0.9459 -0.7595
  107SAPE  H12X11061   6.763   0.935   5.814 -1.2596  3.3592 -0.1540
  107SAPE  H12Y11062   6.662   0.816   5.723 -1.3988 -1.0377  0.5320
  107SAPE  C31311063   6.549   0.985   5.798 -0.4053 -0.1855  0.2788
  107SAPE  H13X11064   6.543   1.095   5.811  0.6634 -0.2048  1.2223
  107SAPE  H13Y11065   6.534   0.957   5.905  0.2388  1.8096  0.9398
  107SAPE  C31411066   6.417   0.949   5.724 -0.3031 -0.9223  0.1866
  107SAPE  H14X11067   6.416   0.839   5.709  1.4642 -0.6193 -3.0833
  107SAPE  H14Y11068   6.414   1.001   5.626 -0.8448 -1.7436 -0.2472
  107SAPE  C31511069   6.295   1.001   5.813 -1.1845 -0.0284  0.6514
  107SAPE  H15X11070   6.291   1.112   5.811 -1.6675 -0.0550 -0.4314
  107SAPE  H15Y11071   6.321   0.959   5.913 -1.6533 -2.6600 -0.2448
  107SAPE  C31611072   6.170   0.937   5.763  1.2298  0.0704 -0.3369
  107SAPE  H16X11073   6.184   0.827   5.746  0.9229  0.1174 -0.9343
  107SAPE  H16Y11074   6.139   0.976   5.663 -1.4296 -3.7384 -1.2795
  107SAPE  C31711075   6.047   0.955   5.861 -0.1589 -0.0235  0.6763
  107SAPE  H17X11076   6.063   0.899   5.956 -1.3627 -1.1388  0.2572
  107SAPE  H17Y11077   5.959   0.909   5.811 -0.9884 -0.0486  2.1046
  107SAPE  C31811078   6.025   1.096   5.901 -0.3966 -0.2712 -0.2418
  107SAPE  H18X11079   6.102   1.114   5.979 -0.5230 -0.9461  0.0482
  107SAPE  H18Y11080   5.928   1.106   5.955  0.4089 -2.5012  1.7898
  107SAPE  H18Z11081   6.029   1.176   5.824 -0.2688  0.7945  0.8506
  108SAPE     N11082   6.148   0.927   4.023  0.7747  0.4996 -0.4171
  108SAPE   HN111083   6.129   1.026   3.998  0.1830  0.4650 -0.1343
  108SAPE   HN211084   6.197   0.929   4.115  1.9587  1.0014 -1.0389
  108SAPE   HN311085   6.228   0.900   3.962  1.1964 -0.4050  0.4944
  108SAPE   C1211086   6.029   0.832   4.008  0.4930 -0.2722 -0.8595
  108SAPE  H12A11087   5.991   0.860   3.907 -0.2665 -0.9375 -0.7694
  108SAPE  H12B11088   5.954   0.866   4.083  1.5318 -0.2675  0.2065
  108SAPE   C1111089   6.066   0.689   4.005  0.0095 -0.1525 -0.1548
  108SAPE  H11A11090   5.973   0.632   3.983  2.4482 -4.2565 -0.9484
  108SAPE  H11B11091   6.099   0.661   4.107 -0.5360 -0.9134 -0.1776
  108SAPE     P11092   6.169   0.548   3.807  0.1275 -0.1803  0.0605
  108SAPE   O1311093   6.074   0.574   3.691 -0.0850  0.1121 -0.4646
  108SAPE   O1411094   6.309   0.517   3.766  0.1852  0.0780  0.6872
  108SAPE   O1211095   6.172   0.667   3.909  0.0087  0.8300 -0.6295
  108SAPE   O1111096   6.116   0.415   3.883 -0.3405 -0.2100 -0.2631
  108SAPE    C111097   6.199   0.354   3.978  0.0027  0.1761 -0.3283
  108SAPE    HA11098   6.298   0.318   3.941  0.2691  0.6518 -0.0964
  108SAPE    HB11099   6.231   0.423   4.059  1.2077 -0.6783 -0.0349
  108SAPE    C211100   6.124   0.245   4.052  0.3348  0.4330  0.1705
  108SAPE    HS11101   6.092   0.172   3.974  0.4806  1.2878 -0.7091
  108SAPE   O2111102   6.004   0.299   4.108  0.2013  0.0566  0.1624
  108SAPE   C2111103   5.918   0.210   4.150 -0.4464  0.4098  0.3309
  108SAPE   O2211104   5.916   0.089   4.129  0.1325 -0.2013 -0.1539
  108SAPE   C2211105   5.814   0.285   4.240  0.4550  0.0889 -0.1715
  108SAPE   H2R11106   5.712   0.259   4.207  0.6788 -0.0824 -0.7390
  108SAPE   H2S11107   5.825   0.247   4.344  0.0666 -1.7668 -0.7823
  108SAPE    C311108   6.211   0.164   4.154 -0.5531  0.2458 -0.7275
  108SAPE    HX11109   6.289   0.108   4.098  0.5314 -1.1571  1.9603
  108SAPE    HY11110   6.152   0.082   4.200  0.9374 -0.2884  0.3319
  108SAPE   O3111111   6.284   0.245   4.246  0.0373  0.4058  0.0061
  108SAPE   C3111112   6.221   0.285   4.360 -0.3304 -0.6328  0.9105
  108SAPE   O3211113   6.105   0.258   4.382  0.9993  0.3450 -0.2503
  108SAPE   C3211114   6.321   0.381   4.438  0.6491  0.1829 -0.3794
  108SAPE   H2X11115   6.279   0.481   4.414 -0.4069 -0.1863 -0.1300
  108SAPE   H2Y11116   6.420   0.367   4.390  0.3719 -0.1675 -0.8616
  108SAPE   C2311117   5.813   0.442   4.244  0.0655  0.1425 -0.2768
  108SAPE   H3R11118   5.753   0.474   4.157  1.9037  1.3552 -1.1673
  108SAPE   H3S11119   5.914   0.482   4.219  0.8563 -1.2713  0.5152
  108SAPE   C2411120   5.783   0.513   4.380 -0.0705 -1.1964  0.8311
  108SAPE   H4R11121   5.693   0.459   4.417  0.1431 -2.8384 -0.8524
  108SAPE   H4S11122   5.760   0.621   4.370  0.0447 -1.0258  2.2621
  108SAPE   C2511123   5.892   0.479   4.480 -0.4980  0.0310 -0.0391
  108SAPE   H5R11124   5.917   0.372   4.487 -0.3031  0.1420  1.1864
  108SAPE   C2611125   5.949   0.568   4.566 -0.2081  0.2949  1.0795
  108SAPE   H6R11126   6.030   0.538   4.634  0.7173 -0.5191 -0.3353
  108SAPE   C2711127   5.930   0.710   4.564  0.1673 -0.1212 -0.0895
  108SAPE   H7R11128   5.846   0.743   4.629 -3.2341 -2.9126 -2.5940
  108SAPE   H7S11129   5.896   0.752   4.466  0.4414  3.1710  1.0986
  108SAPE   C2811130   6.049   0.799   4.583 -0.1857 -1.1880  0.4266
  108SAPE   H8R11131   6.133   0.787   4.514 -1.4699 -0.0439 -1.4091
  108SAPE   C2911132   6.066   0.875   4.701  0.3241  0.4371  0.2381
  108SAPE   H9R11133   6.163   0.918   4.727 -0.7347  1.7956  2.2656
  108SAPE  C21011134   5.958   0.890   4.816  0.0711  0.4113 -0.3048
  108SAPE  H10R11135   5.853   0.877   4.783  0.7120 -2.6277 -1.4672
  108SAPE  H10S11136   5.972   0.986   4.870 -1.6632  1.2415 -1.2511
  108SAPE  C21111137   5.978   0.787   4.924 -0.0065  0.2018  0.6723
  108SAPE  H11R11138   5.936   0.689   4.900 -0.2442  0.2050  1.0561
  108SAPE  C21211139   6.030   0.803   5.045 -0.0680  0.5704 -0.5901
  108SAPE  H12R11140   6.033   0.709   5.102 -1.1705 -0.5885 -2.3442
  108SAPE  C21311141   6.104   0.910   5.115 -0.2059  0.0459  0.3494
  108SAPE  H13R11142   6.063   1.008   5.082 -0.7068 -0.1748  0.3153
  108SAPE  H13S11143   6.212   0.911   5.089 -0.0732  0.3013  0.9023
  108SAPE  C21411144   6.082   0.894   5.264  0.3124 -0.2054 -0.3010
  108SAPE  H14R11145   5.977   0.877   5.292  0.4316 -0.0327  0.2516
  108SAPE  C21511146   6.178   0.910   5.355 -0.4810 -0.2960 -0.2191
  108SAPE  H15R11147   6.157   0.890   5.461 -1.7907  0.4999 -0.3051
  108SAPE  C21611148   6.318   0.943   5.332 -0.2757  0.1592  0.4796
  108SAPE  H16R11149   6.355   0.924   5.229  2.6699 -1.4280  1.7049
  108SAPE  H16S11150   6.383   0.879   5.395  1.1960 -0.6635 -1.7524
  108SAPE  C21711151   6.349   1.086   5.364  0.3918  0.6133 -0.0602
  108SAPE  H17R11152   6.319   1.106   5.470 -0.0386 -3.4651  0.7330
  108SAPE  H17S11153   6.275   1.156   5.318  0.6263  1.2344  0.4743
  108SAPE  C21811154   6.491   1.139   5.325 -0.7383  0.5174 -0.2966
  108SAPE  H18R11155   6.526   1.084   5.235  1.6914 -0.9482  1.4454
  108SAPE  H18S11156   6.559   1.100   5.404 -0.0384 -0.8772 -1.5399
  108SAPE  C21911157   6.485   1.294   5.308 -0.4536 -0.0372  0.0571
  108SAPE  H19R11158   6.450   1.344   5.401  1.6143 -0.1069  0.9200
  108SAPE  H19S11159   6.431   1.326   5.216  0.6247  0.8346 -0.2857
  108SAPE  C22011160   6.626   1.346   5.275 -0.2569  0.4520  0.3583
  108SAPE  H20R11161   6.663   1.297   5.182 -2.6158  1.5227 -1.2625
  108SAPE  H20S11162   6.699   1.327   5.356  0.9105 -1.4108 -1.0468
  108SAPE  H20T11163   6.626   1.456   5.264  1.0851  0.3671 -0.8338
  108SAPE   C3311164   6.323   0.356   4.593 -0.1178  0.7293  0.4504
  108SAPE   H3X11165   6.363   0.254   4.612 -1.4983  0.2270  0.8308
  108SAPE   H3Y11166   6.221   0.348   4.637 -0.3630 -3.5429 -0.4191
  108SAPE   C3411167   6.398   0.466   4.656 -0.1600 -0.0824 -1.1131
  108SAPE   H4X11168   6.361   0.567   4.631  1.4295  0.6108 -0.7626
  108SAPE   H4Y11169   6.506   0.456   4.632 -0.0130 -0.2712 -0.4187
  108SAPE   C3511170   6.407   0.452   4.810  0.5332  0.6478 -0.3673
  108SAPE   H5X11171   6.413   0.345   4.839  0.6754 -0.1644 -3.1229
  108SAPE   H5Y11172   6.490   0.509   4.857 -0.0477  0.9238  0.3422
  108SAPE   C3611173   6.274   0.514   4.865  0.0887  0.2441 -0.1129
  108SAPE   H6X11174   6.189   0.476   4.806 -0.8389 -0.2302  1.4731
  108SAPE   H6Y11175   6.274   0.624   4.852  2.3801  0.1199 -1.6800
  108SAPE   C3711176   6.252   0.476   5.015 -0.3962 -0.1883  0.0649
  108SAPE   H7X11177   6.242   0.368   5.038  3.6096 -0.7799 -0.2302
  108SAPE   H7Y11178   6.160   0.531   5.047  1.3218  2.4383  0.8326
  108SAPE   C3811179   6.367   0.522   5.106  0.7549 -0.5467 -0.6062
  108SAPE   H8X11180   6.414   0.616   5.069 -1.5132  1.8153  2.0299
  108SAPE   H8Y11181   6.441   0.441   5.092  0.7390 -0.8293  0.8247
  108SAPE   C3911182   6.312   0.541   5.252 -0.4144 -0.3158 -0.0771
  108SAPE   H9X11183   6.247   0.455   5.277 -0.0876 -0.2908  0.8708
  108SAPE   H9Y11184   6.249   0.632   5.261 -1.5076 -1.1633  1.0722
  108SAPE  C31011185   6.433   0.563   5.352  0.5635  0.5320  0.2847
  108SAPE  H10X11186   6.499   0.646   5.320 -0.5622  1.9609  1.4802
  108SAPE  H10Y11187   6.494   0.471   5.353  2.1004  1.4795 -1.3684
  108SAPE  C31111188   6.372   0.579   5.493  0.6539  0.2782  0.7290
  108SAPE  H11X11189   6.288   0.507   5.489  0.7265  0.2429 -0.4321
  108SAPE  H11Y11190   6.320   0.677   5.489  1.1308  0.5495 -3.3662
  108SAPE  C31211191   6.469   0.560   5.613  0.0474 -0.0057 -0.4741
  108SAPE  H12X11192   6.540   0.644   5.623 -1.1435  0.7697  2.9907
  108SAPE  H12Y11193   6.528   0.466   5.607 -0.1749 -0.2720  1.0044
  108SAPE  C31311194   6.396   0.554   5.747 -0.1120  0.2406 -1.0227
  108SAPE  H13X11195   6.329   0.466   5.753 -0.2833  0.4288 -0.0852
  108SAPE  H13Y11196   6.323   0.637   5.760  0.2155  0.2785  0.7748
  108SAPE  C31411197   6.495   0.566   5.864  0.0201  0.2325 -0.0098
  108SAPE  H14X11198   6.535   0.670   5.868 -0.0121  0.3049 -1.2964
  108SAPE  H14Y11199   6.584   0.502   5.849  1.3449  2.1163 -0.6215
  108SAPE  C31511200   6.415   0.526   5.992  0.3087 -0.5814 -1.0479
  108SAPE  H15X11201   6.390   0.418   5.987 -1.8513 -0.2459  0.7802
  108SAPE  H15Y11202   6.325   0.587   6.012  0.9234 -0.6969  2.9777
  108SAPE  C31611203   6.491   0.549   6.123 -0.1101 -0.5201  0.1883
  108SAPE  H16X11204   6.572   0.472   6.132 -1.1789 -1.5769  1.1064
  108SAPE  H16Y11205   6.433   0.529   6.216  0.1699  0.0169  0.4822
  108SAPE  C31711206   6.544   0.694   6.141 -0.2999 -0.4092  0.2826
  108SAPE  H17X11207   6.620   0.723   6.066 -0.8498 -0.5363 -0.3246
  108SAPE  H17Y11208   6.604   0.687   6.235  1.3364 -3.1441 -0.8231
  108SAPE  C31811209   6.439   0.807   6.136  0.0590 -1.0539  0.2867
  108SAPE  H18X11210   6.362   0.787   6.214 -1.5282 -0.8326 -1.1808
  108SAPE  H18Y11211   6.382   0.811   6.041 -1.4421  1.3746  1.1954
  108SAPE  H18Z11212   6.492   0.903   6.152 -0.6731  0.1747 -3.6603
  109SAPE     N11213   0.839   0.991   3.591 -0.2534  0.6159  0.3167
  109SAPE   HN111214   0.847   1.038   3.499  0.9624  0.2628  0.2326
  109SAPE   HN211215   0.736   0.982   3.606 -0.3675 -1.6655 -1.3284
  109SAPE   HN311216   0.866   1.061   3.664 -1.1285  0.7431  0.5335
  109SAPE   C1211217   0.918   0.858   3.592 -0.0521  0.2204  0.2339
  109SAPE  H12A11218   1.026   0.882   3.583 -0.2288  0.9481 -0.0218
  109SAPE  H12B11219   0.900   0.810   3.493 -0.6580 -0.6441  0.7462
  109SAPE   C1111220   0.873   0.753   3.684 -0.7540  0.1326 -0.0619
  109SAPE  H11A11221   0.873   0.786   3.790 -0.7877 -1.5093  0.4727
  109SAPE  H11B11222   0.957   0.681   3.684  0.9010  1.9821  0.1752
  109SAPE     P11223   0.610   0.754   3.688  0.1537 -0.3084  0.8707
  109SAPE   O1311224   0.571   0.818   3.560 -0.0916  0.0821 -0.1535
  109SAPE   O1411225   0.521   0.648   3.741  0.9311 -0.6229  0.3193
  109SAPE   O1211226   0.751   0.687   3.652 -0.5670  0.6605  0.1536
  109SAPE   O1111227   0.649   0.873   3.791  0.3447 -0.2118  0.0247
  109SAPE    C111228   0.551   0.943   3.868  0.3449  0.1748 -0.4222
  109SAPE    HA11229   0.522   1.029   3.804 -0.3892 -1.9868 -3.1898
  109SAPE    HB11230   0.457   0.887   3.885  0.0201  1.2532  1.7642
  109SAPE    C211231   0.613   0.997   3.999  0.3157 -0.7245 -0.2552
  109SAPE    HS11232   0.686   1.075   3.972  0.0952 -0.7771 -1.0487
  109SAPE   O2111233   0.676   0.890   4.068 -0.1900 -0.3273  1.0361
  109SAPE   C2111234   0.812   0.878   4.043  0.7747  0.6145  0.5273
  109SAPE   O2211235   0.883   0.961   3.994  0.4928  0.5735  0.5336
  109SAPE   C2211236   0.865   0.739   4.098  0.0967 -0.2918 -0.2692
  109SAPE   H2R11237   0.831   0.659   4.028 -2.1923  0.2861  0.0953
  109SAPE   H2S11238   0.976   0.738   4.096  0.1249 -1.4505  0.7369
  109SAPE    C311239   0.504   1.063   4.087  0.6739  0.5013 -0.7113
  109SAPE    HX11240   0.453   1.121   4.008 -2.6818 -0.2849  0.7065
  109SAPE    HY11241   0.539   1.138   4.161  3.7611  0.4972 -1.9916
  109SAPE   O3111242   0.414   0.965   4.149  0.4813 -0.5835  0.3009
  109SAPE   C3111243   0.282   0.982   4.139 -0.2642 -0.2843  0.1122
  109SAPE   O3211244   0.227   1.067   4.072 -0.1670 -0.0935  0.0111
  109SAPE   C3211245   0.216   0.865   4.208 -0.4309  0.6166 -0.2720
  109SAPE   H2X11246   0.296   0.790   4.225  0.7106  2.0193  0.8448
  109SAPE   H2Y11247   0.137   0.829   4.139 -1.4563  2.2899 -0.0252
  109SAPE   C2311248   0.811   0.704   4.234 -0.0270  0.2962 -0.0189
  109SAPE   H3R11249   0.845   0.601   4.256 -0.9612  0.2706  1.3931
  109SAPE   H3S11250   0.700   0.710   4.226 -0.2392 -0.6838  1.8786
  109SAPE   C2411251   0.867   0.790   4.352 -0.1281 -0.4885 -0.3249
  109SAPE   H4R11252   0.826   0.890   4.326 -0.9881 -0.9983 -1.0007
  109SAPE   H4S11253   0.978   0.796   4.340 -0.0275  1.2420  1.0257
  109SAPE   C2511254   0.815   0.736   4.485  0.3558  0.7135 -0.3865
  109SAPE   H5R11255   0.709   0.707   4.481  0.0738  1.7827 -1.0123
  109SAPE   C2611256   0.874   0.747   4.604 -0.0553  0.5463 -0.2143
  109SAPE   H6R11257   0.837   0.711   4.701  2.2205 -2.0125 -0.1682
  109SAPE   C2711258   1.020   0.792   4.630  0.9368 -0.4322  0.6592
  109SAPE   H7R11259   1.076   0.799   4.534  0.2927 -2.2095  0.1261
  109SAPE   H7S11260   1.072   0.710   4.684  4.0613 -0.3647 -1.8956
  109SAPE   C2811261   1.029   0.922   4.714  1.3245  0.2144 -0.1421
  109SAPE   H8R11262   0.935   0.968   4.746  1.4413 -0.1820  0.8203
  109SAPE   C2911263   1.144   0.988   4.735  0.2845  0.3088  0.0779
  109SAPE   H9R11264   1.129   1.080   4.793 -1.3677 -1.2949  2.3479
  109SAPE  C21011265   1.287   0.950   4.704 -0.2120  0.0738  0.0772
  109SAPE  H10R11266   1.289   0.863   4.635 -0.2229  0.5060 -0.4704
  109SAPE  H10S11267   1.342   0.906   4.790 -1.0445  0.3459  0.7656
  109SAPE  C21111268   1.375   1.061   4.652  0.0183  0.3041  0.2934
  109SAPE  H11R11269   1.343   1.097   4.553  1.5704 -0.0660 -0.3752
  109SAPE  C21211270   1.478   1.126   4.715  0.4332 -0.1586  0.0160
  109SAPE  H12R11271   1.532   1.204   4.659  0.9036  2.0155  3.2378
  109SAPE  C21311272   1.550   1.088   4.852  0.5143  0.0989 -0.1053
  109SAPE  H13R11273   1.475   1.061   4.929 -1.5916  0.7868 -1.8062
  109SAPE  H13S11274   1.594   1.180   4.897  0.9352 -0.1914  0.0774
  109SAPE  C21411275   1.639   0.974   4.825 -0.3488 -0.2465  0.3385
  109SAPE  H14R11276   1.668   0.957   4.720 -3.2410 -1.3818 -0.3784
  109SAPE  C21511277   1.677   0.880   4.909 -0.7837 -0.1425 -0.1566
  109SAPE  H15R11278   1.743   0.802   4.869 -1.6783 -1.8071  1.4560
  109SAPE  C21611279   1.640   0.849   5.048 -0.4888 -1.0519  0.3485
  109SAPE  H16R11280   1.629   0.740   5.060  0.3796 -1.3912 -1.5202
  109SAPE  H16S11281   1.548   0.902   5.081 -0.3623  1.1022 -2.3718
  109SAPE  C21711282   1.742   0.899   5.149 -0.1406 -1.2584 -0.1741
  109SAPE  H17R11283   1.758   1.006   5.124  1.4962 -1.5129 -0.3172
  109SAPE  H17S11284   1.834   0.838   5.139 -1.2235 -2.8521 -0.6693
  109SAPE  C21811285   1.688   0.883   5.295  0.1893  0.3396  0.3446
  109SAPE  H18R11286   1.600   0.947   5.320  0.1205  0.0998  0.7225
  109SAPE  H18S11287   1.773   0.914   5.359  2.6419 -0.7959 -2.1524
  109SAPE  C21911288   1.632   0.749   5.338 -0.1077  0.3686  0.4360
  109SAPE  H19R11289   1.713   0.674   5.321 -0.5448  0.0981 -0.5010
  109SAPE  H19S11290   1.543   0.731   5.274  1.2833 -1.0283 -1.2078
  109SAPE  C22011291   1.592   0.746   5.480 -0.1201  0.9933  0.2908
  109SAPE  H20R11292   1.675   0.788   5.540 -0.5867  1.5893  0.5288
  109SAPE  H20S11293   1.581   0.641   5.514  1.7128  0.3515 -0.9345
  109SAPE  H20T11294   1.503   0.810   5.499 -2.1923 -0.1616 -4.1381
  109SAPE   C3311295   0.139   0.905   4.330  0.3216  0.1633 -0.5422
  109SAPE   H3X11296   0.071   0.828   4.371 -0.7216  1.6618  0.6686
  109SAPE   H3Y11297   0.062   0.978   4.298  0.3748 -0.0883 -1.2618
  109SAPE   C3411298   0.212   0.983   4.435 -0.4062 -0.3096 -0.3080
  109SAPE   H4X11299   0.148   0.987   4.526  1.2236 -0.7822  0.8994
  109SAPE   H4Y11300   0.230   1.087   4.402  0.0072  0.0030  0.8699
  109SAPE   C3511301   0.348   0.917   4.484  0.7806 -0.2093  0.5375
  109SAPE   H5X11302   0.410   0.895   4.395 -1.2405  1.2624 -1.3507
  109SAPE   H5Y11303   0.303   0.827   4.531  1.7455  0.2375  2.4260
  109SAPE   C3611304   0.437   0.991   4.585 -0.0495  0.3071  0.4145
  109SAPE   H6X11305   0.365   1.052   4.644  0.1773 -1.0496  2.1885
  109SAPE   H6Y11306   0.497   1.067   4.530  1.3346 -0.6631  0.5435
  109SAPE   C3711307   0.524   0.890   4.668  0.4015  0.3545 -0.2322
  109SAPE   H7X11308   0.583   0.822   4.603  2.5730  1.4789  0.4646
  109SAPE   H7Y11309   0.445   0.828   4.716  0.1534  1.1671  0.4543
  109SAPE   C3811310   0.616   0.952   4.770 -0.2829  0.3727 -0.0103
  109SAPE   H8X11311   0.660   1.048   4.735 -1.7128  0.6648 -1.1268
  109SAPE   H8Y11312   0.691   0.874   4.791  0.1996  0.7003 -0.5034
  109SAPE   C3911313   0.550   1.011   4.898  0.0228  0.2454 -0.3669
  109SAPE   H9X11314   0.519   0.928   4.966  1.0934 -1.7402 -2.1701
  109SAPE   H9Y11315   0.469   1.082   4.869  0.3992 -0.0046 -2.1279
  109SAPE  C31011316   0.662   1.078   4.990  0.9482 -0.0120 -0.3814
  109SAPE  H10X11317   0.702   1.171   4.944 -0.5349  2.4058  2.8201
  109SAPE  H10Y11318   0.748   1.008   4.991  1.1021 -0.0041 -3.5336
  109SAPE  C31111319   0.614   1.123   5.127  0.2479  0.4023  0.0355
  109SAPE  H11X11320   0.580   1.032   5.180 -0.7397  2.0790  2.4744
  109SAPE  H11Y11321   0.523   1.185   5.113 -0.3493 -0.4859 -0.0750
  109SAPE  C31211322   0.719   1.206   5.200  0.4534 -0.9513  0.0513
  109SAPE  H12X11323   0.720   1.311   5.165  2.0517 -0.6271  0.9902
  109SAPE  H12Y11324   0.822   1.170   5.183  0.8203 -1.2953  2.5966
  109SAPE  C31311325   0.691   1.230   5.345  0.7911 -0.2734 -0.0673
  109SAPE  H13X11326   0.666   1.135   5.395 -0.5879 -0.2726 -0.7146
  109SAPE  H13Y11327   0.614   1.310   5.352  2.2776  1.2736 -0.7199
  109SAPE  C31411328   0.819   1.288   5.408 -0.1442  0.6963  0.3395
  109SAPE  H14X11329   0.783   1.356   5.488 -1.1986 -0.8437  1.2143
  109SAPE  H14Y11330   0.866   1.365   5.343 -0.8325  0.2682 -0.7033
  109SAPE  C31511331   0.911   1.181   5.471 -0.4628  0.8086  0.4381
  109SAPE  H15X11332   0.939   1.107   5.393 -0.6118  2.6809 -1.5101
  109SAPE  H15Y11333   0.854   1.125   5.547  1.0901  0.3545  1.3201
  109SAPE  C31611334   1.036   1.244   5.527 -0.4988 -0.1438  0.3201
  109SAPE  H16X11335   1.009   1.342   5.572 -1.9900 -0.1692 -0.4483
  109SAPE  H16Y11336   1.092   1.275   5.437 -1.4018  1.3794  0.2460
  109SAPE  C31711337   1.116   1.153   5.623 -0.5824  0.4040 -0.4424
  109SAPE  H17X11338   1.053   1.099   5.697  1.3952 -0.7942  0.4537
  109SAPE  H17Y11339   1.190   1.209   5.684 -0.1957 -0.9153  0.3347
  109SAPE  C31811340   1.194   1.044   5.543 -0.3538  0.1209  0.5664
  109SAPE  H18X11341   1.271   0.992   5.604  1.5026  1.4379 -0.5540
  109SAPE  H18Y11342   1.231   1.091   5.450  2.2465  1.1798  2.0322
  109SAPE  H18Z11343   1.118   0.971   5.509 -0.2293  1.3768 -2.8193
  110SAPE     N11344   0.631   2.719   3.884 -0.4566 -0.1239 -0.3449
  110SAPE   HN111345   0.613   2.820   3.868  1.1495  0.6948  2.2933
  110SAPE   HN211346   0.685   2.726   3.973  0.0626  0.2583 -0.6871
  110SAPE   HN311347   0.689   2.680   3.807 -1.3845  0.4823 -1.3641
  110SAPE   C1211348   0.512   2.630   3.887  0.2612  0.6329 -0.1400
  110SAPE  H12A11349   0.472   2.649   3.785 -1.0006 -0.3111  0.1422
  110SAPE  H12B11350   0.442   2.677   3.959  0.7664  0.1089  0.7121
  110SAPE   C1111351   0.543   2.483   3.914 -0.1911 -0.5943 -0.1459
  110SAPE  H11A11352   0.449   2.423   3.919 -0.6500  0.1831  0.7868
  110SAPE  H11B11353   0.598   2.478   4.010  0.4152 -0.2159 -0.4662
  110SAPE     P11354   0.662   2.287   3.802 -0.0760 -0.2750 -0.0550
  110SAPE   O1311355   0.541   2.210   3.767  0.1057 -0.0256 -0.0698
  110SAPE   O1411356   0.776   2.275   3.713  0.0720  0.1162 -0.0615
  110SAPE   O1211357   0.625   2.438   3.809 -0.6994  1.1474 -0.2751
  110SAPE   O1111358   0.706   2.253   3.952  0.0837 -0.0190  0.1894
  110SAPE    C111359   0.629   2.165   4.037  0.8179 -0.7376 -0.6569
  110SAPE    HA11360   0.520   2.188   4.039  0.5098 -1.7855  3.4518
  110SAPE    HB11361   0.627   2.062   3.995 -1.1380 -1.8203  1.8361
  110SAPE    C211362   0.678   2.161   4.186  0.8121  0.5458 -0.5504
  110SAPE    HS11363   0.770   2.099   4.181  1.6669  1.7926 -0.6701
  110SAPE   O2111364   0.574   2.105   4.273 -0.0895  0.3583  0.7307
  110SAPE   C2111365   0.569   1.972   4.269  0.3712  0.6653  0.3381
  110SAPE   O2211366   0.659   1.897   4.227  0.0298  0.0374 -0.1365
  110SAPE   C2211367   0.454   1.926   4.352 -0.3939  0.5041  0.5326
  110SAPE   H2R11368   0.495   1.867   4.436  0.9666  0.3172 -0.2383
  110SAPE   H2S11369   0.407   2.018   4.394  0.5684  0.8997  0.7701
  110SAPE    C311370   0.733   2.297   4.251 -0.3934 -0.3942 -0.5621
  110SAPE    HX11371   0.810   2.334   4.181  0.2687 -0.5365  0.0726
  110SAPE    HY11372   0.645   2.363   4.258 -0.6361 -0.7536 -0.1498
  110SAPE   O3111373   0.798   2.271   4.374 -0.4518 -0.0953  0.2726
  110SAPE   C3111374   0.719   2.264   4.480  0.5301  0.5094 -0.2264
  110SAPE   O3211375   0.603   2.310   4.487 -0.3823  0.4417  0.2840
  110SAPE   C3211376   0.788   2.193   4.594 -1.1649 -0.2343  0.5431
  110SAPE   H2X11377   0.881   2.252   4.609  0.8294 -1.5756 -4.5465
  110SAPE   H2Y11378   0.810   2.094   4.549  1.0360  0.6795 -0.5489
  110SAPE   C2311379   0.364   1.826   4.277  0.6589  0.0608 -0.2792
  110SAPE   H3R11380   0.415   1.730   4.257 -0.9464 -0.6407 -1.2267
  110SAPE   H3S11381   0.332   1.875   4.182 -0.8248 -0.7895 -0.2465
  110SAPE   C2411382   0.238   1.809   4.363  0.2476  0.0099  0.2426
  110SAPE   H4R11383   0.157   1.766   4.300  0.5006 -0.5657  0.3039
  110SAPE   H4S11384   0.216   1.912   4.398  2.4343  0.1413  1.4061
  110SAPE   C2511385   0.267   1.719   4.481 -0.6515 -0.1747 -0.8360
  110SAPE   H5R11386   0.297   1.614   4.462 -0.7739 -0.2979 -0.3772
  110SAPE   C2611387   0.261   1.764   4.608 -0.5357  0.0615 -0.5252
  110SAPE   H6R11388   0.271   1.703   4.699  1.6855  4.0652  2.2411
  110SAPE   C2711389   0.235   1.905   4.658  0.6525  0.6513 -0.3551
  110SAPE   H7R11390   0.127   1.927   4.674  0.6858  0.8138 -0.3549
  110SAPE   H7S11391   0.265   1.975   4.577 -1.3433  2.4243  0.3380
  110SAPE   C2811392   0.305   1.940   4.796  1.0478 -0.3247  0.5935
  110SAPE   H8R11393   0.415   1.939   4.790  1.0857 -1.4168  1.1933
  110SAPE   C2911394   0.243   1.973   4.907 -0.5086 -0.5354 -0.4284
  110SAPE   H9R11395   0.299   2.005   4.996 -0.2298  1.6968 -1.3399
  110SAPE  C21011396   0.094   1.985   4.925  0.6661 -1.3949 -0.2267
  110SAPE  H10R11397   0.036   1.918   4.859 -0.3012 -0.9520  0.1621
  110SAPE  H10S11398   0.073   2.091   4.899 -3.8238 -2.7802 -3.4636
  110SAPE  C21111399   0.047   1.959   5.066  0.0549  0.3013 -0.7866
  110SAPE  H11R11400   0.079   1.865   5.113 -0.9459  0.4386  0.2096
  110SAPE  C21211401  -0.041   2.029   5.141  0.2842  0.4756  0.5051
  110SAPE  H12R11402  -0.071   1.987   5.238  1.1529  1.2008  1.1058
  110SAPE  C21311403  -0.129   2.144   5.103 -0.1820 -1.0544 -1.1660
  110SAPE  H13R11404  -0.238   2.130   5.120  0.3082 -1.7074  2.0724
  110SAPE  H13S11405  -0.114   2.165   4.995  1.3067  2.3843 -0.4355
  110SAPE  C21411406  -0.082   2.272   5.177  0.2666 -0.3840  0.2497
  110SAPE  H14R11407  -0.016   2.337   5.117  1.1884 -0.4673  1.1427
  110SAPE  C21511408  -0.123   2.310   5.297 -1.0310  0.0816  0.2105
  110SAPE  H15R11409  -0.099   2.410   5.336 -1.4616 -0.3728  1.6688
  110SAPE  C21611410  -0.223   2.245   5.388  0.5200 -0.4143 -0.0369
  110SAPE  H16R11411  -0.275   2.152   5.357 -2.1145 -0.0616  2.8346
  110SAPE  H16S11412  -0.305   2.318   5.401  0.7464 -0.0600 -0.5763
  110SAPE  C21711413  -0.159   2.207   5.531 -0.4494  0.1751  0.1813
  110SAPE  H17R11414  -0.103   2.290   5.579 -0.3845  0.4346 -0.3284
  110SAPE  H17S11415  -0.088   2.126   5.503 -0.0048  1.1269 -1.5711
  110SAPE  C21811416  -0.261   2.155   5.631  0.1945 -0.7572 -0.9030
  110SAPE  H18R11417  -0.198   2.106   5.708  1.8566 -0.3261 -1.9415
  110SAPE  H18S11418  -0.329   2.082   5.582 -2.4665  1.7089 -1.1791
  110SAPE  C21911419  -0.334   2.266   5.702 -0.0391  0.2709 -0.1206
  110SAPE  H19R11420  -0.434   2.228   5.730 -1.0558  1.2576 -2.1589
  110SAPE  H19S11421  -0.353   2.354   5.636 -1.7909  1.4227  1.8214
  110SAPE  C22011422  -0.263   2.308   5.831  0.8479  0.3085  0.1530
  110SAPE  H20R11423  -0.175   2.371   5.809  1.1492  0.6031  2.1008
  110SAPE  H20S11424  -0.224   2.224   5.892  0.7972 -0.3519 -0.6950
  110SAPE  H20T11425  -0.332   2.373   5.888  1.5003  1.9204 -0.8368
  110SAPE   C3311426   0.703   2.189   4.716  0.3872  0.1625  0.0017
  110SAPE   H3X11427   0.610   2.132   4.698  0.0813 -0.0728  2.1033
  110SAPE   H3Y11428   0.674   2.294   4.738 -0.5850  0.2456 -1.4848
  110SAPE   C3411429   0.777   2.116   4.828  0.3967 -0.1183  0.6245
  110SAPE   H4X11430   0.877   2.159   4.850  0.6918 -0.2397 -0.4286
  110SAPE   H4Y11431   0.790   2.010   4.794  1.4829  0.3068 -0.3470
  110SAPE   C3511432   0.697   2.110   4.959 -0.4423  0.1560 -0.8316
  110SAPE   H5X11433   0.595   2.069   4.938 -1.1040  0.5684  1.3394
  110SAPE   H5Y11434   0.686   2.214   4.996 -0.9072  0.4337 -1.7019
  110SAPE   C3611435   0.766   2.041   5.071  0.1475  0.0639 -0.6507
  110SAPE   H6X11436   0.873   2.070   5.081 -0.3823  1.5931  1.0112
  110SAPE   H6Y11437   0.764   1.930   5.064  0.2794 -0.0172  0.4235
  110SAPE   C3711438   0.693   2.065   5.206 -0.3596 -0.0575  0.5522
  110SAPE   H7X11439   0.593   2.018   5.193 -0.2850 -0.4890  1.4893
  110SAPE   H7Y11440   0.668   2.172   5.221 -1.4561  0.1752 -2.3791
  110SAPE   C3811441   0.762   2.021   5.328 -0.8630  0.0170  0.4562
  110SAPE   H8X11442   0.870   2.047   5.332 -0.3109 -2.1125  0.6216
  110SAPE   H8Y11443   0.754   1.910   5.318 -0.6358 -0.1618  2.0335
  110SAPE   C3911444   0.691   2.071   5.453  0.3580 -0.1850  0.7033
  110SAPE   H9X11445   0.605   2.000   5.456 -0.8959  1.2608  0.5490
  110SAPE   H9Y11446   0.641   2.170   5.458 -1.1111 -0.6897 -1.9361
  110SAPE  C31011447   0.750   2.037   5.591 -0.1701  0.2430 -0.1625
  110SAPE  H10X11448   0.805   2.127   5.628  1.4814 -0.9158  0.2926
  110SAPE  H10Y11449   0.825   1.956   5.578  0.4078  1.0092 -2.0522
  110SAPE  C31111450   0.645   1.998   5.699 -0.0751  0.4350  0.5566
  110SAPE  H11X11451   0.611   1.898   5.667  1.7551  0.9547 -3.6061
  110SAPE  H11Y11452   0.566   2.076   5.688  1.5255  2.1518  0.6796
  110SAPE  C31211453   0.690   1.986   5.843  0.3096  0.4393 -0.1835
  110SAPE  H12X11454   0.612   1.940   5.908  0.5414  1.4516  0.8489
  110SAPE  H12Y11455   0.706   2.089   5.883 -0.0166  0.4521 -0.0796
  110SAPE  C31311456   0.826   1.906   5.849  0.4964  0.2718  0.5639
  110SAPE  H13X11457   0.853   1.918   5.956  0.0614  0.0288  0.7052
  110SAPE  H13Y11458   0.908   1.961   5.797 -0.1146  0.3915 -0.2945
  110SAPE  C31411459   0.824   1.760   5.819 -0.0494 -0.1293 -0.7103
  110SAPE  H14X11460   0.918   1.711   5.854 -0.3724 -1.7844 -2.0234
  110SAPE  H14Y11461   0.831   1.755   5.708  1.2764  0.5332 -0.6735
  110SAPE  C31511462   0.705   1.671   5.861  0.5805 -0.1741 -0.0112
  110SAPE  H15X11463   0.607   1.712   5.827 -0.0669 -0.8724  0.9334
  110SAPE  H15Y11464   0.701   1.662   5.972 -0.9867 -0.8962 -0.0966
  110SAPE  C31611465   0.729   1.523   5.812 -0.1715 -1.1873 -0.5529
  110SAPE  H16X11466   0.779   1.531   5.713  0.2177  0.7957 -0.2276
  110SAPE  H16Y11467   0.627   1.483   5.797 -1.4097  1.0034  1.3529
  110SAPE  C31711468   0.823   1.432   5.902 -0.7396 -0.4986  0.7740
  110SAPE  H17X11469   0.773   1.429   6.001 -1.7110 -0.6422  0.2911
  110SAPE  H17Y11470   0.921   1.481   5.919 -0.7095  0.0217 -0.7838
  110SAPE  C31811471   0.824   1.284   5.844 -0.6341  0.1203 -0.3835
  110SAPE  H18X11472   0.874   1.284   5.745 -0.9312  2.1572 -0.5761
  110SAPE  H18Y11473   0.716   1.258   5.831 -0.7204  0.0971  0.3050
  110SAPE  H18Z11474   0.863   1.208   5.915 -0.6863 -0.0711 -0.5590
  111SAPE     N11475   2.738   5.117   3.925 -0.1710  0.4292 -0.2359
  111SAPE   HN111476   2.739   5.021   3.884 -1.0068  0.5773 -0.6216
  111SAPE   HN211477   2.645   5.159   3.902 -0.1647 -0.3165 -1.7908
  111SAPE   HN311478   2.812   5.177   3.884  0.7402 -1.5907 -1.7448
  111SAPE   C1211479   2.747   5.117   4.077 -0.7215 -0.2220  0.2830
  111SAPE  H12A11480   2.709   5.219   4.099 -0.8506  0.3181 -2.1176
  111SAPE  H12B11481   2.856   5.129   4.096 -0.8698 -0.3859  1.2892
  111SAPE   C1111482   2.696   4.988   4.130 -1.0790  0.7344 -0.0325
  111SAPE  H11A11483   2.588   4.968   4.111 -1.2394  2.0410 -0.6370
  111SAPE  H11B11484   2.698   5.003   4.240  0.6277 -2.7032  0.5356
  111SAPE     P11485   2.763   4.726   4.124  0.1282  0.3420 -0.0366
  111SAPE   O1311486   2.631   4.675   4.075  0.1139  0.0614  0.3248
  111SAPE   O1411487   2.877   4.648   4.084 -0.2732  0.1243 -0.4903
  111SAPE   O1211488   2.781   4.877   4.093 -0.0404 -0.0889  0.7167
  111SAPE   O1111489   2.763   4.724   4.283 -0.6917 -0.3268 -0.4653
  111SAPE    C111490   2.642   4.751   4.349 -0.2832  0.0874  0.1919
  111SAPE    HA11491   2.591   4.845   4.320  0.1789  0.2514 -0.1168
  111SAPE    HB11492   2.573   4.670   4.318  1.5057 -0.6613 -2.1681
  111SAPE    C211493   2.655   4.731   4.496 -0.1643 -0.8614 -0.5806
  111SAPE    HS11494   2.556   4.742   4.545  0.3230 -0.3473  0.2954
  111SAPE   O2111495   2.746   4.818   4.567 -0.0189 -0.4699  0.0150
  111SAPE   C2111496   2.702   4.942   4.568 -0.4808  0.0114  0.5893
  111SAPE   O2211497   2.601   4.984   4.522  0.2236 -0.2797  0.6222
  111SAPE   C2211498   2.818   5.033   4.626 -0.0847  0.0711 -0.1421
  111SAPE   H2R11499   2.908   4.968   4.627 -1.5042 -2.0049 -0.3663
  111SAPE   H2S11500   2.822   5.120   4.557 -1.2855  0.0482 -0.2604
  111SAPE    C311501   2.688   4.579   4.515  0.1178 -1.1234  0.0827
  111SAPE    HX11502   2.794   4.571   4.481  0.0330  1.2989 -0.9786
  111SAPE    HY11503   2.623   4.513   4.454  1.4488  1.1051 -4.2332
  111SAPE   O3111504   2.682   4.540   4.655 -0.5888  0.4540 -0.3246
  111SAPE   C3111505   2.562   4.522   4.697  0.2679  0.7144  0.0988
  111SAPE   O3211506   2.464   4.511   4.629 -0.0551  0.2264 -0.2677
  111SAPE   C3211507   2.554   4.517   4.847 -0.1545  0.4173  0.3105
  111SAPE   H2X11508   2.623   4.437   4.883 -0.3098  1.4679  3.2231
  111SAPE   H2Y11509   2.450   4.493   4.877  0.2239 -1.8175  0.0179
  111SAPE   C2311510   2.788   5.082   4.766  0.3802 -0.5018  0.2186
  111SAPE   H3R11511   2.693   5.140   4.758  0.2989 -0.5003  1.0369
  111SAPE   H3S11512   2.862   5.157   4.800 -0.5315  1.6095 -2.1483
  111SAPE   C2411513   2.771   4.978   4.873 -0.1581 -0.3147  0.5505
  111SAPE   H4R11514   2.868   4.926   4.888 -0.4909 -0.6537  1.5997
  111SAPE   H4S11515   2.705   4.894   4.841  1.8484 -2.1766  0.9949
  111SAPE   C2511516   2.708   5.025   4.996 -0.2233 -0.9090 -1.0466
  111SAPE   H5R11517   2.651   5.115   4.968  1.0777  0.6029  0.8369
  111SAPE   C2611518   2.747   4.993   5.124  0.3032  0.0001  0.3314
  111SAPE   H6R11519   2.670   5.025   5.197 -3.8673 -1.2001 -3.1310
  111SAPE   C2711520   2.860   4.907   5.172 -0.3441 -0.4488 -0.0441
  111SAPE   H7R11521   2.916   4.847   5.097 -0.3003 -1.3640  0.7069
  111SAPE   H7S11522   2.821   4.829   5.241  1.3243 -2.0973 -0.8951
  111SAPE   C2811523   2.959   5.002   5.250  0.2941 -0.3932 -0.5074
  111SAPE   H8R11524   3.021   5.078   5.201  1.6388 -1.8458 -1.1309
  111SAPE   C2911525   2.988   4.992   5.381  0.8127  0.3775  0.2975
  111SAPE   H9R11526   3.057   5.070   5.417  1.8922  1.0834 -3.0271
  111SAPE  C21011527   2.921   4.899   5.484 -1.1767 -0.1334 -0.1151
  111SAPE  H10R11528   2.991   4.813   5.481  0.4979  1.1759 -0.5023
  111SAPE  H10S11529   2.824   4.870   5.437 -0.5059 -0.8747 -1.0921
  111SAPE  C21111530   2.909   4.941   5.630  0.6541  0.4550 -0.2558
  111SAPE  H11R11531   2.950   4.865   5.699  5.5645  1.9592 -1.1418
  111SAPE  C21211532   2.837   5.042   5.683  0.5610  0.1845 -0.5461
  111SAPE  H12R11533   2.812   5.052   5.789 -0.0655  0.4018 -0.7069
  111SAPE  C21311534   2.770   5.145   5.599  0.1957 -0.5365 -0.0235
  111SAPE  H13R11535   2.682   5.088   5.562  2.0769 -2.3255 -2.0759
  111SAPE  H13S11536   2.832   5.185   5.516 -0.4293 -0.0395 -0.2546
  111SAPE  C21411537   2.702   5.267   5.666 -0.1342  0.1753  0.1912
  111SAPE  H14R11538   2.748   5.302   5.759 -0.8746  2.2457 -0.1833
  111SAPE  C21511539   2.608   5.349   5.612 -0.7994  0.0138  0.6140
  111SAPE  H15R11540   2.552   5.425   5.667 -1.5070  1.1054 -1.5185
  111SAPE  C21611541   2.535   5.319   5.481 -0.4242  0.2648 -0.0616
  111SAPE  H16R11542   2.601   5.254   5.420 -2.3472 -0.6040 -1.3151
  111SAPE  H16S11543   2.520   5.409   5.417  0.6688 -1.1224 -2.4177
  111SAPE  C21711544   2.394   5.253   5.499  0.5316  0.1781 -0.2329
  111SAPE  H17R11545   2.335   5.308   5.576 -0.8698 -0.6416 -0.6794
  111SAPE  H17S11546   2.414   5.150   5.534  3.5769  1.0344  0.8521
  111SAPE  C21811547   2.314   5.249   5.367  0.4562  0.6609  0.0790
  111SAPE  H18R11548   2.252   5.340   5.356  1.7374  1.4060 -1.4321
  111SAPE  H18S11549   2.247   5.160   5.375  1.0939  0.2619  1.2778
  111SAPE  C21911550   2.396   5.238   5.234  0.0524 -0.8946 -0.2290
  111SAPE  H19R11551   2.450   5.140   5.233  1.7306 -0.0173 -0.9195
  111SAPE  H19S11552   2.461   5.328   5.237 -1.1213 -0.0442  2.7811
  111SAPE  C22011553   2.309   5.246   5.104 -0.1486 -0.6914  0.6366
  111SAPE  H20R11554   2.215   5.188   5.118  0.8209 -2.4796 -0.0252
  111SAPE  H20S11555   2.374   5.186   5.038 -0.6218  0.0443 -0.5213
  111SAPE  H20T11556   2.285   5.346   5.062  0.3999 -0.6613  0.3866
  111SAPE   C3311557   2.608   4.644   4.917  0.4965 -0.1370  0.6453
  111SAPE   H3X11558   2.544   4.727   4.878  0.3805 -1.8534 -3.2233
  111SAPE   H3Y11559   2.710   4.675   4.886  0.0894  3.0364  2.0565
  111SAPE   C3411560   2.594   4.625   5.068 -0.4415 -0.2827  0.2335
  111SAPE   H4X11561   2.491   4.600   5.100 -1.1332  1.7338 -0.3169
  111SAPE   H4Y11562   2.616   4.722   5.116 -0.1136 -0.0282 -0.4226
  111SAPE   C3511563   2.682   4.512   5.123  0.2116 -0.5131 -0.1178
  111SAPE   H5X11564   2.787   4.516   5.088  0.7255  0.2113  1.3943
  111SAPE   H5Y11565   2.640   4.414   5.093  0.5292 -1.2451  1.6561
  111SAPE   C3611566   2.677   4.509   5.279  0.2307  0.3609  0.0140
  111SAPE   H6X11567   2.573   4.494   5.315 -0.5464  1.2010 -1.7579
  111SAPE   H6Y11568   2.713   4.607   5.318  0.6095 -1.0962  3.8080
  111SAPE   C3711569   2.763   4.387   5.325  0.1955 -0.7306  0.6716
  111SAPE   H7X11570   2.870   4.404   5.300  0.0166  1.1455  1.0602
  111SAPE   H7Y11571   2.728   4.312   5.251 -0.1461  1.1929 -1.1985
  111SAPE   C3811572   2.737   4.351   5.473 -0.8851 -0.1407  0.1366
  111SAPE   H8X11573   2.760   4.244   5.492 -0.8801 -0.1768 -0.0731
  111SAPE   H8Y11574   2.635   4.365   5.512 -1.1112  1.9077 -1.0656
  111SAPE   C3911575   2.832   4.425   5.573  0.7074 -0.0870 -0.0453
  111SAPE   H9X11576   2.804   4.532   5.566  0.1880 -0.2953 -1.7998
  111SAPE   H9Y11577   2.938   4.406   5.543  0.0240 -2.3107 -1.3098
  111SAPE  C31011578   2.823   4.384   5.719  0.1529 -0.5627 -0.2460
  111SAPE  H10X11579   2.875   4.458   5.784 -1.3015 -0.1011  0.4151
  111SAPE  H10Y11580   2.857   4.283   5.751 -1.5788 -0.6959  1.3138
  111SAPE  C31111581   2.675   4.381   5.761 -0.0709 -0.5789 -0.2679
  111SAPE  H11X11582   2.604   4.305   5.721  0.6221 -1.5281  0.2699
  111SAPE  H11Y11583   2.637   4.481   5.730  1.5688  0.2167  0.1614
  111SAPE  C31211584   2.673   4.377   5.917  0.0166  0.4109  0.4087
  111SAPE  H12X11585   2.714   4.474   5.952 -2.2016  1.1797  1.0835
  111SAPE  H12Y11586   2.734   4.294   5.959  1.4583  1.3920  0.3190
  111SAPE  C31311587   2.530   4.366   5.975 -0.1271  0.4509  0.6597
  111SAPE  H13X11588   2.498   4.265   5.940  2.6501 -0.3647  0.1990
  111SAPE  H13Y11589   2.458   4.440   5.936 -0.0771  0.7295  1.0821
  111SAPE  C31411590   2.507   4.391   6.127 -0.0620 -0.2989 -0.6714
  111SAPE  H14X11591   2.544   4.494   6.146  1.6745 -1.4260  3.0716
  111SAPE  H14Y11592   2.575   4.322   6.181 -0.3777 -0.3646 -0.3585
  111SAPE  C31511593   2.365   4.371   6.184 -0.0517  0.4134 -0.0247
  111SAPE  H15X11594   2.325   4.269   6.163 -0.1159  0.5240 -0.4669
  111SAPE  H15Y11595   2.299   4.434   6.120 -0.9601 -1.0533 -0.5881
  111SAPE  C31611596   2.353   4.397   6.331  0.4120  0.3003  0.2560
  111SAPE  H16X11597   2.389   4.495   6.368  2.0027 -0.5439  1.0635
  111SAPE  H16Y11598   2.400   4.313   6.387 -1.8825 -1.3806 -0.2049
  111SAPE  C31711599   2.206   4.399   6.378 -0.1918 -0.1191  0.3092
  111SAPE  H17X11600   2.157   4.303   6.350 -1.3284  0.4081  0.4299
  111SAPE  H17Y11601   2.157   4.474   6.313  0.7360 -2.4525 -3.3675
  111SAPE  C31811602   2.206   4.432   6.526  1.0336  0.2702 -0.8519
  111SAPE  H18X11603   2.265   4.522   6.554  1.1805 -0.3129  0.7917
  111SAPE  H18Y11604   2.239   4.341   6.581 -0.7412  1.2002  1.9655
  111SAPE  H18Z11605   2.100   4.451   6.553  0.7847  0.8436 -2.1431
  112SAPE     N11606   3.247   0.368   3.439 -0.0487 -0.2014  0.4829
  112SAPE   HN111607   3.249   0.457   3.385 -0.5696 -1.5297 -1.8630
  112SAPE   HN211608   3.166   0.316   3.399 -0.1402  0.1387  0.2235
  112SAPE   HN311609   3.234   0.393   3.539 -0.2190  1.9224 -0.0188
  112SAPE   C1211610   3.380   0.297   3.435  0.3621 -0.0743  0.0733
  112SAPE  H12A11611   3.436   0.337   3.348  0.0958  0.9378  0.3598
  112SAPE  H12B11612   3.373   0.188   3.415  0.9291 -0.2478  0.8060
  112SAPE   C1111613   3.469   0.333   3.552 -0.5745  0.0057 -0.0017
  112SAPE  H11A11614   3.476   0.444   3.548  0.0897 -0.0740 -2.3470
  112SAPE  H11B11615   3.574   0.306   3.530 -0.1040  1.4804  0.3267
  112SAPE     P11616   3.331   0.359   3.781 -0.0532 -0.7412  0.4495
  112SAPE   O1311617   3.229   0.427   3.699  0.0120 -0.1656 -0.6994
  112SAPE   O1411618   3.299   0.273   3.899 -0.2512  0.0715 -0.2938
  112SAPE   O1211619   3.424   0.283   3.681 -0.6667  0.1387  0.4195
  112SAPE   O1111620   3.432   0.476   3.829  1.2132 -0.1357  0.3070
  112SAPE    C111621   3.573   0.457   3.837 -0.1111 -0.6177 -0.2843
  112SAPE    HA11622   3.618   0.380   3.770 -0.3000 -1.5781  0.6512
  112SAPE    HB11623   3.614   0.552   3.798 -0.9984  0.0407  0.3683
  112SAPE    C211624   3.619   0.434   3.983 -0.4237  0.0887 -0.2263
  112SAPE    HS11625   3.729   0.442   3.992 -0.5793  2.1723  0.2233
  112SAPE   O2111626   3.569   0.311   4.033 -0.0915 -0.2223 -0.6335
  112SAPE   C2111627   3.629   0.210   4.001  0.7899 -0.0943  0.0295
  112SAPE   O2211628   3.714   0.198   3.915  0.0795  0.1838 -0.2903
  112SAPE   C2211629   3.601   0.101   4.110 -0.2299 -0.6637  0.1527
  112SAPE   H2R11630   3.493   0.075   4.112 -0.7320  1.2142  2.1959
  112SAPE   H2S11631   3.650   0.013   4.064 -1.1202 -0.9281 -0.3214
  112SAPE    C311632   3.556   0.547   4.066 -1.5432  0.1447 -0.0206
  112SAPE    HX11633   3.446   0.538   4.053 -1.5918  1.3661 -0.6027
  112SAPE    HY11634   3.598   0.644   4.033 -0.1387 -0.1380  0.8624
  112SAPE   O3111635   3.609   0.529   4.200 -0.0792 -0.8298 -0.2077
  112SAPE   C3111636   3.532   0.581   4.288  0.0273  0.6979  0.3896
  112SAPE   O3211637   3.424   0.630   4.261  0.4659 -0.8098 -0.6630
  112SAPE   C3211638   3.598   0.544   4.423 -0.0309 -1.1675 -0.1980
  112SAPE   H2X11639   3.690   0.604   4.437 -0.0341 -1.0242 -0.7657
  112SAPE   H2Y11640   3.631   0.438   4.413  1.1523 -0.9248  0.8576
  112SAPE   C2311641   3.647   0.155   4.242 -0.9539  0.7170 -0.5099
  112SAPE   H3R11642   3.568   0.224   4.279  0.7347  2.9002 -0.7530
  112SAPE   H3S11643   3.738   0.219   4.235 -2.3643  2.7502 -1.3063
  112SAPE   C2411644   3.665   0.042   4.347  0.4945  0.1219  0.7610
  112SAPE   H4R11645   3.569  -0.012   4.352  0.4940 -0.0119 -0.4829
  112SAPE   H4S11646   3.692   0.084   4.447  2.5035 -0.7688  0.6380
  112SAPE   C2511647   3.758  -0.068   4.304  0.1603 -0.6592 -0.7043
  112SAPE   H5R11648   3.712  -0.120   4.219 -1.6343  0.7618 -0.6639
  112SAPE   C2611649   3.879  -0.099   4.356 -0.5996 -0.1939  0.0043
  112SAPE   H6R11650   3.931  -0.190   4.321 -0.1778  0.1820 -0.3598
  112SAPE   C2711651   3.954  -0.030   4.470 -0.2965 -0.1189 -0.9048
  112SAPE   H7R11652   4.040  -0.092   4.502  0.4908  0.6072 -1.5653
  112SAPE   H7S11653   3.891  -0.019   4.562 -0.9679 -1.1168 -1.2353
  112SAPE   C2811654   4.018   0.100   4.432  0.3497 -0.0528 -0.1058
  112SAPE   H8R11655   3.999   0.129   4.328  1.2294  0.3745 -0.1574
  112SAPE   C2911656   4.122   0.163   4.488  0.1369 -0.0289 -0.1219
  112SAPE   H9R11657   4.162   0.256   4.445  4.3931 -1.9890 -0.9450
  112SAPE  C21011658   4.188   0.126   4.621 -0.2404 -0.2680  0.2661
  112SAPE  H10R11659   4.165   0.022   4.653 -0.0165 -0.1973  0.6690
  112SAPE  H10S11660   4.153   0.196   4.701 -1.0441  1.6925 -1.7033
  112SAPE  C21111661   4.335   0.140   4.627 -0.2594 -0.2302  0.1780
  112SAPE  H11R11662   4.392   0.137   4.533  0.3436  2.0071  0.4019
  112SAPE  C21211663   4.402   0.175   4.742 -1.0533  0.4396  0.6912
  112SAPE  H12R11664   4.511   0.163   4.745 -0.9975  0.7217 -0.0165
  112SAPE  C21311665   4.341   0.183   4.874  0.7086  1.0345 -0.4396
  112SAPE  H13R11666   4.338   0.087   4.930 -2.2037  1.0859 -0.3260
  112SAPE  H13S11667   4.238   0.226   4.873  0.7768  1.4041  1.9255
  112SAPE  C21411668   4.429   0.276   4.953  0.9037  0.5191 -0.2516
  112SAPE  H14R11669   4.371   0.365   4.983 -1.8972 -1.8006  1.7757
  112SAPE  C21511670   4.543   0.246   5.013 -0.6058 -0.7463 -0.3880
  112SAPE  H15R11671   4.612   0.321   5.054  0.1270 -0.9279 -1.2737
  112SAPE  C21611672   4.615   0.113   4.999 -0.5686  0.4264  0.7614
  112SAPE  H16R11673   4.721   0.115   4.965  0.7286 -0.9058  4.2294
  112SAPE  H16S11674   4.550   0.048   4.937 -1.0508 -0.1141  1.8073
  112SAPE  C21711675   4.615   0.024   5.128  0.1921  0.2200  0.1474
  112SAPE  H17R11676   4.682  -0.059   5.098  1.6471  1.9446 -1.6384
  112SAPE  H17S11677   4.513  -0.014   5.147  0.4601 -1.5799 -1.6647
  112SAPE  C21811678   4.677   0.095   5.245 -0.5846  0.7871  0.4927
  112SAPE  H18R11679   4.614   0.181   5.278  0.8159  2.4391 -0.9165
  112SAPE  H18S11680   4.775   0.133   5.209 -0.8223  1.4651  0.5337
  112SAPE  C21911681   4.692   0.004   5.369 -0.2108  0.7797 -0.3443
  112SAPE  H19R11682   4.763  -0.079   5.353 -3.3968 -2.6697  1.9059
  112SAPE  H19S11683   4.591  -0.038   5.390 -0.0896  1.6957  2.4678
  112SAPE  C22011684   4.752   0.075   5.494 -0.2373  0.0602 -0.2660
  112SAPE  H20R11685   4.853   0.115   5.473 -0.2176  0.9986  1.4293
  112SAPE  H20S11686   4.743   0.007   5.582  2.9411 -2.4337 -1.6575
  112SAPE  H20T11687   4.685   0.162   5.510  0.9448  0.6715  1.6104
  112SAPE   C3311688   3.510   0.556   4.551 -0.5557 -0.7371 -0.3358
  112SAPE   H3X11689   3.487   0.456   4.594 -0.7691 -1.0278 -1.1048
  112SAPE   H3Y11690   3.418   0.615   4.534  0.8121  2.3797  1.9905
  112SAPE   C3411691   3.577   0.640   4.662 -0.2990  0.0175  0.5125
  112SAPE   H4X11692   3.495   0.679   4.725 -0.8750 -2.1452  1.1927
  112SAPE   H4Y11693   3.636   0.725   4.620  1.7263 -0.8335  1.4704
  112SAPE   C3511694   3.673   0.549   4.743 -0.6489 -0.0765  0.1336
  112SAPE   H5X11695   3.747   0.503   4.674  0.5274  1.9160 -0.0001
  112SAPE   H5Y11696   3.620   0.458   4.781  0.8107 -0.0391  2.4765
  112SAPE   C3611697   3.733   0.632   4.858 -0.4429 -0.0988  0.6293
  112SAPE   H6X11698   3.651   0.685   4.910 -0.8215 -0.1155  0.0606
  112SAPE   H6Y11699   3.800   0.710   4.816 -2.8009  0.7656 -1.7833
  112SAPE   C3711700   3.813   0.544   4.944 -0.5685  0.2718  0.6304
  112SAPE   H7X11701   3.894   0.508   4.877 -1.4112 -2.5772  0.9882
  112SAPE   H7Y11702   3.763   0.450   4.976 -0.1321  0.3980  1.7310
  112SAPE   C3811703   3.861   0.617   5.074  0.4118 -0.1167  0.0100
  112SAPE   H8X11704   3.778   0.633   5.147 -0.9758  1.3517 -1.7756
  112SAPE   H8Y11705   3.891   0.722   5.057 -0.2719  0.8252  3.7292
  112SAPE   C3911706   3.976   0.539   5.146 -0.6834 -0.3012  0.9503
  112SAPE   H9X11707   4.072   0.549   5.091 -0.8351 -0.4959  0.6423
  112SAPE   H9Y11708   3.962   0.428   5.142  1.6585 -0.6323 -0.3426
  112SAPE  C31011709   3.999   0.578   5.292 -0.2234  0.0809 -0.0739
  112SAPE  H10X11710   3.910   0.561   5.356 -0.4017  1.8649  0.1991
  112SAPE  H10Y11711   3.999   0.688   5.277 -3.3293  0.1909  0.1774
  112SAPE  C31111712   4.133   0.513   5.338 -0.0664 -0.1779  0.3888
  112SAPE  H11X11713   4.211   0.557   5.272  0.7040  0.9068  1.9778
  112SAPE  H11Y11714   4.128   0.403   5.321 -0.8306 -0.1344  0.2956
  112SAPE  C31211715   4.174   0.537   5.488 -0.1232 -0.3792 -0.1935
  112SAPE  H12X11716   4.094   0.502   5.556 -0.8988  1.2534 -0.2150
  112SAPE  H12Y11717   4.186   0.646   5.508  1.1464 -0.6720  0.7762
  112SAPE  C31311718   4.313   0.474   5.536  0.2802  0.3381  0.4071
  112SAPE  H13X11719   4.388   0.514   5.465  0.1604  0.9637  0.6274
  112SAPE  H13Y11720   4.307   0.367   5.506  0.4943  0.1619  0.9935
  112SAPE  C31411721   4.338   0.502   5.679  0.6090  0.1934  0.3942
  112SAPE  H14X11722   4.276   0.437   5.744  1.3991 -0.0414  0.9339
  112SAPE  H14Y11723   4.318   0.609   5.701 -0.5235 -0.5541  3.5598
  112SAPE  C31511724   4.484   0.483   5.727  0.1547 -0.6413 -0.1470
  112SAPE  H15X11725   4.503   0.523   5.829  0.9242  0.1115 -0.5694
  112SAPE  H15Y11726   4.544   0.548   5.660 -0.4454  0.5713  0.4735
  112SAPE  C31611727   4.524   0.331   5.730  0.2789  0.1305  0.3393
  112SAPE  H16X11728   4.521   0.290   5.627  1.7914 -1.5599  0.9241
  112SAPE  H16Y11729   4.446   0.272   5.782 -1.7223  0.0729 -2.4907
  112SAPE  C31711730   4.656   0.300   5.803  0.9811 -0.3653 -0.2031
  112SAPE  H17X11731   4.683   0.192   5.792 -1.6110 -1.0066 -0.9925
  112SAPE  H17Y11732   4.640   0.324   5.910 -3.5704  2.2914 -1.2481
  112SAPE  C31811733   4.778   0.379   5.756 -0.0172  0.0751  0.1806
  112SAPE  H18X11734   4.775   0.370   5.645 -2.6534 -1.6793  0.2906
  112SAPE  H18Y11735   4.874   0.338   5.791  1.2361  2.5660 -0.1170
  112SAPE  H18Z11736   4.769   0.488   5.774  1.7495  0.4047 -0.7607
  113SAPE     N11737   6.389   1.920   3.804 -0.0332  0.2113 -0.0474
  113SAPE   HN111738   6.432   1.849   3.742  1.2802  0.7911  0.1660
  113SAPE   HN211739   6.289   1.931   3.776 -0.8792 -0.6073  2.3756
  113SAPE   HN311740   6.438   2.011   3.797 -0.3327  0.2415 -2.4550
  113SAPE   C1211741   6.364   1.878   3.947 -0.2150  0.1155 -0.1334
  113SAPE  H12A11742   6.406   1.775   3.958 -2.2375 -0.6886  0.5634
  113SAPE  H12B11743   6.256   1.871   3.971  0.1809 -0.1422  1.7536
  113SAPE   C1111744   6.440   1.983   4.040  0.4810  0.1031  0.0892
  113SAPE  H11A11745   6.547   1.997   4.013  0.5843 -1.2787 -0.3007
  113SAPE  H11B11746   6.450   1.922   4.133 -1.1136 -1.6089 -0.8054
  113SAPE     P11747   6.378   2.225   3.979 -0.4816 -0.0771 -0.2618
  113SAPE   O1311748   6.367   2.201   3.837  0.9908  0.5101  0.3930
  113SAPE   O1411749   6.288   2.326   4.024 -0.2254 -0.4338  0.3035
  113SAPE   O1211750   6.358   2.094   4.063 -0.1450  0.6840  0.5683
  113SAPE   O1111751   6.530   2.262   4.011  0.2873 -0.3898 -0.4889
  113SAPE    C111752   6.573   2.368   4.101 -0.5975  0.6791  0.0712
  113SAPE    HA11753   6.682   2.379   4.081 -0.8632  0.4816 -1.6389
  113SAPE    HB11754   6.513   2.461   4.087 -1.8227  0.2606  2.1220
  113SAPE    C211755   6.572   2.322   4.251  0.1091 -0.6590 -0.5999
  113SAPE    HS11756   6.573   2.211   4.245 -0.5406 -0.7998  1.2230
  113SAPE   O2111757   6.457   2.380   4.313 -0.1956 -0.7281 -0.3220
  113SAPE   C2111758   6.386   2.287   4.376  0.5440  0.2167  0.1159
  113SAPE   O2211759   6.414   2.170   4.391  0.0790  0.0623 -0.0528
  113SAPE   C2211760   6.256   2.349   4.422  0.6537  0.3326 -0.7380
  113SAPE   H2R11761   6.187   2.376   4.338 -0.0476 -1.5538 -0.8375
  113SAPE   H2S11762   6.194   2.272   4.473  1.7922  0.6916  1.2672
  113SAPE    C311763   6.702   2.354   4.339 -0.0149 -0.2446  0.3549
  113SAPE    HX11764   6.704   2.465   4.349  2.1422 -0.4150  3.1065
  113SAPE    HY11765   6.798   2.330   4.289 -0.0495  0.3266  0.0045
  113SAPE   O3111766   6.700   2.284   4.463 -0.3693 -0.0073  0.2210
  113SAPE   C3111767   6.733   2.162   4.471  0.8709 -0.0887  0.0324
  113SAPE   O3211768   6.759   2.086   4.378  0.5220  0.3338 -0.7030
  113SAPE   C3211769   6.733   2.106   4.618 -0.8482 -0.2810  0.2324
  113SAPE   H2X11770   6.739   2.194   4.686  0.9029 -0.9895  1.0584
  113SAPE   H2Y11771   6.830   2.053   4.628 -1.4854 -1.5121  0.0521
  113SAPE   C2311772   6.281   2.475   4.514  0.2777  0.1418 -0.2162
  113SAPE   H3R11773   6.328   2.557   4.456  0.1465  0.2341 -0.1923
  113SAPE   H3S11774   6.340   2.447   4.604 -1.3082 -1.2928  0.4339
  113SAPE   C2411775   6.142   2.521   4.570 -0.1237  0.7984  0.1064
  113SAPE   H4R11776   6.084   2.570   4.489  1.7622  0.3514 -1.5884
  113SAPE   H4S11777   6.167   2.600   4.644  0.7297 -0.2603  0.9842
  113SAPE   C2511778   6.053   2.421   4.629  0.9395 -0.4167 -0.2347
  113SAPE   H5R11779   5.982   2.385   4.553  1.2627  0.3720 -0.9339
  113SAPE   C2611780   6.053   2.370   4.751 -0.1435  0.3135  0.0315
  113SAPE   H6R11781   5.983   2.294   4.788 -0.1580  0.5066  0.4120
  113SAPE   C2711782   6.160   2.412   4.848  0.3167 -0.0113  0.4772
  113SAPE   H7R11783   6.104   2.426   4.943  0.9236  1.8059  0.6167
  113SAPE   H7S11784   6.193   2.516   4.824  0.9897 -0.8424 -2.7461
  113SAPE   C2811785   6.282   2.328   4.852  0.3254  0.4995 -0.5494
  113SAPE   H8R11786   6.344   2.319   4.761  0.0692 -1.9528 -0.5520
  113SAPE   C2911787   6.316   2.245   4.956  0.9076 -0.2790 -0.7837
  113SAPE   H9R11788   6.414   2.195   4.952  1.1141  0.0813 -0.3227
  113SAPE  C21011789   6.243   2.228   5.089  0.9703 -0.3094 -0.5846
  113SAPE  H10R11790   6.213   2.122   5.079  0.6218 -0.1246 -1.5761
  113SAPE  H10S11791   6.146   2.282   5.096  1.2832  0.0244  2.3829
  113SAPE  C21111792   6.316   2.237   5.217  0.1825 -0.4791 -0.0363
  113SAPE  H11R11793   6.416   2.283   5.207  1.3444 -3.0329 -1.0726
  113SAPE  C21211794   6.290   2.178   5.334 -0.0920  0.2623 -0.4694
  113SAPE  H12R11795   6.363   2.171   5.415  0.1127  0.2884 -0.6511
  113SAPE  C21311796   6.162   2.107   5.362 -0.2345  0.2073 -0.2843
  113SAPE  H13R11797   6.088   2.141   5.286  1.3337 -1.9245 -3.0103
  113SAPE  H13S11798   6.131   2.134   5.465  1.7181 -0.0116  0.4000
  113SAPE  C21411799   6.163   1.956   5.350  0.6512 -0.0357 -0.5787
  113SAPE  H14R11800   6.207   1.923   5.255 -4.2590 -0.5703 -2.9845
  113SAPE  C21511801   6.160   1.865   5.447  0.3999 -0.7554  0.0435
  113SAPE  H15R11802   6.171   1.763   5.408  3.3970 -0.0100 -1.3239
  113SAPE  C21611803   6.125   1.887   5.593  0.1140 -0.5986  0.4109
  113SAPE  H16R11804   6.045   1.817   5.624  0.0761 -0.7306  0.0219
  113SAPE  H16S11805   6.097   1.994   5.602  0.6477 -0.4167 -0.0269
  113SAPE  C21711806   6.243   1.874   5.690  0.6904 -0.1794  0.0176
  113SAPE  H17R11807   6.205   1.900   5.791  0.0047  0.7335 -0.4673
  113SAPE  H17S11808   6.323   1.949   5.670  2.5257 -1.9357  0.3963
  113SAPE  C21811809   6.295   1.729   5.689 -0.1260 -0.0030 -0.0530
  113SAPE  H18R11810   6.353   1.722   5.595 -0.6184 -1.7787 -0.2651
  113SAPE  H18S11811   6.222   1.645   5.688  0.3272 -0.3933 -0.3725
  113SAPE  C21911812   6.397   1.693   5.798  0.2802 -0.4251 -0.9072
  113SAPE  H19R11813   6.341   1.685   5.894 -0.4150 -0.3876 -1.3072
  113SAPE  H19S11814   6.472   1.772   5.820  2.4932 -2.4329 -0.8202
  113SAPE  C22011815   6.480   1.560   5.774  0.6550  0.2470 -0.3882
  113SAPE  H20R11816   6.535   1.583   5.680 -0.5351  2.1740 -0.6732
  113SAPE  H20S11817   6.409   1.475   5.765 -0.9848  1.1707  2.4018
  113SAPE  H20T11818   6.545   1.526   5.858  1.2181  1.1686 -0.4374
  113SAPE   C3311819   6.621   1.994   4.651  0.3643 -0.2248  0.8897
  113SAPE   H3X11820   6.632   1.899   4.595 -1.1149  0.9408 -1.5806
  113SAPE   H3Y11821   6.515   2.025   4.634  0.1224 -0.7727  1.3745
  113SAPE   C3411822   6.615   1.952   4.802 -0.3778 -0.2313 -0.5306
  113SAPE   H4X11823   6.599   2.031   4.877 -1.4749  0.7915 -1.7954
  113SAPE   H4Y11824   6.715   1.914   4.832 -0.9796 -0.0372  1.8688
  113SAPE   C3511825   6.507   1.852   4.822 -0.4815  1.0080  0.4042
  113SAPE   H5X11826   6.509   1.776   4.741 -1.9459  0.4402  0.8688
  113SAPE   H5Y11827   6.414   1.908   4.798 -0.5244  0.0731 -1.8518
  113SAPE   C3611828   6.509   1.772   4.958 -0.7478 -0.6670  0.0335
  113SAPE   H6X11829   6.596   1.703   4.958 -1.1774 -1.3128 -2.7741
  113SAPE   H6Y11830   6.413   1.716   4.969 -1.2627 -0.5717 -3.1098
  113SAPE   C3711831   6.532   1.853   5.089  0.3000 -0.5710  0.9323
  113SAPE   H7X11832   6.485   1.954   5.081  1.3350 -0.1658 -0.4540
  113SAPE   H7Y11833   6.639   1.871   5.112 -0.0745  1.3317  1.3715
  113SAPE   C3811834   6.485   1.774   5.207 -0.3505 -0.0743 -0.4797
  113SAPE   H8X11835   6.375   1.785   5.217 -0.3029 -0.3212  0.4674
  113SAPE   H8Y11836   6.509   1.668   5.185 -1.6826 -1.2043  2.7266
  113SAPE   C3911837   6.544   1.817   5.345  0.6025 -0.3403 -0.0404
  113SAPE   H9X11838   6.467   1.787   5.419 -1.0569 -0.9722 -1.9078
  113SAPE   H9Y11839   6.551   1.928   5.350  1.0165 -0.4065  1.0791
  113SAPE  C31011840   6.676   1.758   5.377 -0.5170  0.3414 -0.5579
  113SAPE  H10X11841   6.747   1.781   5.295  0.9235 -1.2432  0.1814
  113SAPE  H10Y11842   6.658   1.649   5.386 -0.0910  0.2708 -0.5597
  113SAPE  C31111843   6.713   1.805   5.516 -0.0229  0.4359 -0.2036
  113SAPE  H11X11844   6.624   1.804   5.582 -0.1635 -3.6342 -0.2137
  113SAPE  H11Y11845   6.749   1.910   5.517 -0.1473  0.4760 -0.0380
  113SAPE  C31211846   6.831   1.736   5.580 -0.9436  0.5611  0.7105
  113SAPE  H12X11847   6.922   1.736   5.516  0.5672 -3.5471  2.5194
  113SAPE  H12Y11848   6.818   1.627   5.592  1.3268 -0.0174 -1.2312
  113SAPE  C31311849   6.867   1.811   5.710  0.2034  0.8405  0.2218
  113SAPE  H13X11850   6.784   1.804   5.783  1.0998 -1.4026  1.1209
  113SAPE  H13Y11851   6.888   1.920   5.701  2.2270  0.7151  2.5793
  113SAPE  C31411852   6.996   1.762   5.772  0.1316 -0.2436 -0.1645
  113SAPE  H14X11853   7.076   1.756   5.696  1.3225  2.9272  0.6465
  113SAPE  H14Y11854   6.976   1.661   5.812 -0.6685 -0.4350 -1.0333
  113SAPE  C31511855   7.038   1.843   5.894  0.0664 -0.6311 -0.2121
  113SAPE  H15X11856   6.947   1.858   5.955  0.1581  1.5152 -0.5109
  113SAPE  H15Y11857   7.075   1.942   5.859 -0.9676  0.0353  0.5106
  113SAPE  C31611858   7.144   1.768   5.975  0.6846  0.7395  0.0864
  113SAPE  H16X11859   7.198   1.687   5.919  0.2750  0.3114  0.3027
  113SAPE  H16Y11860   7.108   1.723   6.070 -0.6659  2.0740  0.2281
  113SAPE  C31711861   7.259   1.858   6.022 -0.9191 -0.9850 -0.7039
  113SAPE  H17X11862   7.215   1.940   6.083  0.1583 -0.5104 -0.5557
  113SAPE  H17Y11863   7.322   1.902   5.942  1.5398 -0.5430  1.3438
  113SAPE  C31811864   7.363   1.780   6.110  0.1818 -0.3926  0.1061
  113SAPE  H18X11865   7.413   1.709   6.041  0.5677  1.0417 -1.1360
  113SAPE  H18Y11866   7.309   1.736   6.197 -1.9466  0.3422 -0.7772
  113SAPE  H18Z11867   7.439   1.853   6.144 -1.2025  0.7672  0.8707
  114SAPE     N11868   1.911   6.617   3.881  0.1014  0.1272  0.1587
  114SAPE   HN111869   1.826   6.570   3.844  1.5882 -3.0851  0.4278
  114SAPE   HN211870   1.960   6.546   3.939  0.5221 -0.1631 -0.5323
  114SAPE   HN311871   1.880   6.689   3.949 -1.8330  0.0873 -0.6229
  114SAPE   C1211872   2.017   6.659   3.782 -0.0985 -0.6467 -0.0051
  114SAPE  H12A11873   2.031   6.768   3.792 -0.5100 -0.5704 -0.2548
  114SAPE  H12B11874   1.977   6.646   3.679  0.2839 -0.7127 -0.1486
  114SAPE   C1111875   2.148   6.584   3.799  0.4967  0.0227 -0.0589
  114SAPE  H11A11876   2.195   6.619   3.893 -0.9865  0.2447  0.6272
  114SAPE  H11B11877   2.198   6.617   3.706 -1.2256  0.8958 -0.7303
  114SAPE     P11878   2.252   6.353   3.807 -0.1610  0.6446 -0.1019
  114SAPE   O1311879   2.227   6.229   3.875  0.3155 -0.0456 -0.0290
  114SAPE   O1411880   2.289   6.332   3.667 -0.1493  0.0415  0.1294
  114SAPE   O1211881   2.121   6.440   3.818 -0.0581 -0.0800  0.5001
  114SAPE   O1111882   2.357   6.432   3.886  0.3828  0.1328  0.3849
  114SAPE    C111883   2.468   6.363   3.948 -0.7694  0.2406  0.1300
  114SAPE    HA11884   2.489   6.271   3.889  1.2436  0.2814  0.7354
  114SAPE    HB11885   2.556   6.430   3.946 -1.2015  0.7958 -0.8290
  114SAPE    C211886   2.439   6.319   4.093  0.1546  0.7650 -0.0923
  114SAPE    HS11887   2.345   6.260   4.107  1.3701 -0.9049  1.5742
  114SAPE   O2111888   2.436   6.436   4.176  1.0744  0.0441 -0.7232
  114SAPE   C2111889   2.313   6.477   4.210 -0.1350 -0.5028  0.0204
  114SAPE   O2211890   2.209   6.416   4.185 -0.1564 -0.2788  0.1827
  114SAPE   C2211891   2.319   6.609   4.279 -0.1286 -0.0291 -0.0406
  114SAPE   H2R11892   2.422   6.610   4.321 -0.4477 -0.5231  0.7598
  114SAPE   H2S11893   2.312   6.695   4.208 -0.9548 -0.3011 -0.2964
  114SAPE    C311894   2.558   6.236   4.155  0.1664  0.2122  0.4826
  114SAPE    HX11895   2.636   6.309   4.123  0.0277  0.0410 -0.2698
  114SAPE    HY11896   2.573   6.141   4.099 -0.0361  0.5198 -0.1005
  114SAPE   O3111897   2.561   6.226   4.301 -0.4101  0.3675  0.1445
  114SAPE   C3111898   2.497   6.118   4.344 -0.0682  0.0345 -0.2678
  114SAPE   O3211899   2.445   6.041   4.268 -0.4023  0.3351  0.2083
  114SAPE   C3211900   2.471   6.127   4.497 -0.2781  0.6446 -0.2076
  114SAPE   H2X11901   2.402   6.214   4.510  2.0752  2.6205 -0.3285
  114SAPE   H2Y11902   2.569   6.144   4.546  0.1785  0.2278 -0.9514
  114SAPE   C2311903   2.214   6.615   4.387  0.2952  0.6713 -0.3764
  114SAPE   H3R11904   2.110   6.630   4.350  0.9168  1.6564 -1.8470
  114SAPE   H3S11905   2.233   6.710   4.442  0.2317  0.4336  0.0534
  114SAPE   C2411906   2.223   6.512   4.502  0.0818 -0.6850  0.4954
  114SAPE   H4R11907   2.211   6.410   4.458  2.9451 -0.6342 -0.6419
  114SAPE   H4S11908   2.136   6.535   4.567  0.6691 -2.8337  2.2057
  114SAPE   C2511909   2.355   6.512   4.577  0.3918 -0.7226  0.4440
  114SAPE   H5R11910   2.439   6.460   4.530 -0.5896  0.4147 -2.7937
  114SAPE   C2611911   2.371   6.554   4.705 -0.0323 -0.3203 -0.0623
  114SAPE   H6R11912   2.476   6.555   4.739  0.1715  1.8053 -0.6105
  114SAPE   C2711913   2.276   6.637   4.787 -0.6980 -0.2078 -0.0354
  114SAPE   H7R11914   2.196   6.688   4.729  1.0124  1.6243 -0.9178
  114SAPE   H7S11915   2.340   6.722   4.820  0.7566 -1.0157 -0.6876
  114SAPE   C2811916   2.223   6.557   4.902  0.5222  0.3251 -0.5867
  114SAPE   H8R11917   2.131   6.502   4.878 -2.1196  3.1229  2.2175
  114SAPE   C2911918   2.278   6.528   5.025 -0.5864 -0.8049 -0.0557
  114SAPE   H9R11919   2.220   6.468   5.096 -0.5042 -0.5911  0.1915
  114SAPE  C21011920   2.404   6.583   5.084 -0.1151  0.6020  0.0957
  114SAPE  H10R11921   2.379   6.650   5.169  1.6429  1.3106  0.0998
  114SAPE  H10S11922   2.456   6.652   5.014  0.1528  1.4363  1.0764
  114SAPE  C21111923   2.503   6.476   5.133  0.4317  0.4681  0.9107
  114SAPE  H11R11924   2.579   6.458   5.055  0.1893 -0.0267  0.7815
  114SAPE  C21211925   2.507   6.403   5.244 -0.4572  0.6782  0.4999
  114SAPE  H12R11926   2.590   6.332   5.261 -0.1972  1.0534  0.8112
  114SAPE  C21311927   2.406   6.415   5.355  0.2400  0.1016  0.0092
  114SAPE  H13R11928   2.321   6.477   5.321  2.1502  2.0291 -1.5344
  114SAPE  H13S11929   2.437   6.472   5.445 -4.3484  0.9927  1.2367
  114SAPE  C21411930   2.358   6.285   5.409  0.3573  0.2317 -0.0115
  114SAPE  H14R11931   2.295   6.229   5.338  2.2829 -0.7644 -1.0445
  114SAPE  C21511932   2.372   6.228   5.525 -1.0436 -0.0295 -0.0231
  114SAPE  H15R11933   2.319   6.134   5.545 -4.0098  0.8613 -2.8525
  114SAPE  C21611934   2.465   6.276   5.634  0.6070 -0.0318  0.1688
  114SAPE  H16R11935   2.490   6.384   5.629 -0.6944  0.5043  3.1889
  114SAPE  H16S11936   2.559   6.216   5.627  0.4472 -0.0991 -1.7436
  114SAPE  C21711937   2.410   6.267   5.777  0.0811 -0.0502  0.3986
  114SAPE  H17R11938   2.329   6.342   5.789  1.7106  1.7267  0.7411
  114SAPE  H17S11939   2.484   6.303   5.852  0.9382 -2.9010  1.0595
  114SAPE  C21811940   2.362   6.126   5.827 -0.2271 -0.0045  1.2428
  114SAPE  H18R11941   2.432   6.042   5.805 -0.0874  0.3104  0.4754
  114SAPE  H18S11942   2.275   6.112   5.759  1.3168 -0.2914 -0.7741
  114SAPE  C21911943   2.325   6.127   5.978  0.2213 -0.0224 -0.5352
  114SAPE  H19R11944   2.241   6.199   5.985  0.1461 -0.0901 -0.7473
  114SAPE  H19S11945   2.408   6.172   6.036  1.2556 -2.8097  0.3201
  114SAPE  C22011946   2.291   5.992   6.040 -0.3530  0.2737  0.0009
  114SAPE  H20R11947   2.328   5.985   6.145 -0.1105 -1.5916 -0.1839
  114SAPE  H20S11948   2.349   5.912   5.989 -1.1699 -2.1033  2.5315
  114SAPE  H20T11949   2.186   5.963   6.018 -0.5843  1.2121 -0.1706
  114SAPE   C3311950   2.407   5.997   4.561  0.7522 -0.1691  0.2303
  114SAPE   H3X11951   2.433   5.896   4.523 -0.4263 -0.3244 -0.2017
  114SAPE   H3Y11952   2.297   5.988   4.551  0.4040  0.1543  3.0379
  114SAPE   C3411953   2.439   5.987   4.708  0.1193  0.1115 -0.8863
  114SAPE   H4X11954   2.549   5.996   4.703  0.1799 -0.5996 -0.9163
  114SAPE   H4Y11955   2.417   5.886   4.750 -1.4920 -0.0661 -2.0776
  114SAPE   C3511956   2.395   6.097   4.800 -0.5090  0.4097  1.0509
  114SAPE   H5X11957   2.285   6.083   4.813 -0.5007  0.0451  0.7642
  114SAPE   H5Y11958   2.416   6.189   4.742 -0.5946  0.3399  0.9095
  114SAPE   C3611959   2.467   6.097   4.940  0.2245 -0.0524  0.7152
  114SAPE   H6X11960   2.448   6.196   4.985 -2.5320 -0.0741 -0.2102
  114SAPE   H6Y11961   2.578   6.098   4.930  0.2875  2.3937  1.1616
  114SAPE   C3711962   2.435   5.979   5.038  0.2187  0.5567 -0.8043
  114SAPE   H7X11963   2.448   5.881   4.989 -0.9953  0.4405 -0.9055
  114SAPE   H7Y11964   2.327   5.990   5.059  0.1710 -0.0961 -0.6982
  114SAPE   C3811965   2.509   5.986   5.171 -0.5646  0.4553 -0.6093
  114SAPE   H8X11966   2.513   6.091   5.207 -1.2914  0.7067 -1.2459
  114SAPE   H8Y11967   2.618   5.963   5.165 -0.2674  1.4327  0.6018
  114SAPE   C3911968   2.433   5.906   5.292 -0.7381  0.0003  0.6323
  114SAPE   H9X11969   2.418   5.800   5.264  1.2068 -0.3174  0.6998
  114SAPE   H9Y11970   2.335   5.959   5.295 -1.1249 -0.4675 -1.5106
  114SAPE  C31011971   2.518   5.923   5.418 -0.3371  0.1212  0.6047
  114SAPE  H10X11972   2.518   6.030   5.447 -2.2054  0.8916 -1.9101
  114SAPE  H10Y11973   2.627   5.908   5.401 -0.6015 -0.7726 -0.3858
  114SAPE  C31111974   2.469   5.836   5.527  0.3606 -0.1273  0.0444
  114SAPE  H11X11975   2.421   5.742   5.492 -0.4980 -0.5668  2.2378
  114SAPE  H11Y11976   2.378   5.888   5.564 -1.7879 -1.4265 -2.9513
  114SAPE  C31211977   2.578   5.798   5.624 -0.1900 -0.0755 -0.5301
  114SAPE  H12X11978   2.617   5.891   5.670 -4.0479  1.2918  0.3677
  114SAPE  H12Y11979   2.657   5.739   5.572 -1.6444 -0.5924 -2.3111
  114SAPE  C31311980   2.516   5.714   5.739  0.6711  0.0280 -0.3388
  114SAPE  H13X11981   2.459   5.625   5.704  1.0560 -0.5236  0.3937
  114SAPE  H13Y11982   2.445   5.787   5.783  2.0561  0.8729  0.5732
  114SAPE  C31411983   2.610   5.683   5.854 -0.6665 -0.4217 -0.5286
  114SAPE  H14X11984   2.678   5.766   5.885  6.0121 -5.1198 -0.4893
  114SAPE  H14Y11985   2.683   5.610   5.813 -0.0071  0.8659 -1.7551
  114SAPE  C31511986   2.536   5.615   5.977 -0.8099 -0.4606 -0.0542
  114SAPE  H15X11987   2.460   5.540   5.946 -1.5045  0.1346  0.1655
  114SAPE  H15Y11988   2.481   5.694   6.032 -1.5449  0.3899 -1.9293
  114SAPE  C31611989   2.636   5.538   6.073  0.2035  0.0996 -0.0715
  114SAPE  H16X11990   2.591   5.530   6.175 -1.7791 -1.4377 -1.0067
  114SAPE  H16Y11991   2.731   5.591   6.092 -0.2318  0.4148  1.4362
  114SAPE  C31711992   2.669   5.394   6.029 -0.2601  0.4950  0.0820
  114SAPE  H17X11993   2.745   5.388   5.947  1.4417 -0.1040  1.6345
  114SAPE  H17Y11994   2.578   5.351   5.982  0.2597 -0.1359 -0.3622
  114SAPE  C31811995   2.697   5.299   6.141  0.0450  0.6464  0.4132
  114SAPE  H18X11996   2.701   5.194   6.106  0.4613  0.5859  0.6303
  114SAPE  H18Y11997   2.627   5.315   6.226  0.7110  0.1420  1.0739
  114SAPE  H18Z11998   2.796   5.310   6.190  0.9105 -3.6629  0.0534
  115SAPE     N11999   5.856   4.909   4.007 -0.5888 -0.0636  0.2132
  115SAPE   HN112000   5.865   4.971   4.090 -0.1009  3.4123 -2.2091
  115SAPE   HN212001   5.782   4.838   4.022 -1.4053  1.0206  1.5150
  115SAPE   HN312002   5.946   4.856   4.004 -1.1445 -1.0139 -1.8892
  115SAPE   C1212003   5.811   4.979   3.885  0.5716 -0.2342 -1.0215
  115SAPE  H12A12004   5.785   4.904   3.807  0.3273 -1.1221 -0.0947
  115SAPE  H12B12005   5.880   5.060   3.853 -2.1155  2.1193 -1.2773
  115SAPE   C1112006   5.676   5.057   3.920  0.9062  0.2093  0.7100
  115SAPE  H11A12007   5.598   4.980   3.941 -0.3186  1.4031  0.6474
  115SAPE  H11B12008   5.643   5.117   3.833  0.2535 -1.7151 -0.4445
  115SAPE     P12009   5.576   5.215   4.106 -0.1177 -0.3936  0.0203
  115SAPE   O1312010   5.634   5.303   4.213  0.2262 -0.6062  0.4805
  115SAPE   O1412011   5.500   5.289   4.006  0.1868  0.5534 -0.1523
  115SAPE   O1212012   5.692   5.133   4.046 -0.2652  0.5881 -0.6230
  115SAPE   O1112013   5.474   5.115   4.169  0.2242  0.2545  0.1108
  115SAPE    C112014   5.414   5.151   4.293 -0.2818 -0.4677 -0.3633
  115SAPE    HA12015   5.498   5.152   4.366  1.0459  0.3740 -1.8260
  115SAPE    HB12016   5.368   5.251   4.284 -1.1333 -1.0154 -3.9846
  115SAPE    C212017   5.300   5.057   4.341 -0.0324  0.6736  0.0812
  115SAPE    HS12018   5.362   4.968   4.366 -1.1345  0.1429  0.9708
  115SAPE   O2112019   5.204   5.030   4.236  0.4312  0.2100  0.4722
  115SAPE   C2112020   5.140   4.911   4.237 -0.5283 -0.1500 -0.2828
  115SAPE   O2212021   5.167   4.820   4.319 -0.0532  0.2755 -0.6091
  115SAPE   C2212022   5.043   4.908   4.122  0.0514 -0.2449  0.5486
  115SAPE   H2R12023   5.079   4.979   4.045 -0.0338  1.7347  2.2412
  115SAPE   H2S12024   5.039   4.810   4.070 -1.0093 -0.1575  0.4407
  115SAPE    C312025   5.223   5.108   4.462  0.4590 -0.6105 -0.7646
  115SAPE    HX12026   5.161   5.025   4.503 -3.0722  1.6484 -1.0760
  115SAPE    HY12027   5.148   5.181   4.425  1.2885  0.2810 -0.7205
  115SAPE   O3112028   5.314   5.165   4.562 -0.3946 -0.2678 -0.4886
  115SAPE   C3112029   5.304   5.292   4.578  0.2304 -0.4325 -0.3883
  115SAPE   O3212030   5.213   5.361   4.534  0.0059 -1.1930 -0.3019
  115SAPE   C3212031   5.442   5.343   4.644  0.6606 -0.8685  0.8728
  115SAPE   H2X12032   5.443   5.454   4.657 -0.8363 -0.8361  0.9036
  115SAPE   H2Y12033   5.525   5.321   4.574  0.6147  0.3270  0.4119
  115SAPE   C2312034   4.899   4.950   4.173 -0.4082 -0.6021  0.1764
  115SAPE   H3R12035   4.830   4.948   4.086 -0.2316  0.2015  0.0063
  115SAPE   H3S12036   4.904   5.056   4.206 -2.8772 -0.0643 -0.9180
  115SAPE   C2412037   4.837   4.865   4.288 -0.6753 -0.3330 -0.5372
  115SAPE   H4R12038   4.735   4.905   4.310 -0.1811  0.4853  0.3207
  115SAPE   H4S12039   4.902   4.884   4.376 -0.2670 -1.5102 -0.5737
  115SAPE   C2512040   4.834   4.715   4.263 -0.0183 -0.1343  0.0347
  115SAPE   H5R12041   4.872   4.689   4.163 -0.1059 -0.5852  0.1160
  115SAPE   C2612042   4.779   4.630   4.348 -0.2580 -0.9689 -0.2471
  115SAPE   H6R12043   4.781   4.523   4.324 -0.8254 -1.5879  2.2088
  115SAPE   C2712044   4.732   4.669   4.487  0.0946  0.6569 -0.3977
  115SAPE   H7R12045   4.622   4.658   4.493  0.2860 -1.1971  0.1518
  115SAPE   H7S12046   4.748   4.776   4.514  0.8666  1.2673 -2.9851
  115SAPE   C2812047   4.779   4.582   4.594 -0.0833  0.0170 -0.0019
  115SAPE   H8R12048   4.709   4.501   4.623  0.6299 -0.9402 -0.8809
  115SAPE   C2912049   4.896   4.597   4.664  0.3758  0.4320  0.1875
  115SAPE   H9R12050   4.908   4.533   4.753  1.8138 -0.0338 -0.3151
  115SAPE  C21012051   5.003   4.698   4.632  0.0947 -0.3160 -0.2487
  115SAPE  H10R12052   4.963   4.801   4.644  3.4120  0.9552  1.4542
  115SAPE  H10S12053   5.032   4.678   4.527  3.9543 -0.4833  0.6816
  115SAPE  C21112054   5.133   4.695   4.702  0.0918 -0.1755  0.2464
  115SAPE  H11R12055   5.220   4.654   4.648 -0.1606 -1.4496  0.7535
  115SAPE  C21212056   5.155   4.750   4.823 -0.3269  0.6293 -0.0398
  115SAPE  H12R12057   5.255   4.742   4.867 -0.1450  0.0463 -0.5359
  115SAPE  C21312058   5.041   4.818   4.897  0.8322  0.0282  0.2130
  115SAPE  H13R12059   4.940   4.803   4.853  0.6506  0.4428  0.4778
  115SAPE  H13S12060   5.056   4.926   4.874 -2.5725  0.2647 -1.5351
  115SAPE  C21412061   5.041   4.789   5.048 -0.1598 -0.5064 -0.6773
  115SAPE  H14R12062   5.070   4.685   5.071  0.4199 -0.9875 -3.1960
  115SAPE  C21512063   5.007   4.874   5.150 -0.4218  0.7830  0.9498
  115SAPE  H15R12064   5.017   4.832   5.251  3.4436 -0.7804  0.0887
  115SAPE  C21612065   4.958   5.014   5.138 -0.2128  0.2887 -0.8302
  115SAPE  H16R12066   4.855   5.020   5.181  1.1287 -1.7979  3.1669
  115SAPE  H16S12067   4.956   5.050   5.033  0.3257  1.2907 -0.5114
  115SAPE  C21712068   5.041   5.108   5.232  0.2101  0.4303 -0.0385
  115SAPE  H17R12069   4.993   5.207   5.221 -1.0644  0.0742  1.8504
  115SAPE  H17S12070   5.145   5.133   5.199 -0.0148  1.8958  0.2862
  115SAPE  C21812071   5.043   5.084   5.388 -0.1867 -0.0732  0.7426
  115SAPE  H18R12072   4.951   5.028   5.417 -0.0397 -2.2848 -2.4787
  115SAPE  H18S12073   5.044   5.185   5.434 -3.5248  0.8666 -0.8691
  115SAPE  C21912074   5.158   5.005   5.444  0.6132 -0.2325  0.2452
  115SAPE  H19R12075   5.248   5.058   5.407  0.2157  1.2713  1.3364
  115SAPE  H19S12076   5.151   4.898   5.413  1.7950 -0.0804 -0.6062
  115SAPE  C22012077   5.162   4.999   5.593  0.1895  0.2339  1.1948
  115SAPE  H20R12078   5.173   5.102   5.634 -0.0852  0.9129 -0.3743
  115SAPE  H20S12079   5.249   4.934   5.618  0.2391 -0.7503 -1.2416
  115SAPE  H20T12080   5.081   4.946   5.646  3.2570 -3.4810  2.6634
  115SAPE   C3312081   5.460   5.272   4.779 -0.3941  0.4750  0.5322
  115SAPE   H3X12082   5.562   5.273   4.822  0.6681  0.4768 -1.8767
  115SAPE   H3Y12083   5.452   5.164   4.752  0.9630  0.0770  1.6123
  115SAPE   C3412084   5.367   5.321   4.895 -0.3806  0.1529 -0.7042
  115SAPE   H4X12085   5.264   5.290   4.869 -0.3410  0.2951 -1.0423
  115SAPE   H4Y12086   5.379   5.432   4.895 -0.9353  0.2171 -0.9202
  115SAPE   C3512087   5.412   5.269   5.029 -0.1727  0.1624 -0.1216
  115SAPE   H5X12088   5.516   5.230   5.032  0.1277  0.9622  2.1629
  115SAPE   H5Y12089   5.352   5.179   5.051  1.9045 -1.2519  0.0657
  115SAPE   C3612090   5.373   5.368   5.139 -0.1859  0.8632  0.3571
  115SAPE   H6X12091   5.263   5.384   5.136 -0.2336  0.5261 -2.0291
  115SAPE   H6Y12092   5.425   5.465   5.123  1.1681  0.0937 -0.0233
  115SAPE   C3712093   5.405   5.316   5.281 -0.9651 -0.3194  0.6914
  115SAPE   H7X12094   5.508   5.276   5.293 -1.5556 -1.7662  1.1003
  115SAPE   H7Y12095   5.341   5.226   5.279  0.4137 -1.3150  0.4200
  115SAPE   C3812096   5.378   5.416   5.403  0.1156 -0.3780 -0.5032
  115SAPE   H8X12097   5.274   5.455   5.400 -1.8573 -5.0037  0.1085
  115SAPE   H8Y12098   5.447   5.502   5.389  0.3635 -0.4917 -0.0095
  115SAPE   C3912099   5.378   5.352   5.544  0.3522 -0.0015  0.7272
  115SAPE   H9X12100   5.453   5.269   5.550  0.5625  0.2042  0.9565
  115SAPE   H9Y12101   5.283   5.297   5.561  1.4239 -1.6759  1.7061
  115SAPE  C31012102   5.417   5.448   5.658  0.3497  0.9339 -0.4054
  115SAPE  H10X12103   5.361   5.543   5.672 -1.1428 -0.2133  2.0835
  115SAPE  H10Y12104   5.522   5.466   5.628  0.2341 -1.7175 -2.9302
  115SAPE  C31112105   5.417   5.383   5.798  0.1475  0.2266  0.3578
  115SAPE  H11X12106   5.451   5.278   5.788  0.2062  0.1253  1.4939
  115SAPE  H11Y12107   5.313   5.375   5.835  0.2068  0.1659  0.5166
  115SAPE  C31212108   5.505   5.454   5.910 -0.3905 -0.3657 -0.6503
  115SAPE  H12X12109   5.458   5.545   5.953 -0.0612 -1.2521  1.7159
  115SAPE  H12Y12110   5.604   5.481   5.867 -0.0786 -1.0484 -0.3752
  115SAPE  C31312111   5.540   5.355   6.031  0.3621 -0.6128 -0.2475
  115SAPE  H13X12112   5.581   5.409   6.119 -2.5529  2.4053 -0.5707
  115SAPE  H13Y12113   5.608   5.277   5.990  1.2033 -0.1280  0.1923
  115SAPE  C31412114   5.408   5.280   6.079  0.2295 -0.4017 -0.5109
  115SAPE  H14X12115   5.378   5.207   6.001  0.9873  0.6428 -1.8157
  115SAPE  H14Y12116   5.323   5.348   6.100 -0.6748 -1.4121 -0.7731
  115SAPE  C31512117   5.453   5.195   6.202 -0.6157 -0.1717  0.1404
  115SAPE  H15X12118   5.556   5.154   6.194 -1.3661 -1.7971 -2.8929
  115SAPE  H15Y12119   5.374   5.117   6.201 -0.8146  0.0046  1.0261
  115SAPE  C31612120   5.452   5.267   6.344 -0.3948  0.5922  0.4637
  115SAPE  H16X12121   5.352   5.310   6.361 -0.7831 -0.6606  1.5255
  115SAPE  H16Y12122   5.526   5.350   6.355 -0.6188  0.7836  0.5209
  115SAPE  C31712123   5.479   5.172   6.458  0.2840 -0.5373  0.5344
  115SAPE  H17X12124   5.583   5.135   6.439  0.3467  0.3171 -0.9722
  115SAPE  H17Y12125   5.415   5.082   6.465 -1.9016  0.4495 -3.4928
  115SAPE  C31812126   5.478   5.239   6.594 -0.2996 -0.1550  0.0386
  115SAPE  H18X12127   5.531   5.173   6.667 -2.1507 -0.1450  1.4806
  115SAPE  H18Y12128   5.376   5.263   6.633  0.4014 -2.8238  4.2233
  115SAPE  H18Z12129   5.541   5.330   6.588  0.1019 -0.3561  0.9680
  116SAPE     N12130   4.869   0.445   3.242 -0.3572  0.1674  0.0354
  116SAPE   HN112131   4.835   0.543   3.251  0.0447  0.3376 -0.2148
  116SAPE   HN212132   4.825   0.378   3.176  0.7091 -0.7569  0.2395
  116SAPE   HN312133   4.851   0.396   3.331 -1.4173  0.3220 -0.0877
  116SAPE   C1212134   5.013   0.460   3.207 -0.3794  0.4158 -0.4661
  116SAPE  H12A12135   5.015   0.551   3.143 -1.3328  0.4608 -0.4431
  116SAPE  H12B12136   5.048   0.373   3.148  0.8725  0.0870  0.6905
  116SAPE   C1112137   5.119   0.479   3.326  0.5741 -0.2512  0.0215
  116SAPE  H11A12138   5.206   0.533   3.284  1.1783 -1.5713 -0.4613
  116SAPE  H11B12139   5.141   0.375   3.358  0.3305 -0.6548 -1.0890
  116SAPE     P12140   5.035   0.693   3.444 -0.0573 -0.2536 -0.4134
  116SAPE   O1312141   5.153   0.777   3.421 -0.3197  0.0937  0.1830
  116SAPE   O1412142   4.933   0.720   3.341 -0.5076 -0.0652  0.4400
  116SAPE   O1212143   5.071   0.540   3.441  0.5431 -0.0221  0.1896
  116SAPE   O1112144   4.975   0.721   3.591  0.6482  0.2910  0.2494
  116SAPE    C112145   4.857   0.645   3.625  0.6635 -0.3945 -0.2074
  116SAPE    HA12146   4.766   0.700   3.591  0.3282  0.2861  1.6255
  116SAPE    HB12147   4.857   0.544   3.580  2.2659 -0.8834  0.7913
  116SAPE    C212148   4.849   0.627   3.778  0.4427 -0.0498  0.1337
  116SAPE    HS12149   4.747   0.602   3.815  1.2949 -1.9275  1.4024
  116SAPE   O2112150   4.900   0.745   3.848  0.4664 -0.5971  0.3496
  116SAPE   C2112151   4.810   0.841   3.879  0.2733  0.2924 -0.5268
  116SAPE   O2212152   4.688   0.831   3.855  0.2452 -0.0593  0.4390
  116SAPE   C2212153   4.880   0.955   3.948  0.1995 -0.0797 -0.6065
  116SAPE   H2R12154   4.870   0.937   4.057  1.0224  1.0393 -0.3175
  116SAPE   H2S12155   4.990   0.940   3.938  0.2424 -2.4171  2.0375
  116SAPE    C312156   4.941   0.516   3.827 -0.3759 -0.4264 -0.1019
  116SAPE    HX12157   5.041   0.563   3.811 -1.0710  0.7731 -1.0761
  116SAPE    HY12158   4.935   0.424   3.765  2.1678 -0.8832  0.2074
  116SAPE   O3112159   4.908   0.463   3.965  0.6001 -0.6316  0.0505
  116SAPE   C3112160   5.017   0.440   4.043  0.8638 -0.5787  0.4080
  116SAPE   O3212161   5.129   0.487   4.019 -0.9278  0.2253  0.5969
  116SAPE   C3212162   4.980   0.355   4.166  0.2624  0.4724 -0.0443
  116SAPE   H2X12163   4.889   0.300   4.135 -0.3891  0.6593  1.4608
  116SAPE   H2Y12164   4.961   0.414   4.258 -1.2071  0.2512 -0.1778
  116SAPE   C2312165   4.818   1.097   3.925  0.1996 -0.1080 -0.8344
  116SAPE   H3R12166   4.716   1.102   3.881 -1.8704  0.9741  3.5283
  116SAPE   H3S12167   4.883   1.147   3.849  0.0464  0.8887 -0.3093
  116SAPE   C2412168   4.818   1.197   4.044  0.1532  0.2306  0.3160
  116SAPE   H4R12169   4.783   1.296   4.009 -0.2576  0.3002  0.9115
  116SAPE   H4S12170   4.922   1.199   4.081 -0.8214 -0.1864  3.3164
  116SAPE   C2512171   4.734   1.155   4.164 -0.1103 -0.4026  0.0839
  116SAPE   H5R12172   4.787   1.138   4.259 -0.8430 -2.4122  0.1724
  116SAPE   C2612173   4.606   1.152   4.168  0.5535  0.0569 -0.5833
  116SAPE   H6R12174   4.538   1.135   4.253  0.6990 -1.1162 -0.6930
  116SAPE   C2712175   4.507   1.184   4.061 -0.0539  0.4406  0.0103
  116SAPE   H7R12176   4.453   1.090   4.038  3.8305 -2.0091  0.0532
  116SAPE   H7S12177   4.558   1.202   3.963  1.5602  0.4037  0.8112
  116SAPE   C2812178   4.417   1.309   4.069 -0.1943  0.3654 -0.6522
  116SAPE   H8R12179   4.434   1.397   4.006 -2.1594  0.7051 -0.7576
  116SAPE   C2912180   4.309   1.325   4.146 -0.3348 -0.1446  0.2122
  116SAPE   H9R12181   4.250   1.417   4.148 -1.1178 -0.6214 -0.3242
  116SAPE  C21012182   4.248   1.216   4.227 -1.1459 -0.6309 -0.1834
  116SAPE  H10R12183   4.222   1.254   4.328  0.4114 -2.7796  1.1221
  116SAPE  H10S12184   4.333   1.147   4.245  0.7306  1.6358  0.1428
  116SAPE  C21112185   4.138   1.130   4.168  0.0760 -0.5353  0.0827
  116SAPE  H11R12186   4.151   1.099   4.063  0.6070 -0.8001  0.2250
  116SAPE  C21212187   4.037   1.072   4.239  0.2304  0.0001  0.3058
  116SAPE  H12R12188   3.965   1.004   4.193  0.8187  0.0208 -0.6786
  116SAPE  C21312189   4.017   1.096   4.381  0.7379 -0.0781 -0.7847
  116SAPE  H13R12190   3.960   1.189   4.402  2.5612  0.2142  4.5318
  116SAPE  H13S12191   4.116   1.115   4.428  0.1343  2.6196 -0.4530
  116SAPE  C21412192   3.958   0.975   4.452 -0.1245 -0.0368  0.3271
  116SAPE  H14R12193   4.034   0.910   4.498 -1.4553 -0.9370  1.3243
  116SAPE  C21512194   3.824   0.960   4.466  0.5674  0.0395  0.3469
  116SAPE  H15R12195   3.795   0.865   4.513  2.8166 -0.4101  0.9171
  116SAPE  C21612196   3.718   1.050   4.415  0.4156 -0.4791  0.2671
  116SAPE  H16R12197   3.765   1.140   4.371  0.4697  0.4108  2.0713
  116SAPE  H16S12198   3.661   1.084   4.503  0.7007  1.2632 -0.1847
  116SAPE  C21712199   3.616   0.980   4.317  0.5327  0.4583  0.0834
  116SAPE  H17R12200   3.527   1.045   4.330  1.2215  1.0794  2.0707
  116SAPE  H17S12201   3.594   0.877   4.351 -1.4414 -0.0016 -2.2941
  116SAPE  C21812202   3.667   0.977   4.172 -0.0802  0.1004  0.3850
  116SAPE  H18R12203   3.748   0.903   4.151  0.9072  1.7916 -2.2585
  116SAPE  H18S12204   3.704   1.079   4.152  1.3982 -0.6252 -0.7982
  116SAPE  C21912205   3.553   0.959   4.068  0.1993 -0.7876 -0.1970
  116SAPE  H19R12206   3.473   1.033   4.088  0.1384 -1.0881  0.6908
  116SAPE  H19S12207   3.509   0.860   4.089 -0.8696 -0.2474  0.1713
  116SAPE  C22012208   3.587   0.964   3.914  0.9907  0.2693  0.3940
  116SAPE  H20R12209   3.633   1.062   3.889 -0.4801  0.8499 -0.0964
  116SAPE  H20S12210   3.491   0.962   3.858  1.5459  2.8894 -0.7724
  116SAPE  H20T12211   3.637   0.869   3.883 -2.8376 -1.3615 -1.5535
  116SAPE   C3312212   5.099   0.258   4.190 -0.0422  0.6772  0.0264
  116SAPE   H3X12213   5.150   0.228   4.096  0.0541  0.6854  0.0761
  116SAPE   H3Y12214   5.059   0.165   4.236  2.6605  0.1227  1.4235
  116SAPE   C3412215   5.202   0.314   4.299 -0.0976  0.5015 -0.0183
  116SAPE   H4X12216   5.152   0.314   4.399  1.8600 -0.7260  1.0277
  116SAPE   H4Y12217   5.222   0.420   4.275  1.2431  0.3442  0.3610
  116SAPE   C3512218   5.330   0.240   4.307  0.3032  0.7438 -0.1076
  116SAPE   H5X12219   5.381   0.254   4.209 -0.3806 -1.4231 -0.8281
  116SAPE   H5Y12220   5.329   0.131   4.330  0.2107 -0.1994 -3.8328
  116SAPE   C3612221   5.426   0.295   4.411 -0.7083 -0.4189 -0.1151
  116SAPE   H6X12222   5.409   0.403   4.391  0.5436 -0.1443  0.2153
  116SAPE   H6Y12223   5.532   0.262   4.401 -1.7910 -4.5451  0.2409
  116SAPE   C3712224   5.377   0.267   4.560 -0.0164 -0.4359 -0.3562
  116SAPE   H7X12225   5.357   0.158   4.553  1.6812 -0.7432 -0.9400
  116SAPE   H7Y12226   5.285   0.316   4.596  0.3197 -2.5195  3.9657
  116SAPE   C3812227   5.491   0.290   4.658  0.5396 -0.5334 -0.8049
  116SAPE   H8X12228   5.520   0.396   4.644  0.5851 -0.5505 -0.8410
  116SAPE   H8Y12229   5.578   0.223   4.646  0.9684 -0.0488 -0.4446
  116SAPE   C3912230   5.442   0.258   4.804  0.2969  0.1377  0.7075
  116SAPE   H9X12231   5.343   0.300   4.830 -0.7834 -1.7931 -0.1085
  116SAPE   H9Y12232   5.530   0.289   4.865  0.0860 -1.1025  1.6935
  116SAPE  C31012233   5.434   0.107   4.837  0.7190 -0.0963 -0.8659
  116SAPE  H10X12234   5.531   0.062   4.809  0.7999 -0.5500  0.1036
  116SAPE  H10Y12235   5.361   0.057   4.769 -0.8137  0.5442  0.2500
  116SAPE  C31112236   5.400   0.074   4.981  0.4712  0.1816  0.1437
  116SAPE  H11X12237   5.380  -0.035   4.986  0.8352 -0.0008 -1.5774
  116SAPE  H11Y12238   5.307   0.122   5.016 -0.3714 -1.7979  0.7603
  116SAPE  C31212239   5.519   0.107   5.072 -0.5090 -0.2815  0.6413
  116SAPE  H12X12240   5.530   0.218   5.078  1.0680 -0.3851  0.1107
  116SAPE  H12Y12241   5.612   0.062   5.032 -0.8342 -1.2059  0.8936
  116SAPE  C31312242   5.510   0.054   5.213 -0.4479 -0.1614  0.0356
  116SAPE  H13X12243   5.501  -0.056   5.203  2.0011 -0.4372  0.1655
  116SAPE  H13Y12244   5.422   0.093   5.268  0.3483  1.0911  0.4557
  116SAPE  C31412245   5.624   0.099   5.301 -0.1549  0.3450  0.6754
  116SAPE  H14X12246   5.631   0.210   5.305 -2.1668  0.5298  0.4175
  116SAPE  H14Y12247   5.718   0.064   5.254 -1.4245 -0.2152 -1.5861
  116SAPE  C31512248   5.631   0.025   5.442  0.2525 -0.1799 -0.4709
  116SAPE  H15X12249   5.620  -0.084   5.423 -2.1817  0.2915 -2.3535
  116SAPE  H15Y12250   5.532   0.046   5.488  1.0682  0.7912  0.9015
  116SAPE  C31612251   5.739   0.068   5.540 -0.5321 -0.1201  0.7181
  116SAPE  H16X12252   5.701   0.167   5.573  3.3999  1.7270  0.2879
  116SAPE  H16Y12253   5.839   0.077   5.491 -0.5617 -0.1485  0.6520
  116SAPE  C31712254   5.754  -0.018   5.667  0.4991 -0.1248 -0.3584
  116SAPE  H17X12255   5.828   0.031   5.733  1.0662 -0.9504 -0.3661
  116SAPE  H17Y12256   5.794  -0.116   5.635  1.5912  0.6113 -1.3272
  116SAPE  C31812257   5.626  -0.043   5.750  0.2974  0.4748  0.1074
  116SAPE  H18X12258   5.656  -0.092   5.845  1.7138  0.9384 -0.0902
  116SAPE  H18Y12259   5.563  -0.111   5.688  1.4629  0.0923 -0.6834
  116SAPE  H18Z12260   5.573   0.052   5.774 -1.1948 -0.6591  1.5676
  117SOPE     N12261   3.114   0.407   0.022  0.1036 -0.0112 -0.0911
  117SOPE   HN112262   3.013   0.410  -0.004  0.0909  0.9041  0.0292
  117SOPE   HN212263   3.122   0.391   0.125  1.2205 -0.3331 -0.2117
  117SOPE   HN312264   3.165   0.494  -0.004  0.2427  0.2814  1.1091
  117SOPE   C1212265   3.176   0.293  -0.044  0.3444  0.5545  0.6716
  117SOPE  H12A12266   3.132   0.199  -0.003  0.4779  1.1056  2.1308
  117SOPE  H12B12267   3.286   0.293  -0.038  0.3795 -0.4285  0.2244
  117SOPE   C1112268   3.141   0.296  -0.195  0.2380 -0.7912  0.1214
  117SOPE  H11A12269   3.165   0.401  -0.221  0.2506 -0.0204  2.8593
  117SOPE  H11B12270   3.033   0.281  -0.218 -0.1004  0.5002  0.7586
  117SOPE     P12271   3.205   0.057  -0.276  0.4281 -0.1199  0.1458
  117SOPE   O1312272   3.078   0.020  -0.357 -0.2286  0.4822 -0.0855
  117SOPE   O1412273   3.211   0.022  -0.135 -0.7364 -0.3336  0.0197
  117SOPE   O1212274   3.229   0.213  -0.276 -0.4892  0.8495  0.0832
  117SOPE   O1112275   3.335   0.001  -0.347  0.5248 -0.5014  0.2016
  117SOPE    C112276   3.384   0.079  -0.461  0.4824 -0.8642  0.2040
  117SOPE    HA12277   3.432   0.175  -0.431  0.7781 -1.0030  0.1739
  117SOPE    HB12278   3.306   0.112  -0.533  1.0152 -0.1205 -0.0444
  117SOPE    C212279   3.498   0.005  -0.535 -0.0277  0.4608  0.1973
  117SOPE    HS12280   3.573   0.082  -0.564 -1.9670  2.5757  0.4666
  117SOPE   O2112281   3.448  -0.073  -0.644  0.6827 -0.0181  0.2083
  117SOPE   C2112282   3.439  -0.007  -0.752 -0.1378 -0.3044  0.3706
  117SOPE   O2212283   3.476   0.109  -0.770 -0.6256  0.1459 -0.6501
  117SOPE   C2212284   3.377  -0.087  -0.864  0.0827  0.2319  0.6202
  117SOPE   H2R12285   3.317  -0.020  -0.929  1.9229 -1.6642 -3.3673
  117SOPE   H2S12286   3.320  -0.173  -0.820 -1.6401 -0.0500 -1.9750
  117SOPE    C312287   3.572  -0.089  -0.443 -0.4155  0.4400  0.5430
  117SOPE    HX12288   3.507  -0.176  -0.421 -0.2413 -0.1189 -1.0155
  117SOPE    HY12289   3.592  -0.043  -0.344  0.8640  0.6124  0.2257
  117SOPE   O3112290   3.689  -0.122  -0.516  0.5056  0.0357 -0.5826
  117SOPE   C3112291   3.741  -0.238  -0.485 -0.2818 -0.6450  0.1239
  117SOPE   O3212292   3.712  -0.317  -0.397 -0.0639  0.1205 -0.0720
  117SOPE   C3212293   3.847  -0.272  -0.590 -0.1766 -0.1548 -1.3904
  117SOPE   H2X12294   3.940  -0.301  -0.537 -1.1905 -2.1847 -0.5847
  117SOPE   H2Y12295   3.869  -0.179  -0.646  0.5630  0.9178  0.5698
  117SOPE   C2312296   3.488  -0.162  -0.949  1.0435 -0.0482 -0.4073
  117SOPE   H3R12297   3.551  -0.233  -0.891  0.6620 -0.1158 -0.0684
  117SOPE   H3S12298   3.556  -0.085  -0.990  0.3646  0.6582 -0.2222
  117SOPE   C2412299   3.423  -0.245  -1.064 -0.4108 -0.4871 -0.4801
  117SOPE   H4R12300   3.358  -0.323  -1.020  0.5135 -0.3941  1.1369
  117SOPE   H4S12301   3.369  -0.176  -1.132  0.1470 -2.0328 -2.5869
  117SOPE   C2512302   3.517  -0.325  -1.155 -0.2162  0.4058 -0.2402
  117SOPE   H5R12303   3.608  -0.263  -1.175  0.3981 -0.1081  0.8919
  117SOPE   H5S12304   3.558  -0.409  -1.096 -2.1628 -0.3456  0.1046
  117SOPE   C2612305   3.445  -0.383  -1.273 -0.0233 -0.3767  0.2234
  117SOPE   H6R12306   3.366  -0.456  -1.249  0.7967 -0.8363  1.6234
  117SOPE   H6S12307   3.392  -0.292  -1.309  1.0449  0.1938  0.0228
  117SOPE   C2712308   3.527  -0.440  -1.381 -0.2626 -0.0463  0.7244
  117SOPE   H7R12309   3.625  -0.393  -1.401  0.6708 -2.3746 -0.5671
  117SOPE   H7S12310   3.552  -0.546  -1.361  0.1542 -0.1621 -0.3116
  117SOPE   C2812311   3.456  -0.440  -1.523 -0.1442  0.0219 -0.2634
  117SOPE   H8R12312   3.429  -0.547  -1.540  0.7110  0.1165 -2.7269
  117SOPE   H8S12313   3.364  -0.380  -1.510  1.0441  2.9353 -3.5524
  117SOPE   C2912314   3.541  -0.393  -1.641  0.3232 -0.0337  0.0524
  117SOPE   H9112315   3.595  -0.299  -1.623  2.2194 -1.0685  0.0600
  117SOPE  C21012316   3.567  -0.453  -1.759 -0.3724 -0.2003  0.0970
  117SOPE  H10112317   3.625  -0.398  -1.835 -0.8444  0.8986  0.5219
  117SOPE  C21112318   3.506  -0.581  -1.810 -0.2947  0.4634  0.4177
  117SOPE  H11R12319   3.466  -0.638  -1.723 -1.1590  1.9762  1.0537
  117SOPE  H11S12320   3.581  -0.653  -1.849 -1.8339 -0.3729 -1.1688
  117SOPE  C21212321   3.405  -0.559  -1.913  1.0630 -1.1744  1.0506
  117SOPE  H12R12322   3.444  -0.507  -2.003  0.9566 -1.0462  1.0768
  117SOPE  H12S12323   3.326  -0.498  -1.864 -0.4295 -0.5115 -1.9539
  117SOPE  C21312324   3.336  -0.688  -1.967 -0.5483 -0.5754  0.4420
  117SOPE  H13R12325   3.245  -0.654  -2.021 -1.0168 -1.9764  0.3082
  117SOPE  H13S12326   3.320  -0.745  -1.873  0.9257  1.5985  2.1166
  117SOPE  C21412327   3.421  -0.761  -2.074  0.3665  0.1402 -0.0726
  117SOPE  H14R12328   3.508  -0.792  -2.012  0.3964  0.6147  0.1252
  117SOPE  H14S12329   3.459  -0.694  -2.154  2.2730  0.8924  1.3791
  117SOPE  C21512330   3.348  -0.886  -2.125  0.4754  0.9173 -0.1801
  117SOPE  H15R12331   3.270  -0.862  -2.200 -1.1103 -0.5946  0.9008
  117SOPE  H15S12332   3.292  -0.935  -2.043  0.2127  1.2451 -0.1650
  117SOPE  C21612333   3.447  -0.991  -2.181  0.1835  0.4344  0.2797
  117SOPE  H16R12334   3.412  -1.096  -2.172  2.3231 -0.2895  0.9965
  117SOPE  H16S12335   3.537  -0.982  -2.116 -1.5448  2.8314  2.5492
  117SOPE  C21712336   3.472  -0.959  -2.321  0.0672 -0.6496 -0.4101
  117SOPE  H17R12337   3.540  -0.872  -2.326 -0.0066 -0.4463  1.3319
  117SOPE  H17S12338   3.382  -0.931  -2.380  0.9450 -0.6525 -1.7793
  117SOPE  C21812339   3.540  -1.074  -2.400 -0.0583  0.0250 -0.4088
  117SOPE  H18R12340   3.484  -1.166  -2.370  1.6654 -0.4831  1.4780
  117SOPE  H18S12341   3.646  -1.066  -2.369 -0.6806  0.7148  1.7123
  117SOPE  H18T12342   3.523  -1.068  -2.509  0.2687 -1.4273 -0.5636
  117SOPE   C3312343   3.799  -0.384  -0.674 -0.0062  0.1946 -0.6662
  117SOPE   H3X12344   3.701  -0.357  -0.719 -1.7889 -0.0454  2.7491
  117SOPE   H3Y12345   3.772  -0.468  -0.607  1.6631  0.3680  0.2891
  117SOPE   C3412346   3.905  -0.437  -0.775 -0.1082  0.2457  0.6111
  117SOPE   H4X12347   3.936  -0.541  -0.750 -1.6663 -0.1169  1.1263
  117SOPE   H4Y12348   3.997  -0.374  -0.774  0.4163 -0.4648 -0.5033
  117SOPE   C3512349   3.850  -0.425  -0.918 -0.0416 -0.4288 -0.2720
  117SOPE   H5X12350   3.859  -0.318  -0.949 -2.4215 -0.3113 -0.7106
  117SOPE   H5Y12351   3.743  -0.453  -0.912  0.2687 -1.8725 -0.9181
  117SOPE   C3612352   3.927  -0.510  -1.021  0.5934 -1.3282 -0.3780
  117SOPE   H6X12353   3.920  -0.615  -0.983 -0.4144 -0.7344  1.1529
  117SOPE   H6Y12354   4.034  -0.481  -1.029  0.0976  0.2556 -1.6491
  117SOPE   C3712355   3.869  -0.509  -1.165  0.1304  0.2321  0.1354
  117SOPE   H7X12356   3.852  -0.401  -1.185 -0.0569  0.5984  2.0841
  117SOPE   H7Y12357   3.768  -0.556  -1.159  0.8245 -1.1975  1.0272
  117SOPE   C3812358   3.946  -0.581  -1.274 -0.8138  0.1911  0.0836
  117SOPE   H8X12359   3.969  -0.687  -1.248 -0.8127 -0.0171 -0.7319
  117SOPE   H8Y12360   4.040  -0.523  -1.274 -1.4342  1.3358  2.4306
  117SOPE   C3912361   3.865  -0.583  -1.400  0.0018  0.4195  0.6217
  117SOPE   H9X12362   3.801  -0.492  -1.399 -0.7731 -0.0676 -1.0122
  117SOPE   H9Y12363   3.794  -0.667  -1.384 -0.0878  0.8851  3.0156
  117SOPE  C31012364   3.957  -0.605  -1.523  0.7584 -0.5780  0.4480
  117SOPE  H10X12365   4.030  -0.688  -1.507 -0.3415 -1.3845  1.4210
  117SOPE  H10Y12366   4.007  -0.508  -1.541  0.3434 -0.7177 -1.7900
  117SOPE  C31112367   3.869  -0.635  -1.647  0.3679 -0.0492  0.2758
  117SOPE  H11X12368   3.808  -0.543  -1.659  1.3315  0.6378  0.4985
  117SOPE  H11Y12369   3.811  -0.727  -1.626  2.3614 -1.2222  0.9388
  117SOPE  C31212370   3.961  -0.654  -1.773 -0.0915 -0.2089  0.4727
  117SOPE  H12X12371   4.026  -0.744  -1.762 -0.5113 -0.7315 -1.0467
  117SOPE  H12Y12372   4.031  -0.571  -1.798 -0.0384 -0.3752  0.0566
  117SOPE  C31312373   3.866  -0.677  -1.895  0.2644  0.3933  0.0209
  117SOPE  H13X12374   3.826  -0.582  -1.936 -1.3806  0.3711  1.5065
  117SOPE  H13Y12375   3.779  -0.737  -1.862  0.1337  1.8635  2.5646
  117SOPE  C31412376   3.936  -0.756  -2.013 -0.1890  0.5937 -0.2592
  117SOPE  H14X12377   3.977  -0.847  -1.965  2.0018  1.6050 -0.0804
  117SOPE  H14Y12378   4.019  -0.698  -2.060  0.4510  0.5316  0.7636
  117SOPE  C31512379   3.841  -0.809  -2.122  0.4935 -0.1666 -0.2528
  117SOPE  H15X12380   3.769  -0.732  -2.158 -0.0770 -1.1170 -1.2482
  117SOPE  H15Y12381   3.771  -0.886  -2.083 -0.3390 -1.4086 -3.7885
  117SOPE  C31612382   3.905  -0.871  -2.248  0.2566  0.8538 -0.5374
  117SOPE  H16X12383   3.827  -0.860  -2.327 -0.5286 -1.2596 -0.1014
  117SOPE  H16Y12384   3.917  -0.981  -2.240  1.0329  1.0606  1.8820
  117SOPE  C31712385   4.038  -0.798  -2.292 -0.0384  0.2866 -0.1288
  117SOPE  H17X12386   4.120  -0.818  -2.219  0.3497 -1.5685 -1.0237
  117SOPE  H17Y12387   4.016  -0.689  -2.284  3.0055  0.9262  0.9049
  117SOPE  C31812388   4.090  -0.838  -2.431 -0.8695 -0.4830 -0.0540
  117SOPE  H18X12389   4.099  -0.949  -2.440  2.2444 -0.3415  0.2792
  117SOPE  H18Y12390   4.180  -0.780  -2.460 -1.1524  0.5067  0.9817
  117SOPE  H18Z12391   4.013  -0.810  -2.507 -0.4697 -1.5475 -0.8931
  118SOPE     N12392   2.856   0.611   8.407 -0.0916 -0.7670 -0.2556
  118SOPE   HN112393   2.801   0.688   8.452 -0.3149 -0.2613 -1.3667
  118SOPE   HN212394   2.813   0.528   8.452 -1.4827 -0.3981 -0.8526
  118SOPE   HN312395   2.956   0.619   8.434 -0.2529  1.9333 -0.1710
  118SOPE   C1212396   2.854   0.617   8.255  0.1812  0.3849  0.2979
  118SOPE  H12A12397   2.750   0.619   8.216 -0.0697  0.2065  0.9512
  118SOPE  H12B12398   2.897   0.525   8.210  0.3581  0.2471  0.7416
  118SOPE   C1112399   2.947   0.726   8.202  0.7686 -0.0496 -0.4180
  118SOPE  H11A12400   2.945   0.737   8.092  0.7838 -1.9697 -0.6524
  118SOPE  H11B12401   3.047   0.686   8.230  0.1981  0.1724  2.3067
  118SOPE     P12402   2.812   0.944   8.216  0.3016  0.4010 -0.2102
  118SOPE   O1312403   2.838   1.072   8.284  0.2859  0.2535 -0.0556
  118SOPE   O1412404   2.681   0.889   8.241 -0.2403  0.1067 -0.1310
  118SOPE   O1212405   2.928   0.849   8.273  0.1840  0.0740 -0.2047
  118SOPE   O1112406   2.838   0.954   8.064 -0.3868  0.2064 -0.2070
  118SOPE    C112407   2.964   0.989   8.004 -0.5710 -0.1723 -0.3493
  118SOPE    HA12408   3.045   0.919   8.032  2.1712  2.2019 -1.8070
  118SOPE    HB12409   2.988   1.091   8.040 -2.0363  0.1647 -0.2613
  118SOPE    C212410   2.964   0.988   7.850 -0.4200  0.5659 -0.2347
  118SOPE    HS12411   2.884   1.054   7.810  1.2128  3.0619  0.3858
  118SOPE   O2112412   2.958   0.845   7.805 -0.6032 -0.2600 -0.1931
  118SOPE   C2112413   2.835   0.809   7.788 -0.0358 -0.1217 -0.5588
  118SOPE   O2212414   2.733   0.883   7.795 -0.3918  0.2344  0.5949
  118SOPE   C2212415   2.822   0.663   7.747  0.5840  1.4633 -0.2011
  118SOPE   H2R12416   2.714   0.649   7.724  1.1874 -1.6232 -1.7884
  118SOPE   H2S12417   2.850   0.611   7.841  0.8133 -1.3103 -1.6901
  118SOPE    C312418   3.100   1.049   7.791  0.3811 -0.3031  0.3417
  118SOPE    HX12419   3.177   0.992   7.848  1.7267 -0.7992 -1.8490
  118SOPE    HY12420   3.089   1.155   7.821 -1.6746 -1.0455  2.5092
  118SOPE   O3112421   3.132   1.037   7.650 -0.6841  0.2702  0.1064
  118SOPE   C3112422   3.049   1.106   7.570 -0.4803  0.4218  0.1864
  118SOPE   O3212423   2.974   1.192   7.606 -0.3095  0.3055  0.6426
  118SOPE   C3212424   3.073   1.060   7.427  0.0822  0.1215 -0.7355
  118SOPE   H2X12425   3.031   0.958   7.414  0.1703  0.2578 -2.3697
  118SOPE   H2Y12426   3.183   1.045   7.422  0.2363 -0.4429  2.5186
  118SOPE   C2312427   2.888   0.608   7.619  0.4818  0.1279  0.0849
  118SOPE   H3R12428   2.894   0.500   7.646 -0.7695  0.1202  0.3955
  118SOPE   H3S12429   2.989   0.653   7.619  0.6733 -0.2899  0.6090
  118SOPE   C2412430   2.815   0.649   7.487 -0.5343  0.0082 -1.1051
  118SOPE   H4R12431   2.715   0.601   7.482  0.2116 -1.7149 -0.3874
  118SOPE   H4S12432   2.803   0.758   7.500  1.2421  0.0789  0.3713
  118SOPE   C2512433   2.894   0.618   7.354  0.4071  0.0826  0.3851
  118SOPE   H5R12434   2.995   0.664   7.357  2.1170 -3.1270 -1.7810
  118SOPE   H5S12435   2.908   0.508   7.361 -3.8503 -0.6665  0.3574
  118SOPE   C2612436   2.821   0.676   7.230  0.2736 -0.1144  0.0782
  118SOPE   H6R12437   2.733   0.610   7.216  1.3709 -1.6904  0.4146
  118SOPE   H6S12438   2.797   0.783   7.250 -0.7752 -0.4207  0.5247
  118SOPE   C2712439   2.908   0.657   7.104 -0.0474  0.0408  0.3626
  118SOPE   H7R12440   3.011   0.680   7.139 -0.2963 -1.5760  2.3219
  118SOPE   H7S12441   2.915   0.554   7.065  0.3752 -0.3476  1.4250
  118SOPE   C2812442   2.870   0.756   6.990  0.2767  0.4063  0.5007
  118SOPE   H8R12443   2.898   0.857   7.027  1.3708  0.4331 -0.3441
  118SOPE   H8S12444   2.939   0.730   6.907  1.1707  2.0576  0.6666
  118SOPE   C2912445   2.731   0.735   6.936 -0.0993  0.4551 -0.0585
  118SOPE   H9112446   2.657   0.771   7.009  1.6231  0.2506  1.8758
  118SOPE  C21012447   2.700   0.652   6.834 -0.2917  0.6790 -0.1571
  118SOPE  H10112448   2.593   0.629   6.822 -0.4256  0.2797  1.5180
  118SOPE  C21112449   2.784   0.573   6.735 -0.5389  0.5143 -0.0235
  118SOPE  H11R12450   2.740   0.479   6.695  0.7406 -0.5658  1.0167
  118SOPE  H11S12451   2.870   0.525   6.786 -0.4802 -1.2810 -1.6690
  118SOPE  C21212452   2.825   0.671   6.629  0.3546 -0.8618 -0.1710
  118SOPE  H12R12453   2.913   0.623   6.580  2.3018  1.8176  0.4349
  118SOPE  H12S12454   2.865   0.764   6.677 -3.6714  2.3059 -2.3841
  118SOPE  C21312455   2.727   0.715   6.515  0.1750  0.1140  0.0534
  118SOPE  H13R12456   2.792   0.781   6.454 -1.8060  1.1286 -1.0617
  118SOPE  H13S12457   2.640   0.770   6.557 -1.4114 -2.6364  0.5959
  118SOPE  C21412458   2.676   0.600   6.425  0.6575 -0.4019 -0.4028
  118SOPE  H14R12459   2.608   0.650   6.352  0.2623 -1.0072 -0.4581
  118SOPE  H14S12460   2.614   0.529   6.484 -1.6275  0.0035 -2.1712
  118SOPE  C21512461   2.786   0.526   6.353 -0.2134  0.7169 -0.0308
  118SOPE  H15R12462   2.861   0.468   6.410 -1.0778 -1.6847 -1.2033
  118SOPE  H15S12463   2.845   0.607   6.305  2.9799 -0.2822  1.8982
  118SOPE  C21612464   2.727   0.430   6.247  0.0204 -0.0172 -0.3433
  118SOPE  H16R12465   2.809   0.397   6.180 -0.5355  0.6474 -1.3818
  118SOPE  H16S12466   2.644   0.473   6.186 -1.0821 -0.9083  0.5021
  118SOPE  C21712467   2.655   0.306   6.308 -0.3633  0.6319 -0.3289
  118SOPE  H17R12468   2.585   0.345   6.385 -0.8302  0.2316 -0.5486
  118SOPE  H17S12469   2.734   0.248   6.361 -1.4161  0.4057  1.0637
  118SOPE  C21812470   2.572   0.210   6.215 -0.3624 -0.6695  0.1566
  118SOPE  H18R12471   2.511   0.133   6.268 -1.6533  0.2773  0.0866
  118SOPE  H18S12472   2.649   0.161   6.151  0.8177  1.8094 -0.4300
  118SOPE  H18T12473   2.502   0.273   6.157  1.2385  4.6575  3.3551
  118SOPE   C3312474   3.025   1.158   7.323  0.4594 -0.4619 -0.2322
  118SOPE   H3X12475   3.050   1.264   7.348  0.7517 -0.1142 -1.9004
  118SOPE   H3Y12476   2.916   1.146   7.306  0.2486  2.3031 -1.5272
  118SOPE   C3412477   3.095   1.125   7.190 -0.2454 -0.5155  0.4117
  118SOPE   H4X12478   3.091   1.017   7.162 -1.7195 -0.6287  0.9615
  118SOPE   H4Y12479   3.202   1.133   7.217  0.4097  2.3404 -2.4107
  118SOPE   C3512480   3.070   1.232   7.081  1.1928  0.0512 -0.9505
  118SOPE   H5X12481   3.076   1.330   7.134 -2.2277 -1.2771  2.4413
  118SOPE   H5Y12482   2.962   1.224   7.055  0.5189 -0.9017  1.8115
  118SOPE   C3612483   3.145   1.215   6.950  0.8305 -0.8229 -0.0507
  118SOPE   H6X12484   3.253   1.235   6.970  0.6473  4.1319 -2.4867
  118SOPE   H6Y12485   3.108   1.291   6.878  1.0747 -1.3412 -0.7381
  118SOPE   C3712486   3.115   1.088   6.882 -0.3042 -0.9234 -0.1025
  118SOPE   H7X12487   3.005   1.091   6.868 -0.2835  3.4513 -0.8285
  118SOPE   H7Y12488   3.140   0.995   6.937 -0.1920 -1.4515 -1.0330
  118SOPE   C3812489   3.172   1.060   6.739  0.1612 -0.4304 -0.1449
  118SOPE   H8X12490   3.281   1.079   6.748 -0.0995  1.4285 -0.4136
  118SOPE   H8Y12491   3.138   1.134   6.663 -1.0373 -1.6476 -0.8377
  118SOPE   C3912492   3.132   0.917   6.692 -0.0571 -0.0662  0.8630
  118SOPE   H9X12493   3.023   0.914   6.712  0.2871  0.1164  2.8938
  118SOPE   H9Y12494   3.192   0.837   6.740  0.6417 -0.4380 -0.5564
  118SOPE  C31012495   3.156   0.904   6.538 -0.2825  0.3138  0.4047
  118SOPE  H10X12496   3.245   0.965   6.512  1.6379 -2.3256  0.2470
  118SOPE  H10Y12497   3.069   0.950   6.487 -0.2760  0.7287  0.7584
  118SOPE  C31112498   3.188   0.760   6.503  0.6032  0.0336  0.3395
  118SOPE  H11X12499   3.131   0.683   6.559 -0.4157 -0.6466 -1.5369
  118SOPE  H11Y12500   3.296   0.747   6.524  0.2182 -3.0520  0.8847
  118SOPE  C31212501   3.162   0.730   6.355  0.3766  0.2955 -0.2139
  118SOPE  H12X12502   3.244   0.786   6.304  0.2164  1.1159  0.3907
  118SOPE  H12Y12503   3.067   0.780   6.326  1.1277  0.0867 -3.4592
  118SOPE  C31312504   3.181   0.579   6.321  0.8253 -0.1334  0.4232
  118SOPE  H13X12505   3.086   0.523   6.339  0.2598  0.2848 -1.1055
  118SOPE  H13Y12506   3.249   0.544   6.402  0.7329  0.1513  0.6241
  118SOPE  C31412507   3.232   0.534   6.178 -0.4713 -0.1015  0.0902
  118SOPE  H14X12508   3.325   0.584   6.144  1.6357 -1.6647  3.1144
  118SOPE  H14Y12509   3.160   0.570   6.101 -0.1337  2.0396  0.7124
  118SOPE  C31512510   3.229   0.385   6.170  0.3169 -0.4542  0.1201
  118SOPE  H15X12511   3.218   0.355   6.064 -0.9509  1.1094 -0.2329
  118SOPE  H15Y12512   3.144   0.345   6.229  0.7062 -0.7650  0.4729
  118SOPE  C31612513   3.362   0.313   6.217  0.3508 -0.1891  0.0025
  118SOPE  H16X12514   3.355   0.303   6.327  0.6066 -2.9405 -0.1589
  118SOPE  H16Y12515   3.445   0.377   6.181  0.9179 -1.9720 -2.1025
  118SOPE  C31712516   3.381   0.172   6.160 -0.5387  0.4571 -0.0420
  118SOPE  H17X12517   3.403   0.183   6.052 -0.1078 -1.2766 -0.1576
  118SOPE  H17Y12518   3.290   0.112   6.181  0.3857 -0.3554  1.8469
  118SOPE  C31812519   3.509   0.112   6.219 -0.8030  0.2073 -0.4647
  118SOPE  H18X12520   3.501   0.077   6.324  1.8271  0.2264 -0.1891
  118SOPE  H18Y12521   3.592   0.186   6.224  0.1942 -0.8323 -1.3462
  118SOPE  H18Z12522   3.556   0.031   6.159 -0.5801 -1.1076  1.3868
  119SOPE     N12523   1.061   4.765   8.253 -0.6672  0.2209 -0.8089
  119SOPE   HN112524   1.040   4.861   8.218  0.4671  0.3569 -1.1423
  119SOPE   HN212525   1.011   4.749   8.343  2.6774 -0.7798  1.0099
  119SOPE   HN312526   1.164   4.765   8.248 -0.6371  2.3891 -4.8616
  119SOPE   C1212527   1.026   4.654   8.158 -0.3160  0.3822  0.0816
  119SOPE  H12A12528   1.071   4.657   8.057 -2.2854 -1.1747 -0.8869
  119SOPE  H12B12529   0.917   4.671   8.143 -0.4739  1.6958  2.2567
  119SOPE   C1112530   1.053   4.511   8.216  0.3662  0.8079 -0.4119
  119SOPE  H11A12531   1.033   4.436   8.137 -1.4000  0.8103  0.0004
  119SOPE  H11B12532   0.994   4.489   8.307 -2.2417  2.0181 -1.6896
  119SOPE     P12533   1.263   4.351   8.273  0.0692 -0.2296 -0.1199
  119SOPE   O1312534   1.159   4.248   8.257 -0.1215  0.4332 -0.0640
  119SOPE   O1412535   1.350   4.336   8.394 -0.1181 -0.0856  0.3972
  119SOPE   O1212536   1.189   4.495   8.255 -0.2814  0.1091 -0.0006
  119SOPE   O1112537   1.352   4.341   8.145  0.4083 -0.0589 -0.3036
  119SOPE    C112538   1.321   4.393   8.017  0.5119 -0.2322 -0.2915
  119SOPE    HA12539   1.415   4.385   7.959 -0.4230 -0.4421 -1.8222
  119SOPE    HB12540   1.292   4.497   8.045  2.1285  0.0941  0.2715
  119SOPE    C212541   1.213   4.304   7.947  0.3222  0.1609  0.5353
  119SOPE    HS12542   1.125   4.311   8.015  2.2588  1.2320  3.1041
  119SOPE   O2112543   1.260   4.168   7.935 -0.2791  0.2634  0.4470
  119SOPE   C2112544   1.163   4.082   7.938  0.5629  0.5296  0.1179
  119SOPE   O2212545   1.049   4.099   7.980 -0.0822 -0.2401 -0.1873
  119SOPE   C2212546   1.209   3.950   7.872 -0.0481 -0.1130 -1.0722
  119SOPE   H2R12547   1.200   3.882   7.959  0.2886  0.0299 -0.9232
  119SOPE   H2S12548   1.317   3.956   7.845  0.7407  1.9543  1.9634
  119SOPE    C312549   1.182   4.365   7.803  0.0810  0.1649 -0.0591
  119SOPE    HX12550   1.282   4.354   7.756 -1.9148 -2.3323 -4.3122
  119SOPE    HY12551   1.150   4.469   7.825 -0.6479  0.1207 -0.8572
  119SOPE   O3112552   1.091   4.286   7.723 -0.9885  0.5697 -0.2917
  119SOPE   C3112553   0.961   4.309   7.761 -0.0474 -0.5743  0.4885
  119SOPE   O3212554   0.922   4.381   7.852  0.1865  0.0142 -0.2643
  119SOPE   C3212555   0.871   4.215   7.674  0.4648  0.2294 -0.5046
  119SOPE   H2X12556   0.859   4.117   7.726 -0.3946  0.7635  0.3274
  119SOPE   H2Y12557   0.922   4.190   7.578  0.8029 -0.0122 -0.2656
  119SOPE   C2312558   1.129   3.903   7.750  0.7183 -0.0242  0.2037
  119SOPE   H3R12559   1.021   3.906   7.774  0.5404 -0.2744 -0.5250
  119SOPE   H3S12560   1.140   3.792   7.745 -1.3129 -0.2349 -0.3154
  119SOPE   C2412561   1.176   3.968   7.618  0.0341  0.5366  0.0477
  119SOPE   H4R12562   1.140   4.073   7.615 -1.5944 -0.0043 -0.3298
  119SOPE   H4S12563   1.287   3.973   7.613 -0.0060  1.2171 -0.3425
  119SOPE   C2512564   1.133   3.893   7.493 -0.0373 -0.1471  0.1105
  119SOPE   H5R12565   1.150   3.785   7.514  0.1848 -0.0652  0.3600
  119SOPE   H5S12566   1.024   3.905   7.475 -0.2675  0.1836  1.5678
  119SOPE   C2612567   1.199   3.936   7.359 -0.0799 -0.1690 -0.0474
  119SOPE   H6R12568   1.244   4.038   7.369 -1.3316  0.2822  1.2833
  119SOPE   H6S12569   1.292   3.875   7.355 -0.3634 -0.7579  1.8390
  119SOPE   C2712570   1.108   3.925   7.229 -0.1610 -0.4392 -0.0925
  119SOPE   H7R12571   1.008   3.969   7.248 -0.7288 -1.0598 -1.4966
  119SOPE   H7S12572   1.155   3.973   7.142 -0.3379  0.2986  0.2136
  119SOPE   C2812573   1.088   3.779   7.189 -0.4301  0.4860 -0.0669
  119SOPE   H8R12574   1.175   3.749   7.126  1.5972  1.1398  2.2483
  119SOPE   H8S12575   1.103   3.705   7.271 -0.6649  2.3508  1.7365
  119SOPE   C2912576   0.949   3.752   7.135 -0.1422  0.2112 -0.3691
  119SOPE   H9112577   0.867   3.757   7.209  0.0578 -0.9176 -0.0494
  119SOPE  C21012578   0.918   3.729   7.012  0.1098  0.5636  0.4603
  119SOPE  H10112579   0.809   3.720   6.999 -0.0180 -2.3299  2.4393
  119SOPE  C21112580   1.015   3.719   6.895 -0.0822 -0.2335  0.2197
  119SOPE  H11R12581   1.114   3.768   6.910 -0.2999  1.0279 -1.9198
  119SOPE  H11S12582   0.969   3.771   6.808  1.8911  0.0569 -0.7142
  119SOPE  C21212583   1.046   3.574   6.843  0.1542  0.5300  0.9282
  119SOPE  H12R12584   1.101   3.577   6.746 -0.0101 -1.6137  0.7204
  119SOPE  H12S12585   0.954   3.516   6.824  0.7925  0.5248 -3.1149
  119SOPE  C21312586   1.144   3.503   6.934 -0.4540  0.3848  0.9102
  119SOPE  H13R12587   1.080   3.487   7.023 -1.3121  0.5326  0.3344
  119SOPE  H13S12588   1.232   3.566   6.958 -0.3622  1.2537 -1.4405
  119SOPE  C21412589   1.186   3.360   6.884  0.0778 -0.1492  0.0779
  119SOPE  H14R12590   1.183   3.353   6.773 -0.3050 -2.0810  0.1764
  119SOPE  H14S12591   1.111   3.288   6.925 -2.6925  1.0558 -2.5107
  119SOPE  C21512592   1.324   3.310   6.930 -0.8822 -0.3723  0.2489
  119SOPE  H15R12593   1.319   3.282   7.037 -3.2957 -3.7656 -0.5836
  119SOPE  H15S12594   1.403   3.388   6.921  0.3869 -1.6328  0.0945
  119SOPE  C21612595   1.359   3.187   6.853 -0.0154  0.1520 -0.7308
  119SOPE  H16R12596   1.265   3.128   6.847 -0.3064  0.6336 -0.9383
  119SOPE  H16S12597   1.427   3.124   6.914  2.1311  2.0962 -0.9814
  119SOPE  C21712598   1.417   3.204   6.718 -0.0405 -0.6367  0.1724
  119SOPE  H17R12599   1.510   3.265   6.712 -1.0519  0.8368 -1.3742
  119SOPE  H17S12600   1.354   3.279   6.665 -0.3897 -0.9819  0.0962
  119SOPE  C21812601   1.434   3.078   6.639 -1.0438  0.3551  0.0728
  119SOPE  H18R12602   1.471   3.096   6.536 -4.0039  2.0462 -0.8074
  119SOPE  H18S12603   1.337   3.023   6.636 -1.1647  0.5099  0.8228
  119SOPE  H18T12604   1.512   3.012   6.684 -0.2145  0.4156 -1.2220
  119SOPE   C3312605   0.733   4.279   7.662  0.3116 -0.3541 -0.9273
  119SOPE   H3X12606   0.732   4.368   7.597 -3.9132 -0.6632 -1.5650
  119SOPE   H3Y12607   0.700   4.316   7.762  0.0863  1.1715 -1.5391
  119SOPE   C3412608   0.626   4.182   7.613  0.2810 -0.6150  0.0809
  119SOPE   H4X12609   0.527   4.232   7.623 -0.2062 -1.8075  1.6979
  119SOPE   H4Y12610   0.623   4.089   7.673 -2.9861 -0.6948 -0.0035
  119SOPE   C3512611   0.647   4.135   7.467 -0.4474  0.6434 -0.2073
  119SOPE   H5X12612   0.736   4.068   7.464 -0.2048  0.7355  2.5314
  119SOPE   H5Y12613   0.665   4.232   7.416 -0.2975  1.3461  1.1353
  119SOPE   C3612614   0.526   4.053   7.420 -0.2435 -0.1159  0.1335
  119SOPE   H6X12615   0.437   4.106   7.459  0.2542  2.6917 -2.1984
  119SOPE   H6Y12616   0.542   3.953   7.466 -1.2045  0.2380  1.2844
  119SOPE   C3712617   0.516   4.046   7.266 -0.5349  0.0004 -0.4093
  119SOPE   H7X12618   0.620   4.021   7.233 -0.8011 -0.6317 -0.7896
  119SOPE   H7Y12619   0.485   4.140   7.215  1.3359  0.4438 -0.8236
  119SOPE   C3812620   0.415   3.942   7.226 -0.0488  0.1245  0.5598
  119SOPE   H8X12621   0.316   3.958   7.275 -0.5796 -1.1688 -0.0647
  119SOPE   H8Y12622   0.443   3.841   7.262 -1.9713 -0.5839  0.1535
  119SOPE   C3912623   0.396   3.930   7.074 -0.6761  0.2595  0.0784
  119SOPE   H9X12624   0.366   4.028   7.033  1.5620  1.0724  0.2508
  119SOPE   H9Y12625   0.314   3.857   7.053 -0.7879  0.8723 -1.7801
  119SOPE  C31012626   0.521   3.872   7.001  0.1508  0.7574 -1.0180
  119SOPE  H10X12627   0.538   3.771   7.043 -1.9313  0.4283 -0.8649
  119SOPE  H10Y12628   0.603   3.944   7.023 -1.6754  2.2305  1.5940
  119SOPE  C31112629   0.506   3.857   6.846  0.2500 -0.7515 -0.5809
  119SOPE  H11X12630   0.478   3.954   6.800 -1.8213 -0.3446  1.3468
  119SOPE  H11Y12631   0.431   3.779   6.821  0.2245 -1.1076  0.5739
  119SOPE  C31212632   0.634   3.812   6.784  0.4003  0.6859 -0.9265
  119SOPE  H12X12633   0.663   3.706   6.798  1.3555  1.1645  1.1795
  119SOPE  H12Y12634   0.718   3.870   6.830 -0.1833 -0.7815  2.2418
  119SOPE  C31312635   0.629   3.833   6.634 -0.4331  0.2637 -0.9376
  119SOPE  H13X12636   0.609   3.940   6.610 -0.3255  0.2528 -1.0828
  119SOPE  H13Y12637   0.557   3.768   6.580  1.2553 -0.6974 -2.1360
  119SOPE  C31412638   0.756   3.780   6.563 -0.7258 -0.2540  0.3788
  119SOPE  H14X12639   0.787   3.680   6.600 -0.1030 -1.5316 -3.1693
  119SOPE  H14Y12640   0.840   3.849   6.587  1.1619 -2.7899  1.5125
  119SOPE  C31512641   0.736   3.753   6.409  0.2305 -0.3027 -0.1344
  119SOPE  H15X12642   0.688   3.845   6.370 -0.9573 -0.1455  1.5461
  119SOPE  H15Y12643   0.664   3.668   6.413  0.9460 -0.8881  1.6782
  119SOPE  C31612644   0.862   3.714   6.323 -0.0401  0.1759  0.1150
  119SOPE  H16X12645   0.895   3.615   6.359 -1.6734 -0.7044 -0.6982
  119SOPE  H16Y12646   0.947   3.784   6.334  1.4069 -1.1882 -1.9195
  119SOPE  C31712647   0.814   3.710   6.178  0.4867 -0.0419  0.6665
  119SOPE  H17X12648   0.777   3.811   6.151  1.0455  0.1652  0.6693
  119SOPE  H17Y12649   0.737   3.630   6.165  0.2093  0.6841 -3.3882
  119SOPE  C31812650   0.928   3.676   6.082  0.0606 -0.0578 -0.2373
  119SOPE  H18X12651   0.901   3.649   5.977  1.4952 -0.5797 -0.5004
  119SOPE  H18Y12652   0.973   3.581   6.117 -0.4678 -0.9467 -1.8831
  119SOPE  H18Z12653   1.011   3.750   6.083  2.4779 -2.5681  1.7130
  120SOPE     N12654   4.261   0.205   0.106  0.2327 -0.5971  0.7514
  120SOPE   HN112655   4.204   0.237   0.187  1.7882  3.8669  0.3940
  120SOPE   HN212656   4.207   0.206   0.018  1.8951 -2.1082 -0.3525
  120SOPE   HN312657   4.291   0.106   0.116  0.0721 -0.5441  1.8987
  120SOPE   C1212658   4.377   0.297   0.091  0.7028 -0.4249 -0.6111
  120SOPE  H12A12659   4.443   0.249   0.015  2.5042  0.9344  0.0321
  120SOPE  H12B12660   4.437   0.295   0.185 -0.3937  1.1631  0.1554
  120SOPE   C1112661   4.343   0.447   0.058 -0.3225  0.5531  0.0518
  120SOPE  H11A12662   4.432   0.508   0.085  0.0045 -0.3855  1.2099
  120SOPE  H11B12663   4.258   0.464   0.127 -0.6109 -0.3528 -0.0629
  120SOPE     P12664   4.241   0.597  -0.123 -0.1844 -0.2294  0.0313
  120SOPE   O1312665   4.366   0.670  -0.165  0.3392 -0.3376  0.1850
  120SOPE   O1412666   4.164   0.663  -0.017 -0.7063 -0.2164 -0.1363
  120SOPE   O1212667   4.301   0.459  -0.078 -0.8121  0.3301 -0.7105
  120SOPE   O1112668   4.148   0.556  -0.249 -0.6387  0.2445  0.0599
  120SOPE    C112669   4.194   0.470  -0.352 -0.2385  0.1556 -0.1361
  120SOPE    HA12670   4.218   0.368  -0.314  1.4295  0.0798 -1.2683
  120SOPE    HB12671   4.294   0.508  -0.383  0.2352 -0.1684  0.9229
  120SOPE    C212672   4.102   0.464  -0.478  0.5972  0.8195  0.2629
  120SOPE    HS12673   4.033   0.379  -0.458  1.1056  0.3868  0.2292
  120SOPE   O2112674   4.174   0.453  -0.605 -0.7383  0.1387  0.2371
  120SOPE   C2112675   4.206   0.326  -0.639  0.7123  0.6253  0.1472
  120SOPE   O2212676   4.170   0.234  -0.569 -0.4461  0.0459  0.1552
  120SOPE   C2212677   4.284   0.321  -0.767  0.2692 -0.0197  0.3221
  120SOPE   H2R12678   4.289   0.219  -0.810 -0.4840  1.1892 -2.9314
  120SOPE   H2S12679   4.384   0.353  -0.731  0.2345  1.6603 -0.9648
  120SOPE    C312680   4.017   0.592  -0.491  0.1113  0.5746 -0.6075
  120SOPE    HX12681   4.098   0.663  -0.520  0.1728  0.7747  0.0471
  120SOPE    HY12682   3.970   0.613  -0.393  1.4777  0.0949  0.1725
  120SOPE   O3112683   3.915   0.581  -0.595 -0.1055  0.4644 -0.8038
  120SOPE   C3112684   3.896   0.698  -0.660 -0.0003 -0.9935  0.5984
  120SOPE   O3212685   3.953   0.802  -0.641 -0.1510 -0.8987  0.3836
  120SOPE   C3212686   3.797   0.680  -0.777  1.0266 -0.3072  1.0902
  120SOPE   H2X12687   3.750   0.777  -0.805 -2.4141 -2.1323 -0.0878
  120SOPE   H2Y12688   3.718   0.606  -0.752  0.6309 -0.3871 -0.3104
  120SOPE   C2312689   4.228   0.413  -0.887 -0.4218 -0.7902  0.2109
  120SOPE   H3R12690   4.254   0.517  -0.856 -1.1406  0.3138 -2.5857
  120SOPE   H3S12691   4.117   0.426  -0.889 -0.4761 -1.3187 -0.7000
  120SOPE   C2412692   4.266   0.375  -1.031 -0.4899 -0.8205 -0.1101
  120SOPE   H4R12693   4.252   0.466  -1.093  1.2711 -0.0374  0.5884
  120SOPE   H4S12694   4.375   0.354  -1.042 -0.3973 -0.1760 -0.4518
  120SOPE   C2512695   4.186   0.253  -1.082 -0.4775  0.5434  0.1066
  120SOPE   H5R12696   4.221   0.165  -1.024  1.7946  1.1435 -0.2714
  120SOPE   H5S12697   4.078   0.268  -1.059 -1.1955 -1.2521 -1.8025
  120SOPE   C2612698   4.199   0.220  -1.235  0.9941 -0.1796  0.2463
  120SOPE   H6R12699   4.295   0.256  -1.278  0.5965 -2.4182 -2.8026
  120SOPE   H6S12700   4.199   0.110  -1.249 -1.9281 -0.4808  1.8035
  120SOPE   C2712701   4.089   0.281  -1.313  0.2802 -0.0839 -0.3943
  120SOPE   H7R12702   3.998   0.226  -1.280  0.9803 -1.3170 -0.4607
  120SOPE   H7S12703   4.085   0.390  -1.290  1.0558 -0.4295  1.6173
  120SOPE   C2812704   4.110   0.266  -1.460 -0.2156  0.0505  0.9128
  120SOPE   H8R12705   4.205   0.316  -1.490 -0.9470  0.5071 -0.7091
  120SOPE   H8S12706   4.122   0.157  -1.478 -1.3553  0.1707 -0.8114
  120SOPE   C2912707   3.986   0.316  -1.524  0.1301  0.8575 -0.2427
  120SOPE   H9112708   3.892   0.277  -1.482 -0.1181  0.8296 -0.7991
  120SOPE  C21012709   3.979   0.400  -1.628 -0.8302 -0.7030  0.0825
  120SOPE  H10112710   3.879   0.429  -1.663 -0.7191 -0.1212  0.2480
  120SOPE  C21112711   4.088   0.459  -1.703 -0.2056 -0.1498  0.0724
  120SOPE  H11R12712   4.171   0.468  -1.629 -0.9429  1.2807  0.7690
  120SOPE  H11S12713   4.060   0.559  -1.741 -0.1487 -0.0647  0.2478
  120SOPE  C21212714   4.123   0.379  -1.829 -0.3463  0.8903  0.1097
  120SOPE  H12R12715   4.151   0.277  -1.796  1.7423  1.8208  1.3794
  120SOPE  H12S12716   4.212   0.435  -1.864 -0.9016  0.8737 -1.4382
  120SOPE  C21312717   4.009   0.381  -1.939 -0.4345  0.3039  0.1926
  120SOPE  H13R12718   3.991   0.487  -1.965  1.1228  0.9852  1.7329
  120SOPE  H13S12719   3.913   0.348  -1.895 -1.1698 -1.6199 -2.5650
  120SOPE  C21412720   4.018   0.293  -2.067 -0.4284  1.0223 -0.1080
  120SOPE  H14R12721   4.029   0.187  -2.037  1.7730  1.3672  0.4477
  120SOPE  H14S12722   4.117   0.313  -2.112  0.5806 -0.4175  1.3956
  120SOPE  C21512723   3.900   0.304  -2.157 -0.1667 -0.6250  0.2520
  120SOPE  H15R12724   3.890   0.408  -2.196  2.2736 -0.2301  0.5333
  120SOPE  H15S12725   3.808   0.279  -2.099  1.2522 -2.4166  1.8944
  120SOPE  C21612726   3.893   0.211  -2.280  0.0157  0.1207 -0.5603
  120SOPE  H16R12727   3.984   0.228  -2.342  0.1008 -1.1950 -0.8322
  120SOPE  H16S12728   3.803   0.249  -2.334  0.3008  0.6998 -0.6356
  120SOPE  C21712729   3.859   0.062  -2.252  0.1076 -0.0437  1.1591
  120SOPE  H17R12730   3.755   0.051  -2.213  0.1392 -0.8753  1.0214
  120SOPE  H17S12731   3.922   0.033  -2.166  0.0804  1.5572  1.7435
  120SOPE  C21812732   3.871  -0.036  -2.369 -0.0464 -0.0922 -0.0258
  120SOPE  H18R12733   3.970  -0.036  -2.418  0.8486  0.0042  1.6918
  120SOPE  H18S12734   3.795  -0.009  -2.445 -0.3075 -1.8008 -0.4177
  120SOPE  H18T12735   3.841  -0.135  -2.328 -2.7896  0.1498 -1.2472
  120SOPE   C3312736   3.866   0.621  -0.906 -0.6465  0.1958 -0.4535
  120SOPE   H3X12737   3.890   0.515  -0.881 -1.3086  0.8973  4.1502
  120SOPE   H3Y12738   3.960   0.678  -0.923 -0.7960 -0.0093 -2.0977
  120SOPE   C3412739   3.784   0.629  -1.039  0.1419  0.0455  0.1449
  120SOPE   H4X12740   3.803   0.723  -1.093 -1.0169 -0.1203 -0.5795
  120SOPE   H4Y12741   3.677   0.635  -1.011  0.5642  1.1126  1.6952
  120SOPE   C3512742   3.827   0.505  -1.119  0.4779  0.2870 -0.1907
  120SOPE   H5X12743   3.810   0.420  -1.050  2.7247  0.2350  0.4039
  120SOPE   H5Y12744   3.933   0.503  -1.152 -0.2664  0.2494 -2.7597
  120SOPE   C3612745   3.746   0.475  -1.248  0.2683 -0.9598  0.8225
  120SOPE   H6X12746   3.637   0.478  -1.226 -0.1243 -2.7120 -0.6153
  120SOPE   H6Y12747   3.766   0.378  -1.299  1.9541  0.1553 -0.7812
  120SOPE   C3712748   3.762   0.587  -1.359  0.0617 -0.7961 -0.0903
  120SOPE   H7X12749   3.864   0.572  -1.401 -0.6240 -1.1527 -1.7046
  120SOPE   H7Y12750   3.755   0.687  -1.311  1.4119  0.6810 -2.7437
  120SOPE   C3812751   3.672   0.562  -1.484  1.3469  0.0864 -0.0839
  120SOPE   H8X12752   3.565   0.548  -1.455  2.0149 -0.4433  2.3763
  120SOPE   H8Y12753   3.704   0.464  -1.527  0.5859  1.0312 -3.0664
  120SOPE   C3912754   3.685   0.668  -1.595  0.0172  0.3167  0.4971
  120SOPE   H9X12755   3.794   0.693  -1.596  0.2936  0.0080  4.6596
  120SOPE   H9Y12756   3.629   0.756  -1.557  1.7529  1.6804  0.0381
  120SOPE  C31012757   3.631   0.637  -1.738  0.1819  0.3432 -0.0236
  120SOPE  H10X12758   3.647   0.727  -1.801  0.4824  0.8972  0.8274
  120SOPE  H10Y12759   3.520   0.634  -1.735  0.1713 -0.3135 -0.8532
  120SOPE  C31112760   3.679   0.511  -1.811  0.3663  0.3146  0.2065
  120SOPE  H11X12761   3.677   0.430  -1.735 -1.2053  0.7323  0.6395
  120SOPE  H11Y12762   3.785   0.520  -1.844 -0.1739 -0.6424 -2.0049
  120SOPE  C31212763   3.584   0.476  -1.935 -0.8216 -0.4334 -0.5578
  120SOPE  H12X12764   3.485   0.451  -1.893 -1.8108  2.8250 -0.6424
  120SOPE  H12Y12765   3.636   0.392  -1.986 -1.7257 -0.8348 -0.8324
  120SOPE  C31312766   3.585   0.586  -2.041 -0.0741 -0.1123  0.4891
  120SOPE  H13X12767   3.534   0.672  -1.991 -0.8932 -1.7141  2.5578
  120SOPE  H13Y12768   3.525   0.562  -2.131 -0.9249 -1.1463  1.3020
  120SOPE  C31412769   3.724   0.639  -2.082 -0.2148  0.2787 -0.3838
  120SOPE  H14X12770   3.787   0.552  -2.109  0.1349 -0.0347  1.3331
  120SOPE  H14Y12771   3.771   0.705  -2.006  0.9169 -0.6605 -0.2445
  120SOPE  C31512772   3.717   0.725  -2.213  0.0368  0.9963 -0.7472
  120SOPE  H15X12773   3.810   0.787  -2.212 -0.3736  1.6216  0.4072
  120SOPE  H15Y12774   3.631   0.795  -2.206  0.3933  1.3883 -0.0802
  120SOPE  C31612775   3.719   0.635  -2.333  0.6850  0.0628  0.2856
  120SOPE  H16X12776   3.629   0.576  -2.357  0.8238  0.0636 -0.2457
  120SOPE  H16Y12777   3.801   0.561  -2.319 -0.4776 -1.7753 -1.9449
  120SOPE  C31712778   3.754   0.707  -2.470 -0.0846  0.0216  0.0815
  120SOPE  H17X12779   3.744   0.635  -2.555  2.5004  2.0523 -2.1391
  120SOPE  H17Y12780   3.863   0.729  -2.475  0.6919 -2.9795  1.4008
  120SOPE  C31812781   3.679   0.837  -2.493  0.7392  0.1641 -0.6211
  120SOPE  H18X12782   3.715   0.879  -2.589 -2.2857 -0.1755 -2.0205
  120SOPE  H18Y12783   3.698   0.920  -2.422  1.9601 -1.7588  1.4479
  120SOPE  H18Z12784   3.568   0.827  -2.495  0.8257 -0.9222 -1.2409
  121SOPE     N12785   5.818   2.485   8.254  0.0900 -0.6728 -0.0744
  121SOPE   HN112786   5.876   2.567   8.283 -1.2846  0.0135  0.8060
  121SOPE   HN212787   5.718   2.503   8.273  0.1620 -0.0133 -0.2728
  121SOPE   HN312788   5.851   2.409   8.318 -0.8257 -0.1191  1.0960
  121SOPE   C1212789   5.846   2.440   8.119  0.5089  0.0710  0.0441
  121SOPE  H12A12790   5.957   2.450   8.114  0.7775 -1.5928  1.4851
  121SOPE  H12B12791   5.802   2.510   8.046  0.3585 -0.3722 -0.2947
  121SOPE   C1112792   5.808   2.298   8.104  0.1558 -0.0767 -0.2097
  121SOPE  H11A12793   5.860   2.243   8.184 -1.4810  1.5224  2.0885
  121SOPE  H11B12794   5.840   2.255   8.006 -1.5424  0.6755 -1.1574
  121SOPE     P12795   5.575   2.277   7.984  0.4669 -0.4179  0.2342
  121SOPE   O1312796   5.458   2.364   8.003  0.3678  0.4273 -0.1711
  121SOPE   O1412797   5.547   2.130   7.963 -0.6192  0.2580 -0.4575
  121SOPE   O1212798   5.671   2.290   8.106 -0.0003 -0.3709 -0.1830
  121SOPE   O1112799   5.663   2.330   7.863 -0.0902  0.1560 -0.4948
  121SOPE    C112800   5.664   2.465   7.828 -0.1068 -0.3613  0.7623
  121SOPE    HA12801   5.771   2.495   7.824 -0.0952 -0.5893 -0.9254
  121SOPE    HB12802   5.612   2.521   7.909  0.4847 -0.5140  1.2621
  121SOPE    C212803   5.602   2.497   7.692 -0.4489  0.4166 -0.1721
  121SOPE    HS12804   5.613   2.602   7.655  0.7022  0.0500 -0.9409
  121SOPE   O2112805   5.465   2.463   7.694 -0.3613 -0.3799 -0.5035
  121SOPE   C2112806   5.393   2.547   7.766  0.3449 -0.4869 -0.0312
  121SOPE   O2212807   5.425   2.646   7.832 -0.4075 -1.1958  0.4288
  121SOPE   C2212808   5.250   2.516   7.733  0.7463  0.4289  0.5894
  121SOPE   H2R12809   5.191   2.494   7.824 -0.3901 -4.8358 -1.0642
  121SOPE   H2S12810   5.249   2.426   7.668  1.9545 -2.1863  3.9343
  121SOPE    C312811   5.669   2.424   7.577  0.0287  1.4390  1.0869
  121SOPE    HX12812   5.649   2.315   7.585  1.1834  0.9015 -2.1005
  121SOPE    HY12813   5.779   2.426   7.589 -0.0052  1.3710  1.4356
  121SOPE   O3112814   5.632   2.489   7.451  0.0091 -0.5638  0.3496
  121SOPE   C3112815   5.542   2.423   7.376 -0.0746  0.3773  0.0246
  121SOPE   O3212816   5.499   2.310   7.393 -0.2671  0.0583 -0.7390
  121SOPE   C3212817   5.498   2.505   7.259 -0.4014  0.6096 -0.0218
  121SOPE   H2X12818   5.586   2.524   7.194 -1.6200  0.4593 -1.7734
  121SOPE   H2Y12819   5.471   2.605   7.298  1.7623  0.9794  0.6664
  121SOPE   C2312820   5.185   2.641   7.660 -0.3111  0.5690  0.1854
  121SOPE   H3R12821   5.203   2.732   7.721  1.3133  1.2443 -1.2180
  121SOPE   H3S12822   5.075   2.632   7.649 -0.1623 -0.2318 -0.8159
  121SOPE   C2412823   5.249   2.675   7.525  0.4631  0.0311  0.3003
  121SOPE   H4R12824   5.360   2.680   7.528  0.4107  1.2589  0.4778
  121SOPE   H4S12825   5.230   2.580   7.470  0.8188 -0.3781  0.8827
  121SOPE   C2512826   5.199   2.796   7.448 -0.4822 -0.0956 -0.3610
  121SOPE   H5R12827   5.211   2.889   7.508 -0.3197  0.4270 -1.1900
  121SOPE   H5S12828   5.254   2.818   7.354 -1.7579 -2.1097 -1.6682
  121SOPE   C2612829   5.047   2.792   7.418  0.0661  0.4822  0.3761
  121SOPE   H6R12830   4.990   2.779   7.512 -0.1374  1.5758  0.4178
  121SOPE   H6S12831   5.022   2.895   7.385  3.5340  0.1446 -4.3587
  121SOPE   C2712832   5.018   2.683   7.316  0.2552 -0.0917  0.8019
  121SOPE   H7R12833   5.095   2.689   7.236 -0.4526 -1.1096  0.0174
  121SOPE   H7S12834   5.037   2.586   7.366  0.8396 -0.0638  0.6363
  121SOPE   C2812835   4.875   2.695   7.261 -0.1625 -0.0696  0.5865
  121SOPE   H8R12836   4.863   2.594   7.215  1.0757 -0.7028  1.5730
  121SOPE   H8S12837   4.809   2.711   7.349  0.5509 -0.3452  1.1829
  121SOPE   C2912838   4.865   2.817   7.175 -0.0626 -0.1245  0.3850
  121SOPE   H9112839   4.859   2.916   7.222 -0.3328 -0.9143  2.0774
  121SOPE  C21012840   4.882   2.816   7.039 -0.8059  0.3134  0.0351
  121SOPE  H10112841   4.868   2.914   6.991  0.5923  0.8991  0.7742
  121SOPE  C21112842   4.904   2.699   6.937  0.1117 -0.2049  0.1088
  121SOPE  H11R12843   4.865   2.725   6.836  2.7985 -2.2293 -1.5916
  121SOPE  H11S12844   4.847   2.612   6.976  2.0365 -1.8404 -0.5607
  121SOPE  C21212845   5.060   2.674   6.913  0.8969  0.9497  0.6052
  121SOPE  H12R12846   5.076   2.579   6.858 -2.2671  0.4507  0.3174
  121SOPE  H12S12847   5.106   2.675   7.014  0.3816  1.6317  0.8428
  121SOPE  C21312848   5.110   2.782   6.824 -0.1246  0.0023  0.3730
  121SOPE  H13R12849   5.096   2.881   6.872  1.7580  0.3846  0.2030
  121SOPE  H13S12850   5.048   2.784   6.732 -0.3402 -2.7571  0.3629
  121SOPE  C21412851   5.263   2.761   6.779 -0.4133 -0.3690 -0.3530
  121SOPE  H14R12852   5.324   2.749   6.871  0.2058  3.0567 -0.1700
  121SOPE  H14S12853   5.298   2.859   6.741 -0.9294 -0.0926 -0.1318
  121SOPE  C21512854   5.303   2.660   6.663  0.8348 -0.0679 -0.7692
  121SOPE  H15R12855   5.315   2.559   6.708  0.8873  0.0801 -0.4474
  121SOPE  H15S12856   5.406   2.692   6.635  0.9617  1.4685  1.2635
  121SOPE  C21612857   5.207   2.666   6.544 -0.5032  0.3678  0.1156
  121SOPE  H16R12858   5.194   2.770   6.506  0.7947  1.7827  3.2564
  121SOPE  H16S12859   5.109   2.646   6.591  0.2043 -4.1878  0.0634
  121SOPE  C21712860   5.238   2.562   6.430 -0.3165 -0.0890 -0.1357
  121SOPE  H17R12861   5.162   2.537   6.353 -0.8308 -1.0582  0.6611
  121SOPE  H17S12862   5.248   2.465   6.484  1.3452  0.1601  0.0738
  121SOPE  C21812863   5.375   2.578   6.355 -0.0717 -0.1302  0.3460
  121SOPE  H18R12864   5.380   2.502   6.274  1.0854  2.1741 -1.9346
  121SOPE  H18S12865   5.452   2.562   6.433 -0.3019  2.7958  1.2883
  121SOPE  H18T12866   5.383   2.684   6.319 -0.8770 -0.2809 -0.2979
  121SOPE   C3312867   5.389   2.441   7.170  0.3917  0.2016 -0.4076
  121SOPE   H3X12868   5.300   2.449   7.236  1.8305  2.1689  1.4519
  121SOPE   H3Y12869   5.406   2.335   7.143 -1.2079 -0.3033  0.4385
  121SOPE   C3412870   5.377   2.520   7.038 -0.0485  0.3795 -0.4032
  121SOPE   H4X12871   5.363   2.626   7.068 -1.7194 -0.2667  1.3670
  121SOPE   H4Y12872   5.284   2.487   6.986 -0.1661 -0.3007  0.2215
  121SOPE   C3512873   5.492   2.494   6.940 -0.3075 -0.4784 -0.0310
  121SOPE   H5X12874   5.595   2.495   6.982 -0.0952  0.7266 -0.5321
  121SOPE   H5Y12875   5.486   2.577   6.866  2.6694 -0.5896 -0.5377
  121SOPE   C3612876   5.476   2.362   6.866 -0.4319  0.2515 -0.4562
  121SOPE   H6X12877   5.377   2.348   6.818 -1.5040 -1.6505  2.0779
  121SOPE   H6Y12878   5.490   2.288   6.948  2.1357 -2.9362 -3.4695
  121SOPE   C3712879   5.595   2.327   6.769 -0.0052 -0.1760 -0.9603
  121SOPE   H7X12880   5.605   2.221   6.740  1.7580  0.0964 -1.4705
  121SOPE   H7Y12881   5.696   2.356   6.805  0.0717 -0.7530 -0.7043
  121SOPE   C3812882   5.581   2.403   6.636 -0.2449 -0.4302 -0.1163
  121SOPE   H8X12883   5.548   2.509   6.646  1.0659  0.1354 -1.5093
  121SOPE   H8Y12884   5.506   2.356   6.569  1.2807  1.4615 -3.4092
  121SOPE   C3912885   5.710   2.413   6.549  0.1695  0.4072 -0.0673
  121SOPE   H9X12886   5.690   2.401   6.440  2.5355 -1.5417 -0.3798
  121SOPE   H9Y12887   5.779   2.329   6.572  0.3353  0.6868  0.4656
  121SOPE  C31012888   5.786   2.544   6.566 -0.5042  0.0774 -0.2030
  121SOPE  H10X12889   5.832   2.543   6.667  0.7641  1.8157 -0.7147
  121SOPE  H10Y12890   5.723   2.636   6.569  0.5026  0.7988 -0.5471
  121SOPE  C31112891   5.904   2.562   6.460 -0.9003 -0.9394  0.5823
  121SOPE  H11X12892   5.858   2.567   6.359 -0.6821  0.3168  0.5235
  121SOPE  H11Y12893   5.971   2.474   6.454 -0.7336 -0.7907  0.2721
  121SOPE  C31212894   5.981   2.693   6.473 -0.1203  0.7289  0.2167
  121SOPE  H12X12895   6.048   2.683   6.561  0.8129  2.1358 -0.2853
  121SOPE  H12Y12896   5.907   2.774   6.489  1.5428  2.4565 -0.2927
  121SOPE  C31312897   6.071   2.742   6.352 -0.0863  0.0276 -0.6734
  121SOPE  H13X12898   6.143   2.660   6.336 -0.3082 -0.5314  0.9969
  121SOPE  H13Y12899   6.118   2.835   6.391 -2.8720  1.4542 -0.4252
  121SOPE  C31412900   5.996   2.770   6.227  0.4744 -0.2507  0.7755
  121SOPE  H14X12901   5.911   2.833   6.262 -1.9178 -2.1338 -1.1752
  121SOPE  H14Y12902   5.964   2.672   6.185  2.9299 -1.6283  1.9333
  121SOPE  C31512903   6.063   2.838   6.110  0.1609  0.1491 -0.7044
  121SOPE  H15X12904   6.133   2.771   6.055  0.4810 -1.6128  1.7133
  121SOPE  H15Y12905   6.121   2.920   6.158 -0.5178 -1.4709  3.2014
  121SOPE  C31612906   5.963   2.895   6.000 -0.0963  0.1452  0.0097
  121SOPE  H16X12907   5.879   2.933   6.061  2.9186  0.6011  4.3559
  121SOPE  H16Y12908   5.916   2.823   5.930 -0.8985  1.3686 -0.7431
  121SOPE  C31712909   6.022   3.009   5.912  0.0404 -0.5335  0.5583
  121SOPE  H17X12910   6.108   2.978   5.847  0.3620 -0.4416  0.9369
  121SOPE  H17Y12911   6.059   3.081   5.988 -0.8567  0.6245 -0.0706
  121SOPE  C31812912   5.925   3.080   5.810  0.0729 -0.2884  0.5654
  121SOPE  H18X12913   5.934   3.030   5.711 -3.1172 -1.5548  0.8263
  121SOPE  H18Y12914   5.936   3.190   5.797 -2.0724 -0.1686 -0.6918
  121SOPE  H18Z12915   5.819   3.067   5.837  0.2242  1.0488  1.9230
  122SOPE     N12916   5.090   4.842   0.044 -0.1636 -0.6511  0.2182
  122SOPE   HN112917   5.055   4.926   0.095 -2.8212 -1.3286 -0.3826
  122SOPE   HN212918   5.166   4.871  -0.022 -1.4847  2.0069 -0.2597
  122SOPE   HN312919   5.014   4.822  -0.024 -0.9906  0.2396  0.8523
  122SOPE   C1212920   5.127   4.718   0.118 -0.0881 -0.2634 -0.5767
  122SOPE  H12A12921   5.030   4.685   0.163 -0.9692  2.5972 -0.1172
  122SOPE  H12B12922   5.207   4.744   0.191 -0.1042 -1.2645 -0.1923
  122SOPE   C1112923   5.171   4.615   0.019 -0.1459 -0.8688  0.2760
  122SOPE  H11A12924   5.083   4.580  -0.039 -0.0648 -1.3091  0.4138
  122SOPE  H11B12925   5.203   4.520   0.067  0.6533 -0.9913 -0.4801
  122SOPE     P12926   5.426   4.659  -0.045 -0.2772  0.1393 -0.1463
  122SOPE   O1312927   5.473   4.521  -0.007  0.0321  0.2047 -0.0792
  122SOPE   O1412928   5.469   4.764   0.048  0.2625 -0.0383  0.7146
  122SOPE   O1212929   5.270   4.666  -0.074 -0.1468 -0.0430  0.1541
  122SOPE   O1112930   5.489   4.693  -0.192  0.0805  0.2686 -0.0104
  122SOPE    C112931   5.407   4.645  -0.304  0.5577  0.0692  0.2005
  122SOPE    HA12932   5.316   4.709  -0.312 -0.4195 -0.9384  2.4553
  122SOPE    HB12933   5.367   4.542  -0.293 -0.9488  0.7060  1.0469
  122SOPE    C212934   5.480   4.660  -0.442 -0.0096 -1.7183  0.0506
  122SOPE    HS12935   5.578   4.615  -0.416  0.5231 -1.9090 -2.0749
  122SOPE   O2112936   5.504   4.805  -0.465 -0.4712 -0.0157  0.7125
  122SOPE   C2112937   5.629   4.829  -0.505  0.2404 -0.2343 -0.3064
  122SOPE   O2212938   5.724   4.751  -0.507  0.7482  0.3486 -0.1990
  122SOPE   C2212939   5.648   4.969  -0.563 -0.0243  0.3954 -0.1419
  122SOPE   H2R12940   5.751   4.964  -0.605 -1.0193 -0.8978 -2.6601
  122SOPE   H2S12941   5.654   5.046  -0.484 -0.8944  2.3498 -1.8804
  122SOPE    C312942   5.414   4.587  -0.564  0.1364 -0.2861  0.2046
  122SOPE    HX12943   5.327   4.650  -0.591  0.3397 -1.0269 -2.3975
  122SOPE    HY12944   5.364   4.490  -0.541  0.2564 -0.6471 -0.9721
  122SOPE   O3112945   5.502   4.587  -0.680  0.0999  0.0405  0.0416
  122SOPE   C3112946   5.594   4.488  -0.684  0.3787 -0.0594 -0.1895
  122SOPE   O3212947   5.581   4.384  -0.622  0.4273  0.1129 -0.1391
  122SOPE   C3212948   5.715   4.515  -0.774  0.3538  0.2504  0.8423
  122SOPE   H2X12949   5.763   4.416  -0.791  0.5938  0.6779 -1.2330
  122SOPE   H2Y12950   5.793   4.573  -0.720  0.2203  0.3750  0.9004
  122SOPE   C2312951   5.542   5.010  -0.674  0.1666 -0.1567  0.9160
  122SOPE   H3R12952   5.561   5.116  -0.703 -2.7630  0.3406  0.5021
  122SOPE   H3S12953   5.450   5.008  -0.612  1.2389  2.6171  2.8476
  122SOPE   C2412954   5.536   4.930  -0.804 -0.0049  0.2290  0.8026
  122SOPE   H4R12955   5.540   4.822  -0.780  2.2518 -0.3287 -1.5848
  122SOPE   H4S12956   5.446   4.958  -0.864  0.0663 -2.2353 -0.5986
  122SOPE   C2512957   5.650   4.965  -0.904  0.2245  0.5986 -0.1534
  122SOPE   H5R12958   5.747   4.947  -0.853 -0.2689 -1.3482  0.1760
  122SOPE   H5S12959   5.649   4.897  -0.992  2.6313  2.8582 -2.0818
  122SOPE   C2612960   5.625   5.111  -0.962  0.0974  0.4483  0.7117
  122SOPE   H6R12961   5.515   5.127  -0.970  0.0263  0.0112  0.7841
  122SOPE   H6S12962   5.661   5.184  -0.887  1.6025  4.2747 -3.2703
  122SOPE   C2712963   5.700   5.147  -1.090 -0.3429  0.5620  0.7469
  122SOPE   H7R12964   5.697   5.258  -1.094  0.5884  0.5842  0.4538
  122SOPE   H7S12965   5.806   5.120  -1.067 -0.7470  0.9822  3.4260
  122SOPE   C2812966   5.634   5.090  -1.215 -0.0067  0.1227  0.7883
  122SOPE   H8R12967   5.642   4.979  -1.214 -1.9094 -0.0999 -0.9608
  122SOPE   H8S12968   5.527   5.116  -1.207  0.3536  2.6353 -1.1119
  122SOPE   C2912969   5.691   5.149  -1.342  0.1969 -0.5905 -0.7074
  122SOPE   H9112970   5.800   5.160  -1.334  0.0272  0.7366  0.2188
  122SOPE  C21012971   5.626   5.203  -1.444  0.0769  0.7302  0.5747
  122SOPE  H10112972   5.684   5.238  -1.530 -1.0076  0.5751 -0.2441
  122SOPE  C21112973   5.471   5.194  -1.466 -0.6738 -0.0674 -0.0054
  122SOPE  H11R12974   5.431   5.294  -1.493  0.1284  1.7015  4.4861
  122SOPE  H11S12975   5.408   5.167  -1.379  1.2645  0.4752  1.6373
  122SOPE  C21212976   5.455   5.103  -1.590 -0.3888  0.4044 -0.0240
  122SOPE  H12R12977   5.476   5.000  -1.553  1.4558  0.4009 -0.9905
  122SOPE  H12S12978   5.527   5.124  -1.672 -0.4952  0.9592  0.0260
  122SOPE  C21312979   5.316   5.120  -1.649  0.1908  0.0130  0.1902
  122SOPE  H13R12980   5.306   5.219  -1.697 -1.6846 -0.6668 -0.9412
  122SOPE  H13S12981   5.245   5.121  -1.563  1.2734  0.0507  1.0996
  122SOPE  C21412982   5.274   5.013  -1.757  0.3195 -0.5943 -0.1510
  122SOPE  H14R12983   5.269   4.916  -1.703  0.4551  0.5519  2.0197
  122SOPE  H14S12984   5.359   5.013  -1.829  0.5025  1.9209 -0.0061
  122SOPE  C21512985   5.148   5.065  -1.822 -0.2490  0.1803 -0.1231
  122SOPE  H15R12986   5.175   5.158  -1.876 -1.5919  0.3704 -0.5166
  122SOPE  H15S12987   5.072   5.075  -1.742  1.8198 -0.7907  2.0707
  122SOPE  C21612988   5.100   4.958  -1.924 -0.3697  0.9792  0.2434
  122SOPE  H16R12989   5.000   4.991  -1.958 -0.2746  2.5024  1.3192
  122SOPE  H16S12990   5.084   4.861  -1.872 -0.3602  0.8520  0.0077
  122SOPE  C21712991   5.188   4.950  -2.051  0.0378  0.8016  0.0437
  122SOPE  H17R12992   5.270   4.877  -2.034 -1.5151 -0.9297  0.4587
  122SOPE  H17S12993   5.226   5.051  -2.075  0.7412  0.6708  0.5640
  122SOPE  C21812994   5.132   4.904  -2.183 -0.3509 -0.0952  0.3087
  122SOPE  H18R12995   5.092   4.801  -2.179  0.7393 -0.5901 -0.8119
  122SOPE  H18S12996   5.200   4.905  -2.271 -0.8480 -0.6190 -0.0868
  122SOPE  H18T12997   5.056   4.979  -2.216  0.0759  0.1222 -0.2068
  122SOPE   C3312998   5.686   4.571  -0.920  0.4046 -0.5425 -0.2510
  122SOPE   H3X12999   5.658   4.678  -0.909 -3.0776 -1.1900 -1.4941
  122SOPE   H3Y13000   5.593   4.517  -0.949 -0.5155 -1.7661  4.2241
  122SOPE   C3413001   5.804   4.538  -1.008 -0.0088 -0.5052 -0.2060
  122SOPE   H4X13002   5.853   4.440  -0.987 -0.7017 -0.9602 -0.6363
  122SOPE   H4Y13003   5.880   4.611  -0.973  0.9693 -0.9684 -1.2896
  122SOPE   C3513004   5.772   4.559  -1.157  0.0742  0.3742  0.2426
  122SOPE   H5X13005   5.766   4.666  -1.185  0.1183  0.1197 -0.7769
  122SOPE   H5Y13006   5.675   4.514  -1.187  0.0694 -0.6413  1.6600
  122SOPE   C3613007   5.877   4.509  -1.247 -0.1880  0.2050 -0.0936
  122SOPE   H6X13008   5.902   4.404  -1.218 -0.9341 -0.1955 -0.8306
  122SOPE   H6Y13009   5.971   4.568  -1.243  1.7952 -2.7918  0.9733
  122SOPE   C3713010   5.831   4.519  -1.398  0.0259 -0.5913 -0.0233
  122SOPE   H7X13011   5.792   4.623  -1.410  0.7692 -0.4141 -1.0199
  122SOPE   H7Y13012   5.753   4.439  -1.396  0.1810 -0.7633 -0.5936
  122SOPE   C3813013   5.950   4.498  -1.496  0.4613  0.6694 -0.3342
  122SOPE   H8X13014   6.001   4.403  -1.471 -0.3766  0.1769 -0.4424
  122SOPE   H8Y13015   6.031   4.574  -1.496  0.4656  0.6868 -1.5798
  122SOPE   C3913016   5.893   4.497  -1.644  0.5928  0.0170 -0.3363
  122SOPE   H9X13017   5.801   4.435  -1.646 -0.1941  1.1361 -2.4882
  122SOPE   H9Y13018   5.969   4.450  -1.710  0.1440 -0.6121 -0.4140
  122SOPE  C31013019   5.861   4.640  -1.690 -0.3696 -0.4950  0.8297
  122SOPE  H10X13020   5.964   4.681  -1.705 -0.4173  0.2518  2.3609
  122SOPE  H10Y13021   5.807   4.708  -1.622  2.0328  0.8030  1.5638
  122SOPE  C31113022   5.782   4.643  -1.822  0.7418 -0.3810  0.1017
  122SOPE  H11X13023   5.700   4.571  -1.802  2.8217 -2.5300  1.2592
  122SOPE  H11Y13024   5.833   4.593  -1.907 -1.6251 -1.9903 -0.4717
  122SOPE  C31213025   5.717   4.778  -1.847  0.8646  0.6122  0.5571
  122SOPE  H12X13026   5.798   4.850  -1.872  2.5918 -1.4757 -0.1848
  122SOPE  H12Y13027   5.678   4.825  -1.754  2.6479  1.6074  0.8653
  122SOPE  C31313028   5.607   4.778  -1.952  0.1871  0.1533  0.9191
  122SOPE  H13X13029   5.552   4.875  -1.956  1.1386  0.6791 -1.5246
  122SOPE  H13Y13030   5.538   4.693  -1.935 -2.7454  1.6923 -2.1081
  122SOPE  C31413031   5.667   4.767  -2.092  0.1150  0.3034  0.6007
  122SOPE  H14X13032   5.727   4.674  -2.101 -0.5008 -0.0131 -0.4500
  122SOPE  H14Y13033   5.730   4.857  -2.112 -1.0991  1.5660  2.1662
  122SOPE  C31513034   5.549   4.768  -2.189 -0.1605 -0.2695  0.1400
  122SOPE  H15X13035   5.588   4.792  -2.290 -0.1116 -0.2175  0.1712
  122SOPE  H15Y13036   5.468   4.842  -2.170 -0.0948 -0.1219 -0.1553
  122SOPE  C31613037   5.485   4.631  -2.213  0.1257 -0.8528 -0.0997
  122SOPE  H16X13038   5.455   4.576  -2.121 -0.9479 -0.3274 -0.1230
  122SOPE  H16Y13039   5.565   4.576  -2.267  1.0188  0.3649 -0.0659
  122SOPE  C31713040   5.354   4.635  -2.300 -0.6279 -0.1203  0.6069
  122SOPE  H17X13041   5.348   4.718  -2.373  2.8404 -1.3627 -1.3914
  122SOPE  H17Y13042   5.278   4.638  -2.220 -0.5263  3.3985  0.7003
  122SOPE  C31813043   5.331   4.508  -2.388 -0.6478 -0.1416 -0.8667
  122SOPE  H18X13044   5.424   4.464  -2.431 -0.4639 -1.6771  0.9721
  122SOPE  H18Y13045   5.256   4.520  -2.469 -4.0057  1.1660  2.1699
  122SOPE  H18Z13046   5.282   4.436  -2.320  0.9567 -1.2192 -0.7915
  123SOPE     N13047   2.224   0.215   4.136 -0.4193 -0.2455 -0.1888
  123SOPE   HN113048   2.213   0.112   4.146 -0.1787 -0.3484 -0.9035
  123SOPE   HN213049   2.311   0.217   4.078  0.3703  1.3748  0.9474
  123SOPE   HN313050   2.242   0.258   4.229 -1.5296 -0.5860  0.1954
  123SOPE   C1213051   2.111   0.287   4.065  0.2248 -0.2501 -0.0653
  123SOPE  H12A13052   2.155   0.378   4.019  2.5257 -1.7123 -0.9670
  123SOPE  H12B13053   2.041   0.315   4.147  2.4713  0.5875  1.6794
  123SOPE   C1113054   2.046   0.203   3.958 -0.9034  0.1390 -0.0915
  123SOPE  H11A13055   2.106   0.152   3.880  0.8588  1.9084  0.0345
  123SOPE  H11B13056   1.993   0.282   3.900 -0.9176  1.9720  2.3020
  123SOPE     P13057   1.823   0.054   3.986  0.0903 -0.2704  0.3878
  123SOPE   O1313058   1.832  -0.092   4.006 -0.0989  0.7970  0.1216
  123SOPE   O1413059   1.794   0.101   3.851 -0.3077  0.1518  0.2640
  123SOPE   O1213060   1.963   0.111   4.025 -0.3732 -0.6903 -0.4436
  123SOPE   O1113061   1.714   0.124   4.086 -0.0452 -0.2497  0.8307
  123SOPE    C113062   1.754   0.207   4.195 -0.5774  0.1915  0.1402
  123SOPE    HA13063   1.668   0.267   4.229 -0.9931  0.0681 -0.6943
  123SOPE    HB13064   1.832   0.282   4.168  0.8949 -1.0067  0.8705
  123SOPE    C213065   1.813   0.126   4.325 -0.5656 -0.0961 -0.1371
  123SOPE    HS13066   1.921   0.113   4.306  0.2007  0.4416  3.2398
  123SOPE   O2113067   1.754  -0.005   4.340  0.2403 -0.1008 -0.6227
  123SOPE   C2113068   1.837  -0.090   4.397  0.8830  0.4863 -0.2893
  123SOPE   O2213069   1.952  -0.066   4.442  0.0303  0.5670 -0.0560
  123SOPE   C2213070   1.781  -0.228   4.397  0.0112 -0.7133 -0.4122
  123SOPE   H2R13071   1.801  -0.275   4.299 -1.3567 -3.2115  0.4118
  123SOPE   H2S13072   1.670  -0.236   4.404 -0.0495 -1.5386 -1.8104
  123SOPE    C313073   1.818   0.216   4.453 -0.5557 -0.3051 -0.8493
  123SOPE    HX13074   1.715   0.253   4.470 -0.2101  1.5775 -2.3780
  123SOPE    HY13075   1.870   0.309   4.420 -1.4095  0.0692 -1.1888
  123SOPE   O3113076   1.869   0.163   4.582 -0.8557 -0.8220  1.0144
  123SOPE   C3113077   1.990   0.203   4.615  0.0551  0.4229  0.0086
  123SOPE   O3213078   2.073   0.255   4.541  0.1078 -0.1938  0.4774
  123SOPE   C3213079   2.008   0.159   4.762 -0.8288 -0.4922  0.5148
  123SOPE   H2X13080   1.961   0.059   4.779 -2.3050  0.2574  1.0153
  123SOPE   H2Y13081   1.969   0.236   4.831  0.9445 -1.2173  2.4050
  123SOPE   C2313082   1.834  -0.307   4.513 -0.3119  0.4922  0.0256
  123SOPE   H3R13083   1.944  -0.322   4.507 -0.3445  0.6108 -1.2015
  123SOPE   H3S13084   1.790  -0.408   4.519 -0.7710  0.5417 -1.8656
  123SOPE   C2413085   1.791  -0.262   4.654 -0.3772  0.5434 -0.1103
  123SOPE   H4R13086   1.834  -0.162   4.674  1.5914  0.2553 -2.3777
  123SOPE   H4S13087   1.680  -0.263   4.652 -0.3816  1.3726 -1.6293
  123SOPE   C2513088   1.848  -0.350   4.761  0.3018 -0.4959  0.0011
  123SOPE   H5R13089   1.835  -0.460   4.751 -0.8651 -0.4279  0.6580
  123SOPE   H5S13090   1.956  -0.324   4.754  0.7277 -2.5140 -2.8841
  123SOPE   C2613091   1.809  -0.310   4.905  0.0761 -0.5151 -0.5011
  123SOPE   H6R13092   1.699  -0.298   4.900  0.3284  3.8544  0.1064
  123SOPE   H6S13093   1.839  -0.402   4.960  0.4705 -0.2547 -0.2717
  123SOPE   C2713094   1.880  -0.183   4.968 -1.1324  0.5802  0.3006
  123SOPE   H7R13095   1.991  -0.193   4.971 -1.0991 -0.0445 -1.5026
  123SOPE   H7S13096   1.853  -0.103   4.895  2.1533 -0.0005 -1.7941
  123SOPE   C2813097   1.830  -0.176   5.107  0.3695 -0.0022 -0.1790
  123SOPE   H8R13098   1.724  -0.142   5.102  0.6606  1.3102  1.5143
  123SOPE   H8S13099   1.825  -0.279   5.147 -1.3643  0.0963 -0.0514
  123SOPE   C2913100   1.908  -0.084   5.201  0.8039 -1.1256 -0.2504
  123SOPE   H9113101   1.952   0.009   5.160 -0.4394  0.3589  1.5956
  123SOPE  C21013102   1.938  -0.112   5.330 -0.0247 -0.4420  0.2687
  123SOPE  H10113103   1.996  -0.041   5.391  0.3000 -1.4727  1.1869
  123SOPE  C21113104   1.888  -0.228   5.404 -0.2204 -0.7574  0.1439
  123SOPE  H11R13105   1.807  -0.275   5.343 -0.7486  2.3319 -1.7469
  123SOPE  H11S13106   1.838  -0.197   5.498  2.1042 -0.3439  1.3027
  123SOPE  C21213107   1.991  -0.339   5.408 -0.3325 -0.3976  0.1020
  123SOPE  H12R13108   2.088  -0.309   5.452 -0.5990  2.6135 -1.1382
  123SOPE  H12S13109   2.004  -0.376   5.303  1.9218  0.0781  0.1565
  123SOPE  C21313110   1.924  -0.453   5.485 -1.0458  0.2322  0.4417
  123SOPE  H13R13111   1.856  -0.511   5.420  1.2230 -1.1647 -0.8130
  123SOPE  H13S13112   1.860  -0.422   5.570  0.4477 -0.6738  1.9639
  123SOPE  C21413113   2.020  -0.554   5.548  0.2508 -0.4429 -0.4203
  123SOPE  H14R13114   2.100  -0.496   5.600  2.0661 -1.7288 -1.6462
  123SOPE  H14S13115   2.065  -0.612   5.465  1.6146  2.9226 -2.2170
  123SOPE  C21513116   1.964  -0.664   5.645  0.0483  0.5208  0.0673
  123SOPE  H15R13117   2.039  -0.746   5.639  0.9100  1.4005 -2.4096
  123SOPE  H15S13118   1.870  -0.705   5.603  0.7819 -1.7013  0.4568
  123SOPE  C21613119   1.942  -0.617   5.786  0.3945  0.3898  0.3461
  123SOPE  H16R13120   1.859  -0.544   5.795  0.4626  0.2393  2.9217
  123SOPE  H16S13121   2.037  -0.561   5.805 -1.6327  4.4111 -0.3976
  123SOPE  C21713122   1.922  -0.737   5.887  0.1039  0.2821 -0.0525
  123SOPE  H17R13123   1.885  -0.693   5.982  0.0626 -1.5122  0.7941
  123SOPE  H17S13124   2.021  -0.786   5.894  0.2851  0.7794  1.0449
  123SOPE  C21813125   1.818  -0.847   5.854 -0.9715  0.9427  0.3384
  123SOPE  H18R13126   1.723  -0.797   5.826 -1.4154  0.0247  0.1658
  123SOPE  H18S13127   1.802  -0.920   5.937  1.4946 -1.3686 -1.0383
  123SOPE  H18T13128   1.852  -0.906   5.766 -0.8542  0.2540  0.8340
  123SOPE   C3313129   2.163   0.115   4.779 -0.9988 -0.3549 -0.4845
  123SOPE   H3X13130   2.233   0.188   4.734 -1.0120  0.5142  0.8393
  123SOPE   H3Y13131   2.186   0.021   4.725 -0.0003  0.5952 -1.7514
  123SOPE   C3413132   2.193   0.105   4.930 -0.1435  0.8883  0.6970
  123SOPE   H4X13133   2.142   0.020   4.980  1.0636 -0.5186 -0.3545
  123SOPE   H4Y13134   2.157   0.199   4.976 -0.5316  0.8913  0.3955
  123SOPE   C3513135   2.343   0.086   4.963  0.1779  0.3331  0.0293
  123SOPE   H5X13136   2.402   0.157   4.902 -0.7511 -1.5034 -3.2220
  123SOPE   H5Y13137   2.376  -0.015   4.933  0.9822  1.3296 -2.7683
  123SOPE   C3613138   2.380   0.105   5.111  0.1751 -0.7031  0.1327
  123SOPE   H6X13139   2.314   0.183   5.154  0.6377 -1.5168  2.4768
  123SOPE   H6Y13140   2.487   0.133   5.120 -0.0876  0.1953  0.5238
  123SOPE   C3713141   2.363  -0.023   5.200  0.2690  0.3695 -0.1319
  123SOPE   H7X13142   2.418  -0.108   5.154 -0.3971 -0.6244  0.8544
  123SOPE   H7Y13143   2.257  -0.056   5.201 -0.1108  1.3385 -2.3082
  123SOPE   C3813144   2.404  -0.006   5.351  0.1404 -0.0142 -0.2650
  123SOPE   H8X13145   2.371   0.095   5.383 -0.3837 -0.0378 -0.7094
  123SOPE   H8Y13146   2.515  -0.009   5.346  0.2586  1.9853  0.2151
  123SOPE   C3913147   2.368  -0.126   5.450 -0.2515 -0.2484  0.0179
  123SOPE   H9X13148   2.429  -0.212   5.416 -0.3744  0.1550 -1.2899
  123SOPE   H9Y13149   2.262  -0.157   5.433 -0.6868  0.5758  1.1523
  123SOPE  C31013150   2.379  -0.091   5.601  0.0860  0.0754  0.4854
  123SOPE  H10X13151   2.310  -0.006   5.620 -0.8870 -1.0721  2.3493
  123SOPE  H10Y13152   2.482  -0.059   5.627  0.8489 -0.7157 -1.3093
  123SOPE  C31113153   2.333  -0.211   5.685  0.3592 -0.2350  0.0024
  123SOPE  H11X13154   2.413  -0.288   5.680 -1.1867 -2.1579  2.4123
  123SOPE  H11Y13155   2.240  -0.257   5.644 -0.7738 -0.0581  2.2338
  123SOPE  C31213156   2.315  -0.186   5.833 -0.2315 -0.0444 -0.1181
  123SOPE  H12X13157   2.237  -0.108   5.841 -0.6413 -0.5446  1.0161
  123SOPE  H12Y13158   2.409  -0.145   5.877  0.5659 -1.4152 -0.4877
  123SOPE  C31313159   2.269  -0.304   5.924  0.0014  0.3909  0.2203
  123SOPE  H13X13160   2.341  -0.388   5.910 -1.2976 -0.3465 -2.8264
  123SOPE  H13Y13161   2.165  -0.328   5.893  0.7127 -0.1392 -1.9220
  123SOPE  C31413162   2.265  -0.266   6.077  0.4840 -0.0362 -0.3877
  123SOPE  H14X13163   2.365  -0.224   6.099  0.7791  0.2229 -2.0727
  123SOPE  H14Y13164   2.247  -0.363   6.129 -2.7934  0.3700 -0.5382
  123SOPE  C31513165   2.154  -0.168   6.102  0.2152 -0.2846  0.3079
  123SOPE  H15X13166   2.068  -0.207   6.044  1.5412 -0.5834 -1.5545
  123SOPE  H15Y13167   2.166  -0.063   6.065  0.7370  0.1095  1.5203
  123SOPE  C31613168   2.125  -0.152   6.251 -0.0283 -0.3224 -0.3130
  123SOPE  H16X13169   2.120  -0.250   6.303 -4.5244 -0.0506  0.1180
  123SOPE  H16Y13170   2.020  -0.115   6.249 -0.9085 -2.5452  0.6553
  123SOPE  C31713171   2.214  -0.055   6.335  1.0080 -0.0515 -0.7828
  123SOPE  H17X13172   2.214   0.039   6.277  0.8828 -1.2116 -2.7289
  123SOPE  H17Y13173   2.320  -0.087   6.327  1.6395  0.4857  3.1188
  123SOPE  C31813174   2.171  -0.032   6.477  0.6830 -0.0582  0.3969
  123SOPE  H18X13175   2.083   0.035   6.476  2.4133  2.4010 -2.4025
  123SOPE  H18Y13176   2.248   0.014   6.542  1.4423 -3.4832  2.2154
  123SOPE  H18Z13177   2.135  -0.126   6.526 -0.5276  1.0072  1.6422
  124SOPE     N13178   0.829   5.048   4.084 -0.6417 -0.1476  0.0498
  124SOPE   HN113179   0.817   4.980   4.006  0.1020  0.1974 -0.3742
  124SOPE   HN213180   0.865   5.139   4.049 -0.9706 -0.0802 -0.1180
  124SOPE   HN313181   0.900   5.005   4.147  0.7345  0.3823 -1.0807
  124SOPE   C1213182   0.712   5.089   4.167 -0.1575  0.6868 -0.5354
  124SOPE  H12A13183   0.629   5.134   4.108 -0.4040 -1.0855 -1.6094
  124SOPE  H12B13184   0.744   5.163   4.244 -1.1010  0.0697  0.4921
  124SOPE   C1113185   0.661   4.963   4.251 -0.0518 -0.1144  0.2599
  124SOPE  H11A13186   0.618   4.998   4.347 -1.9620 -1.7072  0.0623
  124SOPE  H11B13187   0.750   4.903   4.280  2.4433  3.3631  0.3329
  124SOPE     P13188   0.433   4.900   4.146  0.1297  0.0073  0.1847
  124SOPE   O1313189   0.397   4.776   4.076  0.7623  0.6900  0.2818
  124SOPE   O1413190   0.405   5.029   4.072 -0.1368  0.0205 -0.3222
  124SOPE   O1213191   0.585   4.879   4.163  0.0672 -0.4422  0.1845
  124SOPE   O1113192   0.384   4.902   4.296  0.0657  0.5388 -0.2539
  124SOPE    C113193   0.309   5.014   4.349 -0.0392 -0.3389  0.5674
  124SOPE    HA13194   0.204   5.013   4.314  0.1413  2.1994 -0.2602
  124SOPE    HB13195   0.350   5.114   4.324 -2.6187  1.3613  2.5876
  124SOPE    C213196   0.301   5.004   4.499 -0.4505  0.1038 -0.3352
  124SOPE    HS13197   0.246   5.097   4.527 -1.7076 -0.1570 -1.7654
  124SOPE   O2113198   0.425   4.999   4.563  0.4052 -0.4081 -0.6852
  124SOPE   C2113199   0.422   5.039   4.692 -0.4846  0.7117 -0.5021
  124SOPE   O2213200   0.330   5.086   4.755 -0.0512 -0.3562 -0.0425
  124SOPE   C2213201   0.558   5.003   4.753 -0.2515  0.2682  0.1817
  124SOPE   H2R13202   0.625   5.090   4.769  1.3873 -1.0952  1.0648
  124SOPE   H2S13203   0.615   4.928   4.694 -1.3744 -0.7792  0.3894
  124SOPE    C313204   0.216   4.874   4.534  0.0825 -0.0497  0.4697
  124SOPE    HX13205   0.288   4.792   4.514  2.6294  1.4927  2.7346
  124SOPE    HY13206   0.127   4.862   4.468 -0.4501  1.4935  0.8722
  124SOPE   O3113207   0.184   4.866   4.675  0.0077 -0.1150 -0.0907
  124SOPE   C3113208   0.064   4.917   4.710 -0.2591  0.5002  0.4636
  124SOPE   O3213209  -0.021   4.954   4.630 -0.1205 -0.0435 -0.1156
  124SOPE   C3213210   0.048   4.932   4.855 -0.4209  0.5886 -0.3702
  124SOPE   H2X13211   0.085   5.030   4.894  0.8438  0.0329 -0.1499
  124SOPE   H2Y13212   0.100   4.850   4.908 -1.0088  0.2521 -0.3035
  124SOPE   C2313213   0.551   4.948   4.904  0.2403  0.1515  0.7694
  124SOPE   H3R13214   0.490   5.018   4.966  0.8260  0.9727  0.4418
  124SOPE   H3S13215   0.656   4.951   4.939  1.5618 -0.7621 -2.6833
  124SOPE   C2413216   0.508   4.805   4.907  0.5191  0.6971  0.3988
  124SOPE   H4R13217   0.432   4.781   4.829 -0.2451  1.2359  0.9586
  124SOPE   H4S13218   0.600   4.752   4.875  0.5313  0.1278  1.3477
  124SOPE   C2513219   0.482   4.755   5.045  0.1796 -0.4930  0.2132
  124SOPE   H5R13220   0.556   4.790   5.119 -1.3716  0.6735  1.2761
  124SOPE   H5S13221   0.388   4.799   5.085  0.0647  0.7020 -1.2632
  124SOPE   C2613222   0.480   4.607   5.051  0.0803  0.1569  0.5419
  124SOPE   H6R13223   0.396   4.584   4.981  0.5674  3.6612 -1.4545
  124SOPE   H6S13224   0.573   4.570   5.004 -0.5570  0.9946 -1.4945
  124SOPE   C2713225   0.457   4.546   5.191 -0.2103  1.8926 -0.9584
  124SOPE   H7R13226   0.527   4.598   5.261  0.6789 -1.1089  0.5280
  124SOPE   H7S13227   0.360   4.584   5.230  0.3491  1.7115  0.6795
  124SOPE   C2813228   0.472   4.395   5.194  0.1494  0.5348  0.8256
  124SOPE   H8R13229   0.396   4.358   5.122  0.3232  0.6900  0.5612
  124SOPE   H8S13230   0.571   4.373   5.149 -0.7355 -0.1743 -0.8711
  124SOPE   C2913231   0.449   4.337   5.337 -0.2582 -0.0917  0.0674
  124SOPE   H9113232   0.531   4.347   5.410 -0.0593 -0.9510 -0.0343
  124SOPE  C21013233   0.347   4.253   5.373  0.5392 -0.5136 -0.4427
  124SOPE  H10113234   0.341   4.237   5.482 -1.7684  2.8993  0.0946
  124SOPE  C21113235   0.226   4.217   5.294  0.4030 -0.0003  1.0762
  124SOPE  H11R13236   0.181   4.304   5.242 -0.2542 -0.4972  0.7930
  124SOPE  H11S13237   0.150   4.181   5.366 -0.2523 -1.4286 -0.2626
  124SOPE  C21213238   0.252   4.113   5.189 -0.3408  0.6777  0.0773
  124SOPE  H12R13239   0.325   4.145   5.111 -1.2165 -0.6567 -1.3702
  124SOPE  H12S13240   0.167   4.076   5.128  0.9547 -0.9400 -0.8531
  124SOPE  C21313241   0.305   3.974   5.229 -0.6064  0.1531  0.0740
  124SOPE  H13R13242   0.224   3.915   5.276 -1.2698  0.4259 -0.6900
  124SOPE  H13S13243   0.390   3.991   5.299 -2.3312 -0.9083  2.5558
  124SOPE  C21413244   0.356   3.891   5.110  0.1147  0.3205  0.2606
  124SOPE  H14R13245   0.389   3.789   5.140 -1.3611  0.1550  1.4247
  124SOPE  H14S13246   0.445   3.944   5.070 -0.2642  1.3869  0.7955
  124SOPE  C21513247   0.256   3.869   5.001  0.8717 -0.0816 -0.7804
  124SOPE  H15R13248   0.218   3.967   4.965  0.3436 -0.4498 -1.2450
  124SOPE  H15S13249   0.165   3.823   5.044 -0.4613  2.4355 -0.7079
  124SOPE  C21613250   0.303   3.779   4.886  0.5911 -0.7673 -0.7895
  124SOPE  H16R13251   0.329   3.675   4.917  3.0505  0.0963  0.2105
  124SOPE  H16S13252   0.389   3.828   4.837  0.2199 -1.5073 -2.2606
  124SOPE  C21713253   0.199   3.777   4.777 -0.7771  0.5756 -0.2571
  124SOPE  H17R13254   0.201   3.870   4.715 -0.5888  0.6053 -0.2068
  124SOPE  H17S13255   0.103   3.779   4.834 -0.2368  0.8816  0.6576
  124SOPE  C21813256   0.220   3.656   4.681 -0.4411  0.4251 -0.0652
  124SOPE  H18R13257   0.235   3.562   4.737 -1.9669  0.4129  0.3688
  124SOPE  H18S13258   0.306   3.684   4.616 -0.4639  0.6747  0.0079
  124SOPE  H18T13259   0.136   3.636   4.611  0.1366  0.0171 -0.6433
  124SOPE   C3313260  -0.099   4.911   4.907  0.5567  0.0681 -0.9222
  124SOPE   H3X13261  -0.164   4.984   4.855 -0.4648  1.8819  2.5566
  124SOPE   H3Y13262  -0.098   4.947   5.012 -0.6287 -0.1068 -0.8365
  124SOPE   C3413263  -0.140   4.765   4.891 -0.6979  0.3823 -0.2294
  124SOPE   H4X13264  -0.073   4.699   4.950 -0.3514  0.0684 -0.9576
  124SOPE   H4Y13265  -0.119   4.734   4.786 -0.1725 -0.2331  0.0510
  124SOPE   C3513266  -0.284   4.746   4.928  0.9769 -0.7248 -0.7698
  124SOPE   H5X13267  -0.318   4.647   4.891  1.2163 -0.9157 -0.4779
  124SOPE   H5Y13268  -0.341   4.825   4.875  0.5567 -0.2207  0.3890
  124SOPE   C3613269  -0.318   4.752   5.079 -0.0676 -0.1535  0.8955
  124SOPE   H6X13270  -0.334   4.853   5.124  1.1304 -0.1207  1.2685
  124SOPE   H6Y13271  -0.232   4.699   5.125  1.0271 -1.6866 -2.5754
  124SOPE   C3713272  -0.440   4.666   5.105 -0.1182  0.0155  0.3331
  124SOPE   H7X13273  -0.425   4.558   5.085  0.5115 -0.0092  0.8963
  124SOPE   H7Y13274  -0.518   4.705   5.036  0.9215 -0.3116 -1.0817
  124SOPE   C3813275  -0.500   4.693   5.248  0.1407  0.5721  0.3505
  124SOPE   H8X13276  -0.605   4.659   5.232  1.2257 -1.1802 -6.0895
  124SOPE   H8Y13277  -0.516   4.798   5.279  0.5372  0.2938  1.5219
  124SOPE   C3913278  -0.424   4.607   5.357  0.4166  0.0266  0.0439
  124SOPE   H9X13279  -0.396   4.512   5.308 -1.6014 -1.1408  1.0213
  124SOPE   H9Y13280  -0.490   4.586   5.444  3.2416  0.3573  2.4112
  124SOPE  C31013281  -0.296   4.671   5.414  0.2622  0.4031  0.3339
  124SOPE  H10X13282  -0.228   4.678   5.327 -0.7833 -1.6513 -0.7268
  124SOPE  H10Y13283  -0.248   4.596   5.480 -2.1012 -1.8187 -0.3063
  124SOPE  C31113284  -0.324   4.804   5.485  0.9648  0.2090 -0.6131
  124SOPE  H11X13285  -0.422   4.784   5.533  1.7738 -0.3735  0.8336
  124SOPE  H11Y13286  -0.353   4.888   5.417  0.6047  2.8682  2.5778
  124SOPE  C31213287  -0.232   4.862   5.593 -0.1819  0.1933 -0.2858
  124SOPE  H12X13288  -0.203   4.793   5.675 -1.0692  0.8625  0.6299
  124SOPE  H12Y13289  -0.295   4.939   5.644 -0.4625 -0.0226 -0.3036
  124SOPE  C31313290  -0.112   4.928   5.524  0.9123 -0.1468  0.0135
  124SOPE  H13X13291  -0.143   5.015   5.462  1.2978  1.2408  1.6954
  124SOPE  H13Y13292  -0.072   4.849   5.458  0.8154  1.3073 -1.8762
  124SOPE  C31413293  -0.012   4.987   5.612 -0.1775  0.1917  0.3593
  124SOPE  H14X13294  -0.005   4.925   5.704  1.5689  1.6744  1.2826
  124SOPE  H14Y13295  -0.025   5.090   5.653  0.2591 -0.2216  1.5801
  124SOPE  C31513296   0.136   4.985   5.572  0.0054 -0.0246  0.3700
  124SOPE  H15X13297   0.176   4.884   5.547  2.2070  0.8486  0.1523
  124SOPE  H15Y13298   0.195   5.018   5.660  1.1188 -2.2050  0.5056
  124SOPE  C31613299   0.168   5.071   5.446  0.2029 -0.0926 -0.5508
  124SOPE  H16X13300   0.274   5.103   5.447  0.3534 -0.4933  1.6311
  124SOPE  H16Y13301   0.106   5.162   5.459 -0.9827 -1.0569  0.9598
  124SOPE  C31713302   0.136   5.010   5.316 -0.9185  0.1493 -0.3724
  124SOPE  H17X13303   0.029   4.987   5.298 -0.8477  0.2863 -0.9813
  124SOPE  H17Y13304   0.187   4.911   5.319 -2.0213 -0.4433  2.6045
  124SOPE  C31813305   0.188   5.073   5.185  0.3556  0.7171  0.2212
  124SOPE  H18X13306   0.298   5.084   5.185  0.3632  0.6457  0.2929
  124SOPE  H18Y13307   0.136   5.169   5.167 -1.5370 -0.4525 -0.9371
  124SOPE  H18Z13308   0.167   5.008   5.097  1.1965 -2.9768  2.5454
  125SOPE     N13309   4.672   3.208   3.737  0.7720 -0.0768 -0.1252
  125SOPE   HN113310   4.636   3.302   3.759 -1.9945  0.2565 -4.7734
  125SOPE   HN213311   4.773   3.215   3.711  1.2150 -0.9276  1.2510
  125SOPE   HN313312   4.617   3.187   3.651  0.5988 -0.2193  0.0195
  125SOPE   C1213313   4.641   3.113   3.847  0.2072  0.4219  0.1494
  125SOPE  H12A13314   4.720   3.115   3.924  0.1855  0.6555  0.1663
  125SOPE  H12B13315   4.639   3.013   3.799  1.0912 -0.5931  2.1119
  125SOPE   C1113316   4.494   3.135   3.899  0.5516  0.3166  0.0876
  125SOPE  H11A13317   4.461   3.035   3.932 -0.3000  1.1434  1.8859
  125SOPE  H11B13318   4.415   3.167   3.828 -1.8066 -1.2582  1.8621
  125SOPE     P13319   4.492   3.372   4.001 -0.1968  0.2507  0.5913
  125SOPE   O1313320   4.353   3.417   4.038 -0.0033 -0.0660 -0.3248
  125SOPE   O1413321   4.542   3.413   3.871  0.1851  0.1521 -0.1964
  125SOPE   O1213322   4.504   3.216   4.018 -0.0588  0.3531  0.0173
  125SOPE   O1113323   4.595   3.421   4.111  0.1134  0.2528  0.3713
  125SOPE    C113324   4.719   3.353   4.140  0.5111  0.3250  0.1452
  125SOPE    HA13325   4.802   3.393   4.078  0.7175 -1.7881 -1.0295
  125SOPE    HB13326   4.719   3.247   4.107 -0.9370  0.7172 -1.2681
  125SOPE    C213327   4.749   3.344   4.294 -0.8134  0.1121  0.0760
  125SOPE    HS13328   4.790   3.242   4.310 -0.2930  0.2245 -0.5295
  125SOPE   O2113329   4.621   3.350   4.364  0.3363 -0.7988  0.4539
  125SOPE   C2113330   4.548   3.244   4.358 -0.0061 -0.1741  0.6757
  125SOPE   O2213331   4.578   3.130   4.340  0.2737 -0.0726  0.0560
  125SOPE   C2213332   4.406   3.282   4.400 -0.4203 -0.4844 -0.3787
  125SOPE   H2R13333   4.339   3.213   4.343 -1.4020  1.3383 -1.5142
  125SOPE   H2S13334   4.382   3.387   4.372  0.1198 -0.8185 -2.2411
  125SOPE    C313335   4.847   3.444   4.357 -0.6149  0.3020  0.3811
  125SOPE    HX13336   4.804   3.546   4.346  1.8866  1.4757  0.8296
  125SOPE    HY13337   4.939   3.453   4.295 -0.9080  5.1636  0.2952
  125SOPE   O3113338   4.870   3.414   4.499  0.1473  0.4842 -0.0561
  125SOPE   C3113339   4.994   3.401   4.542  0.4329 -0.3392 -0.2418
  125SOPE   O3213340   5.090   3.428   4.471 -0.1746 -0.5595 -0.4030
  125SOPE   C3213341   5.003   3.383   4.693 -0.8023 -0.7280  0.4724
  125SOPE   H2X13342   5.100   3.413   4.738  0.7514 -3.1683 -1.0491
  125SOPE   H2Y13343   4.986   3.273   4.697 -0.7609 -0.9490 -2.9305
  125SOPE   C2313344   4.389   3.269   4.556  0.0145  0.1577 -0.1276
  125SOPE   H3R13345   4.431   3.177   4.604 -0.5950 -0.3748 -0.5948
  125SOPE   H3S13346   4.279   3.265   4.568 -0.2408  0.0253 -2.1536
  125SOPE   C2413347   4.456   3.386   4.636 -0.4237  0.1653  0.1422
  125SOPE   H4R13348   4.565   3.372   4.651 -0.1316  2.4798  0.5494
  125SOPE   H4S13349   4.434   3.483   4.588 -0.2557 -0.1129 -0.5027
  125SOPE   C2513350   4.410   3.388   4.783  0.0986 -0.3350 -0.1404
  125SOPE   H5R13351   4.305   3.422   4.774  0.0845 -0.1881  0.5171
  125SOPE   H5S13352   4.407   3.284   4.821  0.1969  0.6137  2.7010
  125SOPE   C2613353   4.495   3.476   4.863  1.1214  0.0998 -0.2642
  125SOPE   H6R13354   4.589   3.426   4.893  0.2842  0.6098  3.8425
  125SOPE   H6S13355   4.510   3.579   4.822  1.2688  0.1366 -0.1191
  125SOPE   C2713356   4.431   3.497   5.005 -0.1787  0.3403  0.1358
  125SOPE   H7R13357   4.488   3.572   5.065  0.9881  1.0707 -1.7829
  125SOPE   H7S13358   4.337   3.555   4.996  0.8475  2.4814  2.1260
  125SOPE   C2813359   4.416   3.377   5.100  0.1977  0.6230  0.1977
  125SOPE   H8R13360   4.344   3.407   5.180  1.2744  0.9708  1.0701
  125SOPE   H8S13361   4.368   3.298   5.039  1.9943 -2.4185  2.3838
  125SOPE   C2913362   4.536   3.317   5.171 -0.4062 -0.2026  0.2465
  125SOPE   H9113363   4.618   3.291   5.103 -0.5395  1.0464 -0.4139
  125SOPE  C21013364   4.558   3.293   5.306  0.8994 -0.0631 -0.2607
  125SOPE  H10113365   4.649   3.236   5.332  0.0147 -1.7875 -0.7963
  125SOPE  C21113366   4.467   3.343   5.424  0.0678  0.2398  0.4545
  125SOPE  H11R13367   4.376   3.397   5.391  0.4942  1.6481  1.4822
  125SOPE  H11S13368   4.538   3.401   5.487 -1.4591  2.2599  0.4234
  125SOPE  C21213369   4.416   3.221   5.507 -0.2377 -0.0542 -0.5382
  125SOPE  H12R13370   4.503   3.172   5.555 -1.0024 -1.1656 -0.2608
  125SOPE  H12S13371   4.364   3.148   5.443  0.9294 -0.0798 -1.4829
  125SOPE  C21313372   4.315   3.242   5.613  0.0779 -0.4180 -0.2331
  125SOPE  H13R13373   4.288   3.146   5.662 -2.6885 -0.1829 -1.1347
  125SOPE  H13S13374   4.223   3.286   5.570  0.9315  3.0002  1.1021
  125SOPE  C21413375   4.365   3.338   5.728 -0.2471  0.0706 -0.5228
  125SOPE  H14R13376   4.385   3.437   5.683 -1.2899 -0.4412 -2.2053
  125SOPE  H14S13377   4.460   3.306   5.776 -0.1401  1.2587  0.1138
  125SOPE  C21513378   4.264   3.352   5.844 -0.4627  0.1890  0.4662
  125SOPE  H15R13379   4.315   3.380   5.938 -0.1479  0.3954  0.2363
  125SOPE  H15S13380   4.223   3.251   5.866 -1.2235  0.4623  0.3177
  125SOPE  C21613381   4.144   3.446   5.817 -0.3150  0.0572  0.6548
  125SOPE  H16R13382   4.080   3.397   5.740  2.3609 -0.8071 -1.1791
  125SOPE  H16S13383   4.178   3.539   5.768  0.0594 -0.2307  0.3596
  125SOPE  C21713384   4.062   3.497   5.925  0.6571 -0.4856 -0.2648
  125SOPE  H17R13385   4.032   3.415   5.993  0.1272 -0.2348 -0.1919
  125SOPE  H17S13386   3.969   3.533   5.876  2.0323  1.2897 -1.7155
  125SOPE  C21813387   4.133   3.603   6.010 -0.1602 -0.3599 -0.1641
  125SOPE  H18R13388   4.210   3.553   6.073 -2.1731 -0.3216  2.4957
  125SOPE  H18S13389   4.071   3.652   6.088  0.5658 -1.9766  1.5100
  125SOPE  H18T13390   4.169   3.680   5.938 -0.6641 -0.3196 -0.3800
  125SOPE   C3313391   4.887   3.459   4.773  0.0286 -0.4502  0.2929
  125SOPE   H3X13392   4.789   3.415   4.744  0.7435 -1.0919 -1.2881
  125SOPE   H3Y13393   4.873   3.568   4.753 -0.2224 -0.7302 -1.1611
  125SOPE   C3413394   4.895   3.443   4.929 -0.6219  0.3567 -0.8699
  125SOPE   H4X13395   4.797   3.470   4.974 -1.3601 -0.5484 -1.8905
  125SOPE   H4Y13396   4.969   3.512   4.976  0.9910 -0.0790 -2.6273
  125SOPE   C3513397   4.941   3.301   4.981 -0.2998 -0.3418 -0.0414
  125SOPE   H5X13398   5.031   3.267   4.925 -0.2486 -3.4420  1.6667
  125SOPE   H5Y13399   4.857   3.234   4.949  1.4260 -3.0270  0.7157
  125SOPE   C3613400   4.957   3.282   5.136  1.0904  0.2038 -0.5012
  125SOPE   H6X13401   4.857   3.306   5.178  1.4060  3.8944 -1.4800
  125SOPE   H6Y13402   5.021   3.365   5.175 -2.4246  2.7286  0.3332
  125SOPE   C3713403   4.978   3.139   5.168 -0.0747  0.3745 -0.6637
  125SOPE   H7X13404   5.042   3.092   5.090 -0.9841 -0.5578 -0.8661
  125SOPE   H7Y13405   4.881   3.085   5.160  0.2802 -0.7560  1.7136
  125SOPE   C3813406   5.039   3.118   5.312  0.8387 -0.8076  0.3828
  125SOPE   H8X13407   5.122   3.191   5.309 -0.7532  1.0880 -0.0343
  125SOPE   H8Y13408   5.067   3.011   5.329 -1.1419 -1.3403  0.5594
  125SOPE   C3913409   4.947   3.161   5.427 -0.6622  0.0746  0.4167
  125SOPE   H9X13410   4.858   3.096   5.435  1.0698 -2.3560  0.9852
  125SOPE   H9Y13411   4.902   3.259   5.402 -2.4865 -1.1115 -1.1817
  125SOPE  C31013412   5.030   3.179   5.553 -0.1243  0.4468 -0.0039
  125SOPE  H10X13413   5.112   3.242   5.512 -0.0707  0.4671  0.1351
  125SOPE  H10Y13414   5.082   3.090   5.594 -1.4388  0.3733  1.5882
  125SOPE  C31113415   4.955   3.249   5.662 -1.2660 -1.1818  0.1612
  125SOPE  H11X13416   4.881   3.310   5.606 -0.3295  0.7351  0.9474
  125SOPE  H11Y13417   5.020   3.311   5.727 -1.5628  1.6599 -2.0600
  125SOPE  C31213418   4.862   3.166   5.757 -0.0859 -0.5594  0.7543
  125SOPE  H12X13419   4.928   3.130   5.840 -0.7746 -1.1930  1.0394
  125SOPE  H12Y13420   4.829   3.075   5.702 -0.9271 -0.2139  0.6840
  125SOPE  C31313421   4.755   3.245   5.829 -0.8030  0.1164  0.4154
  125SOPE  H13X13422   4.706   3.185   5.909 -1.9599  2.8577  1.8777
  125SOPE  H13Y13423   4.675   3.269   5.755 -1.9884  0.5262  1.7805
  125SOPE  C31413424   4.800   3.366   5.906  0.0792 -0.0897 -0.6265
  125SOPE  H14X13425   4.841   3.451   5.847  0.4494  0.4490  0.3704
  125SOPE  H14Y13426   4.884   3.332   5.971 -0.3228  1.8913  1.0150
  125SOPE  C31513427   4.692   3.422   6.002 -0.5828 -0.1466  0.0790
  125SOPE  H15X13428   4.637   3.337   6.048 -1.9797 -0.0556 -1.3285
  125SOPE  H15Y13429   4.618   3.473   5.938 -1.3703 -0.7663  0.4836
  125SOPE  C31613430   4.740   3.519   6.107 -0.1690 -0.5920 -0.4571
  125SOPE  H16X13431   4.795   3.607   6.066 -1.8658  0.3617 -0.7914
  125SOPE  H16Y13432   4.816   3.462   6.165 -0.4997 -0.4466  0.1215
  125SOPE  C31713433   4.634   3.560   6.215 -0.3018  0.0620 -0.2039
  125SOPE  H17X13434   4.586   3.468   6.253 -0.9574  1.2397  2.0392
  125SOPE  H17Y13435   4.546   3.601   6.160  1.8232 -0.0555 -4.0531
  125SOPE  C31813436   4.688   3.653   6.326 -0.4065 -0.1099  0.5559
  125SOPE  H18X13437   4.782   3.613   6.371 -1.0232 -1.1991  0.9057
  125SOPE  H18Y13438   4.620   3.660   6.414  0.3960 -0.4455  1.2254
  125SOPE  H18Z13439   4.702   3.755   6.284  0.6110 -0.1155  0.8582
  126SOPE     N13440   0.609   1.592   3.855  0.1943 -0.1123  0.6613
  126SOPE   HN113441   0.576   1.496   3.880  3.4122 -1.1153  1.6641
  126SOPE   HN213442   0.535   1.657   3.823  0.5115  0.1671  0.4947
  126SOPE   HN313443   0.677   1.591   3.777 -2.2899  1.2785 -1.6578
  126SOPE   C1213444   0.677   1.639   3.979 -0.3955  0.0764  0.1529
  126SOPE  H12A13445   0.605   1.644   4.063 -1.6603 -2.7621 -0.6283
  126SOPE  H12B13446   0.715   1.741   3.957 -0.1682 -0.1898 -0.7361
  126SOPE   C1113447   0.808   1.554   3.998  0.6783  0.0286  0.3746
  126SOPE  H11A13448   0.776   1.447   4.007 -0.7469  0.3566 -0.4100
  126SOPE  H11B13449   0.859   1.577   4.094 -1.7735  0.8156  1.6009
  126SOPE     P13450   1.041   1.524   3.871 -0.0761  0.0320  0.4076
  126SOPE   O1313451   1.115   1.646   3.833 -0.9248  0.8861  0.2144
  126SOPE   O1413452   1.049   1.411   3.779  0.4326  0.3407  0.5275
  126SOPE   O1213453   0.887   1.572   3.882  0.5087 -0.0905 -0.1398
  126SOPE   O1113454   1.079   1.483   4.010  0.4023  0.3700  0.1387
  126SOPE    C113455   1.147   1.558   4.108  0.4048  0.6516 -0.2573
  126SOPE    HA13456   1.084   1.574   4.199  2.0170  0.7444  0.8794
  126SOPE    HB13457   1.187   1.655   4.071 -2.1635  1.1513 -1.9458
  126SOPE    C213458   1.267   1.477   4.158  0.1295  0.1532 -0.5919
  126SOPE    HS13459   1.332   1.468   4.069  0.8377  2.2828 -0.3378
  126SOPE   O2113460   1.231   1.346   4.215 -0.4881 -0.1312 -0.3463
  126SOPE   C2113461   1.212   1.247   4.126 -0.5141 -0.3434  0.0793
  126SOPE   O2213462   1.236   1.252   4.008 -0.5151  0.4867 -0.1756
  126SOPE   C2213463   1.168   1.123   4.205 -0.3690 -0.1026 -0.9093
  126SOPE   H2R13464   1.253   1.090   4.268 -0.0945  1.9130 -0.1625
  126SOPE   H2S13465   1.125   1.043   4.141 -1.2982 -1.0272  0.7981
  126SOPE    C313466   1.337   1.557   4.272  0.2437  0.4647 -0.2184
  126SOPE    HX13467   1.361   1.660   4.236  0.2342  0.8230  0.7501
  126SOPE    HY13468   1.435   1.506   4.285  1.3131  2.4044 -0.2251
  126SOPE   O3113469   1.257   1.566   4.393  0.1976  0.5749  0.3160
  126SOPE   C3113470   1.277   1.471   4.481 -0.4474  0.3412  0.7669
  126SOPE   O3213471   1.347   1.367   4.470 -0.1602 -0.4462 -0.5137
  126SOPE   C3213472   1.195   1.502   4.609 -0.0828  0.4002  0.4740
  126SOPE   H2X13473   1.087   1.519   4.590 -0.0767  1.4100  1.2664
  126SOPE   H2Y13474   1.231   1.601   4.646 -1.2999  1.0988 -0.1603
  126SOPE   C2313475   1.062   1.153   4.312  0.2743 -0.2035  0.2124
  126SOPE   H3R13476   1.103   1.233   4.378  3.0464 -0.9925 -0.4378
  126SOPE   H3S13477   1.037   1.061   4.369 -1.8298  0.3193  0.2224
  126SOPE   C2413478   0.933   1.211   4.252 -1.4160  0.4753  0.6702
  126SOPE   H4R13479   0.961   1.318   4.238  2.0956  0.0529  3.1448
  126SOPE   H4S13480   0.906   1.164   4.155 -0.5882 -0.1288  0.7247
  126SOPE   C2513481   0.817   1.215   4.346  0.4577  0.2676  0.7330
  126SOPE   H5R13482   0.750   1.127   4.339  1.0764 -0.0572 -3.0879
  126SOPE   H5S13483   0.852   1.224   4.451  1.6179 -0.0859  0.3865
  126SOPE   C2613484   0.729   1.339   4.314 -0.4794  0.6304 -0.2659
  126SOPE   H6R13485   0.788   1.432   4.315  0.9940 -0.2204 -2.1435
  126SOPE   H6S13486   0.687   1.331   4.211 -0.3658 -2.1909 -0.1936
  126SOPE   C2713487   0.614   1.344   4.418  0.1012  0.3283  0.1912
  126SOPE   H7R13488   0.532   1.280   4.378 -0.1539  1.8088 -1.8664
  126SOPE   H7S13489   0.653   1.329   4.520 -0.5272  0.9605  0.5338
  126SOPE   C2813490   0.540   1.486   4.413 -0.6961 -0.1545 -0.5532
  126SOPE   H8R13491   0.498   1.502   4.312 -0.9653 -0.5617 -0.5059
  126SOPE   H8S13492   0.449   1.480   4.477 -0.4375 -1.2266 -0.2765
  126SOPE   C2913493   0.630   1.604   4.454 -0.9656 -0.1226 -0.0452
  126SOPE   H9113494   0.683   1.651   4.370  0.4489  1.4457  1.6429
  126SOPE  C21013495   0.664   1.649   4.576 -0.0506  0.0872 -0.1890
  126SOPE  H10113496   0.733   1.733   4.590 -0.6481  0.2959  1.7039
  126SOPE  C21113497   0.612   1.586   4.701 -0.2955 -0.6765  0.7832
  126SOPE  H11R13498   0.555   1.494   4.677 -1.4719  0.8620 -2.8643
  126SOPE  H11S13499   0.538   1.658   4.743 -0.1608 -0.6273  0.9405
  126SOPE  C21213500   0.722   1.546   4.802  0.5019 -0.0354  0.2866
  126SOPE  H12R13501   0.803   1.622   4.801  1.0771 -0.6423 -0.5700
  126SOPE  H12S13502   0.765   1.447   4.778  0.7842  0.2880 -0.5959
  126SOPE  C21313503   0.671   1.536   4.952 -0.4894 -0.1834  0.2620
  126SOPE  H13R13504   0.760   1.505   5.012  1.1150  2.4964 -0.5420
  126SOPE  H13S13505   0.591   1.460   4.959 -0.8526  0.3261  2.2142
  126SOPE  C21413506   0.623   1.660   5.020  0.4762  0.1426 -0.5424
  126SOPE  H14R13507   0.549   1.709   4.953  1.4075  0.2327 -1.5151
  126SOPE  H14S13508   0.706   1.726   5.053 -0.5950  1.1065  0.3495
  126SOPE  C21513509   0.553   1.634   5.156  0.0312 -0.2854 -0.2807
  126SOPE  H15R13510   0.488   1.544   5.151 -1.9971  0.8525  2.8834
  126SOPE  H15S13511   0.484   1.720   5.167 -0.1391 -0.1714 -1.9045
  126SOPE  C21613512   0.643   1.621   5.279 -0.4964 -0.2759 -0.5558
  126SOPE  H16R13513   0.714   1.706   5.270  0.6024 -1.0100  0.8011
  126SOPE  H16S13514   0.712   1.535   5.264 -1.6534 -1.5601  1.1063
  126SOPE  C21713515   0.570   1.593   5.412  0.2976 -0.1909  0.6500
  126SOPE  H17R13516   0.633   1.572   5.501 -1.1063  1.4434  2.1129
  126SOPE  H17S13517   0.519   1.496   5.399  2.8991 -1.5640  0.0716
  126SOPE  C21813518   0.476   1.704   5.451  0.0351 -0.9060 -0.3654
  126SOPE  H18R13519   0.443   1.705   5.557  0.2881 -1.6366 -0.2806
  126SOPE  H18S13520   0.387   1.706   5.385 -0.8104  1.7484  0.6907
  126SOPE  H18T13521   0.531   1.797   5.425  0.3305 -1.7415 -2.9857
  126SOPE   C3313522   1.236   1.398   4.726  0.0349  0.1405 -0.2755
  126SOPE   H3X13523   1.344   1.372   4.730 -0.2002 -1.0062 -0.9197
  126SOPE   H3Y13524   1.186   1.305   4.694  1.7931 -1.1684  0.5665
  126SOPE   C3413525   1.179   1.423   4.862 -0.3436  0.0439 -0.4525
  126SOPE   H4X13526   1.069   1.441   4.864 -0.5498 -1.1673  0.3842
  126SOPE   H4Y13527   1.235   1.513   4.895 -1.0158  1.5547 -3.1827
  126SOPE   C3513528   1.215   1.307   4.957  0.2822 -0.3402  0.1778
  126SOPE   H5X13529   1.312   1.265   4.922  1.1406  1.3340  0.4587
  126SOPE   H5Y13530   1.128   1.241   4.976  0.3174  0.5799  4.3637
  126SOPE   C3613531   1.242   1.360   5.096  0.1616  0.2425 -0.0543
  126SOPE   H6X13532   1.155   1.389   5.159 -0.8591  0.9900 -1.7321
  126SOPE   H6Y13533   1.288   1.461   5.098 -1.3254  0.9425  1.7216
  126SOPE   C3713534   1.330   1.270   5.182  0.2091 -0.4406  0.3568
  126SOPE   H7X13535   1.431   1.262   5.135 -0.6866 -0.3659 -1.6767
  126SOPE   H7Y13536   1.303   1.163   5.191  1.0288 -0.5363  2.2068
  126SOPE   C3813537   1.355   1.335   5.313 -0.5366 -0.4235  0.0575
  126SOPE   H8X13538   1.278   1.324   5.391  1.4871  1.1406  2.4203
  126SOPE   H8Y13539   1.370   1.443   5.293  0.3711 -0.6914 -0.8046
  126SOPE   C3913540   1.491   1.292   5.372  0.9012  0.4550 -1.0555
  126SOPE   H9X13541   1.578   1.310   5.306  0.8562  1.5724 -0.8290
  126SOPE   H9Y13542   1.485   1.183   5.395  3.9163  0.7380  1.8471
  126SOPE  C31013543   1.519   1.368   5.506  0.8427  0.6545 -0.1413
  126SOPE  H10X13544   1.423   1.372   5.563  0.7739 -0.9734 -0.1015
  126SOPE  H10Y13545   1.551   1.473   5.486  2.0917  0.6930  1.7350
  126SOPE  C31113546   1.631   1.308   5.589 -0.3227 -0.0615  1.0562
  126SOPE  H11X13547   1.647   1.376   5.675  1.4752  0.1931  0.5711
  126SOPE  H11Y13548   1.730   1.316   5.538 -0.8474  1.3610  0.1802
  126SOPE  C31213549   1.604   1.167   5.646 -0.1341  0.0705 -0.5546
  126SOPE  H12X13550   1.605   1.092   5.564  3.3029 -1.6442  0.8520
  126SOPE  H12Y13551   1.511   1.162   5.706  1.1757 -1.0192  1.5031
  126SOPE  C31313552   1.714   1.121   5.753  1.2393 -0.2336  0.4170
  126SOPE  H13X13553   1.694   1.016   5.784 -2.0694  0.0603 -0.3505
  126SOPE  H13Y13554   1.707   1.191   5.839  2.6097 -0.1492  0.4856
  126SOPE  C31413555   1.866   1.121   5.708 -0.1207 -0.6648  0.4176
  126SOPE  H14X13556   1.933   1.100   5.794 -0.5387  1.2425  1.2589
  126SOPE  H14Y13557   1.882   1.227   5.679  0.4839 -0.8678 -0.0127
  126SOPE  C31513558   1.890   1.029   5.583 -0.4277  0.5715 -0.0340
  126SOPE  H15X13559   1.867   1.091   5.494  0.7324  1.7883  0.4882
  126SOPE  H15Y13560   1.827   0.938   5.594  0.5672 -0.0062  1.2777
  126SOPE  C31613561   2.041   0.982   5.579  0.7202 -0.3510 -0.0549
  126SOPE  H16X13562   2.073   0.926   5.669  1.6201  2.0914  1.2219
  126SOPE  H16Y13563   2.111   1.068   5.570  1.1863 -0.4545  2.1388
  126SOPE  C31713564   2.060   0.887   5.461 -0.9593  0.4674  0.1911
  126SOPE  H17X13565   2.018   0.932   5.369 -2.6729 -1.1415  0.1140
  126SOPE  H17Y13566   2.000   0.796   5.484  0.9983 -1.9984 -3.5877
  126SOPE  C31813567   2.202   0.845   5.427  0.4097 -1.1527  0.2885
  126SOPE  H18X13568   2.248   0.777   5.502 -1.4961 -0.2686  2.3934
  126SOPE  H18Y13569   2.268   0.934   5.424  1.0303 -1.6209 -0.1340
  126SOPE  H18Z13570   2.211   0.788   5.332 -0.3646  0.6887 -0.9580
  127SOPE     N13571   2.487   4.444   4.078 -0.4921  0.6065  0.5686
  127SOPE   HN113572   2.525   4.541   4.076 -1.9041  1.2678  2.4378
  127SOPE   HN213573   2.481   4.409   3.980 -0.1782  0.1244  0.7166
  127SOPE   HN313574   2.388   4.449   4.109 -0.7137 -0.3971  0.0654
  127SOPE   C1213575   2.559   4.344   4.170 -0.3133 -0.2201  0.2806
  127SOPE  H12A13576   2.553   4.388   4.271  0.2257 -2.1336  1.1762
  127SOPE  H12B13577   2.662   4.334   4.130 -0.6336 -2.7015 -0.0869
  127SOPE   C1113578   2.494   4.208   4.165  0.1286 -0.3065  0.1055
  127SOPE  H11A13579   2.540   4.149   4.247  0.5533 -0.2737 -0.1024
  127SOPE  H11B13580   2.518   4.168   4.064  1.7126 -0.7709  0.6336
  127SOPE     P13581   2.274   4.076   4.187 -0.3631 -0.0544 -0.3297
  127SOPE   O1313582   2.358   3.956   4.207 -0.1368  0.7658  0.3873
  127SOPE   O1413583   2.190   4.066   4.069  0.1238 -0.0016  0.0439
  127SOPE   O1213584   2.356   4.215   4.188  0.1165  0.3763  0.7763
  127SOPE   O1113585   2.181   4.106   4.312 -0.2083  0.4126 -0.5583
  127SOPE    C113586   2.219   4.030   4.434 -0.6175  0.1018 -0.6734
  127SOPE    HA13587   2.219   3.921   4.414  1.1942  0.1765 -1.3173
  127SOPE    HB13588   2.133   4.046   4.501  0.9676  0.4839  1.3666
  127SOPE    C213589   2.346   4.076   4.511  0.0206 -0.1556 -0.3742
  127SOPE    HS13590   2.432   4.045   4.448  0.5811  0.9605 -0.1708
  127SOPE   O2113591   2.364   4.004   4.631 -0.2783 -0.7383  0.4300
  127SOPE   C2113592   2.475   4.002   4.683 -0.3481 -0.8056  0.4640
  127SOPE   O2213593   2.577   4.059   4.643 -0.6783  0.8132 -0.3423
  127SOPE   C2213594   2.473   3.909   4.803  0.2544 -0.5592 -0.6351
  127SOPE   H2R13595   2.567   3.850   4.809  0.0839 -0.7758 -0.0265
  127SOPE   H2S13596   2.388   3.838   4.809  0.4969 -0.8383 -0.4538
  127SOPE    C313597   2.346   4.229   4.540 -0.3841  0.1129  0.7985
  127SOPE    HX13598   2.347   4.273   4.437 -0.7583  1.0466  1.1807
  127SOPE    HY13599   2.445   4.243   4.588  0.6427  0.2426 -1.2234
  127SOPE   O3113600   2.237   4.278   4.612  0.0718 -0.4489 -0.1836
  127SOPE   C3113601   2.249   4.290   4.746 -0.1556  0.3728  1.5342
  127SOPE   O3213602   2.354   4.271   4.803  0.0603  0.2985  0.6512
  127SOPE   C3213603   2.115   4.310   4.819  0.4320  0.5925 -0.0838
  127SOPE   H2X13604   2.050   4.238   4.766  1.3010 -0.6928  0.5299
  127SOPE   H2Y13605   2.091   4.414   4.787  0.3962  0.7284  0.3647
  127SOPE   C2313606   2.475   4.006   4.929 -0.3308  0.8040  0.3344
  127SOPE   H3R13607   2.382   4.066   4.934 -0.5207  0.5629 -0.2823
  127SOPE   H3S13608   2.552   4.086   4.929 -1.1861  1.6437  0.1134
  127SOPE   C2413609   2.504   3.932   5.059  0.1278 -0.4205  0.4126
  127SOPE   H4R13610   2.448   3.836   5.064  0.8528 -0.8614  0.2229
  127SOPE   H4S13611   2.613   3.915   5.069  0.0454  0.0637  2.7436
  127SOPE   C2513612   2.491   4.034   5.173 -0.0187  0.1075 -0.1383
  127SOPE   H5R13613   2.554   4.122   5.148 -1.8538  1.0176 -1.8942
  127SOPE   H5S13614   2.388   4.071   5.191  0.6678  2.1365 -0.1390
  127SOPE   C2613615   2.525   3.978   5.311 -0.4860  0.0380  0.5587
  127SOPE   H6R13616   2.487   4.043   5.392  0.3566 -0.2739  1.2178
  127SOPE   H6S13617   2.476   3.879   5.326 -0.3523 -0.2609 -0.8067
  127SOPE   C2713618   2.673   3.983   5.351 -0.1796  0.0751 -0.3820
  127SOPE   H7R13619   2.734   3.905   5.301 -0.9241 -1.3888  0.9386
  127SOPE   H7S13620   2.712   4.082   5.317 -0.5095  0.4237  0.2477
  127SOPE   C2813621   2.701   3.983   5.503  0.0711  0.0694 -0.5438
  127SOPE   H8R13622   2.800   4.027   5.527 -0.2105 -0.4697  1.8000
  127SOPE   H8S13623   2.626   4.044   5.558 -2.0671 -2.5666 -0.3042
  127SOPE   C2913624   2.695   3.839   5.558  0.7010 -0.6939  0.2199
  127SOPE   H9113625   2.767   3.778   5.502  1.5308  1.2130 -0.9210
  127SOPE  C21013626   2.614   3.794   5.654  0.1320 -0.4579  0.0105
  127SOPE  H10113627   2.627   3.692   5.695  0.0381 -0.3660  0.2663
  127SOPE  C21113628   2.527   3.887   5.741 -0.2306 -0.0550 -0.4981
  127SOPE  H11R13629   2.427   3.846   5.767  0.4907 -1.7212 -0.2412
  127SOPE  H11S13630   2.516   3.989   5.698 -1.3037  0.6477  1.3375
  127SOPE  C21213631   2.603   3.898   5.880 -0.0694 -0.2162  0.2873
  127SOPE  H12R13632   2.618   3.792   5.909 -0.2881 -0.3798 -0.1879
  127SOPE  H12S13633   2.533   3.939   5.956 -1.8131 -0.1847 -1.2661
  127SOPE  C21313634   2.718   3.994   5.891 -0.5133 -0.2656  0.7875
  127SOPE  H13R13635   2.691   4.091   5.845  3.4981 -0.4754 -2.5761
  127SOPE  H13S13636   2.801   3.959   5.826  0.0320 -2.1521  2.4161
  127SOPE  C21413637   2.775   4.009   6.032 -0.6303 -0.1207  0.2571
  127SOPE  H14R13638   2.695   4.016   6.109  0.2383  2.4763  1.0122
  127SOPE  H14S13639   2.848   4.093   6.034  0.0445 -0.4905 -2.9193
  127SOPE  C21513640   2.830   3.867   6.079  0.0887  0.6515  0.2236
  127SOPE  H15R13641   2.895   3.810   6.010 -1.0612 -1.8788  1.1005
  127SOPE  H15S13642   2.737   3.809   6.096  0.2455  0.5236  0.6545
  127SOPE  C21613643   2.895   3.867   6.216 -0.2025 -0.6380  0.6989
  127SOPE  H16R13644   2.827   3.930   6.277  1.9904  3.9231 -1.0665
  127SOPE  H16S13645   2.979   3.937   6.191 -0.9328 -0.5833 -1.9312
  127SOPE  C21713646   2.934   3.731   6.270  0.4256  0.6902 -0.0422
  127SOPE  H17R13647   2.994   3.683   6.190 -1.5366 -0.6218 -0.8355
  127SOPE  H17S13648   2.844   3.665   6.267  1.1295 -0.2715 -0.8581
  127SOPE  C21813649   2.993   3.730   6.403 -0.1787 -0.5953 -0.7416
  127SOPE  H18R13650   3.094   3.775   6.402 -0.6350  0.8410 -5.2421
  127SOPE  H18S13651   3.015   3.623   6.424  2.4185 -0.3455 -1.7874
  127SOPE  H18T13652   2.930   3.778   6.481  0.7794 -1.8084  0.8347
  127SOPE   C3313653   2.114   4.299   4.972 -0.5578 -0.3413 -0.4019
  127SOPE   H3X13654   2.170   4.208   5.003  0.3651 -0.1380 -1.3858
  127SOPE   H3Y13655   2.009   4.292   5.007 -1.4521  0.8022 -2.6359
  127SOPE   C3413656   2.185   4.415   5.038  0.7224  0.3461 -0.1999
  127SOPE   H4X13657   2.122   4.506   5.044  1.1661  0.6898 -0.6956
  127SOPE   H4Y13658   2.271   4.447   4.976  1.4294 -0.0732  0.5469
  127SOPE   C3513659   2.249   4.382   5.173 -0.1194  0.3292  0.2199
  127SOPE   H5X13660   2.352   4.423   5.185  0.2440 -0.8407  1.4933
  127SOPE   H5Y13661   2.268   4.272   5.176 -1.3607 -0.0187 -2.1827
  127SOPE   C3613662   2.155   4.426   5.283 -0.4884 -0.6089 -0.3843
  127SOPE   H6X13663   2.059   4.393   5.238  0.7298 -3.2513 -1.3014
  127SOPE   H6Y13664   2.152   4.537   5.284 -0.4967 -0.5567 -2.5110
  127SOPE   C3713665   2.174   4.356   5.417  0.0755  0.1672  0.0339
  127SOPE   H7X13666   2.194   4.249   5.394  2.2043  1.1635 -3.6534
  127SOPE   H7Y13667   2.086   4.387   5.476  0.3328  2.1190 -0.5382
  127SOPE   C3813668   2.298   4.405   5.484 -0.3427 -0.3587 -0.4227
  127SOPE   H8X13669   2.336   4.503   5.446  0.1777 -0.4276 -0.0829
  127SOPE   H8Y13670   2.385   4.342   5.455  0.1570 -1.1998  2.5645
  127SOPE   C3913671   2.290   4.418   5.636  0.3837  0.0478 -0.0216
  127SOPE   H9X13672   2.203   4.483   5.660 -0.5644 -0.1109 -2.6693
  127SOPE   H9Y13673   2.376   4.472   5.681  0.1981  0.4564 -0.1535
  127SOPE  C31013674   2.276   4.279   5.708 -0.2090 -0.7231  0.1958
  127SOPE  H10X13675   2.360   4.259   5.778 -0.8439 -2.3805  0.5284
  127SOPE  H10Y13676   2.256   4.197   5.636  2.7937 -1.7209  0.3823
  127SOPE  C31113677   2.159   4.280   5.806  0.2087 -0.2020 -0.5246
  127SOPE  H11X13678   2.060   4.276   5.754 -0.4738 -1.0566  0.7873
  127SOPE  H11Y13679   2.159   4.373   5.867 -0.7501 -0.0121 -0.7852
  127SOPE  C31213680   2.149   4.155   5.901 -0.6803  0.6248  0.2563
  127SOPE  H12X13681   2.246   4.128   5.946  0.1724 -0.2491 -1.9697
  127SOPE  H12Y13682   2.129   4.062   5.844 -1.0806 -0.2207  1.7100
  127SOPE  C31313683   2.041   4.177   6.004  0.1518 -0.2289 -0.0063
  127SOPE  H13X13684   2.052   4.273   6.060 -0.1902 -0.0650 -0.2176
  127SOPE  H13Y13685   2.055   4.106   6.088  0.3206 -0.4955 -0.2600
  127SOPE  C31413686   1.894   4.172   5.959  0.2142  0.5184  0.3919
  127SOPE  H14X13687   1.859   4.237   5.875  0.3876 -0.2474 -0.2785
  127SOPE  H14Y13688   1.835   4.196   6.050  2.7653 -0.9605  2.5632
  127SOPE  C31513689   1.845   4.029   5.920  0.2587  0.6665  0.2598
  127SOPE  H15X13690   1.899   3.956   5.983 -1.7346 -0.3210  0.9210
  127SOPE  H15Y13691   1.863   4.011   5.812  4.0702  2.3657  0.4529
  127SOPE  C31613692   1.697   4.009   5.963 -0.1778 -0.0923 -0.4108
  127SOPE  H16X13693   1.619   4.072   5.914 -0.7416 -0.2531  0.2721
  127SOPE  H16Y13694   1.687   4.031   6.071  1.3412  0.9608 -0.4542
  127SOPE  C31713695   1.645   3.875   5.927 -0.2246  0.1415 -0.1432
  127SOPE  H17X13696   1.729   3.803   5.925  1.5422  2.0900  0.6658
  127SOPE  H17Y13697   1.593   3.886   5.829 -0.5136 -0.8383 -0.1105
  127SOPE  C31813698   1.538   3.819   6.028  0.3359  0.0421  0.1823
  127SOPE  H18X13699   1.436   3.861   6.021  0.1373 -0.5068 -0.2946
  127SOPE  H18Y13700   1.576   3.828   6.132 -1.9180  0.0051  1.0615
  127SOPE  H18Z13701   1.531   3.712   5.999 -2.9615  0.3894 -0.6323
  128SOPE     N13702   6.462   5.075   3.839  0.1325 -0.0261 -0.2706
  128SOPE   HN113703   6.404   5.116   3.764  0.6983  0.4084 -0.4760
  128SOPE   HN213704   6.390   5.055   3.912 -2.2717  1.1521 -2.1800
  128SOPE   HN313705   6.517   5.158   3.869 -1.3681  1.1446 -0.6399
  128SOPE   C1213706   6.542   4.950   3.804  0.1962 -0.3482 -0.0022
  128SOPE  H12A13707   6.601   4.984   3.717  0.8706 -0.0176  0.5728
  128SOPE  H12B13708   6.472   4.870   3.771 -0.9376  1.0231 -1.0231
  128SOPE   C1113709   6.640   4.915   3.914  0.2460  0.2817  0.0710
  128SOPE  H11A13710   6.693   4.821   3.891  2.0179  0.7082  2.0271
  128SOPE  H11B13711   6.572   4.892   3.999 -1.5751  0.8624 -1.1662
  128SOPE     P13712   6.847   5.011   4.032  0.0540 -0.5337 -0.2044
  128SOPE   O1313713   6.918   5.135   4.049 -0.4597 -0.0881 -0.2851
  128SOPE   O1413714   6.930   4.895   4.005  0.2352  0.8240 -0.0599
  128SOPE   O1213715   6.727   5.030   3.928 -0.1584 -0.4162  0.0676
  128SOPE   O1113716   6.770   4.994   4.174  0.5676  0.1131  0.3258
  128SOPE    C113717   6.651   5.074   4.204 -0.1091 -0.9124  0.0433
  128SOPE    HA13718   6.601   5.035   4.296  1.0848 -0.0757  1.0843
  128SOPE    HB13719   6.574   5.075   4.125 -0.4800  3.2462  0.2423
  128SOPE    C213720   6.684   5.217   4.256  0.0068 -0.3495  0.0932
  128SOPE    HS13721   6.720   5.267   4.164 -1.4684 -0.8236 -0.7816
  128SOPE   O2113722   6.790   5.206   4.353  0.1699 -0.4392 -0.4627
  128SOPE   C2113723   6.875   5.303   4.351 -0.9503 -0.5399 -0.3130
  128SOPE   O2213724   6.877   5.402   4.278 -0.2458  0.2986  0.3621
  128SOPE   C2213725   6.974   5.268   4.467  0.0441  0.0731 -0.2345
  128SOPE   H2R13726   7.065   5.220   4.423 -0.5254 -0.4817 -0.8291
  128SOPE   H2S13727   6.933   5.190   4.534  1.0221 -2.1751 -2.0890
  128SOPE    C313728   6.568   5.298   4.317 -1.0009 -0.4385 -0.9550
  128SOPE    HX13729   6.506   5.298   4.225  0.9994 -0.2467 -2.3780
  128SOPE    HY13730   6.605   5.397   4.353 -0.3046 -1.2267  0.5652
  128SOPE   O3113731   6.506   5.229   4.423 -0.0878  0.0267  0.3436
  128SOPE   C3113732   6.542   5.262   4.546  0.8731 -0.2184 -0.2264
  128SOPE   O3213733   6.612   5.353   4.587 -0.2051  0.2606  0.6085
  128SOPE   C3213734   6.463   5.166   4.640 -0.0355  0.1452  0.5171
  128SOPE   H2X13735   6.486   5.063   4.604  0.0418  0.6415 -0.9074
  128SOPE   H2Y13736   6.352   5.174   4.634  0.0258 -0.0120 -1.0505
  128SOPE   C2313737   7.021   5.389   4.543 -0.4049  0.4349  0.2592
  128SOPE   H3R13738   7.038   5.477   4.477  0.0248  0.4856  0.4345
  128SOPE   H3S13739   7.124   5.366   4.578  0.3251  2.3861 -0.4362
  128SOPE   C2413740   6.939   5.448   4.661  0.5637  0.2569  0.2323
  128SOPE   H4R13741   6.971   5.551   4.688  0.0134  0.7916 -1.0601
  128SOPE   H4S13742   6.834   5.472   4.635  0.6521 -0.7221 -1.1596
  128SOPE   C2513743   6.931   5.344   4.770 -0.0588 -0.2948  0.3351
  128SOPE   H5R13744   6.891   5.245   4.739 -1.4838  0.9483 -2.1385
  128SOPE   H5S13745   7.035   5.330   4.806  0.7082 -0.2979 -1.7454
  128SOPE   C2613746   6.837   5.384   4.885 -0.3413  0.0144 -0.3181
  128SOPE   H6R13747   6.850   5.492   4.907  1.3447 -0.0502 -0.8769
  128SOPE   H6S13748   6.730   5.371   4.859 -0.3901  2.1878 -1.4098
  128SOPE   C2713749   6.868   5.296   5.009  0.3894 -0.5688 -0.1407
  128SOPE   H7R13750   6.843   5.190   4.986 -0.9882 -0.5347  1.0900
  128SOPE   H7S13751   6.978   5.302   5.024  0.4374 -2.2309  0.3895
  128SOPE   C2813752   6.797   5.345   5.134 -0.8088  0.1982 -0.1862
  128SOPE   H8R13753   6.850   5.433   5.175 -0.4946 -1.2112  2.6776
  128SOPE   H8S13754   6.694   5.382   5.115 -0.7311  1.5520  1.8157
  128SOPE   C2913755   6.779   5.253   5.250 -0.1616  0.2315  0.5971
  128SOPE   H9113756   6.806   5.148   5.232 -0.4558 -0.0661  1.7758
  128SOPE  C21013757   6.769   5.286   5.379  0.6659  0.8093 -0.6221
  128SOPE  H10113758   6.766   5.207   5.456 -0.0489  2.8141  1.5272
  128SOPE  C21113759   6.720   5.424   5.427  0.1464  0.2072 -0.0098
  128SOPE  H11R13760   6.623   5.407   5.479  0.3772  0.1188  0.3969
  128SOPE  H11S13761   6.696   5.500   5.350  2.2348  1.2457  0.2951
  128SOPE  C21213762   6.817   5.492   5.521 -0.2764 -0.1341 -0.0077
  128SOPE  H12R13763   6.783   5.596   5.541 -0.2051 -0.2549  0.7899
  128SOPE  H12S13764   6.923   5.486   5.488 -0.1926 -0.3829  0.3026
  128SOPE  C21313765   6.807   5.420   5.658  0.1873  0.0944 -0.3953
  128SOPE  H13R13766   6.828   5.312   5.641 -2.2473 -0.5301  0.1397
  128SOPE  H13S13767   6.699   5.408   5.683  0.4074  0.6304  0.8871
  128SOPE  C21413768   6.882   5.477   5.774 -0.1268 -0.8265 -0.1046
  128SOPE  H14R13769   6.831   5.572   5.801 -1.8044 -1.4779 -0.8899
  128SOPE  H14S13770   6.986   5.489   5.737 -0.9339 -1.4260 -2.7563
  128SOPE  C21513771   6.908   5.371   5.889 -0.8467 -0.4875  0.1336
  128SOPE  H15R13772   6.829   5.294   5.896 -0.4349 -1.0913 -1.4969
  128SOPE  H15S13773   6.935   5.426   5.982  1.8231  1.1960 -1.4767
  128SOPE  C21613774   7.036   5.291   5.856  0.4376 -0.2761  0.2901
  128SOPE  H16R13775   7.118   5.364   5.840  1.8772 -1.9256 -0.1350
  128SOPE  H16S13776   7.031   5.238   5.758  2.3708  2.0282 -1.1669
  128SOPE  C21713777   7.088   5.208   5.970 -0.0889  0.5493 -0.6744
  128SOPE  H17R13778   7.020   5.121   5.978 -0.8646  0.9106 -2.6913
  128SOPE  H17S13779   7.073   5.268   6.062 -0.2892 -1.1979  0.4696
  128SOPE  C21813780   7.239   5.172   5.954  0.7605  0.1994 -0.2138
  128SOPE  H18R13781   7.279   5.119   6.043  0.8516 -0.8735 -0.8713
  128SOPE  H18S13782   7.290   5.268   5.935 -0.0516  0.8498  0.7670
  128SOPE  H18T13783   7.254   5.106   5.866 -3.4436  0.2977 -1.2088
  128SOPE   C3313784   6.526   5.174   4.777 -0.6314  0.5056 -0.7390
  128SOPE   H3X13785   6.527   5.277   4.817  0.1214 -0.2419  1.2875
  128SOPE   H3Y13786   6.633   5.144   4.789 -0.7022  0.7944  0.7147
  128SOPE   C3413787   6.438   5.095   4.875 -0.2883  0.0683  0.7281
  128SOPE   H4X13788   6.440   4.992   4.833 -1.5653  0.8636 -1.4604
  128SOPE   H4Y13789   6.335   5.135   4.859 -0.4115 -1.0643 -1.9027
  128SOPE   C3513790   6.482   5.097   5.018 -0.0119 -0.1410 -0.7260
  128SOPE   H5X13791   6.495   5.203   5.050  0.3276 -0.4341  0.1522
  128SOPE   H5Y13792   6.584   5.054   5.026  0.3079  0.6002 -0.7323
  128SOPE   C3613793   6.400   5.012   5.117  0.6342  0.4266  0.0550
  128SOPE   H6X13794   6.463   4.992   5.207 -1.0849  1.3032  1.5249
  128SOPE   H6Y13795   6.365   4.917   5.070 -0.0324  0.2483  0.8817
  128SOPE   C3713796   6.278   5.101   5.175  0.5356 -0.4785  0.3298
  128SOPE   H7X13797   6.199   5.028   5.205  1.4460 -1.8898 -0.5446
  128SOPE   H7Y13798   6.241   5.154   5.084  1.3120 -0.6559 -0.0983
  128SOPE   C3813799   6.301   5.200   5.293  1.0165  0.3897  0.1605
  128SOPE   H8X13800   6.232   5.286   5.300  0.3902 -0.0082 -0.8748
  128SOPE   H8Y13801   6.404   5.242   5.285  1.2572 -0.4916 -2.9986
  128SOPE   C3913802   6.291   5.130   5.430  0.9749  0.1218 -0.5939
  128SOPE   H9X13803   6.365   5.048   5.439  1.8702  0.8307 -1.2578
  128SOPE   H9Y13804   6.183   5.102   5.434  0.8556  0.6989  0.7683
  128SOPE  C31013805   6.320   5.218   5.554  0.3268 -0.2027  0.3628
  128SOPE  H10X13806   6.249   5.303   5.562  1.3575  0.9932 -2.0182
  128SOPE  H10Y13807   6.414   5.273   5.529  0.9246 -2.2631 -2.4563
  128SOPE  C31113808   6.315   5.140   5.686 -0.1820 -0.4672 -0.1782
  128SOPE  H11X13809   6.404   5.073   5.683 -0.8782 -1.3888 -0.3867
  128SOPE  H11Y13810   6.225   5.076   5.689 -0.2666 -0.4016 -1.0227
  128SOPE  C31213811   6.311   5.220   5.817  0.9303 -0.0572 -0.0530
  128SOPE  H12X13812   6.222   5.287   5.814  1.6233  0.8664 -2.6354
  128SOPE  H12Y13813   6.397   5.288   5.839 -0.4423  1.3064  1.3009
  128SOPE  C31313814   6.301   5.123   5.933  0.1337 -0.0813  0.0599
  128SOPE  H13X13815   6.391   5.064   5.956  0.2617 -0.6746 -1.7692
  128SOPE  H13Y13816   6.219   5.053   5.906  0.7176 -0.5553 -0.5235
  128SOPE  C31413817   6.255   5.186   6.067  0.0587  0.3765 -0.2972
  128SOPE  H14X13818   6.156   5.232   6.046 -0.4547 -0.8361 -0.6115
  128SOPE  H14Y13819   6.325   5.270   6.089 -1.2803  0.6963  3.5590
  128SOPE  C31513820   6.252   5.085   6.185 -0.0895  0.4071  0.6948
  128SOPE  H15X13821   6.347   5.028   6.197 -0.3861  0.0474  1.4189
  128SOPE  H15Y13822   6.175   5.010   6.160  1.3013 -1.6280  2.1755
  128SOPE  C31613823   6.220   5.154   6.314 -0.0367 -0.3342  0.8554
  128SOPE  H16X13824   6.213   5.069   6.385  1.2867 -0.3555  0.9878
  128SOPE  H16Y13825   6.121   5.204   6.304  1.3028  2.1788 -1.1467
  128SOPE  C31713826   6.332   5.243   6.363 -0.1833 -0.2432 -0.3818
  128SOPE  H17X13827   6.340   5.326   6.291  2.1975 -1.3036 -1.4494
  128SOPE  H17Y13828   6.437   5.205   6.363  0.6171  1.8809 -0.4629
  128SOPE  C31813829   6.304   5.291   6.506 -0.6414  0.2679  0.3920
  128SOPE  H18X13830   6.198   5.322   6.515 -0.4079  1.2233 -0.1132
  128SOPE  H18Y13831   6.361   5.384   6.528  0.1808  0.0342 -0.6373
  128SOPE  H18Z13832   6.326   5.209   6.579 -0.9670  2.1237  2.6855
  129OSM      N13833   2.231   1.128   8.281 -0.4793 -0.2546 -0.7264
  129OSM    C1513834   2.202   1.272   8.267  0.6678  0.0299 -0.2114
  129OSM   H15A13835   2.254   1.306   8.178  0.7400 -2.1779 -1.0856
  129OSM   H15B13836   2.211   1.341   8.349 -0.0729  0.6151 -0.6043
  129OSM   H15C13837   2.098   1.281   8.242  0.5901 -2.9590 -1.4187
  129OSM    C1413838   2.181   1.067   8.413 -0.7316 -0.6920  0.0194
  129OSM   H14A13839   2.077   1.094   8.420  0.0121  2.2378  1.4703
  129OSM   H14B13840   2.245   1.109   8.489  1.2640  0.1171 -2.0081
  129OSM   H14C13841   2.189   0.959   8.409  0.5590 -0.6237  0.2522
  129OSM    C1313842   2.169   1.053   8.163 -0.2701  0.7691  0.1060
  129OSM   H13A13843   2.172   0.946   8.173  1.9134  0.7396 -0.1842
  129OSM   H13B13844   2.207   1.089   8.068 -1.7608 -0.7543 -1.1216
  129OSM   H13C13845   2.064   1.078   8.162 -0.6669 -0.7571  0.8684
  129OSM    C1213846   2.385   1.101   8.278 -0.5124 -0.0639  0.1558
  129OSM   H12A13847   2.410   1.001   8.310 -0.9588  0.3065  1.7438
  129OSM   H12B13848   2.427   1.160   8.358  1.2357 -0.2598 -0.5768
  129OSM    C1113849   2.463   1.132   8.140  0.4951 -0.3745 -0.0665
  129OSM   H11A13850   2.427   1.060   8.063  1.5239 -0.0376 -0.8868
  129OSM   H11B13851   2.570   1.110   8.161  0.8308 -0.1330 -1.4681
  129OSM      P13852   2.549   1.375   8.124 -0.4310 -0.4209  0.0839
  129OSM    O1313853   2.515   1.497   8.046  0.4737 -0.4721 -0.3297
  129OSM    O1413854   2.576   1.381   8.268  0.9039  0.1729 -0.3892
  129OSM    O1113855   2.680   1.311   8.059  0.1260 -0.7025 -0.3449
  129OSM    O1213856   2.440   1.266   8.102 -0.5495 -0.6791  0.1595
  129OSM    C1S13857   2.676   1.251   7.930  0.0481 -0.5056  0.2752
  129OSM    H1S13858   2.579   1.197   7.919 -2.9661  3.5605  3.6268
  129OSM    H1T13859   2.748   1.166   7.925 -1.3387 -1.8566  1.9621
  129OSM     NF13860   2.695   1.276   7.682  0.3346 -0.0618  0.0687
  129OSM    HNF13861   2.778   1.247   7.635 -0.3294  0.7147 -1.6361
  129OSM    C2S13862   2.718   1.348   7.807  0.8109  0.5584  0.6174
  129OSM    H2S13863   2.643   1.430   7.806 -0.9810 -0.9954  0.0461
  129OSM    C3S13864   2.859   1.417   7.836 -0.4521 -0.3420  0.6246
  129OSM    H3S13865   2.938   1.346   7.866  1.3239  2.2982  2.6953
  129OSM     O313866   2.848   1.493   7.953 -0.8464 -0.8323  0.2595
  129OSM    HO313867   2.790   1.447   8.015 -2.6097  0.8269 -0.0608
  129OSM    C4S13868   2.912   1.504   7.722 -0.3026  0.7239  0.0971
  129OSM    H4S13869   2.996   1.452   7.673  0.1304  2.6465 -1.3172
  129OSM    C5S13870   2.887   1.630   7.693 -0.2290  0.8280 -0.0175
  129OSM    H5S13871   2.812   1.676   7.759 -0.7990 -0.3762  0.2047
  129OSM    C6S13872   2.954   1.724   7.602 -0.1433 -1.1318  0.5711
  129OSM    H6S13873   3.048   1.771   7.640 -0.9141  0.6149  0.4280
  129OSM    H6T13874   2.891   1.810   7.569  2.3299  0.8371  0.6228
  129OSM    C7S13875   3.000   1.665   7.465 -0.4886  0.1738  0.4606
  129OSM    H7S13876   3.081   1.592   7.482  2.5498  3.0562 -0.6931
  129OSM    H7T13877   3.032   1.743   7.394 -1.3760 -0.5651 -0.8027
  129OSM    C8S13878   2.892   1.582   7.388  0.2665  0.3804  0.4276
  129OSM    H8S13879   2.792   1.629   7.380 -0.7788 -1.6055  1.0375
  129OSM    H8T13880   2.875   1.489   7.446  1.8433  0.0778  0.4653
  129OSM    C9S13881   2.937   1.539   7.248  0.5817  1.0523  0.2477
  129OSM    H9S13882   2.855   1.472   7.213  2.1542 -1.0702  0.4489
  129OSM    H9T13883   3.035   1.488   7.258  0.1775  0.5863  2.2429
  129OSM   C10S13884   2.962   1.647   7.138  0.2169  0.1625 -0.7327
  129OSM   H10S13885   3.052   1.709   7.159  0.2165  0.2113 -0.8766
  129OSM   H10T13886   2.873   1.713   7.148 -0.7915 -1.3203  0.5244
  129OSM   C11S13887   2.985   1.594   6.997 -0.0620 -0.4478  0.0418
  129OSM   H11S13888   2.896   1.534   6.968  0.8077 -0.1845 -3.7396
  129OSM   H11T13889   3.072   1.525   6.994 -0.9883 -1.6150 -1.0540
  129OSM   C12S13890   2.993   1.702   6.881  0.2308 -0.4295 -0.3620
  129OSM   H12S13891   3.084   1.764   6.883  1.0272 -1.5608 -0.5116
  129OSM   H12T13892   2.901   1.764   6.881  0.3451 -0.2410  1.0007
  129OSM   C13S13893   2.984   1.628   6.750  0.4287  0.1951 -0.4577
  129OSM   H13S13894   2.880   1.592   6.733  1.7304 -2.6259 -3.2130
  129OSM   H13T13895   3.049   1.539   6.744  0.0101 -0.4253  2.4848
  129OSM   C14S13896   3.024   1.715   6.634 -0.0941  0.4660  1.5036
  129OSM   H14S13897   3.130   1.749   6.635 -0.2808  1.0557  2.1455
  129OSM   H14T13898   2.969   1.811   6.628  0.3906  0.7080  0.7491
  129OSM   C15S13899   2.982   1.647   6.501  0.0993 -0.3928  0.1277
  129OSM   H15S13900   2.871   1.638   6.508  0.0500 -0.2863 -0.4594
  129OSM   H15T13901   3.018   1.542   6.502 -0.7246 -0.6861  0.4729
  129OSM   C16S13902   3.004   1.724   6.373 -0.5802 -0.0888  0.8737
  129OSM   H16S13903   2.991   1.834   6.379  0.5776  0.3179 -2.1545
  129OSM   H16T13904   2.937   1.692   6.291  0.1715  0.1720  0.1437
  129OSM   C17S13905   3.143   1.710   6.304  0.9159  0.5222  0.1821
  129OSM   H17S13906   3.161   1.603   6.281 -1.0894 -0.1074  1.3216
  129OSM   H17T13907   3.230   1.753   6.358  1.8988 -1.5004  0.3076
  129OSM   C18S13908   3.155   1.773   6.165  0.0113  0.1538  0.2417
  129OSM   H18S13909   3.115   1.876   6.152 -0.9975 -0.3620 -1.0109
  129OSM   H18T13910   3.105   1.720   6.081 -2.8693  1.4155  1.0531
  129OSM   H18U13911   3.264   1.776   6.145  0.1384  0.9604  1.0003
  129OSM    C1F13912   2.576   1.229   7.639 -0.2062  0.0405 -0.3485
  129OSM     OF13913   2.479   1.248   7.703 -0.0838 -0.6661  0.1194
  129OSM    C2F13914   2.573   1.151   7.518  0.1741  0.5279  0.6722
  129OSM    H2F13915   2.470   1.121   7.489 -0.0172 -0.3400  2.1421
  129OSM    H2G13916   2.620   1.050   7.524 -0.6702  0.1331  0.7014
  129OSM    C3F13917   2.628   1.241   7.408  0.1066 -0.1348  0.5169
  129OSM    H3F13918   2.732   1.274   7.431 -0.1607  0.2665  1.1770
  129OSM    H3G13919   2.575   1.337   7.393  1.0313  0.1241 -1.4815
  129OSM    C4F13920   2.609   1.182   7.264 -0.4631  0.4271  0.7796
  129OSM    H4F13921   2.498   1.184   7.253 -0.6167  3.0899  2.1428
  129OSM    H4G13922   2.657   1.082   7.261  1.0230  1.1327  0.4134
  129OSM    C5F13923   2.671   1.258   7.150 -0.2027  0.1705  0.2369
  129OSM    H5F13924   2.777   1.276   7.176  0.4248 -2.2550 -0.3673
  129OSM    H5G13925   2.617   1.355   7.149 -0.6480 -0.0242  1.9151
  129OSM    C6F13926   2.663   1.198   7.018 -0.0961  0.1248  0.0211
  129OSM    H6F13927   2.560   1.160   7.003  0.7176 -2.0145 -0.4553
  129OSM    H6G13928   2.722   1.105   7.007  0.8092  0.3848  2.2103
  129OSM    C7F13929   2.694   1.293   6.898  0.5172  0.6899 -0.1140
  129OSM    H7F13930   2.803   1.308   6.907  0.5937 -0.3204  0.8913
  129OSM    H7G13931   2.627   1.380   6.917 -0.6087  0.3589 -2.2999
  129OSM    C8F13932   2.649   1.243   6.754 -0.0286 -0.5704  0.6309
  129OSM    H8F13933   2.675   1.326   6.685 -0.5014 -0.4559  0.5872
  129OSM    H8G13934   2.541   1.220   6.758 -0.6093  1.4180 -1.2715
  129OSM    C9F13935   2.725   1.121   6.715 -0.7929 -1.0101 -0.0023
  129OSM    H9F13936   2.740   1.053   6.800 -0.3046  1.0789  1.6625
  129OSM   C10F13937   2.805   1.111   6.602 -0.5851  0.4709  0.2869
  129OSM   H10F13938   2.867   1.022   6.584  1.3791  1.9261 -0.5001
  129OSM   C11F13939   2.804   1.214   6.491 -0.4860 -0.1130  0.4491
  129OSM   H11F13940   2.809   1.317   6.532  3.1407  0.3036 -0.7007
  129OSM   H11G13941   2.708   1.212   6.435  1.3037 -0.4873 -2.8246
  129OSM   C12F13942   2.928   1.193   6.391  0.3646  0.0355 -0.1246
  129OSM   H12F13943   3.025   1.195   6.444  0.5656  0.5811 -0.5020
  129OSM   H12G13944   2.944   1.282   6.327  2.1779 -1.3638 -1.7350
  129OSM   C13F13945   2.920   1.066   6.298 -0.5196  0.0643 -0.5726
  129OSM   H13F13946   2.879   0.986   6.364  0.1933  0.6657  0.6251
  129OSM   H13G13947   3.023   1.054   6.259  0.0040  3.2771 -0.4074
  129OSM   C14F13948   2.831   1.093   6.179 -0.3260  0.3927  0.5072
  129OSM   H14F13949   2.883   1.174   6.123 -0.6278  0.3249  0.1251
  129OSM   H14G13950   2.741   1.142   6.222  0.6997  1.9705  0.9748
  129OSM   C15F13951   2.805   0.980   6.080  0.4316  0.1809  0.1310
  129OSM   H15F13952   2.735   1.006   5.998  0.1298 -1.7430 -0.2748
  129OSM   H15G13953   2.769   0.888   6.130 -0.4836 -0.2806 -1.3016
  129OSM   C16F13954   2.940   0.938   6.015 -0.2160  0.1653  0.6334
  129OSM   H16F13955   3.021   0.930   6.090 -1.3903 -0.3342  1.8888
  129OSM   H16G13956   2.970   1.019   5.945 -0.2207 -0.9841 -0.7515
  129OSM   C17F13957   2.920   0.811   5.940 -0.1494 -0.4998 -0.2150
  129OSM   H17F13958   3.019   0.783   5.897  0.0042  0.7095 -0.6956
  129OSM   H17G13959   2.851   0.824   5.854 -1.1172  2.0491  0.8443
  129OSM   C18F13960   2.888   0.689   6.030  0.0736  0.2080 -0.2629
  129OSM   H18F13961   2.916   0.596   5.975  4.0731  1.7280 -1.0785
  129OSM   H18G13962   2.782   0.676   6.063 -0.4378  3.9807 -0.0558
  129OSM   H18H13963   2.953   0.685   6.119  0.2370 -2.8369 -0.3887
  130OSM      N13964   5.108   0.368   8.464 -0.3836 -0.5642 -0.0691
  130OSM    C1513965   4.993   0.299   8.525 -0.1216  0.1580  0.2039
  130OSM   H15A13966   4.943   0.361   8.598 -1.6009 -0.2284 -0.4457
  130OSM   H15B13967   5.024   0.208   8.574  3.4411  0.5970 -0.9254
  130OSM   H15C13968   4.922   0.271   8.448 -2.3549  0.2816  2.1123
  130OSM    C1413969   5.077   0.499   8.393  1.2062 -0.6773 -0.7258
  130OSM   H14A13970   5.033   0.565   8.466  0.4847 -2.8847  0.9184
  130OSM   H14B13971   4.999   0.485   8.320 -0.3025  0.4932  0.5777
  130OSM   H14C13972   5.163   0.539   8.341  0.3203  2.2407 -0.1526
  130OSM    C1313973   5.194   0.394   8.583  0.1813 -0.0004  0.1389
  130OSM   H13A13974   5.289   0.428   8.546  0.2326 -0.6124 -0.3130
  130OSM   H13B13975   5.213   0.305   8.642 -0.3577  0.2445  0.6931
  130OSM   H13C13976   5.153   0.471   8.647  0.8724 -0.1608  0.7831
  130OSM    C1213977   5.183   0.275   8.372 -0.8372  0.1316  0.4141
  130OSM   H12A13978   5.157   0.178   8.413 -1.4283 -0.2330 -0.7823
  130OSM   H12B13979   5.290   0.291   8.375 -0.8382  0.1098  0.6221
  130OSM    C1113980   5.129   0.266   8.222  0.1430 -0.1600  1.0418
  130OSM   H11A13981   5.203   0.206   8.165 -0.3840  0.9710 -0.9471
  130OSM   H11B13982   5.118   0.363   8.168  1.8356 -0.0726  0.8040
  130OSM      P13983   4.870   0.245   8.177  0.0756  0.0201 -0.3407
  130OSM    O1313984   4.776   0.145   8.220 -0.0437 -0.0191 -0.6778
  130OSM    O1413985   4.850   0.386   8.223 -0.0121  0.4352 -0.2669
  130OSM    O1113986   4.865   0.238   8.023 -0.5028 -0.3509 -0.1198
  130OSM    O1213987   5.009   0.194   8.222 -0.3261  0.3091  0.0639
  130OSM    C1S13988   4.959   0.157   7.946 -0.1607 -0.2697 -0.2604
  130OSM    H1S13989   4.971   0.056   7.991 -0.9708  0.7608  2.5221
  130OSM    H1T13990   5.059   0.204   7.951 -0.0579 -0.2946 -1.6691
  130OSM     NF13991   5.005   0.048   7.730 -0.7697  0.1505 -0.0720
  130OSM    HNF13992   5.097   0.074   7.701 -0.2884 -0.9962  0.3615
  130OSM    C2S13993   4.934   0.152   7.793 -0.6290 -0.0221 -0.0831
  130OSM    H2S13994   4.832   0.135   7.752 -0.8385  1.4445 -0.2328
  130OSM    C3S13995   4.967   0.296   7.731  0.4255  0.6150  0.4686
  130OSM    H3S13996   5.074   0.319   7.751  0.8899 -2.3717  1.9158
  130OSM     O313997   4.881   0.404   7.781 -0.4157  0.4162  0.0366
  130OSM    HO313998   4.840   0.356   7.853 -0.6553  0.0105 -0.3664
  130OSM    C4S13999   4.960   0.294   7.581  0.0722 -0.3574  0.0463
  130OSM    H4S14000   5.049   0.241   7.543  0.8339 -1.5398  3.1714
  130OSM    C5S14001   4.862   0.344   7.502  0.0958 -0.6854 -0.3226
  130OSM    H5S14002   4.770   0.382   7.547  0.6810 -0.0932  0.4127
  130OSM    C6S14003   4.867   0.331   7.356  0.2822  0.0412 -0.4659
  130OSM    H6S14004   4.869   0.431   7.308 -0.6193 -0.2635 -1.1795
  130OSM    H6T14005   4.774   0.284   7.317 -0.1839 -0.9358  1.6846
  130OSM    C7S14006   4.981   0.259   7.291  0.0402  0.5063  0.0162
  130OSM    H7S14007   4.982   0.151   7.314 -0.0233  0.5247  0.1057
  130OSM    H7T14008   5.076   0.290   7.341  1.0017 -0.2013 -1.3089
  130OSM    C8S14009   4.994   0.295   7.137 -0.4443 -0.0927  0.0236
  130OSM    H8S14010   5.093   0.253   7.109 -0.5861  1.0135 -2.3842
  130OSM    H8T14011   4.986   0.405   7.126  1.1583 -0.1898 -3.3239
  130OSM    C9S14012   4.884   0.230   7.049 -1.0954  0.4197 -0.0542
  130OSM    H9S14013   4.796   0.295   7.067 -0.4605  1.8901 -1.8662
  130OSM    H9T14014   4.867   0.128   7.091  0.9966  0.0933  0.1204
  130OSM   C10S14015   4.927   0.218   6.904 -0.1038  0.2873 -0.2010
  130OSM   H10S14016   5.010   0.145   6.895  1.0398  1.1910  2.1373
  130OSM   H10T14017   4.970   0.310   6.858 -0.2014 -0.1662 -1.2318
  130OSM   C11S14018   4.809   0.177   6.824 -0.0501  0.1897  0.2847
  130OSM   H11S14019   4.718   0.239   6.841 -1.2339 -2.0515  2.8702
  130OSM   H11T14020   4.776   0.079   6.866  1.2056 -0.4783 -0.2314
  130OSM   C12S14021   4.832   0.163   6.673 -0.3051 -1.0113 -0.5562
  130OSM   H12S14022   4.744   0.118   6.623 -0.8374  0.7617 -1.2998
  130OSM   H12T14023   4.927   0.106   6.667  0.6859  0.5558 -0.4057
  130OSM   C13S14024   4.855   0.299   6.606 -0.3364  0.0708 -0.3220
  130OSM   H13S14025   4.937   0.352   6.659 -0.1413  0.7159 -1.2651
  130OSM   H13T14026   4.768   0.367   6.622 -0.8066 -0.7901  0.9831
  130OSM   C14S14027   4.891   0.287   6.454 -0.8026  0.3108 -0.0882
  130OSM   H14S14028   4.985   0.230   6.438 -0.3327  1.0013  0.1514
  130OSM   H14T14029   4.918   0.391   6.427 -0.5794 -0.2342 -2.0823
  130OSM   C15S14030   4.776   0.240   6.362 -0.1364 -0.1637 -0.2621
  130OSM   H15S14031   4.752   0.134   6.385  1.5605  0.0837  3.3855
  130OSM   H15T14032   4.810   0.240   6.257 -1.1276  2.1092 -0.6505
  130OSM   C16S14033   4.641   0.320   6.385  0.5057  0.7949  0.3631
  130OSM   H16S14034   4.674   0.421   6.417  1.3726  0.3767  0.8002
  130OSM   H16T14035   4.590   0.270   6.470  1.4289 -1.8118 -0.5278
  130OSM   C17S14036   4.554   0.327   6.256 -0.0013 -0.1106 -0.0683
  130OSM   H17S14037   4.604   0.393   6.182 -0.3856  0.1756 -0.0728
  130OSM   H17T14038   4.458   0.378   6.277  0.3541  1.7778 -2.5681
  130OSM   C18S14039   4.516   0.196   6.189  0.0100  0.4170  0.0161
  130OSM   H18S14040   4.442   0.208   6.107  2.0523  1.5856 -1.7540
  130OSM   H18T14041   4.468   0.128   6.263  1.0442 -0.0048  0.3167
  130OSM   H18U14042   4.601   0.139   6.145 -0.4916  0.6392 -1.2810
  130OSM    C1F14043   4.979  -0.073   7.742 -0.0363 -0.6259  1.0354
  130OSM     OF14044   4.859  -0.100   7.774 -0.6663 -0.6628 -0.0280
  130OSM    C2F14045   5.087  -0.175   7.715 -0.3804  0.0311  0.2530
  130OSM    H2F14046   5.122  -0.223   7.808  1.9372  1.2772  0.1190
  130OSM    H2G14047   5.181  -0.129   7.676  0.5528 -1.5167  0.5619
  130OSM    C3F14048   5.036  -0.286   7.612  0.9350  0.1452 -0.4809
  130OSM    H3F14049   5.012  -0.239   7.514 -0.7413  0.6063  0.1171
  130OSM    H3G14050   4.943  -0.326   7.657  1.6844 -0.6990  0.3628
  130OSM    C4F14051   5.129  -0.407   7.599  0.0666 -0.0020  0.2543
  130OSM    H4F14052   5.155  -0.444   7.701  2.2684 -2.7473 -1.1426
  130OSM    H4G14053   5.218  -0.361   7.552 -1.3115  2.6547  0.0261
  130OSM    C5F14054   5.072  -0.525   7.512 -0.2112 -0.9055  0.5212
  130OSM    H5F14055   4.999  -0.586   7.569 -0.5321  1.1568  2.4623
  130OSM    H5G14056   5.157  -0.594   7.494  1.1762  0.9992 -0.5835
  130OSM    C6F14057   5.038  -0.489   7.369  1.0738  0.0061 -0.2725
  130OSM    H6F14058   5.127  -0.464   7.306  0.2192  2.2684 -0.7014
  130OSM    H6G14059   4.985  -0.392   7.354  2.4493  0.7501 -0.5708
  130OSM    C7F14060   4.961  -0.606   7.297  0.0090  0.8362  0.4659
  130OSM    H7F14061   4.867  -0.625   7.352 -0.4736 -0.1103 -0.6545
  130OSM    H7G14062   5.020  -0.699   7.287 -1.3821  0.0431 -0.7553
  130OSM    C8F14063   4.911  -0.560   7.159  0.0126  0.5152  0.8592
  130OSM    H8F14064   4.869  -0.460   7.182  1.4332  1.3198  0.1192
  130OSM    H8G14065   4.829  -0.621   7.116  1.4490 -1.1218  0.3300
  130OSM    C9F14066   5.018  -0.541   7.056 -0.4081  0.6170  0.0026
  130OSM    H9F14067   5.097  -0.476   7.098 -0.2292  0.5754 -0.2678
  130OSM   C10F14068   5.023  -0.596   6.931  0.4646 -0.4594  0.6803
  130OSM   H10F14069   5.114  -0.579   6.871  0.9274 -2.2266  0.8507
  130OSM   C11F14070   4.921  -0.694   6.873 -0.0211  0.5014  0.2200
  130OSM   H11F14071   4.850  -0.731   6.951  2.8243 -2.4681  1.6259
  130OSM   H11G14072   4.969  -0.792   6.855 -0.3723  0.7333 -2.2711
  130OSM   C12F14073   4.858  -0.644   6.745  0.1436  0.8908 -0.7173
  130OSM   H12F14074   4.781  -0.717   6.713  0.6606  1.5597 -3.8133
  130OSM   H12G14075   4.926  -0.639   6.657  0.9125  0.4695 -0.1624
  130OSM   C13F14076   4.796  -0.509   6.747 -0.7186 -1.0219  0.1951
  130OSM   H13F14077   4.871  -0.427   6.755 -1.3055 -0.1716 -2.3282
  130OSM   H13G14078   4.733  -0.486   6.835 -2.1586  2.4313 -1.5527
  130OSM   C14F14079   4.707  -0.490   6.622 -0.8172  0.3385 -0.5949
  130OSM   H14F14080   4.599  -0.483   6.647 -0.3232  1.4245  1.4340
  130OSM   H14G14081   4.695  -0.589   6.572  0.1084  0.0219 -0.2072
  130OSM   C15F14082   4.762  -0.392   6.524 -0.3079 -0.5316 -0.0173
  130OSM   H15F14083   4.866  -0.416   6.493 -0.0457 -1.2564  1.3706
  130OSM   H15G14084   4.759  -0.296   6.581 -1.2816 -0.8402  0.4765
  130OSM   C16F14085   4.666  -0.389   6.408 -0.5848 -0.3265  0.2480
  130OSM   H16F14086   4.561  -0.363   6.433  0.0273  0.2361  2.4193
  130OSM   H16G14087   4.676  -0.494   6.374 -2.8617 -1.5856  3.0330
  130OSM   C17F14088   4.722  -0.287   6.297  0.1756  0.3902 -0.4301
  130OSM   H17F14089   4.683  -0.314   6.196 -3.7980 -2.5005  1.6038
  130OSM   H17G14090   4.832  -0.293   6.303  0.2055  1.3363  0.1869
  130OSM   C18F14091   4.677  -0.149   6.337  0.2297 -0.9435  0.6516
  130OSM   H18F14092   4.567  -0.141   6.345  0.3430  1.8110  0.5511
  130OSM   H18G14093   4.708  -0.070   6.265  0.2697  0.6884  2.4007
  130OSM   H18H14094   4.707  -0.123   6.441  2.1564  0.6846 -0.2350
  131OSM      N14095   2.924   1.805   8.136 -0.0923  0.0375  0.2342
  131OSM    C1514096   2.816   1.713   8.183  0.1004  0.1742  0.2961
  131OSM   H15A14097   2.743   1.711   8.103  1.9547  0.4743 -1.4601
  131OSM   H15B14098   2.764   1.745   8.272  1.6982  2.1106  0.6003
  131OSM   H15C14099   2.858   1.615   8.199 -0.4793 -0.0512  0.4551
  131OSM    C1414100   2.873   1.924   8.070  0.3167 -0.0265 -0.4064
  131OSM   H14A14101   2.796   1.901   7.998  2.2541 -1.9827 -1.9584
  131OSM   H14B14102   2.946   1.979   8.012 -1.6051  0.7542 -2.2248
  131OSM   H14C14103   2.828   1.997   8.136 -0.0741 -1.0205  0.4539
  131OSM    C1314104   3.010   1.837   8.252 -0.4155  0.1774 -0.0995
  131OSM   H13A14105   3.104   1.883   8.226  0.8816 -1.9770  0.5060
  131OSM   H13B14106   3.042   1.745   8.299 -3.0654 -0.1874  1.1746
  131OSM   H13C14107   2.955   1.896   8.323  1.3206 -0.4733  1.8945
  131OSM    C1214108   3.009   1.723   8.032 -0.1755  0.1405  0.4415
  131OSM   H12A14109   2.940   1.688   7.957 -0.0413 -0.0628  0.4110
  131OSM   H12B14110   3.040   1.640   8.093  0.5665 -0.1738 -0.3309
  131OSM    C1114111   3.139   1.778   7.963  0.5869 -0.3003 -0.2364
  131OSM   H11A14112   3.106   1.853   7.888 -0.6776  0.0756  0.6606
  131OSM   H11B14113   3.174   1.698   7.895 -1.5713 -2.5872  1.1702
  131OSM      P14114   3.328   1.737   8.136  0.3235  0.0752  0.1519
  131OSM    O1314115   3.375   1.814   8.252 -0.2439  0.1750 -0.4568
  131OSM    O1414116   3.257   1.609   8.167 -0.1712 -0.0134  0.4522
  131OSM    O1114117   3.456   1.730   8.044 -0.4027  0.0425 -0.2955
  131OSM    O1214118   3.235   1.829   8.050  0.0386  0.0544 -0.0146
  131OSM    C1S14119   3.472   1.619   7.955 -0.0073 -0.4378 -0.0933
  131OSM    H1S14120   3.393   1.541   7.961 -0.1161 -0.2462  1.1258
  131OSM    H1T14121   3.564   1.560   7.973  1.3162  1.7402  0.6297
  131OSM     NF14122   3.472   1.565   7.710 -0.7112 -0.0060  0.3415
  131OSM    HNF14123   3.553   1.552   7.652 -1.0159 -2.3033  0.3426
  131OSM    C2S14124   3.483   1.672   7.807 -1.1709  0.1421 -0.4168
  131OSM    H2S14125   3.392   1.730   7.779 -0.0571  1.5347 -1.3396
  131OSM    C3S14126   3.599   1.770   7.778 -0.0256  0.7745 -0.2079
  131OSM    H3S14127   3.698   1.721   7.791 -0.2536  0.2915 -0.2683
  131OSM     O314128   3.589   1.877   7.863 -0.1373 -0.4597 -0.2797
  131OSM    HO314129   3.520   1.844   7.921  0.3403 -2.4408 -0.7612
  131OSM    C4S14130   3.597   1.802   7.638 -0.1108 -0.6343  0.5542
  131OSM    H4S14131   3.668   1.745   7.578 -1.0848 -0.2301 -1.0499
  131OSM    C5S14132   3.536   1.906   7.573  0.0600  0.1214  0.1529
  131OSM    H5S14133   3.475   1.974   7.634 -1.1749  0.1318 -1.0676
  131OSM    C6S14134   3.549   1.945   7.430  1.0257  0.1001 -0.1433
  131OSM    H6S14135   3.588   2.048   7.421 -0.2371  0.3909 -3.4578
  131OSM    H6T14136   3.454   1.929   7.374  1.5174  1.9995 -1.6188
  131OSM    C7S14137   3.657   1.851   7.358 -0.3198 -0.0240 -0.3109
  131OSM    H7S14138   3.629   1.743   7.361  0.6801 -0.2686  1.4726
  131OSM    H7T14139   3.753   1.866   7.413 -0.7118 -1.3362  0.7861
  131OSM    C8S14140   3.674   1.892   7.213  0.4059 -0.1778 -0.6388
  131OSM    H8S14141   3.727   1.989   7.211 -0.2866  0.2970  1.7206
  131OSM    H8T14142   3.572   1.895   7.170  0.1329 -0.0780  0.0130
  131OSM    C9S14143   3.769   1.795   7.134  0.1207 -0.5499 -0.0614
  131OSM    H9S14144   3.740   1.689   7.150  0.8274 -0.3669  3.0781
  131OSM    H9T14145   3.873   1.803   7.171  0.8361  0.2731 -2.0604
  131OSM   C10S14146   3.760   1.825   6.981 -0.1523  0.1734  0.6412
  131OSM   H10S14147   3.665   1.787   6.937  0.4894 -0.4295 -0.2816
  131OSM   H10T14148   3.844   1.772   6.932 -1.4939 -0.0759 -1.5424
  131OSM   C11S14149   3.779   1.973   6.934  0.3925  0.5416  0.6098
  131OSM   H11S14150   3.848   2.030   7.000  1.2126  0.5169 -0.2060
  131OSM   H11T14151   3.680   2.021   6.940  0.3049  0.3916  0.3984
  131OSM   C12S14152   3.840   1.970   6.793  1.1972 -0.2843 -0.8930
  131OSM   H12S14153   3.774   1.910   6.726  1.3147 -0.0793 -1.1950
  131OSM   H12T14154   3.942   1.927   6.804  1.3835  0.6199  1.4145
  131OSM   C13S14155   3.851   2.113   6.729 -0.8505 -0.2376 -0.2884
  131OSM   H13S14156   3.933   2.170   6.778 -0.7422 -2.0474  1.8330
  131OSM   H13T14157   3.761   2.172   6.753 -0.2323  0.5966  0.0398
  131OSM   C14S14158   3.862   2.115   6.577 -0.1291  0.7459  0.1867
  131OSM   H14S14159   3.834   2.219   6.549 -0.0308  0.9562  0.8583
  131OSM   H14T14160   3.785   2.041   6.546  1.3087 -0.7192 -0.0466
  131OSM   C15S14161   3.998   2.069   6.517  0.4039  0.3180 -0.2741
  131OSM   H15S14162   4.015   1.964   6.551 -0.0262 -0.0058 -1.0321
  131OSM   H15T14163   4.076   2.132   6.566 -2.1052  1.0232  3.1726
  131OSM   C16S14164   3.999   2.058   6.366 -0.6309 -0.3978  0.1387
  131OSM   H16S14165   3.907   2.002   6.339  0.6020 -0.9163 -3.5702
  131OSM   H16T14166   4.085   1.999   6.330 -1.1111  0.0745 -1.8853
  131OSM   C17S14167   4.003   2.190   6.295 -0.8564 -0.2005  1.2584
  131OSM   H17S14168   4.098   2.244   6.317  0.0993 -0.7942 -1.0668
  131OSM   H17T14169   3.925   2.262   6.327  0.6138  1.7591  0.6589
  131OSM   C18S14170   3.992   2.192   6.139 -0.8388 -0.0808  0.1358
  131OSM   H18S14171   3.890   2.157   6.114  0.2103 -1.2551 -2.9442
  131OSM   H18T14172   4.064   2.132   6.079 -1.1867 -0.0799 -0.2839
  131OSM   H18U14173   3.990   2.298   6.107  0.8970  0.8558  2.7798
  131OSM    C1F14174   3.365   1.494   7.694 -0.2579  0.6562 -0.0025
  131OSM     OF14175   3.267   1.503   7.765 -0.0585  0.2007  0.0871
  131OSM    C2F14176   3.373   1.388   7.591 -0.4197 -0.6612 -0.1041
  131OSM    H2F14177   3.312   1.304   7.631 -0.4206 -1.2612 -1.3222
  131OSM    H2G14178   3.483   1.372   7.582 -0.2623  0.6661 -0.8072
  131OSM    C3F14179   3.312   1.420   7.454  0.6092  0.9064  0.4826
  131OSM    H3F14180   3.202   1.436   7.455  0.2705 -0.9062 -1.3213
  131OSM    H3G14181   3.313   1.325   7.396 -1.0113  0.8159  0.5477
  131OSM    C4F14182   3.387   1.531   7.380 -0.3713 -0.1545 -0.2691
  131OSM    H4F14183   3.495   1.535   7.407 -0.6870 -1.5438  1.3701
  131OSM    H4G14184   3.346   1.631   7.406  0.3626  0.9808 -3.1148
  131OSM    C5F14185   3.376   1.516   7.222  0.1291 -0.1688  0.0236
  131OSM    H5F14186   3.266   1.508   7.206 -0.2274 -2.5158  2.6576
  131OSM    H5G14187   3.439   1.427   7.198 -0.4492 -0.1141 -1.8325
  131OSM    C6F14188   3.423   1.639   7.149  0.1949  0.8285 -0.1421
  131OSM    H6F14189   3.533   1.652   7.155  0.1742  0.5961  1.2105
  131OSM    H6G14190   3.376   1.732   7.189 -1.6990 -0.1127 -0.0744
  131OSM    C7F14191   3.377   1.654   7.002  0.3674  0.5126  0.7455
  131OSM    H7F14192   3.422   1.741   6.950  1.5924  0.8648  2.3229
  131OSM    H7G14193   3.266   1.662   7.007  0.3696  0.1744  1.5443
  131OSM    C8F14194   3.406   1.538   6.910 -0.6235  0.6920  0.7650
  131OSM    H8F14195   3.368   1.444   6.956 -3.2430 -0.1274 -2.6550
  131OSM    H8G14196   3.513   1.523   6.888 -0.8102 -0.3214  0.4702
  131OSM    C9F14197   3.332   1.529   6.781  0.9095 -0.5574  0.3252
  131OSM    H9F14198   3.242   1.467   6.796  1.2552 -0.7175  1.9481
  131OSM   C10F14199   3.374   1.570   6.660  0.0936  0.2894 -0.3757
  131OSM   H10F14200   3.312   1.572   6.569  0.6787  0.6825 -0.7720
  131OSM   C11F14201   3.505   1.623   6.642 -0.0912 -0.6605 -0.3971
  131OSM   H11F14202   3.575   1.547   6.603  2.4112 -0.0094  2.3959
  131OSM   H11G14203   3.553   1.663   6.735 -2.7669  1.4836  0.1979
  131OSM   C12F14204   3.507   1.745   6.541  0.5102  0.4864 -0.5305
  131OSM   H12F14205   3.501   1.833   6.610 -0.1687 -1.0632  1.4938
  131OSM   H12G14206   3.426   1.740   6.466 -0.0529 -2.2084  0.1417
  131OSM   C13F14207   3.642   1.760   6.468 -0.0465  0.3682  0.0304
  131OSM   H13F14208   3.731   1.716   6.518  0.9190  0.3102 -1.6686
  131OSM   H13G14209   3.647   1.867   6.439 -3.2908 -0.1282 -3.0743
  131OSM   C14F14210   3.624   1.696   6.323  0.2083 -0.0097  0.1979
  131OSM   H14F14211   3.525   1.718   6.278 -0.3024 -0.1161  1.2411
  131OSM   H14G14212   3.627   1.586   6.329 -2.5807 -0.1763 -0.3341
  131OSM   C15F14213   3.710   1.779   6.226 -0.3155 -0.1930 -0.1285
  131OSM   H15F14214   3.816   1.760   6.254  0.0346  0.3641 -1.0636
  131OSM   H15G14215   3.681   1.885   6.234  1.0873  0.3222 -1.3075
  131OSM   C16F14216   3.694   1.734   6.081  0.1113 -0.6244  0.3084
  131OSM   H16F14217   3.592   1.748   6.039  0.5469 -1.3245 -1.0252
  131OSM   H16G14218   3.714   1.625   6.085  0.6495 -0.5946 -1.0734
  131OSM   C17F14219   3.786   1.820   6.001  0.0946 -0.4549 -0.4831
  131OSM   H17F14220   3.889   1.790   6.027 -0.0911 -1.0989 -0.4846
  131OSM   H17G14221   3.785   1.926   6.036 -1.7192  0.1010 -2.0156
  131OSM   C18F14222   3.754   1.829   5.853 -0.2180  0.1330  0.3476
  131OSM   H18F14223   3.833   1.883   5.798 -0.0850 -0.2572  0.1552
  131OSM   H18G14224   3.651   1.871   5.844  0.0199  0.6294 -0.0484
  131OSM   H18H14225   3.746   1.731   5.801 -1.4660  1.1853 -1.5446
  132OSM      N14226   3.494   5.463   0.088  0.1640 -0.9084 -0.6007
  132OSM    C1514227   3.594   5.373   0.159  0.4301  0.4441  0.3839
  132OSM   H15A14228   3.690   5.422   0.152  0.3473  0.6754  0.8402
  132OSM   H15B14229   3.605   5.277   0.111 -0.6419 -0.2476  1.4649
  132OSM   H15C14230   3.564   5.361   0.262 -3.3107  1.1090 -0.4749
  132OSM    C1414231   3.370   5.396   0.122 -0.1104  0.3482  0.0385
  132OSM   H14A14232   3.357   5.404   0.229  1.7702 -2.0394  0.5075
  132OSM   H14B14233   3.372   5.289   0.105 -0.6386  0.6654 -2.3684
  132OSM   H14C14234   3.282   5.422   0.064  0.3130 -1.7569 -1.6665
  132OSM    C1314235   3.507   5.598   0.159 -0.0329 -0.3730  0.3905
  132OSM   H13A14236   3.432   5.664   0.119  2.7307  2.3073 -0.7066
  132OSM   H13B14237   3.608   5.634   0.162  0.4593 -1.7450  1.1747
  132OSM   H13C14238   3.493   5.593   0.266  2.9527  1.0698  0.9351
  132OSM    C1214239   3.514   5.478  -0.058  0.0690  0.3316  0.7139
  132OSM   H12A14240   3.438   5.540  -0.103 -0.6800  0.0914  1.6146
  132OSM   H12B14241   3.494   5.382  -0.104  0.3411 -0.5912  2.4116
  132OSM    C1114242   3.657   5.522  -0.109 -0.2066 -0.9960 -0.4314
  132OSM   H11A14243   3.697   5.607  -0.049  0.1253 -0.8710 -0.8257
  132OSM   H11B14244   3.644   5.560  -0.212 -0.2270  2.2599  0.6641
  132OSM      P14245   3.793   5.312  -0.196  0.1688 -0.1824 -0.3973
  132OSM    O1314246   3.934   5.270  -0.149 -0.1233  0.4604 -0.0546
  132OSM    O1414247   3.697   5.205  -0.230  0.1340  0.1810  0.0053
  132OSM    O1114248   3.801   5.406  -0.328 -0.5183 -0.7207 -0.5297
  132OSM    O1214249   3.747   5.417  -0.093 -0.9521 -0.0301  0.1015
  132OSM    C1S14250   3.919   5.393  -0.412  0.2656 -0.2782 -0.1199
  132OSM    H1S14251   3.974   5.298  -0.393  0.0744 -0.1216  1.3175
  132OSM    H1T14252   3.989   5.479  -0.402 -1.1869  1.1835 -1.7875
  132OSM     NF14253   3.997   5.330  -0.646  0.1479 -0.1684 -0.1386
  132OSM    HNF14254   4.036   5.398  -0.708  2.3216  1.3299  2.6418
  132OSM    C2S14255   3.887   5.380  -0.566 -0.4730 -0.8485 -0.0915
  132OSM    H2S14256   3.802   5.308  -0.570 -2.0782  0.9748 -0.4810
  132OSM    C3S14257   3.830   5.521  -0.611  0.8952 -0.4390 -0.2986
  132OSM    H3S14258   3.909   5.599  -0.623 -1.7786  2.6587  0.7856
  132OSM     O314259   3.734   5.574  -0.513  0.2733 -0.4003  0.2703
  132OSM    HO314260   3.743   5.511  -0.441  0.5070 -3.1875 -2.0183
  132OSM    C4S14261   3.756   5.506  -0.735  0.1420  0.0347 -0.1994
  132OSM    H4S14262   3.655   5.468  -0.712  0.1609 -0.0947 -0.3324
  132OSM    C5S14263   3.798   5.551  -0.852  0.2693 -0.5068  0.0500
  132OSM    H5S14264   3.887   5.615  -0.860 -0.9446  1.0887 -1.5819
  132OSM    C6S14265   3.720   5.536  -0.983  0.5064  0.4861 -0.0481
  132OSM    H6S14266   3.720   5.636  -1.032 -0.1751 -0.4937 -2.1610
  132OSM    H6T14267   3.618   5.495  -0.969 -0.3227  2.0375 -1.2726
  132OSM    C7S14268   3.793   5.446  -1.088 -0.6995  0.6515  0.2269
  132OSM    H7S14269   3.820   5.346  -1.049  0.3284 -0.0339 -2.0849
  132OSM    H7T14270   3.891   5.492  -1.111  0.3791 -2.0531 -0.9945
  132OSM    C8S14271   3.701   5.436  -1.210  0.0315  0.3189  1.3286
  132OSM    H8S14272   3.705   5.537  -1.256  0.7340 -0.1232  0.3814
  132OSM    H8T14273   3.596   5.421  -1.178 -0.1746  2.4044  1.7862
  132OSM    C9S14274   3.743   5.342  -1.332  0.5486  0.1812 -0.2145
  132OSM    H9S14275   3.668   5.359  -1.413 -0.7176  0.1273  0.9031
  132OSM    H9T14276   3.726   5.235  -1.307 -1.4586  0.4139 -0.3812
  132OSM   C10S14277   3.882   5.371  -1.386  0.2146 -0.8752 -0.7866
  132OSM   H10S14278   3.955   5.353  -1.304 -1.3193 -2.3961  0.3321
  132OSM   H10T14279   3.881   5.479  -1.411  1.2079 -0.6881 -0.0876
  132OSM   C11S14280   3.923   5.282  -1.502 -0.1814  0.3189 -0.6327
  132OSM   H11S14281   3.829   5.248  -1.551 -0.7706  1.6811 -0.4945
  132OSM   H11T14282   3.977   5.200  -1.450 -1.7013  0.2283  0.8859
  132OSM   C12S14283   4.016   5.363  -1.591 -0.5226 -0.2922 -0.4206
  132OSM   H12S14284   4.114   5.374  -1.539 -0.2272  0.3173 -1.0944
  132OSM   H12T14285   3.980   5.465  -1.616  3.5771  1.5193  0.1726
  132OSM   C13S14286   4.056   5.296  -1.727  0.2932 -0.0490 -0.3999
  132OSM   H13S14287   4.147   5.336  -1.776  0.3163 -0.4250 -0.6667
  132OSM   H13T14288   3.972   5.311  -1.798  1.2231 -0.6612 -1.6647
  132OSM   C14S14289   4.103   5.149  -1.699 -0.2588  0.2795  0.0385
  132OSM   H14S14290   4.022   5.096  -1.644 -0.0589 -0.8489 -0.7096
  132OSM   H14T14291   4.188   5.140  -1.629  0.6681  1.4080 -0.8954
  132OSM   C15S14292   4.125   5.079  -1.829  0.0095 -0.1580  0.2372
  132OSM   H15S14293   4.219   5.114  -1.877  0.4705 -2.9023 -1.0279
  132OSM   H15T14294   4.038   5.114  -1.889 -0.0205 -0.1454  0.2873
  132OSM   C16S14295   4.122   4.927  -1.810 -0.3176 -0.1491  0.2284
  132OSM   H16S14296   4.018   4.896  -1.783 -1.5478  1.7893 -1.8768
  132OSM   H16T14297   4.187   4.889  -1.729 -1.0028  2.0107  1.9013
  132OSM   C17S14298   4.148   4.867  -1.949 -0.5832  0.8226 -0.2500
  132OSM   H17S14299   4.254   4.896  -1.964 -0.9294  1.9307 -0.6121
  132OSM   H17T14300   4.083   4.896  -2.034 -0.3344  1.5626 -0.1945
  132OSM   C18S14301   4.145   4.714  -1.948  0.3139 -0.5738  0.2522
  132OSM   H18S14302   4.039   4.681  -1.953  0.4108 -1.0490  1.2878
  132OSM   H18T14303   4.196   4.666  -1.863  0.8521 -0.5665 -0.0604
  132OSM   H18U14304   4.193   4.683  -2.043  1.0321 -0.4887  0.5869
  132OSM    C1F14305   4.038   5.203  -0.619  0.0706 -0.3971  0.1076
  132OSM     OF14306   3.977   5.126  -0.544 -0.2969  0.1158  0.1990
  132OSM    C2F14307   4.170   5.170  -0.679 -0.8586 -0.0231 -0.6475
  132OSM    H2F14308   4.241   5.149  -0.596 -3.2155 -1.3984  1.1474
  132OSM    H2G14309   4.202   5.262  -0.734 -0.1745  0.4006  0.4381
  132OSM    C3F14310   4.160   5.057  -0.780 -0.3749  0.2535  0.2677
  132OSM    H3F14311   4.147   4.953  -0.744  3.6114 -0.0606  1.2021
  132OSM    H3G14312   4.254   5.058  -0.839  0.3053  0.7305  1.3342
  132OSM    C4F14313   4.042   5.073  -0.889  0.0671  0.1109 -0.3056
  132OSM    H4F14314   4.042   5.180  -0.918  1.2663 -0.0001 -0.8077
  132OSM    H4G14315   3.948   5.038  -0.842 -0.0075 -0.5161 -0.9140
  132OSM    C5F14316   4.053   4.987  -1.014 -0.1399  0.4062  0.1207
  132OSM    H5F14317   3.955   4.985  -1.066 -0.5925 -0.6525  0.9710
  132OSM    H5G14318   4.083   4.882  -0.993 -0.7073  0.6432  2.3642
  132OSM    C6F14319   4.154   5.051  -1.112  0.6607  0.2993 -0.1613
  132OSM    H6F14320   4.257   5.033  -1.075  0.4470  0.0983  0.3484
  132OSM    H6G14321   4.137   5.160  -1.105 -0.4145  0.1497 -0.2867
  132OSM    C7F14322   4.130   5.006  -1.260 -0.1565  0.8401  0.2449
  132OSM    H7F14323   4.192   5.074  -1.323  0.2258  0.6142  0.3784
  132OSM    H7G14324   4.022   5.023  -1.281  0.1816  0.6288 -1.9381
  132OSM    C8F14325   4.153   4.858  -1.290  0.0398 -0.1741 -0.1793
  132OSM    H8F14326   4.085   4.801  -1.223  0.9635 -2.5787 -1.1504
  132OSM    H8G14327   4.259   4.847  -1.258  0.0368  1.8698  0.6580
  132OSM    C9F14328   4.129   4.811  -1.435  0.5973  0.0995  1.3913
  132OSM    H9F14329   4.039   4.859  -1.476  0.2569 -2.0519 -0.5083
  132OSM   C10F14330   4.206   4.736  -1.517  0.0135 -0.0247  0.0628
  132OSM   H10F14331   4.171   4.698  -1.614  0.0255  0.1124  0.0038
  132OSM   C11F14332   4.334   4.668  -1.481 -0.3174 -0.4464 -0.2975
  132OSM   H11F14333   4.328   4.558  -1.495 -1.5951 -0.1894 -2.1661
  132OSM   H11G14334   4.375   4.703  -1.384 -1.3863  3.7509 -1.1586
  132OSM   C12F14335   4.438   4.721  -1.591 -0.2082 -0.2300 -0.0336
  132OSM   H12F14336   4.444   4.832  -1.587  1.9582 -0.3236  2.5451
  132OSM   H12G14337   4.391   4.695  -1.688 -3.2811  2.3294  0.5985
  132OSM   C13F14338   4.585   4.664  -1.579  0.2868  0.6516  0.2338
  132OSM   H13F14339   4.571   4.561  -1.619 -0.0706  1.4769 -1.8811
  132OSM   H13G14340   4.611   4.637  -1.474 -1.8712 -0.8338  0.4669
  132OSM   C14F14341   4.696   4.735  -1.657  0.6076 -0.4624  0.2187
  132OSM   H14F14342   4.791   4.683  -1.630  0.3016  0.0212  2.3932
  132OSM   H14G14343   4.703   4.836  -1.611 -2.0870 -0.0178 -0.2034
  132OSM   C15F14344   4.665   4.734  -1.805 -0.2234 -0.1209 -0.2139
  132OSM   H15F14345   4.576   4.797  -1.827 -0.3754 -1.2265 -3.2117
  132OSM   H15G14346   4.634   4.632  -1.837 -1.8914 -0.3636  1.9272
  132OSM   C16F14347   4.782   4.780  -1.889  0.2651 -0.3687 -0.2089
  132OSM   H16F14348   4.856   4.698  -1.886 -0.6132 -1.1451  1.8026
  132OSM   H16G14349   4.832   4.873  -1.855  1.5125 -0.6132 -1.2835
  132OSM   C17F14350   4.749   4.800  -2.034 -0.0492  0.5348  0.5528
  132OSM   H17F14351   4.846   4.815  -2.087  0.8797  0.8856  2.3004
  132OSM   H17G14352   4.703   4.901  -2.042 -1.3335  0.1614  2.5518
  132OSM   C18F14353   4.660   4.707  -2.118  0.0850  0.1166  0.1321
  132OSM   H18F14354   4.687   4.600  -2.109 -2.3610 -0.7525 -1.6361
  132OSM   H18G14355   4.646   4.733  -2.225 -1.4698  0.5645  0.4232
  132OSM   H18H14356   4.560   4.704  -2.070  1.0998 -0.5443  2.3412
  133OSM      N14357   5.139   5.385   8.503  0.0164 -0.5438 -1.0156
  133OSM    C1514358   5.004   5.351   8.559 -0.3881 -0.5513  0.5076
  133OSM   H15A14359   4.955   5.277   8.497 -1.0007  0.6502 -0.5071
  133OSM   H15B14360   4.941   5.438   8.574  1.3512  0.4550  2.4778
  133OSM   H15C14361   5.015   5.313   8.659  1.7690  0.0622  0.5610
  133OSM    C1414362   5.211   5.464   8.606 -0.2684  0.1973 -0.2811
  133OSM   H14A14363   5.183   5.566   8.628 -1.0608 -0.2258  0.7923
  133OSM   H14B14364   5.314   5.467   8.575  0.2589 -1.0138  1.2141
  133OSM   H14C14365   5.213   5.415   8.702  2.4428  3.8673  1.8059
  133OSM    C1314366   5.203   5.253   8.486  0.7746 -0.0640  0.2687
  133OSM   H13A14367   5.133   5.174   8.462 -0.0156  0.6257  0.2669
  133OSM   H13B14368   5.254   5.219   8.574 -0.8275  0.0985  1.3063
  133OSM   H13C14369   5.270   5.262   8.401 -1.1030  2.9174 -1.0655
  133OSM    C1214370   5.118   5.457   8.372  1.2817 -0.2594  0.2747
  133OSM   H12A14371   5.080   5.555   8.396  1.0340 -0.4409  0.6351
  133OSM   H12B14372   5.043   5.411   8.310  1.4407 -0.0292 -0.0888
  133OSM    C1114373   5.238   5.466   8.281 -0.2941 -0.6848 -0.4687
  133OSM   H11A14374   5.203   5.511   8.185  2.4011 -0.4953 -1.4318
  133OSM   H11B14375   5.276   5.365   8.257  1.2864 -0.5863  1.3402
  133OSM      P14376   5.356   5.697   8.352 -0.0948  0.2624  0.0614
  133OSM    O1314377   5.232   5.761   8.309 -0.1073  0.1481 -0.5955
  133OSM    O1414378   5.407   5.731   8.485  0.8332 -0.7949 -0.1432
  133OSM    O1114379   5.463   5.715   8.250  0.6043  0.4749 -0.0603
  133OSM    O1214380   5.342   5.543   8.348 -0.0687 -0.1430 -0.2718
  133OSM    C1S14381   5.469   5.625   8.133 -0.1465 -0.3780 -0.8390
  133OSM    H1S14382   5.373   5.629   8.077 -0.0005  2.6039 -1.0126
  133OSM    H1T14383   5.492   5.521   8.164  1.2217  0.5119  1.3564
  133OSM     NF14384   5.587   5.599   7.913  0.2537  0.0387  1.0322
  133OSM    HNF14385   5.669   5.549   7.887  0.1542  0.1520  0.4933
  133OSM    C2S14386   5.593   5.667   8.044  0.8827  0.4921  0.4238
  133OSM    H2S14387   5.579   5.774   8.019 -1.1502  1.1670  3.8982
  133OSM    C3S14388   5.720   5.645   8.120  0.4826  0.2266  0.3780
  133OSM    H3S14389   5.731   5.537   8.142 -0.5711 -0.0189 -0.2371
  133OSM     O314390   5.738   5.701   8.245 -0.0993  0.1340  0.5207
  133OSM    HO314391   5.653   5.742   8.263  0.0768  1.1123 -0.6509
  133OSM    C4S14392   5.839   5.683   8.039 -0.0735  0.7083  0.3060
  133OSM    H4S14393   5.828   5.788   8.010 -1.7519  0.3762 -0.3898
  133OSM    C5S14394   5.957   5.616   8.010 -0.0394  0.2196 -0.7453
  133OSM    H5S14395   5.967   5.515   8.051 -3.1901  0.1794  0.2248
  133OSM    C6S14396   6.073   5.692   7.954 -0.3574 -0.3270 -0.2170
  133OSM    H6S14397   6.148   5.712   8.033 -2.1882  2.6883  0.9358
  133OSM    H6T14398   6.048   5.799   7.938  0.1474  0.0647  1.4428
  133OSM    C7S14399   6.136   5.631   7.834  0.6460 -0.6360  0.4869
  133OSM    H7S14400   6.162   5.525   7.852  1.3415 -0.2582  1.8836
  133OSM    H7T14401   6.237   5.672   7.816  0.6497 -1.8054 -2.7217
  133OSM    C8S14402   6.037   5.651   7.718 -0.0407 -0.1029  0.1934
  133OSM    H8S14403   6.042   5.758   7.685  3.1015 -0.9231 -2.5496
  133OSM    H8T14404   5.932   5.622   7.739  0.4016 -0.9528  1.2904
  133OSM    C9S14405   6.094   5.582   7.587  0.0014 -1.0878 -0.9496
  133OSM    H9S14406   6.117   5.479   7.622  0.7170  0.1169  2.5058
  133OSM    H9T14407   6.186   5.641   7.569 -0.8800  0.7061  0.2192
  133OSM   C10S14408   5.995   5.588   7.472  0.4946 -0.4098  0.1120
  133OSM   H10S14409   5.989   5.687   7.421  2.9576 -0.3709 -0.2532
  133OSM   H10T14410   5.894   5.563   7.511  0.6064  0.1839  0.7974
  133OSM   C11S14411   6.028   5.491   7.360  0.1947 -0.1381 -0.0769
  133OSM   H11S14412   5.936   5.475   7.301 -0.6685  2.2907  0.4872
  133OSM   H11T14413   6.071   5.399   7.405  0.0433  0.3289  1.0707
  133OSM   C12S14414   6.139   5.538   7.257 -0.1416  0.2763  0.1116
  133OSM   H12S14415   6.228   5.558   7.321 -0.2322 -0.1270  0.3647
  133OSM   H12T14416   6.123   5.637   7.210 -0.7269  0.2058  0.1537
  133OSM   C13S14417   6.183   5.424   7.167  0.1600  0.6777  0.0047
  133OSM   H13S14418   6.095   5.407   7.102  0.3087 -0.7272  0.1492
  133OSM   H13T14419   6.210   5.327   7.213  0.3103  0.4682 -0.5198
  133OSM   C14S14420   6.306   5.463   7.075  0.3364  0.3773  0.3298
  133OSM   H14S14421   6.388   5.495   7.143  1.0873  0.6641 -0.6786
  133OSM   H14T14422   6.260   5.550   7.024 -2.2023 -0.8607  0.3779
  133OSM   C15S14423   6.355   5.370   6.969 -0.7545 -0.1539  0.2553
  133OSM   H15S14424   6.268   5.306   6.942  1.4423 -2.5281 -1.6848
  133OSM   H15T14425   6.434   5.295   6.990 -1.0898 -0.6523 -0.2538
  133OSM   C16S14426   6.401   5.449   6.838  0.1115 -0.0942  0.5151
  133OSM   H16S14427   6.322   5.518   6.800  0.7789  0.6793  0.4990
  133OSM   H16T14428   6.419   5.367   6.766  1.9339  0.6518  0.0524
  133OSM   C17S14429   6.534   5.518   6.852  0.1796 -0.3841  0.6372
  133OSM   H17S14430   6.614   5.449   6.888  1.4874  0.6479 -0.1811
  133OSM   H17T14431   6.526   5.602   6.924  0.3294 -0.2966  0.5542
  133OSM   C18S14432   6.577   5.583   6.714 -0.6729  0.6187  0.0655
  133OSM   H18S14433   6.531   5.684   6.703  0.7962  1.1441 -1.5438
  133OSM   H18T14434   6.554   5.512   6.632  0.2702 -0.8873  1.0444
  133OSM   H18U14435   6.686   5.602   6.717 -0.7257  0.9206  0.0871
  133OSM    C1F14436   5.490   5.609   7.822  0.1090  0.4302  0.3133
  133OSM     OF14437   5.389   5.686   7.844 -0.1096 -0.2725 -0.2574
  133OSM    C2F14438   5.509   5.534   7.692 -0.2691  0.5500 -0.4240
  133OSM    H2F14439   5.500   5.425   7.710 -4.1133  0.4955 -1.7024
  133OSM    H2G14440   5.609   5.557   7.648  0.4841 -1.9663 -0.1551
  133OSM    C3F14441   5.402   5.553   7.584  0.1157  0.0153 -0.3611
  133OSM    H3F14442   5.394   5.661   7.561 -0.1969 -0.3644 -2.2531
  133OSM    H3G14443   5.304   5.506   7.609  1.0462 -0.6663  2.3991
  133OSM    C4F14444   5.432   5.492   7.449  1.0201  0.2183  0.2115
  133OSM    H4F14445   5.339   5.503   7.390  0.7608 -1.0042  0.3640
  133OSM    H4G14446   5.439   5.381   7.449  0.6051  0.1843 -0.6364
  133OSM    C5F14447   5.558   5.542   7.374 -1.1446  0.6722 -0.5869
  133OSM    H5F14448   5.635   5.463   7.389 -0.8236  1.2622  1.1236
  133OSM    H5G14449   5.591   5.636   7.424 -2.6916 -0.3079  2.5274
  133OSM    C6F14450   5.537   5.561   7.230 -0.3424 -0.3749 -0.0357
  133OSM    H6F14451   5.467   5.644   7.207 -0.9889 -0.8517  0.2044
  133OSM    H6G14452   5.499   5.466   7.186  0.5752 -1.4401  1.3933
  133OSM    C7F14453   5.667   5.584   7.158 -0.1242  0.1032 -0.3423
  133OSM    H7F14454   5.745   5.510   7.187 -0.4480  0.5867  1.8980
  133OSM    H7G14455   5.705   5.686   7.180  0.8895 -0.2340 -0.4629
  133OSM    C8F14456   5.669   5.577   7.003  0.1203  0.0664 -0.1320
  133OSM    H8F14457   5.635   5.476   6.971  0.0320 -0.2889  1.0148
  133OSM    H8G14458   5.774   5.590   6.969  0.8788  1.9126  2.5177
  133OSM    C9F14459   5.572   5.682   6.948  0.2723  0.9259 -0.0754
  133OSM    H9F14460   5.543   5.764   7.015  0.6864  2.1025 -1.2905
  133OSM   C10F14461   5.529   5.681   6.817  0.9929 -0.4415 -0.5540
  133OSM   H10F14462   5.458   5.758   6.785  2.9022  1.7041  0.1356
  133OSM   C11F14463   5.568   5.577   6.715 -0.0394 -0.0933  0.4925
  133OSM   H11F14464   5.481   5.514   6.685  0.4329 -2.4993  3.6478
  133OSM   H11G14465   5.644   5.511   6.761  1.1765  1.1205  0.2840
  133OSM   C12F14466   5.653   5.643   6.602 -0.0417 -0.1418  0.0659
  133OSM   H12F14467   5.702   5.558   6.550 -2.3954 -1.8694  0.5505
  133OSM   H12G14468   5.730   5.707   6.650 -0.3982  0.3171  0.0306
  133OSM   C13F14469   5.581   5.743   6.514 -0.1248  0.8465  0.5147
  133OSM   H13F14470   5.654   5.779   6.438  1.2125  1.8757  2.2258
  133OSM   H13G14471   5.521   5.822   6.563 -0.3415 -0.3483  2.2545
  133OSM   C14F14472   5.476   5.666   6.432 -0.1351  0.2912  0.1344
  133OSM   H14F14473   5.396   5.640   6.506 -0.7870  2.0117  0.0957
  133OSM   H14G14474   5.522   5.574   6.391  1.3952  0.9437  0.3057
  133OSM   C15F14475   5.404   5.752   6.328  0.2453  0.0639  0.8827
  133OSM   H15F14476   5.483   5.778   6.254 -0.2013 -0.2017  0.3027
  133OSM   H15G14477   5.364   5.845   6.372 -1.0960 -0.3297  0.5529
  133OSM   C16F14478   5.291   5.686   6.241 -0.0278  0.1051 -0.4663
  133OSM   H16F14479   5.194   5.688   6.295 -0.8658 -0.3406 -1.9098
  133OSM   H16G14480   5.321   5.582   6.220  0.6451  0.3975 -1.0029
  133OSM   C17F14481   5.250   5.770   6.110 -0.2451  0.4037 -0.1263
  133OSM   H17F14482   5.347   5.782   6.057  0.1283  0.1100  0.4745
  133OSM   H17G14483   5.212   5.872   6.133  0.3331  0.6355 -0.1706
  133OSM   C18F14484   5.144   5.699   6.015  0.0544  0.0544 -0.0781
  133OSM   H18F14485   5.140   5.770   5.929  0.1513  0.9797  0.6629
  133OSM   H18G14486   5.044   5.693   6.062 -0.6108 -3.8192 -1.5871
  133OSM   H18H14487   5.179   5.602   5.973  1.7959  0.4523  0.3679
  134OSM      N14488   2.426   5.124   0.105 -0.1793 -0.1161  0.8569
  134OSM    C1514489   2.377   5.252   0.041 -0.6171 -0.1218  0.6137
  134OSM   H15A14490   2.301   5.227  -0.031 -2.1495  0.7306  1.8668
  134OSM   H15B14491   2.457   5.301  -0.012 -0.2396  0.8136  1.9827
  134OSM   H15C14492   2.334   5.318   0.115  0.0296  1.6972 -0.5751
  134OSM    C1414493   2.543   5.166   0.189  0.3956  0.1583  0.6419
  134OSM   H14A14494   2.617   5.207   0.123 -0.2809  0.9590  0.3610
  134OSM   H14B14495   2.594   5.084   0.237  1.6721 -1.2005 -2.7258
  134OSM   H14C14496   2.516   5.237   0.266 -0.8894  2.4489 -1.7625
  134OSM    C1314497   2.336   5.053   0.196  0.1495  0.6918  0.2676
  134OSM   H13A14498   2.293   5.105   0.281 -1.3067 -0.0250  0.0079
  134OSM   H13B14499   2.381   4.960   0.227  1.2973  1.0192 -0.3639
  134OSM   H13C14500   2.251   5.030   0.134 -0.6302  1.3230  1.0741
  134OSM    C1214501   2.468   5.031  -0.011  0.1958  0.5574  0.1996
  134OSM   H12A14502   2.510   4.937   0.023 -1.3007 -0.6782 -1.1904
  134OSM   H12B14503   2.555   5.076  -0.057  0.2543  0.6071  0.3563
  134OSM    C1114504   2.366   5.008  -0.126 -0.7326 -0.0501 -0.5129
  134OSM   H11A14505   2.425   4.954  -0.204  0.7166  0.4858  0.1858
  134OSM   H11B14506   2.336   5.106  -0.167 -1.4098  1.4378  3.1744
  134OSM      P14507   2.216   4.802  -0.105 -0.4915 -0.1630  0.2158
  134OSM    O1314508   2.338   4.726  -0.079  0.2489 -0.1977 -0.5025
  134OSM    O1414509   2.101   4.769  -0.022 -0.0957 -0.3990 -0.1689
  134OSM    O1114510   2.176   4.791  -0.258  0.5018  0.3026 -0.3888
  134OSM    O1214511   2.247   4.949  -0.086  0.4057  0.3666  0.2502
  134OSM    C1S14512   2.077   4.880  -0.317  0.4097 -0.0271  0.1280
  134OSM    H1S14513   2.107   4.986  -0.334  0.4663 -0.1884 -0.8674
  134OSM    H1T14514   1.979   4.881  -0.266 -0.0907 -2.0727 -0.6960
  134OSM     NF14515   1.967   4.926  -0.547 -0.1109 -0.1906  0.3481
  134OSM    HNF14516   1.867   4.922  -0.542 -0.1167 -0.3700  0.0840
  134OSM    C2S14517   2.042   4.825  -0.465  0.2935 -0.1582 -0.1160
  134OSM    H2S14518   2.138   4.802  -0.516  0.2982 -1.8271  0.5738
  134OSM    C3S14519   1.973   4.684  -0.448 -0.3308  0.3079  0.2092
  134OSM    H3S14520   1.872   4.699  -0.404  0.1097  1.7202  0.7777
  134OSM     O314521   2.037   4.591  -0.361  0.2420  0.1149  0.0515
  134OSM    HO314522   2.099   4.653  -0.320 -0.1635  1.3503 -1.1496
  134OSM    C4S14523   1.949   4.625  -0.577  0.1957  0.0502  0.0233
  134OSM    H4S14524   1.845   4.644  -0.609  0.1145  1.5716  1.1239
  134OSM    C5S14525   2.034   4.556  -0.661 -0.3945 -0.3888  0.7617
  134OSM    H5S14526   2.139   4.530  -0.644  0.2377  0.0163 -2.1484
  134OSM    C6S14527   1.985   4.495  -0.793 -0.0154 -0.6661 -0.0753
  134OSM    H6S14528   1.878   4.520  -0.810 -0.6779 -2.3788  1.2670
  134OSM    H6T14529   1.999   4.385  -0.794 -1.8158 -0.9302 -1.4949
  134OSM    C7S14530   2.055   4.550  -0.924  0.0258  0.3428 -0.6598
  134OSM    H7S14531   2.044   4.660  -0.931 -2.0526  0.1417 -1.3329
  134OSM    H7T14532   2.004   4.514  -1.016 -0.5170 -2.8922  0.7547
  134OSM    C8S14533   2.203   4.501  -0.949  0.8134 -0.7808  0.0716
  134OSM    H8S14534   2.212   4.391  -0.940  3.4415 -0.6518 -0.1860
  134OSM    H8T14535   2.261   4.547  -0.867  0.0013  1.1696 -0.3888
  134OSM    C9S14536   2.257   4.535  -1.090 -0.1332 -0.7157 -0.3547
  134OSM    H9S14537   2.367   4.523  -1.087  0.0893  1.2558  1.5790
  134OSM    H9T14538   2.230   4.642  -1.104  0.6486 -0.2959  1.1676
  134OSM   C10S14539   2.210   4.447  -1.204 -0.6342 -0.3766  0.4032
  134OSM   H10S14540   2.101   4.428  -1.204 -0.8817  0.2666 -3.4401
  134OSM   H10T14541   2.265   4.350  -1.208  1.3912  0.7387 -1.5480
  134OSM   C11S14542   2.250   4.519  -1.334  0.2165 -0.6358 -0.1954
  134OSM   H11S14543   2.208   4.620  -1.353 -0.4385 -0.5283  1.6352
  134OSM   H11T14544   2.207   4.450  -1.409  0.2388 -0.3427 -0.4805
  134OSM   C12S14545   2.397   4.516  -1.366  0.0402 -0.3509  0.1194
  134OSM   H12S14546   2.442   4.418  -1.340  0.7386  0.4704  2.3137
  134OSM   H12T14547   2.446   4.588  -1.297 -0.7635  0.9041 -0.5905
  134OSM   C13S14548   2.421   4.559  -1.513  0.5169 -0.0925  0.6013
  134OSM   H13S14549   2.426   4.670  -1.513 -1.1270  0.0134  0.1369
  134OSM   H13T14550   2.335   4.534  -1.579  1.3637 -0.2302 -0.4855
  134OSM   C14S14551   2.559   4.513  -1.564 -0.1844 -0.8655 -0.0860
  134OSM   H14S14552   2.643   4.525  -1.492  2.2023  2.9612 -3.0708
  134OSM   H14T14553   2.581   4.583  -1.648 -1.6614 -0.7594 -0.4162
  134OSM   C15S14554   2.567   4.367  -1.624  0.6762 -0.5033 -0.3801
  134OSM   H15S14555   2.489   4.344  -1.700  0.7703 -0.7564 -0.4010
  134OSM   H15T14556   2.537   4.297  -1.543 -0.6858 -2.0060 -2.0970
  134OSM   C16S14557   2.693   4.340  -1.701  0.7899 -1.0579 -0.3953
  134OSM   H16S14558   2.785   4.375  -1.651  0.7148 -0.1607 -0.8520
  134OSM   H16T14559   2.686   4.396  -1.797 -0.7594  0.1139  0.3406
  134OSM   C17S14560   2.721   4.193  -1.732 -0.0194 -0.3126 -0.4871
  134OSM   H17S14561   2.723   4.140  -1.634 -0.3697 -0.5877 -0.6267
  134OSM   H17T14562   2.823   4.179  -1.775  1.3480  2.0440  1.6866
  134OSM   C18S14563   2.615   4.136  -1.829 -0.0626  0.2079  0.1264
  134OSM   H18S14564   2.617   4.207  -1.914  1.1963  1.4795  1.1752
  134OSM   H18T14565   2.518   4.135  -1.774 -0.3814 -0.8598 -0.4200
  134OSM   H18U14566   2.639   4.034  -1.867 -0.2629 -0.4592  1.7168
  134OSM    C1F14567   2.014   5.039  -0.582  0.1280 -0.1394  0.3620
  134OSM     OF14568   2.129   5.066  -0.564  0.6115  0.4752 -0.4522
  134OSM    C2F14569   1.917   5.140  -0.634  0.5320 -0.3394 -0.4244
  134OSM    H2F14570   1.882   5.204  -0.551  0.2905 -1.6532  0.5135
  134OSM    H2G14571   1.828   5.081  -0.665 -0.6441  0.0104  2.0411
  134OSM    C3F14572   1.973   5.229  -0.748 -0.4845  0.3711 -0.0633
  134OSM    H3F14573   2.077   5.264  -0.732  0.9243 -3.2580 -0.3497
  134OSM    H3G14574   1.907   5.316  -0.770 -0.3644  0.0389 -1.9104
  134OSM    C4F14575   1.968   5.144  -0.875 -0.2604 -0.1326  1.1142
  134OSM    H4F14576   1.866   5.107  -0.896  0.1970 -0.6889 -0.2073
  134OSM    H4G14577   2.034   5.055  -0.863  2.5097  1.3906 -1.4133
  134OSM    C5F14578   2.018   5.226  -0.998  0.6659  0.6200 -0.0546
  134OSM    H5F14579   2.116   5.274  -0.976  0.2728  1.3920  0.0613
  134OSM    H5G14580   1.944   5.308  -1.012 -1.1150 -1.1907 -1.9487
  134OSM    C6F14581   2.027   5.155  -1.131  0.0163 -0.0755 -0.0237
  134OSM    H6F14582   1.930   5.155  -1.186 -0.0447  1.7892  0.0152
  134OSM    H6G14583   2.057   5.053  -1.097  1.3316  0.8100  1.5871
  134OSM    C7F14584   2.135   5.216  -1.225 -0.6000 -0.4461 -0.2728
  134OSM    H7F14585   2.236   5.206  -1.180 -1.5818 -2.0617  1.7781
  134OSM    H7G14586   2.117   5.324  -1.239  3.1864  0.5137  1.0284
  134OSM    C8F14587   2.146   5.156  -1.365  0.4132  0.1832  0.0230
  134OSM    H8F14588   2.172   5.048  -1.357  0.2744  0.1292 -0.2573
  134OSM    H8G14589   2.240   5.199  -1.406  1.0591 -1.4773 -0.3208
  134OSM    C9F14590   2.030   5.176  -1.457  0.6390  0.1575  0.3045
  134OSM    H9F14591   2.001   5.282  -1.450 -0.7679 -0.2088  0.3441
  134OSM   C10F14592   1.960   5.087  -1.532 -0.0477 -0.4729  0.2773
  134OSM   H10F14593   1.878   5.131  -1.590 -0.4856  0.1329  1.3174
  134OSM   C11F14594   1.982   4.930  -1.537  0.4985 -0.8804 -0.1883
  134OSM   H11F14595   1.882   4.886  -1.519 -0.7219  2.4394  2.0314
  134OSM   H11G14596   2.044   4.897  -1.450 -0.1446 -0.4034  0.4624
  134OSM   C12F14597   2.043   4.874  -1.664  0.3587 -0.1177 -0.2468
  134OSM   H12F14598   1.986   4.924  -1.745  0.5411 -1.2757 -1.1188
  134OSM   H12G14599   2.013   4.768  -1.652  0.4288  0.1492  3.2039
  134OSM   C13F14600   2.195   4.891  -1.682  0.0857 -0.0362 -1.1832
  134OSM   H13F14601   2.248   4.869  -1.586 -1.1512 -0.4918 -0.5868
  134OSM   H13G14602   2.211   5.001  -1.689 -4.9011  1.0400  0.5274
  134OSM   C14F14603   2.245   4.816  -1.800  0.2343  0.5100  0.0903
  134OSM   H14F14604   2.191   4.847  -1.892  0.5603  1.2273  0.1318
  134OSM   H14G14605   2.203   4.715  -1.781 -1.3794  1.4743  2.1134
  134OSM   C15F14606   2.407   4.818  -1.813  0.6580 -0.6142 -0.0945
  134OSM   H15F14607   2.441   4.815  -1.708  1.6738  4.8425  0.0303
  134OSM   H15G14608   2.440   4.911  -1.864  1.1147  0.1760  1.5747
  134OSM   C16F14609   2.464   4.702  -1.893 -0.1922 -0.2398  0.1017
  134OSM   H16F14610   2.400   4.702  -1.984 -1.1124  2.3472  0.6429
  134OSM   H16G14611   2.445   4.605  -1.843 -2.7890 -0.3997 -1.0266
  134OSM   C17F14612   2.609   4.708  -1.933  0.1704  0.1996  0.3740
  134OSM   H17F14613   2.678   4.696  -1.847 -2.7715  0.6451  3.0049
  134OSM   H17G14614   2.627   4.811  -1.972  0.1597  1.2058  2.8389
  134OSM   C18F14615   2.632   4.605  -2.037  0.3774 -0.7349  0.7747
  134OSM   H18F14616   2.617   4.502  -1.999 -1.7322 -1.2576 -1.2211
  134OSM   H18G14617   2.730   4.619  -2.087  0.3972 -2.9596  0.0728
  134OSM   H18H14618   2.556   4.615  -2.117  2.0159 -0.8404 -0.8654
  135OSM      N14619   6.674   2.120   8.517  0.1063  0.1260  0.7149
  135OSM    C1514620   6.579   2.004   8.529 -0.3840  0.2190  0.0191
  135OSM   H15A14621   6.474   2.026   8.526 -0.9677 -2.3220 -1.0990
  135OSM   H15B14622   6.595   1.943   8.616 -2.7266 -1.5402 -0.6870
  135OSM   H15C14623   6.600   1.944   8.441  0.2486  1.4759 -0.7315
  135OSM    C1414624   6.629   2.202   8.399  0.7609  0.2302  0.4206
  135OSM   H14A14625   6.651   2.149   8.308  1.1261  0.3674  0.4280
  135OSM   H14B14626   6.689   2.291   8.390  2.8408 -0.9316  1.9942
  135OSM   H14C14627   6.524   2.227   8.408  1.4168  2.9917  1.3068
  135OSM    C1314628   6.678   2.203   8.638  0.3914  0.6790  0.2996
  135OSM   H13A14629   6.579   2.238   8.662 -0.0255  0.9534 -1.6503
  135OSM   H13B14630   6.732   2.295   8.623 -1.5600  1.9929  0.9148
  135OSM   H13C14631   6.727   2.157   8.723 -1.6247 -2.0598  0.0948
  135OSM    C1214632   6.810   2.065   8.475 -0.7260  0.1788 -0.9115
  135OSM   H12A14633   6.787   1.986   8.406 -1.3710  0.8471 -1.4809
  135OSM   H12B14634   6.842   2.015   8.566 -0.4613  0.7793 -0.6698
  135OSM    C1114635   6.904   2.169   8.410  0.4195  0.3189  0.0008
  135OSM   H11A14636   6.860   2.195   8.311 -2.4613 -1.4601  0.7022
  135OSM   H11B14637   7.006   2.128   8.394  0.4964  1.0988 -1.7235
  135OSM      P14638   6.977   2.415   8.420 -0.1217  0.0670 -0.2144
  135OSM    O1314639   6.873   2.480   8.335 -0.1423  0.2552  0.0132
  135OSM    O1414640   7.041   2.497   8.524 -0.3942  0.2582 -0.1232
  135OSM    O1114641   7.088   2.355   8.328  0.2944 -0.0715  0.2560
  135OSM    O1214642   6.920   2.288   8.490 -0.4622  0.1833 -0.5845
  135OSM    C1S14643   7.080   2.374   8.188  0.0551 -0.4451 -0.4244
  135OSM    H1S14644   7.107   2.476   8.153  0.6455 -0.7041 -0.7374
  135OSM    H1T14645   6.979   2.350   8.148  0.2664 -0.5628 -0.8954
  135OSM     NF14646   7.134   2.282   7.966  0.4836  0.3963  0.0497
  135OSM    HNF14647   7.066   2.218   7.932  0.4250  0.8190 -0.6613
  135OSM    C2S14648   7.169   2.276   8.107  0.1977  0.4237  0.6070
  135OSM    H2S14649   7.272   2.315   8.123  0.5020  0.1582 -0.6264
  135OSM    C3S14650   7.170   2.130   8.164  0.2825  0.0981 -0.2650
  135OSM    H3S14651   7.069   2.085   8.171  0.7344 -1.5228 -2.9344
  135OSM     O314652   7.227   2.112   8.295 -0.3130 -0.0482  0.0221
  135OSM    HO314653   7.257   2.200   8.321  1.2378 -0.3461 -0.6665
  135OSM    C4S14654   7.240   2.049   8.061 -0.2570 -0.2305  0.1108
  135OSM    H4S14655   7.171   1.984   8.005  0.0354  0.7578 -1.4395
  135OSM    C5S14656   7.370   2.030   8.045 -0.2409 -0.0318 -0.6251
  135OSM    H5S14657   7.442   2.073   8.116  0.4302 -2.1087  0.0346
  135OSM    C6S14658   7.443   1.949   7.949 -0.1057 -0.1865  0.7602
  135OSM    H6S14659   7.438   1.843   7.982 -1.9898 -1.3680 -2.7832
  135OSM    H6T14660   7.548   1.984   7.936 -0.2282  0.1008  0.5376
  135OSM    C7S14661   7.384   1.925   7.811 -0.5552 -0.4947  0.5599
  135OSM    H7S14662   7.291   1.871   7.840  0.9018 -2.2002  2.3649
  135OSM    H7T14663   7.449   1.867   7.742 -0.7679  2.5113 -2.3901
  135OSM    C8S14664   7.341   2.055   7.734  0.2290 -0.0370  0.7567
  135OSM    H8S14665   7.409   2.139   7.759  1.0534 -0.1166 -1.0804
  135OSM    H8T14666   7.237   2.086   7.759 -0.7849 -1.7007 -1.0622
  135OSM    C9S14667   7.363   2.038   7.577 -0.0109  0.0444 -0.0269
  135OSM    H9S14668   7.468   2.014   7.551 -0.0250  0.5627 -0.5752
  135OSM    H9T14669   7.353   2.140   7.533  0.5431  0.2728  0.3681
  135OSM   C10S14670   7.264   1.948   7.512  0.2010  0.4339  0.7906
  135OSM   H10S14671   7.158   1.977   7.527  0.0997  0.9359 -0.6848
  135OSM   H10T14672   7.287   1.842   7.537 -1.0408 -0.3331 -1.0864
  135OSM   C11S14673   7.286   1.962   7.360 -0.3159 -0.1517  0.3033
  135OSM   H11S14674   7.390   1.934   7.332 -0.7599 -1.5594 -0.0317
  135OSM   H11T14675   7.282   2.071   7.337  3.8763 -0.0904 -1.0236
  135OSM   C12S14676   7.183   1.893   7.261  0.1129  0.0006  0.4744
  135OSM   H12S14677   7.077   1.904   7.290 -0.6617 -1.9513 -1.3506
  135OSM   H12T14678   7.211   1.786   7.260  1.5757  0.3560  0.5028
  135OSM   C13S14679   7.200   1.941   7.119 -0.0347  0.1010 -0.1301
  135OSM   H13S14680   7.309   1.955   7.104  0.0776  0.7262  1.1429
  135OSM   H13T14681   7.162   2.045   7.115 -2.7268 -0.7055  1.7357
  135OSM   C14S14682   7.143   1.859   7.002 -0.3839 -0.8234 -1.1919
  135OSM   H14S14683   7.033   1.849   7.004 -0.5623  0.9759 -1.2190
  135OSM   H14T14684   7.187   1.757   7.011 -0.9365 -0.9138  1.4808
  135OSM   C15S14685   7.198   1.922   6.872 -0.1578  0.4447  0.3732
  135OSM   H15S14686   7.309   1.925   6.885  0.2016 -1.2486 -1.7308
  135OSM   H15T14687   7.160   2.024   6.890  0.5781  0.8619 -0.3220
  135OSM   C16S14688   7.147   1.847   6.747  0.2813  0.1793  0.4939
  135OSM   H16S14689   7.036   1.859   6.748 -0.1557 -1.4787 -3.7889
  135OSM   H16T14690   7.172   1.743   6.776  3.3273  0.8684  0.6620
  135OSM   C17S14691   7.208   1.892   6.613 -0.3757  0.2765  0.0972
  135OSM   H17S14692   7.316   1.867   6.626 -0.7405 -1.4914  0.0389
  135OSM   H17T14693   7.191   2.001   6.603 -2.2066 -0.0540 -0.8594
  135OSM   C18S14694   7.146   1.815   6.492 -0.2511  0.1202  0.2318
  135OSM   H18S14695   7.035   1.825   6.494 -0.5635 -2.5470  0.5447
  135OSM   H18T14696   7.155   1.704   6.498 -1.1319 -0.2817 -3.3430
  135OSM   H18U14697   7.204   1.841   6.401 -1.3374  1.2177 -0.1834
  135OSM    C1F14698   7.160   2.382   7.880  0.1693  0.4656  0.3444
  135OSM     OF14699   7.231   2.477   7.914  0.3137  0.0093  0.3942
  135OSM    C2F14700   7.094   2.382   7.738  0.3616  1.0992  0.2039
  135OSM    H2F14701   7.016   2.461   7.730  0.6181  1.3070 -0.3801
  135OSM    H2G14702   7.043   2.284   7.730 -0.4584  1.4290  1.2155
  135OSM    C3F14703   7.210   2.402   7.638  0.6297 -0.7105  0.5870
  135OSM    H3F14704   7.299   2.338   7.660  0.3190 -0.8736  1.3854
  135OSM    H3G14705   7.243   2.507   7.653  0.2656 -0.6899  1.3026
  135OSM    C4F14706   7.184   2.377   7.494 -0.3123  0.7754  0.7111
  135OSM    H4F14707   7.169   2.269   7.474  0.9508  0.3067  2.0724
  135OSM    H4G14708   7.094   2.431   7.459 -0.0218  0.9537  0.2274
  135OSM    C5F14709   7.313   2.416   7.412 -0.2476  0.3039  0.5920
  135OSM    H5F14710   7.402   2.379   7.467  0.0856 -0.7965 -0.6478
  135OSM    H5G14711   7.326   2.526   7.406 -0.5437  0.2721 -2.2234
  135OSM    C6F14712   7.331   2.344   7.272 -0.1260 -0.6234  0.1005
  135OSM    H6F14713   7.333   2.234   7.286  1.0033 -0.8323 -1.3937
  135OSM    H6G14714   7.437   2.362   7.243 -0.0578 -1.0964  0.0526
  135OSM    C7F14715   7.224   2.379   7.169  0.0504  0.5108 -0.2654
  135OSM    H7F14716   7.210   2.489   7.158 -2.5830  0.1727 -0.8515
  135OSM    H7G14717   7.141   2.321   7.214  0.7110 -0.2892 -0.0484
  135OSM    C8F14718   7.270   2.323   7.027  0.1695 -0.8335 -0.4856
  135OSM    H8F14719   7.302   2.218   7.039  0.3350 -0.6071  1.3466
  135OSM    H8G14720   7.364   2.375   7.000 -0.4935 -0.2238 -1.7075
  135OSM    C9F14721   7.158   2.339   6.927 -0.6047 -0.1494  0.9760
  135OSM    H9F14722   7.057   2.314   6.963 -1.1669 -0.7753 -0.8856
  135OSM   C10F14723   7.162   2.373   6.795  0.3266 -0.9718  0.4658
  135OSM   H10F14724   7.071   2.374   6.732  1.9740 -1.7595 -2.0894
  135OSM   C11F14725   7.292   2.406   6.722 -0.1754 -0.2421  0.2173
  135OSM   H11F14726   7.361   2.318   6.728 -0.9745 -1.0700 -1.8183
  135OSM   H11G14727   7.352   2.489   6.763  2.1873 -1.1057 -1.2633
  135OSM   C12F14728   7.265   2.433   6.573  0.0935 -0.6630  0.3792
  135OSM   H12F14729   7.359   2.469   6.526  1.0842 -2.5710  0.7851
  135OSM   H12G14730   7.191   2.516   6.573  1.8328  0.9416  0.0461
  135OSM   C13F14731   7.203   2.318   6.496  0.2252 -0.1109 -0.4424
  135OSM   H13F14732   7.098   2.313   6.531 -0.5648  1.7240 -2.3342
  135OSM   H13G14733   7.253   2.224   6.527 -1.5151 -1.2148 -0.8880
  135OSM   C14F14734   7.179   2.332   6.345  0.5362  0.2586  0.0772
  135OSM   H14F14735   7.275   2.346   6.291  0.0120 -1.2565 -1.3490
  135OSM   H14G14736   7.120   2.423   6.319  0.9670  0.5456  0.1024
  135OSM   C15F14737   7.111   2.203   6.275 -0.1149 -0.3133 -0.5306
  135OSM   H15F14738   7.005   2.198   6.309 -0.4325  2.3499 -0.9361
  135OSM   H15G14739   7.172   2.118   6.311  1.0467  0.9937  0.6820
  135OSM   C16F14740   7.116   2.216   6.122 -0.5301  0.7606  0.3384
  135OSM   H16F14741   7.070   2.121   6.087 -0.6449  0.7208  0.5924
  135OSM   H16G14742   7.219   2.209   6.083 -0.7884  1.9769 -0.6384
  135OSM   C17F14743   7.033   2.326   6.061  0.0227  0.1965 -0.1026
  135OSM   H17F14744   7.075   2.422   6.095  2.2157 -1.0876  0.9943
  135OSM   H17G14745   6.926   2.322   6.093  0.2346  0.0535  0.5923
  135OSM   C18F14746   7.019   2.324   5.906 -0.1643  0.4525  0.5678
  135OSM   H18F14747   6.930   2.387   5.883 -0.8547  0.6090  3.3061
  135OSM   H18G14748   7.007   2.219   5.872 -2.3232  0.8214  0.0577
  135OSM   H18H14749   7.113   2.364   5.861  1.2886 -3.4212 -0.2550
  136OSM      N14750   3.557   3.996   8.440 -0.2595 -0.1457 -0.3902
  136OSM    C1514751   3.617   4.140   8.445  0.1127  0.7450  0.3109
  136OSM   H15A14752   3.543   4.215   8.420  0.0833  0.8317  0.6629
  136OSM   H15B14753   3.701   4.144   8.377  3.1718 -0.6761  3.7316
  136OSM   H15C14754   3.658   4.173   8.539  1.4587  3.4064 -1.0752
  136OSM    C1414755   3.663   3.898   8.489 -0.0732  0.0067  0.4008
  136OSM   H14A14756   3.743   3.893   8.417 -0.0605  0.4576  0.3761
  136OSM   H14B14757   3.616   3.804   8.510  0.0606 -0.3302 -0.7454
  136OSM   H14C14758   3.705   3.943   8.578 -0.2302  1.4238 -0.2173
  136OSM    C1314759   3.455   3.989   8.542  0.3942 -0.2966  0.8686
  136OSM   H13A14760   3.368   4.042   8.508  0.1631 -0.7615  0.7181
  136OSM   H13B14761   3.475   4.027   8.641 -0.1525  0.8697  0.5372
  136OSM   H13C14762   3.413   3.889   8.537  1.5224 -0.7346 -1.4661
  136OSM    C1214763   3.495   3.960   8.307 -0.1442 -0.1951 -0.2829
  136OSM   H12A14764   3.440   4.049   8.278 -0.0747  0.3698  1.2203
  136OSM   H12B14765   3.434   3.875   8.334  2.0526 -1.2299  1.7734
  136OSM    C1114766   3.597   3.909   8.199  0.1568 -0.1213  0.1800
  136OSM   H11A14767   3.535   3.908   8.107 -0.2900 -0.9380  0.4794
  136OSM   H11B14768   3.625   3.804   8.223 -0.9556 -0.4353  0.1586
  136OSM      P14769   3.705   4.134   8.104 -0.2607  0.1894 -0.1120
  136OSM    O1314770   3.569   4.183   8.068  0.0927 -0.6238 -0.0987
  136OSM    O1414771   3.788   4.243   8.168  0.7504  0.5371  0.2297
  136OSM    O1114772   3.784   4.090   7.975  0.5583 -0.2574 -0.3481
  136OSM    O1214773   3.707   4.005   8.193 -0.1414  0.3744  0.9037
  136OSM    C1S14774   3.922   4.049   7.982 -0.1552 -0.4122  0.5564
  136OSM    H1S14775   3.925   3.944   8.020  1.7881 -0.1513  1.2339
  136OSM    H1T14776   3.970   4.116   8.056  0.8979  0.3160 -0.7427
  136OSM     NF14777   4.106   3.999   7.812 -0.5377 -0.0011 -0.3177
  136OSM    HNF14778   4.188   4.056   7.824  0.2407 -0.9970 -0.7461
  136OSM    C2S14779   3.985   4.069   7.842  0.3332  0.3452  0.6006
  136OSM    H2S14780   3.919   4.029   7.762 -0.4580 -0.9927  1.8850
  136OSM    C3S14781   4.004   4.219   7.809 -0.9887 -0.2540  0.0166
  136OSM    H3S14782   4.085   4.259   7.873  0.4072 -2.4552 -0.2726
  136OSM     O314783   3.894   4.301   7.850  0.0355  0.6948 -0.1160
  136OSM    HO314784   3.838   4.233   7.887 -1.2030  2.2525  1.0269
  136OSM    C4S14785   4.047   4.249   7.664 -0.3564 -0.7163  0.0044
  136OSM    H4S14786   4.157   4.247   7.658 -0.2796 -2.1381  1.0853
  136OSM    C5S14787   3.966   4.284   7.564 -0.6394  0.7119 -1.1429
  136OSM    H5S14788   3.857   4.290   7.580 -0.3743  0.5450  0.9821
  136OSM    C6S14789   4.002   4.319   7.417 -0.6099  0.3815 -0.1365
  136OSM    H6S14790   4.099   4.266   7.407  0.4258  2.2043 -0.2830
  136OSM    H6T14791   4.033   4.424   7.395 -0.5730  0.5966  0.8879
  136OSM    C7S14792   3.903   4.273   7.304 -0.4087  0.2056 -0.2919
  136OSM    H7S14793   3.807   4.327   7.318  0.8383  2.5924 -0.4025
  136OSM    H7T14794   3.896   4.163   7.308  4.7612 -0.3442  1.3615
  136OSM    C8S14795   3.955   4.318   7.168  0.1827  0.9106 -0.5791
  136OSM    H8S14796   3.948   4.428   7.158  0.7844  0.9790 -0.3159
  136OSM    H8T14797   3.880   4.274   7.098  1.3230 -3.5441  0.6577
  136OSM    C9S14798   4.099   4.271   7.122  0.1424 -0.6363 -0.3831
  136OSM    H9S14799   4.124   4.165   7.145  0.0189 -1.1071 -2.2320
  136OSM    H9T14800   4.162   4.339   7.182 -1.9752  1.5865 -0.5353
  136OSM   C10S14801   4.116   4.311   6.968  1.1043 -0.1743 -0.4384
  136OSM   H10S14802   4.219   4.282   6.936  0.9502 -0.8232 -0.3632
  136OSM   H10T14803   4.103   4.421   6.956 -1.6738 -0.4077 -0.2977
  136OSM   C11S14804   4.011   4.243   6.873  0.6317  0.2935 -0.1857
  136OSM   H11S14805   3.908   4.280   6.889 -0.1550 -1.4354 -1.0681
  136OSM   H11T14806   4.009   4.133   6.887  0.0966  0.2645 -0.4663
  136OSM   C12S14807   4.032   4.260   6.728  0.4173 -0.2481  0.2098
  136OSM   H12S14808   4.140   4.245   6.708  0.5263  0.0863  0.5360
  136OSM   H12T14809   4.014   4.361   6.687 -2.1430 -1.7144 -2.7548
  136OSM   C13S14810   3.956   4.160   6.641  0.2726  0.3724 -0.1344
  136OSM   H13S14811   4.001   4.060   6.655  0.2736  0.5019  0.8809
  136OSM   H13T14812   3.958   4.193   6.535  2.6880  0.3648 -0.1493
  136OSM   C14S14813   3.804   4.162   6.659 -0.3055 -0.7987 -0.2463
  136OSM   H14S14814   3.771   4.264   6.631  2.5644  0.9597  2.1851
  136OSM   H14T14815   3.778   4.143   6.765  0.1623  1.7327  0.3908
  136OSM   C15S14816   3.735   4.065   6.564 -0.0541  0.0897  0.4944
  136OSM   H15S14817   3.637   4.037   6.606 -0.2074 -1.6206 -0.8877
  136OSM   H15T14818   3.783   3.965   6.551  1.0961  0.5808  0.7889
  136OSM   C16S14819   3.713   4.121   6.421 -0.3858 -0.1794 -0.3995
  136OSM   H16S14820   3.804   4.159   6.369 -0.3256 -0.1251 -0.2580
  136OSM   H16T14821   3.650   4.213   6.421  2.8845  2.2222 -0.1438
  136OSM   C17S14822   3.639   4.009   6.330 -0.7185 -0.3486  0.5454
  136OSM   H17S14823   3.694   3.913   6.326 -0.5586 -0.2232 -0.5239
  136OSM   H17T14824   3.639   4.050   6.227 -1.0960  0.8417  0.9921
  136OSM   C18S14825   3.499   3.973   6.373 -0.2367 -0.2443 -0.5478
  136OSM   H18S14826   3.457   3.885   6.319  0.1662 -1.7414  1.4532
  136OSM   H18T14827   3.428   4.055   6.351 -1.5196 -0.7562  1.3981
  136OSM   H18U14828   3.493   3.946   6.480  1.3371  0.5713 -0.2153
  136OSM    C1F14829   4.111   3.860   7.812  0.4890 -0.0357  0.3468
  136OSM     OF14830   4.006   3.791   7.794 -0.3322 -0.2923 -0.5678
  136OSM    C2F14831   4.249   3.795   7.804  0.0011  1.1385  0.0732
  136OSM    H2F14832   4.262   3.764   7.910  0.2120 -0.6959 -0.4499
  136OSM    H2G14833   4.330   3.871   7.798 -1.0898  2.5268  1.9324
  136OSM    C3F14834   4.254   3.679   7.702  0.1251 -0.8699  0.3830
  136OSM    H3F14835   4.173   3.606   7.724 -1.9220  1.0795 -0.3652
  136OSM    H3G14836   4.353   3.628   7.707  0.4888 -0.0616  1.8272
  136OSM    C4F14837   4.234   3.729   7.560  0.7366  0.2621  0.0702
  136OSM    H4F14838   4.152   3.804   7.557  0.0357 -0.4361  1.2097
  136OSM    H4G14839   4.188   3.655   7.491  1.1422 -0.5493  0.6567
  136OSM    C5F14840   4.355   3.797   7.496  0.3569  0.0371 -0.0914
  136OSM    H5F14841   4.411   3.715   7.446  0.2979  1.5554 -2.8016
  136OSM    H5G14842   4.430   3.837   7.567  1.7537  1.9396 -2.4912
  136OSM    C6F14843   4.325   3.902   7.382  1.0552  0.1486 -0.0075
  136OSM    H6F14844   4.425   3.948   7.363  0.1623  1.9206 -0.7001
  136OSM    H6G14845   4.256   3.981   7.418  0.6542  0.3270 -1.1398
  136OSM    C7F14846   4.262   3.842   7.258 -0.0448  0.2465 -0.3155
  136OSM    H7F14847   4.223   3.926   7.197  0.1131 -0.0787 -0.8671
  136OSM    H7G14848   4.173   3.776   7.273  0.4768 -0.3313  0.3148
  136OSM    C8F14849   4.369   3.769   7.172 -0.5354 -0.3285  0.2915
  136OSM    H8F14850   4.314   3.722   7.088 -0.3616  1.0580 -0.6343
  136OSM    H8G14851   4.413   3.687   7.233 -1.7087 -1.2888 -0.1141
  136OSM    C9F14852   4.483   3.862   7.123  0.9731  0.0268  0.5952
  136OSM    H9F14853   4.551   3.894   7.203  1.2543 -3.0487  1.7397
  136OSM   C10F14854   4.522   3.888   6.996  0.7644 -0.0760 -0.0814
  136OSM   H10F14855   4.605   3.959   6.980  1.9048 -1.1462  0.8565
  136OSM   C11F14856   4.443   3.846   6.875 -0.0289 -0.2059  0.2800
  136OSM   H11F14857   4.479   3.910   6.791  2.7928 -0.6896  1.0267
  136OSM   H11G14858   4.333   3.852   6.881 -0.0630  0.3746 -0.7203
  136OSM   C12F14859   4.489   3.701   6.836  0.2505  0.2458  0.0868
  136OSM   H12F14860   4.436   3.632   6.905 -1.5005  0.5383 -0.9197
  136OSM   H12G14861   4.600   3.696   6.844  0.2871  1.5329  0.7120
  136OSM   C13F14862   4.447   3.663   6.692 -0.1384 -0.4418  0.4821
  136OSM   H13F14863   4.490   3.729   6.614 -0.0002  0.8766  1.6427
  136OSM   H13G14864   4.337   3.675   6.695 -0.3385 -1.7615 -0.4820
  136OSM   C14F14865   4.487   3.517   6.657  1.0846 -0.8858 -0.7438
  136OSM   H14F14866   4.452   3.456   6.743 -0.6043 -1.0228 -1.4871
  136OSM   H14G14867   4.594   3.510   6.629  2.0466 -0.6039  2.4564
  136OSM   C15F14868   4.395   3.465   6.541  0.3368 -0.2452  0.0605
  136OSM   H15F14869   4.401   3.543   6.463 -0.8384  1.0942  1.2642
  136OSM   H15G14870   4.291   3.465   6.578  0.9147 -1.6001  1.8411
  136OSM   C16F14871   4.432   3.317   6.503 -0.2576  0.4141 -0.5093
  136OSM   H16F14872   4.461   3.267   6.597  1.0722  1.5570 -0.2816
  136OSM   H16G14873   4.521   3.311   6.437  0.0312 -0.8791 -0.0276
  136OSM   C17F14874   4.315   3.239   6.439 -0.2637  1.2841  0.8917
  136OSM   H17F14875   4.233   3.249   6.514 -2.0196  2.2164 -1.0405
  136OSM   H17G14876   4.353   3.135   6.434  1.1517  1.6024  3.4886
  136OSM   C18F14877   4.275   3.293   6.301  0.4148 -0.7101  0.1170
  136OSM   H18F14878   4.342   3.249   6.224  1.7642 -1.0099  1.4081
  136OSM   H18G14879   4.265   3.404   6.294  0.4540 -0.7674 -1.0453
  136OSM   H18H14880   4.171   3.260   6.282  1.0359 -2.1715 -0.8828
  137OSM      N14881   1.629   0.728   8.544  0.1723  0.1268  0.6342
  137OSM    C1514882   1.587   0.682   8.673 -0.4814  0.3438  0.2903
  137OSM   H15A14883   1.570   0.576   8.663  1.1148  0.0218  0.6785
  137OSM   H15B14884   1.496   0.730   8.704 -1.1700 -0.3537 -0.5775
  137OSM   H15C14885   1.660   0.677   8.753  1.8821 -2.4130 -1.8011
  137OSM    C1414886   1.650   0.875   8.556 -0.0622  0.0030  0.0691
  137OSM   H14A14887   1.708   0.917   8.475  1.6258 -0.0642  1.2088
  137OSM   H14B14888   1.703   0.888   8.649  2.4251  0.7582 -1.3648
  137OSM   H14C14889   1.558   0.930   8.570  0.3430  0.4786  0.9372
  137OSM    C1314890   1.757   0.670   8.515 -0.7691  0.6377 -0.1115
  137OSM   H13A14891   1.758   0.563   8.507  1.5736  0.6397 -0.6032
  137OSM   H13B14892   1.819   0.684   8.603 -0.8212  0.6031 -0.0692
  137OSM   H13C14893   1.803   0.715   8.428 -3.3558  1.1646 -1.3032
  137OSM    C1214894   1.534   0.700   8.430  0.2829  0.3824  1.1246
  137OSM   H12A14895   1.521   0.594   8.414 -0.6198  0.8769 -1.9682
  137OSM   H12B14896   1.577   0.737   8.338 -2.8380 -0.4510 -0.8117
  137OSM    C1114897   1.387   0.750   8.444  0.3907  1.0094 -0.8594
  137OSM   H11A14898   1.345   0.729   8.544  0.3226  2.6079 -0.5385
  137OSM   H11B14899   1.315   0.694   8.380  0.1334 -0.3202  0.5355
  137OSM      P14900   1.275   0.963   8.347  0.0007  0.0099 -0.2472
  137OSM    O1314901   1.152   0.965   8.431 -0.6725 -0.1677 -0.5762
  137OSM    O1414902   1.319   1.103   8.315  0.7900 -0.3104  0.2379
  137OSM    O1114903   1.268   0.879   8.213 -0.6105  0.2021 -0.6949
  137OSM    O1214904   1.392   0.893   8.424  0.2490  0.4336 -0.0026
  137OSM    C1S14905   1.376   0.873   8.119  0.7528 -0.9015  0.0004
  137OSM    H1S14906   1.475   0.843   8.160  0.6055 -1.3399  0.0336
  137OSM    H1T14907   1.381   0.976   8.078 -0.7870 -1.0537 -0.6178
  137OSM     NF14908   1.444   0.777   7.906  0.5216  0.0911 -0.3093
  137OSM    HNF14909   1.450   0.843   7.831 -0.5709  0.8037  0.2147
  137OSM    C2S14910   1.335   0.781   8.001  0.4991 -0.2711 -0.2639
  137OSM    H2S14911   1.327   0.680   8.049  2.9749 -0.3024  0.1910
  137OSM    C3S14912   1.198   0.823   7.943 -0.1147 -0.2653 -0.7500
  137OSM    H3S14913   1.209   0.930   7.915 -0.4106 -0.8627 -3.3897
  137OSM     O314914   1.088   0.820   8.035  0.0680  0.3011 -0.3446
  137OSM    HO314915   1.133   0.815   8.120  1.9482 -0.9704 -1.3385
  137OSM    C4S14916   1.164   0.744   7.815 -0.3069 -0.1801  0.0769
  137OSM    H4S14917   1.210   0.797   7.730 -0.5684  1.6141  1.0001
  137OSM    C5S14918   1.086   0.632   7.808 -0.4182  0.3968  0.3973
  137OSM    H5S14919   1.042   0.585   7.898 -0.6314 -2.1136 -0.9433
  137OSM    C6S14920   1.053   0.562   7.683 -0.0119  0.2982 -0.2006
  137OSM    H6S14921   0.943   0.572   7.693  0.1826  1.6489  0.8393
  137OSM    H6T14922   1.081   0.455   7.679  0.1026  0.3285 -0.2201
  137OSM    C7S14923   1.099   0.631   7.545 -0.2358  0.1382 -0.4683
  137OSM    H7S14924   1.209   0.643   7.555 -0.0977 -0.3423 -1.3987
  137OSM    H7T14925   1.047   0.729   7.537 -2.5360 -1.0437 -0.8278
  137OSM    C8S14926   1.059   0.537   7.430 -0.4103  0.0009  0.3993
  137OSM    H8S14927   0.948   0.534   7.422 -0.5889 -0.3294  2.3573
  137OSM    H8T14928   1.094   0.433   7.451 -1.1755 -0.2142  0.6384
  137OSM    C9S14929   1.113   0.591   7.295 -1.0007  0.4264 -0.3008
  137OSM    H9S14930   1.224   0.594   7.294 -0.8069 -0.8571  3.2604
  137OSM    H9T14931   1.092   0.700   7.294  1.7607  1.0470  1.1996
  137OSM   C10S14932   1.065   0.518   7.166 -0.8319 -0.2295 -0.1965
  137OSM   H10S14933   0.955   0.502   7.165 -0.8032 -0.4234 -0.3279
  137OSM   H10T14934   1.110   0.417   7.155 -1.0908 -0.1571 -2.5162
  137OSM   C11S14935   1.101   0.605   7.037  0.1454  0.3208 -0.1018
  137OSM   H11S14936   1.207   0.637   7.035 -0.3691  2.1127 -0.3293
  137OSM   H11T14937   1.034   0.693   7.050  0.2497  0.5364 -0.9620
  137OSM   C12S14938   1.068   0.524   6.911 -0.3600  0.4020  1.3731
  137OSM   H12S14939   0.967   0.479   6.925 -0.6115  0.3413 -0.4340
  137OSM   H12T14940   1.141   0.440   6.908  0.0304  0.7476 -1.3233
  137OSM   C13S14941   1.052   0.610   6.791  0.3240  1.0311  0.1373
  137OSM   H13S14942   1.142   0.672   6.776  0.7586  0.0953 -1.4524
  137OSM   H13T14943   0.956   0.664   6.804 -0.4213 -0.1887 -0.0514
  137OSM   C14S14944   1.012   0.527   6.659 -0.3488  0.5356  0.7501
  137OSM   H14S14945   0.931   0.454   6.683 -0.1087 -0.7954 -2.1570
  137OSM   H14T14946   1.109   0.476   6.640 -0.3512  1.0703 -0.7950
  137OSM   C15S14947   0.980   0.622   6.544 -0.4139 -0.1508  0.5438
  137OSM   H15S14948   1.053   0.705   6.552  0.9607 -1.3235  0.4096
  137OSM   H15T14949   0.872   0.648   6.541 -0.9693 -2.2650  0.9342
  137OSM   C16S14950   1.011   0.553   6.413 -0.1313 -0.7414  0.5840
  137OSM   H16S14951   1.116   0.516   6.406 -0.0373 -0.3208 -0.3081
  137OSM   H16T14952   1.009   0.622   6.326  1.9022 -2.2371 -0.7210
  137OSM   C17S14953   0.903   0.445   6.380 -0.2690 -0.5230  0.9418
  137OSM   H17S14954   0.812   0.490   6.333  0.1979 -0.2697  0.2531
  137OSM   H17T14955   0.862   0.387   6.465  0.1480  0.5739  1.9265
  137OSM   C18S14956   0.960   0.357   6.265  1.1249  0.7322 -0.0888
  137OSM   H18S14957   1.004   0.265   6.309  1.0445  0.4855 -0.5161
  137OSM   H18T14958   1.042   0.398   6.203  2.2895 -0.6487  0.4866
  137OSM   H18U14959   0.877   0.325   6.197 -0.5813  0.4942  2.0068
  137OSM    C1F14960   1.556   0.710   7.933  0.4116  0.1014  0.2855
  137OSM     OF14961   1.572   0.647   8.033  0.2767  0.2514 -0.1467
  137OSM    C2F14962   1.671   0.742   7.844  0.4367 -0.5610 -0.5648
  137OSM    H2F14963   1.761   0.744   7.909  0.2597  0.5479 -0.3423
  137OSM    H2G14964   1.670   0.843   7.798  4.3295  0.6850  1.6125
  137OSM    C3F14965   1.684   0.638   7.734 -0.3611 -0.2401 -0.1561
  137OSM    H3F14966   1.597   0.649   7.665 -1.4390 -0.4862  1.1126
  137OSM    H3G14967   1.693   0.535   7.774  1.5008 -0.9135 -2.0834
  137OSM    C4F14968   1.808   0.669   7.652 -0.4340  0.0814 -0.4070
  137OSM    H4F14969   1.893   0.646   7.720  0.0453 -3.6301 -1.9976
  137OSM    H4G14970   1.800   0.772   7.612 -0.9110  0.0110 -0.4989
  137OSM    C5F14971   1.811   0.578   7.532  0.1766  0.5729  0.7562
  137OSM    H5F14972   1.707   0.560   7.497  1.0630 -1.4664 -1.1093
  137OSM    H5G14973   1.858   0.482   7.563 -1.6574 -0.2739  1.0465
  137OSM    C6F14974   1.876   0.642   7.408 -0.3764 -0.4638  0.0660
  137OSM    H6F14975   1.982   0.665   7.432 -0.2964 -1.5535  0.8479
  137OSM    H6G14976   1.822   0.739   7.397 -1.8183 -0.7132  3.5584
  137OSM    C7F14977   1.852   0.562   7.283  0.3057 -0.1265 -0.1471
  137OSM    H7F14978   1.744   0.555   7.258  0.2458  0.7643 -0.1774
  137OSM    H7G14979   1.883   0.458   7.304 -0.8741 -0.7224 -1.2307
  137OSM    C8F14980   1.939   0.624   7.166  0.6109  0.0101  0.2625
  137OSM    H8F14981   2.044   0.627   7.201  0.3297  0.5344  1.0967
  137OSM    H8G14982   1.912   0.731   7.151 -0.6558 -0.2301  0.7287
  137OSM    C9F14983   1.932   0.551   7.036  0.5861  0.1674  0.0479
  137OSM    H9F14984   1.955   0.445   7.056  0.5368  0.4140  1.4968
  137OSM   C10F14985   1.915   0.605   6.908  1.1298 -0.3068  0.0721
  137OSM   H10F14986   1.900   0.532   6.827  0.6618  1.4752 -1.5219
  137OSM   C11F14987   1.897   0.746   6.868 -0.2817 -0.0556  0.4877
  137OSM   H11F14988   1.928   0.806   6.956  1.5515  0.4802 -0.4894
  137OSM   H11G14989   1.789   0.770   6.853 -0.1843  0.9595  1.3265
  137OSM   C12F14990   1.965   0.793   6.740 -0.5484  0.7416 -0.2714
  137OSM   H12F14991   2.059   0.734   6.734 -1.1727 -0.6907  2.3049
  137OSM   H12G14992   1.985   0.900   6.759  1.3480  0.8965 -2.6664
  137OSM   C13F14993   1.882   0.754   6.614  0.6810  0.0966 -0.0358
  137OSM   H13F14994   1.781   0.797   6.635 -0.4517 -2.0471 -0.8299
  137OSM   H13G14995   1.868   0.644   6.607 -0.0166  0.2903 -4.7398
  137OSM   C14F14996   1.932   0.805   6.480 -0.6993  1.2615  0.0745
  137OSM   H14F14997   2.032   0.757   6.474 -0.7105  1.3340 -0.6803
  137OSM   H14G14998   1.942   0.915   6.483 -1.2628  1.3048  1.9746
  137OSM   C15F14999   1.861   0.751   6.363 -0.1573  0.5210  0.4103
  137OSM   H15F15000   1.755   0.784   6.365 -0.4526 -0.1632 -1.6037
  137OSM   H15G15001   1.861   0.640   6.373 -1.3333  0.7120  4.2461
  137OSM   C16F15002   1.937   0.795   6.238  0.3549 -0.1184  0.1974
  137OSM   H16F15003   1.897   0.747   6.146 -0.2497  2.2901 -0.8911
  137OSM   H16G15004   2.045   0.769   6.246  0.7863  1.5123  0.1271
  137OSM   C17F15005   1.910   0.942   6.203  0.3137 -0.5774  1.1728
  137OSM   H17F15006   1.979   0.971   6.120  0.4672 -2.7927  0.4776
  137OSM   H17G15007   1.946   1.009   6.284  1.5788  1.0561 -0.6364
  137OSM   C18F15008   1.776   0.979   6.147 -0.6592  0.0502  0.2997
  137OSM   H18F15009   1.751   0.916   6.059  1.8190  0.0759 -0.5171
  137OSM   H18G15010   1.778   1.088   6.124 -1.5542  0.0102  0.0146
  137OSM   H18H15011   1.698   0.967   6.224 -0.1273  0.5185  0.9248
  138OSM      N15012   2.364   3.752   8.206 -0.3225  0.4522  0.1096
  138OSM    C1515013   2.212   3.746   8.220  0.0984 -0.0495 -0.7951
  138OSM   H15A15014   2.182   3.834   8.276  0.6909 -0.2793 -0.0976
  138OSM   H15B15015   2.180   3.663   8.282  2.0421 -0.1226  0.1923
  138OSM   H15C15016   2.161   3.737   8.126 -0.3023 -1.3161 -0.4788
  138OSM    C1415017   2.395   3.629   8.126 -0.2917  1.2427  0.4860
  138OSM   H14A15018   2.500   3.613   8.109 -0.8120 -3.6147  0.1928
  138OSM   H14B15019   2.338   3.623   8.034  0.9125 -1.2790 -0.1899
  138OSM   H14C15020   2.356   3.541   8.176 -0.0400  0.7117 -0.2241
  138OSM    C1315021   2.404   3.862   8.121  0.5302  0.3422  0.0325
  138OSM   H13A15022   2.504   3.853   8.082 -0.3710  1.3581 -2.7706
  138OSM   H13B15023   2.392   3.958   8.169  1.5232 -1.3416  4.0355
  138OSM   H13C15024   2.356   3.864   8.024 -0.3969  0.0737  0.4726
  138OSM    C1215025   2.409   3.757   8.342 -0.1640  0.2152 -0.2954
  138OSM   H12A15026   2.350   3.832   8.392 -1.0253 -0.7584  0.1984
  138OSM   H12B15027   2.514   3.780   8.345 -0.0080 -0.4026 -0.7479
  138OSM    C1115028   2.418   3.621   8.425 -0.1279  0.0926  0.4305
  138OSM   H11A15029   2.317   3.579   8.442  0.4562 -2.0917 -0.9521
  138OSM   H11B15030   2.460   3.645   8.524 -0.7897  0.4012  0.6373
  138OSM      P15031   2.645   3.525   8.367  0.1052 -0.3211  0.3881
  138OSM    O1315032   2.691   3.663   8.382 -0.3897 -0.5008  0.1054
  138OSM    O1415033   2.688   3.432   8.477  0.5732  0.0314  0.0464
  138OSM    O1115034   2.709   3.479   8.230 -0.0729  0.4945 -0.6303
  138OSM    O1215035   2.490   3.512   8.353 -0.4889 -0.4131 -0.0754
  138OSM    C1S15036   2.671   3.348   8.178 -0.0145 -0.7992 -0.7411
  138OSM    H1S15037   2.562   3.329   8.181 -0.4008  1.2888  0.6670
  138OSM    H1T15038   2.738   3.269   8.218  1.1476  0.4097 -0.1907
  138OSM     NF15039   2.662   3.258   7.940  0.1507  0.4003  0.0135
  138OSM    HNF15040   2.714   3.179   7.906 -1.1885 -0.7073  0.4582
  138OSM    C2S15041   2.720   3.353   8.029  0.1250 -0.2243  0.0597
  138OSM    H2S15042   2.668   3.448   8.001  0.2701  0.5892  2.3228
  138OSM    C3S15043   2.875   3.362   8.019 -0.3168  0.0206 -0.3444
  138OSM    H3S15044   2.911   3.261   8.046 -0.3197  0.2026  0.3681
  138OSM     O315045   2.940   3.457   8.100  0.1177 -0.3177 -0.4934
  138OSM    HO315046   2.870   3.477   8.163  0.4257 -0.6504 -0.0396
  138OSM    C4S15047   2.906   3.399   7.878  0.6679  0.7191 -0.6686
  138OSM    H4S15048   2.843   3.486   7.853 -2.3773 -0.4881  2.1882
  138OSM    C5S15049   2.983   3.346   7.787  0.6369  1.0311 -0.2173
  138OSM    H5S15050   3.047   3.263   7.819  1.9485  0.8350 -3.0208
  138OSM    C6S15051   3.017   3.404   7.653 -0.1508 -0.4335  0.7562
  138OSM    H6S15052   3.125   3.423   7.636 -0.6025  0.1892 -1.8914
  138OSM    H6T15053   2.956   3.494   7.631  0.4610 -0.0821  0.4713
  138OSM    C7S15054   2.979   3.303   7.547  0.6204 -0.1914  0.4057
  138OSM    H7S15055   2.869   3.288   7.554  0.6494 -0.5391  0.1258
  138OSM    H7T15056   3.026   3.204   7.565  0.7476 -0.3680 -0.8231
  138OSM    C8S15057   3.009   3.341   7.396  0.1593 -0.4230 -0.4140
  138OSM    H8S15058   3.117   3.354   7.372  0.1375 -0.1741 -0.3695
  138OSM    H8T15059   2.966   3.440   7.373 -0.9053 -0.6651  0.4670
  138OSM    C9S15060   2.950   3.244   7.291 -0.0063  0.0512 -0.3989
  138OSM    H9S15061   2.840   3.254   7.276  0.2439  3.0296 -0.7085
  138OSM    H9T15062   2.980   3.143   7.328  1.6213  0.1247 -1.4117
  138OSM   C10S15063   3.005   3.274   7.152 -0.1388 -0.7538 -0.4490
  138OSM   H10S15064   3.116   3.261   7.156 -0.2815 -2.1657 -0.5759
  138OSM   H10T15065   2.982   3.379   7.127 -4.4896 -0.9492  1.8111
  138OSM   C11S15066   2.942   3.182   7.047 -0.0373  0.1784 -0.1766
  138OSM   H11S15067   2.832   3.183   7.056  0.1067 -0.1029  1.9107
  138OSM   H11T15068   2.977   3.080   7.074 -1.8315 -0.0515  1.4193
  138OSM   C12S15069   2.991   3.219   6.907  0.4614 -0.5250 -0.9438
  138OSM   H12S15070   3.101   3.206   6.916  0.1968 -3.0352 -0.6245
  138OSM   H12T15071   2.961   3.325   6.893  0.7264 -0.0241  1.7285
  138OSM   C13S15072   2.957   3.123   6.793  0.0922 -0.2441 -0.0393
  138OSM   H13S15073   2.982   3.021   6.829  1.0249 -0.1184 -0.2996
  138OSM   H13T15074   3.020   3.122   6.701  1.5530 -2.0082  0.9219
  138OSM   C14S15075   2.811   3.117   6.751  0.0931 -0.1703  0.6624
  138OSM   H14S15076   2.759   3.209   6.787 -1.1468 -0.3723 -0.5152
  138OSM   H14T15077   2.757   3.031   6.796  1.6202 -0.4836  1.9540
  138OSM   C15S15078   2.797   3.088   6.594  0.4400 -0.6106 -0.1182
  138OSM   H15S15079   2.883   3.020   6.582  0.0425 -0.9520 -1.0930
  138OSM   H15T15080   2.815   3.181   6.535  0.9096 -0.2675  0.5516
  138OSM   C16S15081   2.663   3.023   6.555  0.4969  0.2341 -0.0555
  138OSM   H16S15082   2.583   3.082   6.604 -1.2394 -1.8250 -0.2495
  138OSM   H16T15083   2.663   2.922   6.601  2.2163  0.4236  0.4370
  138OSM   C17S15084   2.631   3.023   6.403  0.2587  0.6098  0.2523
  138OSM   H17S15085   2.695   2.945   6.356  0.4779 -0.1822  1.8239
  138OSM   H17T15086   2.658   3.125   6.366 -0.3770  0.4428 -0.7096
  138OSM   C18S15087   2.486   3.002   6.358 -0.4263  0.6553  0.1876
  138OSM   H18S15088   2.472   3.000   6.248 -0.8803 -3.9900  0.1570
  138OSM   H18T15089   2.417   3.079   6.400 -1.3641  0.4263 -0.8776
  138OSM   H18U15090   2.451   2.903   6.395  1.7848 -1.0399 -1.9745
  138OSM    C1F15091   2.532   3.245   7.928 -0.0899  0.5122  0.4260
  138OSM     OF15092   2.451   3.323   7.965  0.3164  0.5150  0.0139
  138OSM    C2F15093   2.484   3.139   7.845  1.0650 -0.0987 -0.1047
  138OSM    H2F15094   2.537   3.044   7.867  0.9157 -0.2025 -0.1876
  138OSM    H2G15095   2.493   3.157   7.735 -1.8347 -2.3473 -0.8297
  138OSM    C3F15096   2.339   3.095   7.876 -0.3958 -0.0207  0.2779
  138OSM    H3F15097   2.273   3.172   7.831 -1.2438 -1.4430 -1.0358
  138OSM    H3G15098   2.311   3.092   7.984 -2.2054 -0.8628 -0.1626
  138OSM    C4F15099   2.294   2.960   7.823 -0.8611 -0.2326 -0.2512
  138OSM    H4F15100   2.204   2.927   7.880 -0.0707 -0.0630  1.1464
  138OSM    H4G15101   2.374   2.884   7.836 -1.1557 -0.1999  2.4431
  138OSM    C5F15102   2.254   2.958   7.677  0.0954  0.5774  0.2411
  138OSM    H5F15103   2.350   2.976   7.623  0.7884  0.1248  1.3024
  138OSM    H5G15104   2.189   3.047   7.662  0.9521  1.2268  0.2910
  138OSM    C6F15105   2.182   2.829   7.630 -0.3842 -0.4722 -0.4868
  138OSM    H6F15106   2.094   2.832   7.697  0.6328  1.6629  0.8549
  138OSM    H6G15107   2.254   2.747   7.651 -1.3603 -1.3152 -0.3645
  138OSM    C7F15108   2.146   2.858   7.482 -0.4091  0.3286 -0.7344
  138OSM    H7F15109   2.247   2.887   7.447  0.0523  0.0942  0.3595
  138OSM    H7G15110   2.070   2.940   7.475 -1.8354 -0.5143  2.6301
  138OSM    C8F15111   2.080   2.745   7.399  0.3727 -0.6345  0.4979
  138OSM    H8F15112   1.989   2.714   7.454  1.5019 -2.4483  1.4942
  138OSM    H8G15113   2.149   2.658   7.411  1.1360 -0.3686 -1.6124
  138OSM    C9F15114   2.041   2.765   7.255 -0.3977 -0.5506 -0.0304
  138OSM    H9F15115   1.976   2.852   7.238 -0.5970 -0.6119  0.3925
  138OSM   C10F15116   2.093   2.708   7.147  0.8930  0.2489 -0.1012
  138OSM   H10F15117   2.053   2.735   7.048  1.4858  0.6198 -0.2418
  138OSM   C11F15118   2.190   2.591   7.148  0.8799  0.2390  0.0352
  138OSM   H11F15119   2.240   2.584   7.246  0.2726 -0.1285  0.3260
  138OSM   H11G15120   2.265   2.607   7.067  0.2701  3.7886  0.0389
  138OSM   C12F15121   2.113   2.447   7.128  0.8374 -0.0858 -0.2564
  138OSM   H12F15122   2.181   2.365   7.097 -1.4671 -1.7291 -1.2051
  138OSM   H12G15123   2.035   2.459   7.050 -0.7741 -1.0303  1.1280
  138OSM   C13F15124   2.046   2.406   7.259  0.7828 -0.2580 -0.1381
  138OSM   H13F15125   1.969   2.332   7.228  0.5455 -0.2507  0.4314
  138OSM   H13G15126   1.990   2.489   7.308  0.4496  0.2029 -1.2533
  138OSM   C14F15127   2.136   2.323   7.352  0.1245  0.4473 -0.6476
  138OSM   H14F15128   2.224   2.380   7.386  1.3753  0.1469 -3.1362
  138OSM   H14G15129   2.176   2.239   7.290 -3.4496 -0.7030 -1.6466
  138OSM   C15F15130   2.057   2.249   7.455  0.1837  0.2383 -1.2383
  138OSM   H15F15131   1.962   2.215   7.408 -0.1696 -3.9268  1.8178
  138OSM   H15G15132   2.034   2.321   7.537  0.8285 -1.1846  0.2539
  138OSM   C16F15133   2.128   2.128   7.526 -0.3404 -0.2197  0.0643
  138OSM   H16F15134   2.223   2.166   7.570 -1.0496 -0.0406  1.4911
  138OSM   H16G15135   2.144   2.052   7.447  1.6752  1.8394 -1.6553
  138OSM   C17F15136   2.031   2.066   7.625  0.0286 -0.6720  0.0052
  138OSM   H17F15137   1.953   2.008   7.572  0.5071 -3.4761  2.1560
  138OSM   H17G15138   1.978   2.143   7.686 -0.1828 -0.4506 -0.4543
  138OSM   C18F15139   2.109   1.968   7.716 -0.4176  0.5643 -0.0423
  138OSM   H18F15140   2.156   1.885   7.660 -1.7315 -0.0965 -0.2006
  138OSM   H18G15141   2.033   1.925   7.785 -0.9308 -0.0403 -0.9603
  138OSM   H18H15142   2.191   2.013   7.775 -1.4302 -0.4459  2.2447
  139OSM      N15143   1.809   4.363   8.470  1.1847  0.5193 -0.1274
  139OSM    C1515144   1.911   4.278   8.539 -1.0018 -0.9045 -0.3178
  139OSM   H15A15145   1.909   4.173   8.514  2.5268 -0.8153 -1.4979
  139OSM   H15B15146   1.894   4.290   8.645 -3.0418 -2.3700 -0.4058
  139OSM   H15C15147   2.009   4.314   8.513 -1.1571  1.4199  1.9303
  139OSM    C1415148   1.671   4.313   8.496  0.5344 -0.0440  0.6695
  139OSM   H14A15149   1.640   4.226   8.439  3.9447 -0.2712 -1.1502
  139OSM   H14B15150   1.592   4.381   8.470  0.1865 -0.4188  0.7354
  139OSM   H14C15151   1.654   4.296   8.601 -0.2403 -0.2972  0.5113
  139OSM    C1315152   1.818   4.503   8.515 -0.5240  1.3920  0.1642
  139OSM   H13A15153   1.745   4.570   8.471 -0.5108  0.3548 -1.5089
  139OSM   H13B15154   1.914   4.540   8.483 -0.4554 -0.8533 -2.6634
  139OSM   H13C15155   1.807   4.498   8.622  0.3568 -1.7520  0.1916
  139OSM    C1215156   1.836   4.357   8.321 -0.4314 -0.2269  0.3231
  139OSM   H12A15157   1.941   4.378   8.309 -0.1335  0.1126  2.9560
  139OSM   H12B15158   1.775   4.428   8.266  2.1276  0.9942 -1.1124
  139OSM    C1115159   1.820   4.213   8.252  0.6885  0.3742 -0.3248
  139OSM   H11A15160   1.835   4.221   8.142  0.1770  2.5271 -0.2746
  139OSM   H11B15161   1.711   4.190   8.262  1.0447 -1.1907  0.3441
  139OSM      P15162   2.049   4.100   8.279  0.2529 -0.0468  0.3477
  139OSM    O1315163   2.114   4.234   8.291  0.3988 -0.3878 -0.1382
  139OSM    O1415164   2.100   4.003   8.374 -0.2382 -0.1289 -0.2815
  139OSM    O1115165   2.065   4.042   8.129 -0.3825  0.1948 -0.1897
  139OSM    O1215166   1.891   4.110   8.314 -0.2704  0.1544  0.5257
  139OSM    C1S15167   1.961   3.962   8.070  0.3358 -0.3052 -0.1505
  139OSM    H1S15168   1.860   4.007   8.083  0.0356 -0.8820 -0.4863
  139OSM    H1T15169   1.963   3.862   8.117 -0.9850  0.3460  1.4081
  139OSM     NF15170   1.886   3.862   7.865 -0.6416 -0.7020 -0.3269
  139OSM    HNF15171   1.933   3.775   7.874 -0.3026 -0.6169 -1.1180
  139OSM    C2S15172   1.976   3.963   7.919  0.5436  1.0915  0.3169
  139OSM    H2S15173   1.942   4.060   7.878 -2.0723  0.3476  0.5427
  139OSM    C3S15174   2.125   3.942   7.868 -0.0780 -0.3303  1.2377
  139OSM    H3S15175   2.161   3.847   7.912  0.9481 -0.3721  0.3433
  139OSM     O315176   2.219   4.041   7.922  0.1532 -0.0078 -0.3572
  139OSM    HO315177   2.188   4.070   8.008  0.6908  1.5102 -0.6464
  139OSM    C4S15178   2.136   3.933   7.716 -0.0762 -0.5696 -0.1987
  139OSM    H4S15179   2.116   3.835   7.671 -1.3297  0.2715 -1.5948
  139OSM    C5S15180   2.165   4.039   7.639 -0.2768 -0.3007  0.6042
  139OSM    H5S15181   2.171   4.140   7.680  0.7682 -0.1940  0.2209
  139OSM    C6S15182   2.174   4.046   7.488  0.6191  0.5296  0.7127
  139OSM    H6S15183   2.268   4.098   7.458  1.0430 -1.1985 -1.1652
  139OSM    H6T15184   2.089   4.111   7.460 -0.4847 -0.5170  1.5768
  139OSM    C7S15185   2.145   3.916   7.412  0.0328 -0.3216  0.0805
  139OSM    H7S15186   2.051   3.873   7.452 -0.3854  0.2926 -0.2255
  139OSM    H7T15187   2.227   3.847   7.441 -0.9987 -0.7384  2.2121
  139OSM    C8S15188   2.147   3.949   7.259  0.5196  0.7903  0.6752
  139OSM    H8S15189   2.246   3.993   7.234  0.8574 -0.7609 -0.9459
  139OSM    H8T15190   2.068   4.022   7.232 -0.1563  0.1862  0.9623
  139OSM    C9S15191   2.132   3.823   7.175 -0.7195 -0.2210 -0.2589
  139OSM    H9S15192   2.082   3.852   7.080 -2.2973  1.7448  1.0745
  139OSM    H9T15193   2.072   3.742   7.224  0.0633 -1.1337 -0.7848
  139OSM   C10S15194   2.276   3.766   7.137  0.1937 -0.9684  0.2550
  139OSM   H10S15195   2.319   3.738   7.235 -0.6780  1.2317  1.3377
  139OSM   H10T15196   2.341   3.849   7.102  1.2056 -1.6214  0.5546
  139OSM   C11S15197   2.268   3.661   7.031 -0.4801 -0.3770  0.0634
  139OSM   H11S15198   2.200   3.676   6.945 -0.5696 -0.3698  0.1353
  139OSM   H11T15199   2.223   3.575   7.084 -0.4455 -0.8075 -0.6025
  139OSM   C12S15200   2.405   3.615   6.981  0.1142  0.6361  0.5763
  139OSM   H12S15201   2.404   3.511   6.942 -0.1616  1.7200 -2.5935
  139OSM   H12T15202   2.486   3.613   7.056  0.7608 -0.2501 -0.1302
  139OSM   C13S15203   2.457   3.698   6.867  0.5539 -0.4430  0.1489
  139OSM   H13S15204   2.486   3.797   6.907  0.3114 -0.4861  0.4410
  139OSM   H13T15205   2.375   3.705   6.792 -0.0597  2.2155  0.9648
  139OSM   C14S15206   2.558   3.628   6.774  0.1989 -0.4406 -0.3175
  139OSM   H14S15207   2.527   3.536   6.720 -1.0974  0.8121 -1.7917
  139OSM   H14T15208   2.647   3.602   6.835  1.7634  1.6291 -1.6124
  139OSM   C15S15209   2.605   3.716   6.656 -0.2115 -0.8373  0.5631
  139OSM   H15S15210   2.675   3.660   6.590  0.1209 -0.8592  0.9370
  139OSM   H15T15211   2.658   3.799   6.706 -0.3336 -1.3796  1.6088
  139OSM   C16S15212   2.497   3.788   6.571 -0.8189  0.0292 -1.0256
  139OSM   H16S15213   2.430   3.844   6.639 -2.8522 -1.5229 -1.6418
  139OSM   H16T15214   2.426   3.720   6.519 -3.4230  1.4078  0.5497
  139OSM   C17S15215   2.574   3.888   6.470 -0.4378 -0.1888  0.1041
  139OSM   H17S15216   2.637   3.829   6.400  0.3964  0.2363  0.4872
  139OSM   H17T15217   2.638   3.961   6.524 -0.6615 -0.2282  0.4197
  139OSM   C18S15218   2.483   3.965   6.371 -0.6288 -0.0911 -0.3673
  139OSM   H18S15219   2.556   4.029   6.317 -0.6035  0.3419  0.1752
  139OSM   H18T15220   2.417   4.040   6.421 -0.2496  0.0457 -0.0713
  139OSM   H18U15221   2.426   3.901   6.300 -0.7354  2.2356 -2.5437
  139OSM    C1F15222   1.756   3.877   7.857 -0.0258 -0.5106  0.6317
  139OSM     OF15223   1.708   3.993   7.861  0.3295  0.1115  0.2588
  139OSM    C2F15224   1.669   3.752   7.830 -0.2804 -0.5183  0.4304
  139OSM    H2F15225   1.603   3.736   7.918 -2.8782  0.4184 -1.2111
  139OSM    H2G15226   1.739   3.666   7.822 -0.5048 -0.5482 -2.4391
  139OSM    C3F15227   1.588   3.759   7.703 -0.5911  0.0318  0.3799
  139OSM    H3F15228   1.652   3.777   7.614 -1.6545  2.8325  0.0986
  139OSM    H3G15229   1.511   3.838   7.710 -1.5319 -0.8576  0.2562
  139OSM    C4F15230   1.521   3.625   7.683 -0.1459  0.4554 -1.1422
  139OSM    H4F15231   1.456   3.604   7.771 -0.3836 -1.1215 -1.6651
  139OSM    H4G15232   1.587   3.536   7.683 -1.9112 -1.0893  2.6741
  139OSM    C5F15233   1.439   3.613   7.553 -0.5826 -0.0735 -0.3895
  139OSM    H5F15234   1.512   3.619   7.470  1.2504  1.9860  1.2340
  139OSM    H5G15235   1.367   3.698   7.546 -0.7409 -0.2077 -0.4163
  139OSM    C6F15236   1.369   3.477   7.556  0.3355 -0.3361  0.2197
  139OSM    H6F15237   1.302   3.459   7.642  0.7644 -0.5922  0.5049
  139OSM    H6G15238   1.445   3.397   7.562  0.1417 -0.7989 -2.2815
  139OSM    C7F15239   1.295   3.444   7.423 -0.3069 -0.3433  0.5104
  139OSM    H7F15240   1.352   3.495   7.343 -1.7550  1.5807  0.6453
  139OSM    H7G15241   1.198   3.497   7.420 -0.3795 -0.5267 -0.6222
  139OSM    C8F15242   1.263   3.295   7.403 -0.7914 -0.7608  0.0938
  139OSM    H8F15243   1.351   3.226   7.400 -0.6536 -0.7359  2.2784
  139OSM    H8G15244   1.230   3.279   7.298 -1.0661 -2.0717  0.3576
  139OSM    C9F15245   1.174   3.247   7.514  0.3117  0.6743  0.0760
  139OSM    H9F15246   1.215   3.235   7.616 -2.2762 -2.3466  0.9344
  139OSM   C10F15247   1.042   3.212   7.498 -0.6103  0.3254 -0.3384
  139OSM   H10F15248   0.987   3.183   7.589 -1.1060  1.1010 -0.3749
  139OSM   C11F15249   0.960   3.223   7.370 -0.1458 -0.5186 -0.6665
  139OSM   H11F15250   1.019   3.279   7.294 -1.3143  0.5054 -0.8330
  139OSM   H11G15251   0.873   3.287   7.394  0.7279  0.7724 -0.8096
  139OSM   C12F15252   0.897   3.086   7.323  0.2526  0.3841 -0.2810
  139OSM   H12F15253   0.982   3.015   7.325 -0.2311 -0.2048 -0.4193
  139OSM   H12G15254   0.853   3.090   7.221 -1.7501  1.3192  0.5538
  139OSM   C13F15255   0.771   3.032   7.408 -0.5445  0.0985  0.0917
  139OSM   H13F15256   0.710   2.958   7.351 -1.4813  1.4021 -0.6644
  139OSM   H13G15257   0.702   3.118   7.423 -0.7155 -0.0842  0.3581
  139OSM   C14F15258   0.793   2.967   7.546 -0.5431  0.3324 -0.2291
  139OSM   H14F15259   0.858   3.032   7.609  0.6783 -1.0088 -0.0530
  139OSM   H14G15260   0.852   2.874   7.531  0.5428  0.7483  1.2649
  139OSM   C15F15261   0.663   2.937   7.614  0.6204  0.2715  0.2526
  139OSM   H15F15262   0.592   3.022   7.603  0.4808  0.4349  2.1776
  139OSM   H15G15263   0.679   2.924   7.723 -1.4913  2.2283  0.8744
  139OSM   C16F15264   0.597   2.809   7.562  0.0047  0.0628 -0.3338
  139OSM   H16F15265   0.608   2.800   7.452  1.9863 -0.5557 -0.1335
  139OSM   H16G15266   0.489   2.817   7.586 -0.2873 -0.4244 -1.4183
  139OSM   C17F15267   0.663   2.682   7.614  0.9989  0.2484  0.2588
  139OSM   H17F15268   0.772   2.666   7.605  0.6966 -1.0654 -1.8693
  139OSM   H17G15269   0.617   2.600   7.555  3.0148 -0.5030 -0.3382
  139OSM   C18F15270   0.628   2.659   7.763 -0.3750  0.2331  0.2593
  139OSM   H18F15271   0.520   2.682   7.776 -0.1180  1.2403  0.6995
  139OSM   H18G15272   0.687   2.719   7.835  0.3189  0.0641 -0.1584
  139OSM   H18H15273   0.643   2.554   7.796  2.4583  0.3799 -0.3342
  140OSM      N15274   5.203   1.325   8.149  0.5865 -0.0728 -1.0362
  140OSM    C1515275   5.301   1.441   8.172  0.4879 -0.1549  0.6766
  140OSM   H15A15276   5.263   1.508   8.247 -1.3043 -0.0064 -0.3105
  140OSM   H15B15277   5.326   1.493   8.080  1.1753 -2.1025 -0.3035
  140OSM   H15C15278   5.393   1.412   8.220 -0.1439  0.3439  2.2391
  140OSM    C1415279   5.167   1.273   8.281 -0.3812 -0.2568 -0.0304
  140OSM   H14A15280   5.106   1.186   8.265 -0.7529  0.0911 -0.5294
  140OSM   H14B15281   5.098   1.337   8.334 -0.8301 -0.8143  0.0709
  140OSM   H14C15282   5.257   1.256   8.340  0.2027 -0.9448 -1.0821
  140OSM    C1315283   5.078   1.374   8.082 -0.2578 -0.2445 -0.7880
  140OSM   H13A15284   4.991   1.316   8.110  0.2703 -0.9768 -0.6558
  140OSM   H13B15285   5.090   1.372   7.975 -0.4713  1.5085 -0.8809
  140OSM   H13C15286   5.057   1.476   8.112  0.0734 -0.0715 -1.1406
  140OSM    C1215287   5.269   1.221   8.060  0.0392  0.6136  0.3558
  140OSM   H12A15288   5.348   1.173   8.116  1.0365  1.2389 -0.4939
  140OSM   H12B15289   5.321   1.275   7.983 -1.3956 -1.0955 -1.9131
  140OSM    C1115290   5.184   1.110   7.995  0.1078 -0.0774 -0.0750
  140OSM   H11A15291   5.248   1.052   7.925  1.3974 -0.1097  1.0679
  140OSM   H11B15292   5.102   1.152   7.934 -1.2793 -0.1392  1.6780
  140OSM      P15293   5.212   0.929   8.183  0.2959  0.1209  0.4497
  140OSM    O1315294   5.358   0.955   8.163  0.0074  0.1759  0.8275
  140OSM    O1415295   5.159   0.929   8.322  1.2465  0.0520 -0.2543
  140OSM    O1115296   5.177   0.789   8.116  0.4512  0.3637 -0.5883
  140OSM    O1215297   5.130   1.022   8.088  0.6421 -0.0787 -1.1249
  140OSM    C1S15298   5.043   0.747   8.096  0.6315 -0.0839 -0.3518
  140OSM    H1S15299   4.962   0.808   8.140 -1.9636 -1.6721 -2.5812
  140OSM    H1T15300   5.024   0.646   8.137 -2.8468  0.5080 -0.2471
  140OSM     NF15301   4.884   0.678   7.918  0.4406  0.0092  0.4454
  140OSM    HNF15302   4.885   0.583   7.889 -1.8333  0.4754 -1.4853
  140OSM    C2S15303   5.014   0.740   7.939  0.8743  0.4974 -0.3578
  140OSM    H2S15304   5.015   0.848   7.914  1.0141  0.8086  0.9146
  140OSM    C3S15305   5.131   0.667   7.869 -0.4860  0.0571  0.0512
  140OSM    H3S15306   5.147   0.576   7.931 -2.6948 -0.6841 -0.3803
  140OSM     O315307   5.250   0.741   7.864 -0.0237 -0.3636 -0.0061
  140OSM    HO315308   5.234   0.788   7.946 -0.5165 -0.4006 -0.0825
  140OSM    C4S15309   5.094   0.637   7.726 -0.5727 -0.0729 -0.0836
  140OSM    H4S15310   5.090   0.532   7.691  0.6004  0.2522 -1.2995
  140OSM    C5S15311   5.050   0.728   7.637  0.1887  0.2333  0.3431
  140OSM    H5S15312   5.036   0.834   7.663 -0.4993 -0.3346  2.4790
  140OSM    C6S15313   5.001   0.683   7.498 -0.4375  0.3368 -0.1812
  140OSM    H6S15314   4.926   0.746   7.446 -0.9260 -0.3583 -0.3332
  140OSM    H6T15315   4.950   0.584   7.503  2.2261 -1.0880  2.2971
  140OSM    C7S15316   5.117   0.670   7.391  0.1184 -0.5293  0.0178
  140OSM    H7S15317   5.179   0.579   7.403 -1.2391 -1.6600 -1.2568
  140OSM    H7T15318   5.190   0.753   7.402 -0.1393  0.0093 -1.9548
  140OSM    C8S15319   5.058   0.681   7.250 -0.9084 -0.1199 -0.8774
  140OSM    H8S15320   5.015   0.783   7.237  0.6715  0.6258 -0.6134
  140OSM    H8T15321   4.976   0.607   7.240 -0.6341 -0.4338 -0.8263
  140OSM    C9S15322   5.155   0.647   7.143 -0.4016 -0.1368 -0.5160
  140OSM    H9S15323   5.201   0.550   7.173  1.4732  0.8206 -0.1461
  140OSM    H9T15324   5.233   0.725   7.131  0.0574 -0.4388  0.4304
  140OSM   C10S15325   5.089   0.638   7.003 -0.6880  0.0995 -0.4383
  140OSM   H10S15326   5.043   0.738   6.998 -0.6505  0.2383  1.4196
  140OSM   H10T15327   5.003   0.567   6.993 -0.2598 -0.3361 -1.1927
  140OSM   C11S15328   5.184   0.594   6.890 -0.0609 -0.4958 -0.3763
  140OSM   H11S15329   5.206   0.490   6.922 -0.7952 -0.5299  0.0400
  140OSM   H11T15330   5.279   0.648   6.908 -0.6321  0.4762 -0.1856
  140OSM   C12S15331   5.117   0.605   6.754 -0.5362  0.2114 -0.0092
  140OSM   H12S15332   5.105   0.712   6.728  1.0853  0.0527 -1.5979
  140OSM   H12T15333   5.023   0.546   6.762  0.3798 -1.0238  3.0349
  140OSM   C13S15334   5.209   0.540   6.647 -0.1304  0.3008  0.0577
  140OSM   H13S15335   5.200   0.429   6.657 -1.1018  0.2383 -1.2441
  140OSM   H13T15336   5.312   0.581   6.654  0.1645 -0.5020  0.5522
  140OSM   C14S15337   5.156   0.565   6.500  0.0537 -0.2541 -0.1969
  140OSM   H14S15338   5.196   0.664   6.471  0.0288 -1.1526 -3.7762
  140OSM   H14T15339   5.046   0.579   6.500  0.3925  3.1058 -1.0018
  140OSM   C15S15340   5.211   0.473   6.396 -0.3612 -0.2207 -0.4339
  140OSM   H15S15341   5.203   0.364   6.417 -2.0540  0.2115  1.4336
  140OSM   H15T15342   5.314   0.512   6.377 -0.7400  1.0830  0.1102
  140OSM   C16S15343   5.147   0.492   6.255 -0.7445 -0.0886  0.5852
  140OSM   H16S15344   5.037   0.505   6.266 -0.8972 -2.2990  2.3281
  140OSM   H16T15345   5.164   0.396   6.200 -1.0268 -0.5720  1.3305
  140OSM   C17S15346   5.210   0.608   6.167 -0.2825  0.1113  0.0357
  140OSM   H17S15347   5.318   0.595   6.143  0.3145 -0.3098  2.6069
  140OSM   H17T15348   5.200   0.692   6.239  0.6875 -1.1705  1.7694
  140OSM   C18S15349   5.142   0.652   6.038  0.4194 -0.5962 -0.2210
  140OSM   H18S15350   5.176   0.598   5.947  0.7445 -4.5782  2.0025
  140OSM   H18T15351   5.154   0.759   6.013 -1.0509 -0.7514 -1.7637
  140OSM   H18U15352   5.035   0.622   6.046  0.8150 -1.5850  2.5764
  140OSM    C1F15353   4.771   0.752   7.950 -1.3211  0.5066 -0.1122
  140OSM     OF15354   4.779   0.872   7.956  0.4000  0.1434  0.3320
  140OSM    C2F15355   4.647   0.672   7.954  0.6027  0.1550  0.0884
  140OSM    H2F15356   4.592   0.679   8.050  1.5853 -1.7796  0.8368
  140OSM    H2G15357   4.668   0.564   7.942 -1.3723 -0.1428 -1.3314
  140OSM    C3F15358   4.554   0.710   7.833 -0.2744 -0.5483  0.2260
  140OSM    H3F15359   4.529   0.818   7.835  0.5097 -0.3378 -0.6421
  140OSM    H3G15360   4.460   0.653   7.847 -0.3044 -0.2336  1.4103
  140OSM    C4F15361   4.610   0.670   7.696  0.5647  0.0458 -0.3833
  140OSM    H4F15362   4.644   0.565   7.691  2.3461  0.5847 -0.3407
  140OSM    H4G15363   4.700   0.729   7.668 -0.0203  0.3189 -1.7747
  140OSM    C5F15364   4.508   0.697   7.582  0.0798 -0.3500 -0.5779
  140OSM    H5F15365   4.481   0.805   7.575  1.1826 -0.0865 -0.9634
  140OSM    H5G15366   4.412   0.647   7.609  0.8823 -1.4947  0.2267
  140OSM    C6F15367   4.547   0.648   7.445  0.4424  0.6611 -0.0678
  140OSM    H6F15368   4.583   0.544   7.456 -0.0909  0.6353  1.7101
  140OSM    H6G15369   4.630   0.716   7.415 -0.2517  1.8974  0.7491
  140OSM    C7F15370   4.437   0.640   7.343 -0.2895  0.1623 -0.3955
  140OSM    H7F15371   4.356   0.710   7.371 -0.6025  0.0344 -0.9731
  140OSM    H7G15372   4.397   0.537   7.347 -2.4008  0.9372 -0.2102
  140OSM    C8F15373   4.486   0.677   7.202 -0.1718  0.6725  0.1074
  140OSM    H8F15374   4.554   0.765   7.209 -1.8894  1.9738  0.9708
  140OSM    H8G15375   4.403   0.713   7.138 -0.3148  0.8505  0.3902
  140OSM    C9F15376   4.572   0.570   7.129  0.2347 -0.6746  0.7436
  140OSM    H9F15377   4.541   0.468   7.157 -0.6102 -0.3445  1.0227
  140OSM   C10F15378   4.677   0.582   7.043  0.2667  0.7381 -0.0006
  140OSM   H10F15379   4.723   0.494   6.996 -3.0515 -0.8875 -0.5082
  140OSM   C11F15380   4.720   0.718   6.994 -0.5899 -0.4710  0.1861
  140OSM   H11F15381   4.817   0.711   6.939 -0.3326 -2.2148  0.7884
  140OSM   H11G15382   4.750   0.786   7.077  0.5171 -0.4576 -0.2074
  140OSM   C12F15383   4.613   0.792   6.913  0.2995 -0.2123  0.4238
  140OSM   H12F15384   4.652   0.885   6.866 -1.4763  0.4399  0.1700
  140OSM   H12G15385   4.526   0.828   6.971 -0.3229  1.1358 -1.2601
  140OSM   C13F15386   4.567   0.720   6.787 -0.6133 -0.3796 -0.3404
  140OSM   H13F15387   4.491   0.791   6.747 -1.4823 -1.9629 -1.6382
  140OSM   H13G15388   4.522   0.624   6.818  2.8472 -2.8419 -2.2296
  140OSM   C14F15389   4.692   0.695   6.685 -0.2173  0.3747  0.1952
  140OSM   H14F15390   4.744   0.601   6.712  0.1998  0.2068 -1.1290
  140OSM   H14G15391   4.763   0.779   6.700  0.0657  0.2971 -0.6624
  140OSM   C15F15392   4.657   0.677   6.534  0.9790  0.0705 -0.6545
  140OSM   H15F15393   4.585   0.759   6.514 -1.3346 -1.4814  0.7841
  140OSM   H15G15394   4.587   0.590   6.526 -0.9009  1.5438 -1.0015
  140OSM   C16F15395   4.766   0.691   6.433  0.7138 -0.3819  0.2274
  140OSM   H16F15396   4.719   0.674   6.334 -0.8710 -0.1255  0.9118
  140OSM   H16G15397   4.834   0.605   6.455 -1.9414 -2.3015  1.4549
  140OSM   C17F15398   4.833   0.836   6.435  0.0552  0.6937  0.2921
  140OSM   H17F15399   4.914   0.829   6.510  0.3436  0.3126 -0.0471
  140OSM   H17G15400   4.765   0.918   6.466  0.0597  1.1447 -0.8142
  140OSM   C18F15401   4.889   0.880   6.301 -0.3652 -0.0207  0.0812
  140OSM   H18F15402   4.931   0.983   6.299  0.0464 -0.1175  1.9024
  140OSM   H18G15403   4.810   0.870   6.223 -0.8283  2.3352  0.1797
  140OSM   H18H15404   4.969   0.811   6.265  0.1017  1.3392 -1.6151
  141OSM      N15405   4.131   3.388   8.488 -0.4046 -0.0872  0.5458
  141OSM    C1515406   4.055   3.401   8.613 -0.4436  0.3355 -0.5667
  141OSM   H15A15407   3.990   3.316   8.625  0.1756  0.2140  3.0522
  141OSM   H15B15408   3.986   3.484   8.622  0.2492  1.0859 -1.8736
  141OSM   H15C15409   4.117   3.409   8.701 -0.0646 -1.4936 -0.6271
  141OSM    C1415410   4.207   3.517   8.473  0.5673 -0.0693 -0.6787
  141OSM   H14A15411   4.271   3.519   8.387  2.5916  1.4340  0.7776
  141OSM   H14B15412   4.277   3.524   8.555  2.2827 -1.9131 -1.9072
  141OSM   H14C15413   4.144   3.605   8.464  2.4710  1.4772  0.3678
  141OSM    C1315414   4.225   3.277   8.507  0.1191 -0.3389 -0.4310
  141OSM   H13A15415   4.284   3.286   8.597 -1.0129  0.9644  0.2309
  141OSM   H13B15416   4.291   3.264   8.422  0.9127  0.4837  0.0448
  141OSM   H13C15417   4.165   3.187   8.515  0.9446 -0.8407  0.3017
  141OSM    C1215418   4.033   3.366   8.376 -0.1576  0.2280 -0.1092
  141OSM   H12A15419   3.937   3.412   8.390  0.2680  1.0846  0.0795
  141OSM   H12B15420   4.019   3.259   8.380  2.0574 -0.2562 -2.4605
  141OSM    C1115421   4.069   3.399   8.225 -0.5473  0.3935 -0.4995
  141OSM   H11A15422   4.076   3.508   8.204  1.3654  0.5831  0.8129
  141OSM   H11B15423   3.983   3.361   8.166 -1.3247  0.1425  0.7362
  141OSM      P15424   4.212   3.199   8.131  0.0644  1.0093  0.3958
  141OSM    O1315425   4.356   3.184   8.084  0.1516  0.5620 -1.4464
  141OSM    O1415426   4.161   3.102   8.227 -0.0868 -0.0648  0.2227
  141OSM    O1115427   4.120   3.198   8.007 -0.5154  0.2331 -0.5470
  141OSM    O1215428   4.186   3.343   8.190  0.4587 -0.0993 -0.0595
  141OSM    C1S15429   4.150   3.271   7.882  0.0582  0.4360 -0.8328
  141OSM    H1S15430   4.260   3.284   7.870 -0.0286  2.6205  0.3569
  141OSM    H1T15431   4.102   3.371   7.884 -0.0339  0.4879 -3.0263
  141OSM     NF15432   4.160   3.262   7.637 -0.7509 -0.3896 -0.9879
  141OSM    HNF15433   4.091   3.310   7.583 -1.2703  0.1829  0.1405
  141OSM    C2S15434   4.104   3.193   7.755  0.2020 -0.6580  0.4626
  141OSM    H2S15435   4.141   3.089   7.747  0.6220 -0.3966 -1.2749
  141OSM    C3S15436   3.948   3.177   7.768  0.1132  0.5162 -0.0721
  141OSM    H3S15437   3.899   3.277   7.771  0.0390  0.4571  1.7241
  141OSM     O315438   3.909   3.108   7.890  0.6686 -0.2855  0.1755
  141OSM    HO315439   3.985   3.127   7.945  0.4252 -2.2149  1.2717
  141OSM    C4S15440   3.883   3.099   7.651  0.3433  0.2118 -0.2878
  141OSM    H4S15441   3.795   3.151   7.611  0.4543  1.4890  1.0269
  141OSM    C5S15442   3.908   2.979   7.604 -0.1561  0.0218  0.3008
  141OSM    H5S15443   3.990   2.916   7.642 -0.8325 -0.7287  0.5512
  141OSM    C6S15444   3.842   2.922   7.487 -0.5844  0.8071 -0.1527
  141OSM    H6S15445   3.748   2.975   7.460 -0.1868  3.0300  2.3540
  141OSM    H6T15446   3.811   2.818   7.514  3.4289 -0.8594 -1.2383
  141OSM    C7S15447   3.937   2.910   7.367 -0.5263 -0.1427  0.5409
  141OSM    H7S15448   4.030   2.854   7.391  0.3217  1.8091  2.1506
  141OSM    H7T15449   3.993   3.005   7.353  0.3027 -0.8664 -1.4563
  141OSM    C8S15450   3.863   2.863   7.236  0.0217  0.2389 -0.1123
  141OSM    H8S15451   3.766   2.915   7.228 -0.5922 -0.8794 -0.1036
  141OSM    H8T15452   3.845   2.753   7.238  0.3035  0.2023  1.5341
  141OSM    C9S15453   3.937   2.900   7.113 -0.7341 -0.0259  0.7715
  141OSM    H9S15454   4.047   2.891   7.123 -0.7719 -0.6789  0.6484
  141OSM    H9T15455   3.910   3.005   7.093 -1.2594 -0.4304 -0.7451
  141OSM   C10S15456   3.896   2.826   6.986 -0.0397 -0.3766 -0.2984
  141OSM   H10S15457   3.785   2.819   6.983 -0.0855 -0.2137  0.6094
  141OSM   H10T15458   3.950   2.730   7.000  0.3785  0.0145  0.8982
  141OSM   C11S15459   3.942   2.881   6.849  0.1541 -0.2393 -0.7406
  141OSM   H11S15460   3.944   2.790   6.785  1.1251 -0.2582 -0.7050
  141OSM   H11T15461   4.051   2.899   6.864  0.0878  0.0065 -0.5528
  141OSM   C12S15462   3.872   2.999   6.789  0.0357 -0.0326 -0.6010
  141OSM   H12S15463   3.884   3.096   6.843 -2.7466  0.6408 -1.0205
  141OSM   H12T15464   3.766   2.968   6.778  0.3602 -1.2911 -0.3047
  141OSM   C13S15465   3.927   3.041   6.648  0.4529  0.1937  0.1446
  141OSM   H13S15466   3.891   2.960   6.582  0.2609  0.6061 -0.2614
  141OSM   H13T15467   4.038   3.048   6.651  0.4253  0.6428  0.1564
  141OSM   C14S15468   3.887   3.177   6.594  0.6791  0.0503 -0.1635
  141OSM   H14S15469   3.943   3.251   6.655  1.3677 -1.7646  1.5023
  141OSM   H14T15470   3.778   3.192   6.608  0.6712  0.1354 -0.3156
  141OSM   C15S15471   3.918   3.200   6.439 -0.2570  0.9839 -0.9364
  141OSM   H15S15472   3.870   3.113   6.389 -0.9318  0.5703  0.3809
  141OSM   H15T15473   4.029   3.202   6.435 -0.1374 -0.5829  0.4700
  141OSM   C16S15474   3.865   3.325   6.369  0.3767  0.6701  0.2595
  141OSM   H16S15475   3.866   3.313   6.259 -0.6827  0.4133  0.2616
  141OSM   H16T15476   3.941   3.404   6.388  0.6605  0.5707 -0.4458
  141OSM   C17S15477   3.730   3.382   6.413 -0.4224 -0.6752 -0.3462
  141OSM   H17S15478   3.727   3.490   6.386 -2.0536 -0.5622  0.1767
  141OSM   H17T15479   3.715   3.390   6.523  1.7994  1.3469 -0.1108
  141OSM   C18S15480   3.622   3.298   6.348 -0.0672  0.1184  0.0897
  141OSM   H18S15481   3.526   3.351   6.367 -0.5062  0.2522 -2.1842
  141OSM   H18T15482   3.608   3.208   6.410  2.4988 -0.8024 -0.5418
  141OSM   H18U15483   3.629   3.281   6.238  1.5919  2.7152 -0.3018
  141OSM    C1F15484   4.286   3.271   7.613 -0.0765  0.0051  0.3006
  141OSM     OF15485   4.376   3.220   7.674  0.4286 -0.0036 -0.2710
  141OSM    C2F15486   4.320   3.349   7.484 -0.2936 -0.7435 -0.5494
  141OSM    H2F15487   4.388   3.432   7.515 -0.2629 -0.9066 -0.1704
  141OSM    H2G15488   4.224   3.391   7.447 -1.0383 -2.1293 -0.2377
  141OSM    C3F15489   4.379   3.248   7.382 -0.2734 -0.0767  0.0028
  141OSM    H3F15490   4.462   3.190   7.428 -0.2618  2.3982  3.6008
  141OSM    H3G15491   4.420   3.307   7.297 -0.7027  0.0463 -0.1207
  141OSM    C4F15492   4.276   3.139   7.343  0.2410 -0.4991  0.0621
  141OSM    H4F15493   4.180   3.189   7.316  0.9841  0.7411 -0.3818
  141OSM    H4G15494   4.254   3.062   7.420  2.2368 -2.1972 -0.9683
  141OSM    C5F15495   4.331   3.070   7.223 -0.4564  0.4983  0.1077
  141OSM    H5F15496   4.373   3.153   7.161 -0.5529 -1.1587 -2.3010
  141OSM    H5G15497   4.252   3.006   7.180  1.5333 -0.4396 -2.4651
  141OSM    C6F15498   4.444   2.968   7.255 -0.0640  0.6257 -0.2280
  141OSM    H6F15499   4.407   2.884   7.317  0.7407 -0.6339 -1.4045
  141OSM    H6G15500   4.530   3.008   7.313 -0.9193  1.5292  0.4516
  141OSM    C7F15501   4.506   2.905   7.132  0.1171  0.6369 -0.1856
  141OSM    H7F15502   4.601   2.864   7.172  0.1030  0.4421 -0.3526
  141OSM    H7G15503   4.528   2.975   7.048 -1.5955  0.3550 -0.9110
  141OSM    C8F15504   4.431   2.783   7.086 -0.3458  0.4824 -0.0209
  141OSM    H8F15505   4.321   2.795   7.085 -0.4266 -0.2158  0.1449
  141OSM    H8G15506   4.447   2.711   7.168 -1.9466  0.0964 -0.0137
  141OSM    C9F15507   4.487   2.708   6.969 -0.6621  0.3198  0.0724
  141OSM    H9F15508   4.582   2.659   6.997 -1.2631 -0.2139  1.2987
  141OSM   C10F15509   4.449   2.690   6.840 -0.2406 -0.6284 -0.7527
  141OSM   H10F15510   4.502   2.615   6.779  1.6275  0.6884 -0.8128
  141OSM   C11F15511   4.327   2.750   6.786  0.7796  0.9741  0.4556
  141OSM   H11F15512   4.252   2.764   6.867  0.1462  0.0289  0.0552
  141OSM   H11G15513   4.295   2.671   6.715  2.7335  1.3086 -0.8758
  141OSM   C12F15514   4.346   2.879   6.708  0.9512 -0.1251 -0.1228
  141OSM   H12F15515   4.248   2.896   6.659  2.2634 -0.8015 -3.1845
  141OSM   H12G15516   4.414   2.859   6.623  0.1779 -0.6382 -0.6342
  141OSM   C13F15517   4.397   3.006   6.773  0.0588 -0.3900  0.6518
  141OSM   H13F15518   4.416   3.079   6.691  2.0896  0.1189  1.5339
  141OSM   H13G15519   4.496   2.985   6.818  0.1056 -0.8854  0.3232
  141OSM   C14F15520   4.296   3.078   6.860 -0.5336  0.0392 -0.3836
  141OSM   H14F15521   4.272   3.016   6.949  2.9059  1.0130  1.3924
  141OSM   H14G15522   4.207   3.088   6.795 -0.5682  0.2045 -0.3096
  141OSM   C15F15523   4.330   3.227   6.888 -0.1367 -0.1193  0.4535
  141OSM   H15F15524   4.347   3.290   6.798 -0.7942 -0.3358  0.1687
  141OSM   H15G15525   4.420   3.247   6.948 -1.6725  2.8062  2.0075
  141OSM   C16F15526   4.202   3.295   6.943  0.3196 -0.1296 -0.4449
  141OSM   H16F15527   4.163   3.235   7.028 -0.8415 -1.6658 -1.9850
  141OSM   H16G15528   4.117   3.292   6.871 -0.1171  2.0541 -0.0842
  141OSM   C17F15529   4.225   3.438   6.991  0.6214 -0.1829  0.4146
  141OSM   H17F15530   4.246   3.504   6.904  1.3428 -0.9880 -0.0328
  141OSM   H17G15531   4.313   3.441   7.059  0.2302 -1.8311  1.0255
  141OSM   C18F15532   4.100   3.493   7.057 -1.2732 -0.0389 -0.0699
  141OSM   H18F15533   4.026   3.507   6.975 -2.9357 -1.0522  1.1776
  141OSM   H18G15534   4.117   3.584   7.118  0.7271 -0.9762  0.8785
  141OSM   H18H15535   4.058   3.410   7.118  0.0567 -0.5529  0.1745
  142OSM      N15536   6.527   6.914   8.424  0.3862 -0.2455  0.7112
  142OSM    C1515537   6.647   6.866   8.498  0.8654  0.0293 -0.2064
  142OSM   H15A15538   6.622   6.802   8.581  1.3645  0.0054 -0.0730
  142OSM   H15B15539   6.700   6.954   8.531 -0.3540  0.7136  0.0094
  142OSM   H15C15540   6.718   6.817   8.433  1.0868  0.5188 -0.3386
  142OSM    C1415541   6.440   6.808   8.369  0.1745  0.0965  0.1561
  142OSM   H14A15542   6.487   6.746   8.294  0.7095  0.0373  0.5324
  142OSM   H14B15543   6.352   6.850   8.322 -0.3413 -2.0809 -0.9721
  142OSM   H14C15544   6.409   6.755   8.458  0.5914  0.5353  0.5690
  142OSM    C1315545   6.445   6.996   8.519 -0.1934  0.6362 -0.0989
  142OSM   H13A15546   6.505   7.074   8.563 -0.8437  0.3844  1.3213
  142OSM   H13B15547   6.412   6.940   8.606 -0.7263  2.0741  0.6657
  142OSM   H13C15548   6.347   7.019   8.480 -2.6879 -4.6976  1.9069
  142OSM    C1215549   6.573   7.021   8.327 -0.0678  0.1613  0.4531
  142OSM   H12A15550   6.630   7.097   8.377 -1.8317  1.7485  0.1638
  142OSM   H12B15551   6.485   7.073   8.292 -1.5813 -1.1558  2.1096
  142OSM    C1115552   6.667   6.987   8.210 -0.6385  0.2890  0.1452
  142OSM   H11A15553   6.692   7.075   8.146  0.5789  0.3781  0.7067
  142OSM   H11B15554   6.611   6.923   8.138  0.1076 -0.3016  0.0674
  142OSM      P15555   6.928   6.990   8.254  0.3291  0.3515  0.3110
  142OSM    O1315556   6.921   7.107   8.344  0.2163 -0.0268 -0.3235
  142OSM    O1415557   7.039   6.897   8.277  0.1409  0.3177  0.2171
  142OSM    O1115558   6.933   7.034   8.102 -0.0225 -0.0689  0.6640
  142OSM    O1215559   6.787   6.919   8.251 -0.1153 -0.0774 -0.0159
  142OSM    C1S15560   6.985   6.958   7.991  0.2117  0.1417 -0.4397
  142OSM    H1S15561   7.005   6.853   8.022 -2.8791 -0.2255  0.7353
  142OSM    H1T15562   7.081   7.009   7.969 -0.8566  3.1950  1.2895
  142OSM     NF15563   6.946   6.870   7.756  0.1719 -0.0864  0.5937
  142OSM    HNF15564   6.997   6.912   7.682  0.2692  1.3704  1.4561
  142OSM    C2S15565   6.897   6.966   7.860  0.2007  0.6918 -0.4662
  142OSM    H2S15566   6.793   6.934   7.881  0.2921 -1.3634 -2.5814
  142OSM    C3S15567   6.881   7.106   7.810  0.5750 -0.3495 -0.1636
  142OSM    H3S15568   6.982   7.149   7.797 -0.1601  0.7360 -3.2678
  142OSM     O315569   6.804   7.187   7.901  0.4622 -0.2390 -0.0484
  142OSM    HO315570   6.823   7.148   7.986  1.3474  0.5836  0.1398
  142OSM    C4S15571   6.808   7.118   7.678  0.0883  0.7465  0.1348
  142OSM    H4S15572   6.701   7.092   7.681  0.2434  0.0473 -0.1489
  142OSM    C5S15573   6.873   7.164   7.571  0.5119  0.2601  0.2892
  142OSM    H5S15574   6.981   7.182   7.576  0.5862  0.0732 -0.4713
  142OSM    C6S15575   6.814   7.184   7.433 -0.0963 -0.0796 -0.5927
  142OSM    H6S15576   6.830   7.288   7.396 -0.0714  1.4317  3.2414
  142OSM    H6T15577   6.705   7.161   7.433  0.2167 -1.6883  0.3391
  142OSM    C7S15578   6.878   7.071   7.342 -0.3858  0.1164 -0.7024
  142OSM    H7S15579   6.833   6.983   7.393  0.7962  0.7596  1.6036
  142OSM    H7T15580   6.987   7.068   7.362 -0.6135 -1.2145  0.5270
  142OSM    C8S15581   6.858   7.075   7.198  0.4302  0.3444  0.3985
  142OSM    H8S15582   6.888   6.976   7.158 -0.4099  0.6952 -1.1838
  142OSM    H8T15583   6.920   7.157   7.156 -1.3416  1.5322  0.0089
  142OSM    C9S15584   6.717   7.097   7.144 -0.4786  0.0866  0.1363
  142OSM    H9S15585   6.696   7.204   7.162 -0.3290  0.3896 -1.3314
  142OSM    H9T15586   6.638   7.039   7.195 -1.5198 -1.1435 -2.6621
  142OSM   C10S15587   6.712   7.060   6.993  0.6449  0.6205 -0.4884
  142OSM   H10S15588   6.616   7.104   6.959 -1.2407 -2.8522 -0.1279
  142OSM   H10T15589   6.698   6.950   6.990 -1.2228  0.8386 -0.7581
  142OSM   C11S15590   6.825   7.102   6.897 -0.4752 -0.8378  0.2773
  142OSM   H11S15591   6.927   7.084   6.937  0.0318 -0.0219 -0.6082
  142OSM   H11T15592   6.820   7.213   6.900 -1.2166 -0.8550 -0.0054
  142OSM   C12S15593   6.820   7.037   6.761  0.3450  0.6296  0.4114
  142OSM   H12S15594   6.722   7.062   6.715 -1.0575  1.8152  3.7481
  142OSM   H12T15595   6.810   6.926   6.762 -0.1705  0.6208 -1.4841
  142OSM   C13S15596   6.941   7.075   6.665  0.0015  0.3092 -0.1985
  142OSM   H13S15597   7.036   7.036   6.708 -0.5002  1.5702  2.2341
  142OSM   H13T15598   6.954   7.185   6.671 -0.0335  0.3342 -0.5730
  142OSM   C14S15599   6.933   7.026   6.518 -0.5251  0.6397  0.1762
  142OSM   H14S15600   6.881   6.928   6.515  0.6809 -0.0672  1.0829
  142OSM   H14T15601   7.033   6.997   6.479 -1.9856 -1.3085 -2.4668
  142OSM   C15S15602   6.869   7.120   6.419  0.1228 -0.1519  0.5693
  142OSM   H15S15603   6.763   7.122   6.453 -0.1377 -0.0001 -0.2313
  142OSM   H15T15604   6.870   7.103   6.309  0.7005 -0.7137  0.6591
  142OSM   C16S15605   6.913   7.268   6.426 -0.4989 -0.5916  0.3904
  142OSM   H16S15606   7.023   7.283   6.421 -0.5001 -1.0135 -1.7041
  142OSM   H16T15607   6.872   7.319   6.516 -1.0617 -0.7646  0.2343
  142OSM   C17S15608   6.875   7.360   6.300 -0.1224  0.8693 -0.7699
  142OSM   H17S15609   6.765   7.366   6.283  0.0699  0.2236 -2.3757
  142OSM   H17T15610   6.920   7.309   6.213 -0.3257 -1.7603  0.5885
  142OSM   C18S15611   6.927   7.501   6.322 -0.3167 -0.2570 -0.0783
  142OSM   H18S15612   6.888   7.579   6.253 -0.0874  0.2406  0.3504
  142OSM   H18T15613   7.036   7.508   6.300 -0.1900  1.5532  0.9426
  142OSM   H18U15614   6.917   7.541   6.425  1.4657 -0.7402  0.3090
  142OSM    C1F15615   6.959   6.741   7.758  0.0363 -0.1552  0.4137
  142OSM     OF15616   6.927   6.680   7.860 -0.4924 -0.0032 -0.2294
  142OSM    C2F15617   7.028   6.672   7.644  0.1905  0.0342 -0.0585
  142OSM    H2F15618   7.029   6.562   7.658  2.0012 -0.2128 -1.7089
  142OSM    H2G15619   7.135   6.701   7.649  0.6462 -1.5856  0.0282
  142OSM    C3F15620   6.957   6.703   7.505  0.3259 -0.5495  0.1436
  142OSM    H3F15621   6.947   6.814   7.496 -1.3039 -0.6526  0.4135
  142OSM    H3G15622   6.853   6.664   7.501  1.0326 -2.3722 -1.5817
  142OSM    C4F15623   7.031   6.643   7.385  0.5856 -0.3140 -0.4485
  142OSM    H4F15624   7.027   6.533   7.401 -1.7849 -0.1473  0.5126
  142OSM    H4G15625   7.132   6.690   7.391 -0.5531  2.1661  0.9020
  142OSM    C5F15626   6.978   6.696   7.257 -0.4556 -1.4145  0.2987
  142OSM    H5F15627   7.008   6.802   7.243 -1.3352 -1.5747 -5.1373
  142OSM    H5G15628   6.868   6.680   7.255 -0.4553 -1.3333 -1.3935
  142OSM    C6F15629   7.034   6.625   7.134 -0.7227 -0.2857  0.8868
  142OSM    H6F15630   7.019   6.519   7.163 -0.4974  0.0599  2.3275
  142OSM    H6G15631   7.141   6.646   7.114 -1.1402 -0.3352 -1.8453
  142OSM    C7F15632   6.974   6.673   6.999  0.2236 -0.8233  0.4620
  142OSM    H7F15633   6.979   6.784   6.994 -0.2246 -0.8128  0.1234
  142OSM    H7G15634   6.869   6.639   6.991 -0.3450  0.6142  1.5789
  142OSM    C8F15635   7.043   6.613   6.873  0.3837 -0.4603 -0.3612
  142OSM    H8F15636   7.016   6.505   6.870 -3.5883  0.3976 -0.4532
  142OSM    H8G15637   7.153   6.626   6.884  0.3291  2.0229 -2.0929
  142OSM    C9F15638   6.993   6.689   6.750 -0.1119 -0.2319  0.0362
  142OSM    H9F15639   6.964   6.790   6.783  2.6237  0.4382  0.6662
  142OSM   C10F15640   6.999   6.650   6.628 -0.2600  0.3077 -0.0474
  142OSM   H10F15641   6.956   6.721   6.555  0.4203 -0.4406 -1.1938
  142OSM   C11F15642   7.044   6.507   6.582 -0.6805  0.4057 -0.2453
  142OSM   H11F15643   6.974   6.479   6.501 -0.1313  2.6099 -1.5600
  142OSM   H11G15644   7.041   6.438   6.669 -1.6175 -0.1499 -0.7062
  142OSM   C12F15645   7.186   6.514   6.532  0.2757 -0.5833 -0.6138
  142OSM   H12F15646   7.245   6.550   6.619 -1.5727  0.0144  0.4394
  142OSM   H12G15647   7.199   6.584   6.446 -0.9396  1.9250  1.1209
  142OSM   C13F15648   7.251   6.378   6.494 -0.2026  0.4385 -1.0454
  142OSM   H13F15649   7.265   6.312   6.582  0.1292  1.9718  0.0931
  142OSM   H13G15650   7.347   6.392   6.440  0.3003 -2.5460 -1.0614
  142OSM   C14F15651   7.181   6.294   6.389  0.1440  0.4359 -0.1737
  142OSM   H14F15652   7.094   6.244   6.437  0.7004  0.6658  1.1134
  142OSM   H14G15653   7.248   6.214   6.352 -1.5594 -0.6137 -1.1742
  142OSM   C15F15654   7.132   6.362   6.263 -0.1928 -0.4443  0.2798
  142OSM   H15F15655   7.209   6.420   6.208 -0.6576  1.1313  1.1947
  142OSM   H15G15656   7.060   6.444   6.287 -0.5250  0.5817 -3.5537
  142OSM   C16F15657   7.057   6.275   6.153 -0.0101  0.2062 -0.6734
  142OSM   H16F15658   6.961   6.230   6.187 -0.2423  0.4598 -0.9912
  142OSM   H16G15659   7.125   6.191   6.127 -0.7243  0.0459 -2.1003
  142OSM   C17F15660   7.029   6.361   6.030 -0.0931  0.1219 -0.8336
  142OSM   H17F15661   7.053   6.302   5.939  1.6738  0.3416 -0.5414
  142OSM   H17G15662   7.109   6.438   6.025 -0.6075  0.8237  0.9262
  142OSM   C18F15663   6.889   6.427   6.038 -0.7456 -0.5949  0.1054
  142OSM   H18F15664   6.823   6.345   6.003  0.2127 -1.7051  0.7916
  142OSM   H18G15665   6.879   6.521   5.979  1.0428  0.2437  1.0499
  142OSM   H18H15666   6.861   6.442   6.144 -1.1705 -3.6278  0.5224
  143OSM      N15667   0.505   3.761   0.052  0.6184 -0.3459 -0.0296
  143OSM    C1515668   0.482   3.907   0.082 -0.2126  0.2167  0.5216
  143OSM   H15A15669   0.479   3.923   0.189 -1.1874 -2.0692  0.8769
  143OSM   H15B15670   0.382   3.924   0.045  0.4183 -0.6858 -1.7496
  143OSM   H15C15671   0.559   3.972   0.042  0.3372  1.3661  3.2115
  143OSM    C1415672   0.649   3.734   0.086 -0.3493  0.3582 -0.5229
  143OSM   H14A15673   0.667   3.628   0.076  2.1902  0.8567 -2.4759
  143OSM   H14B15674   0.670   3.757   0.190 -1.0951 -2.8925  0.4727
  143OSM   H14C15675   0.710   3.795   0.021  0.5051  0.0002 -0.0856
  143OSM    C1315676   0.428   3.680   0.150 -0.0867 -0.0401 -0.3512
  143OSM   H13A15677   0.320   3.679   0.138  0.1193  0.9618 -2.7189
  143OSM   H13B15678   0.455   3.705   0.251  0.0848 -0.0437 -0.3971
  143OSM   H13C15679   0.457   3.577   0.136  1.0042  0.2363 -0.1606
  143OSM    C1215680   0.476   3.725  -0.094  0.5035  0.5034 -0.5247
  143OSM   H12A15681   0.480   3.618  -0.105  0.6149 -0.3445  5.0380
  143OSM   H12B15682   0.561   3.769  -0.144  0.0198  2.5889  0.3737
  143OSM    C1115683   0.344   3.783  -0.147 -0.4535  0.0021  0.2796
  143OSM   H11A15684   0.341   3.763  -0.256 -2.2040  0.8965  0.1290
  143OSM   H11B15685   0.336   3.894  -0.144 -1.4323 -0.0014 -1.3715
  143OSM      P15686   0.165   3.597  -0.141 -0.2971 -0.2001  0.2154
  143OSM    O1315687   0.250   3.531  -0.246  0.4364 -0.6093 -0.3261
  143OSM    O1415688   0.116   3.512  -0.029 -0.7790 -0.3274 -0.6732
  143OSM    O1115689   0.034   3.666  -0.208 -0.0740 -0.5047 -0.1900
  143OSM    O1215690   0.236   3.723  -0.078 -0.0190  0.2597 -0.1358
  143OSM    C1S15691   0.037   3.771  -0.308  0.1190  0.0403 -0.1743
  143OSM    H1S15692   0.129   3.832  -0.301  1.0262 -1.4411  1.8693
  143OSM    H1T15693  -0.043   3.843  -0.283 -0.1413  0.5225 -2.2613
  143OSM     NF15694   0.037   3.825  -0.551  0.3382  0.0867 -1.4297
  143OSM    HNF15695  -0.040   3.848  -0.609  1.2529  0.4936 -2.5322
  143OSM    C2S15696   0.023   3.715  -0.454  0.1674  0.3163 -0.9092
  143OSM    H2S15697   0.105   3.642  -0.471  0.5352 -0.1890  2.3501
  143OSM    C3S15698  -0.115   3.643  -0.458 -0.0344 -0.3085 -0.8497
  143OSM    H3S15699  -0.192   3.714  -0.421 -0.8718 -1.5941 -0.0390
  143OSM     O315700  -0.128   3.531  -0.367 -0.2207 -0.1219  0.4309
  143OSM    HO315701  -0.076   3.561  -0.292 -0.3319  1.0700  0.0462
  143OSM    C4S15702  -0.153   3.623  -0.599 -0.1841  0.0508 -0.5412
  143OSM    H4S15703  -0.200   3.704  -0.656  0.1974 -0.5335 -1.7149
  143OSM    C5S15704  -0.138   3.509  -0.664  0.3537  0.4645 -0.0041
  143OSM    H5S15705  -0.079   3.429  -0.618  1.2746  0.8300 -0.5295
  143OSM    C6S15706  -0.170   3.477  -0.808 -0.3349  0.1978 -0.1538
  143OSM    H6S15707  -0.074   3.465  -0.863 -1.6440 -0.4570 -2.4077
  143OSM    H6T15708  -0.231   3.554  -0.860 -1.0411 -0.1192  0.1932
  143OSM    C7S15709  -0.237   3.344  -0.805  0.5967  0.1209  0.0004
  143OSM    H7S15710  -0.332   3.350  -0.748  0.4314 -0.2283 -0.2374
  143OSM    H7T15711  -0.180   3.268  -0.747  0.0795 -0.2072  0.0845
  143OSM    C8S15712  -0.273   3.302  -0.952 -0.0512 -0.0956 -0.1122
  143OSM    H8S15713  -0.293   3.397  -1.006  1.2463  0.6670  0.6734
  143OSM    H8T15714  -0.359   3.232  -0.948 -0.6136  0.5361 -0.7838
  143OSM    C9S15715  -0.151   3.243  -1.021 -0.0133 -0.4115  0.1642
  143OSM    H9S15716  -0.091   3.167  -0.966  3.2231 -0.2189 -2.8043
  143OSM    H9T15717  -0.075   3.322  -1.038 -1.0945  0.4692 -0.7126
  143OSM   C10S15718  -0.194   3.183  -1.158  0.3749 -0.1827 -0.0004
  143OSM   H10S15719  -0.279   3.247  -1.189  1.2279  1.5629  1.0786
  143OSM   H10T15720  -0.232   3.082  -1.134  0.2144 -0.0007  0.5320
  143OSM   C11S15721  -0.083   3.189  -1.260  0.8555 -0.7613 -0.2362
  143OSM   H11S15722   0.006   3.147  -1.208  0.9346 -1.1184 -0.6564
  143OSM   H11T15723  -0.055   3.293  -1.289  2.5331 -1.6600 -2.0524
  143OSM   C12S15724  -0.102   3.117  -1.395 -0.0857 -0.0617 -0.1287
  143OSM   H12S15725  -0.131   3.011  -1.377  1.9709 -0.5721  0.5273
  143OSM   H12T15726  -0.006   3.126  -1.452 -0.4875  0.7828 -0.6843
  143OSM   C13S15727  -0.220   3.177  -1.481  0.5452 -0.0293  0.1959
  143OSM   H13S15728  -0.206   3.286  -1.490 -0.0244 -0.0251 -0.8037
  143OSM   H13T15729  -0.322   3.175  -1.438 -1.4061  3.0190 -3.6930
  143OSM   C14S15730  -0.228   3.118  -1.623  0.2284  0.0044  0.2318
  143OSM   H14S15731  -0.329   3.130  -1.668 -0.1150  0.1337  1.0152
  143OSM   H14T15732  -0.203   3.010  -1.628  0.0063 -0.1036  1.2219
  143OSM   C15S15733  -0.131   3.185  -1.730 -0.3843  0.6306  0.2235
  143OSM   H15S15734  -0.025   3.160  -1.710 -0.0118 -0.9402 -3.0554
  143OSM   H15T15735  -0.148   3.294  -1.718 -0.9229  0.5994 -0.1974
  143OSM   C16S15736  -0.154   3.140  -1.878  0.1568 -0.4267 -0.6331
  143OSM   H16S15737  -0.250   3.173  -1.923  0.1729 -0.4976 -0.7190
  143OSM   H16T15738  -0.155   3.029  -1.871  2.5321 -0.5347 -1.2564
  143OSM   C17S15739  -0.030   3.173  -1.959 -0.0351 -0.3664  0.6047
  143OSM   H17S15740   0.061   3.133  -1.909 -0.0375 -2.0591 -0.6330
  143OSM   H17T15741  -0.009   3.282  -1.964 -2.1193  0.0401 -0.1155
  143OSM   C18S15742  -0.024   3.112  -2.102  0.0087 -0.3112 -0.7409
  143OSM   H18S15743  -0.101   3.152  -2.171 -0.9895 -1.7357 -0.4791
  143OSM   H18T15744  -0.052   3.006  -2.084  0.4307 -0.2866  0.1506
  143OSM   H18U15745   0.072   3.141  -2.151  0.8556  0.8483  1.4376
  143OSM    C1F15746   0.145   3.901  -0.567  0.2170 -0.2788 -0.6051
  143OSM     OF15747   0.254   3.873  -0.514  0.5420 -0.3317 -0.3500
  143OSM    C2F15748   0.133   4.010  -0.667  0.3442  0.4116 -0.0234
  143OSM    H2F15749   0.092   4.095  -0.609 -0.0285  0.3567 -0.1988
  143OSM    H2G15750   0.058   3.981  -0.744  2.0326  0.5541 -1.8108
  143OSM    C3F15751   0.263   4.048  -0.746  0.5577  0.0282  0.2477
  143OSM    H3F15752   0.339   4.081  -0.672  1.2954 -1.4712  0.2073
  143OSM    H3G15753   0.236   4.134  -0.811  0.5550  0.3883  0.7284
  143OSM    C4F15754   0.329   3.931  -0.826 -0.1797  0.5699 -0.0161
  143OSM    H4F15755   0.366   3.852  -0.756  0.8728  0.7468 -0.3522
  143OSM    H4G15756   0.423   3.966  -0.874 -0.3263 -1.7913 -2.2612
  143OSM    C5F15757   0.228   3.858  -0.917 -0.2174  0.0062  0.6637
  143OSM    H5F15758   0.174   3.939  -0.970  2.1428  1.7281  0.7735
  143OSM    H5G15759   0.152   3.800  -0.860 -0.4113 -0.5427 -0.1243
  143OSM    C6F15760   0.287   3.769  -1.021 -0.1501  0.3033  0.7140
  143OSM    H6F15761   0.363   3.705  -0.972 -0.7430  0.2999  1.6692
  143OSM    H6G15762   0.338   3.812  -1.110  1.2600 -0.9959  0.8557
  143OSM    C7F15763   0.203   3.642  -1.078  0.4319 -0.5904  0.2423
  143OSM    H7F15764   0.156   3.583  -0.996 -0.1174  1.4224  1.4558
  143OSM    H7G15765   0.269   3.579  -1.141 -0.9411 -0.2093 -1.6969
  143OSM    C8F15766   0.090   3.695  -1.170 -0.5516  0.1144  0.9895
  143OSM    H8F15767   0.134   3.751  -1.255 -1.9628 -2.8051 -1.8769
  143OSM    H8G15768   0.029   3.763  -1.107 -0.6467 -0.9816  2.1249
  143OSM    C9F15769   0.014   3.579  -1.232 -0.4004 -0.4215 -0.1848
  143OSM    H9F15770  -0.042   3.514  -1.163  0.0456 -0.5423  0.0647
  143OSM   C10F15771   0.005   3.546  -1.359  0.0380  0.4604  0.3549
  143OSM   H10F15772  -0.060   3.461  -1.384 -0.8118  1.4257 -0.8587
  143OSM   C11F15773   0.062   3.601  -1.490 -0.1302  0.4871 -0.1360
  143OSM   H11F15774   0.154   3.662  -1.474  0.8623 -0.1921 -2.6543
  143OSM   H11G15775  -0.006   3.682  -1.526  1.8488  1.9192 -0.8578
  143OSM   C12F15776   0.084   3.491  -1.586  0.1287  0.3799 -0.1001
  143OSM   H12F15777  -0.002   3.422  -1.599  1.0231 -0.4702 -1.7770
  143OSM   H12G15778   0.157   3.423  -1.537 -0.1364  0.3873  0.3072
  143OSM   C13F15779   0.141   3.554  -1.709 -0.1951 -0.2678  0.3868
  143OSM   H13F15780   0.225   3.622  -1.683  0.9531 -1.3580 -0.2892
  143OSM   H13G15781   0.055   3.610  -1.752 -1.3541 -1.6442  0.8275
  143OSM   C14F15782   0.197   3.452  -1.805  0.0335 -0.1645 -0.2494
  143OSM   H14F15783   0.134   3.361  -1.794 -0.4016  0.2060  0.3667
  143OSM   H14G15784   0.297   3.411  -1.778 -0.8758 -0.8406  2.4516
  143OSM   C15F15785   0.212   3.516  -1.942  0.4307  0.4928  0.0883
  143OSM   H15F15786   0.263   3.615  -1.936 -0.6613  1.3907 -3.5025
  143OSM   H15G15787   0.112   3.532  -1.987  0.1810  1.3523  0.9108
  143OSM   C16F15788   0.292   3.433  -2.045 -0.0526  0.4409  0.3389
  143OSM   H16F15789   0.219   3.361  -2.088 -1.9536  2.5422 -0.1176
  143OSM   H16G15790   0.380   3.374  -2.010  0.1776  1.2122  1.0925
  143OSM   C17F15791   0.350   3.523  -2.159  0.0245 -0.8455 -0.0754
  143OSM   H17F15792   0.423   3.599  -2.124  1.1684 -0.7896 -2.3926
  143OSM   H17G15793   0.265   3.584  -2.196 -0.3339 -1.5951 -0.5100
  143OSM   C18F15794   0.398   3.432  -2.266  0.5883  0.0366  0.5838
  143OSM   H18F15795   0.490   3.378  -2.235  2.0424  1.7842 -0.4773
  143OSM   H18G15796   0.430   3.491  -2.355  2.5703  0.7482  1.7081
  143OSM   H18H15797   0.314   3.366  -2.296 -0.1101  0.6561  1.1456
  144OSM      N15798   6.825   0.462   3.573  0.3896  0.7797 -0.3900
  144OSM    C1515799   6.869   0.568   3.670  0.4005 -0.2275 -0.3132
  144OSM   H15A15800   6.791   0.626   3.717  3.2053  3.5472  0.2337
  144OSM   H15B15801   6.935   0.637   3.620  0.8809 -0.0233  0.5806
  144OSM   H15C15802   6.924   0.522   3.751  2.2980  3.2691  0.6085
  144OSM    C1415803   6.736   0.523   3.469 -0.5006 -0.0116 -0.5608
  144OSM   H14A15804   6.782   0.610   3.425 -0.5304 -0.0660 -0.7011
  144OSM   H14B15805   6.634   0.543   3.498 -1.0325 -1.8209 -1.0312
  144OSM   H14C15806   6.718   0.439   3.403 -3.2214  1.3479 -1.6760
  144OSM    C1315807   6.963   0.410   3.509  0.1769 -0.4229 -0.1196
  144OSM   H13A15808   6.942   0.343   3.426  1.4609  0.7398 -1.4464
  144OSM   H13B15809   7.007   0.356   3.591 -1.3777  0.6938  1.5104
  144OSM   H13C15810   7.022   0.494   3.476  0.8429 -0.8260  0.0343
  144OSM    C1215811   6.746   0.352   3.643 -0.9378 -0.3602  0.6647
  144OSM   H12A15812   6.679   0.412   3.703  0.4882  1.7693  0.2297
  144OSM   H12B15813   6.807   0.302   3.716 -1.0998 -0.2710  0.8618
  144OSM    C1115814   6.675   0.250   3.560  0.2498  0.6692 -0.5657
  144OSM   H11A15815   6.748   0.185   3.507  1.2691  1.0660  0.3077
  144OSM   H11B15816   6.626   0.300   3.475 -2.7449  0.4202  0.8902
  144OSM      P15817   6.638   0.052   3.717  0.0501 -0.0562 -0.0037
  144OSM    O1315818   6.596  -0.073   3.653  0.3517 -0.3596 -0.6068
  144OSM    O1415819   6.783   0.073   3.721  0.2699 -0.7363  0.1358
  144OSM    O1115820   6.581   0.066   3.862 -0.0967 -0.1118 -0.1047
  144OSM    O1215821   6.577   0.170   3.632 -0.5879  0.1121  0.3109
  144OSM    C1S15822   6.611   0.190   3.923 -0.3349  0.2552  0.2620
  144OSM    H1S15823   6.542   0.269   3.886 -1.6896  0.0442  2.1896
  144OSM    H1T15824   6.716   0.224   3.911 -0.0476 -0.3765  0.8852
  144OSM     NF15825   6.672   0.284   4.143  0.0267 -0.3265  0.1839
  144OSM    HNF15826   6.745   0.244   4.198 -0.1888 -0.3161  0.4773
  144OSM    C2S15827   6.582   0.190   4.083  0.8312 -0.0977 -0.2273
  144OSM    H2S15828   6.473   0.211   4.096  0.3003 -2.9398  0.4646
  144OSM    C3S15829   6.600   0.044   4.141  0.3037  0.5547 -0.1424
  144OSM    H3S15830   6.693  -0.003   4.102 -0.8124 -1.0152 -1.0090
  144OSM     O315831   6.503  -0.053   4.101 -0.7368 -0.7433  0.2658
  144OSM    HO315832   6.486  -0.021   4.012 -0.1352  2.3225  1.1217
  144OSM    C4S15833   6.610   0.048   4.294 -0.4134 -0.8154  0.1320
  144OSM    H4S15834   6.709   0.072   4.336 -1.6889  2.0305  1.7750
  144OSM    C5S15835   6.522   0.043   4.389  0.1231 -0.0225 -0.4107
  144OSM    H5S15836   6.415   0.028   4.369  0.1002  0.2439 -0.5026
  144OSM    C6S15837   6.563   0.051   4.539 -0.5006  0.1289  0.2542
  144OSM    H6S15838   6.615  -0.039   4.578 -1.9134 -1.2141 -0.8289
  144OSM    H6T15839   6.475   0.061   4.606 -1.2512 -2.2772 -0.2869
  144OSM    C7S15840   6.648   0.172   4.581  0.4686  0.1222  0.1485
  144OSM    H7S15841   6.613   0.276   4.561 -0.2502 -0.3639 -1.2613
  144OSM    H7T15842   6.746   0.156   4.531  0.2859 -1.4456  0.2610
  144OSM    C8S15843   6.671   0.152   4.734 -1.2892 -0.3636  0.9238
  144OSM    H8S15844   6.717   0.053   4.752  1.5279  0.0841 -2.6050
  144OSM    H8T15845   6.574   0.156   4.787 -1.3694 -1.2028  0.8529
  144OSM    C9S15846   6.765   0.247   4.805 -0.7370 -0.4063  0.1832
  144OSM    H9S15847   6.772   0.350   4.766 -0.3965 -1.0060 -1.4148
  144OSM    H9T15848   6.867   0.204   4.795 -0.9962 -1.0807  0.3297
  144OSM   C10S15849   6.735   0.263   4.949 -0.0930 -0.1407 -0.4592
  144OSM   H10S15850   6.734   0.162   4.995  0.9446 -0.2968 -0.7679
  144OSM   H10T15851   6.640   0.320   4.951 -0.3511 -0.4630 -2.0655
  144OSM   C11S15852   6.841   0.338   5.032 -0.1445 -0.0931  0.7683
  144OSM   H11S15853   6.861   0.437   4.985 -0.8954  0.4454  1.5514
  144OSM   H11T15854   6.941   0.290   5.041 -0.8505 -1.6426  0.7107
  144OSM   C12S15855   6.786   0.374   5.172  0.4554 -0.1311 -0.2502
  144OSM   H12S15856   6.795   0.273   5.217 -0.9797  0.3207  1.1654
  144OSM   H12T15857   6.681   0.410   5.172  0.1908 -0.8946 -0.7377
  144OSM   C13S15858   6.881   0.466   5.258  0.3955  0.0054  0.0612
  144OSM   H13S15859   6.863   0.571   5.226 -0.8803 -0.1662  0.1622
  144OSM   H13T15860   6.988   0.441   5.241  0.7206  1.1306  0.3511
  144OSM   C14S15861   6.860   0.464   5.415 -0.2680  0.2448 -0.2745
  144OSM   H14S15862   6.845   0.359   5.447 -0.5812  0.9356  2.0215
  144OSM   H14T15863   6.773   0.528   5.442 -0.1265  0.4578 -0.3174
  144OSM   C15S15864   6.980   0.515   5.495 -0.1930 -0.0806 -0.2964
  144OSM   H15S15865   6.980   0.625   5.476 -0.9887 -0.2275 -1.2855
  144OSM   H15T15866   7.074   0.473   5.454  0.9201  1.1188  0.9498
  144OSM   C16S15867   6.975   0.477   5.647  0.1469  0.3150  0.7234
  144OSM   H16S15868   7.069   0.500   5.702  0.5743  0.0668  0.1174
  144OSM   H16T15869   6.954   0.368   5.650 -0.2184  0.3646  0.1086
  144OSM   C17S15870   6.866   0.557   5.722 -0.6165  0.4512  0.3345
  144OSM   H17S15871   6.765   0.539   5.681 -0.4000 -0.2637  0.1102
  144OSM   H17T15872   6.885   0.666   5.707 -3.9349  1.0823 -0.0152
  144OSM   C18S15873   6.879   0.520   5.872  0.4154 -0.2972  0.0149
  144OSM   H18S15874   6.886   0.409   5.877 -1.4139 -0.4356  0.3532
  144OSM   H18T15875   6.788   0.547   5.930  0.6534 -0.1943  0.3383
  144OSM   H18U15876   6.969   0.563   5.920  1.3396 -0.6404 -1.3427
  144OSM    C1F15877   6.649   0.418   4.135  0.5992  0.3608 -0.3460
  144OSM     OF15878   6.551   0.472   4.085 -0.4949  0.2526  0.2599
  144OSM    C2F15879   6.739   0.499   4.220 -0.5539 -0.8542  0.8514
  144OSM    H2F15880   6.746   0.594   4.163  1.7180 -1.8537 -0.6754
  144OSM    H2G15881   6.844   0.463   4.223  0.0962  0.7715 -0.7185
  144OSM    C3F15882   6.681   0.519   4.367 -0.4365  0.2377  0.6115
  144OSM    H3F15883   6.680   0.421   4.420  0.0708 -0.4674 -0.6407
  144OSM    H3G15884   6.581   0.564   4.356 -0.1004  0.8198 -0.0743
  144OSM    C4F15885   6.761   0.619   4.458 -0.0722  0.2039  0.2210
  144OSM    H4F15886   6.680   0.663   4.521  2.3882  0.6468  3.3341
  144OSM    H4G15887   6.799   0.707   4.400 -1.5007  0.0536 -0.9873
  144OSM    C5F15888   6.871   0.564   4.548 -0.1317  0.0468 -0.0883
  144OSM    H5F15889   6.959   0.546   4.481  0.5127 -1.9100  1.2018
  144OSM    H5G15890   6.841   0.463   4.583 -1.9933 -0.6528 -3.3347
  144OSM    C6F15891   6.919   0.657   4.658 -0.5984  0.0798 -0.1291
  144OSM    H6F15892   6.847   0.671   4.741  2.2236 -0.7508  2.6933
  144OSM    H6G15893   6.954   0.750   4.609 -0.8448 -0.6055 -1.6496
  144OSM    C7F15894   7.035   0.599   4.736  0.9680  0.1719  0.2437
  144OSM    H7F15895   7.114   0.569   4.664  0.6250 -1.7614  0.6179
  144OSM    H7G15896   6.996   0.505   4.780  1.0141 -0.0819 -0.2621
  144OSM    C8F15897   7.091   0.686   4.848 -0.1856 -0.0874  0.3518
  144OSM    H8F15898   7.013   0.723   4.918  0.6827  1.2204  0.6683
  144OSM    H8G15899   7.141   0.776   4.808 -1.2423 -1.1587 -3.8039
  144OSM    C9F15900   7.197   0.599   4.920 -0.5088  0.1751  0.5197
  144OSM    H9F15901   7.236   0.511   4.867 -0.5461 -0.0596  0.8819
  144OSM   C10F15902   7.227   0.606   5.047  0.2224  0.0664 -0.3276
  144OSM   H10F15903   7.276   0.522   5.099  1.1977  0.6068 -0.3638
  144OSM   C11F15904   7.174   0.706   5.146  0.1400  0.4762 -0.0228
  144OSM   H11F15905   7.078   0.656   5.171 -0.0055 -0.2845 -1.9413
  144OSM   H11G15906   7.149   0.803   5.096 -0.4405 -0.5813 -1.8970
  144OSM   C12F15907   7.245   0.724   5.285  0.7627  0.0951 -0.5177
  144OSM   H12F15908   7.281   0.627   5.327  0.1327  1.1893  2.8331
  144OSM   H12G15909   7.174   0.768   5.358 -0.0534 -1.3205 -0.4216
  144OSM   C13F15910   7.367   0.812   5.270  0.2637 -0.3920  0.0652
  144OSM   H13F15911   7.327   0.909   5.234  0.5382 -0.2043  0.2589
  144OSM   H13G15912   7.433   0.766   5.194  0.8449  1.9084 -0.9101
  144OSM   C14F15913   7.443   0.848   5.403  0.5550  0.6636 -0.2583
  144OSM   H14F15914   7.536   0.905   5.381  0.1070  2.4458  2.0030
  144OSM   H14G15915   7.457   0.749   5.451 -2.7055 -0.0372 -0.5230
  144OSM   C15F15916   7.363   0.931   5.506 -0.5453 -0.4110 -0.5150
  144OSM   H15F15917   7.258   0.898   5.516 -0.7487  0.7421  2.3491
  144OSM   H15G15918   7.369   1.040   5.484 -1.2520  0.1348  1.7519
  144OSM   C16F15919   7.422   0.918   5.649 -0.3850 -0.0512  0.6781
  144OSM   H16F15920   7.408   0.811   5.676  1.0358  0.0361  1.8735
  144OSM   H16G15921   7.363   0.977   5.722  0.0180 -0.3230  1.2297
  144OSM   C17F15922   7.571   0.964   5.656 -0.2853  0.4178  0.2770
  144OSM   H17F15923   7.562   1.068   5.620 -1.6520  1.3250  2.9475
  144OSM   H17G15924   7.629   0.896   5.589  0.2975  0.0198  1.1541
  144OSM   C18F15925   7.631   0.960   5.798  0.3102 -0.0371  0.0830
  144OSM   H18F15926   7.637   0.856   5.836 -0.1508 -0.5639 -1.2344
  144OSM   H18G15927   7.567   1.027   5.858  1.7224 -0.0540  1.6786
  144OSM   H18H15928   7.733   1.004   5.788  0.0075  0.7028  0.2120
  145OSM      N15929   6.290   6.028   8.439  0.2388 -0.2610  0.3781
  145OSM    C1515930   6.230   6.085   8.572 -0.4533 -0.0825 -0.5763
  145OSM   H15A15931   6.122   6.073   8.567 -1.1815  2.0274  4.5865
  145OSM   H15B15932   6.251   6.191   8.570  0.0826 -0.1858 -2.3439
  145OSM   H15C15933   6.270   6.033   8.658  0.5422  1.8526  0.1733
  145OSM    C1415934   6.258   5.890   8.430 -0.2619  0.3238 -1.1986
  145OSM   H14A15935   6.323   5.830   8.493 -0.1975  0.9296 -0.6803
  145OSM   H14B15936   6.270   5.858   8.328 -1.8769 -0.1086 -1.2700
  145OSM   H14C15937   6.156   5.869   8.459 -0.1253  1.5743  0.3357
  145OSM    C1315938   6.220   6.096   8.326 -0.1266 -0.0100 -0.2547
  145OSM   H13A15939   6.263   6.195   8.333  3.8336 -1.5003 -0.7245
  145OSM   H13B15940   6.115   6.096   8.350 -0.3174  0.2780 -1.0540
  145OSM   H13C15941   6.243   6.052   8.230  0.8263  0.8444 -0.4409
  145OSM    C1215942   6.434   6.077   8.437 -0.6399  0.2870 -0.3577
  145OSM   H12A15943   6.492   6.035   8.518 -2.4558 -0.4404  0.6213
  145OSM   H12B15944   6.434   6.184   8.453  0.6428  0.4627 -1.3624
  145OSM    C1115945   6.525   6.052   8.309 -0.2566  0.9877 -0.2848
  145OSM   H11A15946   6.625   6.096   8.334  0.0092  0.3942 -0.2925
  145OSM   H11B15947   6.482   6.103   8.220 -2.7712  2.2129  1.5169
  145OSM      P15948   6.618   5.812   8.374 -0.1036 -0.4480 -0.2817
  145OSM    O1315949   6.640   5.878   8.508 -1.0758  0.5893  0.3153
  145OSM    O1415950   6.559   5.679   8.358 -0.5869  0.2417 -0.2573
  145OSM    O1115951   6.760   5.821   8.294  0.4451 -0.9766  0.1769
  145OSM    O1215952   6.529   5.909   8.282  0.3703 -0.7808 -0.2039
  145OSM    C1S15953   6.762   5.774   8.153  0.7292 -0.6919  0.3460
  145OSM    H1S15954   6.691   5.690   8.141  0.7679 -0.5440 -1.1211
  145OSM    H1T15955   6.869   5.748   8.138  0.9023  0.9212 -1.7032
  145OSM     NF15956   6.723   5.805   7.914  0.2121 -0.8531 -0.4214
  145OSM    HNF15957   6.801   5.810   7.852 -0.3418 -0.6347 -1.1150
  145OSM    C2S15958   6.730   5.879   8.041  0.4826  0.0095  0.7885
  145OSM    H2S15959   6.634   5.930   8.064  1.6045  3.5378 -1.4922
  145OSM    C3S15960   6.843   5.986   8.037 -0.0331  0.2105  0.1284
  145OSM    H3S15961   6.933   5.941   7.990  0.3407  2.0374 -0.9924
  145OSM     O315962   6.901   6.017   8.164 -0.2698 -0.7240  0.3646
  145OSM    HO315963   6.861   5.958   8.229  0.9180 -0.5191  1.3169
  145OSM    C4S15964   6.809   6.105   7.952 -0.0911 -0.1907  0.3554
  145OSM    H4S15965   6.841   6.095   7.847 -1.0929  1.6196 -0.1708
  145OSM    C5S15966   6.732   6.210   7.987 -0.3343 -0.6286  0.0350
  145OSM    H5S15967   6.687   6.200   8.087  0.0159 -1.1713  0.1418
  145OSM    C6S15968   6.694   6.340   7.914  0.3988  0.2918  0.0851
  145OSM    H6S15969   6.728   6.424   7.978  5.2295  0.0566 -1.7514
  145OSM    H6T15970   6.584   6.351   7.901  0.1476 -1.9280 -0.0387
  145OSM    C7S15971   6.771   6.360   7.780  1.1931  0.3354  0.2710
  145OSM    H7S15972   6.880   6.343   7.795  1.5905 -0.4069 -2.8113
  145OSM    H7T15973   6.761   6.468   7.755 -0.2359  0.1217 -0.1644
  145OSM    C8S15974   6.706   6.278   7.660  0.6720 -0.6492 -0.4760
  145OSM    H8S15975   6.603   6.319   7.650  1.1081  0.8892  0.9047
  145OSM    H8T15976   6.712   6.175   7.701 -1.3076 -0.0795  1.4641
  145OSM    C9S15977   6.788   6.307   7.542 -0.4018  0.5001  1.3896
  145OSM    H9S15978   6.893   6.276   7.556 -0.8841 -1.7972  0.3832
  145OSM    H9T15979   6.776   6.417   7.526 -0.8129  0.0074 -2.9910
  145OSM   C10S15980   6.742   6.236   7.413  0.0733 -0.3959 -0.1287
  145OSM   H10S15981   6.634   6.260   7.397  0.1688  0.1575  0.0316
  145OSM   H10T15982   6.740   6.131   7.450 -4.4284 -0.9049 -1.1961
  145OSM   C11S15983   6.836   6.278   7.295  0.0440  0.0690 -0.0292
  145OSM   H11S15984   6.938   6.243   7.322  0.2225  0.7090  0.1520
  145OSM   H11T15985   6.835   6.389   7.290  0.5430  0.0300 -1.4072
  145OSM   C12S15986   6.805   6.215   7.159  0.2884 -0.1381 -0.1311
  145OSM   H12S15987   6.708   6.248   7.116 -0.0695 -3.9273 -2.6758
  145OSM   H12T15988   6.801   6.106   7.178 -0.5666 -0.4035 -1.6811
  145OSM   C13S15989   6.909   6.244   7.048  0.2658 -0.6604  0.4861
  145OSM   H13S15990   6.937   6.352   7.043 -1.5380 -0.1699  0.5412
  145OSM   H13T15991   6.860   6.246   6.948  1.3907  1.5513 -0.1083
  145OSM   C14S15992   7.034   6.159   7.054  0.3128  0.2435  0.0659
  145OSM   H14S15993   7.001   6.055   7.031 -0.6936  0.4850  0.3420
  145OSM   H14T15994   7.083   6.159   7.154  3.1096  2.0499 -1.2110
  145OSM   C15S15995   7.138   6.212   6.963 -0.0391  0.2106 -0.8019
  145OSM   H15S15996   7.238   6.182   7.001 -0.1202  1.3051  0.3286
  145OSM   H15T15997   7.138   6.323   6.970 -0.8474  0.2437 -1.1462
  145OSM   C16S15998   7.131   6.157   6.821 -0.2319  0.5770  0.0080
  145OSM   H16S15999   7.213   6.208   6.766 -0.2841  0.6340 -0.0177
  145OSM   H16T16000   7.041   6.178   6.760 -1.8140  0.3330  2.1444
  145OSM   C17S16001   7.177   6.013   6.793  0.9689 -0.2271 -0.1295
  145OSM   H17S16002   7.103   5.946   6.840  1.5864 -0.6807  0.2048
  145OSM   H17T16003   7.270   5.993   6.850  1.8744 -1.7810 -2.0328
  145OSM   C18S16004   7.183   5.987   6.637 -0.2295 -0.0831  0.3168
  145OSM   H18S16005   7.082   5.970   6.595  0.3405  1.2428 -1.7326
  145OSM   H18T16006   7.246   5.901   6.604 -0.3112 -0.0544  0.0828
  145OSM   H18U16007   7.227   6.074   6.585  0.8151  1.3090  3.2837
  145OSM    C1F16008   6.608   5.744   7.877  0.0001 -0.7562  0.4995
  145OSM     OF16009   6.517   5.740   7.957  0.0870 -0.1679 -0.2046
  145OSM    C2F16010   6.611   5.667   7.747  0.2930  0.2218  0.3484
  145OSM    H2F16011   6.656   5.566   7.756  0.0978 -0.0407 -1.3531
  145OSM    H2G16012   6.677   5.728   7.681 -0.0709  0.5429  0.2739
  145OSM    C3F16013   6.477   5.657   7.662 -0.4813  0.3624  0.2149
  145OSM    H3F16014   6.434   5.759   7.653 -3.0434 -0.5915  0.9466
  145OSM    H3G16015   6.410   5.586   7.713 -0.5747  0.9203  0.8877
  145OSM    C4F16016   6.495   5.607   7.520 -0.2806  0.6541  0.8045
  145OSM    H4F16017   6.559   5.687   7.477  0.0736 -0.0347  0.0435
  145OSM    H4G16018   6.404   5.604   7.457  0.3967 -1.3798 -0.1415
  145OSM    C5F16019   6.549   5.460   7.511 -0.0082  0.3481  0.1889
  145OSM    H5F16020   6.467   5.397   7.553  0.6160 -1.0420 -0.6255
  145OSM    H5G16021   6.638   5.433   7.572  0.1979 -1.7679 -0.9547
  145OSM    C6F16022   6.573   5.408   7.365  0.7816 -0.4402 -0.2795
  145OSM    H6F16023   6.533   5.479   7.289  2.0091 -1.3707 -1.8687
  145OSM    H6G16024   6.516   5.313   7.364  1.1747 -0.7047  0.9015
  145OSM    C7F16025   6.714   5.376   7.325 -0.2885  0.0670  0.1087
  145OSM    H7F16026   6.761   5.295   7.385  2.9452  2.1649  0.6902
  145OSM    H7G16027   6.778   5.467   7.328  1.3730 -1.0450 -0.1553
  145OSM    C8F16028   6.719   5.331   7.180 -0.3046 -0.8946  0.1578
  145OSM    H8F16029   6.830   5.325   7.168 -0.0704  2.6610 -0.4790
  145OSM    H8G16030   6.670   5.400   7.107 -1.3471 -2.4308 -0.6545
  145OSM    C9F16031   6.658   5.196   7.155 -0.1516  0.0741  0.3550
  145OSM    H9F16032   6.599   5.148   7.234 -0.4999 -0.1350 -0.0278
  145OSM   C10F16033   6.692   5.118   7.045  0.0634 -0.8525  0.3723
  145OSM   H10F16034   6.654   5.015   7.050 -0.5262 -0.7004 -0.7145
  145OSM   C11F16035   6.782   5.152   6.932  0.2891 -0.5927  0.3528
  145OSM   H11F16036   6.876   5.092   6.940  1.4010  0.5540 -2.5487
  145OSM   H11G16037   6.803   5.261   6.924 -0.4489 -0.5333 -1.0759
  145OSM   C12F16038   6.717   5.123   6.797  0.1769  0.4611  0.0942
  145OSM   H12F16039   6.623   5.176   6.771  0.2836  1.1545  1.0733
  145OSM   H12G16040   6.703   5.013   6.794 -0.3684  0.5446 -0.8250
  145OSM   C13F16041   6.810   5.157   6.674 -0.3352  0.2663  0.5075
  145OSM   H13F16042   6.915   5.140   6.705 -0.6231 -0.7018  1.0081
  145OSM   H13G16043   6.802   5.260   6.633 -1.0820  0.1867  0.4250
  145OSM   C14F16044   6.790   5.067   6.550  0.1157  0.1110  0.5906
  145OSM   H14F16045   6.680   5.066   6.534  0.3191 -0.2293 -0.9367
  145OSM   H14G16046   6.824   4.965   6.577 -1.4347 -0.0997  1.9355
  145OSM   C15F16047   6.840   5.121   6.415 -0.1627  0.0577 -0.8248
  145OSM   H15F16048   6.950   5.136   6.426 -0.3913  1.2722 -0.0095
  145OSM   H15G16049   6.790   5.218   6.395  2.3456  2.0183  1.6456
  145OSM   C16F16050   6.819   5.041   6.285 -0.1334 -1.1080  0.2133
  145OSM   H16F16051   6.840   4.936   6.314 -0.6454 -1.2752 -0.0027
  145OSM   H16G16052   6.893   5.079   6.210  0.7465 -0.8206  1.2024
  145OSM   C17F16053   6.676   5.055   6.230 -0.0463 -0.3557  0.7616
  145OSM   H17F16054   6.609   5.069   6.318 -1.5344  0.8885 -0.5169
  145OSM   H17G16055   6.653   4.956   6.184  2.5596  0.1586 -1.9935
  145OSM   C18F16056   6.662   5.166   6.120  0.3693  0.1017 -0.7816
  145OSM   H18F16057   6.719   5.259   6.143  1.2123 -0.5610 -0.1407
  145OSM   H18G16058   6.555   5.195   6.120  0.2795 -0.2146  0.1557
  145OSM   H18H16059   6.690   5.120   6.023 -0.2764 -0.2279 -0.8127
  146OSM      N16060   4.452   5.780   8.454 -0.1457 -0.1679 -0.2078
  146OSM    C1516061   4.473   5.693   8.573 -0.2553  0.4251  0.1617
  146OSM   H15A16062   4.544   5.736   8.643  3.5088 -1.1583 -2.3771
  146OSM   H15B16063   4.513   5.595   8.553 -0.6244 -0.2075  2.2645
  146OSM   H15C16064   4.376   5.687   8.621  0.8157  0.8382  2.5569
  146OSM    C1416065   4.359   5.707   8.369 -0.3817  0.0099  1.2900
  146OSM   H14A16066   4.331   5.762   8.281 -1.4172 -1.6249  0.5495
  146OSM   H14B16067   4.267   5.684   8.422 -0.6520 -1.8536  0.0977
  146OSM   H14C16068   4.398   5.613   8.332 -1.9738  0.1030 -0.7748
  146OSM    C1316069   4.386   5.906   8.502 -0.6453 -0.6247  1.0085
  146OSM   H13A16070   4.353   5.972   8.423  1.3473 -1.4003 -0.5509
  146OSM   H13B16071   4.454   5.963   8.563 -0.3981  0.9809 -0.6639
  146OSM   H13C16072   4.293   5.883   8.553 -1.3349  1.8609  0.9746
  146OSM    C1216073   4.584   5.804   8.387 -0.2384  0.5261  0.0544
  146OSM   H12A16074   4.662   5.838   8.453  1.8557 -1.1436 -1.4139
  146OSM   H12B16075   4.562   5.877   8.310 -2.5754 -1.9238 -1.8074
  146OSM    C1116076   4.646   5.681   8.309 -0.1561 -0.2452 -0.7794
  146OSM   H11A16077   4.737   5.725   8.262 -0.5889  1.8410  0.2018
  146OSM   H11B16078   4.583   5.661   8.220  0.2574  0.0223 -1.1387
  146OSM      P16079   4.643   5.425   8.353  0.1807  0.3593  0.5786
  146OSM    O1316080   4.708   5.330   8.447  0.3854 -0.1489 -0.2320
  146OSM    O1416081   4.495   5.430   8.361  0.1603  0.1743  0.1476
  146OSM    O1116082   4.685   5.406   8.203  0.5217 -0.4387  0.2174
  146OSM    O1216083   4.682   5.571   8.392 -0.0430 -0.4566  1.1477
  146OSM    C1S16084   4.825   5.412   8.170 -0.5285 -0.5079  0.3604
  146OSM    H1S16085   4.886   5.331   8.215 -1.1961 -0.0458  2.1585
  146OSM    H1T16086   4.871   5.503   8.214  1.1544 -1.4729  0.6918
  146OSM     NF16087   4.997   5.409   7.987 -0.1434 -0.3843  0.2432
  146OSM    HNF16088   5.024   5.491   7.937  0.6607  0.5386  2.0679
  146OSM    C2S16089   4.861   5.404   8.018  0.9391  0.6660 -0.1543
  146OSM    H2S16090   4.831   5.305   7.976  1.6258  0.0647  0.7460
  146OSM    C3S16091   4.764   5.504   7.945 -0.9014  0.1444  0.5814
  146OSM    H3S16092   4.799   5.608   7.964  1.1970  0.3343 -3.2597
  146OSM     O316093   4.625   5.497   7.975 -0.2989  0.3509 -0.1485
  146OSM    HO316094   4.628   5.454   8.061  0.4967  1.6573  0.5086
  146OSM    C4S16095   4.783   5.491   7.791 -0.4801  0.0306 -0.4701
  146OSM    H4S16096   4.827   5.585   7.755  1.7479 -1.3447 -1.5394
  146OSM    C5S16097   4.748   5.393   7.697  0.5439 -0.4349  0.5355
  146OSM    H5S16098   4.695   5.303   7.730 -1.1422  0.6096  0.8098
  146OSM    C6S16099   4.773   5.404   7.546  0.0819  0.3091 -0.7864
  146OSM    H6S16100   4.677   5.419   7.492 -0.4102  1.2171  0.2927
  146OSM    H6T16101   4.822   5.307   7.521 -1.1006 -1.1207  1.9262
  146OSM    C7S16102   4.872   5.519   7.507 -0.9992 -0.1864  0.4240
  146OSM    H7S16103   4.965   5.488   7.559 -0.8438 -1.6863 -0.6552
  146OSM    H7T16104   4.837   5.618   7.542 -0.3346  1.4771 -3.1585
  146OSM    C8S16105   4.905   5.536   7.362 -0.1273  0.0889 -0.4482
  146OSM    H8S16106   4.822   5.592   7.313 -0.0519  0.6569  0.0595
  146OSM    H8T16107   4.909   5.443   7.301 -1.1819  1.0799 -2.1084
  146OSM    C9S16108   5.032   5.628   7.349 -0.4729  0.6642 -0.2241
  146OSM    H9S16109   5.117   5.580   7.401  1.0139  1.2362 -2.0182
  146OSM    H9T16110   5.008   5.726   7.395  1.2632 -0.0223  2.3260
  146OSM   C10S16111   5.086   5.636   7.203 -0.6340  0.6147 -0.0544
  146OSM   H10S16112   5.153   5.725   7.196  0.4889 -0.1383  0.8110
  146OSM   H10T16113   4.998   5.676   7.149 -1.4156  0.3179  0.9494
  146OSM   C11S16114   5.135   5.506   7.139 -0.6744  0.3666 -0.6536
  146OSM   H11S16115   5.062   5.422   7.134 -2.1437  1.6183 -0.8083
  146OSM   H11T16116   5.219   5.473   7.204 -1.7330  0.8335  1.0119
  146OSM   C12S16117   5.195   5.524   7.002 -0.0290  0.4874  0.2307
  146OSM   H12S16118   5.264   5.443   6.968  0.8666  2.0327 -1.8635
  146OSM   H12T16119   5.254   5.618   6.994  1.0025 -0.1975 -0.5519
  146OSM   C13S16120   5.086   5.534   6.891  0.4091 -1.0616 -0.1015
  146OSM   H13S16121   5.042   5.633   6.866  0.1798 -1.1627 -0.1008
  146OSM   H13T16122   5.007   5.463   6.923  1.6908 -2.1602  0.7283
  146OSM   C14S16123   5.157   5.474   6.767 -1.1376 -0.1038  0.4601
  146OSM   H14S16124   5.201   5.373   6.788  1.4196  0.5654 -1.1561
  146OSM   H14T16125   5.249   5.527   6.735 -0.3220 -1.5750  0.2351
  146OSM   C15S16126   5.064   5.460   6.639 -0.0286 -0.7135 -0.1007
  146OSM   H15S16127   5.024   5.562   6.619  2.0235  0.7248  2.4403
  146OSM   H15T16128   4.976   5.397   6.661 -0.2255 -0.4740 -0.1994
  146OSM   C16S16129   5.129   5.398   6.508 -0.2116  0.2212 -0.2312
  146OSM   H16S16130   5.179   5.304   6.539  0.3416  0.5893  0.0094
  146OSM   H16T16131   5.202   5.474   6.474 -1.3095  1.5034  0.1988
  146OSM   C17S16132   5.016   5.363   6.402 -0.3560  0.4888 -0.0955
  146OSM   H17S16133   4.972   5.463   6.384 -0.0842  0.8737  1.2048
  146OSM   H17T16134   4.937   5.294   6.439 -0.6156  0.4324 -0.7488
  146OSM   C18S16135   5.072   5.297   6.273  0.3067 -0.3060  0.4879
  146OSM   H18S16136   4.997   5.284   6.193  0.1287  0.3478  0.5364
  146OSM   H18T16137   5.124   5.203   6.299  1.6656 -0.3293 -2.0543
  146OSM   H18U16138   5.138   5.371   6.224  0.6962 -0.1553  1.2152
  146OSM    C1F16139   5.081   5.316   8.019  0.0531 -0.0271  0.0759
  146OSM     OF16140   5.040   5.223   8.086 -0.2085  0.4836  0.4039
  146OSM    C2F16141   5.213   5.326   7.954 -0.3108  0.1637 -0.1278
  146OSM    H2F16142   5.291   5.324   8.033 -1.3065  0.5270  0.8900
  146OSM    H2G16143   5.222   5.430   7.916 -0.0477  0.7676  1.4924
  146OSM    C3F16144   5.233   5.228   7.836 -0.3036 -0.2626  0.2210
  146OSM    H3F16145   5.214   5.128   7.883  2.7296 -2.1937 -2.2548
  146OSM    H3G16146   5.332   5.244   7.789 -0.0509  1.4563  1.2797
  146OSM    C4F16147   5.128   5.239   7.720 -0.7342 -0.0186 -0.0746
  146OSM    H4F16148   5.112   5.346   7.694  0.2971  0.4414  1.1182
  146OSM    H4G16149   5.027   5.209   7.756 -0.5459 -0.3325  0.1950
  146OSM    C5F16150   5.156   5.149   7.597  0.9369  0.2622  0.5394
  146OSM    H5F16151   5.187   5.044   7.617  1.3130  0.3844  0.6030
  146OSM    H5G16152   5.250   5.182   7.548  1.5254 -1.0422  0.7501
  146OSM    C6F16153   5.053   5.143   7.488  0.3726 -0.2105 -0.5551
  146OSM    H6F16154   5.018   5.243   7.456 -1.5633 -0.8371 -0.5382
  146OSM    H6G16155   4.964   5.089   7.528  0.2515 -0.4997 -1.2045
  146OSM    C7F16156   5.102   5.084   7.358  0.4645 -0.1073 -0.3827
  146OSM    H7F16157   5.180   5.007   7.376  1.8980  0.4523 -3.4826
  146OSM    H7G16158   5.159   5.169   7.314 -0.8551  1.2325  0.4102
  146OSM    C8F16159   4.999   5.021   7.269 -0.2173  0.6282 -0.0289
  146OSM    H8F16160   5.042   5.042   7.169 -0.6354  0.7209 -0.1904
  146OSM    H8G16161   4.911   5.088   7.278  1.0071  2.1964  0.8849
  146OSM    C9F16162   4.965   4.876   7.292  0.8868  0.2171  0.1412
  146OSM    H9F16163   5.057   4.820   7.312  1.6028  2.3207  3.6559
  146OSM   C10F16164   4.845   4.827   7.323 -0.9972 -0.0856 -0.3620
  146OSM   H10F16165   4.848   4.730   7.375  2.0367 -0.4458 -1.0732
  146OSM   C11F16166   4.712   4.894   7.318  0.7332  0.1378 -0.5133
  146OSM   H11F16167   4.654   4.875   7.226 -0.5747 -0.4259  0.4059
  146OSM   H11G16168   4.726   5.003   7.334 -2.9402  0.5869  0.5793
  146OSM   C12F16169   4.626   4.855   7.444 -0.5752 -0.0579  0.0210
  146OSM   H12F16170   4.619   4.746   7.464  1.6567  0.0048  1.5892
  146OSM   H12G16171   4.525   4.890   7.417  0.3883  1.5885 -1.7080
  146OSM   C13F16172   4.659   4.930   7.575 -0.6623 -0.4094  0.9586
  146OSM   H13F16173   4.634   5.037   7.555  1.2373  0.1079  1.1695
  146OSM   H13G16174   4.767   4.932   7.601 -0.3687 -0.5425 -0.2229
  146OSM   C14F16175   4.574   4.897   7.699 -0.2901 -0.2830  0.3388
  146OSM   H14F16176   4.466   4.911   7.675 -0.6183 -1.1458  1.2717
  146OSM   H14G16177   4.576   4.787   7.716  1.6679 -0.6931 -2.0177
  146OSM   C15F16178   4.607   4.974   7.831  0.1718 -0.2001  0.6179
  146OSM   H15F16179   4.609   5.084   7.819  0.9567 -0.4005 -1.5369
  146OSM   H15G16180   4.705   4.937   7.868  0.2635  0.4453  1.0183
  146OSM   C16F16181   4.506   4.951   7.943 -0.9046 -0.4804 -0.7610
  146OSM   H16F16182   4.495   4.841   7.953  1.6235 -0.7030  0.2713
  146OSM   H16G16183   4.409   4.992   7.908  0.1916  1.6380 -1.4763
  146OSM   C17F16184   4.541   5.008   8.075  0.9332 -0.2826  0.1290
  146OSM   H17F16185   4.453   5.006   8.144  0.2946 -0.0897 -0.6630
  146OSM   H17G16186   4.559   5.117   8.060 -2.1684  0.5802  1.8442
  146OSM   C18F16187   4.664   4.945   8.149 -0.1112 -0.7639  0.5851
  146OSM   H18F16188   4.691   5.011   8.234 -1.6673  0.2394  0.3488
  146OSM   H18G16189   4.741   4.932   8.070 -1.0651 -3.2282 -0.0363
  146OSM   H18H16190   4.633   4.846   8.188 -0.6590 -1.2211 -0.9429
  147OSM      N16191   2.083   2.066   3.725  0.2896  0.4341 -0.5166
  147OSM    C1516192   2.212   1.993   3.705 -0.0097  0.1399  0.1233
  147OSM   H15A16193   2.288   2.032   3.772 -2.6208  2.5685  1.9105
  147OSM   H15B16194   2.237   1.996   3.600  0.3289 -2.5221  0.0635
  147OSM   H15C16195   2.211   1.888   3.729  0.0123  0.0806 -0.1349
  147OSM    C1416196   2.104   2.208   3.677 -0.8804 -0.6047  0.3165
  147OSM   H14A16197   2.183   2.260   3.730 -1.5937  0.4435  0.3766
  147OSM   H14B16198   2.011   2.260   3.695 -2.8375 -3.7489 -0.0592
  147OSM   H14C16199   2.134   2.203   3.573  1.2369  1.0648  0.7589
  147OSM    C1316200   1.989   1.999   3.637 -0.0408 -0.2914  0.2462
  147OSM   H13A16201   2.021   1.990   3.534 -1.7127 -0.5876 -0.2838
  147OSM   H13B16202   1.891   2.044   3.638 -0.5527 -1.3539 -0.1987
  147OSM   H13C16203   1.975   1.898   3.673 -0.4779 -0.4621 -0.3882
  147OSM    C1216204   2.033   2.076   3.871  0.1229  0.1017  0.3874
  147OSM   H12A16205   2.103   2.138   3.924 -0.5260  0.7654  0.4722
  147OSM   H12B16206   2.044   1.979   3.917  1.7440 -0.4899 -1.1497
  147OSM    C1116207   1.897   2.138   3.900 -0.2220 -0.2701  0.3356
  147OSM   H11A16208   1.867   2.128   4.007 -2.3335 -0.6807 -0.2457
  147OSM   H11B16209   1.825   2.065   3.858  1.8104 -1.6365 -0.9389
  147OSM      P16210   1.727   2.336   3.849 -0.0521 -0.0521  0.1000
  147OSM    O1316211   1.722   2.470   3.794 -0.0220 -0.1192  0.0443
  147OSM    O1416212   1.638   2.245   3.774  0.4383 -0.0409 -0.1115
  147OSM    O1116213   1.673   2.322   3.998  0.4361 -0.0219 -1.0109
  147OSM    O1216214   1.871   2.267   3.847 -0.4541 -0.6706  0.2278
  147OSM    C1S16215   1.698   2.411   4.108 -0.1637  0.7935  1.0044
  147OSM    H1S16216   1.651   2.511   4.095 -0.1569  0.8789  1.5890
  147OSM    H1T16217   1.804   2.446   4.115  0.5063 -0.6297 -1.0621
  147OSM     NF16218   1.729   2.438   4.351  0.3825  0.2488 -0.7019
  147OSM    HNF16219   1.818   2.411   4.389 -0.8729  0.0043  2.3547
  147OSM    C2S16220   1.670   2.352   4.250  0.0804  0.4104 -0.8336
  147OSM    H2S16221   1.560   2.354   4.270  0.3882 -0.5403  1.1489
  147OSM    C3S16222   1.705   2.199   4.253  0.0294 -0.2297  0.6157
  147OSM    H3S16223   1.809   2.187   4.214 -1.0625 -0.5927 -2.4681
  147OSM     O316224   1.615   2.116   4.173 -0.6722  0.2197  0.1010
  147OSM    HO316225   1.560   2.174   4.119 -3.3552 -1.6934  0.5675
  147OSM    C4S16226   1.703   2.154   4.398  0.2080  0.4758 -0.0201
  147OSM    H4S16227   1.794   2.147   4.458 -0.5582 -2.5104  0.9970
  147OSM    C5S16228   1.598   2.105   4.465  0.2554  0.5253 -0.4878
  147OSM    H5S16229   1.509   2.094   4.401 -0.8353 -0.5807  1.1757
  147OSM    C6S16230   1.610   2.056   4.606 -0.2635  0.0435 -0.9998
  147OSM    H6S16231   1.713   2.055   4.648 -1.3752 -0.1244  2.0368
  147OSM    H6T16232   1.577   1.950   4.601 -1.1472  0.3273 -1.3023
  147OSM    C7S16233   1.523   2.135   4.707 -0.0216  0.3641 -0.2275
  147OSM    H7S16234   1.424   2.137   4.658  1.0957 -0.7263 -2.7022
  147OSM    H7T16235   1.568   2.235   4.723 -0.3554  0.4823 -0.0209
  147OSM    C8S16236   1.523   2.060   4.838  0.1437 -0.8662  0.2781
  147OSM    H8S16237   1.626   2.040   4.873  0.3548 -0.4486 -0.1082
  147OSM    H8T16238   1.471   1.963   4.822  1.1171 -1.3405 -0.0596
  147OSM    C9S16239   1.452   2.140   4.955  0.2758 -0.3701 -0.1179
  147OSM    H9S16240   1.348   2.168   4.927  0.2946 -1.6669 -1.6367
  147OSM    H9T16241   1.517   2.229   4.964 -2.9931  2.5471 -2.4986
  147OSM   C10S16242   1.455   2.070   5.091  0.7732 -0.7347  0.6399
  147OSM   H10S16243   1.562   2.066   5.121  1.1256  0.1617 -0.4175
  147OSM   H10T16244   1.412   1.969   5.080 -1.0260 -0.0587  1.1146
  147OSM   C11S16245   1.383   2.150   5.202 -0.1907  0.9257  0.0619
  147OSM   H11S16246   1.413   2.255   5.182  2.4872  0.0204 -1.1856
  147OSM   H11T16247   1.423   2.123   5.302 -0.3725 -1.1568 -0.3840
  147OSM   C12S16248   1.225   2.140   5.197  0.3321 -0.0618 -0.7294
  147OSM   H12S16249   1.180   2.044   5.227 -0.0142 -0.1187 -1.4139
  147OSM   H12T16250   1.187   2.160   5.094 -1.1279  0.9927 -0.0314
  147OSM   C13S16251   1.149   2.250   5.286  0.3840 -0.1608 -0.2024
  147OSM   H13S16252   1.042   2.222   5.296  0.7815 -0.8481  4.1160
  147OSM   H13T16253   1.159   2.341   5.224  0.1608 -0.6433 -0.9584
  147OSM   C14S16254   1.209   2.266   5.426  0.5705  0.7508  0.5356
  147OSM   H14S16255   1.164   2.360   5.465  1.3766  1.9969 -1.3912
  147OSM   H14T16256   1.320   2.272   5.419  0.5398  0.4009 -0.3134
  147OSM   C15S16257   1.169   2.147   5.530 -0.4026 -0.4974  0.4234
  147OSM   H15S16258   1.202   2.056   5.475 -2.2423  0.0766 -1.7691
  147OSM   H15T16259   1.060   2.133   5.543 -0.5538 -0.8577 -1.0251
  147OSM   C16S16260   1.245   2.157   5.662 -0.1098  0.2712 -0.1522
  147OSM   H16S16261   1.226   2.064   5.720 -0.6849  0.1840 -0.4706
  147OSM   H16T16262   1.216   2.249   5.715  0.6786  2.1753 -2.8247
  147OSM   C17S16263   1.398   2.167   5.650  0.5533  0.4161  0.0951
  147OSM   H17S16264   1.434   2.187   5.753 -0.1694 -0.2276  0.4866
  147OSM   H17T16265   1.422   2.256   5.589 -0.7821  1.2386  0.7249
  147OSM   C18S16266   1.464   2.047   5.594 -0.5600 -0.4791  0.6823
  147OSM   H18S16267   1.437   2.026   5.489  0.7368 -1.2564  0.4899
  147OSM   H18T16268   1.449   1.955   5.653 -4.9767 -0.0569  0.6207
  147OSM   H18U16269   1.572   2.070   5.602 -0.8530  2.4848 -2.0169
  147OSM    C1F16270   1.685   2.559   4.387 -0.6817  0.0555 -0.1248
  147OSM     OF16271   1.585   2.609   4.341  0.0235  0.5894 -0.0700
  147OSM    C2F16272   1.773   2.633   4.478  0.0021  0.0548  0.2043
  147OSM    H2F16273   1.770   2.737   4.438 -1.0305  0.7259  1.9127
  147OSM    H2G16274   1.878   2.595   4.480  0.3450  0.9961  0.4221
  147OSM    C3F16275   1.716   2.626   4.627  0.0426  0.1317  0.1572
  147OSM    H3F16276   1.607   2.649   4.632  0.3745  1.8197  0.2815
  147OSM    H3G16277   1.770   2.708   4.680  1.0725 -0.7927  0.5772
  147OSM    C4F16278   1.761   2.505   4.699  1.0257 -0.2226 -0.0894
  147OSM    H4F16279   1.868   2.492   4.673  1.2472  2.4359 -0.8757
  147OSM    H4G16280   1.696   2.427   4.655 -0.1262  0.3997  0.4554
  147OSM    C5F16281   1.743   2.527   4.851 -0.3974  0.8226  0.2132
  147OSM    H5F16282   1.634   2.547   4.860 -0.8853 -0.6485 -1.7862
  147OSM    H5G16283   1.794   2.616   4.894  1.6214 -0.8931  1.5543
  147OSM    C6F16284   1.775   2.408   4.946 -0.0988  0.3435 -0.7787
  147OSM    H6F16285   1.870   2.368   4.903  0.7288  2.6190 -1.1949
  147OSM    H6G16286   1.695   2.332   4.936  1.2506 -0.9955 -1.9817
  147OSM    C7F16287   1.804   2.432   5.094 -0.8065  0.1783 -0.4499
  147OSM    H7F16288   1.709   2.419   5.149  0.4727 -2.7789  1.3807
  147OSM    H7G16289   1.838   2.536   5.113  1.7060 -0.7188  0.4995
  147OSM    C8F16290   1.914   2.331   5.144 -0.1541  0.8003  0.1202
  147OSM    H8F16291   1.960   2.373   5.236  1.5618  0.6897 -0.6435
  147OSM    H8G16292   1.995   2.331   5.068  0.7339 -1.4406  0.9788
  147OSM    C9F16293   1.867   2.186   5.163  0.2194  0.2648 -0.2251
  147OSM    H9F16294   1.898   2.120   5.080  0.1737 -0.5957  0.4317
  147OSM   C10F16295   1.796   2.137   5.270  0.1865  0.0084  0.0304
  147OSM   H10F16296   1.784   2.028   5.276  2.7841 -0.4219 -1.2187
  147OSM   C11F16297   1.737   2.219   5.378  0.0989  0.2205 -0.2368
  147OSM   H11F16298   1.641   2.179   5.417 -0.7558 -0.0704 -2.5316
  147OSM   H11G16299   1.717   2.321   5.340  1.0746  0.0336 -1.3145
  147OSM   C12F16300   1.830   2.233   5.502 -0.3339  0.1520 -0.1996
  147OSM   H12F16301   1.926   2.278   5.470 -1.0114  0.6312 -1.6645
  147OSM   H12G16302   1.851   2.137   5.554  1.2361  1.0170  0.8608
  147OSM   C13F16303   1.759   2.316   5.610  0.2480 -0.3856 -0.4164
  147OSM   H13F16304   1.650   2.296   5.601  0.3602 -0.1269 -2.7547
  147OSM   H13G16305   1.775   2.423   5.587 -0.0153 -0.0020  1.0438
  147OSM   C14F16306   1.796   2.285   5.757 -0.0495  0.4464 -0.0453
  147OSM   H14F16307   1.905   2.296   5.776  0.0803 -2.0177  0.9250
  147OSM   H14G16308   1.777   2.181   5.791 -2.0421  0.3438 -1.3228
  147OSM   C15F16309   1.718   2.380   5.852  0.4871  0.7200 -0.2824
  147OSM   H15F16310   1.613   2.346   5.862 -0.1869  2.9638  1.0644
  147OSM   H15G16311   1.716   2.482   5.807 -0.5164  1.3328  1.0791
  147OSM   C16F16312   1.771   2.400   5.995 -0.3876  0.4094 -0.6789
  147OSM   H16F16313   1.786   2.302   6.046 -0.5448  1.3546  1.2878
  147OSM   H16G16314   1.693   2.453   6.053  0.1199 -0.1646  0.5613
  147OSM   C17F16315   1.904   2.477   5.992 -0.1509 -0.2748  0.1904
  147OSM   H17F16316   1.986   2.422   5.940 -0.5375 -0.5658 -0.1184
  147OSM   H17G16317   1.934   2.484   6.099 -1.7760  1.0999  0.5957
  147OSM   C18F16318   1.909   2.620   5.935 -0.0631  1.0801  0.4943
  147OSM   H18F16319   1.826   2.684   5.972 -0.9580  0.6387 -0.6711
  147OSM   H18G16320   1.893   2.620   5.825 -1.6116  0.6926  0.6965
  147OSM   H18H16321   1.999   2.679   5.961  0.4204  1.0175 -0.9384
  148OSM      N16322   6.580   2.492   3.668  0.0899  0.3054  0.3079
  148OSM    C1516323   6.628   2.629   3.645 -0.3482 -0.0547 -0.8861
  148OSM   H15A16324   6.736   2.635   3.640 -0.4224  2.4582 -0.8426
  148OSM   H15B16325   6.592   2.696   3.722 -2.0163 -0.1786 -1.5023
  148OSM   H15C16326   6.603   2.662   3.545  3.2269  0.6113 -1.6958
  148OSM    C1416327   6.627   2.449   3.806 -0.1510 -0.7048 -0.5609
  148OSM   H14A16328   6.734   2.433   3.806  0.0164  0.2484  0.5380
  148OSM   H14B16329   6.586   2.356   3.840  3.3594 -2.1557  0.1294
  148OSM   H14C16330   6.598   2.523   3.879 -1.1965 -1.6163 -0.0279
  148OSM    C1316331   6.430   2.475   3.656 -0.8852  0.0995  0.0811
  148OSM   H13A16332   6.403   2.373   3.681  1.8305 -0.1386  2.5308
  148OSM   H13B16333   6.414   2.506   3.554  2.4176 -0.3733 -0.6846
  148OSM   H13C16334   6.376   2.534   3.728  1.5474  0.4017  1.7825
  148OSM    C1216335   6.647   2.400   3.566  0.0429  0.1942  0.3704
  148OSM   H12A16336   6.583   2.394   3.478  1.7666 -1.1654 -0.8517
  148OSM   H12B16337   6.640   2.301   3.608  1.0628 -1.1519 -2.3963
  148OSM    C1116338   6.798   2.424   3.519  0.6715 -0.1314 -0.0412
  148OSM   H11A16339   6.800   2.529   3.483  0.3940 -0.3694 -0.7700
  148OSM   H11B16340   6.820   2.354   3.435 -1.6376 -2.0450  0.8326
  148OSM      P16341   6.937   2.270   3.671 -0.0668 -0.4852  0.1361
  148OSM    O1316342   6.812   2.211   3.725  0.0654 -0.2609 -0.3537
  148OSM    O1416343   7.002   2.198   3.557  0.7541  0.2942 -0.5321
  148OSM    O1116344   7.033   2.300   3.788  0.1424  0.5876 -0.2024
  148OSM    O1216345   6.895   2.410   3.623  0.8787  0.3589  0.7951
  148OSM    C1S16346   7.033   2.419   3.869  0.0833 -0.6592  0.6153
  148OSM    H1S16347   6.946   2.485   3.849  0.1402 -0.6130  0.5240
  148OSM    H1T16348   7.117   2.489   3.855  0.4228 -0.7225  2.0961
  148OSM     NF16349   7.039   2.516   4.096  1.2160 -0.0517  0.1124
  148OSM    HNF16350   7.130   2.535   4.131  1.0586 -0.5212  0.8199
  148OSM    C2S16351   7.039   2.388   4.026 -0.2351 -0.0908 -0.9325
  148OSM    H2S16352   6.947   2.337   4.062 -1.5270  2.0296 -1.0637
  148OSM    C3S16353   7.157   2.298   4.067 -0.1369 -0.5191  0.2555
  148OSM    H3S16354   7.248   2.344   4.022 -1.0762  0.8306 -0.3326
  148OSM     O316355   7.146   2.170   4.004  0.4767 -0.4904 -0.5318
  148OSM    HO316356   7.097   2.195   3.926 -0.3784 -2.7759 -0.8249
  148OSM    C4S16357   7.180   2.292   4.216  0.4583 -0.8530  0.0586
  148OSM    H4S16358   7.246   2.362   4.270 -2.3809  0.4634  2.0722
  148OSM    C5S16359   7.109   2.203   4.298  0.4745 -0.3564 -0.2206
  148OSM    H5S16360   7.045   2.126   4.254  0.4227 -0.5418  0.1803
  148OSM    C6S16361   7.125   2.202   4.450  0.4254  0.2562  0.1265
  148OSM    H6S16362   7.235   2.196   4.461  1.0496  1.2157 -3.9861
  148OSM    H6T16363   7.073   2.117   4.498  0.5798 -0.0406 -0.2270
  148OSM    C7S16364   7.076   2.325   4.524  1.2799  0.2082 -0.6364
  148OSM    H7S16365   6.966   2.332   4.510  1.1041  0.7354  0.8327
  148OSM    H7T16366   7.117   2.417   4.477  0.7696  0.6791 -0.1643
  148OSM    C8S16367   7.100   2.320   4.676 -0.3237 -0.5658 -0.1953
  148OSM    H8S16368   7.066   2.221   4.713  0.3487 -0.2309  1.3696
  148OSM    H8T16369   7.033   2.400   4.717  2.5625  1.8165  0.1901
  148OSM    C9S16370   7.236   2.364   4.707  0.6199 -0.3174  0.5101
  148OSM    H9S16371   7.251   2.467   4.666  0.9048  0.3485  2.1926
  148OSM    H9T16372   7.306   2.294   4.657 -0.9354 -1.8361  0.3832
  148OSM   C10S16373   7.277   2.353   4.849  0.6018 -0.1160 -0.3077
  148OSM   H10S16374   7.382   2.383   4.870  0.5162 -1.0671  1.8263
  148OSM   H10T16375   7.265   2.246   4.879 -1.1187  1.1704  4.5850
  148OSM   C11S16376   7.197   2.449   4.940 -0.3286 -0.1679  0.3540
  148OSM   H11S16377   7.095   2.415   4.967 -0.8796 -0.6088 -2.0177
  148OSM   H11T16378   7.174   2.536   4.875  0.9823  0.8921  1.2653
  148OSM   C12S16379   7.269   2.488   5.069  0.1395 -0.3708  0.6781
  148OSM   H12S16380   7.222   2.586   5.090  2.4072  0.7651  0.6609
  148OSM   H12T16381   7.377   2.511   5.060 -0.5861  3.1149 -0.6667
  148OSM   C13S16382   7.242   2.407   5.192  0.1915 -0.7169  0.5813
  148OSM   H13S16383   7.133   2.410   5.210 -0.2654  1.9424 -1.9617
  148OSM   H13T16384   7.288   2.460   5.278 -0.2260  1.0198 -0.2436
  148OSM   C14S16385   7.277   2.254   5.184  0.9498  0.0653 -0.2464
  148OSM   H14S16386   7.379   2.244   5.143  0.6681 -0.8187 -0.7629
  148OSM   H14T16387   7.205   2.202   5.116 -1.1966  1.3382  0.9304
  148OSM   C15S16388   7.286   2.184   5.323  0.2751  0.1200 -0.7286
  148OSM   H15S16389   7.375   2.226   5.373  1.0844 -1.1142 -1.0997
  148OSM   H15T16390   7.318   2.079   5.306  0.6732 -0.0652  1.0099
  148OSM   C16S16391   7.159   2.195   5.407 -0.6273 -0.3821  0.0918
  148OSM   H16S16392   7.080   2.157   5.339 -1.7157  2.6969 -0.5234
  148OSM   H16T16393   7.129   2.300   5.425  0.3179 -0.4361  2.3002
  148OSM   C17S16394   7.167   2.121   5.538  0.0029  0.8907 -1.0552
  148OSM   H17S16395   7.069   2.123   5.590  0.0893 -0.7276 -0.7877
  148OSM   H17T16396   7.248   2.159   5.603  0.4808 -0.9985 -0.4933
  148OSM   C18S16397   7.191   1.970   5.514  0.2344  0.5710 -0.0833
  148OSM   H18S16398   7.300   1.949   5.504 -0.0045 -1.2005  0.8190
  148OSM   H18T16399   7.123   1.931   5.435  0.7376 -0.4600 -0.0137
  148OSM   H18U16400   7.161   1.919   5.607  1.0088 -1.7426 -1.0339
  148OSM    C1F16401   6.932   2.601   4.101  0.6800  0.2601  0.7473
  148OSM     OF16402   6.819   2.572   4.049 -0.7979  0.6382  0.3205
  148OSM    C2F16403   6.955   2.733   4.160  0.0923  0.5229 -0.5094
  148OSM    H2F16404   6.869   2.801   4.140 -0.9081 -0.4409  0.3654
  148OSM    H2G16405   7.044   2.782   4.115  0.5083 -0.9828 -1.3651
  148OSM    C3F16406   6.984   2.734   4.305  0.2291  0.2129  0.0163
  148OSM    H3F16407   6.988   2.842   4.334 -0.9401  0.4338 -0.5826
  148OSM    H3G16408   7.081   2.683   4.319 -0.3037 -0.5585  1.0320
  148OSM    C4F16409   6.881   2.664   4.402 -0.1830  0.6361 -0.2984
  148OSM    H4F16410   6.881   2.558   4.370 -1.3550  1.0666 -1.8588
  148OSM    H4G16411   6.773   2.692   4.394 -0.1878  0.1531 -2.5280
  148OSM    C5F16412   6.921   2.690   4.550 -0.2319  0.1115 -0.2039
  148OSM    H5F16413   6.917   2.801   4.558  1.7225  0.1811  0.3379
  148OSM    H5G16414   7.024   2.658   4.578 -0.5649 -0.0705  0.8573
  148OSM    C6F16415   6.837   2.618   4.653  0.1638  0.4112  0.1471
  148OSM    H6F16416   6.840   2.512   4.620 -0.2186  0.4338  0.0359
  148OSM    H6G16417   6.729   2.636   4.635  0.0529  0.7297  1.0705
  148OSM    C7F16418   6.882   2.644   4.803 -1.0005 -0.1475  0.7512
  148OSM    H7F16419   6.860   2.748   4.836 -0.0387  0.7420 -1.2197
  148OSM    H7G16420   6.991   2.635   4.818 -0.6374 -1.3508 -1.9741
  148OSM    C8F16421   6.817   2.542   4.894 -0.0480  0.5125 -0.9252
  148OSM    H8F16422   6.866   2.556   4.993  1.1227 -1.3422 -1.1947
  148OSM    H8G16423   6.836   2.436   4.869 -0.7223 -0.6053  2.6523
  148OSM    C9F16424   6.666   2.561   4.908 -0.7211 -0.3827  0.8571
  148OSM    H9F16425   6.614   2.531   4.816  1.5113 -1.7258 -0.0471
  148OSM   C10F16426   6.602   2.614   5.017  0.0106 -0.1338  0.2913
  148OSM   H10F16427   6.493   2.620   5.004  0.1739  3.6346 -0.5979
  148OSM   C11F16428   6.661   2.652   5.150  0.6112  0.0490  0.0567
  148OSM   H11F16429   6.762   2.608   5.161  1.3897  1.1669 -1.8919
  148OSM   H11G16430   6.606   2.603   5.233 -0.7507 -1.6964 -1.7826
  148OSM   C12F16431   6.653   2.804   5.174  0.0989  0.1248 -0.2243
  148OSM   H12F16432   6.554   2.850   5.153 -0.3533  0.4448  2.3688
  148OSM   H12G16433   6.724   2.837   5.095  2.5228 -0.2274  1.7048
  148OSM   C13F16434   6.713   2.845   5.312  0.4933 -0.2059 -0.3862
  148OSM   H13F16435   6.634   2.828   5.389  0.4213  0.2207 -0.3648
  148OSM   H13G16436   6.739   2.952   5.311 -1.5758  0.3812  1.0183
  148OSM   C14F16437   6.834   2.760   5.366  0.3455  0.1437  0.6649
  148OSM   H14F16438   6.916   2.782   5.294  0.3511 -0.6773  0.4164
  148OSM   H14G16439   6.814   2.651   5.372  2.0733 -0.4371 -2.3324
  148OSM   C15F16440   6.876   2.806   5.511  0.5031  0.3868 -0.8388
  148OSM   H15F16441   6.789   2.790   5.579  0.0457 -1.3057 -1.7735
  148OSM   H15G16442   6.903   2.914   5.507  1.9631  0.1080  0.4438
  148OSM   C16F16443   6.990   2.714   5.576 -0.2738 -0.2306 -0.0272
  148OSM   H16F16444   6.937   2.622   5.609  0.5009 -0.8137 -0.4018
  148OSM   H16G16445   7.025   2.768   5.666 -2.7529  1.4933  0.0046
  148OSM   C17F16446   7.105   2.665   5.479 -0.6636  0.1497 -0.2057
  148OSM   H17F16447   7.149   2.756   5.433 -0.4246 -0.9218 -2.2064
  148OSM   H17G16448   7.071   2.601   5.395  0.2052 -0.3826 -0.1653
  148OSM   C18F16449   7.215   2.584   5.537 -0.0007 -0.2745  0.1466
  148OSM   H18F16450   7.175   2.484   5.564  1.3708 -1.1100 -0.7820
  148OSM   H18G16451   7.258   2.632   5.628  0.0943  1.1487 -0.6116
  148OSM   H18H16452   7.293   2.580   5.458 -0.0588 -1.4382  0.1332
  149OSM      N16453   1.418   1.884   3.858 -0.5606  0.0977  0.3691
  149OSM    C1516454   1.328   1.890   3.736  0.2974  0.8291 -0.0586
  149OSM   H15A16455   1.345   1.806   3.670  1.3057  0.5064  0.5944
  149OSM   H15B16456   1.329   1.987   3.689 -0.7250  0.7947 -0.1835
  149OSM   H15C16457   1.223   1.881   3.760  0.4029 -2.5173 -0.3290
  149OSM    C1416458   1.359   1.971   3.963  0.1588  0.1986  0.6157
  149OSM   H14A16459   1.253   1.950   3.966  0.3215 -0.7847  0.0570
  149OSM   H14B16460   1.369   2.075   3.935 -0.5439 -0.6599 -3.5919
  149OSM   H14C16461   1.403   1.945   4.058  1.5326  2.2482  0.5906
  149OSM    C1316462   1.413   1.744   3.898 -0.3647 -0.6761 -0.3584
  149OSM   H13A16463   1.445   1.715   3.997 -2.5706 -1.8653  0.0846
  149OSM   H13B16464   1.469   1.682   3.831 -0.2697  0.3159 -1.2138
  149OSM   H13C16465   1.309   1.715   3.890 -0.2011 -0.7113 -3.0243
  149OSM    C1216466   1.557   1.932   3.822  0.2468 -0.0231  0.2006
  149OSM   H12A16467   1.621   1.927   3.909  0.4742  0.4068  0.0643
  149OSM   H12B16468   1.550   2.038   3.802 -1.4908 -0.5418 -2.2713
  149OSM    C1116469   1.629   1.854   3.710 -0.8429 -0.5033  0.1124
  149OSM   H11A16470   1.717   1.917   3.687  0.7821 -1.7103  2.5255
  149OSM   H11B16471   1.566   1.845   3.619  0.1550 -1.9086 -0.4808
  149OSM      P16472   1.807   1.692   3.819  0.3517 -0.0666 -0.0837
  149OSM    O1316473   1.807   1.567   3.900 -1.0004 -0.0245  0.0512
  149OSM    O1416474   1.905   1.709   3.708  0.7534 -0.1582 -0.1431
  149OSM    O1116475   1.840   1.814   3.917  0.5167  0.0907  0.3345
  149OSM    O1216476   1.667   1.722   3.761  0.4045 -0.2256 -0.1407
  149OSM    C1S16477   1.792   1.811   4.052 -0.0360 -0.4887 -0.7463
  149OSM    H1S16478   1.694   1.760   4.058 -0.9541  1.3460  1.7774
  149OSM    H1T16479   1.784   1.918   4.081 -0.2926 -0.6213 -0.3101
  149OSM     NF16480   1.869   1.764   4.290 -0.0069 -0.5464  0.0939
  149OSM    HNF16481   1.937   1.821   4.336  0.4440  1.3651 -2.6984
  149OSM    C2S16482   1.901   1.747   4.150 -0.1417  0.0319 -0.5500
  149OSM    H2S16483   1.885   1.640   4.125 -0.9188 -0.3409  1.4038
  149OSM    C3S16484   2.045   1.790   4.107 -0.8957 -0.5618  0.3898
  149OSM    H3S16485   2.045   1.901   4.115 -0.2594 -0.6165  1.3674
  149OSM     O316486   2.097   1.776   3.973  0.2391  0.1473  0.6433
  149OSM    HO316487   2.019   1.796   3.920 -0.8385 -0.1272  2.0693
  149OSM    C4S16488   2.138   1.731   4.200 -0.3362 -0.2442  0.0128
  149OSM    H4S16489   2.154   1.792   4.290 -0.0154  1.2980 -1.0464
  149OSM    C5S16490   2.218   1.623   4.193 -0.2930  0.2548 -0.5837
  149OSM    H5S16491   2.217   1.563   4.101  0.1790 -0.9774  0.1857
  149OSM    C6S16492   2.310   1.571   4.305 -0.5911 -0.2032  0.0602
  149OSM    H6S16493   2.408   1.543   4.262  0.0762  1.9558  0.1029
  149OSM    H6T16494   2.267   1.473   4.338  2.4099 -1.5800  0.2466
  149OSM    C7S16495   2.328   1.649   4.429 -0.0093 -0.7576  0.0046
  149OSM    H7S16496   2.229   1.666   4.478  1.3444  1.8423  2.1586
  149OSM    H7T16497   2.362   1.753   4.411 -0.6753 -0.1999  1.6859
  149OSM    C8S16498   2.415   1.569   4.526 -0.5692 -0.6532 -0.2824
  149OSM    H8S16499   2.513   1.553   4.476 -0.3919  0.4482 -0.2985
  149OSM    H8T16500   2.357   1.477   4.550 -1.2633 -0.1493 -0.0089
  149OSM    C9S16501   2.423   1.634   4.662  0.4423  0.4766  0.5796
  149OSM    H9S16502   2.327   1.676   4.699  0.4518  0.4309  0.6564
  149OSM    H9T16503   2.495   1.718   4.657 -0.7002  1.4549  0.0580
  149OSM   C10S16504   2.481   1.539   4.769 -0.1092 -0.0731 -0.4424
  149OSM   H10S16505   2.580   1.507   4.731 -0.3053 -0.6322 -0.4791
  149OSM   H10T16506   2.412   1.452   4.768  0.7615 -0.8406 -3.4684
  149OSM   C11S16507   2.498   1.597   4.911 -0.4740  0.6821  0.6973
  149OSM   H11S16508   2.398   1.593   4.959 -1.0311  0.2553 -0.4533
  149OSM   H11T16509   2.526   1.703   4.891 -0.2527  0.3800 -0.7293
  149OSM   C12S16510   2.599   1.525   5.007  0.3744 -0.0809 -0.1837
  149OSM   H12S16511   2.699   1.540   4.961 -0.1578  1.0455 -1.0455
  149OSM   H12T16512   2.578   1.416   4.996  1.9885 -0.5769  1.2326
  149OSM   C13S16513   2.586   1.576   5.153 -1.1432  0.6930  1.0402
  149OSM   H13S16514   2.481   1.567   5.189 -1.4892  0.9691  0.1270
  149OSM   H13T16515   2.618   1.682   5.165  1.0473  0.1960  0.0390
  149OSM   C14S16516   2.682   1.493   5.242  0.5917 -0.1035  0.0137
  149OSM   H14S16517   2.783   1.506   5.198  0.4826 -1.4842 -0.7009
  149OSM   H14T16518   2.662   1.383   5.244 -1.1940  0.1660  2.4730
  149OSM   C15S16519   2.681   1.541   5.392  0.5801  0.4233  0.3188
  149OSM   H15S16520   2.576   1.543   5.430  0.6156  1.6306  0.4015
  149OSM   H15T16521   2.722   1.639   5.423 -1.3335  1.4235 -0.1469
  149OSM   C16S16522   2.766   1.443   5.470  0.4088  0.2663  0.5096
  149OSM   H16S16523   2.865   1.450   5.420 -0.1587  3.2575 -0.4034
  149OSM   H16T16524   2.732   1.338   5.461  1.9166 -0.0616 -2.5746
  149OSM   C17S16525   2.785   1.488   5.611 -0.3942 -0.4748  0.1056
  149OSM   H17S16526   2.679   1.513   5.635 -0.3906 -1.1457  0.8497
  149OSM   H17T16527   2.836   1.587   5.613 -2.2612  0.5717 -0.5728
  149OSM   C18S16528   2.849   1.398   5.715  0.3672 -0.0259  0.2970
  149OSM   H18S16529   2.786   1.317   5.759  1.1040  0.2977  2.0203
  149OSM   H18T16530   2.872   1.461   5.803  1.5537  0.1192 -0.0934
  149OSM   H18U16531   2.940   1.348   5.676  0.1102 -1.4651  1.4646
  149OSM    C1F16532   1.757   1.722   4.343  0.5954  0.6212  0.0831
  149OSM     OF16533   1.661   1.686   4.275 -0.5697 -0.1006 -0.0548
  149OSM    C2F16534   1.758   1.732   4.493  0.1278 -0.1806  0.2407
  149OSM    H2F16535   1.785   1.836   4.519  0.6228 -0.2995  0.2139
  149OSM    H2G16536   1.836   1.665   4.535 -0.0008 -1.0441 -0.8299
  149OSM    C3F16537   1.624   1.671   4.544 -0.0160  0.1993 -0.1051
  149OSM    H3F16538   1.611   1.562   4.527  0.7230  0.2047 -0.7264
  149OSM    H3G16539   1.533   1.715   4.496 -0.0591 -0.0389 -0.2418
  149OSM    C4F16540   1.633   1.684   4.697 -0.1651  0.2954  0.2298
  149OSM    H4F16541   1.662   1.786   4.728  0.7017  0.5493 -1.2927
  149OSM    H4G16542   1.717   1.617   4.725 -0.6176  0.7054  2.7590
  149OSM    C5F16543   1.500   1.651   4.759  0.1140  0.1607  0.3777
  149OSM    H5F16544   1.461   1.562   4.706 -0.1371 -0.7542  2.0443
  149OSM    H5G16545   1.434   1.734   4.725  1.7209  1.6063  0.6031
  149OSM    C6F16546   1.515   1.650   4.909  0.6161 -0.7191  0.0759
  149OSM    H6F16547   1.417   1.627   4.956 -0.3829  1.6748 -0.6978
  149OSM    H6G16548   1.534   1.751   4.952  0.4186  0.7815 -3.0544
  149OSM    C7F16549   1.614   1.546   4.959  0.5023  0.1567 -0.3811
  149OSM    H7F16550   1.715   1.561   4.915  0.6631 -2.7032 -1.2074
  149OSM    H7G16551   1.564   1.450   4.933 -1.1532  0.6634  0.8112
  149OSM    C8F16552   1.618   1.535   5.114 -0.2623 -0.3368 -0.0786
  149OSM    H8F16553   1.676   1.443   5.138 -1.2592 -1.3683 -1.4556
  149OSM    H8G16554   1.515   1.507   5.146  0.2160  1.3331  3.5006
  149OSM    C9F16555   1.681   1.662   5.173  0.1366  0.2026 -0.6071
  149OSM    H9F16556   1.625   1.750   5.141 -2.0247 -0.7771  0.2776
  149OSM   C10F16557   1.770   1.679   5.272  0.1795 -0.1374 -0.0936
  149OSM   H10F16558   1.807   1.780   5.294 -0.0364  0.3157 -1.6668
  149OSM   C11F16559   1.827   1.573   5.360  0.3790 -0.2017  0.3713
  149OSM   H11F16560   1.932   1.546   5.333  0.3471 -0.3444  0.3887
  149OSM   H11G16561   1.765   1.482   5.348 -0.1808  0.4232 -1.7915
  149OSM   C12F16562   1.835   1.613   5.515 -0.2036 -0.3037  0.1988
  149OSM   H12F16563   1.907   1.547   5.568  1.3949  2.9649  2.5218
  149OSM   H12G16564   1.734   1.613   5.561  0.3374 -2.6101  1.5255
  149OSM   C13F16565   1.892   1.755   5.541 -0.3283  0.4071 -0.2269
  149OSM   H13F16566   1.811   1.825   5.513 -2.1466 -1.4772  0.0350
  149OSM   H13G16567   1.985   1.764   5.481 -1.7061  1.8737 -2.2425
  149OSM   C14F16568   1.934   1.775   5.690  0.0986  0.0339 -0.8070
  149OSM   H14F16569   1.999   1.688   5.711 -0.7803 -0.0809  1.7860
  149OSM   H14G16570   1.842   1.771   5.752 -0.7386  0.1691 -2.0031
  149OSM   C15F16571   2.005   1.912   5.715  0.1480 -0.6214  0.0285
  149OSM   H15F16572   1.926   1.987   5.696  1.4302  1.7091  3.1382
  149OSM   H15G16573   2.084   1.929   5.639 -0.5450  0.8075 -0.3904
  149OSM   C16F16574   2.044   1.917   5.863 -0.5737 -0.5768 -0.2006
  149OSM   H16F16575   2.138   1.859   5.877  1.1005  2.1912  0.8565
  149OSM   H16G16576   1.978   1.886   5.947  0.8181 -0.4844  0.9714
  149OSM   C17F16577   2.095   2.066   5.901  0.0009 -0.2190  0.3824
  149OSM   H17F16578   2.045   2.147   5.845 -1.0353 -1.2187 -0.1838
  149OSM   H17G16579   2.203   2.084   5.879 -0.3004  0.5491 -0.5483
  149OSM   C18F16580   2.081   2.095   6.056 -0.1737  0.1108  0.0605
  149OSM   H18F16581   2.180   2.091   6.107 -0.4019  0.8468  0.5838
  149OSM   H18G16582   2.001   2.031   6.099  1.5472 -1.2697  1.3464
  149OSM   H18H16583   2.058   2.203   6.070  1.1427  0.8738 -2.8463
  150OSM      N16584   5.670   3.464   3.735  0.3407  0.3153  1.0894
  150OSM    C1516585   5.586   3.434   3.854 -0.5749  0.2413 -0.3913
  150OSM   H15A16586   5.647   3.427   3.943  0.4921  2.0847 -0.9097
  150OSM   H15B16587   5.532   3.342   3.837 -0.6270  0.7600 -3.6814
  150OSM   H15C16588   5.504   3.504   3.862  0.0625  0.9447  0.2856
  150OSM    C1416589   5.574   3.464   3.613  0.0379 -0.6091  0.5434
  150OSM   H14A16590   5.500   3.541   3.629 -0.0980 -0.9500  1.6755
  150OSM   H14B16591   5.515   3.374   3.609 -1.7632  0.5384  0.2656
  150OSM   H14C16592   5.629   3.476   3.521  0.5659  3.3657  1.1857
  150OSM    C1316593   5.729   3.601   3.750 -0.5423  0.8501  1.1078
  150OSM   H13A16594   5.650   3.673   3.765  0.7335  2.2933  1.1773
  150OSM   H13B16595   5.774   3.635   3.658 -1.3398 -0.8965  0.0158
  150OSM   H13C16596   5.803   3.599   3.828  1.6703 -0.7194 -0.8838
  150OSM    C1216597   5.783   3.370   3.721  0.0774  0.7898  0.2743
  150OSM   H12A16598   5.838   3.417   3.641  0.3901 -0.4597 -0.2684
  150OSM   H12B16599   5.742   3.279   3.680 -0.4274  0.1833  2.0811
  150OSM    C1116600   5.864   3.339   3.850 -0.9556  0.1262  0.2532
  150OSM   H11A16601   5.938   3.262   3.818 -0.2717  0.5207  0.8538
  150OSM   H11B16602   5.797   3.314   3.935 -1.4559  2.9221  0.7888
  150OSM      P16603   6.090   3.485   3.839  0.2967  0.5612  0.2410
  150OSM    O1316604   6.093   3.443   3.698 -0.3952  0.3844  0.0094
  150OSM    O1416605   6.093   3.628   3.873  0.0568 -0.1397  0.3718
  150OSM    O1116606   6.201   3.398   3.920  0.5360 -0.2559  0.0160
  150OSM    O1216607   5.947   3.448   3.902  0.2703 -0.6518 -0.4820
  150OSM    C1S16608   6.220   3.432   4.059  0.4166  0.8386 -0.1307
  150OSM    H1S16609   6.218   3.543   4.071 -0.0893  0.9508 -1.0847
  150OSM    H1T16610   6.325   3.406   4.084  0.9582  0.4532 -2.5815
  150OSM     NF16611   6.138   3.408   4.293 -0.1152 -0.3001  0.3622
  150OSM    HNF16612   6.182   3.340   4.351  1.9898 -0.0159 -0.7930
  150OSM    C2S16613   6.121   3.357   4.156  0.4829  0.3242  0.2881
  150OSM    H2S16614   6.017   3.377   4.121  0.9335  0.1281 -1.2712
  150OSM    C3S16615   6.130   3.207   4.133  0.3799 -0.0604 -0.1313
  150OSM    H3S16616   6.229   3.164   4.161  0.2259 -0.3358 -0.0063
  150OSM     O316617   6.107   3.158   4.000 -0.5497  0.2071  0.6167
  150OSM    HO316618   6.118   3.237   3.946  1.3149 -0.5051 -0.1164
  150OSM    C4S16619   6.031   3.141   4.226 -0.1579 -0.3741  0.8223
  150OSM    H4S16620   5.927   3.147   4.192 -0.3887 -4.8215  0.1072
  150OSM    C5S16621   6.067   3.065   4.333 -0.4729 -0.1162 -0.1530
  150OSM    H5S16622   6.175   3.070   4.356 -0.7057  0.4677  0.8852
  150OSM    C6S16623   5.977   2.988   4.425 -0.0645  0.6529 -0.3753
  150OSM    H6S16624   5.955   2.895   4.369  1.4466 -0.0374  0.1258
  150OSM    H6T16625   5.877   3.033   4.443 -0.5370 -0.5157  0.0392
  150OSM    C7S16626   6.034   2.965   4.566 -0.2807  0.6910  0.2561
  150OSM    H7S16627   6.070   3.066   4.596 -0.5050  0.7614  0.2892
  150OSM    H7T16628   6.124   2.903   4.549 -0.7324  0.8360 -3.6842
  150OSM    C8S16629   5.930   2.900   4.656 -0.5496 -0.6169  0.6538
  150OSM    H8S16630   5.914   2.791   4.640 -0.9471 -0.3922 -0.5512
  150OSM    H8T16631   5.830   2.942   4.633  0.2633  0.6806 -0.6721
  150OSM    C9S16632   5.958   2.918   4.809  0.7535 -0.2588  0.1878
  150OSM    H9S16633   5.861   2.923   4.862  1.6217 -1.8484  2.0334
  150OSM    H9T16634   6.009   3.016   4.822 -1.8069  1.0139  1.5051
  150OSM   C10S16635   6.056   2.817   4.880 -0.2271 -0.0235 -0.1119
  150OSM   H10S16636   6.150   2.839   4.825 -0.0457  0.5289  0.4140
  150OSM   H10T16637   6.036   2.711   4.854  2.1253 -0.0674 -2.0968
  150OSM   C11S16638   6.074   2.818   5.037  0.3883  0.1805  0.4409
  150OSM   H11S16639   5.978   2.786   5.084 -0.6124  0.2294 -1.4650
  150OSM   H11T16640   6.089   2.924   5.068 -1.2483  0.1232  1.5495
  150OSM   C12S16641   6.184   2.730   5.089 -1.1603 -0.4428  0.1091
  150OSM   H12S16642   6.269   2.726   5.018 -0.5537 -2.0084  0.8842
  150OSM   H12T16643   6.143   2.627   5.091  0.5823 -1.2183 -1.5766
  150OSM   C13S16644   6.225   2.775   5.232 -0.1132  0.1407 -0.2101
  150OSM   H13S16645   6.131   2.774   5.291 -1.0913  1.4768 -1.6602
  150OSM   H13T16646   6.277   2.873   5.232  2.3026 -1.0623 -0.2248
  150OSM   C14S16647   6.315   2.664   5.293 -0.1788  0.2309 -0.8498
  150OSM   H14S16648   6.403   2.670   5.225  1.6329  0.8036  1.4288
  150OSM   H14T16649   6.262   2.569   5.271 -0.6719  0.6620 -1.5946
  150OSM   C15S16650   6.343   2.678   5.444  0.4806 -0.1272 -0.1727
  150OSM   H15S16651   6.247   2.671   5.501  0.8788 -2.6020  0.2922
  150OSM   H15T16652   6.376   2.784   5.451 -0.5534  0.3601 -2.1459
  150OSM   C16S16653   6.461   2.600   5.504  0.4728 -0.7038 -0.3624
  150OSM   H16S16654   6.546   2.628   5.438 -0.3028 -0.7161 -1.3927
  150OSM   H16T16655   6.435   2.492   5.499  0.4149 -0.6713 -0.8492
  150OSM   C17S16656   6.492   2.649   5.643 -0.9509 -0.0872  0.3970
  150OSM   H17S16657   6.512   2.759   5.645  1.7049 -0.4051 -2.3417
  150OSM   H17T16658   6.590   2.606   5.674 -0.9991 -0.0193  0.6521
  150OSM   C18S16659   6.389   2.617   5.757 -0.2330  0.9036  0.5633
  150OSM   H18S16660   6.359   2.510   5.755 -0.0296  0.8434  0.7111
  150OSM   H18T16661   6.291   2.669   5.744 -0.7973  0.2050  1.8855
  150OSM   H18U16662   6.419   2.652   5.858 -3.6179  0.5891  1.8142
  150OSM    C1F16663   6.101   3.527   4.322  0.4168  0.2863 -0.2264
  150OSM     OF16664   6.049   3.605   4.242  0.0872 -0.0532  0.3187
  150OSM    C2F16665   6.108   3.559   4.465 -0.5237 -0.2551 -0.0509
  150OSM    H2F16666   6.081   3.663   4.492  0.2511  0.1241 -0.6968
  150OSM    H2G16667   6.217   3.546   4.482 -0.1276  2.0370 -0.6272
  150OSM    C3F16668   6.031   3.458   4.549 -0.1958  0.0780 -0.9101
  150OSM    H3F16669   6.050   3.351   4.527 -0.5003 -0.2262  0.2513
  150OSM    H3G16670   5.921   3.475   4.539 -0.1389  2.6319  1.7074
  150OSM    C4F16671   6.049   3.481   4.704 -0.1072 -0.1908 -0.0559
  150OSM    H4F16672   6.016   3.585   4.725  1.1494  1.0253 -3.4394
  150OSM    H4G16673   6.158   3.461   4.713 -0.1855 -1.0052 -0.8037
  150OSM    C5F16674   5.979   3.388   4.799 -0.5784 -0.0399 -0.3998
  150OSM    H5F16675   5.993   3.284   4.763 -3.7890  0.7504 -4.7701
  150OSM    H5G16676   5.869   3.395   4.795 -0.7543 -1.0740  1.4438
  150OSM    C6F16677   6.027   3.402   4.948  0.3003 -0.4226 -0.3371
  150OSM    H6F16678   5.985   3.496   4.989  3.1204  0.7800  0.0791
  150OSM    H6G16679   6.136   3.424   4.954  0.3076 -0.2850 -0.9010
  150OSM    C7F16680   6.004   3.281   5.030  0.5108  1.6811 -0.0504
  150OSM    H7F16681   6.065   3.195   4.994  1.9822  3.1667 -1.2552
  150OSM    H7G16682   5.897   3.262   5.010  0.3764  1.9399  0.4072
  150OSM    C8F16683   6.029   3.288   5.183  0.0891  0.2316 -0.1583
  150OSM    H8F16684   5.955   3.363   5.215 -0.6995  0.5550 -2.5591
  150OSM    H8G16685   6.133   3.317   5.211 -0.0827  1.5406 -0.8186
  150OSM    C9F16686   5.995   3.154   5.246  0.2493 -0.2930 -0.5471
  150OSM    H9F16687   5.909   3.110   5.195 -1.2813  1.5930  0.2430
  150OSM   C10F16688   6.066   3.089   5.348 -0.2877  0.3605 -0.1145
  150OSM   H10F16689   6.040   2.992   5.391 -0.3335  1.1333  1.6934
  150OSM   C11F16690   6.190   3.151   5.404 -0.9714 -0.3833 -0.1324
  150OSM   H11F16691   6.168   3.257   5.428  0.1897  0.4768 -2.5870
  150OSM   H11G16692   6.277   3.160   5.336 -0.2714 -1.2324  0.6339
  150OSM   C12F16693   6.232   3.078   5.536 -0.5730  1.1231 -0.6111
  150OSM   H12F16694   6.230   2.969   5.514 -2.1806  1.2711 -1.3623
  150OSM   H12G16695   6.143   3.088   5.602  0.2939  4.2055  0.2153
  150OSM   C13F16696   6.365   3.124   5.601 -0.3916 -0.4654  0.3441
  150OSM   H13F16697   6.365   3.226   5.644 -1.0217  0.0306 -0.8021
  150OSM   H13G16698   6.445   3.118   5.525 -0.7736  0.2981 -0.1287
  150OSM   C14F16699   6.401   3.027   5.709  0.4170 -0.3216 -0.2257
  150OSM   H14F16700   6.400   2.921   5.674  4.4636 -0.8777  0.7601
  150OSM   H14G16701   6.338   3.039   5.799  0.7256  2.2392 -0.2939
  150OSM   C15F16702   6.543   3.058   5.761 -0.3940 -0.5298 -0.4060
  150OSM   H15F16703   6.545   3.162   5.799  0.1913 -0.8408  0.4440
  150OSM   H15G16704   6.621   3.049   5.682  2.9048 -1.4338  2.7241
  150OSM   C16F16705   6.573   2.973   5.884 -0.0662 -0.9928  0.4264
  150OSM   H16F16706   6.642   2.888   5.866  0.8033 -0.4056  0.9156
  150OSM   H16G16707   6.478   2.934   5.928  0.5177  0.2140  2.8923
  150OSM   C17F16708   6.640   3.059   5.988  0.1050  0.4441  0.0404
  150OSM   H17F16709   6.646   3.013   6.089  2.0000 -2.2101 -1.1519
  150OSM   H17G16710   6.589   3.156   6.000  0.0503  0.4893 -0.5279
  150OSM   C18F16711   6.786   3.082   5.948 -0.0450  0.1770  0.9468
  150OSM   H18F16712   6.824   3.154   6.023 -2.0015  1.0415  1.1759
  150OSM   H18G16713   6.774   3.136   5.852 -1.4297 -1.2348  0.2790
  150OSM   H18H16714   6.846   2.989   5.938  1.1729  1.0266  0.1270
  151OSM      N16715   5.610   1.361   3.870 -0.0324 -0.0592  0.1352
  151OSM    C1516716   5.531   1.403   3.993 -0.6249  0.1791 -1.0367
  151OSM   H15A16717   5.476   1.493   3.968  0.2409  0.7233 -1.0624
  151OSM   H15B16718   5.609   1.419   4.066 -0.3825  1.2088 -1.4986
  151OSM   H15C16719   5.456   1.330   4.019  0.0197 -0.0039  0.3975
  151OSM    C1416720   5.525   1.341   3.745 -0.1112 -0.1046 -0.7544
  151OSM   H14A16721   5.472   1.426   3.704 -1.3307 -0.2499  0.4429
  151OSM   H14B16722   5.447   1.269   3.767 -0.7449  1.0778  1.0481
  151OSM   H14C16723   5.582   1.314   3.657 -1.5537 -0.9223 -1.4869
  151OSM    C1316724   5.701   1.471   3.849 -0.5988 -0.6618  0.0481
  151OSM   H13A16725   5.642   1.561   3.860  0.0810 -0.3888  1.7802
  151OSM   H13B16726   5.732   1.468   3.745 -1.6429 -0.7248 -0.2756
  151OSM   H13C16727   5.793   1.472   3.906 -1.6797  2.9272  2.0450
  151OSM    C1216728   5.681   1.231   3.903  0.6242 -0.1859  0.0295
  151OSM   H12A16729   5.609   1.151   3.903  0.5182 -0.1048  0.8122
  151OSM   H12B16730   5.722   1.243   4.002 -2.1052  1.6126  1.0602
  151OSM    C1116731   5.811   1.200   3.822 -0.3752 -0.3575 -0.4951
  151OSM   H11A16732   5.785   1.210   3.715 -2.8085  1.3920  0.1788
  151OSM   H11B16733   5.830   1.092   3.842 -4.8060 -1.3673 -0.6922
  151OSM      P16734   5.999   1.286   3.984  0.0801 -0.3218  0.5254
  151OSM    O1316735   6.101   1.184   3.972 -0.3738  0.4354 -0.4284
  151OSM    O1416736   6.052   1.425   4.004  0.2214  0.2759  0.1847
  151OSM    O1116737   5.887   1.250   4.082  0.1301 -0.3037  0.1256
  151OSM    O1216738   5.916   1.296   3.851 -0.4637  0.2081  0.3474
  151OSM    C1S16739   5.908   1.251   4.225 -0.6216  0.1362  0.1889
  151OSM    H1S16740   5.919   1.358   4.253 -1.1536  0.8735 -2.1661
  151OSM    H1T16741   6.001   1.196   4.251 -0.8506 -0.3370  0.0173
  151OSM     NF16742   5.829   1.209   4.465  0.0353  0.8162 -0.5939
  151OSM    HNF16743   5.861   1.126   4.510 -4.8983 -1.5383 -0.7420
  151OSM    C2S16744   5.791   1.194   4.316 -0.6753 -0.3176 -0.2725
  151OSM    H2S16745   5.705   1.263   4.300 -0.8260 -1.1799 -4.2070
  151OSM    C3S16746   5.756   1.048   4.279 -0.4501 -0.1381  0.4032
  151OSM    H3S16747   5.836   0.979   4.315  0.2528  1.1482  1.3614
  151OSM     O316748   5.748   1.022   4.139  0.3108  0.3181 -0.2833
  151OSM    HO316749   5.802   1.092   4.102  2.1035 -2.9794 -4.7381
  151OSM    C4S16750   5.626   0.999   4.341 -0.3746 -0.0093  0.3877
  151OSM    H4S16751   5.535   1.054   4.315 -0.8490  0.2693  2.4613
  151OSM    C5S16752   5.600   0.884   4.405  0.1110 -0.0029 -0.2459
  151OSM    H5S16753   5.679   0.808   4.412  0.8979  0.8799  1.0157
  151OSM    C6S16754   5.464   0.833   4.447  0.5140  0.6107 -0.5713
  151OSM    H6S16755   5.431   0.743   4.391  0.2525  0.4467 -0.1582
  151OSM    H6T16756   5.390   0.913   4.426 -0.5040 -0.7619 -2.5259
  151OSM    C7S16757   5.451   0.808   4.601 -0.5437 -0.7780  0.0419
  151OSM    H7S16758   5.348   0.815   4.642 -0.7543 -1.0973 -0.4297
  151OSM    H7T16759   5.503   0.890   4.656 -1.1269 -0.2320 -0.2077
  151OSM    C8S16760   5.528   0.685   4.651 -0.1264 -0.0909  0.0409
  151OSM    H8S16761   5.636   0.697   4.628 -0.6317  1.0837 -1.9984
  151OSM    H8T16762   5.492   0.598   4.593  2.0027 -2.4589  2.0361
  151OSM    C9S16763   5.495   0.667   4.797  0.0616 -0.4090 -0.1930
  151OSM    H9S16764   5.513   0.561   4.824 -0.3936 -1.0168 -2.1439
  151OSM    H9T16765   5.387   0.683   4.819  0.4887 -0.3627  2.1762
  151OSM   C10S16766   5.578   0.760   4.884 -0.1029  0.2504 -0.4213
  151OSM   H10S16767   5.554   0.867   4.864 -0.0728  0.7005  1.6535
  151OSM   H10T16768   5.687   0.739   4.873 -0.7510 -5.3840  1.0093
  151OSM   C11S16769   5.549   0.757   5.040  0.0343 -0.0108  0.1570
  151OSM   H11S16770   5.605   0.844   5.080  0.3311 -0.7718  1.4640
  151OSM   H11T16771   5.582   0.664   5.092  0.3940 -0.4109 -0.7560
  151OSM   C12S16772   5.402   0.781   5.087  0.3040 -0.0480  0.3617
  151OSM   H12S16773   5.349   0.863   5.035 -0.0269 -0.3100  0.2826
  151OSM   H12T16774   5.405   0.809   5.195 -1.1215 -0.8516  0.6323
  151OSM   C13S16775   5.303   0.660   5.084 -0.0455  0.9932  0.6784
  151OSM   H13S16776   5.263   0.639   4.982  0.2741 -0.8390  0.9018
  151OSM   H13T16777   5.215   0.689   5.145 -0.7807 -0.0228  0.1220
  151OSM   C14S16778   5.356   0.529   5.151  0.4065  0.8595 -0.4474
  151OSM   H14S16779   5.444   0.489   5.097  0.8028  1.4687 -0.2694
  151OSM   H14T16780   5.279   0.451   5.132  0.2071  0.4368  1.8412
  151OSM   C15S16781   5.379   0.545   5.302 -0.2641 -0.0235  0.4744
  151OSM   H15S16782   5.287   0.595   5.339 -1.7341 -1.5586 -0.9526
  151OSM   H15T16783   5.470   0.609   5.309  0.8650 -1.2097 -1.9540
  151OSM   C16S16784   5.394   0.412   5.380 -0.4331  0.7109 -0.0972
  151OSM   H16S16785   5.485   0.363   5.341  0.0533  1.0755  0.5642
  151OSM   H16T16786   5.309   0.342   5.362 -0.1081  0.2619  0.0934
  151OSM   C17S16787   5.400   0.443   5.529  0.0311 -0.2204 -0.0857
  151OSM   H17S16788   5.299   0.481   5.554  0.8380  0.0713  3.2858
  151OSM   H17T16789   5.477   0.524   5.538  0.9291 -0.8045 -2.0160
  151OSM   C18S16790   5.435   0.316   5.600  0.0616 -0.1075 -0.4547
  151OSM   H18S16791   5.393   0.224   5.555 -0.8754  0.6458 -1.1785
  151OSM   H18T16792   5.415   0.324   5.709 -0.4643 -2.9754 -0.2586
  151OSM   H18U16793   5.544   0.303   5.586  0.1184 -0.5805  0.3696
  151OSM    C1F16794   5.834   1.330   4.518 -0.1741 -0.0992 -0.3094
  151OSM     OF16795   5.792   1.434   4.466 -0.0974  0.2927  0.7212
  151OSM    C2F16796   5.891   1.333   4.656  0.0644  0.0845 -0.0205
  151OSM    H2F16797   5.944   1.430   4.666  3.6305 -1.7313  0.3959
  151OSM    H2G16798   5.969   1.254   4.666  0.6510  0.4310 -1.6148
  151OSM    C3F16799   5.783   1.291   4.758  0.2136  0.0994  1.4997
  151OSM    H3F16800   5.736   1.194   4.731  1.1564 -0.6182  2.3447
  151OSM    H3G16801   5.715   1.378   4.768  0.7223  0.3723  2.8934
  151OSM    C4F16802   5.836   1.261   4.902 -0.7143  0.0681  0.2198
  151OSM    H4F16803   5.854   1.365   4.935  1.2035 -0.3853  0.6888
  151OSM    H4G16804   5.918   1.186   4.893  1.2655  2.2536 -0.9926
  151OSM    C5F16805   5.728   1.199   4.995 -0.0947  0.1591  0.6240
  151OSM    H5F16806   5.775   1.206   5.096  2.0113 -2.7699 -0.0356
  151OSM    H5G16807   5.712   1.094   4.964  0.1983  0.2531  0.1375
  151OSM    C6F16808   5.588   1.264   4.983  0.8176  0.2679  0.1691
  151OSM    H6F16809   5.530   1.217   4.901 -1.6417  0.5099  1.6652
  151OSM    H6G16810   5.596   1.371   4.954  0.2934  0.3483  0.3124
  151OSM    C7F16811   5.507   1.263   5.113  0.1593 -0.5773 -0.4071
  151OSM    H7F16812   5.417   1.324   5.090  1.1502  1.8277  1.7304
  151OSM    H7G16813   5.567   1.318   5.188 -1.3460 -0.0941  0.4897
  151OSM    C8F16814   5.458   1.120   5.169 -0.6538  0.6551 -0.2796
  151OSM    H8F16815   5.540   1.049   5.196 -0.6443  1.2082  1.2041
  151OSM    H8G16816   5.408   1.074   5.081  1.2137  0.5308 -1.3436
  151OSM    C9F16817   5.376   1.138   5.293 -0.0732  0.4109  0.3821
  151OSM    H9F16818   5.436   1.173   5.379 -0.5269  2.5709 -0.1267
  151OSM   C10F16819   5.250   1.112   5.309 -0.1888 -0.4576 -0.5270
  151OSM   H10F16820   5.206   1.120   5.409  0.7386  0.7481 -0.1942
  151OSM   C11F16821   5.149   1.074   5.208 -0.0287 -0.2219 -0.1662
  151OSM   H11F16822   5.190   1.062   5.105 -2.9317  0.8582 -1.5800
  151OSM   H11G16823   5.085   1.163   5.189 -0.7063 -0.8523 -0.9617
  151OSM   C12F16824   5.067   0.955   5.244 -0.0174  0.2297 -0.3942
  151OSM   H12F16825   5.127   0.868   5.210  2.3723  0.7465  2.0891
  151OSM   H12G16826   4.973   0.976   5.189  0.5696  1.8203 -0.8584
  151OSM   C13F16827   5.029   0.924   5.389  0.8120  0.8389  0.3623
  151OSM   H13F16828   4.965   1.008   5.424 -3.3530 -0.6660 -2.8395
  151OSM   H13G16829   5.123   0.916   5.449  1.0616  0.8872 -0.0205
  151OSM   C14F16830   4.941   0.799   5.408  0.1075 -0.8902  0.4808
  151OSM   H14F16831   4.873   0.804   5.320  2.1798 -0.8081 -1.2182
  151OSM   H14G16832   4.881   0.805   5.501 -1.7492  1.0642 -0.7345
  151OSM   C15F16833   5.028   0.670   5.414 -0.0367 -0.0824 -1.0042
  151OSM   H15F16834   5.087   0.669   5.508 -0.3421 -0.0215 -0.8112
  151OSM   H15G16835   5.094   0.679   5.325 -0.8552 -0.6395 -1.6794
  151OSM   C16F16836   4.928   0.556   5.409 -0.0941  0.1385  0.2834
  151OSM   H16F16837   4.847   0.573   5.334 -1.7670  1.2437  2.2212
  151OSM   H16G16838   4.870   0.555   5.504 -0.8108 -0.8791 -0.1417
  151OSM   C17F16839   5.002   0.427   5.408  0.5887  0.4445  0.4334
  151OSM   H17F16840   4.942   0.346   5.455  1.8428 -0.7017  0.1443
  151OSM   H17G16841   5.085   0.422   5.481 -0.1799  0.0112  1.2863
  151OSM   C18F16842   5.033   0.382   5.267 -0.1797  0.6370 -0.4248
  151OSM   H18F16843   5.112   0.304   5.271  0.4724  1.2987  2.9504
  151OSM   H18G16844   5.080   0.464   5.209 -0.0653  0.1442 -1.0330
  151OSM   H18H16845   4.946   0.346   5.209  0.1938 -1.9535  0.4860
  152OSM      N16846   1.329   3.884   3.840 -0.2799 -0.1076  0.3566
  152OSM    C1516847   1.302   3.807   3.715 -0.7589 -0.2916 -0.1312
  152OSM   H15A16848   1.271   3.706   3.739  0.9165 -0.7922  0.0892
  152OSM   H15B16849   1.391   3.803   3.653  0.1799  0.7505  1.1067
  152OSM   H15C16850   1.222   3.845   3.653 -1.9414 -1.7830  0.4059
  152OSM    C1416851   1.458   3.830   3.902 -0.1746  0.3315 -0.2597
  152OSM   H14A16852   1.436   3.737   3.953  0.2258  0.4939  0.2119
  152OSM   H14B16853   1.495   3.898   3.977  1.6651  0.5889 -1.3670
  152OSM   H14C16854   1.536   3.820   3.829 -0.6944 -0.0361 -0.7795
  152OSM    C1316855   1.363   4.023   3.789  0.0956  0.1371  0.5597
  152OSM   H13A16856   1.274   4.070   3.751 -0.9018 -1.8248  0.3393
  152OSM   H13B16857   1.445   4.029   3.719 -0.0149  2.6740  0.5532
  152OSM   H13C16858   1.389   4.089   3.870 -0.1367  0.7398  0.1508
  152OSM    C1216859   1.211   3.884   3.937  0.9179  0.3221 -0.4824
  152OSM   H12A16860   1.127   3.911   3.876  0.8965 -1.9072 -1.4919
  152OSM   H12B16861   1.237   3.940   4.027  1.4741 -1.3615  0.4409
  152OSM    C1116862   1.171   3.754   4.017 -0.1869 -0.1376  0.1280
  152OSM   H11A16863   1.079   3.719   3.967 -0.2698 -0.4616  0.5010
  152OSM   H11B16864   1.142   3.770   4.123  1.9234  1.1517  0.5814
  152OSM      P16865   1.276   3.520   3.932  0.1620  0.3603  0.1038
  152OSM    O1316866   1.220   3.537   3.799 -0.1071  0.8941  0.3652
  152OSM    O1416867   1.417   3.475   3.941  0.0811  0.2674  0.3592
  152OSM    O1116868   1.188   3.424   4.013 -0.3373 -0.0081  0.2690
  152OSM    O1216869   1.271   3.653   4.018 -0.6894  0.0980  0.1851
  152OSM    C1S16870   1.220   3.394   4.145  0.3074  0.3219  0.5715
  152OSM    H1S16871   1.328   3.408   4.167  0.6259 -1.1865  0.0668
  152OSM    H1T16872   1.187   3.291   4.169 -1.8475 -0.1087 -3.4046
  152OSM     NF16873   1.196   3.409   4.394  0.5533  0.1993  0.6039
  152OSM    HNF16874   1.139   3.349   4.449  1.6543 -0.5899  0.9187
  152OSM    C2S16875   1.142   3.457   4.269 -0.2034  0.0618 -0.3838
  152OSM    H2S16876   1.164   3.566   4.257 -1.5708  0.4995  0.8694
  152OSM    C3S16877   0.991   3.439   4.250  0.8572 -0.0315 -0.1082
  152OSM    H3S16878   0.963   3.332   4.242  0.3589  0.2308 -2.2718
  152OSM     O316879   0.942   3.488   4.128 -0.5508  0.0473 -0.2076
  152OSM    HO316880   1.022   3.493   4.075  0.1430 -2.1431  0.5595
  152OSM    C4S16881   0.914   3.504   4.360  0.7309  0.6935 -0.2792
  152OSM    H4S16882   0.870   3.429   4.428 -0.1696 -1.7890 -3.3939
  152OSM    C5S16883   0.877   3.630   4.368 -0.7324 -0.6939 -0.4764
  152OSM    H5S16884   0.902   3.703   4.289  0.2615 -0.9680 -0.4382
  152OSM    C6S16885   0.788   3.679   4.484  0.5503  0.1346  0.7376
  152OSM    H6S16886   0.679   3.688   4.462  0.8027  0.6530 -0.3605
  152OSM    H6T16887   0.819   3.784   4.503  0.4024 -0.0053  1.8033
  152OSM    C7S16888   0.803   3.593   4.610  0.3680  0.3900 -0.3104
  152OSM    H7S16889   0.910   3.592   4.641  0.3197 -0.5236 -0.1362
  152OSM    H7T16890   0.754   3.493   4.606 -0.9838  1.0031  0.2254
  152OSM    C8S16891   0.738   3.661   4.738  0.0863 -0.0456 -0.1080
  152OSM    H8S16892   0.776   3.590   4.814  2.0259  0.2409 -0.7515
  152OSM    H8T16893   0.627   3.656   4.742  0.0482  0.8951  0.3694
  152OSM    C9S16894   0.793   3.803   4.775 -0.2719  0.2018 -0.5929
  152OSM    H9S16895   0.766   3.876   4.696 -0.8003  0.3739 -0.2640
  152OSM    H9T16896   0.903   3.798   4.782 -0.3821 -2.5872  0.3543
  152OSM   C10S16897   0.747   3.850   4.915 -0.4187  0.7697  0.2191
  152OSM   H10S16898   0.764   3.765   4.985 -1.0866  0.4820  0.0416
  152OSM   H10T16899   0.639   3.876   4.906 -0.6056 -0.5072 -2.1269
  152OSM   C11S16900   0.829   3.965   4.971  0.2197  0.0092 -0.0122
  152OSM   H11S16901   0.937   3.945   4.956  0.7634  0.2488  3.0137
  152OSM   H11T16902   0.808   3.988   5.078 -0.5875 -1.4455  0.1643
  152OSM   C12S16903   0.802   4.101   4.900  0.5794  0.1218  0.2688
  152OSM   H12S16904   0.860   4.113   4.806 -0.2338  0.2338 -0.2322
  152OSM   H12T16905   0.828   4.190   4.960 -0.5624 -0.5243  1.7766
  152OSM   C13S16906   0.643   4.122   4.873 -0.5364  0.0289 -0.1981
  152OSM   H13S16907   0.592   4.100   4.970  0.4041 -1.2492  0.0462
  152OSM   H13T16908   0.614   4.039   4.805  2.3749 -1.0792 -0.2599
  152OSM   C14S16909   0.618   4.253   4.802 -0.2049 -0.1378 -0.0800
  152OSM   H14S16910   0.683   4.253   4.711  0.1023  0.2270  0.1370
  152OSM   H14T16911   0.647   4.346   4.856  2.0077 -0.3086 -0.8943
  152OSM   C15S16912   0.466   4.273   4.774  0.1646 -0.4020  0.3521
  152OSM   H15S16913   0.408   4.285   4.868 -2.7240  0.4790 -1.3978
  152OSM   H15T16914   0.434   4.176   4.729 -1.0963  0.5018 -0.7867
  152OSM   C16S16915   0.427   4.393   4.684  0.1913  0.0830 -0.1848
  152OSM   H16S16916   0.504   4.421   4.610 -1.0072  1.0732 -1.0986
  152OSM   H16T16917   0.425   4.478   4.756  0.1230  0.1592 -0.2768
  152OSM   C17S16918   0.294   4.368   4.619 -0.4360  0.2985 -0.3896
  152OSM   H17S16919   0.230   4.328   4.700 -0.6849  2.3758  0.4976
  152OSM   H17T16920   0.299   4.286   4.544  2.7129 -0.6251  0.6479
  152OSM   C18S16921   0.237   4.489   4.552  0.1392  0.4486  0.0054
  152OSM   H18S16922   0.145   4.469   4.493  1.1817 -0.7109 -1.3139
  152OSM   H18T16923   0.312   4.525   4.478 -1.9275 -1.5699 -3.3305
  152OSM   H18U16924   0.209   4.565   4.628  3.1560  0.9356  0.7384
  152OSM    C1F16925   1.317   3.440   4.427  0.3302 -0.5910 -0.1634
  152OSM     OF16926   1.380   3.525   4.363 -0.0803  0.4136 -0.5035
  152OSM    C2F16927   1.381   3.368   4.543 -0.1730  0.2862 -0.0789
  152OSM    H2F16928   1.446   3.297   4.488  1.4673  2.1004 -0.5820
  152OSM    H2G16929   1.300   3.310   4.593  0.1598 -0.3461 -0.2669
  152OSM    C3F16930   1.439   3.466   4.640 -0.2290  0.1019  0.1199
  152OSM    H3F16931   1.351   3.506   4.696 -1.8176  1.7702 -3.2853
  152OSM    H3G16932   1.482   3.559   4.598  0.7150 -0.6064 -0.5141
  152OSM    C4F16933   1.551   3.404   4.726 -0.5618 -0.7189 -0.6019
  152OSM    H4F16934   1.642   3.408   4.662  0.1718 -0.8199  0.4182
  152OSM    H4G16935   1.518   3.301   4.753 -1.5186 -0.2919 -0.0632
  152OSM    C5F16936   1.571   3.496   4.839  0.0639 -0.4609 -0.4194
  152OSM    H5F16937   1.481   3.550   4.875  0.0539 -1.7360  1.6601
  152OSM    H5G16938   1.642   3.573   4.804 -0.4262  0.5895  0.8162
  152OSM    C6F16939   1.644   3.424   4.964 -0.1867  0.4227 -0.6395
  152OSM    H6F16940   1.704   3.499   5.019 -0.0028  0.3136 -0.6890
  152OSM    H6G16941   1.714   3.346   4.926  2.2155  1.1505  1.9588
  152OSM    C7F16942   1.548   3.366   5.064  0.7066 -0.1885 -0.4071
  152OSM    H7F16943   1.488   3.300   4.998  1.9152  2.5778 -4.6109
  152OSM    H7G16944   1.476   3.444   5.098 -1.2270 -2.0135 -0.0991
  152OSM    C8F16945   1.612   3.289   5.188  0.1581  0.5631  0.0095
  152OSM    H8F16946   1.666   3.208   5.135  0.0423  0.8660 -0.5783
  152OSM    H8G16947   1.526   3.253   5.249  0.7463  1.4092  1.3955
  152OSM    C9F16948   1.708   3.362   5.279  0.7534  0.4627  0.1718
  152OSM    H9F16949   1.748   3.454   5.236  0.6495  0.5421  0.2451
  152OSM   C10F16950   1.740   3.322   5.406  0.4315  0.0530  0.5890
  152OSM   H10F16951   1.818   3.376   5.462 -0.7656 -1.0972  3.6022
  152OSM   C11F16952   1.700   3.186   5.461  0.8432  0.2851  0.2741
  152OSM   H11F16953   1.792   3.128   5.480 -0.0963 -1.5128 -0.4006
  152OSM   H11G16954   1.635   3.125   5.394  0.0895 -1.3313  2.3570
  152OSM   C12F16955   1.619   3.211   5.590  0.5516 -0.1005 -0.3080
  152OSM   H12F16956   1.530   3.269   5.559  0.0382 -0.6441  0.1397
  152OSM   H12G16957   1.662   3.276   5.669  1.9069  1.1152 -1.9505
  152OSM   C13F16958   1.581   3.078   5.658  0.3918  0.0211 -0.5098
  152OSM   H13F16959   1.503   3.033   5.593 -0.5534  0.5992  0.1923
  152OSM   H13G16960   1.539   3.105   5.757 -0.1941 -0.0153 -0.7445
  152OSM   C14F16961   1.683   2.970   5.678 -0.1931  0.2102  0.0461
  152OSM   H14F16962   1.776   3.003   5.730  0.2129 -0.4646 -0.2438
  152OSM   H14G16963   1.714   2.933   5.578 -1.2271 -1.5076  0.3254
  152OSM   C15F16964   1.627   2.852   5.755 -0.3291 -0.1797  0.4013
  152OSM   H15F16965   1.713   2.782   5.758  0.2612  0.3898 -1.3385
  152OSM   H15G16966   1.545   2.804   5.697 -0.3030  0.2880 -0.0367
  152OSM   C16F16967   1.589   2.874   5.897  0.1897  0.4815 -0.0903
  152OSM   H16F16968   1.511   2.953   5.904  1.2086  1.4785  0.2687
  152OSM   H16G16969   1.679   2.913   5.949  0.5065 -0.0456 -0.2463
  152OSM   C17F16970   1.525   2.744   5.953  1.1171  0.2335  0.9128
  152OSM   H17F16971   1.589   2.660   5.922  0.7618  1.2036 -3.0126
  152OSM   H17G16972   1.440   2.718   5.887  1.5436  0.9430  0.0724
  152OSM   C18F16973   1.475   2.741   6.098 -0.1722 -0.6703 -0.5690
  152OSM   H18F16974   1.447   2.844   6.128  2.5673 -0.8276  3.1345
  152OSM   H18G16975   1.562   2.719   6.163  2.7878  1.6210 -3.4420
  152OSM   H18H16976   1.390   2.669   6.105  0.4028 -1.1669  2.2634
  153OSM      N16977   0.564   4.529   3.926  0.0638  0.1146  0.3604
  153OSM    C1516978   0.652   4.468   3.824  0.1782 -0.3010 -0.3914
  153OSM   H15A16979   0.758   4.476   3.845  0.0569 -3.2500  1.9652
  153OSM   H15B16980   0.636   4.524   3.733  0.2615  1.9289  0.8820
  153OSM   H15C16981   0.636   4.363   3.808  0.7645 -0.3005 -1.0274
  153OSM    C1416982   0.437   4.581   3.859  0.1089  0.2062 -0.3678
  153OSM   H14A16983   0.380   4.507   3.806  0.1688  0.8395 -1.3491
  153OSM   H14B16984   0.463   4.656   3.786 -0.1470  1.0989  0.4392
  153OSM   H14C16985   0.387   4.625   3.944  0.0892  1.1088 -0.8270
  153OSM    C1316986   0.528   4.431   4.030  0.1943  0.0803 -0.3841
  153OSM   H13A16987   0.461   4.476   4.101  0.7960 -3.2894  2.6031
  153OSM   H13B16988   0.610   4.395   4.090  0.8864 -0.9122 -1.8443
  153OSM   H13C16989   0.477   4.345   3.989  0.0058 -0.5026  1.0442
  153OSM    C1216990   0.641   4.651   3.988 -0.4045  0.0432 -0.3927
  153OSM   H12A16991   0.570   4.698   4.054 -0.3213 -0.2962 -0.0587
  153OSM   H12B16992   0.651   4.726   3.910  0.0559 -1.3438 -1.7036
  153OSM    C1116993   0.767   4.625   4.069 -0.4413 -0.3624 -0.2780
  153OSM   H11A16994   0.751   4.549   4.149  0.4075  0.4008  0.6506
  153OSM   H11B16995   0.794   4.718   4.123 -1.2000  0.1380 -0.7462
  153OSM      P16996   0.945   4.685   3.892 -0.1889 -0.6738  0.0254
  153OSM    O1316997   0.952   4.624   3.756 -0.6028 -1.0105 -0.3879
  153OSM    O1416998   0.884   4.822   3.909 -0.6800 -0.2386 -0.3819
  153OSM    O1116999   1.091   4.684   3.957  0.0528 -0.7170 -0.3331
  153OSM    O1217000   0.870   4.581   3.985 -0.1476  0.2118 -0.1740
  153OSM    C1S17001   1.141   4.764   4.060  0.1794 -0.2628  0.7788
  153OSM    H1S17002   1.093   4.863   4.056  1.9322  0.5838 -0.5311
  153OSM    H1T17003   1.248   4.791   4.049  0.2342 -0.4915  0.7282
  153OSM     NF17004   1.158   4.782   4.304 -0.3488  1.2795 -0.1571
  153OSM    HNF17005   1.251   4.788   4.340 -1.1506  0.6936  2.2132
  153OSM    C2S17006   1.114   4.688   4.196 -0.0456  0.8114  0.1915
  153OSM    H2S17007   1.006   4.667   4.213  0.4572 -0.3893  2.2037
  153OSM    C3S17008   1.197   4.552   4.187 -0.2743  0.0852 -1.0067
  153OSM    H3S17009   1.304   4.572   4.167 -0.1747  1.9106  0.9333
  153OSM     O317010   1.152   4.460   4.090  0.8081 -0.7730 -0.3970
  153OSM    HO317011   1.107   4.507   4.020  0.4550 -1.2092 -0.4721
  153OSM    C4S17012   1.196   4.484   4.323  0.1058 -0.1523 -0.2174
  153OSM    H4S17013   1.266   4.540   4.386 -0.2174 -0.1545  0.1498
  153OSM    C5S17014   1.146   4.366   4.369  0.2090 -0.5200  0.9437
  153OSM    H5S17015   1.083   4.311   4.297  0.1860  0.5762  0.1091
  153OSM    C6S17016   1.171   4.312   4.508 -0.1106 -0.6673  0.1472
  153OSM    H6S17017   1.161   4.201   4.505  0.1048 -0.6916  0.2883
  153OSM    H6T17018   1.088   4.347   4.573 -0.0684 -1.2004  0.4969
  153OSM    C7S17019   1.314   4.360   4.569  0.0072  0.0339 -0.6914
  153OSM    H7S17020   1.309   4.468   4.594  0.0265 -0.4425  1.6484
  153OSM    H7T17021   1.394   4.342   4.494 -0.9919 -0.2035 -1.7074
  153OSM    C8S17022   1.354   4.281   4.699  0.2891  0.2325  0.0717
  153OSM    H8S17023   1.438   4.325   4.756  0.7749  2.2732 -2.0276
  153OSM    H8T17024   1.390   4.178   4.679  3.4010  1.0465  0.9554
  153OSM    C9S17025   1.234   4.282   4.802 -0.4961  0.6725 -0.2576
  153OSM    H9S17026   1.144   4.258   4.741  0.5262  0.3673 -1.7136
  153OSM    H9T17027   1.214   4.375   4.859  1.5468  1.5396 -0.8490
  153OSM   C10S17028   1.248   4.178   4.919 -0.7469 -0.0577  0.0402
  153OSM   H10S17029   1.344   4.209   4.964  0.1706 -2.1434 -0.3476
  153OSM   H10T17030   1.254   4.077   4.873  0.0991  0.0360 -0.0749
  153OSM   C11S17031   1.151   4.190   5.033 -0.1499  0.0877  0.6940
  153OSM   H11S17032   1.050   4.154   5.007 -0.8992  1.9886  0.7986
  153OSM   H11T17033   1.141   4.298   5.060 -0.2039 -0.5050  3.3442
  153OSM   C12S17034   1.201   4.144   5.168 -0.0303  0.4515 -0.1353
  153OSM   H12S17035   1.260   4.225   5.215  1.2981 -0.7900  0.4153
  153OSM   H12T17036   1.248   4.043   5.162 -1.3470 -0.3238  1.5356
  153OSM   C13S17037   1.073   4.117   5.258  0.0106 -0.3993 -0.2911
  153OSM   H13S17038   1.103   4.059   5.348 -1.3674 -0.7355 -0.0243
  153OSM   H13T17039   1.003   4.053   5.201 -0.6093 -0.1392  0.1735
  153OSM   C14S17040   1.010   4.252   5.305  0.3477 -0.9310  0.0170
  153OSM   H14S17041   0.967   4.311   5.222  2.4751 -1.0265 -1.2241
  153OSM   H14T17042   1.088   4.312   5.358 -0.5356 -1.1793  1.6720
  153OSM   C15S17043   0.907   4.225   5.419 -0.3363  0.8117  0.4381
  153OSM   H15S17044   0.964   4.168   5.495  1.1276  2.1407  0.3987
  153OSM   H15T17045   0.823   4.166   5.376  1.1800  0.8772 -2.8636
  153OSM   C16S17046   0.844   4.346   5.492  0.1109 -0.4719 -0.8289
  153OSM   H16S17047   0.781   4.307   5.575 -0.0032  2.1201  0.3884
  153OSM   H16T17048   0.767   4.404   5.437 -1.8080 -1.6771  0.4826
  153OSM   C17S17049   0.942   4.450   5.556  0.0750  0.3594  0.1948
  153OSM   H17S17050   0.880   4.528   5.604 -1.0138 -0.6700  0.5207
  153OSM   H17T17051   1.004   4.489   5.472 -0.1849  0.0898 -0.1259
  153OSM   C18S17052   1.047   4.399   5.660 -0.4337  0.6331  0.7407
  153OSM   H18S17053   1.121   4.475   5.694  0.7206 -1.2767  2.7385
  153OSM   H18T17054   1.103   4.310   5.624  0.1772  1.1107  0.4696
  153OSM   H18U17055   0.995   4.360   5.750 -1.4181 -1.6640 -0.7381
  153OSM    C1F17056   1.087   4.888   4.340  1.0820  0.1978 -0.0615
  153OSM     OF17057   0.990   4.922   4.265 -0.3131 -0.7676 -0.1619
  153OSM    C2F17058   1.127   4.958   4.467 -0.0236 -0.2599 -0.1287
  153OSM    H2F17059   1.193   5.044   4.441  1.2842 -1.1539  0.1161
  153OSM    H2G17060   1.178   4.886   4.535 -0.0794 -1.2341 -1.0857
  153OSM    C3F17061   0.998   5.023   4.527  0.1606  0.1701 -0.2406
  153OSM    H3F17062   0.925   4.941   4.545  1.7162 -1.0204  0.9868
  153OSM    H3G17063   0.950   5.092   4.455 -3.3235 -3.6693 -2.0621
  153OSM    C4F17064   1.028   5.084   4.662  0.2039 -0.4357 -0.5684
  153OSM    H4F17065   1.075   5.181   4.637 -1.7721  0.3254 -1.5451
  153OSM    H4G17066   1.097   5.013   4.713  0.8822  0.5485 -0.0978
  153OSM    C5F17067   0.914   5.102   4.758 -0.0933 -0.1830 -0.0904
  153OSM    H5F17068   0.883   5.004   4.802 -1.0301  0.1709  0.0526
  153OSM    H5G17069   0.827   5.130   4.694  0.8313 -0.9536 -1.7788
  153OSM    C6F17070   0.934   5.204   4.873  0.3553 -0.0121  0.4046
  153OSM    H6F17071   0.948   5.300   4.820 -1.2331 -0.4247 -0.8523
  153OSM    H6G17072   1.019   5.174   4.938 -1.1808  0.5501  2.7989
  153OSM    C7F17073   0.802   5.218   4.965 -0.1473 -0.2081  0.0791
  153OSM    H7F17074   0.778   5.118   5.006 -0.2562 -0.0360  0.4389
  153OSM    H7G17075   0.719   5.264   4.906  0.9798 -2.1013 -3.2566
  153OSM    C8F17076   0.826   5.319   5.080  0.4071  0.8412  0.3071
  153OSM    H8F17077   0.852   5.418   5.036 -0.1122  1.1903  0.7780
  153OSM    H8G17078   0.907   5.277   5.143  1.1120 -0.6121 -1.4709
  153OSM    C9F17079   0.693   5.337   5.154 -0.4887  0.0830  0.3795
  153OSM    H9F17080   0.619   5.395   5.097 -0.8274 -1.4656 -0.8336
  153OSM   C10F17081   0.659   5.301   5.278  0.0961 -0.0478  0.5394
  153OSM   H10F17082   0.559   5.315   5.321 -0.7423 -2.2599 -0.5568
  153OSM   C11F17083   0.743   5.211   5.362  0.3568 -0.1583  0.2139
  153OSM   H11F17084   0.786   5.282   5.437 -1.4269  0.5310  0.6264
  153OSM   H11G17085   0.829   5.167   5.306 -0.3856 -1.2167 -0.1152
  153OSM   C12F17086   0.667   5.091   5.429 -0.4628 -0.2769  0.0052
  153OSM   H12F17087   0.578   5.142   5.472 -1.0810 -1.5601  0.2966
  153OSM   H12G17088   0.721   5.045   5.514 -2.8513 -1.0708  1.1836
  153OSM   C13F17089   0.617   4.983   5.335 -0.1129 -0.2834  0.7184
  153OSM   H13F17090   0.696   4.937   5.271 -1.2246 -2.4240  0.7850
  153OSM   H13G17091   0.540   5.019   5.263 -1.0020  0.7932  2.1692
  153OSM   C14F17092   0.543   4.861   5.404 -0.6536 -0.3057 -0.2824
  153OSM   H14F17093   0.482   4.810   5.327 -3.8501  2.8312 -0.0971
  153OSM   H14G17094   0.462   4.913   5.461 -0.5166 -0.7214  0.3044
  153OSM   C15F17095   0.620   4.759   5.483  0.2405  0.5829  0.5053
  153OSM   H15F17096   0.695   4.812   5.545  2.2056  0.6321 -1.7814
  153OSM   H15G17097   0.677   4.691   5.416 -1.5111  0.8567 -1.3752
  153OSM   C16F17098   0.531   4.675   5.580  0.6804 -0.4085  0.4323
  153OSM   H16F17099   0.440   4.636   5.529 -0.2077 -0.3644  1.9512
  153OSM   H16G17100   0.498   4.747   5.657 -1.0635 -2.1741  1.4291
  153OSM   C17F17101   0.604   4.562   5.645 -0.6022  0.2888 -0.0237
  153OSM   H17F17102   0.701   4.602   5.683  1.0882 -1.2831 -2.3624
  153OSM   H17G17103   0.622   4.485   5.567  0.7317  0.3152  0.2256
  153OSM   C18F17104   0.526   4.498   5.753  0.2922 -0.5865  0.4571
  153OSM   H18F17105   0.578   4.412   5.802  1.3438 -1.1695 -1.5736
  153OSM   H18G17106   0.432   4.450   5.718  1.0673 -1.8327 -0.0052
  153OSM   H18H17107   0.505   4.578   5.827 -0.4393  1.6788 -2.0733
  154OSM      N17108   6.005   5.396   4.051  0.7969 -0.4239 -0.5095
  154OSM    C1517109   6.125   5.478   4.010  0.0013 -0.0691  0.3135
  154OSM   H15A17110   6.098   5.582   4.025 -2.4693 -0.3756 -1.3678
  154OSM   H15B17111   6.151   5.471   3.906 -0.9961  2.0880 -0.1397
  154OSM   H15C17112   6.214   5.452   4.065 -0.5023  1.7094  2.1085
  154OSM    C1417113   5.890   5.433   3.968 -0.4564 -0.6815 -0.4046
  154OSM   H14A17114   5.814   5.359   3.989 -0.5628 -0.2134  0.9234
  154OSM   H14B17115   5.918   5.423   3.864  0.4550 -0.6323 -0.1711
  154OSM   H14C17116   5.866   5.534   3.997  1.7775 -0.1748 -0.1531
  154OSM    C1317117   6.020   5.254   4.023  0.1803  0.4515 -0.0407
  154OSM   H13A17118   6.109   5.210   4.067 -0.8933 -0.4187  1.3629
  154OSM   H13B17119   6.032   5.230   3.919 -3.1110  0.2408 -0.4492
  154OSM   H13C17120   5.935   5.200   4.062 -0.0163  1.3630  0.8288
  154OSM    C1217121   5.973   5.425   4.193  0.2931 -0.0262  0.5264
  154OSM   H12A17122   6.051   5.380   4.253  1.4358  1.5171  0.2641
  154OSM   H12B17123   5.880   5.376   4.216 -0.3875  0.8136 -0.3871
  154OSM    C1117124   5.962   5.574   4.229  0.1524  0.8819  0.7006
  154OSM   H11A17125   6.053   5.631   4.198  0.8743 -0.8282 -0.4795
  154OSM   H11B17126   5.961   5.584   4.340  1.2917  1.9453  0.6450
  154OSM      P17127   5.820   5.788   4.163 -0.0415  0.4598 -0.2870
  154OSM    O1317128   5.843   5.821   4.025  0.5473 -0.8620 -0.0869
  154OSM    O1417129   5.691   5.832   4.217  0.3892 -0.2135  0.3623
  154OSM    O1117130   5.935   5.851   4.250  0.5674  0.2890  0.0019
  154OSM    O1217131   5.836   5.633   4.191  0.1125 -0.3577  0.4141
  154OSM    C1S17132   5.922   5.877   4.387 -0.5645  0.5165 -0.9913
  154OSM    H1S17133   5.864   5.795   4.433 -0.9272 -0.9806 -3.9099
  154OSM    H1T17134   5.863   5.971   4.394  0.2593  1.1194 -1.9055
  154OSM     NF17135   6.060   5.900   4.596 -0.2462  0.1646 -0.4558
  154OSM    HNF17136   6.063   5.997   4.620  0.1627  0.5629 -2.0312
  154OSM    C2S17137   6.065   5.878   4.457 -0.0591 -0.0960  0.5862
  154OSM    H2S17138   6.110   5.777   4.439  0.7008  0.3620 -0.1698
  154OSM    C3S17139   6.165   5.964   4.378  0.0412 -0.0073  1.1377
  154OSM    H3S17140   6.120   6.064   4.361 -3.2780 -1.5177  0.2770
  154OSM     O317141   6.198   5.913   4.251  0.3377  0.9259 -0.2068
  154OSM    HO317142   6.123   5.859   4.225  1.1247 -0.4244  0.2658
  154OSM    C4S17143   6.295   5.983   4.450 -0.4232  1.2155 -0.5006
  154OSM    H4S17144   6.312   5.911   4.531 -1.3150  2.3532  0.7381
  154OSM    C5S17145   6.370   6.092   4.460 -0.3539 -0.5549 -0.2497
  154OSM    H5S17146   6.327   6.186   4.421  0.5399 -0.0261 -0.0113
  154OSM    C6S17147   6.474   6.114   4.571 -0.1029 -0.0291 -0.2912
  154OSM    H6S17148   6.488   6.224   4.574 -0.4816 -0.0003  1.2272
  154OSM    H6T17149   6.565   6.053   4.556  1.3122  1.8303  0.3124
  154OSM    C7S17150   6.417   6.104   4.712  0.3068 -0.4109  0.3655
  154OSM    H7S17151   6.413   5.994   4.730 -2.2019 -0.7315 -1.6036
  154OSM    H7T17152   6.316   6.150   4.716  1.0596  1.2756  0.6797
  154OSM    C8S17153   6.489   6.176   4.817 -0.1267 -0.0224 -0.0181
  154OSM    H8S17154   6.485   6.284   4.793  1.0505 -0.2184 -1.2083
  154OSM    H8T17155   6.598   6.163   4.830 -0.2074  0.2991  1.0881
  154OSM    C9S17156   6.426   6.142   4.958  0.1170 -0.2439  0.2026
  154OSM    H9S17157   6.502   6.090   5.020 -1.3001 -1.7070  0.8104
  154OSM    H9T17158   6.346   6.066   4.950 -0.4334 -0.0839  3.0156
  154OSM   C10S17159   6.371   6.265   5.039  0.0672  0.6875  0.4489
  154OSM   H10S17160   6.304   6.230   5.121 -0.5092  2.2023  0.6576
  154OSM   H10T17161   6.309   6.334   4.977 -1.6567  0.6547  2.0429
  154OSM   C11S17162   6.497   6.337   5.104  0.6406  0.3799  0.1449
  154OSM   H11S17163   6.568   6.372   5.026  1.1698  0.0594  0.4805
  154OSM   H11T17164   6.545   6.253   5.157 -1.4736 -1.0891 -0.1133
  154OSM   C12S17165   6.449   6.442   5.201  0.1336 -0.6524 -0.2037
  154OSM   H12S17166   6.383   6.392   5.276 -0.9487  0.0726 -0.6493
  154OSM   H12T17167   6.387   6.520   5.153  1.1215 -0.7723 -1.7482
  154OSM   C13S17168   6.559   6.524   5.264 -0.1282 -0.1517  0.1888
  154OSM   H13S17169   6.579   6.617   5.207  2.4646  0.6233  2.1805
  154OSM   H13T17170   6.648   6.459   5.255  1.5001  2.0120 -0.0417
  154OSM   C14S17171   6.536   6.561   5.411 -0.1352 -0.0795  0.3974
  154OSM   H14S17172   6.542   6.466   5.468  1.2917  0.8091  1.8294
  154OSM   H14T17173   6.434   6.603   5.424  0.2653  0.6599  1.2627
  154OSM   C15S17174   6.636   6.658   5.467  0.4336  0.3248  0.2387
  154OSM   H15S17175   6.627   6.751   5.407 -1.7842  0.6866  1.0375
  154OSM   H15T17176   6.738   6.621   5.442  0.3747 -0.5183  1.1763
  154OSM   C16S17177   6.624   6.676   5.616  0.2339 -0.2263  0.1847
  154OSM   H16S17178   6.522   6.707   5.648  1.4487  0.7796  3.5769
  154OSM   H16T17179   6.687   6.762   5.648  0.7922 -0.7885  0.6181
  154OSM   C17S17180   6.654   6.558   5.702  0.5276  0.3856  0.1406
  154OSM   H17S17181   6.764   6.542   5.704  0.7336  1.7010 -0.0801
  154OSM   H17T17182   6.600   6.469   5.664  0.9617 -1.5736  3.6284
  154OSM   C18S17183   6.631   6.564   5.858  0.2160 -0.2640  0.3521
  154OSM   H18S17184   6.528   6.599   5.880  1.0690  4.2115 -1.6075
  154OSM   H18T17185   6.694   6.640   5.910  0.1415 -0.3075  0.5050
  154OSM   H18U17186   6.636   6.463   5.903 -2.2707 -0.9514 -0.7364
  154OSM    C1F17187   5.999   5.813   4.672 -0.3294 -0.2811 -0.1472
  154OSM     OF17188   5.983   5.697   4.649  0.5303  0.4147 -0.2324
  154OSM    C2F17189   5.949   5.864   4.808  0.0752  0.9124  0.5074
  154OSM    H2F17190   5.852   5.815   4.830  0.5139 -0.6186 -0.8202
  154OSM    H2G17191   5.933   5.974   4.801  1.9767  1.1121 -2.3529
  154OSM    C3F17192   6.046   5.845   4.922  0.2284  0.3652 -0.0542
  154OSM    H3F17193   6.134   5.911   4.911  3.3147 -3.6192 -1.6133
  154OSM    H3G17194   6.084   5.741   4.908  0.1677  0.5458 -1.6904
  154OSM    C4F17195   5.988   5.864   5.063  0.2626 -0.0563  0.5981
  154OSM    H4F17196   5.906   5.797   5.099 -0.4071  1.3960  1.9205
  154OSM    H4G17197   5.942   5.965   5.062 -0.6462 -0.4543  0.6225
  154OSM    C5F17198   6.099   5.858   5.166  0.0586  0.7723 -0.7089
  154OSM    H5F17199   6.151   5.955   5.154  0.1788  0.7103 -0.6866
  154OSM    H5G17200   6.171   5.774   5.152 -0.4791  0.3117 -0.7550
  154OSM    C6F17201   6.051   5.856   5.313 -0.4095 -0.6776 -0.4046
  154OSM    H6F17202   6.140   5.823   5.370 -1.7280 -0.6106  1.7854
  154OSM    H6G17203   5.983   5.770   5.330 -0.5436 -0.1418  2.2329
  154OSM    C7F17204   5.983   5.987   5.357 -0.0608  0.0739 -0.2881
  154OSM    H7F17205   5.903   6.024   5.290 -0.1920  1.8052  0.7507
  154OSM    H7G17206   6.061   6.066   5.353  0.2447 -0.0392  1.9441
  154OSM    C8F17207   5.951   5.980   5.504  0.7030  0.0938  0.5644
  154OSM    H8F17208   5.851   5.934   5.519  0.5012  0.4562  0.3443
  154OSM    H8G17209   5.931   6.084   5.539 -3.1751 -0.4787  0.3947
  154OSM    C9F17210   6.067   5.941   5.596  0.0758 -0.1019  0.4686
  154OSM    H9F17211   6.068   5.839   5.638 -1.2994 -1.3550 -2.3200
  154OSM   C10F17212   6.169   6.017   5.631  0.3769  0.0947  1.1673
  154OSM   H10F17213   6.248   5.979   5.696  2.7556 -1.1275 -2.1789
  154OSM   C11F17214   6.197   6.156   5.584  0.0137  0.3382 -0.0930
  154OSM   H11F17215   6.130   6.169   5.496 -2.1101 -0.9597  1.2551
  154OSM   H11G17216   6.301   6.165   5.544  0.2811 -1.7594  0.0223
  154OSM   C12F17217   6.171   6.266   5.687 -0.8795 -0.1547 -0.2664
  154OSM   H12F17218   6.065   6.268   5.719 -1.6697  1.3082 -2.6359
  154OSM   H12G17219   6.184   6.369   5.645 -1.0722 -1.1198 -2.8889
  154OSM   C13F17220   6.263   6.260   5.810  0.0952 -0.3197 -0.4783
  154OSM   H13F17221   6.366   6.280   5.774  0.2107 -1.0105 -0.5407
  154OSM   H13G17222   6.250   6.163   5.862 -0.1987  0.2327  0.5226
  154OSM   C14F17223   6.242   6.372   5.913  0.6290  0.4432 -0.7927
  154OSM   H14F17224   6.253   6.472   5.865 -0.1057  1.0804  0.3181
  154OSM   H14G17225   6.326   6.366   5.986 -0.0897  1.0867  0.1134
  154OSM   C15F17226   6.119   6.333   6.002  0.3570 -0.5938 -0.0824
  154OSM   H15F17227   6.125   6.230   6.043  0.3740 -0.5545  0.0134
  154OSM   H15G17228   6.030   6.347   5.936 -0.2752  0.5881  0.9966
  154OSM   C16F17229   6.098   6.422   6.126  0.9074  0.0327 -0.1996
  154OSM   H16F17230   6.180   6.407   6.200 -0.8482 -0.3085  1.7759
  154OSM   H16G17231   6.005   6.383   6.173 -0.2206  1.0492 -1.4955
  154OSM   C17F17232   6.092   6.572   6.110 -0.4902 -0.1009 -0.3641
  154OSM   H17F17233   6.174   6.612   6.047 -0.7837 -0.7006 -1.1453
  154OSM   H17G17234   6.084   6.628   6.206 -0.4918  2.8347 -1.9713
  154OSM   C18F17235   5.969   6.615   6.030  0.0348 -0.3148  0.1616
  154OSM   H18F17236   5.962   6.726   6.024  2.8871 -0.1564 -1.5697
  154OSM   H18G17237   5.878   6.567   6.073 -0.2231  0.1167  0.1079
  154OSM   H18H17238   5.964   6.580   5.925 -0.1997  3.3255 -1.2168
  155OSM      N17239   1.815   6.322   3.504 -0.0879  0.3973 -0.2979
  155OSM    C1517240   1.958   6.329   3.556  0.1063  0.2494  0.1853
  155OSM   H15A17241   1.961   6.352   3.661  0.5005 -0.0295  0.2386
  155OSM   H15B17242   2.018   6.395   3.496 -0.6351  1.1736  0.4418
  155OSM   H15C17243   2.005   6.232   3.545 -1.7455 -0.9222  1.9110
  155OSM    C1417244   1.763   6.453   3.461  0.0065 -0.6626 -0.8406
  155OSM   H14A17245   1.776   6.524   3.541  1.0389 -0.2792 -1.3399
  155OSM   H14B17246   1.656   6.443   3.444 -0.2637 -0.1580  0.4767
  155OSM   H14C17247   1.818   6.498   3.380 -0.7522 -0.9899 -1.5599
  155OSM    C1317248   1.807   6.233   3.385  0.0676 -0.4644  0.1599
  155OSM   H13A17249   1.858   6.142   3.413 -0.7906 -0.7813  0.7396
  155OSM   H13B17250   1.855   6.279   3.300  0.8577  2.1898  1.9358
  155OSM   H13C17251   1.703   6.219   3.360  0.0137 -0.3049  0.2991
  155OSM    C1217252   1.730   6.266   3.616 -0.3427 -0.1258  0.1029
  155OSM   H12A17253   1.758   6.166   3.645 -0.1879 -0.0384  0.2547
  155OSM   H12B17254   1.629   6.264   3.578  1.0768 -0.2610 -4.2302
  155OSM    C1117255   1.730   6.339   3.753 -0.3722  0.4109  0.0894
  155OSM   H11A17256   1.831   6.339   3.799 -0.0179 -3.7546 -0.2931
  155OSM   H11B17257   1.668   6.268   3.813  0.4875  0.2821  0.8518
  155OSM      P17258   1.543   6.509   3.761 -0.1224  0.0237 -0.3990
  155OSM    O1317259   1.527   6.608   3.652  0.6725  0.4608 -0.5199
  155OSM    O1417260   1.455   6.388   3.757  0.7618  0.3932  0.2055
  155OSM    O1117261   1.539   6.586   3.895  0.1860  0.4446 -0.4966
  155OSM    O1217262   1.690   6.468   3.753 -0.5457  0.3328  0.1043
  155OSM    C1S17263   1.509   6.521   4.019  0.3024  0.1527  0.1537
  155OSM    H1S17264   1.597   6.466   4.058  0.8459  1.5933  1.0265
  155OSM    H1T17265   1.426   6.449   4.003 -1.3593  1.7286  1.2448
  155OSM     NF17266   1.418   6.564   4.245 -0.3141  0.3744  0.5169
  155OSM    HNF17267   1.326   6.590   4.274 -0.5449 -0.2812  0.3862
  155OSM    C2S17268   1.471   6.627   4.124 -0.7043  0.0742  0.8287
  155OSM    H2S17269   1.569   6.677   4.138 -1.3280  2.6215 -2.4794
  155OSM    C3S17270   1.369   6.724   4.062 -0.3027 -0.2541 -0.5610
  155OSM    H3S17271   1.281   6.663   4.033  0.7577 -1.7477 -0.7723
  155OSM     O317272   1.409   6.800   3.949  0.4567  0.5991  0.0067
  155OSM    HO317273   1.479   6.747   3.909 -0.9155 -0.2193 -1.4271
  155OSM    C4S17274   1.331   6.812   4.178  0.3192 -0.5212  0.2642
  155OSM    H4S17275   1.232   6.791   4.223  0.3681  1.2932  1.3164
  155OSM    C5S17276   1.399   6.910   4.228  0.1452 -0.3289  0.0398
  155OSM    H5S17277   1.486   6.950   4.172 -0.8782  0.9684 -0.6901
  155OSM    C6S17278   1.349   6.979   4.352 -0.8150 -0.8932  1.0637
  155OSM    H6S17279   1.238   6.980   4.358 -0.7742 -1.5556  2.0509
  155OSM    H6T17280   1.380   7.086   4.353  0.1680 -0.9803 -2.9554
  155OSM    C7S17281   1.391   6.909   4.485  0.0666 -0.1358 -0.0352
  155OSM    H7S17282   1.502   6.906   4.486  0.0720 -1.1830 -1.1125
  155OSM    H7T17283   1.351   6.806   4.497 -0.7814 -0.0255 -1.5963
  155OSM    C8S17284   1.349   7.001   4.609  0.2043  1.1740 -0.2947
  155OSM    H8S17285   1.245   6.972   4.634  0.5815 -1.4179 -1.3260
  155OSM    H8T17286   1.353   7.107   4.579 -0.3977  1.3616  0.2797
  155OSM    C9S17287   1.418   6.958   4.741 -0.9056  0.3628  0.0398
  155OSM    H9S17288   1.374   7.019   4.823  0.6646  0.4746  0.8506
  155OSM    H9T17289   1.520   7.002   4.733 -1.5705  1.7899 -1.0648
  155OSM   C10S17290   1.416   6.811   4.782  0.8981  0.6782  0.2354
  155OSM   H10S17291   1.476   6.764   4.701 -2.5791 -2.5403 -0.7485
  155OSM   H10T17292   1.313   6.771   4.770  0.4599  1.7485  0.3112
  155OSM   C11S17293   1.472   6.790   4.926  0.7633  0.1538  0.3728
  155OSM   H11S17294   1.577   6.822   4.906  0.1796  0.4755 -2.6976
  155OSM   H11T17295   1.470   6.682   4.951  0.2120  0.7743  3.3126
  155OSM   C12S17296   1.397   6.857   5.034 -0.2389  0.7689 -0.2851
  155OSM   H12S17297   1.290   6.837   5.013  0.0684 -0.7412 -0.4842
  155OSM   H12T17298   1.424   6.964   5.043  1.0464  0.4652 -0.3932
  155OSM   C13S17299   1.425   6.799   5.183 -0.0751 -0.0788  0.6940
  155OSM   H13S17300   1.534   6.805   5.202  0.3122  2.5582 -1.6801
  155OSM   H13T17301   1.401   6.691   5.176 -0.6403  0.1533 -1.9242
  155OSM   C14S17302   1.340   6.870   5.292 -0.7600  0.8091 -0.5224
  155OSM   H14S17303   1.237   6.874   5.250 -0.5130 -3.4623 -2.0047
  155OSM   H14T17304   1.391   6.967   5.310  2.1128 -0.9607  1.9238
  155OSM   C15S17305   1.341   6.787   5.420  0.1643  0.0115  0.3885
  155OSM   H15S17306   1.310   6.683   5.398  1.9084 -1.2618  3.2858
  155OSM   H15T17307   1.260   6.810   5.492 -0.0795 -1.1529  0.5102
  155OSM   C16S17308   1.479   6.772   5.492 -0.4417 -0.1684 -1.3170
  155OSM   H16S17309   1.521   6.869   5.527  1.1600 -0.9958 -0.8666
  155OSM   H16T17310   1.553   6.734   5.418  0.8969  0.7618 -0.5167
  155OSM   C17S17311   1.473   6.675   5.617  0.5860  0.1518  0.3685
  155OSM   H17S17312   1.579   6.660   5.647  0.2166 -0.0979  1.6329
  155OSM   H17T17313   1.436   6.577   5.582 -0.7658  2.1128 -4.5544
  155OSM   C18S17314   1.397   6.726   5.744 -0.2247 -0.2663 -0.1091
  155OSM   H18S17315   1.434   6.824   5.781  2.0094 -1.5791  1.4305
  155OSM   H18T17316   1.424   6.658   5.828  3.0285  0.0069 -0.7901
  155OSM   H18U17317   1.288   6.730   5.724 -0.0508 -0.8716 -1.2728
  155OSM    C1F17318   1.482   6.480   4.327  0.6491  0.2185  0.6659
  155OSM     OF17319   1.596   6.453   4.308  0.0915 -0.0969  0.2756
  155OSM    C2F17320   1.411   6.411   4.446  0.5349 -0.0358  0.3649
  155OSM    H2F17321   1.370   6.313   4.416  0.3457 -0.3727  1.6487
  155OSM    H2G17322   1.332   6.483   4.478 -0.5448 -0.6636 -0.8156
  155OSM    C3F17323   1.515   6.386   4.561  0.0701  0.0181 -0.4416
  155OSM    H3F17324   1.584   6.471   4.578  2.2524 -1.9647  1.3355
  155OSM    H3G17325   1.585   6.305   4.529  0.3894 -0.2253  0.8225
  155OSM    C4F17326   1.452   6.343   4.690 -0.1206 -0.8912 -0.5476
  155OSM    H4F17327   1.444   6.232   4.698  2.8826 -1.2271 -0.7693
  155OSM    H4G17328   1.353   6.392   4.700  0.6721  0.3932  1.8225
  155OSM    C5F17329   1.543   6.380   4.808  0.0673 -0.0587 -0.2996
  155OSM    H5F17330   1.581   6.484   4.808  0.1356 -0.0369  1.9923
  155OSM    H5G17331   1.629   6.313   4.829  0.4611  0.9075  1.3333
  155OSM    C6F17332   1.465   6.378   4.948  0.0510 -0.3336 -0.0236
  155OSM    H6F17333   1.422   6.279   4.971  0.2327 -0.3742  0.1498
  155OSM    H6G17334   1.375   6.441   4.933  0.4623  1.1310  2.9204
  155OSM    C7F17335   1.545   6.416   5.075 -0.2131  0.3911  0.0907
  155OSM    H7F17336   1.485   6.430   5.168 -1.3410  1.7638 -0.7951
  155OSM    H7G17337   1.604   6.508   5.053 -2.2367  1.6148 -0.4656
  155OSM    C8F17338   1.631   6.300   5.124  0.1288 -0.2789 -0.4617
  155OSM    H8F17339   1.711   6.346   5.187 -2.2013  2.5018  0.6659
  155OSM    H8G17340   1.683   6.271   5.030 -1.1242  0.7083 -1.4893
  155OSM    C9F17341   1.579   6.170   5.186 -0.2672  0.3450 -0.5702
  155OSM    H9F17342   1.526   6.121   5.103  0.9869  0.5018 -1.4867
  155OSM   C10F17343   1.594   6.110   5.307  0.5871  0.2340 -0.6428
  155OSM   H10F17344   1.547   6.015   5.337  0.5526  0.2586 -0.6173
  155OSM   C11F17345   1.655   6.164   5.437  0.0769  0.1673  0.0793
  155OSM   H11F17346   1.692   6.267   5.422 -0.0873  0.3093  0.6397
  155OSM   H11G17347   1.747   6.112   5.472  0.7271  1.3701  0.2086
  155OSM   C12F17348   1.560   6.184   5.564 -0.3632  0.0390 -0.8564
  155OSM   H12F17349   1.601   6.245   5.648 -4.0053  0.1581  1.0048
  155OSM   H12G17350   1.540   6.082   5.602 -1.6940  0.4857 -0.3124
  155OSM   C13F17351   1.429   6.247   5.523  0.3240 -0.4121  0.5078
  155OSM   H13F17352   1.364   6.185   5.459 -0.6791 -1.6056  2.5775
  155OSM   H13G17353   1.456   6.339   5.466 -0.5211 -0.2965  0.2939
  155OSM   C14F17354   1.349   6.309   5.636  0.9310 -0.2981 -0.3793
  155OSM   H14F17355   1.402   6.394   5.685  0.6916  0.0853 -0.7746
  155OSM   H14G17356   1.328   6.242   5.722 -1.4475 -0.2532 -0.8691
  155OSM   C15F17357   1.221   6.378   5.593 -0.3946  0.2287 -0.1782
  155OSM   H15F17358   1.152   6.300   5.555 -0.3783 -1.7062  3.2889
  155OSM   H15G17359   1.240   6.455   5.516  2.4814  2.0180  2.0743
  155OSM   C16F17360   1.150   6.442   5.711 -0.9236  0.1625 -0.5662
  155OSM   H16F17361   1.227   6.508   5.757 -1.6356 -0.2910  1.3784
  155OSM   H16G17362   1.127   6.361   5.784 -0.1657 -0.4689 -1.0181
  155OSM   C17F17363   1.035   6.521   5.666  0.3214 -0.7479  0.2046
  155OSM   H17F17364   0.962   6.467   5.601  0.2425 -2.8801  1.9438
  155OSM   H17G17365   1.080   6.612   5.622 -0.9915  1.6659  3.4439
  155OSM   C18F17366   0.957   6.572   5.788  0.5246 -0.1084 -0.0031
  155OSM   H18F17367   0.868   6.632   5.760 -0.9362 -2.8940 -1.8461
  155OSM   H18G17368   1.024   6.639   5.847 -0.1694  1.5367 -1.0016
  155OSM   H18H17369   0.916   6.491   5.852 -0.1279 -0.8504 -1.3291
  156OSM      N17370   2.628   1.940   4.170 -0.5130  0.4941 -0.1504
  156OSM    C1517371   2.765   2.006   4.165  0.5006 -0.4436  0.2545
  156OSM   H15A17372   2.756   2.112   4.185 -2.7751 -0.8651  1.6219
  156OSM   H15B17373   2.815   1.985   4.071 -0.1770  0.8565 -0.4297
  156OSM   H15C17374   2.833   1.956   4.232  0.7747 -0.9663 -0.3976
  156OSM    C1417375   2.649   1.797   4.131  0.1215 -0.7579  0.8573
  156OSM   H14A17376   2.696   1.786   4.035  1.6478  0.0466  1.4867
  156OSM   H14B17377   2.556   1.744   4.113  0.0467 -0.3517  0.0165
  156OSM   H14C17378   2.704   1.748   4.211  0.9483  0.4862  1.0697
  156OSM    C1317379   2.576   1.945   4.313 -0.5060  0.4406  0.0571
  156OSM   H13A17380   2.645   1.901   4.385 -1.9581  1.1799  1.9971
  156OSM   H13B17381   2.475   1.907   4.315 -0.9473  1.5083  2.6178
  156OSM   H13C17382   2.563   2.048   4.341 -1.6374  0.8975 -2.0002
  156OSM    C1217383   2.538   2.015   4.075  0.1273  0.0431  0.3491
  156OSM   H12A17384   2.573   2.014   3.973  1.1354 -0.0508  0.6878
  156OSM   H12B17385   2.537   2.118   4.105 -2.2076  0.0447  0.4065
  156OSM    C1117386   2.388   1.972   4.069 -0.6859  0.1315  0.2113
  156OSM   H11A17387   2.395   1.861   4.069  1.1246  0.2086  0.8655
  156OSM   H11B17388   2.335   2.010   3.980  1.3166  1.8589 -0.3431
  156OSM      P17389   2.258   2.159   4.202 -0.0488  0.2975  0.1539
  156OSM    O1317390   2.214   2.193   4.059 -0.0729 -0.1464 -0.4588
  156OSM    O1417391   2.159   2.175   4.310 -0.3766 -0.3038  0.1717
  156OSM    O1117392   2.391   2.233   4.237 -0.1699  0.4972 -0.1199
  156OSM    O1217393   2.322   2.022   4.192 -0.1613 -0.2014  0.0671
  156OSM    C1S17394   2.384   2.379   4.245  0.4208 -0.0676  0.3456
  156OSM    H1S17395   2.281   2.419   4.232 -0.1298 -1.3250  0.6843
  156OSM    H1T17396   2.446   2.424   4.165  0.2649 -0.6824 -0.1291
  156OSM     NF17397   2.394   2.564   4.418  0.2630 -0.5050  0.0436
  156OSM    HNF17398   2.474   2.622   4.432 -1.6952  2.0575  1.6301
  156OSM    C2S17399   2.423   2.423   4.387  0.3351 -0.5332  0.2407
  156OSM    H2S17400   2.362   2.363   4.458 -1.3460  0.2345 -0.4830
  156OSM    C3S17401   2.576   2.386   4.408  0.1231  0.5258  0.0996
  156OSM    H3S17402   2.639   2.469   4.370  0.8536 -0.2956 -0.5236
  156OSM     O317403   2.615   2.257   4.353 -0.3727 -0.0205  0.0725
  156OSM    HO317404   2.541   2.233   4.298 -0.9572 -0.6435  1.0951
  156OSM    C4S17405   2.604   2.387   4.558  0.6024  0.5108  0.3116
  156OSM    H4S17406   2.638   2.486   4.591  1.3092 -0.1130  1.5363
  156OSM    C5S17407   2.578   2.294   4.650 -0.3413 -0.1190 -0.3358
  156OSM    H5S17408   2.546   2.194   4.618  1.7224 -0.9055 -0.1444
  156OSM    C6S17409   2.593   2.313   4.799 -0.2577 -0.0242  0.0161
  156OSM    H6S17410   2.695   2.279   4.826 -1.0874 -2.6709  0.1245
  156OSM    H6T17411   2.519   2.244   4.844  0.7557 -2.7625 -2.1879
  156OSM    C7S17412   2.572   2.462   4.853 -0.5892  0.8048 -0.1656
  156OSM    H7S17413   2.476   2.500   4.811 -0.4940  0.1572 -0.9975
  156OSM    H7T17414   2.649   2.522   4.800 -0.6695  2.4591  1.4815
  156OSM    C8S17415   2.578   2.481   5.009 -0.0628 -0.0516 -0.2984
  156OSM    H8S17416   2.554   2.590   5.013  1.4238  0.3432 -1.1651
  156OSM    H8T17417   2.680   2.454   5.044 -0.1969 -1.7387 -1.1226
  156OSM    C9S17418   2.475   2.410   5.091  0.5181  0.3472 -0.3945
  156OSM    H9S17419   2.511   2.307   5.114  2.7133  1.4347  1.3604
  156OSM    H9T17420   2.374   2.407   5.045  0.2114  1.1602  0.1914
  156OSM   C10S17421   2.451   2.470   5.234  0.5900  0.4077  0.3421
  156OSM   H10S17422   2.365   2.417   5.279 -0.3423  1.1496 -0.5137
  156OSM   H10T17423   2.414   2.573   5.216  0.5888  0.3416 -0.0370
  156OSM   C11S17424   2.579   2.491   5.319 -0.1083 -0.1580  0.2341
  156OSM   H11S17425   2.532   2.541   5.407 -1.4266  0.2305 -0.6607
  156OSM   H11T17426   2.648   2.566   5.276 -0.2580 -1.3950 -2.4142
  156OSM   C12S17427   2.642   2.356   5.350 -0.0785 -0.0900  0.8673
  156OSM   H12S17428   2.677   2.309   5.256  0.5381  1.7323  0.1489
  156OSM   H12T17429   2.566   2.290   5.397 -1.7677  0.7033 -0.6488
  156OSM   C13S17430   2.760   2.362   5.450  1.2108  0.5820  0.7538
  156OSM   H13S17431   2.824   2.443   5.408 -1.2499  1.8886 -0.7400
  156OSM   H13T17432   2.811   2.265   5.434 -1.1771 -0.4589 -1.0979
  156OSM   C14S17433   2.727   2.388   5.600  0.1248 -0.4439  0.8609
  156OSM   H14S17434   2.657   2.310   5.638  0.3270 -0.3738  1.3760
  156OSM   H14T17435   2.671   2.484   5.602  1.6020  0.5099 -0.5290
  156OSM   C15S17436   2.850   2.407   5.694 -0.0906  0.0484  0.0417
  156OSM   H15S17437   2.897   2.506   5.679 -2.9069  1.4329 -0.3199
  156OSM   H15T17438   2.910   2.327   5.646 -1.2041 -0.6840 -0.1634
  156OSM   C16S17439   2.808   2.385   5.844  0.7443  0.3829 -0.3084
  156OSM   H16S17440   2.750   2.291   5.845  2.0630 -0.5015 -1.8714
  156OSM   H16T17441   2.746   2.466   5.887 -2.5841 -1.3028 -1.6147
  156OSM   C17S17442   2.933   2.370   5.943  0.4409  0.4797  0.3859
  156OSM   H17S17443   2.980   2.465   5.977 -0.2277  0.1555  2.3006
  156OSM   H17T17444   3.014   2.313   5.892  1.2291  0.8837  1.1439
  156OSM   C18S17445   2.910   2.276   6.069 -0.2117 -0.5097 -0.2873
  156OSM   H18S17446   3.012   2.250   6.104  1.5303  3.3313 -1.9330
  156OSM   H18T17447   2.850   2.188   6.038 -1.8497  0.6789 -0.6320
  156OSM   H18U17448   2.860   2.328   6.154  0.2800 -1.4452  0.6073
  156OSM    C1F17449   2.266   2.604   4.430  0.4347 -0.0295 -0.2113
  156OSM     OF17450   2.172   2.530   4.414 -0.4260 -0.5470 -0.2165
  156OSM    C2F17451   2.248   2.756   4.449 -0.4220 -0.1416  0.3288
  156OSM    H2F17452   2.234   2.798   4.347 -0.1944  2.0865  1.1583
  156OSM    H2G17453   2.348   2.796   4.476  0.0531 -1.4115  0.4976
  156OSM    C3F17454   2.136   2.793   4.544  0.0025 -0.5396 -0.4992
  156OSM    H3F17455   2.047   2.758   4.488  0.2299  0.9022 -1.8354
  156OSM    H3G17456   2.117   2.903   4.548  2.3166 -0.0531 -1.3188
  156OSM    C4F17457   2.128   2.725   4.684  0.1419 -0.3453 -0.3388
  156OSM    H4F17458   2.112   2.617   4.666  0.1613 -0.2776 -0.7690
  156OSM    H4G17459   2.046   2.781   4.734 -1.0514  0.4915 -3.0473
  156OSM    C5F17460   2.258   2.732   4.765 -1.1348 -0.1013 -0.4374
  156OSM    H5F17461   2.290   2.838   4.758 -0.4943 -0.1314  1.4379
  156OSM    H5G17462   2.341   2.674   4.720  0.8967  0.6237  2.0834
  156OSM    C6F17463   2.257   2.682   4.916  0.3392 -0.3386 -0.2214
  156OSM    H6F17464   2.342   2.732   4.967 -0.7111  1.8436 -0.4651
  156OSM    H6G17465   2.263   2.571   4.914  0.3307 -0.3292 -0.8095
  156OSM    C7F17466   2.126   2.723   4.990 -0.1787 -0.0013  0.4020
  156OSM    H7F17467   2.047   2.658   4.946  0.3479 -2.3818  2.7289
  156OSM    H7G17468   2.105   2.832   4.988 -2.1395 -0.3370 -0.0168
  156OSM    C8F17469   2.125   2.672   5.138 -0.0841 -0.3370 -0.2656
  156OSM    H8F17470   2.154   2.565   5.136 -1.9402 -0.9055  0.5026
  156OSM    H8G17471   2.019   2.668   5.170  0.8530  1.1673  3.5094
  156OSM    C9F17472   2.202   2.744   5.241  0.1714  0.2148 -0.1639
  156OSM    H9F17473   2.289   2.800   5.203 -1.1341  3.2331  0.9861
  156OSM   C10F17474   2.167   2.754   5.372  0.1975 -0.0284  0.3871
  156OSM   H10F17475   2.233   2.807   5.443 -2.5276 -0.8776  3.8287
  156OSM   C11F17476   2.052   2.675   5.428  0.6848 -0.7982 -0.2265
  156OSM   H11F17477   2.021   2.586   5.369 -0.6299 -0.9286  0.6224
  156OSM   H11G17478   1.966   2.742   5.451  1.9645  1.2793 -1.1944
  156OSM   C12F17479   2.099   2.591   5.546 -0.1920 -0.2463 -0.7770
  156OSM   H12F17480   2.019   2.515   5.560 -0.4465 -0.5983 -3.6159
  156OSM   H12G17481   2.103   2.658   5.634  3.7795  1.4051 -2.0047
  156OSM   C13F17482   2.224   2.500   5.524  0.1724 -0.1136 -0.3020
  156OSM   H13F17483   2.315   2.563   5.513 -0.0390  0.1912 -0.3079
  156OSM   H13G17484   2.202   2.449   5.428 -3.9389 -0.5755  0.7309
  156OSM   C14F17485   2.244   2.398   5.644 -0.1968  0.3193 -0.4255
  156OSM   H14F17486   2.176   2.311   5.635  0.0587  0.2499 -1.7825
  156OSM   H14G17487   2.227   2.458   5.736 -0.5310  0.4279 -0.5562
  156OSM   C15F17488   2.392   2.361   5.659  0.6988  1.1920 -0.0074
  156OSM   H15F17489   2.460   2.448   5.649  1.3592  0.4537 -2.6358
  156OSM   H15G17490   2.420   2.293   5.576  2.0737 -0.5162  1.7526
  156OSM   C16F17491   2.423   2.304   5.799  0.0416 -0.2970  0.3814
  156OSM   H16F17492   2.528   2.268   5.794  0.3945  0.7742 -3.8470
  156OSM   H16G17493   2.352   2.220   5.815 -0.6815 -0.1519 -1.8030
  156OSM   C17F17494   2.424   2.397   5.917 -0.1168 -0.0555  0.4331
  156OSM   H17F17495   2.317   2.414   5.941  0.0981 -0.4655  1.7511
  156OSM   H17G17496   2.461   2.497   5.886 -1.5584  0.1206 -0.8331
  156OSM   C18F17497   2.486   2.346   6.047 -0.0989  0.1336 -0.7388
  156OSM   H18F17498   2.595   2.327   6.047  0.0300  0.7739  0.3706
  156OSM   H18G17499   2.436   2.256   6.088  1.5950  0.2775  1.8719
  156OSM   H18H17500   2.457   2.423   6.122 -3.3944 -1.7102  0.0398
  157OSM      N17501   3.545   5.166   3.979 -0.5595  0.5450  0.0358
  157OSM    C1517502   3.650   5.222   4.072 -0.0320 -0.1317  0.0747
  157OSM   H15A17503   3.687   5.318   4.039 -2.5687  1.0680  0.5070
  157OSM   H15B17504   3.734   5.154   4.073  1.1325  1.2244  1.6173
  157OSM   H15C17505   3.620   5.234   4.175  1.9943 -2.4424  1.0411
  157OSM    C1417506   3.429   5.256   3.972 -0.1295 -0.4696  0.6993
  157OSM   H14A17507   3.462   5.349   3.928  0.8073 -0.5264  1.2542
  157OSM   H14B17508   3.389   5.274   4.071  0.8594  0.6363  0.9226
  157OSM   H14C17509   3.349   5.216   3.912  0.2194  0.9373 -0.7879
  157OSM    C1317510   3.609   5.151   3.851 -0.6479 -0.0091  1.1762
  157OSM   H13A17511   3.644   5.243   3.807  1.1830 -0.4711  1.5984
  157OSM   H13B17512   3.544   5.102   3.780  0.0074  0.0933  0.4915
  157OSM   H13C17513   3.693   5.085   3.864 -1.3408 -0.7237  2.1825
  157OSM    C1217514   3.491   5.034   4.029  0.1771 -0.2586 -0.4055
  157OSM   H12A17515   3.448   5.052   4.127  2.3937  0.5860  0.4846
  157OSM   H12B17516   3.572   4.966   4.050  2.7128  1.7109 -3.1272
  157OSM    C1117517   3.394   4.950   3.941 -0.4336  0.6686 -0.2436
  157OSM   H11A17518   3.361   4.859   3.995 -1.0504  1.9959  1.7364
  157OSM   H11B17519   3.460   4.916   3.857 -0.9296  1.6317 -1.0502
  157OSM      P17520   3.132   4.987   3.913 -0.1205 -0.3842 -0.4162
  157OSM    O1317521   3.045   5.103   3.896  0.2199  0.0420 -0.0422
  157OSM    O1417522   3.099   4.866   3.836 -0.2299  0.0200 -0.0826
  157OSM    O1117523   3.118   4.949   4.062 -0.3824  0.2999  0.1397
  157OSM    O1217524   3.282   5.031   3.890 -0.7097 -0.0133 -0.3041
  157OSM    C1S17525   3.125   5.046   4.166 -0.1436  0.1704  0.4576
  157OSM    H1S17526   3.059   5.127   4.128 -1.3116 -1.2971 -0.7581
  157OSM    H1T17527   3.224   5.092   4.186 -0.2767  0.2760  0.8849
  157OSM     NF17528   3.107   5.094   4.402  0.5312  0.6878 -0.3241
  157OSM    HNF17529   3.195   5.092   4.451  0.0485  2.8037  0.7992
  157OSM    C2S17530   3.068   4.992   4.302 -0.5566 -0.1121 -0.3033
  157OSM    H2S17531   2.959   4.985   4.284 -0.5397 -0.9822 -0.0945
  157OSM    C3S17532   3.120   4.849   4.341 -0.0630 -0.0615 -0.0159
  157OSM    H3S17533   3.225   4.868   4.371  0.5503 -1.7749 -0.9408
  157OSM     O317534   3.130   4.746   4.241  0.4098 -0.3839  0.1297
  157OSM    HO317535   3.127   4.801   4.163  1.0320  1.3483  1.2659
  157OSM    C4S17536   3.042   4.791   4.451 -0.3550  0.0629 -0.3674
  157OSM    H4S17537   2.933   4.792   4.434 -0.3270  1.5299 -0.6363
  157OSM    C5S17538   3.093   4.735   4.562  0.8446 -0.0772 -0.0710
  157OSM    H5S17539   3.203   4.733   4.574  0.6595 -0.0718  1.9053
  157OSM    C6S17540   3.007   4.674   4.671  0.3582 -0.7041  0.3191
  157OSM    H6S17541   2.985   4.567   4.648 -2.3707  0.1083 -1.3568
  157OSM    H6T17542   2.906   4.717   4.687  0.6113 -0.4745  1.3804
  157OSM    C7S17543   3.092   4.693   4.794  0.1473 -0.0538 -0.3745
  157OSM    H7S17544   3.106   4.801   4.814  0.5831 -0.5102  2.1663
  157OSM    H7T17545   3.193   4.652   4.778 -0.0977 -0.5869 -0.5842
  157OSM    C8S17546   3.022   4.630   4.918  0.2131 -0.4776 -0.2055
  157OSM    H8S17547   3.018   4.520   4.906  2.7059 -0.9776  2.3887
  157OSM    H8T17548   2.919   4.671   4.921  1.2890  2.4825  0.0436
  157OSM    C9S17549   3.107   4.658   5.036  0.0533 -0.0413  0.2865
  157OSM    H9S17550   3.112   4.769   5.033  1.4596 -0.0982 -1.9353
  157OSM    H9T17551   3.210   4.622   5.018 -0.2848 -0.4070 -1.0333
  157OSM   C10S17552   3.073   4.597   5.167 -0.1291 -0.7970 -0.0967
  157OSM   H10S17553   3.069   4.488   5.149 -2.0519 -0.3840 -2.6811
  157OSM   H10T17554   2.977   4.632   5.211 -0.8304  1.2058 -2.9114
  157OSM   C11S17555   3.168   4.626   5.281 -0.8948 -0.0598  0.1780
  157OSM   H11S17556   3.193   4.733   5.297 -1.6472  0.1064  0.2960
  157OSM   H11T17557   3.263   4.577   5.251 -0.7475 -0.0584  0.6401
  157OSM   C12S17558   3.134   4.567   5.414 -0.6301 -1.1891 -0.6531
  157OSM   H12S17559   3.136   4.456   5.409  1.3559 -1.2463  0.5217
  157OSM   H12T17560   3.033   4.604   5.443 -0.1173  0.3087 -0.6688
  157OSM   C13S17561   3.234   4.605   5.524 -0.0853  0.5147  0.6788
  157OSM   H13S17562   3.213   4.708   5.559 -2.7375 -0.5590  2.5959
  157OSM   H13T17563   3.340   4.598   5.493 -0.4517 -0.6810 -0.4251
  157OSM   C14S17564   3.213   4.520   5.649  0.6604 -0.2788  0.0125
  157OSM   H14S17565   3.239   4.415   5.624 -0.0148 -0.5351  0.3479
  157OSM   H14T17566   3.115   4.525   5.702  0.2838  1.5925 -0.7724
  157OSM   C15S17567   3.303   4.575   5.766  0.1927 -0.2067  0.3571
  157OSM   H15S17568   3.406   4.593   5.729  0.5709 -0.7399  1.1203
  157OSM   H15T17569   3.320   4.490   5.835 -0.4854  1.0161  2.1096
  157OSM   C16S17570   3.249   4.697   5.838 -0.2857 -1.0299 -0.3309
  157OSM   H16S17571   3.138   4.705   5.831 -0.2880  1.0634  1.3337
  157OSM   H16T17572   3.289   4.783   5.782 -1.0942 -0.7831 -0.5456
  157OSM   C17S17573   3.275   4.703   5.982  0.1353 -0.0030 -0.1082
  157OSM   H17S17574   3.219   4.614   6.020 -0.6477  0.9764  1.0928
  157OSM   H17T17575   3.218   4.789   6.023 -0.4332  0.3448 -1.5670
  157OSM   C18S17576   3.421   4.715   6.021  1.3010 -0.8043 -0.3731
  157OSM   H18S17577   3.438   4.677   6.124  0.5308 -2.0454 -0.6906
  157OSM   H18T17578   3.444   4.823   6.035  1.9319 -0.9482 -0.2524
  157OSM   H18U17579   3.494   4.673   5.948  1.5088 -1.8631  0.4231
  157OSM    C1F17580   3.042   5.211   4.407  0.6460 -0.6170 -0.0737
  157OSM     OF17581   2.935   5.224   4.338 -0.6407 -0.4954 -0.0586
  157OSM    C2F17582   3.098   5.320   4.496 -0.1427 -0.4112 -0.1612
  157OSM    H2F17583   3.158   5.397   4.443 -0.9410  0.1331 -0.2811
  157OSM    H2G17584   3.174   5.266   4.557  0.2647 -1.0282 -1.1884
  157OSM    C3F17585   2.997   5.390   4.593 -0.4323 -0.4126  0.2122
  157OSM    H3F17586   2.949   5.313   4.656  1.3639 -1.7474  0.0269
  157OSM    H3G17587   2.917   5.434   4.530 -0.1677  0.5085  0.5027
  157OSM    C4F17588   3.066   5.501   4.667  0.1421 -0.0925 -0.6665
  157OSM    H4F17589   2.988   5.564   4.716  2.4078  1.2430  1.4443
  157OSM    H4G17590   3.109   5.567   4.588 -0.0782  0.3546 -0.4172
  157OSM    C5F17591   3.168   5.459   4.770 -0.4213 -0.4651  0.6771
  157OSM    H5F17592   3.260   5.431   4.714  0.7141  0.4134  2.0125
  157OSM    H5G17593   3.132   5.373   4.830 -0.9671  0.7523  2.1675
  157OSM    C6F17594   3.209   5.572   4.869 -0.5259 -0.0140 -0.2957
  157OSM    H6F17595   3.120   5.586   4.935  1.0320 -0.2008  1.9352
  157OSM    H6G17596   3.229   5.665   4.812 -2.1196  1.7057  1.7855
  157OSM    C7F17597   3.331   5.529   4.957  0.5668 -0.3849 -0.0769
  157OSM    H7F17598   3.410   5.507   4.882  0.1968 -1.0969 -0.2641
  157OSM    H7G17599   3.324   5.432   5.011  3.7720 -0.4314  0.4857
  157OSM    C8F17600   3.387   5.644   5.044  0.5968 -0.6611 -0.0153
  157OSM    H8F17601   3.317   5.677   5.124  2.4121  1.5273  0.7644
  157OSM    H8G17602   3.396   5.741   4.990  0.0696  0.3678  1.6664
  157OSM    C9F17603   3.522   5.615   5.102 -0.3064 -1.2489  0.8400
  157OSM    H9F17604   3.582   5.578   5.018 -1.0678  2.7870 -1.7906
  157OSM   C10F17605   3.578   5.637   5.224 -0.0274  0.5170  0.1813
  157OSM   H10F17606   3.681   5.602   5.243 -0.5838 -1.9023 -0.8846
  157OSM   C11F17607   3.507   5.690   5.343  0.2240  0.4634 -0.3422
  157OSM   H11F17608   3.475   5.596   5.395  1.3527 -0.8365 -1.8904
  157OSM   H11G17609   3.424   5.759   5.318 -1.0610 -1.2779 -1.0988
  157OSM   C12F17610   3.600   5.759   5.450 -0.3592  0.9762 -0.2505
  157OSM   H12F17611   3.535   5.816   5.519 -0.5477  1.1880 -0.5990
  157OSM   H12G17612   3.656   5.833   5.389 -1.2587  0.9095 -1.1901
  157OSM   C13F17613   3.694   5.648   5.520  0.5309  0.1531  0.2503
  157OSM   H13F17614   3.768   5.615   5.445  0.4447  0.3062  0.0952
  157OSM   H13G17615   3.640   5.555   5.550  3.2265 -1.9124 -0.9359
  157OSM   C14F17616   3.768   5.709   5.652  0.1739  0.4201 -0.0175
  157OSM   H14F17617   3.811   5.809   5.630 -1.7149  1.4193  0.5711
  157OSM   H14G17618   3.853   5.640   5.668  1.5398  1.6778 -1.4541
  157OSM   C15F17619   3.684   5.709   5.779  0.2719  0.6049  0.2717
  157OSM   H15F17620   3.638   5.613   5.809  1.3534 -0.4056 -1.1862
  157OSM   H15G17621   3.592   5.767   5.754 -0.1452  0.9147  2.3259
  157OSM   C16F17622   3.756   5.778   5.894  0.2177  0.5088 -0.4311
  157OSM   H16F17623   3.681   5.781   5.976  0.3307  1.2020 -0.3414
  157OSM   H16G17624   3.785   5.883   5.873 -0.9601  1.6192  2.8773
  157OSM   C17F17625   3.868   5.700   5.950  0.5051  0.1837  0.4052
  157OSM   H17F17626   3.957   5.712   5.885 -0.3361  0.3048 -0.7545
  157OSM   H17G17627   3.857   5.590   5.944 -0.9073  0.3167  0.1971
  157OSM   C18F17628   3.903   5.729   6.091 -0.0433 -0.2549 -0.1614
  157OSM   H18F17629   3.815   5.710   6.157 -0.6095  3.2231  0.3109
  157OSM   H18G17630   3.938   5.834   6.103 -1.4383  0.3643 -1.2487
  157OSM   H18H17631   3.992   5.674   6.126  1.4230  3.0840  1.8653
  158OSM      N17632   1.670   4.740   3.987 -0.5700  0.7976 -0.1833
  158OSM    C1517633   1.680   4.718   3.832 -0.4909  0.1362  0.2113
  158OSM   H15A17634   1.738   4.629   3.811 -0.1423 -0.1617  2.2468
  158OSM   H15B17635   1.738   4.800   3.792 -1.4573  0.9335  0.4016
  158OSM   H15C17636   1.580   4.709   3.790  0.4027 -0.4411 -1.9143
  158OSM    C1417637   1.802   4.773   4.054 -0.1930  1.0942  0.2999
  158OSM   H14A17638   1.858   4.682   4.072  0.3609  1.2478 -0.6076
  158OSM   H14B17639   1.789   4.807   4.156 -1.4875  2.3879 -0.2691
  158OSM   H14C17640   1.840   4.857   3.997 -0.3074  1.0135  0.1067
  158OSM    C1317641   1.577   4.859   3.994  0.4566 -0.0002  0.4067
  158OSM   H13A17642   1.573   4.896   4.095 -0.8318  0.3473  0.2421
  158OSM   H13B17643   1.475   4.839   3.965 -0.7442  1.8210  2.9964
  158OSM   H13C17644   1.612   4.948   3.944 -0.1357  1.9278  3.1986
  158OSM    C1217645   1.605   4.622   4.063 -0.2871  0.1724 -0.3188
  158OSM   H12A17646   1.552   4.672   4.143 -1.5129 -0.8319 -0.4600
  158OSM   H12B17647   1.686   4.562   4.102  2.6068  2.8192 -1.8188
  158OSM    C1117648   1.500   4.538   3.988  0.0039  0.1926  0.3336
  158OSM   H11A17649   1.424   4.612   3.956 -0.0593  0.8329  1.8621
  158OSM   H11B17650   1.450   4.471   4.061  1.3377  0.7069  1.7702
  158OSM      P17651   1.659   4.348   3.918  0.2436  0.1480 -0.3964
  158OSM    O1317652   1.629   4.236   3.826 -0.0945 -0.2058  0.5539
  158OSM    O1417653   1.799   4.393   3.922  0.4286 -0.0534 -0.1111
  158OSM    O1117654   1.616   4.295   4.061  0.2983  0.0286 -0.0482
  158OSM    O1217655   1.565   4.464   3.882 -0.4288 -0.1176  0.5515
  158OSM    C1S17656   1.699   4.205   4.131 -0.3975 -0.0068 -1.0270
  158OSM    H1S17657   1.786   4.262   4.170 -1.2153  1.8989 -1.8378
  158OSM    H1T17658   1.739   4.122   4.069  0.3768 -0.6615  0.2998
  158OSM     NF17659   1.713   4.082   4.349 -0.4598 -0.4374  0.1639
  158OSM    HNF17660   1.715   3.985   4.375  1.0583 -0.6154 -0.4998
  158OSM    C2S17661   1.622   4.142   4.248  0.0387 -0.2503  0.1422
  158OSM    H2S17662   1.575   4.233   4.291  1.9329  1.5253 -1.3399
  158OSM    C3S17663   1.510   4.047   4.197 -1.2464  0.3690 -0.4054
  158OSM    H3S17664   1.559   3.963   4.143 -0.6571  1.3934 -1.4922
  158OSM     O317665   1.425   4.107   4.099  0.2835  0.3401  0.0847
  158OSM    HO317666   1.485   4.174   4.064 -1.1063  1.1262 -0.9068
  158OSM    C4S17667   1.433   3.990   4.310  1.2185  0.6292 -0.6051
  158OSM    H4S17668   1.366   4.063   4.358  0.5028 -0.2327 -0.2633
  158OSM    C5S17669   1.438   3.869   4.368 -0.1650 -0.8223  0.0250
  158OSM    H5S17670   1.518   3.804   4.330  2.3134  3.3222 -2.6602
  158OSM    C6S17671   1.361   3.827   4.492  0.7138  0.0058  0.4243
  158OSM    H6S17672   1.426   3.781   4.570  0.0536  0.8519  1.5117
  158OSM    H6T17673   1.290   3.746   4.464  1.7100 -0.9476  0.5657
  158OSM    C7S17674   1.272   3.930   4.572 -0.5575  0.1245 -0.1811
  158OSM    H7S17675   1.209   3.990   4.503  0.6438 -1.0249 -2.3966
  158OSM    H7T17676   1.343   3.995   4.627  0.2594 -1.1876  0.3697
  158OSM    C8S17677   1.175   3.849   4.663  0.0966 -0.2811 -0.2197
  158OSM    H8S17678   1.111   3.773   4.614 -1.1345  1.3129 -1.1595
  158OSM    H8T17679   1.114   3.926   4.713  1.2431  1.1383 -0.9272
  158OSM    C9S17680   1.245   3.772   4.772  0.4380 -0.5148 -0.0021
  158OSM    H9S17681   1.305   3.840   4.836  1.9155 -1.2187 -0.6023
  158OSM    H9T17682   1.323   3.703   4.734  0.0169 -0.3117 -1.2831
  158OSM   C10S17683   1.160   3.677   4.862  0.0495  0.1096 -0.4429
  158OSM   H10S17684   1.142   3.579   4.813  1.2041  0.1516 -0.9838
  158OSM   H10T17685   1.059   3.722   4.872 -0.0314 -0.4598  1.6075
  158OSM   C11S17686   1.220   3.639   5.000  0.6280 -0.0773  0.5523
  158OSM   H11S17687   1.324   3.604   4.991  1.4318  2.1047  0.7178
  158OSM   H11T17688   1.164   3.560   5.054  0.8591 -2.0136 -1.8809
  158OSM   C12S17689   1.223   3.767   5.093  0.0737  0.1473  0.8314
  158OSM   H12S17690   1.129   3.827   5.092  0.0881  0.1706  0.8489
  158OSM   H12T17691   1.307   3.829   5.053  2.7680 -3.7030 -0.0142
  158OSM   C13S17692   1.256   3.729   5.237 -0.0955  0.3616  0.6304
  158OSM   H13S17693   1.280   3.816   5.302  0.9993  1.0250 -0.6341
  158OSM   H13T17694   1.343   3.661   5.248  0.0764  0.4117 -0.3404
  158OSM   C14S17695   1.129   3.674   5.316 -0.6227 -0.1011 -0.5737
  158OSM   H14S17696   1.118   3.570   5.280  0.9900  0.0853 -1.6970
  158OSM   H14T17697   1.044   3.738   5.286 -0.7263  0.0359 -0.0053
  158OSM   C15S17698   1.157   3.670   5.465 -0.0097  0.2500 -0.2488
  158OSM   H15S17699   1.180   3.774   5.497 -1.2418  0.5910 -0.4022
  158OSM   H15T17700   1.238   3.603   5.499  0.6029  1.3096  0.4254
  158OSM   C16S17701   1.024   3.624   5.537 -0.0887 -0.1069  0.0638
  158OSM   H16S17702   0.973   3.537   5.489 -2.1369  0.1335  1.6649
  158OSM   H16T17703   0.961   3.715   5.533 -1.9890 -1.3438  0.4011
  158OSM   C17S17704   1.050   3.587   5.685  0.4595  0.1235 -0.4689
  158OSM   H17S17705   1.061   3.684   5.738  3.8388 -1.2876  1.7192
  158OSM   H17T17706   1.145   3.530   5.692 -1.1068 -2.6268 -0.0691
  158OSM   C18S17707   0.938   3.504   5.750  0.3435 -0.4207  0.6481
  158OSM   H18S17708   0.926   3.404   5.703 -2.8606  1.1908 -2.4315
  158OSM   H18T17709   0.836   3.547   5.744  0.2392 -0.5211  1.6449
  158OSM   H18U17710   0.973   3.498   5.855  2.9795 -1.0086 -0.1791
  158OSM    C1F17711   1.791   4.152   4.429 -0.3579 -0.0034  0.0063
  158OSM     OF17712   1.804   4.271   4.405  0.3192  0.0742 -0.0844
  158OSM    C2F17713   1.858   4.083   4.553  0.1765  0.2898  0.9707
  158OSM    H2F17714   1.963   4.122   4.552  0.0783  0.5428  0.3567
  158OSM    H2G17715   1.868   3.978   4.520  1.1081  1.0402 -1.3418
  158OSM    C3F17716   1.787   4.105   4.684  0.0948  0.3931  0.2790
  158OSM    H3F17717   1.760   4.212   4.696 -0.1732  0.1065  2.7075
  158OSM    H3G17718   1.856   4.088   4.770 -0.8214  1.1753  1.1759
  158OSM    C4F17719   1.666   4.012   4.686 -0.0715  0.4606 -0.5449
  158OSM    H4F17720   1.692   3.919   4.632  0.9888  1.1720 -1.2960
  158OSM    H4G17721   1.592   4.055   4.615  2.5326  2.1479 -2.4263
  158OSM    C5F17722   1.579   3.988   4.822 -0.0269 -0.1451  0.7661
  158OSM    H5F17723   1.504   3.910   4.795  1.2734 -2.0099  2.3078
  158OSM    H5G17724   1.522   4.082   4.837 -0.1132 -0.1620  0.5529
  158OSM    C6F17725   1.660   3.946   4.941 -0.0806  0.2521  1.0052
  158OSM    H6F17726   1.757   3.999   4.940  0.1684 -0.1340 -1.9513
  158OSM    H6G17727   1.693   3.840   4.938 -2.3723 -0.5008 -1.0234
  158OSM    C7F17728   1.578   3.967   5.066  0.2715 -0.5086 -0.7523
  158OSM    H7F17729   1.492   3.898   5.069 -1.1062  1.1804  1.4283
  158OSM    H7G17730   1.528   4.065   5.050 -0.8215 -0.9572 -0.1092
  158OSM    C8F17731   1.654   3.972   5.200 -0.3582 -0.0753 -0.0788
  158OSM    H8F17732   1.736   4.047   5.199 -0.2126 -0.1507  1.9428
  158OSM    H8G17733   1.704   3.874   5.186  1.8015  0.8588  0.7582
  158OSM    C9F17734   1.568   3.983   5.323  0.1015 -0.1539 -0.0788
  158OSM    H9F17735   1.498   4.066   5.308 -2.6702 -2.4003 -0.3237
  158OSM   C10F17736   1.566   3.896   5.423 -0.5961 -0.1117  0.2019
  158OSM   H10F17737   1.489   3.903   5.502 -0.7833 -0.0177  0.0147
  158OSM   C11F17738   1.646   3.762   5.426 -0.6716 -0.9766  0.8345
  158OSM   H11F17739   1.744   3.767   5.374  0.7220 -3.9835  2.8914
  158OSM   H11G17740   1.594   3.685   5.365  2.4115 -3.1393  0.7151
  158OSM   C12F17741   1.658   3.695   5.568  0.2105 -0.7431  0.5727
  158OSM   H12F17742   1.673   3.772   5.647 -0.0287 -0.3311  0.2188
  158OSM   H12G17743   1.748   3.631   5.555  1.3017  0.8064  0.2549
  158OSM   C13F17744   1.543   3.599   5.604 -0.1460 -0.3461 -0.5835
  158OSM   H13F17745   1.539   3.499   5.557 -2.1107 -1.1514  1.1282
  158OSM   H13G17746   1.452   3.652   5.569 -0.9122 -0.8064  0.6522
  158OSM   C14F17747   1.537   3.578   5.756 -0.5242  0.3706  0.6176
  158OSM   H14F17748   1.526   3.683   5.791  1.7329  1.0964 -0.6141
  158OSM   H14G17749   1.635   3.541   5.794 -0.0181 -1.8942 -2.4889
  158OSM   C15F17750   1.434   3.476   5.796 -0.2724  0.4390  0.9467
  158OSM   H15F17751   1.429   3.383   5.736 -1.1982  0.7461  0.5331
  158OSM   H15G17752   1.337   3.528   5.778  0.8697  1.8039 -1.8317
  158OSM   C16F17753   1.427   3.436   5.945 -0.0355 -0.4693  0.3492
  158OSM   H16F17754   1.426   3.528   6.007  2.9918 -0.3918  0.4660
  158OSM   H16G17755   1.514   3.378   5.986  0.2488  0.6254  1.3441
  158OSM   C17F17756   1.286   3.371   5.970  1.1033 -0.3778 -0.1218
  158OSM   H17F17757   1.257   3.302   5.887  0.2806  1.3385 -1.3399
  158OSM   H17G17758   1.218   3.458   5.963 -0.1456 -1.4465 -2.9032
  158OSM   C18F17759   1.277   3.306   6.108 -0.6051  0.5189 -0.5467
  158OSM   H18F17760   1.343   3.216   6.107 -1.6418 -0.2604 -0.8595
  158OSM   H18G17761   1.176   3.264   6.127 -0.2737  0.4116  1.1537
  158OSM   H18H17762   1.301   3.374   6.192 -0.8807  0.5942 -0.5309
  159OSM      N17763   2.257   5.800   3.855  0.1412 -0.3021  0.1773
  159OSM    C1517764   2.213   5.710   3.960 -0.0244  0.1044  0.4715
  159OSM   H15A17765   2.106   5.726   3.971 -0.3659  0.8314 -2.9028
  159OSM   H15B17766   2.253   5.726   4.059 -1.9355 -2.1158  1.7202
  159OSM   H15C17767   2.229   5.607   3.932  1.1154  0.8094 -1.6372
  159OSM    C1417768   2.165   5.768   3.736  0.1322  0.0506 -0.0740
  159OSM   H14A17769   2.061   5.792   3.753 -0.6263 -2.3999 -0.9439
  159OSM   H14B17770   2.170   5.662   3.717  1.0282 -0.3068  1.8783
  159OSM   H14C17771   2.197   5.816   3.645 -1.6170 -1.5648 -1.6395
  159OSM    C1317772   2.230   5.942   3.899 -0.0662 -0.7058  0.3286
  159OSM   H13A17773   2.289   5.971   3.985  1.7271  0.5336 -1.2337
  159OSM   H13B17774   2.128   5.962   3.927  0.6374 -0.9107  3.4413
  159OSM   H13C17775   2.251   6.013   3.822 -1.0041 -1.1213 -0.3254
  159OSM    C1217776   2.405   5.788   3.818 -0.5094  0.3550 -0.6729
  159OSM   H12A17777   2.428   5.859   3.741 -0.6418  1.4606  0.2875
  159OSM   H12B17778   2.427   5.689   3.780 -1.5314  0.2647 -1.0716
  159OSM    C1117779   2.503   5.809   3.933 -0.2852  0.2955  0.0256
  159OSM   H11A17780   2.498   5.714   3.990  3.2419  0.2981  0.5876
  159OSM   H11B17781   2.482   5.906   3.981  1.1166  1.9264 -2.4041
  159OSM      P17782   2.710   5.943   3.830  0.3710  0.5926  0.1367
  159OSM    O1317783   2.824   5.905   3.744 -0.3388 -0.6298  0.3939
  159OSM    O1417784   2.622   6.045   3.770 -0.0380 -0.5902 -0.1464
  159OSM    O1117785   2.765   5.999   3.969  0.0511  0.0421  0.1064
  159OSM    O1217786   2.635   5.810   3.872 -0.4276 -0.2509 -0.1062
  159OSM    C1S17787   2.886   5.940   4.022 -0.4557  0.0256  0.0522
  159OSM    H1S17788   2.976   5.998   3.990 -0.5951 -0.0285 -0.4521
  159OSM    H1T17789   2.898   5.831   4.004 -0.2702  0.1855 -0.8277
  159OSM     NF17790   3.027   5.942   4.235 -0.0276  0.4045  0.0793
  159OSM    HNF17791   3.049   5.862   4.290 -1.6511  1.6097  2.6756
  159OSM    C2S17792   2.893   5.940   4.180 -0.6553  0.5004 -0.5437
  159OSM    H2S17793   2.855   6.042   4.205  0.5994  1.7584 -3.3991
  159OSM    C3S17794   2.801   5.833   4.255 -0.6557 -0.1540  0.3120
  159OSM    H3S17795   2.836   5.728   4.238 -1.1792 -0.3880  0.6503
  159OSM     O317796   2.666   5.840   4.199 -0.2788 -0.7179 -0.6461
  159OSM    HO317797   2.672   5.908   4.132 -0.3708 -0.8055 -0.7440
  159OSM    C4S17798   2.800   5.867   4.402  0.7900  0.2527  0.0841
  159OSM    H4S17799   2.736   5.950   4.436  0.6739  0.4663 -0.6486
  159OSM    C5S17800   2.876   5.815   4.503 -0.0387  0.2085  0.5171
  159OSM    H5S17801   2.952   5.740   4.478 -1.2792 -1.3621  1.2430
  159OSM    C6S17802   2.868   5.852   4.647 -0.0265 -0.4798 -0.4419
  159OSM    H6S17803   2.837   5.761   4.703 -0.4887 -0.3754 -0.5210
  159OSM    H6T17804   2.796   5.936   4.660 -0.5632 -1.0340  0.2465
  159OSM    C7S17805   3.005   5.904   4.701  0.0301  0.3186  1.0680
  159OSM    H7S17806   3.037   5.993   4.644 -1.7481  1.5664  1.9417
  159OSM    H7T17807   3.080   5.823   4.687 -0.3448  0.0240  0.7103
  159OSM    C8S17808   2.995   5.961   4.844 -0.9108  0.3429 -0.2170
  159OSM    H8S17809   2.929   6.051   4.849 -0.0175  0.9504  1.0246
  159OSM    H8T17810   3.099   5.972   4.881 -0.0077 -0.2910 -2.4239
  159OSM    C9S17811   2.928   5.857   4.941  0.3221  0.1107  0.4659
  159OSM    H9S17812   2.963   5.752   4.932  0.6165  0.1625  0.9707
  159OSM    H9T17813   2.819   5.852   4.918 -0.0938  0.0138  2.2780
  159OSM   C10S17814   2.952   5.894   5.089 -0.2825 -0.7254 -0.0850
  159OSM   H10S17815   2.894   5.830   5.158 -0.4333 -0.9984 -0.4606
  159OSM   H10T17816   2.916   5.999   5.101  2.1024  0.1678 -0.2451
  159OSM   C11S17817   3.097   5.894   5.142  0.3922 -0.1554 -0.1919
  159OSM   H11S17818   3.157   5.979   5.103 -1.5112  1.2463 -0.2090
  159OSM   H11T17819   3.141   5.796   5.112  0.4532  0.1537 -1.1673
  159OSM   C12S17820   3.095   5.919   5.299  0.4882 -0.2809  1.2896
  159OSM   H12S17821   3.024   5.998   5.331 -0.6273 -1.0371  0.7608
  159OSM   H12T17822   3.197   5.959   5.314  1.0428 -0.8654 -0.5631
  159OSM   C13S17823   3.097   5.785   5.370 -0.2401  0.2088  0.1436
  159OSM   H13S17824   3.180   5.724   5.329 -1.1589 -0.9370 -0.0704
  159OSM   H13T17825   3.007   5.720   5.362 -0.9614  1.0625  0.9822
  159OSM   C14S17826   3.135   5.791   5.522  0.4121  0.3171 -0.6792
  159OSM   H14S17827   3.232   5.842   5.544 -0.7572  3.5750 -2.5032
  159OSM   H14T17828   3.139   5.684   5.551  0.3131  0.1788 -1.1732
  159OSM   C15S17829   3.034   5.846   5.613  0.0452 -0.0513 -0.0537
  159OSM   H15S17830   2.936   5.798   5.595  0.9567 -1.4498 -1.5411
  159OSM   H15T17831   3.030   5.952   5.580 -1.3353 -0.0872 -0.0867
  159OSM   C16S17832   3.063   5.841   5.764  0.3645  0.3563 -1.1018
  159OSM   H16S17833   3.098   5.740   5.796  1.3661  0.1714 -2.6729
  159OSM   H16T17834   2.969   5.862   5.819 -0.0535 -0.4665 -1.4811
  159OSM   C17S17835   3.166   5.947   5.813 -0.0232 -0.2023 -0.0323
  159OSM   H17S17836   3.135   6.051   5.794  0.6974  0.1730  0.7778
  159OSM   H17T17837   3.258   5.931   5.752  0.1188 -0.8054  0.3281
  159OSM   C18S17838   3.208   5.947   5.963  0.6299 -0.3868  1.2821
  159OSM   H18S17839   3.124   5.973   6.031  1.1350 -1.4242  2.3395
  159OSM   H18T17840   3.274   6.034   5.980 -2.6444  2.8452 -0.9200
  159OSM   H18U17841   3.262   5.856   5.999 -0.1102 -1.0797  0.6963
  159OSM    C1F17842   3.109   6.049   4.225 -0.3865  0.2714  0.2634
  159OSM     OF17843   3.071   6.150   4.176  0.3021 -0.2683 -0.9733
  159OSM    C2F17844   3.256   6.028   4.270  0.4159  0.7279  0.0871
  159OSM    H2F17845   3.316   5.990   4.184  0.8554 -2.5852  1.6873
  159OSM    H2G17846   3.248   5.948   4.346 -0.3581 -0.2296 -0.9596
  159OSM    C3F17847   3.310   6.159   4.321  0.0524 -0.3489 -0.2260
  159OSM    H3F17848   3.308   6.235   4.240  0.1910  1.3299  1.2606
  159OSM    H3G17849   3.420   6.159   4.338  0.3313 -1.8653 -1.7416
  159OSM    C4F17850   3.242   6.218   4.451 -0.3828  0.1634  0.3900
  159OSM    H4F17851   3.278   6.146   4.527 -1.3011 -2.9983 -1.9735
  159OSM    H4G17852   3.133   6.200   4.444 -0.4215  0.5744 -0.1533
  159OSM    C5F17853   3.268   6.371   4.461 -0.0275 -0.3428 -0.7552
  159OSM    H5F17854   3.204   6.425   4.388 -0.8214  1.1977  1.0120
  159OSM    H5G17855   3.376   6.388   4.441  0.2720  1.0566  1.7246
  159OSM    C6F17856   3.230   6.413   4.602  0.6664 -0.4218 -0.2653
  159OSM    H6F17857   3.142   6.353   4.636 -2.5662  2.0405 -3.4222
  159OSM    H6G17858   3.192   6.517   4.592 -1.0351 -0.8328  1.2345
  159OSM    C7F17859   3.346   6.405   4.702 -0.1940 -0.2616 -0.3413
  159OSM    H7F17860   3.418   6.484   4.672 -2.3271  1.3662 -1.5219
  159OSM    H7G17861   3.386   6.303   4.687 -2.3630 -1.0487 -1.1036
  159OSM    C8F17862   3.307   6.427   4.852  0.1194  0.1635  0.1178
  159OSM    H8F17863   3.399   6.406   4.910 -1.3585  0.6060  2.8403
  159OSM    H8G17864   3.234   6.345   4.870 -0.2537  0.3796 -0.3882
  159OSM    C9F17865   3.244   6.560   4.892  0.6431 -0.3223  0.1495
  159OSM    H9F17866   3.141   6.587   4.865 -0.3032 -1.5637  2.2949
  159OSM   C10F17867   3.299   6.644   4.986  0.7188 -0.2599 -0.1350
  159OSM   H10F17868   3.248   6.738   5.012  2.0215 -0.6687  4.7609
  159OSM   C11F17869   3.415   6.623   5.069 -0.8463  0.1835  0.6402
  159OSM   H11F17870   3.492   6.694   5.032 -2.5591  2.1029  0.6030
  159OSM   H11G17871   3.450   6.517   5.064  1.5145  0.9062  0.3889
  159OSM   C12F17872   3.386   6.644   5.217  0.2894  0.2530 -0.1265
  159OSM   H12F17873   3.349   6.556   5.275  0.4638  1.9989  2.8176
  159OSM   H12G17874   3.308   6.721   5.235 -1.0336 -1.3712  1.5471
  159OSM   C13F17875   3.512   6.702   5.295 -0.1516 -0.0499 -1.0469
  159OSM   H13F17876   3.484   6.799   5.341 -0.0768 -1.1807  1.5509
  159OSM   H13G17877   3.610   6.709   5.242  0.4588  0.6310  0.1371
  159OSM   C14F17878   3.553   6.598   5.397 -0.7004 -0.6552 -0.2939
  159OSM   H14F17879   3.574   6.501   5.346 -0.4582 -0.0542 -1.3615
  159OSM   H14G17880   3.469   6.588   5.468 -2.9276  1.2710 -2.4931
  159OSM   C15F17881   3.682   6.639   5.473 -0.1427 -0.0548  0.3075
  159OSM   H15F17882   3.779   6.631   5.419 -0.4275 -0.4127 -0.1452
  159OSM   H15G17883   3.689   6.553   5.543 -1.8276 -1.4385 -1.1518
  159OSM   C16F17884   3.661   6.767   5.561 -0.0532  0.2918 -0.6088
  159OSM   H16F17885   3.562   6.755   5.610 -1.1280 -0.7750 -2.8763
  159OSM   H16G17886   3.653   6.856   5.496  1.1609 -0.7790 -2.3086
  159OSM   C17F17887   3.776   6.793   5.661  0.3324  0.0064  0.6155
  159OSM   H17F17888   3.753   6.887   5.717  1.8057  1.6287 -1.3733
  159OSM   H17G17889   3.862   6.812   5.593  0.0187 -1.8481 -0.3683
  159OSM   C18F17890   3.801   6.676   5.750 -0.6454  0.5252 -0.2565
  159OSM   H18F17891   3.876   6.706   5.826  0.9541  0.6460 -1.8231
  159OSM   H18G17892   3.839   6.587   5.694  2.6516  2.1875 -0.8729
  159OSM   H18H17893   3.709   6.645   5.805  0.2495  3.2318  3.0895
  160OSM      N17894   2.168   4.722   3.744  0.1418  0.7410 -0.2469
  160OSM    C1517895   2.086   4.597   3.703 -0.5108 -0.3001  0.1061
  160OSM   H15A17896   2.116   4.499   3.738  0.4490  0.0978  0.4144
  160OSM   H15B17897   2.083   4.587   3.595  0.4313  0.2641  0.0185
  160OSM   H15C17898   1.984   4.610   3.735 -0.3656  2.6708 -0.3645
  160OSM    C1417899   2.306   4.702   3.696  0.1218 -0.4010 -0.0243
  160OSM   H14A17900   2.300   4.707   3.588 -0.1808  1.3167  0.0475
  160OSM   H14B17901   2.345   4.607   3.730  0.8182 -0.7183 -1.6051
  160OSM   H14C17902   2.374   4.776   3.736  1.8896 -1.2131 -1.3613
  160OSM    C1317903   2.114   4.845   3.684  0.6803  0.0577 -0.2150
  160OSM   H13A17904   2.123   4.834   3.577  2.2291  1.0005 -0.2045
  160OSM   H13B17905   2.157   4.938   3.716 -0.9122  0.8324 -0.2217
  160OSM   H13C17906   2.009   4.853   3.708  0.6519  1.8125 -0.7900
  160OSM    C1217907   2.168   4.731   3.899 -0.7918 -0.2634  0.2126
  160OSM   H12A17908   2.186   4.632   3.939  0.8109 -0.8462 -1.8084
  160OSM   H12B17909   2.069   4.757   3.934 -0.2620  2.4866 -0.1151
  160OSM    C1117910   2.260   4.836   3.961  0.5849 -0.0011  0.1386
  160OSM   H11A17911   2.363   4.822   3.924  0.5112 -0.9780  0.2704
  160OSM   H11B17912   2.254   4.814   4.070 -0.0555  0.6365  0.2414
  160OSM      P17913   2.110   5.047   3.985  0.1566  0.0518  0.0008
  160OSM    O1317914   2.116   5.185   3.939 -0.4456 -0.1380  0.4715
  160OSM    O1417915   1.983   4.974   3.967  0.7440  0.0754 -0.0212
  160OSM    O1117916   2.152   5.031   4.136  0.0829 -0.4021  0.0144
  160OSM    O1217917   2.227   4.967   3.924 -0.7286 -0.0873 -0.6550
  160OSM    C1S17918   2.284   5.063   4.185  0.9120  0.1877  1.3770
  160OSM    H1S17919   2.320   5.153   4.130 -0.2722 -0.6142 -0.8966
  160OSM    H1T17920   2.348   4.976   4.160 -1.8663 -1.0384 -2.5496
  160OSM     NF17921   2.398   5.160   4.378  0.5853  0.2551  0.3686
  160OSM    HNF17922   2.457   5.101   4.432 -1.6566 -3.0168 -0.4586
  160OSM    C2S17923   2.279   5.090   4.336 -0.6227 -0.1237  0.4382
  160OSM    H2S17924   2.199   5.166   4.348 -1.0697  0.1237 -3.0889
  160OSM    C3S17925   2.232   4.960   4.407  0.7747 -0.3423  0.2987
  160OSM    H3S17926   2.294   4.877   4.368 -1.3621 -1.4302 -0.9164
  160OSM     O317927   2.098   4.919   4.381  0.0935 -0.2784  0.3580
  160OSM    HO317928   2.078   4.953   4.293 -0.5277 -2.7760 -0.5562
  160OSM    C4S17929   2.242   4.982   4.554  0.4452  0.3332  1.0855
  160OSM    H4S17930   2.173   5.059   4.593 -1.4283 -1.1661  0.8626
  160OSM    C5S17931   2.306   4.901   4.639  0.3060  0.1963 -0.9412
  160OSM    H5S17932   2.363   4.812   4.608  1.0940  1.0380 -1.9934
  160OSM    C6S17933   2.293   4.932   4.784 -0.2632  0.7031 -0.1285
  160OSM    H6S17934   2.250   5.030   4.814 -0.0475  1.2116 -1.4453
  160OSM    H6T17935   2.393   4.921   4.832 -0.8419 -2.2620  0.6410
  160OSM    C7S17936   2.209   4.821   4.849 -0.2999 -0.0689 -1.2647
  160OSM    H7S17937   2.261   4.723   4.839  2.0342  0.6971  1.5999
  160OSM    H7T17938   2.110   4.814   4.799 -0.6928  1.0642 -0.6829
  160OSM    C8S17939   2.183   4.854   5.002  0.5596 -0.8125  0.3255
  160OSM    H8S17940   2.122   4.772   5.044 -1.4528 -0.8940 -2.5189
  160OSM    H8T17941   2.134   4.954   5.005  2.1884  0.0266  2.5924
  160OSM    C9S17942   2.310   4.847   5.093  0.1760  0.3397  0.1601
  160OSM    H9S17943   2.363   4.944   5.084 -2.8054  2.1984  1.2182
  160OSM    H9T17944   2.385   4.772   5.060 -0.4020  0.1401 -0.7468
  160OSM   C10S17945   2.293   4.828   5.246  0.2418  0.7127  0.0636
  160OSM   H10S17946   2.234   4.733   5.241 -0.4275  1.1645 -0.9889
  160OSM   H10T17947   2.228   4.913   5.278  0.1562  0.5972  0.1984
  160OSM   C11S17948   2.418   4.814   5.329 -0.0609 -0.7136  0.3530
  160OSM   H11S17949   2.490   4.897   5.313  0.9467 -1.5496  0.4611
  160OSM   H11T17950   2.464   4.720   5.292  1.3824 -0.2228  0.8359
  160OSM   C12S17951   2.395   4.821   5.480 -0.0605  0.3407 -0.1329
  160OSM   H12S17952   2.323   4.743   5.511  0.6269  0.2498  1.3205
  160OSM   H12T17953   2.339   4.914   5.504  0.6902  0.2322  2.2611
  160OSM   C13S17954   2.521   4.805   5.566  0.0160 -0.6610 -0.2306
  160OSM   H13S17955   2.586   4.893   5.551  0.6049 -1.2387 -1.1437
  160OSM   H13T17956   2.583   4.717   5.538 -0.4509 -1.3425  0.8049
  160OSM   C14S17957   2.484   4.789   5.717 -0.5512 -0.5869  0.1988
  160OSM   H14S17958   2.567   4.732   5.765 -0.0309 -0.2756 -0.3328
  160OSM   H14T17959   2.395   4.724   5.737  0.9454 -2.2953  1.7913
  160OSM   C15S17960   2.478   4.923   5.798  0.0745 -0.9096 -0.5057
  160OSM   H15S17961   2.389   4.985   5.778 -0.4215 -1.3580  0.2574
  160OSM   H15T17962   2.564   4.985   5.764  0.6065 -1.3084  0.0846
  160OSM   C16S17963   2.485   4.901   5.948 -0.0233 -0.0233 -0.3015
  160OSM   H16S17964   2.578   4.859   5.992 -0.4281 -1.2660 -0.6039
  160OSM   H16T17965   2.405   4.828   5.975 -0.4226  0.2256 -0.7930
  160OSM   C17S17966   2.449   5.032   6.021 -0.2428  0.2230  1.0663
  160OSM   H17S17967   2.346   5.066   5.997 -0.1711 -0.6736 -0.7438
  160OSM   H17T17968   2.521   5.114   6.004 -0.1397  0.0648  0.7166
  160OSM   C18S17969   2.454   5.014   6.176  0.4626  0.8625 -0.7836
  160OSM   H18S17970   2.395   4.932   6.221  0.6012  0.0967 -1.9511
  160OSM   H18T17971   2.431   5.110   6.228  2.3336 -0.0202  1.8330
  160OSM   H18U17972   2.561   5.006   6.202  0.1049  0.5577  0.6722
  160OSM    C1F17973   2.429   5.286   4.338 -0.3363  0.0104  0.1809
  160OSM     OF17974   2.358   5.351   4.259  0.1237  0.7655  0.6123
  160OSM    C2F17975   2.551   5.340   4.406  0.2470  0.1021  0.5181
  160OSM    H2F17976   2.627   5.323   4.326  1.2974  1.4452  1.1900
  160OSM    H2G17977   2.596   5.290   4.495  1.2543  0.0631  0.0108
  160OSM    C3F17978   2.537   5.488   4.439  0.2076 -0.0344 -0.1797
  160OSM    H3F17979   2.505   5.543   4.349 -0.3628 -0.9102 -0.5198
  160OSM    H3G17980   2.627   5.541   4.480 -2.1535  3.2407  1.2126
  160OSM    C4F17981   2.429   5.513   4.537  0.1787 -0.3268 -0.4113
  160OSM    H4F17982   2.333   5.475   4.495  0.0383  1.2610 -1.6434
  160OSM    H4G17983   2.410   5.622   4.546 -2.6422 -0.6790 -1.0095
  160OSM    C5F17984   2.456   5.452   4.678  0.5262 -1.0671  0.4877
  160OSM    H5F17985   2.482   5.345   4.662 -1.3337 -1.4407 -0.1989
  160OSM    H5G17986   2.360   5.464   4.733  1.2165  4.0006  1.1416
  160OSM    C6F17987   2.566   5.530   4.753 -0.3961  0.1058 -0.5268
  160OSM    H6F17988   2.537   5.636   4.770 -1.5474 -0.1655 -0.7528
  160OSM    H6G17989   2.658   5.529   4.691 -1.0360 -3.1361 -1.6127
  160OSM    C7F17990   2.579   5.481   4.898  0.1773  0.4069  0.4038
  160OSM    H7F17991   2.598   5.371   4.906  1.0406  0.3438 -1.8528
  160OSM    H7G17992   2.480   5.496   4.945  0.1777 -1.8630  1.2560
  160OSM    C8F17993   2.684   5.555   4.980  0.1184 -0.5425 -0.0546
  160OSM    H8F17994   2.656   5.661   4.995  2.2691  0.0103  0.4823
  160OSM    H8G17995   2.781   5.553   4.925  0.8792 -1.0154  1.2549
  160OSM    C9F17996   2.687   5.499   5.118 -0.2413  0.0590  0.2022
  160OSM    H9F17997   2.596   5.514   5.179 -0.7716  0.9369 -0.7827
  160OSM   C10F17998   2.790   5.433   5.176 -0.2937  0.2972 -0.2465
  160OSM   H10F17999   2.787   5.410   5.283  1.5080  0.3976 -0.1545
  160OSM   C11F18000   2.926   5.414   5.113 -0.3311  0.2891  1.2207
  160OSM   H11F18001   2.925   5.466   5.015  0.2685 -3.4694 -0.9765
  160OSM   H11G18002   2.928   5.305   5.092 -1.5829  0.4669  0.0803
  160OSM   C12F18003   3.053   5.449   5.190  0.4482 -0.4190  0.2938
  160OSM   H12F18004   3.050   5.557   5.213  2.0904 -0.1525 -0.5355
  160OSM   H12G18005   3.141   5.436   5.122 -0.9779 -1.1896 -1.5002
  160OSM   C13F18006   3.079   5.352   5.308  0.2363 -0.5468 -0.5280
  160OSM   H13F18007   3.089   5.244   5.284  0.2506 -0.6146 -0.2174
  160OSM   H13G18008   2.997   5.366   5.381  1.3380  0.1856  0.6228
  160OSM   C14F18009   3.200   5.395   5.394  0.8922  0.0960  0.2425
  160OSM   H14F18010   3.205   5.505   5.390 -0.2947  0.1167 -2.1652
  160OSM   H14G18011   3.288   5.359   5.336 -1.3176  0.3619 -3.5920
  160OSM   C15F18012   3.194   5.345   5.541 -0.0779 -0.0417 -0.2121
  160OSM   H15F18013   3.209   5.235   5.548  0.1560  0.0954  2.9318
  160OSM   H15G18014   3.089   5.365   5.571 -0.2372 -2.5465  1.0955
  160OSM   C16F18015   3.300   5.425   5.636 -0.6133  0.6065  0.6191
  160OSM   H16F18016   3.275   5.532   5.620 -1.0284  0.5575  0.9458
  160OSM   H16G18017   3.404   5.412   5.599 -0.4619 -1.2389  1.5417
  160OSM   C17F18018   3.285   5.375   5.779  0.1380 -0.1512 -0.0268
  160OSM   H17F18019   3.381   5.392   5.832  2.3159 -1.1402 -3.3259
  160OSM   H17G18020   3.280   5.264   5.780 -0.1943 -0.1397 -0.2438
  160OSM   C18F18021   3.169   5.433   5.863 -0.3975 -0.2493 -0.3702
  160OSM   H18F18022   3.178   5.544   5.864 -2.9908  0.0503  1.3106
  160OSM   H18G18023   3.174   5.397   5.968  1.3058  0.8039 -0.0425
  160OSM   H18H18024   3.074   5.397   5.819  0.2976 -2.2636 -0.3485
  161OSM      N18025   3.938   4.538   3.819 -0.5554 -0.1172 -0.2882
  161OSM    C1518026   3.898   4.557   3.963  0.2374 -1.0848  0.7986
  161OSM   H15A18027   3.870   4.457   3.991 -0.1785 -1.3213 -0.4178
  161OSM   H15B18028   3.813   4.622   3.953 -0.8436 -2.7600 -1.6892
  161OSM   H15C18029   3.983   4.595   4.019 -0.7604  0.9092  1.0483
  161OSM    C1418030   3.811   4.515   3.742 -0.1844 -0.2426  0.7916
  161OSM   H14A18031   3.840   4.550   3.644  2.4946 -1.2029  1.1521
  161OSM   H14B18032   3.726   4.572   3.778 -1.1783  0.4903 -2.4052
  161OSM   H14C18033   3.785   4.411   3.732  3.5852 -1.2823  0.4342
  161OSM    C1318034   3.975   4.671   3.760 -0.3505  0.0041  0.4181
  161OSM   H13A18035   4.070   4.705   3.800  0.7539 -0.7443 -1.4224
  161OSM   H13B18036   3.908   4.754   3.774 -0.4610  0.3040 -1.5652
  161OSM   H13C18037   3.986   4.667   3.653 -2.1640 -0.4385  0.2214
  161OSM    C1218038   4.043   4.433   3.796 -0.1459 -0.4282 -0.5722
  161OSM   H12A18039   4.017   4.347   3.856 -0.9741 -1.3471 -2.1643
  161OSM   H12B18040   4.131   4.474   3.843  0.1879 -0.4599 -1.1555
  161OSM    C1118041   4.087   4.401   3.661 -0.0293 -0.6881 -0.0252
  161OSM   H11A18042   4.144   4.482   3.610  2.4666 -3.2497 -1.6212
  161OSM   H11B18043   4.000   4.380   3.595 -2.0776 -1.3263  2.7099
  161OSM      P18044   4.305   4.275   3.619  0.0114 -0.0208 -0.4420
  161OSM    O1318045   4.304   4.180   3.504  0.3477  0.1169  0.2005
  161OSM    O1418046   4.365   4.409   3.609 -0.1414  0.6390  0.8016
  161OSM    O1118047   4.372   4.201   3.742  0.0243 -0.1386 -0.0892
  161OSM    O1218048   4.163   4.285   3.684  0.4751  0.3291 -0.3015
  161OSM    C1S18049   4.373   4.268   3.870 -0.0433 -0.5546 -0.1466
  161OSM    H1S18050   4.376   4.378   3.856  0.9744 -0.6524 -0.8635
  161OSM    H1T18051   4.474   4.246   3.911  0.6100  1.8954 -0.2451
  161OSM     NF18052   4.302   4.309   4.100  0.0575 -1.0425  0.0533
  161OSM    HNF18053   4.364   4.269   4.167  1.3092 -0.8029 -0.9336
  161OSM    C2S18054   4.269   4.234   3.979 -0.6149  0.2117  0.0239
  161OSM    H2S18055   4.168   4.258   3.940 -0.2567 -0.5356 -1.4470
  161OSM    C3S18056   4.280   4.075   3.995  0.5925  0.2566  0.3771
  161OSM    H3S18057   4.385   4.042   4.009  0.5324 -0.0428  0.1302
  161OSM     O318058   4.226   4.012   3.877  0.4543  0.0975  0.1959
  161OSM    HO318059   4.201   4.085   3.820  2.7453  0.8820  0.1002
  161OSM    C4S18060   4.192   4.043   4.112 -0.3201 -0.7050 -0.3821
  161OSM    H4S18061   4.088   4.072   4.095 -0.4247 -1.5526 -1.2078
  161OSM    C5S18062   4.241   4.002   4.230 -0.4870 -0.1924  0.3689
  161OSM    H5S18063   4.348   3.981   4.245 -0.6506 -1.5164 -0.2049
  161OSM    C6S18064   4.156   3.984   4.355 -1.0211 -0.1019 -0.9933
  161OSM    H6S18065   4.050   4.010   4.341 -1.4444 -1.9846 -1.5981
  161OSM    H6T18066   4.201   4.037   4.442 -0.0092 -2.2492 -0.1224
  161OSM    C7S18067   4.150   3.839   4.390  0.3149  0.3733  0.2011
  161OSM    H7S18068   4.248   3.798   4.420 -0.6615 -1.5181  0.9187
  161OSM    H7T18069   4.099   3.781   4.310 -0.9844 -2.8817  3.1534
  161OSM    C8S18070   4.061   3.804   4.511  0.1708  0.0577  0.0653
  161OSM    H8S18071   3.960   3.833   4.477  0.0702 -1.4344 -0.9665
  161OSM    H8T18072   4.087   3.862   4.603  0.0377  2.9109 -1.5705
  161OSM    C9S18073   4.052   3.667   4.556  0.4371  0.2083 -0.2648
  161OSM    H9S18074   4.151   3.627   4.588  0.0489 -0.4321  0.1718
  161OSM    H9T18075   4.022   3.601   4.472 -2.2491  0.1581  0.6580
  161OSM   C10S18076   3.963   3.641   4.676 -0.0620 -0.2894 -0.0355
  161OSM   H10S18077   3.918   3.540   4.672  0.3072 -0.7073  3.2493
  161OSM   H10T18078   3.881   3.716   4.678  1.0203  0.9252  0.3276
  161OSM   C11S18079   4.043   3.647   4.814  1.1174 -0.0970  0.0340
  161OSM   H11S18080   4.073   3.751   4.838  1.0296 -0.4595  1.7944
  161OSM   H11T18081   4.135   3.585   4.806  1.1045 -0.1032 -0.0691
  161OSM   C12S18082   3.955   3.590   4.930 -0.2268  0.3042 -0.0507
  161OSM   H12S18083   3.936   3.485   4.898 -0.6878  0.4677 -0.3143
  161OSM   H12T18084   3.857   3.642   4.925 -1.1247 -1.0901  1.6987
  161OSM   C13S18085   4.026   3.602   5.061 -0.2392 -0.4312  0.0000
  161OSM   H13S18086   4.078   3.700   5.063 -2.5739  0.8858 -0.6740
  161OSM   H13T18087   4.107   3.525   5.063 -0.7112 -0.9223  0.6977
  161OSM   C14S18088   3.939   3.597   5.196 -0.7264  0.0044 -0.4874
  161OSM   H14S18089   3.839   3.552   5.176 -0.2046 -1.3760 -0.0799
  161OSM   H14T18090   3.923   3.701   5.231 -0.0146  0.2915 -0.9796
  161OSM   C15S18091   4.002   3.522   5.317 -0.3207 -0.4531  0.5451
  161OSM   H15S18092   4.005   3.412   5.300  1.5339 -0.1144 -1.8209
  161OSM   H15T18093   3.923   3.530   5.394 -0.6887 -0.4579  0.1735
  161OSM   C16S18094   4.148   3.565   5.359 -0.2802 -0.0643  0.9798
  161OSM   H16S18095   4.212   3.577   5.269 -0.3081  0.9295  1.0758
  161OSM   H16T18096   4.187   3.477   5.414 -1.0790 -0.4541  0.9401
  161OSM   C17S18097   4.160   3.687   5.450  0.1823  0.1330  0.2257
  161OSM   H17S18098   4.096   3.668   5.539 -0.6632  1.0070 -0.1785
  161OSM   H17T18099   4.118   3.770   5.390  0.1112 -0.9237 -1.2103
  161OSM   C18S18100   4.310   3.721   5.491 -0.1589  0.8732  0.6865
  161OSM   H18S18101   4.355   3.645   5.558  0.3966  2.2859  1.9843
  161OSM   H18T18102   4.312   3.811   5.557  3.6036 -0.0890  2.1454
  161OSM   H18U18103   4.374   3.721   5.400  0.4461 -3.3282  0.9169
  161OSM    C1F18104   4.262   4.429   4.125 -0.2435  0.2359  0.1944
  161OSM     OF18105   4.175   4.474   4.057  0.1045  0.3134 -0.0195
  161OSM    C2F18106   4.328   4.507   4.237  1.2342  0.1141  0.2328
  161OSM    H2F18107   4.318   4.613   4.204 -0.0381 -0.0758 -0.0709
  161OSM    H2G18108   4.434   4.475   4.245  0.6734 -1.7085  0.9166
  161OSM    C3F18109   4.242   4.503   4.361  0.5152 -0.3374 -0.3892
  161OSM    H3F18110   4.252   4.398   4.394 -1.3568 -0.4665 -0.1590
  161OSM    H3G18111   4.137   4.529   4.338  1.0121  3.0045  0.4760
  161OSM    C4F18112   4.296   4.600   4.476 -0.6906 -0.1345  0.7674
  161OSM    H4F18113   4.271   4.702   4.440  0.6030 -0.1318 -0.2136
  161OSM    H4G18114   4.406   4.590   4.466 -0.7779  0.3286 -1.1966
  161OSM    C5F18115   4.249   4.571   4.614  0.2127  0.8138 -0.1480
  161OSM    H5F18116   4.140   4.553   4.625  0.4734 -0.3444  0.7477
  161OSM    H5G18117   4.282   4.653   4.683 -0.3710  1.2980 -0.4360
  161OSM    C6F18118   4.304   4.442   4.675 -0.6064 -0.3431 -0.0420
  161OSM    H6F18119   4.413   4.431   4.655 -0.4935  0.3572  0.1435
  161OSM    H6G18120   4.258   4.358   4.619  0.4791  0.1653 -1.7661
  161OSM    C7F18121   4.273   4.452   4.831 -0.1099  0.0774  0.5256
  161OSM    H7F18122   4.164   4.450   4.852 -0.1124  0.6801  0.5807
  161OSM    H7G18123   4.305   4.549   4.873  1.8806 -0.3882  0.2012
  161OSM    C8F18124   4.342   4.329   4.906  0.2028 -0.2134  0.3089
  161OSM    H8F18125   4.347   4.237   4.844  2.3713  0.8599 -1.2790
  161OSM    H8G18126   4.276   4.311   4.993  0.8459  0.9198  1.0655
  161OSM    C9F18127   4.484   4.350   4.944  0.1648  0.5479  0.7489
  161OSM    H9F18128   4.523   4.438   4.890 -1.2770  0.7489  0.0083
  161OSM   C10F18129   4.564   4.282   5.029 -0.3293 -0.0990 -0.2073
  161OSM   H10F18130   4.671   4.304   5.039 -0.3988 -0.4352  1.7126
  161OSM   C11F18131   4.524   4.169   5.117 -0.8368 -0.1453 -0.0356
  161OSM   H11F18132   4.599   4.087   5.112 -1.5327 -0.7337 -1.6142
  161OSM   H11G18133   4.431   4.120   5.081 -0.1767 -0.9588 -0.6693
  161OSM   C12F18134   4.510   4.232   5.260 -0.2458  0.3453  0.1873
  161OSM   H12F18135   4.431   4.310   5.263 -1.3127 -0.7172  2.7779
  161OSM   H12G18136   4.606   4.274   5.296  1.4438 -3.4130  0.5054
  161OSM   C13F18137   4.490   4.120   5.361  0.5758 -0.6088 -0.3432
  161OSM   H13F18138   4.583   4.060   5.372  0.9462  0.2984  2.1394
  161OSM   H13G18139   4.407   4.056   5.325  0.4147 -1.4242  1.3715
  161OSM   C14F18140   4.455   4.162   5.501  0.1772 -0.0467 -0.9301
  161OSM   H14F18141   4.387   4.087   5.547  1.4756 -0.3452  0.5993
  161OSM   H14G18142   4.404   4.260   5.489 -0.6265 -0.0976  1.5244
  161OSM   C15F18143   4.577   4.181   5.590  0.0383 -0.1233  0.2280
  161OSM   H15F18144   4.659   4.254   5.572  0.3749 -0.2449  1.2235
  161OSM   H15G18145   4.629   4.083   5.576 -1.2148 -0.6550 -0.9424
  161OSM   C16F18146   4.535   4.202   5.738 -0.0906 -0.2879  0.8685
  161OSM   H16F18147   4.468   4.118   5.766  0.7300 -2.1329 -2.2567
  161OSM   H16G18148   4.472   4.290   5.761  0.2182  0.1748  0.0048
  161OSM   C17F18149   4.641   4.203   5.856 -0.0687 -0.1884  0.6281
  161OSM   H17F18150   4.693   4.105   5.865  1.2329  0.0921 -2.6345
  161OSM   H17G18151   4.580   4.198   5.949 -1.5629  1.3858 -0.2163
  161OSM   C18F18152   4.741   4.323   5.840  0.0772  1.0131 -0.6949
  161OSM   H18F18153   4.783   4.302   5.739 -0.9656 -1.3073 -0.7217
  161OSM   H18G18154   4.825   4.315   5.912 -0.4572 -1.5790 -0.2539
  161OSM   H18H18155   4.682   4.415   5.860  0.2438  1.5712 -2.5964
  162OSM      N18156   5.487   4.242   3.980 -0.2619 -0.5895  0.0248
  162OSM    C1518157   5.453   4.383   3.925 -0.7572  0.0208 -0.0792
  162OSM   H15A18158   5.464   4.462   3.999  0.0218  1.7650 -1.9471
  162OSM   H15B18159   5.349   4.386   3.896 -0.4153 -0.2105 -1.3679
  162OSM   H15C18160   5.511   4.402   3.836 -0.7103 -0.6142 -0.1878
  162OSM    C1418161   5.369   4.201   4.070 -0.0054  0.3368  0.3559
  162OSM   H14A18162   5.367   4.256   4.163  0.2306 -0.2855  0.7358
  162OSM   H14B18163   5.373   4.095   4.092 -1.0828 -0.0702 -1.2162
  162OSM   H14C18164   5.275   4.222   4.021  0.9001 -0.6319 -1.9744
  162OSM    C1318165   5.506   4.155   3.866 -0.3564  0.2637 -0.3997
  162OSM   H13A18166   5.428   4.159   3.792  1.1943  0.8671 -2.0626
  162OSM   H13B18167   5.500   4.053   3.903 -1.0677 -0.7073 -2.9874
  162OSM   H13C18168   5.602   4.174   3.821  0.0111  0.8050  0.5783
  162OSM    C1218169   5.613   4.246   4.062  0.5179  0.0291  0.1537
  162OSM   H12A18170   5.695   4.254   3.992  1.8783 -1.4677  1.5214
  162OSM   H12B18171   5.622   4.150   4.110  0.0756 -0.0539  0.0795
  162OSM    C1118172   5.631   4.355   4.166  0.4330  0.0378  0.3857
  162OSM   H11A18173   5.713   4.319   4.232 -0.5796 -4.1703 -0.3829
  162OSM   H11B18174   5.545   4.361   4.236  0.4961  0.2113  0.4507
  162OSM      P18175   5.782   4.515   4.032 -0.3171  0.3396 -0.1211
  162OSM    O1318176   5.815   4.405   3.935 -0.0805  0.1301 -0.0370
  162OSM    O1418177   5.780   4.654   3.972 -0.1661  0.0758  0.1314
  162OSM    O1118178   5.900   4.497   4.139  0.2427  0.6625 -0.2917
  162OSM    O1218179   5.650   4.489   4.109 -0.2058  0.6538 -0.0579
  162OSM    C1S18180   5.912   4.611   4.228 -0.5636 -0.2012  0.0944
  162OSM    H1S18181   5.877   4.710   4.192 -0.6523 -0.4098 -0.4042
  162OSM    H1T18182   6.020   4.626   4.249 -0.6415  0.3568  0.1009
  162OSM     NF18183   5.829   4.706   4.440  0.3679  0.3384 -0.3755
  162OSM    HNF18184   5.883   4.709   4.523  0.2506  3.5378 -0.2914
  162OSM    C2S18185   5.844   4.578   4.367  0.2457  0.1985  0.1378
  162OSM    H2S18186   5.742   4.540   4.345  1.7203 -2.4577 -3.0352
  162OSM    C3S18187   5.924   4.463   4.440 -0.6284 -0.0279 -0.5883
  162OSM    H3S18188   6.028   4.499   4.450  0.4156 -3.1788  1.4915
  162OSM     O318189   5.932   4.335   4.375 -0.4858  0.0057  0.5613
  162OSM    HO318190   5.935   4.363   4.284 -1.1323  2.1796  1.1395
  162OSM    C4S18191   5.872   4.445   4.580 -0.3401  0.2385  0.4728
  162OSM    H4S18192   5.904   4.521   4.653 -0.6427 -0.0143  0.8743
  162OSM    C5S18193   5.789   4.355   4.633 -0.2753  0.3264 -0.6666
  162OSM    H5S18194   5.756   4.273   4.568 -2.9141 -0.5429  1.5485
  162OSM    C6S18195   5.746   4.347   4.780  0.0917 -0.4129 -0.1021
  162OSM    H6S18196   5.756   4.243   4.817  0.0789 -0.1915  0.5278
  162OSM    H6T18197   5.635   4.360   4.781 -0.1346 -2.0546  1.5342
  162OSM    C7S18198   5.794   4.460   4.868 -0.2227 -0.3032 -0.5081
  162OSM    H7S18199   5.775   4.557   4.817  1.0475  0.3872  0.3021
  162OSM    H7T18200   5.901   4.456   4.898 -0.2353  1.3886 -0.0915
  162OSM    C8S18201   5.709   4.462   5.001  0.3045 -0.3549  0.3099
  162OSM    H8S18202   5.606   4.489   4.969  0.8618  1.0690 -0.3662
  162OSM    H8T18203   5.732   4.557   5.055 -2.2851  1.0545 -0.8823
  162OSM    C9S18204   5.708   4.326   5.082 -0.5180 -0.1034 -0.3616
  162OSM    H9S18205   5.813   4.289   5.089 -0.0421  0.6126 -2.8020
  162OSM    H9T18206   5.663   4.245   5.022 -0.0244 -0.6435 -0.0119
  162OSM   C10S18207   5.643   4.343   5.220 -0.1296 -0.0082 -0.7536
  162OSM   H10S18208   5.649   4.244   5.269 -0.0619  0.9146  1.2081
  162OSM   H10T18209   5.535   4.369   5.226 -0.4970 -1.7315  0.9532
  162OSM   C11S18210   5.726   4.433   5.311  0.4471  0.2163  0.2140
  162OSM   H11S18211   5.698   4.539   5.295  1.7844  0.2510 -2.2707
  162OSM   H11T18212   5.834   4.412   5.294  0.3161 -0.6854  0.4376
  162OSM   C12S18213   5.710   4.396   5.458  0.4090  0.0788 -0.5130
  162OSM   H12S18214   5.713   4.286   5.473 -1.9985  0.0284 -0.1012
  162OSM   H12T18215   5.605   4.420   5.482  0.0925 -1.3022 -0.4581
  162OSM   C13S18216   5.810   4.464   5.558  0.3656 -0.1199  0.2281
  162OSM   H13S18217   5.828   4.573   5.542 -1.5118  0.0102 -1.3151
  162OSM   H13T18218   5.907   4.412   5.545  0.7401  0.6575 -0.1438
  162OSM   C14S18219   5.756   4.431   5.702  0.1364 -0.2859 -0.8792
  162OSM   H14S18220   5.740   4.321   5.703 -2.4738  0.0090 -1.6679
  162OSM   H14T18221   5.657   4.480   5.705  0.4963  0.7060 -2.9877
  162OSM   C15S18222   5.841   4.471   5.829  0.5076  0.6633  0.5719
  162OSM   H15S18223   5.825   4.578   5.854 -1.0835  0.7501 -0.6723
  162OSM   H15T18224   5.950   4.458   5.814  0.2334 -1.7727  0.1976
  162OSM   C16S18225   5.796   4.384   5.946  0.0745 -0.3862 -0.4423
  162OSM   H16S18226   5.823   4.278   5.931  0.1931 -0.6261  1.3147
  162OSM   H16T18227   5.686   4.394   5.961  0.4973  0.8897  2.5018
  162OSM   C17S18228   5.861   4.423   6.086  0.4530 -0.0215  0.5086
  162OSM   H17S18229   5.859   4.534   6.091  0.8191 -0.0155  0.5207
  162OSM   H17T18230   5.968   4.400   6.071 -0.1308 -1.0583 -3.1495
  162OSM   C18S18231   5.796   4.349   6.202 -0.1357 -0.4043  0.0464
  162OSM   H18S18232   5.778   4.240   6.191 -0.6025 -0.4130  0.8332
  162OSM   H18T18233   5.699   4.401   6.214  0.6157  1.3706 -1.0754
  162OSM   H18U18234   5.855   4.367   6.294 -1.3975  0.5677  0.6960
  162OSM    C1F18235   5.746   4.813   4.405 -0.1640  0.6928  0.1428
  162OSM     OF18236   5.671   4.803   4.310  0.0187  0.0758 -0.3679
  162OSM    C2F18237   5.748   4.929   4.497  0.4934 -0.0176  0.2569
  162OSM    H2F18238   5.749   5.020   4.434  1.0248 -0.5052 -0.4581
  162OSM    H2G18239   5.848   4.931   4.546  0.9986  1.7725 -0.7405
  162OSM    C3F18240   5.628   4.929   4.593 -0.7576 -0.2154  0.0991
  162OSM    H3F18241   5.539   4.921   4.529  0.7939 -2.4905 -1.9745
  162OSM    H3G18242   5.629   5.033   4.631 -0.4859  0.4816 -1.7200
  162OSM    C4F18243   5.634   4.833   4.709  0.3286 -0.3626  0.2766
  162OSM    H4F18244   5.741   4.817   4.734  0.2506 -0.7021  0.3973
  162OSM    H4G18245   5.598   4.736   4.668  1.2238 -0.0197 -1.4010
  162OSM    C5F18246   5.553   4.880   4.827 -0.8350  0.5565 -0.7107
  162OSM    H5F18247   5.445   4.885   4.801 -0.6657  0.8141 -1.3694
  162OSM    H5G18248   5.582   4.983   4.855 -0.1247  0.2010 -0.0897
  162OSM    C6F18249   5.570   4.782   4.943 -0.0698 -0.0771  0.6784
  162OSM    H6F18250   5.677   4.762   4.967  0.9565  1.6197 -1.9773
  162OSM    H6G18251   5.537   4.685   4.901  0.7345  1.0423 -2.8947
  162OSM    C7F18252   5.497   4.836   5.068 -0.2740  0.0346 -0.3636
  162OSM    H7F18253   5.390   4.849   5.042  0.4544  1.4494 -3.0767
  162OSM    H7G18254   5.535   4.937   5.093  0.2630 -0.0495 -0.8286
  162OSM    C8F18255   5.513   4.739   5.188 -0.7795  0.9132 -0.0101
  162OSM    H8F18256   5.618   4.736   5.223 -0.0305 -1.7652 -2.1171
  162OSM    H8G18257   5.498   4.636   5.149 -0.1025  0.9400 -0.3675
  162OSM    C9F18258   5.413   4.750   5.299  0.1197  0.5534 -0.2617
  162OSM    H9F18259   5.310   4.757   5.260  0.0498 -0.5937 -0.2998
  162OSM   C10F18260   5.427   4.757   5.434 -0.1825  0.6290 -0.0771
  162OSM   H10F18261   5.335   4.758   5.494  0.1447 -3.3421  0.7451
  162OSM   C11F18262   5.552   4.755   5.514  0.2659 -0.1742 -0.1281
  162OSM   H11F18263   5.650   4.773   5.465  0.2536  1.1572  0.3016
  162OSM   H11G18264   5.566   4.655   5.560  1.3992  0.0283  0.0022
  162OSM   C12F18265   5.547   4.859   5.632  0.6662 -0.3622  0.1710
  162OSM   H12F18266   5.445   4.859   5.676  0.9411  0.1179  0.8221
  162OSM   H12G18267   5.567   4.961   5.593 -0.6529 -1.1004 -2.6647
  162OSM   C13F18268   5.647   4.843   5.744 -0.9202  0.1371 -0.0845
  162OSM   H13F18269   5.753   4.826   5.715 -0.6428  2.0138 -0.2724
  162OSM   H13G18270   5.627   4.751   5.803  1.8299 -0.6905 -0.2595
  162OSM   C14F18271   5.647   4.966   5.829 -0.1828 -0.4017  0.4506
  162OSM   H14F18272   5.554   4.967   5.889 -0.8474  0.3343 -0.5569
  162OSM   H14G18273   5.641   5.063   5.774 -1.7609  0.2804  1.7184
  162OSM   C15F18274   5.764   4.969   5.929 -0.0410 -0.4793 -0.5274
  162OSM   H15F18275   5.741   5.060   5.988  0.3701 -0.7011 -0.0211
  162OSM   H15G18276   5.860   4.993   5.878  0.6688 -0.9872  0.5411
  162OSM   C16F18277   5.775   4.850   6.023  0.7880  0.5935  0.0339
  162OSM   H16F18278   5.793   4.764   5.955 -3.5935 -1.0456  0.5506
  162OSM   H16G18279   5.678   4.832   6.075  0.1714  1.4904 -0.7625
  162OSM   C17F18280   5.889   4.857   6.125 -0.4324  0.2245 -0.2527
  162OSM   H17F18281   5.979   4.890   6.069 -0.2939 -0.3454 -0.3725
  162OSM   H17G18282   5.906   4.753   6.162  0.5643  0.0592 -1.1230
  162OSM   C18F18283   5.865   4.973   6.231  0.7188 -0.8018 -0.5578
  162OSM   H18F18284   5.943   4.996   6.306 -1.8579 -1.0553  2.4124
  162OSM   H18G18285   5.771   4.945   6.282  0.4942  1.5857  0.4762
  162OSM   H18H18286   5.850   5.071   6.181  0.2957 -0.8154 -0.4602
  163OSM      N18287   5.094   5.353   3.971 -0.4183 -0.5006  0.2814
  163OSM    C1518288   5.085   5.433   4.097 -0.0426  0.3094  0.5180
  163OSM   H15A18289   5.187   5.447   4.130  1.0226 -0.6503 -2.1052
  163OSM   H15B18290   5.031   5.386   4.178  1.4971  0.5935  1.7606
  163OSM   H15C18291   5.035   5.527   4.079 -3.8696 -2.0528 -2.7072
  163OSM    C1418292   5.150   5.434   3.859 -0.1834  0.1867 -0.2940
  163OSM   H14A18293   5.167   5.372   3.773  0.2144  0.4348 -0.4024
  163OSM   H14B18294   5.237   5.490   3.891 -1.2072  1.6862 -0.0208
  163OSM   H14C18295   5.076   5.506   3.828  0.3597  0.3549 -1.2442
  163OSM    C1318296   5.178   5.231   3.998  0.3963  0.5209  0.7263
  163OSM   H13A18297   5.281   5.264   4.005  0.8219 -0.7837  0.7660
  163OSM   H13B18298   5.163   5.158   3.920  0.7066 -2.1540  2.9995
  163OSM   H13C18299   5.153   5.180   4.090 -0.5475 -0.4857 -0.0724
  163OSM    C1218300   4.955   5.310   3.926 -0.0785 -0.3197 -0.5073
  163OSM   H12A18301   4.909   5.398   3.885 -1.3314 -0.3083  0.8479
  163OSM   H12B18302   4.887   5.284   4.006  0.5333 -0.6471 -0.0821
  163OSM    C1118303   4.954   5.198   3.819  0.3196 -0.0864 -0.4239
  163OSM   H11A18304   4.961   5.105   3.878  3.3892  1.1656  1.4187
  163OSM   H11B18305   5.038   5.211   3.748 -0.8984  2.5593 -1.5459
  163OSM      P18306   4.690   5.177   3.776  0.8731  0.1116 -0.2135
  163OSM    O1318307   4.616   5.203   3.649  0.8023 -0.6941 -0.3447
  163OSM    O1418308   4.672   5.041   3.829  0.2822 -0.1685 -0.3581
  163OSM    O1118309   4.644   5.290   3.880 -0.0393 -0.5738  0.0274
  163OSM    O1218310   4.837   5.209   3.742  0.9507  0.1795  0.2140
  163OSM    C1S18311   4.614   5.263   4.016  0.3357 -0.0273 -0.4437
  163OSM    H1S18312   4.698   5.204   4.059 -2.0946 -2.5580  1.2086
  163OSM    H1T18313   4.520   5.206   4.026  0.9412 -0.6956  2.1962
  163OSM     NF18314   4.621   5.368   4.250 -0.6209 -0.2864  0.2441
  163OSM    HNF18315   4.531   5.342   4.283 -0.8437 -1.6761 -1.3189
  163OSM    C2S18316   4.619   5.394   4.109 -0.1465  0.4788  0.2056
  163OSM    H2S18317   4.709   5.451   4.079 -0.8675  2.1183  1.0318
  163OSM    C3S18318   4.499   5.485   4.066  0.3545 -0.1265  0.2737
  163OSM    H3S18319   4.416   5.450   4.130  0.5795  1.7862  1.6667
  163OSM     O318320   4.446   5.478   3.936  0.3074 -0.0440  0.5705
  163OSM    HO318321   4.506   5.415   3.895  1.5019  0.2128  1.8762
  163OSM    C4S18322   4.528   5.626   4.110 -0.2778 -0.2631 -0.3994
  163OSM    H4S18323   4.626   5.671   4.090 -0.4253  0.5152  0.5263
  163OSM    C5S18324   4.435   5.701   4.174 -0.0052 -0.2862 -0.5327
  163OSM    H5S18325   4.340   5.650   4.194  0.5216 -2.1671 -2.4093
  163OSM    C6S18326   4.455   5.844   4.226 -0.0002 -0.6104  0.0777
  163OSM    H6S18327   4.400   5.925   4.173  0.6054  0.2612  0.7459
  163OSM    H6T18328   4.561   5.880   4.224 -0.1677  0.2410  2.6737
  163OSM    C7S18329   4.403   5.852   4.371 -0.4490 -0.0467 -0.0828
  163OSM    H7S18330   4.458   5.769   4.421  0.3115  1.1550  1.1156
  163OSM    H7T18331   4.296   5.824   4.378 -1.1152  2.6833  3.3036
  163OSM    C8S18332   4.430   5.987   4.448  1.3951  0.7194 -0.0595
  163OSM    H8S18333   4.358   6.060   4.407 -1.4395 -0.9108  1.7172
  163OSM    H8T18334   4.536   6.020   4.451  1.0799  1.6830  1.1454
  163OSM    C9S18335   4.392   5.973   4.597  0.6266 -0.0591  0.8537
  163OSM    H9S18336   4.457   5.899   4.648 -0.6737 -0.2911  2.2428
  163OSM    H9T18337   4.296   5.917   4.594  2.4823 -3.4410 -0.8569
  163OSM   C10S18338   4.371   6.110   4.659 -0.3080  0.2224 -0.6050
  163OSM   H10S18339   4.308   6.178   4.597  2.3741 -0.1984 -4.1486
  163OSM   H10T18340   4.471   6.158   4.671 -0.0771 -0.8452  2.5871
  163OSM   C11S18341   4.321   6.098   4.800  0.3886 -0.1965  0.1197
  163OSM   H11S18342   4.380   6.022   4.856 -0.0611 -0.0709  0.7838
  163OSM   H11T18343   4.214   6.072   4.811  0.8058 -1.0358  3.0929
  163OSM   C12S18344   4.321   6.241   4.856  0.5896 -0.5617  0.8996
  163OSM   H12S18345   4.299   6.312   4.774 -0.0165 -1.6344  0.1161
  163OSM   H12T18346   4.418   6.284   4.891  0.3202  0.2249  0.6929
  163OSM   C13S18347   4.214   6.267   4.960  0.3794  0.4846  0.2203
  163OSM   H13S18348   4.116   6.225   4.928 -1.1485 -0.8525  5.6049
  163OSM   H13T18349   4.198   6.373   4.989 -1.6311 -0.1294  1.5019
  163OSM   C14S18350   4.239   6.196   5.101  0.7012  0.0802  0.9416
  163OSM   H14S18351   4.259   6.088   5.081  0.2654  0.2514 -0.5660
  163OSM   H14T18352   4.140   6.207   5.150 -0.0479  2.2401 -0.9094
  163OSM   C15S18353   4.352   6.249   5.196  0.0640  0.0375  0.6826
  163OSM   H15S18354   4.333   6.357   5.212  0.5282 -0.1402  2.6980
  163OSM   H15T18355   4.451   6.243   5.146 -0.9374 -1.2765 -1.2218
  163OSM   C16S18356   4.371   6.178   5.330  0.8669  0.0227 -0.2624
  163OSM   H16S18357   4.410   6.075   5.342  0.0774 -0.4102 -1.2293
  163OSM   H16T18358   4.274   6.179   5.385  1.0977  0.4939  0.1470
  163OSM   C17S18359   4.450   6.279   5.412 -0.7681 -0.7628  0.1315
  163OSM   H17S18360   4.401   6.378   5.409 -0.7316 -0.7130  0.9605
  163OSM   H17T18361   4.554   6.283   5.373 -0.8795  0.5761 -0.0608
  163OSM   C18S18362   4.460   6.231   5.556 -0.1436 -0.0069  0.1695
  163OSM   H18S18363   4.432   6.123   5.567 -0.8999  0.1416 -0.2052
  163OSM   H18T18364   4.400   6.297   5.621 -1.5870 -0.2723 -0.8357
  163OSM   H18U18365   4.569   6.236   5.573  0.6323  0.4260 -3.8377
  163OSM    C1F18366   4.736   5.317   4.296 -0.2795 -0.7689  0.2423
  163OSM     OF18367   4.839   5.315   4.232 -1.2578 -0.0192 -0.0767
  163OSM    C2F18368   4.734   5.243   4.432 -0.8525 -0.1737  0.1020
  163OSM    H2F18369   4.705   5.137   4.415  0.7558 -0.3844 -1.6857
  163OSM    H2G18370   4.653   5.295   4.488 -0.5532  0.6142 -0.1831
  163OSM    C3F18371   4.862   5.245   4.516  0.4172  0.0183  0.0929
  163OSM    H3F18372   4.891   5.349   4.540  0.1457  0.2329 -0.4841
  163OSM    H3G18373   4.945   5.208   4.452  0.8700 -3.0519  2.2401
  163OSM    C4F18374   4.843   5.159   4.644 -0.1508 -0.1989 -0.1022
  163OSM    H4F18375   4.847   5.054   4.609  1.1981  0.7898 -3.2790
  163OSM    H4G18376   4.743   5.189   4.681 -0.5017  0.1577 -1.2938
  163OSM    C5F18377   4.948   5.196   4.752 -0.6508  0.5570  0.0744
  163OSM    H5F18378   5.050   5.198   4.708 -0.4666 -1.3835  0.3377
  163OSM    H5G18379   4.937   5.114   4.826 -1.3155 -0.3056 -0.9594
  163OSM    C6F18380   4.922   5.333   4.820  0.3861 -0.1903  0.5767
  163OSM    H6F18381   4.818   5.364   4.802  0.0846 -1.2817  0.3736
  163OSM    H6G18382   4.975   5.408   4.757  0.0785 -1.6126 -1.4732
  163OSM    C7F18383   4.973   5.350   4.963 -0.5849 -0.4102 -0.3454
  163OSM    H7F18384   5.083   5.332   4.957 -0.2285  1.9302 -2.5240
  163OSM    H7G18385   4.934   5.267   5.026  1.0143 -1.0915 -0.1813
  163OSM    C8F18386   4.924   5.481   5.022  0.3414 -0.1720  0.5799
  163OSM    H8F18387   4.834   5.462   5.085 -1.3264  2.7241 -0.6893
  163OSM    H8G18388   4.880   5.540   4.938  0.7160  0.3900  0.7706
  163OSM    C9F18389   5.029   5.566   5.080  0.6903 -0.0170 -0.9908
  163OSM    H9F18390   5.084   5.620   5.002 -1.1275  1.0446 -1.5922
  163OSM   C10F18391   5.043   5.594   5.214 -0.2730  0.1069  0.2446
  163OSM   H10F18392   5.120   5.667   5.242  1.6373 -1.6688 -0.1097
  163OSM   C11F18393   4.954   5.555   5.328 -0.4284  0.3392  0.2201
  163OSM   H11F18394   4.874   5.484   5.299 -2.2325  1.7122  1.6012
  163OSM   H11G18395   4.893   5.643   5.359 -0.7612  0.1301  0.1621
  163OSM   C12F18396   5.022   5.498   5.453  0.3570  0.0862 -0.2537
  163OSM   H12F18397   5.098   5.574   5.481 -1.2159  2.5070 -2.1720
  163OSM   H12G18398   5.068   5.400   5.430 -0.9709  0.0367 -3.0240
  163OSM   C13F18399   4.930   5.485   5.583 -0.0289  0.6135 -0.7027
  163OSM   H13F18400   4.835   5.432   5.563 -1.5422  2.7105  0.5201
  163OSM   H13G18401   4.904   5.590   5.607  0.2205  1.1210 -2.4683
  163OSM   C14F18402   5.004   5.410   5.699  0.1547  0.5335 -0.2529
  163OSM   H14F18403   5.098   5.465   5.722  1.3347 -1.3283 -0.3775
  163OSM   H14G18404   5.037   5.307   5.672  1.4823  1.3155 -1.8135
  163OSM   C15F18405   4.909   5.386   5.816 -0.2086  0.0682 -0.7042
  163OSM   H15F18406   4.975   5.332   5.887  1.5711  0.9833 -1.6056
  163OSM   H15G18407   4.825   5.318   5.789  0.6484 -0.8098 -1.2131
  163OSM   C16F18408   4.855   5.517   5.884 -0.4818  0.0173  0.3491
  163OSM   H16F18409   4.770   5.554   5.823 -0.8781  1.3540  1.6530
  163OSM   H16G18410   4.939   5.589   5.875 -0.7397  0.2022 -0.6858
  163OSM   C17F18411   4.820   5.511   6.035 -0.4812  0.3827  0.0710
  163OSM   H17F18412   4.782   5.606   6.076  0.3318 -0.3176  2.6003
  163OSM   H17G18413   4.916   5.494   6.089  0.3942  0.3911 -1.4168
  163OSM   C18F18414   4.717   5.404   6.072 -0.1253  0.5251 -0.2383
  163OSM   H18F18415   4.699   5.411   6.182  0.3749  0.5952 -0.1569
  163OSM   H18G18416   4.756   5.307   6.034  3.8644  1.9440 -0.2650
  163OSM   H18H18417   4.622   5.432   6.023  0.2059  3.2287  0.5258
  164OSM      N18418   1.231   6.857   3.507  0.2303 -0.5584  0.2032
  164OSM    C1518419   1.109   6.798   3.449 -0.7789 -1.0630 -0.3426
  164OSM   H15A18420   1.059   6.878   3.398  1.7529 -0.6381 -2.3654
  164OSM   H15B18421   1.064   6.739   3.528 -0.8317 -0.3524  0.1677
  164OSM   H15C18422   1.121   6.728   3.368  0.2665 -0.9128 -0.3424
  164OSM    C1418423   1.327   6.889   3.405  0.0493  0.4392 -0.0805
  164OSM   H14A18424   1.412   6.946   3.440  1.3489 -0.4846 -1.6120
  164OSM   H14B18425   1.277   6.938   3.323 -0.4855  2.2749  1.2777
  164OSM   H14C18426   1.358   6.799   3.355 -1.6506  1.0256 -2.3754
  164OSM    C1318427   1.194   6.988   3.576 -0.4770  0.1446 -0.0654
  164OSM   H13A18428   1.138   7.048   3.505 -2.8898 -2.9073 -0.9885
  164OSM   H13B18429   1.269   7.053   3.617 -1.2699  0.5222  0.8195
  164OSM   H13C18430   1.118   6.976   3.652 -1.2258  1.8418 -0.5028
  164OSM    C1218431   1.292   6.765   3.615  0.5774  0.5504  0.1325
  164OSM   H12A18432   1.392   6.801   3.633  0.3130  1.5647 -0.3821
  164OSM   H12B18433   1.310   6.674   3.559  0.2903 -0.4217  1.5570
  164OSM    C1118434   1.206   6.738   3.742 -0.3323  0.3676 -0.4575
  164OSM   H11A18435   1.199   6.833   3.799 -0.5897  0.3925 -0.5290
  164OSM   H11B18436   1.262   6.664   3.804 -1.3069 -0.5383 -0.6279
  164OSM      P18437   0.954   6.708   3.808 -0.2042  0.4768  0.2974
  164OSM    O1318438   0.832   6.673   3.743  0.1789  0.2336 -0.2083
  164OSM    O1418439   0.982   6.625   3.932  0.8777 -0.5558 -0.1771
  164OSM    O1118440   0.952   6.860   3.838  0.2073 -0.3610  1.1181
  164OSM    O1218441   1.075   6.691   3.708 -0.3853 -0.7044  0.5735
  164OSM    C1S18442   0.841   6.925   3.911 -0.3620  0.1182  0.4653
  164OSM    H1S18443   0.773   6.855   3.964  0.0145 -0.8516 -0.3026
  164OSM    H1T18444   0.782   6.978   3.834 -0.4279  0.7099  0.9118
  164OSM     NF18445   0.795   7.079   4.098 -0.1892  0.0621  0.1608
  164OSM    HNF18446   0.770   7.172   4.073  3.3077  1.1160  0.1022
  164OSM    C2S18447   0.908   7.020   4.020 -0.3690 -0.7071  0.4505
  164OSM    H2S18448   0.973   6.963   4.089  1.4229 -0.6557 -1.1379
  164OSM    C3S18449   1.007   7.120   3.949 -0.1195 -1.1838  0.2471
  164OSM    H3S18450   0.948   7.174   3.872  1.3492  0.1627  0.0095
  164OSM     O318451   1.118   7.061   3.878  0.2116 -0.1268 -0.2800
  164OSM    HO318452   1.091   6.969   3.873  0.6219 -0.3929  1.5787
  164OSM    C4S18453   1.057   7.219   4.059  0.4861  0.4832 -0.2970
  164OSM    H4S18454   0.983   7.298   4.076 -0.7881 -0.7535  0.1201
  164OSM    C5S18455   1.175   7.221   4.132 -0.4949  0.5887 -0.9287
  164OSM    H5S18456   1.248   7.141   4.113 -0.0446  0.7657 -0.0003
  164OSM    C6S18457   1.214   7.317   4.240 -1.0142  0.0280  0.2190
  164OSM    H6S18458   1.250   7.412   4.195  0.0921 -0.2247  0.5566
  164OSM    H6T18459   1.298   7.269   4.293 -1.2879 -1.0046 -0.2527
  164OSM    C7S18460   1.111   7.369   4.342  0.3415 -0.3801  0.3525
  164OSM    H7S18461   1.018   7.412   4.301  1.4955  1.7618 -0.1353
  164OSM    H7T18462   1.151   7.459   4.393  1.9158 -1.6460  1.4579
  164OSM    C8S18463   1.076   7.256   4.446  0.1470 -0.1856  0.4160
  164OSM    H8S18464   1.173   7.239   4.498  1.0346 -0.9209 -1.3841
  164OSM    H8T18465   1.039   7.169   4.389 -3.2899  0.9571  0.7003
  164OSM    C9S18466   0.966   7.298   4.548  0.6549  0.4570  0.2678
  164OSM    H9S18467   0.870   7.320   4.497  1.4494  0.7447 -1.1598
  164OSM    H9T18468   0.999   7.381   4.613  1.0768  0.8440 -0.4253
  164OSM   C10S18469   0.942   7.190   4.662  0.3535  0.4080  0.8766
  164OSM   H10S18470   0.927   7.090   4.617  1.0395  0.2950  0.8881
  164OSM   H10T18471   0.857   7.228   4.723 -0.5494 -2.1575  1.3110
  164OSM   C11S18472   1.049   7.204   4.765  0.3487  0.0018  0.9799
  164OSM   H11S18473   1.035   7.309   4.800 -0.0682  0.7484 -1.2749
  164OSM   H11T18474   1.152   7.190   4.726 -1.0922 -0.9932 -2.9128
  164OSM   C12S18475   1.021   7.105   4.880 -0.6418  0.3643 -0.2703
  164OSM   H12S18476   1.013   6.998   4.848  1.0841  0.3718 -0.8143
  164OSM   H12T18477   0.920   7.128   4.920 -1.1292 -0.2922 -1.0803
  164OSM   C13S18478   1.126   7.108   4.998  0.3617 -0.1380 -0.3306
  164OSM   H13S18479   1.224   7.070   4.963 -0.6271 -0.6134 -2.7905
  164OSM   H13T18480   1.074   7.048   5.075 -1.5539  0.4957 -1.0645
  164OSM   C14S18481   1.147   7.253   5.041 -0.0764  0.5630  0.2058
  164OSM   H14S18482   1.055   7.314   5.028 -2.0236 -2.4589 -1.6309
  164OSM   H14T18483   1.225   7.289   4.971 -1.1889  2.0554 -0.3162
  164OSM   C15S18484   1.202   7.266   5.184 -0.8998  1.3970 -0.0222
  164OSM   H15S18485   1.233   7.372   5.183 -0.6540  1.3721 -2.8588
  164OSM   H15T18486   1.296   7.208   5.195 -0.0012  2.9404  0.6322
  164OSM   C16S18487   1.097   7.255   5.300  0.2455  0.0473 -0.0207
  164OSM   H16S18488   1.153   7.285   5.391  1.1498  0.5242 -0.7182
  164OSM   H16T18489   1.061   7.150   5.300  3.1006 -1.1294 -3.4174
  164OSM   C17S18490   0.979   7.349   5.287  0.0571  0.2687 -0.2195
  164OSM   H17S18491   0.915   7.329   5.198 -1.4567 -0.8181  1.0676
  164OSM   H17T18492   1.015   7.454   5.276  0.0406  0.2731 -0.2339
  164OSM   C18S18493   0.886   7.332   5.407  0.8240 -0.1644  0.2651
  164OSM   H18S18494   0.839   7.232   5.418 -2.4007  1.2215  0.2481
  164OSM   H18T18495   0.796   7.397   5.401  0.6305  0.0470  3.6141
  164OSM   H18U18496   0.930   7.364   5.503 -1.7788  2.5632  0.6822
  164OSM    C1F18497   0.733   7.001   4.188 -0.0628  0.3833  0.3897
  164OSM     OF18498   0.766   6.885   4.205 -0.0479 -0.1239 -0.3978
  164OSM    C2F18499   0.612   7.057   4.270  0.1831  0.1389  0.1139
  164OSM    H2F18500   0.522   7.081   4.210 -1.2145 -0.2901  1.9372
  164OSM    H2G18501   0.634   7.154   4.319  1.0040 -0.0633  0.1574
  164OSM    C3F18502   0.565   6.962   4.384 -0.6821 -0.0437  1.0403
  164OSM    H3F18503   0.538   6.863   4.342 -0.7772  0.3159  0.2372
  164OSM    H3G18504   0.466   7.005   4.410 -1.5916 -1.2195 -0.3072
  164OSM    C4F18505   0.669   6.951   4.499  1.1407 -0.4978 -0.2223
  164OSM    H4F18506   0.703   7.051   4.533  1.1118 -1.0001  1.3272
  164OSM    H4G18507   0.763   6.905   4.460  2.5959  2.9978 -1.2614
  164OSM    C5F18508   0.617   6.884   4.628  0.7918  0.0778  0.6949
  164OSM    H5F18509   0.608   6.774   4.615 -0.9478  0.2578  0.0659
  164OSM    H5G18510   0.515   6.925   4.642  1.1773  1.0210  0.7671
  164OSM    C6F18511   0.696   6.917   4.752  0.1369 -0.2098 -0.8416
  164OSM    H6F18512   0.689   7.028   4.758  0.0579 -0.2435 -0.2635
  164OSM    H6G18513   0.804   6.889   4.750 -0.4481 -2.7453 -0.0522
  164OSM    C7F18514   0.632   6.847   4.873 -0.7643 -0.0572  0.8445
  164OSM    H7F18515   0.609   6.750   4.824  2.0159  0.3594 -1.6169
  164OSM    H7G18516   0.534   6.897   4.890 -0.8223 -0.0197  0.4341
  164OSM    C8F18517   0.714   6.848   5.000  0.0010  0.4603  0.8550
  164OSM    H8F18518   0.811   6.799   4.977  0.5359  2.2829 -1.0768
  164OSM    H8G18519   0.659   6.788   5.075 -0.8385  2.7105  2.1495
  164OSM    C9F18520   0.741   6.977   5.063  0.5166 -0.7173  0.0928
  164OSM    H9F18521   0.692   7.061   5.012 -0.3460  0.3213  2.4572
  164OSM   C10F18522   0.806   6.999   5.179  0.5123  0.2021 -0.3787
  164OSM   H10F18523   0.818   7.106   5.205 -0.6517  0.4742 -0.8785
  164OSM   C11F18524   0.873   6.895   5.261  0.0888 -0.4140 -0.5713
  164OSM   H11F18525   0.979   6.878   5.233  0.1144 -0.4483 -0.4534
  164OSM   H11G18526   0.824   6.795   5.265 -0.2302 -0.2265  0.7032
  164OSM   C12F18527   0.872   6.931   5.414  0.9264 -0.0830 -0.0674
  164OSM   H12F18528   0.923   7.024   5.446  0.9015 -0.4781  1.1847
  164OSM   H12G18529   0.935   6.851   5.458  1.9568  0.9638  0.4210
  164OSM   C13F18530   0.736   6.919   5.487  0.3450  0.3205  0.4955
  164OSM   H13F18531   0.675   6.843   5.435  1.8228 -1.2493  0.9730
  164OSM   H13G18532   0.693   7.021   5.481 -1.0499 -0.1420  1.8575
  164OSM   C14F18533   0.722   6.877   5.634  0.0924 -0.2592  0.5200
  164OSM   H14F18534   0.743   6.771   5.662 -0.9898  0.1993  3.5020
  164OSM   H14G18535   0.617   6.889   5.671  0.0727  0.3286  0.2855
  164OSM   C15F18536   0.819   6.965   5.723  0.8452  0.5884  0.5202
  164OSM   H15F18537   0.778   7.068   5.711 -0.1119  0.1050 -0.5332
  164OSM   H15G18538   0.928   6.954   5.702  1.0111  2.1317  0.4383
  164OSM   C16F18539   0.798   6.923   5.869 -0.0444 -0.0299 -0.2151
  164OSM   H16F18540   0.800   6.812   5.875 -0.5363  0.0154  1.7081
  164OSM   H16G18541   0.702   6.963   5.909 -0.2730  1.4857 -2.1698
  164OSM   C17F18542   0.909   6.972   5.967 -0.8201 -0.3338  0.2220
  164OSM   H17F18543   0.932   7.071   5.922 -0.2243 -1.6967 -2.7083
  164OSM   H17G18544   0.992   6.904   5.942 -1.5592 -1.7800  1.5503
  164OSM   C18F18545   0.862   6.971   6.116 -0.0427 -0.7820  1.2473
  164OSM   H18F18546   0.854   6.868   6.159  0.7388 -0.6963  1.6136
  164OSM   H18G18547   0.768   7.029   6.129  0.7249  1.1604 -1.0871
  164OSM   H18H18548   0.946   7.024   6.165 -0.3144  1.3778 -0.4429
  165SAPS     N18549   3.121   0.908   8.472 -1.0397  0.0673 -0.1265
  165SAPS   HN118550   3.147   1.008   8.486  0.1381 -0.5627  3.1505
  165SAPS   HN218551   3.126   0.878   8.373  0.6409 -1.2691  0.3056
  165SAPS   HN318552   3.028   0.889   8.513 -0.9358  0.7045  0.4144
  165SAPS   C1218553   3.232   0.836   8.540 -0.2171 -0.2726  0.0633
  165SAPS  H12A18554   3.220   0.872   8.641 -0.3185  1.7424 -0.6237
  165SAPS   C1318555   3.204   0.684   8.539 -0.3831 -0.2287 -0.0487
  165SAPS  O13A18556   3.115   0.632   8.464 -0.1099 -0.1094 -0.4682
  165SAPS  O13B18557   3.283   0.616   8.608 -0.2558  0.3299  0.3927
  165SAPS   C1118558   3.373   0.855   8.470 -0.2827  0.3214  0.2310
  165SAPS  H11A18559   3.376   0.835   8.361 -1.6906 -0.6505  0.3338
  165SAPS  H11B18560   3.441   0.784   8.521 -0.7742 -0.4094 -0.1131
  165SAPS     P18561   3.549   1.048   8.426  0.4562 -0.3340 -0.0108
  165SAPS   O1318562   3.564   1.188   8.479 -0.0207  0.4455 -0.0406
  165SAPS   O1418563   3.659   0.954   8.450 -0.4566 -0.2978 -0.4006
  165SAPS   O1218564   3.413   0.989   8.486 -0.4737  0.2174  0.6035
  165SAPS   O1118565   3.523   1.055   8.271  0.4139  0.6719 -0.2202
  165SAPS    C118566   3.410   1.132   8.228 -0.2804  0.2017 -0.3977
  165SAPS    HA18567   3.319   1.104   8.285  0.2179  2.2942  1.5711
  165SAPS    HB18568   3.416   1.242   8.236 -0.8969  0.1378  1.2006
  165SAPS    C218569   3.386   1.111   8.074 -0.3480  0.7354  0.4096
  165SAPS    HS18570   3.281   1.145   8.067 -0.9073 -1.1650 -1.3437
  165SAPS   O2118571   3.397   0.971   8.041 -0.3508 -0.1204  0.0561
  165SAPS   C2118572   3.326   0.882   8.111 -0.9614  0.0677  0.2554
  165SAPS   O2218573   3.240   0.904   8.189  0.4691  0.1593  0.4056
  165SAPS   C2218574   3.378   0.748   8.081 -0.2246  0.9752 -0.3655
  165SAPS   H2R18575   3.479   0.740   8.036 -0.8390 -3.6225 -1.4300
  165SAPS   H2S18576   3.399   0.702   8.180  0.3741  2.0512  0.0329
  165SAPS    C318577   3.478   1.187   7.971  0.2948  0.5506 -0.1330
  165SAPS    HX18578   3.587   1.174   7.989  0.0843  0.6318  1.2865
  165SAPS    HY18579   3.461   1.296   7.987  0.1520  0.5830 -0.4910
  165SAPS   O3118580   3.446   1.156   7.836 -0.0860 -0.1273  0.4487
  165SAPS   C3118581   3.511   1.050   7.784 -0.4390 -0.0784 -0.6113
  165SAPS   O3218582   3.608   0.998   7.833  0.0271 -1.1350 -0.2615
  165SAPS   C3218583   3.454   1.009   7.646  0.0055  0.1225 -0.1818
  165SAPS   H2X18584   3.406   1.100   7.603  1.8732  0.1513 -2.4168
  165SAPS   H2Y18585   3.377   0.930   7.658  0.1152 -0.0240 -0.4156
  165SAPS   C2318586   3.280   0.664   8.000  0.6588  0.2866 -0.0021
  165SAPS   H3R18587   3.174   0.676   8.032 -0.5042 -1.0258 -3.0346
  165SAPS   H3S18588   3.300   0.555   8.000  0.1281  0.1674 -1.4273
  165SAPS   C2418589   3.271   0.715   7.845  0.2700  0.4097 -0.3054
  165SAPS   H4R18590   3.253   0.824   7.852  0.0376  0.3754 -0.3518
  165SAPS   H4S18591   3.176   0.669   7.809 -0.3212  0.3552  1.2773
  165SAPS   C2518592   3.394   0.674   7.766  0.8833  0.0265 -0.2964
  165SAPS   H5R18593   3.476   0.747   7.761 -1.0737  2.3837 -0.0387
  165SAPS   C2618594   3.393   0.557   7.696  0.4064  0.0225  0.3211
  165SAPS   H6R18595   3.481   0.532   7.636  0.1081 -1.1171  0.3468
  165SAPS   C2718596   3.280   0.458   7.701 -0.4260 -0.3171 -0.2616
  165SAPS   H7R18597   3.187   0.510   7.672  0.0239  3.1415  3.5564
  165SAPS   H7S18598   3.251   0.436   7.806  1.0378  0.2211  0.2881
  165SAPS   C2818599   3.298   0.314   7.653  0.5111  0.6555 -0.0109
  165SAPS   H8R18600   3.286   0.239   7.733  0.0971  1.3564  0.5875
  165SAPS   C2918601   3.278   0.270   7.525  0.4373 -0.2117  0.2145
  165SAPS   H9R18602   3.304   0.164   7.515 -0.5885 -0.4682  0.2247
  165SAPS  C21018603   3.273   0.366   7.403 -0.1745 -0.1194  0.5248
  165SAPS  H10R18604   3.378   0.388   7.376 -0.1885 -0.4749  0.1737
  165SAPS  H10S18605   3.226   0.461   7.437 -0.0989  0.7186 -1.5598
  165SAPS  C21118606   3.209   0.310   7.276  0.0773 -0.9542 -0.1787
  165SAPS  H11R18607   3.099   0.312   7.270  0.1635 -0.3356 -2.8656
  165SAPS  C21218608   3.276   0.254   7.173  0.8967 -0.7318 -0.1099
  165SAPS  H12R18609   3.209   0.213   7.095  0.1543  1.5913 -0.7938
  165SAPS  C21318610   3.419   0.234   7.138 -0.1596 -0.4692  0.0888
  165SAPS  H13R18611   3.484   0.304   7.193  2.2120 -3.0329  0.7831
  165SAPS  H13S18612   3.429   0.251   7.029  2.0322 -1.0520  0.1487
  165SAPS  C21418613   3.459   0.094   7.175  0.3601  0.6595 -0.5586
  165SAPS  H14R18614   3.442   0.072   7.282 -1.6351  1.5751 -0.6523
  165SAPS  C21518615   3.505  -0.002   7.098  0.5469  0.7171  0.0638
  165SAPS  H15R18616   3.519  -0.096   7.154 -1.9558 -0.3214 -0.9013
  165SAPS  C21618617   3.549   0.015   6.953 -0.0294 -0.4709 -0.1278
  165SAPS  H16R18618   3.466   0.059   6.893  1.3447  0.5883 -1.3219
  165SAPS  H16S18619   3.578  -0.082   6.906  1.6288 -0.2109  0.3099
  165SAPS  C21718620   3.666   0.108   6.911 -0.2362 -0.6843 -0.0020
  165SAPS  H17R18621   3.766   0.080   6.951  0.3270  1.7348  0.4523
  165SAPS  H17S18622   3.633   0.206   6.952 -2.5436 -1.0666 -0.8143
  165SAPS  C21818623   3.680   0.105   6.756  0.1441 -0.1121  0.3810
  165SAPS  H18R18624   3.744   0.188   6.719  0.7446  0.5748  2.8035
  165SAPS  H18S18625   3.581   0.135   6.715  1.1464  2.3416 -0.4595
  165SAPS  C21918626   3.724  -0.039   6.690  0.5484  0.5532 -0.2345
  165SAPS  H19R18627   3.730  -0.033   6.580 -1.9858 -2.0218 -0.6088
  165SAPS  H19S18628   3.644  -0.114   6.703 -0.0457  1.4064  1.2997
  165SAPS  C22018629   3.856  -0.094   6.739 -0.1237 -0.4485  0.4987
  165SAPS  H20R18630   3.833  -0.130   6.842  1.1177  0.4829  1.1340
  165SAPS  H20S18631   3.934  -0.016   6.750 -1.3495  0.8438  0.3034
  165SAPS  H20T18632   3.899  -0.172   6.672  0.9961 -0.6569  1.4239
  165SAPS   C3318633   3.557   0.975   7.540  0.0482 -1.1230  0.1723
  165SAPS   H3X18634   3.599   0.876   7.567  0.0053 -1.3934 -0.7202
  165SAPS   H3Y18635   3.639   1.050   7.547 -0.6240 -0.2693 -0.7267
  165SAPS   C3418636   3.499   0.974   7.401 -0.2356 -0.0160 -0.0024
  165SAPS   H4X18637   3.580   0.975   7.324  0.1497 -0.2259  0.3960
  165SAPS   H4Y18638   3.441   1.066   7.380 -3.9642 -1.5059  2.6277
  165SAPS   C3518639   3.398   0.855   7.381 -0.6559 -0.2226  0.3937
  165SAPS   H5X18640   3.297   0.874   7.422 -0.5920  0.6207  0.1729
  165SAPS   H5Y18641   3.451   0.774   7.437  0.1324 -0.3381 -0.4907
  165SAPS   C3618642   3.396   0.826   7.237  0.3895  0.1124  0.4518
  165SAPS   H6X18643   3.500   0.800   7.207 -0.1311 -2.0549  0.3489
  165SAPS   H6Y18644   3.357   0.916   7.185 -1.5071 -0.9141 -0.0018
  165SAPS   C3718645   3.305   0.704   7.201 -0.2095 -0.2265 -0.6415
  165SAPS   H7X18646   3.211   0.709   7.260  0.6811 -2.0327  1.0737
  165SAPS   H7Y18647   3.362   0.612   7.227 -1.1073 -0.5286  0.3207
  165SAPS   C3818648   3.269   0.704   7.054  0.2139  0.7080 -1.0378
  165SAPS   H8X18649   3.359   0.746   7.004  2.1587 -1.0759  0.7350
  165SAPS   H8Y18650   3.183   0.774   7.044 -0.7227 -0.0419  1.1047
  165SAPS   C3918651   3.233   0.568   7.005  0.3209  0.6777 -0.3298
  165SAPS   H9X18652   3.160   0.515   7.070 -0.7124 -0.9020 -2.6520
  165SAPS   H9Y18653   3.322   0.507   7.030 -0.1170  0.6712  1.3189
  165SAPS  C31018654   3.196   0.566   6.859 -0.3052 -0.5306  0.1177
  165SAPS  H10X18655   3.271   0.629   6.806 -3.1379  1.7142 -1.5535
  165SAPS  H10Y18656   3.100   0.618   6.838 -0.4697 -0.5339  0.8269
  165SAPS  C31118657   3.186   0.422   6.806  0.7953  0.2330 -1.0969
  165SAPS  H11X18658   3.109   0.360   6.858  2.3735 -0.1725  0.8996
  165SAPS  H11Y18659   3.281   0.371   6.832 -0.5030 -2.2015 -0.8303
  165SAPS  C31218660   3.159   0.425   6.651 -0.1627 -0.8651  0.3376
  165SAPS  H12X18661   3.238   0.481   6.596 -0.5441 -0.7993 -0.1555
  165SAPS  H12Y18662   3.064   0.480   6.635 -1.0711 -1.5926  2.7608
  165SAPS  C31318663   3.151   0.289   6.573  0.2123 -0.1094 -0.3452
  165SAPS  H13X18664   3.134   0.304   6.464  0.1085 -3.6980 -0.9278
  165SAPS  H13Y18665   3.069   0.230   6.620 -0.1441  1.2946  0.9034
  165SAPS  C31418666   3.272   0.206   6.591  0.9205  0.7509  0.1374
  165SAPS  H14X18667   3.293   0.190   6.699 -2.5982 -1.4560  0.6437
  165SAPS  H14Y18668   3.366   0.237   6.539  2.1719 -3.2347 -0.3528
  165SAPS  C31518669   3.252   0.062   6.516 -0.2873 -0.6697 -0.3663
  165SAPS  H15X18670   3.252   0.104   6.413 -0.2538  0.4642  0.0759
  165SAPS  H15Y18671   3.150   0.035   6.551 -0.1700  0.1302  0.6518
  165SAPS  C31618672   3.364  -0.026   6.557  0.3243 -0.1054 -0.0113
  165SAPS  H16X18673   3.357  -0.054   6.664  1.0512 -1.8694 -0.4029
  165SAPS  H16Y18674   3.463   0.016   6.530 -0.4000  0.8252 -1.3419
  165SAPS  C31718675   3.361  -0.159   6.484  0.7498 -0.6201  0.1256
  165SAPS  H17X18676   3.463  -0.192   6.513  2.1508  1.9608 -1.4749
  165SAPS  H17Y18677   3.359  -0.160   6.373 -0.6567  2.9288 -0.0233
  165SAPS  C31818678   3.248  -0.254   6.527 -0.0858 -0.2120 -1.0816
  165SAPS  H18X18679   3.146  -0.210   6.532  1.3056  3.3303 -1.0444
  165SAPS  H18Y18680   3.261  -0.287   6.632  1.5810  2.1717 -0.4654
  165SAPS  H18Z18681   3.249  -0.350   6.469  0.8922 -2.0316  1.7405
  166SAPS     N18682   1.247   6.045   0.131 -0.3433 -0.6013  0.8325
  166SAPS   HN118683   1.265   5.975   0.056 -1.0464  0.7765 -0.6902
  166SAPS   HN218684   1.270   6.001   0.222 -0.9558 -3.8465 -0.4701
  166SAPS   HN318685   1.146   6.066   0.141  0.0734  1.7662  0.6330
  166SAPS   C1218686   1.328   6.173   0.107 -0.5945  0.9283  0.3570
  166SAPS  H12A18687   1.262   6.257   0.122 -1.0424  0.7800 -0.7210
  166SAPS   C1318688   1.448   6.197   0.199 -0.0471 -0.1187  0.4376
  166SAPS  O13A18689   1.457   6.117   0.293 -0.2900 -0.5751 -0.5279
  166SAPS  O13B18690   1.523   6.299   0.187 -0.0797 -0.5484 -0.7178
  166SAPS   C1118691   1.367   6.168  -0.050  0.8738 -0.1573  0.3095
  166SAPS  H11A18692   1.422   6.076  -0.081  1.8917  0.5350 -0.0006
  166SAPS  H11B18693   1.435   6.255  -0.062 -0.3715  0.7875 -0.0833
  166SAPS     P18694   1.268   6.125  -0.283 -0.1315  0.1121  0.1625
  166SAPS   O1318695   1.213   5.985  -0.259  0.0830 -0.2863  0.1986
  166SAPS   O1418696   1.193   6.210  -0.383 -0.3070  0.0856  0.1033
  166SAPS   O1218697   1.260   6.195  -0.146  0.3195 -0.5681 -0.1034
  166SAPS   O1118698   1.422   6.115  -0.319 -0.0362 -0.6049 -0.5742
  166SAPS    C118699   1.499   6.233  -0.348 -0.0333 -0.0326  0.4083
  166SAPS    HA18700   1.452   6.329  -0.318  0.7122  1.0246 -1.6497
  166SAPS    HB18701   1.590   6.238  -0.284 -0.5240 -0.2405  1.1371
  166SAPS    C218702   1.548   6.229  -0.504  0.1327  0.6109 -0.5017
  166SAPS    HS18703   1.641   6.287  -0.524  1.0524 -0.1032  1.3998
  166SAPS   O2118704   1.447   6.266  -0.594  0.4075  0.2426  0.7429
  166SAPS   C2118705   1.402   6.392  -0.576 -0.4542  0.6560  0.1206
  166SAPS   O2218706   1.456   6.474  -0.505 -0.3916 -0.0089  0.3137
  166SAPS   C2218707   1.280   6.412  -0.667  0.4083 -0.7956 -0.6880
  166SAPS   H2R18708   1.207   6.344  -0.619  0.7539  0.7024  2.2158
  166SAPS   H2S18709   1.245   6.517  -0.658  2.3788 -0.0829 -0.6616
  166SAPS    C318710   1.588   6.085  -0.539 -0.3524 -0.4062 -0.6396
  166SAPS    HX18711   1.491   6.031  -0.526 -1.1448  1.2463  0.7855
  166SAPS    HY18712   1.655   6.039  -0.463 -1.1008  1.5179  1.3252
  166SAPS   O3118713   1.653   6.090  -0.670 -0.0812 -0.0096  0.0014
  166SAPS   C3118714   1.575   6.031  -0.761 -0.1619 -0.1084 -0.2716
  166SAPS   O3218715   1.492   5.945  -0.740 -0.0639 -0.0472  0.3773
  166SAPS   C3218716   1.602   6.093  -0.898 -0.2265  0.3244  0.0932
  166SAPS   H2X18717   1.678   6.174  -0.888  0.0548  0.2466 -1.2477
  166SAPS   H2Y18718   1.512   6.152  -0.925 -2.0073 -1.9624  0.6959
  166SAPS   C2318719   1.295   6.373  -0.810  0.3543  0.4509  0.2132
  166SAPS   H3R18720   1.191   6.346  -0.837 -1.1142  1.6406  4.1185
  166SAPS   H3S18721   1.352   6.281  -0.836 -1.0155  0.2027 -2.2798
  166SAPS   C2418722   1.344   6.493  -0.899  0.2196  0.4788 -0.1581
  166SAPS   H4R18723   1.268   6.575  -0.903 -0.2208  0.0402 -1.4025
  166SAPS   H4S18724   1.346   6.467  -1.007  4.9368 -0.9446  0.0529
  166SAPS   C2518725   1.475   6.546  -0.853 -0.5823  0.1500 -0.4835
  166SAPS   H5R18726   1.481   6.597  -0.755 -0.2149  2.5909 -1.7105
  166SAPS   C2618727   1.598   6.535  -0.913  0.3453 -0.1577  0.2710
  166SAPS   H6R18728   1.678   6.595  -0.867  0.1699  1.0584 -0.9251
  166SAPS   C2718729   1.634   6.465  -1.045 -0.0900  0.1958  0.0128
  166SAPS   H7R18730   1.562   6.497  -1.124 -2.2766 -0.1128  1.7566
  166SAPS   H7S18731   1.619   6.357  -1.023  0.9399  0.3032  1.3402
  166SAPS   C2818732   1.775   6.485  -1.084  0.6851  0.2625 -0.0840
  166SAPS   H8R18733   1.839   6.506  -0.997  1.5228 -2.1825 -0.0574
  166SAPS   C2918734   1.836   6.474  -1.201  0.8514 -1.0032 -0.4444
  166SAPS   H9R18735   1.943   6.493  -1.217  0.2937  2.9700 -0.4814
  166SAPS  C21018736   1.768   6.448  -1.336 -0.5222 -0.5708 -0.1021
  166SAPS  H10R18737   1.657   6.441  -1.331 -0.4753 -0.7713  0.8804
  166SAPS  H10S18738   1.790   6.346  -1.374 -0.3930 -0.2400 -0.9333
  166SAPS  C21118739   1.814   6.565  -1.415  0.3690  0.9013  0.2846
  166SAPS  H11R18740   1.801   6.669  -1.381  0.5138  1.1622 -0.4318
  166SAPS  C21218741   1.870   6.554  -1.534  0.2515  0.9947 -0.0139
  166SAPS  H12R18742   1.928   6.635  -1.581  0.7936  0.5111 -0.1977
  166SAPS  C21318743   1.903   6.429  -1.618  0.2810  0.4851 -0.0361
  166SAPS  H13R18744   1.967   6.356  -1.564 -0.5207 -0.6227 -0.5563
  166SAPS  H13S18745   1.953   6.465  -1.711 -0.2076  0.2794 -0.3802
  166SAPS  C21418746   1.783   6.345  -1.668 -0.1255  0.3948 -0.2001
  166SAPS  H14R18747   1.687   6.371  -1.621 -0.2891  0.0686 -0.3517
  166SAPS  C21518748   1.784   6.267  -1.774  0.7085 -0.4428  0.0365
  166SAPS  H15R18749   1.700   6.200  -1.794  0.2464  0.1766 -0.1435
  166SAPS  C21618750   1.907   6.217  -1.844 -0.4858  0.1611  0.2167
  166SAPS  H16R18751   1.922   6.108  -1.823 -0.2910  0.4751  1.8512
  166SAPS  H16S18752   1.997   6.260  -1.795 -0.3270  1.2048 -0.9589
  166SAPS  C21718753   1.894   6.235  -1.999 -0.3392 -0.1172  0.1591
  166SAPS  H17R18754   1.878   6.344  -2.016 -0.2646  0.3316  2.5040
  166SAPS  H17S18755   1.809   6.173  -2.036 -0.1035 -1.9818  2.5038
  166SAPS  C21818756   2.028   6.188  -2.055  0.7541 -0.4874  0.3023
  166SAPS  H18R18757   2.045   6.079  -2.048  1.1874 -0.3524  1.6775
  166SAPS  H18S18758   2.111   6.232  -1.996  0.6219  1.5276 -0.9224
  166SAPS  C21918759   2.065   6.226  -2.204  0.2848 -0.4221 -0.6824
  166SAPS  H19R18760   2.061   6.336  -2.218  1.2704 -0.0707  1.3474
  166SAPS  H19S18761   1.993   6.179  -2.274  0.8578 -0.6301 -1.1449
  166SAPS  C22018762   2.214   6.178  -2.233  0.5774  0.1596  0.0122
  166SAPS  H20R18763   2.233   6.181  -2.343  3.2679 -0.4611  0.3765
  166SAPS  H20S18764   2.217   6.072  -2.200 -1.6779 -0.2992 -1.0682
  166SAPS  H20T18765   2.293   6.241  -2.187  1.6906 -1.5246  0.5002
  166SAPS   C3318766   1.649   5.994  -1.016  0.8005 -0.4792  0.0016
  166SAPS   H3X18767   1.562   5.939  -1.058 -0.3173  1.9069 -0.9671
  166SAPS   H3Y18768   1.709   5.918  -0.960  3.2402  2.3142  1.4488
  166SAPS   C3418769   1.742   6.054  -1.114  0.0086 -0.7419 -0.1518
  166SAPS   H4X18770   1.845   6.081  -1.080 -0.0445 -0.9554  0.1835
  166SAPS   H4Y18771   1.702   6.150  -1.153  1.6111  0.4175  0.9270
  166SAPS   C3518772   1.765   5.961  -1.236 -0.0062  0.1979  0.5004
  166SAPS   H5X18773   1.671   5.909  -1.265  1.1345 -1.7521  0.1690
  166SAPS   H5Y18774   1.832   5.879  -1.202 -0.7865 -0.2415  1.0137
  166SAPS   C3618775   1.822   6.025  -1.369  0.1764 -0.3989 -0.7159
  166SAPS   H6X18776   1.929   6.048  -1.352  0.4377  0.0166 -2.6081
  166SAPS   H6Y18777   1.778   6.124  -1.394 -0.3604 -0.9641 -2.1679
  166SAPS   C3718778   1.816   5.936  -1.489 -0.4436  0.7047  0.0119
  166SAPS   H7X18779   1.858   5.842  -1.447  0.8345  1.3710  0.2969
  166SAPS   H7Y18780   1.877   5.971  -1.575 -0.2839 -0.4431 -0.3614
  166SAPS   C3818781   1.681   5.912  -1.557  0.0970  0.1341  0.4100
  166SAPS   H8X18782   1.665   6.000  -1.624  0.1372  0.7732  1.2340
  166SAPS   H8Y18783   1.590   5.912  -1.493 -0.3632 -1.5509 -0.1726
  166SAPS   C3918784   1.680   5.781  -1.647 -0.5132 -0.9867 -0.1182
  166SAPS   H9X18785   1.726   5.697  -1.592  2.1068 -1.2088 -2.3976
  166SAPS   H9Y18786   1.753   5.788  -1.731 -0.2864 -2.7617 -0.0937
  166SAPS  C31018787   1.543   5.733  -1.709 -0.1407  0.3396  0.3096
  166SAPS  H10X18788   1.508   5.808  -1.782  0.9942  1.2775  0.7054
  166SAPS  H10Y18789   1.470   5.740  -1.625 -0.6904  0.3624 -0.1671
  166SAPS  C31118790   1.554   5.593  -1.777 -0.3698 -0.2928  0.6848
  166SAPS  H11X18791   1.454   5.583  -1.824  0.2513  1.1829 -1.0526
  166SAPS  H11Y18792   1.562   5.524  -1.690  0.2608 -2.0714 -0.7138
  166SAPS  C31218793   1.671   5.568  -1.880 -0.9898 -0.0644 -0.5908
  166SAPS  H12X18794   1.767   5.563  -1.826 -0.8935 -0.8066 -0.8201
  166SAPS  H12Y18795   1.664   5.657  -1.947  0.5706  1.1510  0.7873
  166SAPS  C31318796   1.658   5.434  -1.967 -0.1894  0.3593 -0.3531
  166SAPS  H13X18797   1.559   5.430  -2.017  0.3687  1.6040 -1.6014
  166SAPS  H13Y18798   1.663   5.355  -1.889 -0.6527 -1.6475 -2.2435
  166SAPS  C31418799   1.763   5.401  -2.073 -0.9819 -0.4647  0.3725
  166SAPS  H14X18800   1.866   5.423  -2.037 -0.8704 -0.7251  0.2225
  166SAPS  H14Y18801   1.738   5.477  -2.150 -1.9220 -0.0672  1.0612
  166SAPS  C31518802   1.756   5.258  -2.122 -0.3145 -0.8257  0.9612
  166SAPS  H15X18803   1.655   5.228  -2.156 -0.0187 -1.1502  0.3479
  166SAPS  H15Y18804   1.802   5.189  -2.048 -1.4420 -1.8679  0.7240
  166SAPS  C31618805   1.847   5.240  -2.255 -0.3726 -0.7075  0.0239
  166SAPS  H16X18806   1.950   5.273  -2.227  0.1642 -1.9490 -0.3904
  166SAPS  H16Y18807   1.802   5.305  -2.334  0.7831 -0.2003 -0.2553
  166SAPS  C31718808   1.869   5.096  -2.306 -0.1174 -0.1301 -0.3349
  166SAPS  H17X18809   1.782   5.072  -2.370  1.3157 -3.2679 -1.2593
  166SAPS  H17Y18810   1.861   5.028  -2.219 -1.9161  0.1587 -0.2326
  166SAPS  C31818811   1.995   5.068  -2.389  0.5240  0.4161  0.2707
  166SAPS  H18X18812   2.089   5.098  -2.338  1.1699  0.2064 -0.7603
  166SAPS  H18Y18813   2.005   5.129  -2.481 -2.5902  0.3339 -0.2245
  166SAPS  H18Z18814   2.003   4.962  -2.421  0.5621  0.1803  1.0347
  167SAPS     N18815   4.788   3.172   7.904 -0.2123 -0.5163 -0.1420
  167SAPS   HN118816   4.802   3.236   7.823  0.1034 -0.3139  0.0707
  167SAPS   HN218817   4.772   3.079   7.860  0.0574 -0.0042 -1.3904
  167SAPS   HN318818   4.695   3.200   7.941  0.1431  0.4780  0.0330
  167SAPS   C1218819   4.893   3.192   8.009 -0.1829  0.4794  0.0100
  167SAPS  H12A18820   4.879   3.292   8.047  1.8541  0.7133  0.2410
  167SAPS   C1318821   4.876   3.108   8.141 -0.7473 -0.0671 -0.4516
  167SAPS  O13A18822   4.775   3.035   8.160  0.7714  0.3239 -0.2052
  167SAPS  O13B18823   4.969   3.126   8.224 -0.4482  0.4351  0.1867
  167SAPS   C1118824   5.029   3.180   7.941 -0.1785  1.3802 -0.8330
  167SAPS  H11A18825   5.026   3.079   7.894 -1.1375  1.7221 -1.5324
  167SAPS  H11B18826   5.100   3.182   8.027 -1.5380  2.1332  0.3206
  167SAPS     P18827   5.119   3.420   7.865 -0.2043  0.1098 -0.1539
  167SAPS   O1318828   5.019   3.490   7.947 -0.2856 -0.4627  0.1760
  167SAPS   O1418829   5.253   3.400   7.929  0.0993 -0.7357 -0.6912
  167SAPS   O1218830   5.051   3.274   7.839 -0.3774 -0.5071  0.2084
  167SAPS   O1118831   5.141   3.489   7.728 -0.0952 -0.0886  0.0853
  167SAPS    C118832   5.141   3.417   7.603 -0.1817 -0.3655  0.5488
  167SAPS    HA18833   5.064   3.338   7.596 -1.3551  0.8046 -0.1177
  167SAPS    HB18834   5.127   3.487   7.518  0.5111 -0.9875 -0.0846
  167SAPS    C218835   5.291   3.373   7.560  0.3420 -0.3078  0.1972
  167SAPS    HS18836   5.284   3.324   7.461 -0.4045 -1.1077  0.6291
  167SAPS   O2118837   5.353   3.277   7.646  0.1507  0.5590  0.5700
  167SAPS   C2118838   5.301   3.162   7.644  0.6042 -0.8411  0.6981
  167SAPS   O2218839   5.207   3.122   7.579  0.3305 -0.3450  0.3295
  167SAPS   C2218840   5.371   3.083   7.746 -0.2999  0.1449  0.1206
  167SAPS   H2R18841   5.435   3.151   7.806 -1.0784  1.3738 -0.4161
  167SAPS   H2S18842   5.301   3.041   7.822  0.2392 -0.0322  0.5265
  167SAPS    C318843   5.388   3.501   7.547 -0.0554 -0.2287  0.2990
  167SAPS    HX18844   5.425   3.524   7.649 -2.5817  1.6018  0.9227
  167SAPS    HY18845   5.333   3.591   7.512 -0.3483 -1.2080 -1.9156
  167SAPS   O3118846   5.493   3.472   7.454 -0.7780 -0.2637  0.1966
  167SAPS   C3118847   5.611   3.427   7.505  0.4888 -0.3640  0.8537
  167SAPS   O3218848   5.638   3.410   7.619  0.1483  0.0808  0.0801
  167SAPS   C3218849   5.710   3.423   7.383  0.1952  0.2537 -0.1409
  167SAPS   H2X18850   5.735   3.314   7.382 -0.9832 -0.0535  0.6929
  167SAPS   H2Y18851   5.798   3.483   7.412 -1.9642  2.3017  2.8723
  167SAPS   C2318852   5.459   2.962   7.694  0.5896  0.2579  0.5439
  167SAPS   H3R18853   5.395   2.882   7.653  0.5448  2.1204 -3.5747
  167SAPS   H3S18854   5.524   2.934   7.779  0.8135  2.0649  1.0060
  167SAPS   C2418855   5.552   3.010   7.575 -0.1186  0.4672  0.8534
  167SAPS   H4R18856   5.630   3.079   7.611  1.3596 -1.4531  1.5045
  167SAPS   H4S18857   5.482   3.061   7.506 -1.6768 -1.9299  0.5168
  167SAPS   C2518858   5.611   2.884   7.509 -0.7066  1.0662  0.9051
  167SAPS   H5R18859   5.678   2.818   7.566 -0.5529  1.9101  1.7117
  167SAPS   C2618860   5.584   2.847   7.379 -0.1193 -0.0032 -0.5770
  167SAPS   H6R18861   5.626   2.749   7.351  1.2900  0.3662  0.1912
  167SAPS   C2718862   5.497   2.914   7.274  0.2059 -0.2164  0.1456
  167SAPS   H7R18863   5.411   2.963   7.325 -0.8923 -0.2620 -1.6057
  167SAPS   H7S18864   5.468   2.829   7.208 -0.2095  0.4363 -0.5184
  167SAPS   C2818865   5.568   3.024   7.199  0.0084 -0.3289  0.0755
  167SAPS   H8R18866   5.594   3.112   7.259  0.8249 -0.1705 -0.4894
  167SAPS   C2918867   5.587   3.039   7.067  0.4833  0.3185  0.4598
  167SAPS   H9R18868   5.634   3.128   7.022  2.1262  0.8868  3.0998
  167SAPS  C21018869   5.538   2.941   6.964  0.6466  0.7733  0.0644
  167SAPS  H10R18870   5.483   2.994   6.883  5.4384  1.1972 -3.3707
  167SAPS  H10S18871   5.481   2.856   7.007  2.4826 -1.0420 -0.8972
  167SAPS  C21118872   5.652   2.878   6.893 -0.8942 -0.3148 -0.1870
  167SAPS  H11R18873   5.699   2.791   6.940 -2.8310 -2.1122 -1.3369
  167SAPS  C21218874   5.705   2.919   6.777 -0.1989 -0.8849  0.5708
  167SAPS  H12R18875   5.801   2.879   6.742 -0.0177 -0.6142  0.7644
  167SAPS  C21318876   5.644   3.044   6.700 -0.8657  0.5234 -0.0926
  167SAPS  H13R18877   5.728   3.086   6.640 -1.3620 -0.6210 -1.6709
  167SAPS  H13S18878   5.605   3.117   6.774 -0.9928 -0.2410  0.6082
  167SAPS  C21418879   5.530   2.981   6.618  0.1586  0.6495 -0.0675
  167SAPS  H14R18880   5.477   2.899   6.668  0.5218  0.1667 -0.4668
  167SAPS  C21518881   5.517   3.003   6.486  0.2616  0.2392 -0.2117
  167SAPS  H15R18882   5.439   2.943   6.435  2.0993 -1.8485 -0.7218
  167SAPS  C21618883   5.605   3.102   6.411  0.2850 -0.2146  0.1141
  167SAPS  H16R18884   5.607   3.191   6.478 -1.2695 -0.2975  0.3154
  167SAPS  H16S18885   5.550   3.122   6.317  0.0421 -1.7540 -0.0927
  167SAPS  C21718886   5.743   3.050   6.365  0.7605  0.2252 -0.0687
  167SAPS  H17R18887   5.716   2.965   6.298  0.5082  0.5034 -0.3245
  167SAPS  H17S18888   5.805   3.022   6.453  1.7089 -0.2543 -0.8605
  167SAPS  C21818889   5.833   3.155   6.295 -0.6242  0.6132  0.2763
  167SAPS  H18R18890   5.769   3.228   6.241 -2.0287 -1.5654 -1.2067
  167SAPS  H18S18891   5.885   3.099   6.214  0.2872  0.8926  0.6537
  167SAPS  C21918892   5.938   3.212   6.385  0.2402 -0.2898 -0.9008
  167SAPS  H19R18893   5.997   3.124   6.419 -1.0626 -0.2769  1.5976
  167SAPS  H19S18894   5.894   3.246   6.481 -0.9338 -0.3238 -1.4099
  167SAPS  C22018895   6.036   3.319   6.333 -0.2677 -0.2811  0.3619
  167SAPS  H20R18896   6.115   3.333   6.410  0.8343 -4.6440  0.2837
  167SAPS  H20S18897   5.992   3.410   6.286  1.5943 -0.5760 -2.1498
  167SAPS  H20T18898   6.094   3.286   6.245 -0.3024  3.6422 -1.3617
  167SAPS   C3318899   5.660   3.462   7.237 -0.1201 -0.3507  0.1004
  167SAPS   H3X18900   5.638   3.571   7.235  1.4766  0.0398  1.3195
  167SAPS   H3Y18901   5.564   3.412   7.211 -0.8089 -0.7632  3.1026
  167SAPS   C3418902   5.763   3.424   7.133 -0.2320 -0.3067  0.0164
  167SAPS   H4X18903   5.776   3.314   7.131 -1.2223 -0.4461  0.5557
  167SAPS   H4Y18904   5.855   3.474   7.170 -1.6127  0.5441  2.5894
  167SAPS   C3518905   5.738   3.466   6.988 -0.2890  0.4956  0.1600
  167SAPS   H5X18906   5.753   3.574   6.968  0.6325  0.5501  1.0899
  167SAPS   H5Y18907   5.633   3.437   6.969 -0.1485 -0.2807  0.5252
  167SAPS   C3618908   5.820   3.392   6.883 -0.4413 -0.3467 -0.0914
  167SAPS   H6X18909   5.776   3.290   6.887 -1.2503 -0.0074 -0.0272
  167SAPS   H6Y18910   5.925   3.397   6.919 -0.7115  2.7257  0.5268
  167SAPS   C3718911   5.811   3.445   6.744 -0.4535 -0.0830 -1.0723
  167SAPS   H7X18912   5.869   3.384   6.672 -0.2367 -2.2336  0.8061
  167SAPS   H7Y18913   5.845   3.551   6.747 -0.0012 -0.2467  0.0748
  167SAPS   C3818914   5.664   3.460   6.695  0.6150 -0.0389 -0.2457
  167SAPS   H8X18915   5.616   3.531   6.765 -1.7081 -1.4678 -0.2882
  167SAPS   H8Y18916   5.607   3.365   6.698 -0.0673  0.1185 -3.7940
  167SAPS   C3918917   5.667   3.512   6.550 -0.6045 -0.2793 -0.3034
  167SAPS   H9X18918   5.746   3.457   6.495 -0.0356 -1.2838  1.4531
  167SAPS   H9Y18919   5.711   3.614   6.551 -0.6890 -0.2251  1.4180
  167SAPS  C31018920   5.532   3.494   6.489  0.0871 -0.3406 -0.4979
  167SAPS  H10X18921   5.460   3.527   6.568  1.1006  1.2249 -0.1844
  167SAPS  H10Y18922   5.512   3.385   6.478  0.8993 -0.6535  0.8365
  167SAPS  C31118923   5.517   3.569   6.364  0.1523 -0.0293 -0.6256
  167SAPS  H11X18924   5.606   3.540   6.303  0.9187  0.7768  0.0693
  167SAPS  H11Y18925   5.520   3.680   6.373 -1.6166 -0.1101  1.7896
  167SAPS  C31218926   5.407   3.538   6.266  1.0754 -0.1483  0.1094
  167SAPS  H12X18927   5.421   3.437   6.221  1.1362  0.3248 -0.9533
  167SAPS  H12Y18928   5.418   3.604   6.178  1.7053 -1.7397 -1.0558
  167SAPS  C31318929   5.268   3.548   6.336  0.2165 -0.4661  0.1411
  167SAPS  H13X18930   5.268   3.487   6.429 -0.8949  0.4737  0.7929
  167SAPS  H13Y18931   5.185   3.514   6.271 -0.5950 -0.3831  1.1073
  167SAPS  C31418932   5.242   3.691   6.382  0.7224  0.1935 -0.3178
  167SAPS  H14X18933   5.239   3.772   6.306 -0.3680  0.6937  0.2271
  167SAPS  H14Y18934   5.318   3.717   6.458  0.5267  1.6794 -0.5959
  167SAPS  C31518935   5.104   3.703   6.442  0.4286 -0.1427 -0.0475
  167SAPS  H15X18936   5.095   3.645   6.536  1.2276 -0.5273 -0.2007
  167SAPS  H15Y18937   5.027   3.657   6.377 -0.2327 -2.9528  2.4906
  167SAPS  C31618938   5.064   3.850   6.469  0.2844 -0.6286 -0.8343
  167SAPS  H16X18939   5.076   3.909   6.375  1.3605 -1.0007 -0.9428
  167SAPS  H16Y18940   5.130   3.891   6.548 -0.7232 -2.6473  1.1706
  167SAPS  C31718941   4.918   3.868   6.511  0.0631  0.0079  0.4269
  167SAPS  H17X18942   4.865   3.847   6.416 -0.2067  1.1713  0.3038
  167SAPS  H17Y18943   4.902   3.978   6.521  0.8999  0.1760  0.0600
  167SAPS  C31818944   4.861   3.794   6.629 -0.3163  0.0253 -0.3112
  167SAPS  H18X18945   4.896   3.690   6.617 -1.7869 -0.9530  2.7801
  167SAPS  H18Y18946   4.751   3.798   6.637 -0.3437  0.9868 -1.0230
  167SAPS  H18Z18947   4.892   3.834   6.728  0.1285  2.7215 -1.4472
  168SAPS     N18948   2.758   0.110   0.089  0.2435 -0.3757  0.0675
  168SAPS   HN118949   2.698   0.037   0.132 -3.4927  2.9282  1.0605
  168SAPS   HN218950   2.844   0.066   0.049 -0.0844  0.5695 -1.8052
  168SAPS   HN318951   2.788   0.175   0.165  0.2959 -0.1677 -0.1306
  168SAPS   C1218952   2.687   0.184  -0.018  0.1429  0.1487 -0.6167
  168SAPS  H12A18953   2.599   0.221   0.032  0.9665 -0.9681  1.8027
  168SAPS   C1318954   2.759   0.312  -0.069  0.8387  0.2499 -0.2023
  168SAPS  O13A18955   2.857   0.363  -0.008 -0.3945  0.2294 -0.4556
  168SAPS  O13B18956   2.708   0.378  -0.162  0.4176 -0.8176  0.6708
  168SAPS   C1118957   2.656   0.086  -0.135 -0.4940 -0.5196  0.5204
  168SAPS  H11A18958   2.750   0.048  -0.180  0.5548  1.5767  0.8016
  168SAPS  H11B18959   2.616   0.148  -0.218  0.6087 -1.4787 -0.7713
  168SAPS     P18960   2.417  -0.008  -0.101 -0.5494  0.6674 -0.0996
  168SAPS   O1318961   2.355  -0.128  -0.037 -0.9781 -0.7697  0.1042
  168SAPS   O1418962   2.387   0.130  -0.038 -0.0134  0.2445 -0.2619
  168SAPS   O1218963   2.574  -0.024  -0.100 -0.4792  0.0080 -0.2359
  168SAPS   O1118964   2.383  -0.009  -0.255  0.5296 -0.0869  0.5334
  168SAPS    C118965   2.310   0.102  -0.311  0.2780 -0.1923 -0.6658
  168SAPS    HA18966   2.211   0.121  -0.264  0.2312  0.0998 -0.8795
  168SAPS    HB18967   2.364   0.198  -0.299 -0.8969  0.2385  1.7397
  168SAPS    C218968   2.276   0.092  -0.462  0.2429  0.1996 -0.2653
  168SAPS    HS18969   2.189   0.160  -0.478  0.7810  1.9640  3.2276
  168SAPS   O2118970   2.257  -0.044  -0.504 -0.0012 -0.5500 -0.0362
  168SAPS   C2118971   2.137  -0.102  -0.475  0.6866 -0.2289  0.9238
  168SAPS   O2218972   2.052  -0.048  -0.410 -0.0942 -0.7137  0.6526
  168SAPS   C2218973   2.135  -0.255  -0.497  0.1022 -0.3411 -0.1521
  168SAPS   H2R18974   2.225  -0.288  -0.440  0.8692 -2.1221 -2.2573
  168SAPS   H2S18975   2.050  -0.300  -0.442  0.7038  0.8870  1.9177
  168SAPS    C318976   2.390   0.161  -0.543  0.2056  0.1888 -0.0159
  168SAPS    HX18977   2.480   0.103  -0.514  2.7156  2.9916 -1.5800
  168SAPS    HY18978   2.402   0.268  -0.517 -0.8897  0.3452 -0.1087
  168SAPS   O3118979   2.367   0.162  -0.682  0.5028 -0.1174  0.3414
  168SAPS   C3118980   2.394   0.045  -0.749 -0.5637  0.5288 -0.0149
  168SAPS   O3218981   2.450  -0.052  -0.702 -0.2381 -0.2102  0.1614
  168SAPS   C3218982   2.324   0.051  -0.886  0.4003  0.0047  1.0902
  168SAPS   H2X18983   2.215   0.044  -0.865  0.3135  0.3290  0.7576
  168SAPS   H2Y18984   2.349  -0.042  -0.941  0.9476 -1.0790  3.0575
  168SAPS   C2318985   2.144  -0.298  -0.643  0.8652 -0.2807 -0.6273
  168SAPS   H3R18986   2.174  -0.405  -0.644 -0.1515 -0.5810 -1.2401
  168SAPS   H3S18987   2.221  -0.249  -0.705  0.6565  1.4567  0.4085
  168SAPS   C2418988   2.016  -0.285  -0.723 -0.0405  0.2147 -0.6522
  168SAPS   H4R18989   2.040  -0.300  -0.831 -0.5446 -1.2695 -0.5826
  168SAPS   H4S18990   1.979  -0.181  -0.721  1.0956  0.6364 -0.9985
  168SAPS   C2518991   1.915  -0.383  -0.681 -0.9200  0.9941 -0.1688
  168SAPS   H5R18992   1.849  -0.353  -0.598  1.0826 -1.5295  2.5682
  168SAPS   C2618993   1.901  -0.514  -0.709 -0.4903  0.0161  0.4968
  168SAPS   H6R18994   1.812  -0.570  -0.676 -0.1870 -0.3092  0.7709
  168SAPS   C2718995   1.979  -0.588  -0.809 -0.4838  0.3828 -0.0663
  168SAPS   H7R18996   2.041  -0.523  -0.874  2.3785 -1.1620  0.9461
  168SAPS   H7S18997   1.910  -0.635  -0.882 -1.5938 -0.9556  1.7335
  168SAPS   C2818998   2.065  -0.703  -0.758  0.2552  1.0849 -0.2234
  168SAPS   H8R18999   2.040  -0.750  -0.662 -2.0283 -0.4813 -1.4733
  168SAPS   C2919000   2.176  -0.761  -0.818  0.5361  0.1187 -0.0883
  168SAPS   H9R19001   2.240  -0.836  -0.770 -0.2232 -0.2647  0.3532
  168SAPS  C21019002   2.237  -0.728  -0.950  0.4721 -0.4379 -0.6764
  168SAPS  H10R19003   2.348  -0.736  -0.947  0.6511  1.6148  0.8553
  168SAPS  H10S19004   2.216  -0.621  -0.970 -0.7822 -0.0743  2.1417
  168SAPS  C21119005   2.194  -0.818  -1.060 -0.2169 -0.2624 -0.7397
  168SAPS  H11R19006   2.182  -0.919  -1.018 -0.0949 -0.2650 -0.7102
  168SAPS  C21219007   2.152  -0.796  -1.188 -0.0964 -0.7206 -0.0995
  168SAPS  H12R19008   2.129  -0.885  -1.249 -0.0083 -1.2209  0.5776
  168SAPS  C21319009   2.165  -0.660  -1.262 -0.0809  0.1384 -0.0354
  168SAPS  H13R19010   2.106  -0.584  -1.206  1.2019  1.4171 -0.3339
  168SAPS  H13S19011   2.101  -0.673  -1.353 -1.2040 -0.1303  0.7689
  168SAPS  C21419012   2.304  -0.606  -1.286 -0.5756  0.2453  0.4182
  168SAPS  H14R19013   2.334  -0.539  -1.203 -2.1609  0.1345  1.1054
  168SAPS  C21519014   2.381  -0.607  -1.404 -0.3334  0.8444  0.4605
  168SAPS  H15R19015   2.481  -0.562  -1.402  0.5216 -0.9619  2.2143
  168SAPS  C21619016   2.340  -0.676  -1.530 -0.1455  0.1018  0.5719
  168SAPS  H16R19017   2.413  -0.651  -1.609 -2.1206 -2.2601 -2.2192
  168SAPS  H16S19018   2.239  -0.641  -1.563  0.8971  1.6983 -1.1203
  168SAPS  C21719019   2.336  -0.829  -1.514  0.3779  0.0754 -0.3526
  168SAPS  H17R19020   2.266  -0.854  -1.431 -0.2266  0.7657 -0.6358
  168SAPS  H17S19021   2.436  -0.872  -1.496  0.1986 -1.1194 -1.9557
  168SAPS  C21819022   2.296  -0.898  -1.643  0.6496 -0.1558  0.2254
  168SAPS  H18R19023   2.363  -0.882  -1.729  0.2442 -0.8301 -0.2290
  168SAPS  H18S19024   2.194  -0.866  -1.673 -0.8479 -1.8869  3.0094
  168SAPS  C21919025   2.283  -1.046  -1.627 -0.3076 -0.2485 -0.2499
  168SAPS  H19R19026   2.215  -1.068  -1.542 -0.6800 -1.6347 -0.8710
  168SAPS  H19S19027   2.385  -1.074  -1.593  0.1500  1.5537 -0.0438
  168SAPS  C22019028   2.250  -1.120  -1.757  0.2153  0.0771  0.1164
  168SAPS  H20R19029   2.141  -1.104  -1.769  0.2731  1.1485  0.8508
  168SAPS  H20S19030   2.280  -1.226  -1.760  0.4340  0.1145 -3.1107
  168SAPS  H20T19031   2.301  -1.063  -1.838  1.0690 -0.8222  0.0027
  168SAPS   C3319032   2.370   0.176  -0.967  0.2910 -0.6243 -0.6986
  168SAPS   H3X19033   2.477   0.208  -0.965  0.1314 -0.0020 -1.5071
  168SAPS   H3Y19034   2.325   0.271  -0.932  1.3000  0.0758 -1.2403
  168SAPS   C3419035   2.321   0.166  -1.114  0.3936 -0.2149 -0.3730
  168SAPS   H4X19036   2.212   0.142  -1.119  0.3585  0.0953 -1.7188
  168SAPS   H4Y19037   2.368   0.071  -1.145  0.6619  0.0470 -0.7857
  168SAPS   C3519038   2.349   0.291  -1.192 -0.4820 -0.8313  1.1863
  168SAPS   H5X19039   2.444   0.343  -1.168 -1.6522  2.5249 -0.8295
  168SAPS   H5Y19040   2.274   0.371  -1.172  1.3582  1.6832 -1.1835
  168SAPS   C3619041   2.347   0.272  -1.342 -0.5446  0.8097  0.4242
  168SAPS   H6X19042   2.266   0.200  -1.365  0.1246 -0.7280  2.4760
  168SAPS   H6Y19043   2.439   0.217  -1.373  0.1801  4.3866 -5.0031
  168SAPS   C3719044   2.332   0.394  -1.429  0.0277 -0.6364 -0.0793
  168SAPS   H7X19045   2.401   0.473  -1.392 -1.2514  1.6726 -2.3619
  168SAPS   H7Y19046   2.225   0.421  -1.413 -0.1207 -1.5605  0.5811
  168SAPS   C3819047   2.377   0.385  -1.577  0.4562 -0.3506 -0.0176
  168SAPS   H8X19048   2.364   0.479  -1.635 -4.0496 -1.3105 -0.9252
  168SAPS   H8Y19049   2.323   0.303  -1.629 -1.2470  0.2404  0.7399
  168SAPS   C3919050   2.523   0.351  -1.588 -0.7389 -0.0293 -0.1420
  168SAPS   H9X19051   2.554   0.270  -1.519  0.6813  1.0639  0.5509
  168SAPS   H9Y19052   2.587   0.439  -1.567  0.7066 -0.5264 -2.1391
  168SAPS  C31019053   2.550   0.298  -1.725 -0.4801 -0.5718 -0.5473
  168SAPS  H10X19054   2.661   0.303  -1.736 -0.4155  0.2137  0.3267
  168SAPS  H10Y19055   2.499   0.356  -1.805 -0.1532 -0.7569 -0.8887
  168SAPS  C31119056   2.522   0.147  -1.742 -0.3481  0.5763  0.8380
  168SAPS  H11X19057   2.418   0.124  -1.710 -0.7926  3.1272  1.4767
  168SAPS  H11Y19058   2.593   0.089  -1.680 -0.6429  0.3121  0.9287
  168SAPS  C31219059   2.523   0.088  -1.881  0.0297  0.5414 -0.1890
  168SAPS  H12X19060   2.458   0.152  -1.945 -1.3819  0.0604  0.7014
  168SAPS  H12Y19061   2.467  -0.008  -1.882 -1.8035  1.5496 -1.7349
  168SAPS  C31319062   2.667   0.055  -1.919 -0.4818 -0.0153 -0.6768
  168SAPS  H13X19063   2.709  -0.009  -1.838 -1.6260 -0.9076 -0.7577
  168SAPS  H13Y19064   2.718   0.153  -1.923 -1.2704  0.4152 -0.5313
  168SAPS  C31419065   2.694  -0.013  -2.057  0.0693  0.7467 -0.1318
  168SAPS  H14X19066   2.644   0.032  -2.146  1.3721  0.1504 -1.2008
  168SAPS  H14Y19067   2.661  -0.119  -2.049  1.5329  0.2594 -0.3868
  168SAPS  C31519068   2.845  -0.025  -2.095  0.1621 -1.1179  0.4911
  168SAPS  H15X19069   2.901  -0.062  -2.006 -2.8467  0.4178  3.2077
  168SAPS  H15Y19070   2.882   0.079  -2.109  1.4233 -1.3774  1.6343
  168SAPS  C31619071   2.879  -0.132  -2.199  0.6059 -0.2975  0.4803
  168SAPS  H16X19072   2.837  -0.230  -2.167  0.2686 -0.8937 -1.6887
  168SAPS  H16Y19073   2.989  -0.144  -2.200  0.7498  0.8675 -1.4539
  168SAPS  C31719074   2.823  -0.112  -2.343 -1.3695 -0.2884 -0.8449
  168SAPS  H17X19075   2.714  -0.099  -2.326 -0.9201  0.1179  2.3931
  168SAPS  H17Y19076   2.845  -0.209  -2.392  1.3991  0.5575 -1.4460
  168SAPS  C31819077   2.908  -0.017  -2.421 -0.1627 -0.3842 -0.2158
  168SAPS  H18X19078   3.008  -0.051  -2.457  1.2857  1.8840  1.3880
  168SAPS  H18Y19079   2.931   0.074  -2.361  1.3716 -0.7208 -0.2598
  168SAPS  H18Z19080   2.845   0.015  -2.507 -0.8027 -1.8332 -0.3086
  169SAPS     N19081   5.154   6.242   8.474  0.2668 -0.7365 -0.4520
  169SAPS   HN119082   5.112   6.296   8.552 -1.1639 -0.1621 -1.5871
  169SAPS   HN219083   5.257   6.259   8.474  0.1536 -0.0009 -0.8645
  169SAPS   HN319084   5.129   6.281   8.381 -0.0358  3.1353  1.0885
  169SAPS   C1219085   5.118   6.104   8.513  0.9605  0.0975  0.3668
  169SAPS  H12A19086   5.134   6.051   8.420  1.8124  1.0563 -0.0586
  169SAPS   C1319087   5.199   6.049   8.626 -0.2680 -0.3716  0.1378
  169SAPS  O13A19088   5.294   6.122   8.668  0.2040  0.7598 -0.0144
  169SAPS  O13B19089   5.193   5.926   8.666 -0.0695 -0.6313  0.3249
  169SAPS   C1119090   4.969   6.095   8.537 -0.5370 -0.5582 -0.7478
  169SAPS  H11A19091   4.944   6.187   8.593  0.7959  0.0916 -1.1793
  169SAPS  H11B19092   4.951   6.012   8.609  1.8828 -0.9329 -0.4988
  169SAPS     P19093   4.751   6.130   8.423  0.3349 -0.0215  0.5576
  169SAPS   O1319094   4.660   6.063   8.517 -0.1588 -0.2552 -0.3261
  169SAPS   O1419095   4.772   6.276   8.440 -0.2283  0.4185  0.4919
  169SAPS   O1219096   4.892   6.072   8.426 -0.3113 -0.3247 -0.3681
  169SAPS   O1119097   4.705   6.086   8.278  0.0810 -0.3714  0.0156
  169SAPS    C119098   4.806   6.117   8.177 -0.2200 -0.2064  0.5074
  169SAPS    HA19099   4.850   6.219   8.184 -0.3080 -0.1695  0.5429
  169SAPS    HB19100   4.894   6.054   8.197  0.3864  1.0526  1.9704
  169SAPS    C219101   4.754   6.078   8.040 -1.3855  0.4987 -0.7485
  169SAPS    HS19102   4.837   6.067   7.967  1.5102  1.8405  2.1091
  169SAPS   O2119103   4.648   6.165   8.000 -0.0755  0.1000  0.4542
  169SAPS   C2119104   4.691   6.284   7.965  0.1717  0.1472  0.7876
  169SAPS   O2219105   4.805   6.328   7.965  0.1324 -0.3623 -0.1244
  169SAPS   C2219106   4.568   6.367   7.919  0.1112 -0.0552 -0.4795
  169SAPS   H2R19107   4.491   6.351   7.998  0.9084  0.3149  0.3848
  169SAPS   H2S19108   4.594   6.475   7.914  0.7232 -0.2349 -1.5600
  169SAPS    C319109   4.700   5.933   8.058  0.6579  0.2381  0.8533
  169SAPS    HX19110   4.607   5.931   8.119  0.1522  0.2436  0.1122
  169SAPS    HY19111   4.777   5.866   8.101  1.9188  1.5506  0.7074
  169SAPS   O3119112   4.680   5.878   7.928  0.1113  0.1914  0.0126
  169SAPS   C3119113   4.552   5.864   7.891  0.8911  0.8686  0.1423
  169SAPS   O3219114   4.453   5.887   7.965 -0.0103  0.3275  0.0895
  169SAPS   C3219115   4.544   5.806   7.754 -0.0526  0.4494 -0.2208
  169SAPS   H2X19116   4.462   5.846   7.690  0.5382 -1.1528 -2.0798
  169SAPS   H2Y19117   4.522   5.699   7.773 -1.9064  0.8840  0.2648
  169SAPS   C2319118   4.509   6.323   7.782  0.2623  0.0053 -0.5198
  169SAPS   H3R19119   4.419   6.386   7.766 -0.0171 -0.6112 -1.3939
  169SAPS   H3S19120   4.477   6.217   7.791  1.2811 -0.2441  0.4028
  169SAPS   C2419121   4.606   6.339   7.667 -0.2694  0.4208 -0.0668
  169SAPS   H4R19122   4.555   6.300   7.576 -1.5205 -0.9193  1.1444
  169SAPS   H4S19123   4.693   6.269   7.670 -0.7147 -0.2830 -1.9920
  169SAPS   C2519124   4.654   6.477   7.639 -0.2133  0.1983  0.4020
  169SAPS   H5R19125   4.744   6.513   7.691 -1.2786  1.5664  1.4074
  169SAPS   C2619126   4.581   6.569   7.573  0.1922  0.2154 -0.1767
  169SAPS   H6R19127   4.623   6.670   7.559  0.4464  0.1664  0.2060
  169SAPS   C2719128   4.459   6.537   7.487  0.1322  0.3916  0.0546
  169SAPS   H7R19129   4.417   6.438   7.514  1.2797 -0.6036 -1.5851
  169SAPS   H7S19130   4.501   6.525   7.385  1.1740  0.2550  0.4787
  169SAPS   C2819131   4.352   6.646   7.498  0.1010 -0.0641  0.0152
  169SAPS   H8R19132   4.351   6.697   7.596 -1.7707 -1.0219  0.5322
  169SAPS   C2919133   4.268   6.693   7.403 -0.4226 -0.7165 -0.0169
  169SAPS   H9R19134   4.186   6.759   7.435 -0.2680 -0.5211 -0.0241
  169SAPS  C21019135   4.262   6.651   7.256  0.1992 -0.6959 -0.6530
  169SAPS  H10R19136   4.180   6.577   7.248  1.3282 -2.1425  0.5903
  169SAPS  H10S19137   4.358   6.606   7.223 -0.3127 -4.4205  2.3413
  169SAPS  C21119138   4.225   6.772   7.169 -0.2233  0.3047  0.5731
  169SAPS  H11R19139   4.308   6.844   7.157 -0.7733  1.4291  2.8879
  169SAPS  C21219140   4.103   6.793   7.118  0.3662  0.4687 -0.1083
  169SAPS  H12R19141   4.087   6.883   7.057  1.9958 -0.3703 -1.8717
  169SAPS  C21319142   3.980   6.712   7.137  0.2446 -0.8402 -0.1584
  169SAPS  H13R19143   4.000   6.634   7.214  1.6984  0.5099  0.9056
  169SAPS  H13S19144   3.965   6.657   7.042 -0.2170 -1.8997  0.5048
  169SAPS  C21419145   3.850   6.783   7.165 -0.5037  0.3673  0.1290
  169SAPS  H14R19146   3.782   6.792   7.079 -0.6363  0.5226  0.2494
  169SAPS  C21519147   3.801   6.829   7.282 -0.4330 -0.0337  0.4300
  169SAPS  H15R19148   3.706   6.883   7.293  1.3548  3.0968  1.9401
  169SAPS  C21619149   3.872   6.822   7.408 -0.3691 -0.1979 -0.0423
  169SAPS  H16R19150   3.971   6.771   7.411  0.7239  1.7350  3.8283
  169SAPS  H16S19151   3.827   6.739   7.466  0.8220 -1.9503 -1.4918
  169SAPS  C21719152   3.850   6.955   7.481  0.3745  0.0441  0.1758
  169SAPS  H17R19153   3.741   6.974   7.496  0.1678  0.0625 -1.2166
  169SAPS  H17S19154   3.893   7.038   7.420  1.1988 -0.1541  0.4744
  169SAPS  C21819155   3.926   6.958   7.611 -0.5127  0.1000  0.4559
  169SAPS  H18R19156   4.034   6.944   7.590 -0.3360 -0.0902  1.4560
  169SAPS  H18S19157   3.903   6.864   7.665  0.4979 -0.6157 -0.3090
  169SAPS  C21919158   3.903   7.074   7.710 -0.3987  0.3340  0.4464
  169SAPS  H19R19159   3.925   7.172   7.662 -2.2021 -0.7036 -2.7273
  169SAPS  H19S19160   3.980   7.061   7.789  1.3814  3.5721 -0.5305
  169SAPS  C22019161   3.768   7.078   7.776  0.5772  0.1857 -0.0391
  169SAPS  H20R19162   3.755   7.169   7.839  0.5582  0.0799  0.1102
  169SAPS  H20S19163   3.766   6.983   7.834  0.3171 -0.9162 -1.7664
  169SAPS  H20T19164   3.683   7.072   7.704 -0.7355 -2.6162  1.5824
  169SAPS   C3319165   4.662   5.809   7.663 -0.5410  0.2247 -0.1232
  169SAPS   H3X19166   4.656   5.740   7.576  0.9757 -0.6242  0.4133
  169SAPS   H3Y19167   4.753   5.764   7.709 -0.7818  0.1681  0.2982
  169SAPS   C3419168   4.677   5.948   7.623 -0.0780  0.0732 -0.4512
  169SAPS   H4X19169   4.705   6.005   7.714 -0.3463 -2.3413  1.2306
  169SAPS   H4Y19170   4.581   5.987   7.583 -1.6102 -0.0352  2.8412
  169SAPS   C3519171   4.784   5.956   7.513 -0.2514  0.2248  0.0843
  169SAPS   H5X19172   4.875   5.902   7.546 -1.0507 -1.0507  0.2325
  169SAPS   H5Y19173   4.814   6.063   7.503 -0.1050  0.1368 -0.4619
  169SAPS   C3619174   4.728   5.912   7.375  0.6966 -0.0093 -0.7991
  169SAPS   H6X19175   4.639   5.977   7.362 -1.2219 -2.5777 -1.3155
  169SAPS   H6Y19176   4.698   5.806   7.381 -1.1371  0.5458  1.0148
  169SAPS   C3719177   4.825   5.944   7.265  0.3729  0.2023 -0.5376
  169SAPS   H7X19178   4.908   5.872   7.279  1.7920  2.0156  0.9587
  169SAPS   H7Y19179   4.872   6.045   7.273  0.5768  0.0616  0.0157
  169SAPS   C3819180   4.770   5.954   7.115  0.2086 -0.5740  0.9998
  169SAPS   H8X19181   4.859   5.944   7.049  1.0472 -2.4433  2.3107
  169SAPS   H8Y19182   4.740   6.059   7.094  2.6923  0.3592  1.6712
  169SAPS   C3919183   4.668   5.850   7.074 -0.5095 -0.2229  0.3610
  169SAPS   H9X19184   4.572   5.873   7.125 -0.5388  1.3892 -0.3479
  169SAPS   H9Y19185   4.709   5.749   7.095  2.9257  0.6907 -1.3185
  169SAPS  C31019186   4.646   5.843   6.922 -0.1232 -0.2863 -0.1500
  169SAPS  H10X19187   4.595   5.747   6.898  0.8278 -0.4982 -1.4616
  169SAPS  H10Y19188   4.736   5.854   6.857 -0.7050  1.3340 -0.7267
  169SAPS  C31119189   4.559   5.954   6.855 -0.3777  0.3206 -0.7739
  169SAPS  H11X19190   4.611   6.050   6.880  0.5014 -0.8719  2.5442
  169SAPS  H11Y19191   4.460   5.961   6.904 -1.2554  1.8380 -2.6204
  169SAPS  C31219192   4.555   5.945   6.707  0.3762  1.1280  0.0081
  169SAPS  H12X19193   4.479   5.872   6.673  0.1393  1.3609  0.0372
  169SAPS  H12Y19194   4.648   5.904   6.661  1.2208  0.0419  2.4631
  169SAPS  C31319195   4.518   6.072   6.631 -0.9775  0.2826 -0.8160
  169SAPS  H13X19196   4.589   6.157   6.642 -1.0529  0.1100  1.4261
  169SAPS  H13Y19197   4.417   6.102   6.668 -1.1615 -2.2491  0.9640
  169SAPS  C31419198   4.505   6.061   6.479 -0.0069  0.5009  0.0680
  169SAPS  H14X19199   4.421   5.996   6.448 -2.1604  3.5178 -0.8352
  169SAPS  H14Y19200   4.605   6.039   6.436  0.6870 -1.5038  2.4059
  169SAPS  C31519201   4.476   6.195   6.411 -0.7808 -0.2582 -0.2262
  169SAPS  H15X19202   4.545   6.274   6.447  2.7467 -1.7355 -3.0851
  169SAPS  H15Y19203   4.374   6.226   6.444 -0.5224 -0.7987  1.1384
  169SAPS  C31619204   4.487   6.183   6.252  0.5581  0.6877 -0.3596
  169SAPS  H16X19205   4.427   6.094   6.226 -0.9854  0.5273  3.1412
  169SAPS  H16Y19206   4.595   6.170   6.231  0.9244 -2.1622  2.4805
  169SAPS  C31719207   4.440   6.303   6.178  0.3868  0.1011  0.2809
  169SAPS  H17X19208   4.513   6.382   6.206 -0.3173  2.0430 -2.7831
  169SAPS  H17Y19209   4.339   6.338   6.206 -0.8642 -0.9951 -2.4695
  169SAPS  C31819210   4.454   6.294   6.029  0.6328  0.7784  0.7691
  169SAPS  H18X19211   4.559   6.301   5.995 -0.1066  0.5212 -1.7580
  169SAPS  H18Y19212   4.394   6.359   5.962 -1.9723  0.1246  2.3454
  169SAPS  H18Z19213   4.422   6.193   5.995  2.6929  0.3976 -0.2124
  170SAPS     N19214   1.474   5.237   8.523 -0.5084  0.1363  0.1914
  170SAPS   HN119215   1.540   5.314   8.503 -0.3403 -0.3245 -1.1520
  170SAPS   HN219216   1.446   5.197   8.431  1.2074  0.5857 -0.5567
  170SAPS   HN319217   1.389   5.273   8.572 -1.3036 -0.5502 -0.6448
  170SAPS   C1219218   1.543   5.130   8.603  0.3085 -0.1364 -1.1747
  170SAPS  H12A19219   1.550   5.169   8.703  1.4179 -0.4390 -1.1225
  170SAPS   C1319220   1.470   4.993   8.615  0.1385  1.1159 -0.6538
  170SAPS  O13A19221   1.357   4.977   8.560 -0.3053 -0.1708 -0.5594
  170SAPS  O13B19222   1.519   4.905   8.689  0.3931 -0.0515  0.1064
  170SAPS   C1119223   1.695   5.119   8.559 -0.4335  0.5765  0.4895
  170SAPS  H11A19224   1.751   5.059   8.634 -0.5867 -3.0810 -2.0365
  170SAPS  H11B19225   1.740   5.220   8.562  1.8508 -0.3969  1.2266
  170SAPS     P19226   1.764   5.125   8.302 -0.0462  0.5818  0.1330
  170SAPS   O1319227   1.679   5.244   8.296  0.1245  0.0604 -0.5273
  170SAPS   O1419228   1.905   5.150   8.330 -0.1194 -0.1151 -0.9247
  170SAPS   O1219229   1.705   5.047   8.430 -0.1033 -0.1782 -0.1069
  170SAPS   O1119230   1.751   5.031   8.176  1.2622  0.2582  0.6644
  170SAPS    C119231   1.644   4.938   8.156  0.0917  0.2201 -0.1446
  170SAPS    HA19232   1.678   4.834   8.174 -3.7108 -0.9003  1.6585
  170SAPS    HB19233   1.564   4.956   8.231  1.6332 -1.7061  2.1147
  170SAPS    C219234   1.591   4.951   8.012 -0.0162  0.2169 -0.1266
  170SAPS    HS19235   1.497   4.892   8.009  0.1220  0.0402 -1.0823
  170SAPS   O2119236   1.705   4.894   7.940  0.5176  0.6934  0.5122
  170SAPS   C2119237   1.678   4.851   7.826  0.2801 -0.1441  0.5765
  170SAPS   O2219238   1.566   4.831   7.777  0.0122  0.0111 -0.6553
  170SAPS   C2219239   1.809   4.827   7.745  0.9231 -0.1662  0.0112
  170SAPS   H2R19240   1.890   4.893   7.782  1.9189 -1.2567 -0.1514
  170SAPS   H2S19241   1.835   4.725   7.781 -1.3607 -0.3173  1.4367
  170SAPS    C319242   1.546   5.096   7.976  0.5321 -0.6149 -0.4504
  170SAPS    HX19243   1.617   5.171   8.017 -1.3076  1.7292 -1.3225
  170SAPS    HY19244   1.456   5.123   8.033 -0.9621 -3.1784 -1.4060
  170SAPS   O3119245   1.534   5.122   7.839 -0.6033  0.7926  0.3458
  170SAPS   C3119246   1.410   5.135   7.789  0.9667 -0.4756  0.1706
  170SAPS   O3219247   1.305   5.149   7.854 -0.1007  0.5906 -0.7755
  170SAPS   C3219248   1.404   5.148   7.637 -0.0161  0.5565 -0.0700
  170SAPS   H2X19249   1.507   5.145   7.595  0.4839  3.9975  0.6638
  170SAPS   H2Y19250   1.363   5.249   7.616 -2.5436 -0.2398  0.6470
  170SAPS   C2319251   1.803   4.854   7.595  0.2800  0.2028  0.5663
  170SAPS   H3R19252   1.900   4.838   7.544 -0.2924 -0.6403 -0.2945
  170SAPS   H3S19253   1.791   4.964   7.583 -0.4344  0.1535  0.7447
  170SAPS   C2419254   1.686   4.786   7.512 -0.6752 -0.0949  0.3534
  170SAPS   H4R19255   1.696   4.829   7.409 -1.1443 -1.1622 -0.1519
  170SAPS   H4S19256   1.594   4.839   7.544  0.0477  0.4758  1.5707
  170SAPS   C2519257   1.676   4.643   7.501  0.6088  0.2701 -0.2823
  170SAPS   H5R19258   1.677   4.593   7.599 -0.4929  0.3629 -0.2127
  170SAPS   C2619259   1.678   4.563   7.398  0.4672  0.1773 -0.2492
  170SAPS   H6R19260   1.664   4.455   7.415 -1.2180  0.3746 -0.2426
  170SAPS   C2719261   1.674   4.614   7.254  0.3844  0.3785  0.2686
  170SAPS   H7R19262   1.615   4.708   7.248  1.1215  0.7513 -2.6336
  170SAPS   H7S19263   1.624   4.545   7.183 -0.2056  1.0800 -0.0048
  170SAPS   C2819264   1.820   4.634   7.213  0.5898  0.3329 -0.0805
  170SAPS   H8R19265   1.880   4.698   7.280  1.4792 -1.3695  0.8208
  170SAPS   C2919266   1.889   4.551   7.134  0.8803  0.0634 -1.0193
  170SAPS   H9R19267   1.999   4.564   7.132  1.2839 -2.7978 -2.3630
  170SAPS  C21019268   1.849   4.453   7.029 -0.0747 -0.3617  0.0531
  170SAPS  H10R19269   1.764   4.488   6.966  1.1296 -1.3730 -2.2437
  170SAPS  H10S19270   1.818   4.355   7.073 -0.0598 -0.1500  0.5348
  170SAPS  C21119271   1.961   4.448   6.926 -0.2140 -0.2975  0.4790
  170SAPS  H11R19272   1.973   4.539   6.866 -3.1946  0.3408  0.7092
  170SAPS  C21219273   2.045   4.343   6.913 -0.3273 -0.4002  0.2943
  170SAPS  H12R19274   2.122   4.339   6.834 -0.0419 -0.6198  0.5826
  170SAPS  C21319275   2.025   4.212   6.985  0.7010  0.3594 -0.1064
  170SAPS  H13R19276   1.941   4.163   6.931  1.0905  1.9139 -2.2768
  170SAPS  H13S19277   1.985   4.236   7.086  0.5408  3.8287 -0.8658
  170SAPS  C21419278   2.152   4.124   6.977  0.3184  0.0474 -0.0236
  170SAPS  H14R19279   2.215   4.109   7.066 -1.6456  0.7829  1.5707
  170SAPS  C21519280   2.202   4.068   6.864  0.1280  0.1708 -0.2550
  170SAPS  H15R19281   2.300   4.019   6.874  0.0321  0.2627  1.4087
  170SAPS  C21619282   2.136   4.050   6.731  0.1004 -0.1910  0.6786
  170SAPS  H16R19283   2.210   4.065   6.649  0.7785 -3.2903  0.5979
  170SAPS  H16S19284   2.057   4.128   6.726 -0.7975 -0.9583  2.1577
  170SAPS  C21719285   2.061   3.916   6.706  0.0181  0.0960 -0.4647
  170SAPS  H17R19286   2.013   3.901   6.804  1.2958  0.3103  0.2174
  170SAPS  H17S19287   2.139   3.837   6.699 -0.3611 -0.2562 -0.7633
  170SAPS  C21819288   1.967   3.915   6.584 -0.2810  0.2284 -0.0315
  170SAPS  H18R19289   1.897   3.829   6.591  0.0334 -0.0099  0.2626
  170SAPS  H18S19290   2.030   3.925   6.494 -0.6288  0.9293 -0.2023
  170SAPS  C21919291   1.862   4.034   6.589  0.2300 -0.4143  0.8535
  170SAPS  H19R19292   1.908   4.135   6.586 -0.1365 -0.2402 -1.6172
  170SAPS  H19S19293   1.805   4.021   6.683 -1.6748 -0.5065 -0.2647
  170SAPS  C22019294   1.756   4.024   6.476 -0.8906 -0.2790 -0.3341
  170SAPS  H20R19295   1.681   4.105   6.480 -1.9843 -1.2763  0.0512
  170SAPS  H20S19296   1.710   3.924   6.493 -0.9306 -0.1936  0.0830
  170SAPS  H20T19297   1.802   4.026   6.375 -1.4539  0.4877 -0.5794
  170SAPS   C3319298   1.329   5.032   7.567 -0.6825  0.2232 -0.4604
  170SAPS   H3X19299   1.222   5.039   7.595 -0.5062 -0.1045  0.3113
  170SAPS   H3Y19300   1.371   4.936   7.605 -1.4414 -0.4489 -1.2748
  170SAPS   C3419301   1.347   5.030   7.410 -0.9422 -0.3831 -1.0815
  170SAPS   H4X19302   1.442   5.083   7.388 -0.3668 -0.8761  0.1219
  170SAPS   H4Y19303   1.270   5.098   7.367  0.7493  1.5430 -1.2457
  170SAPS   C3519304   1.346   4.890   7.347 -0.6734 -0.6561 -0.5240
  170SAPS   H5X19305   1.248   4.839   7.359 -0.8048 -0.3565 -0.3262
  170SAPS   H5Y19306   1.429   4.829   7.390 -1.6533 -2.2714 -0.8319
  170SAPS   C3619307   1.368   4.887   7.194 -0.2673  0.5653 -0.0551
  170SAPS   H6X19308   1.459   4.937   7.154 -1.5285 -0.2946 -4.5756
  170SAPS   H6Y19309   1.287   4.954   7.158  1.1497  1.4513 -1.7473
  170SAPS   C3719310   1.348   4.745   7.136 -0.8094  0.0373 -0.1014
  170SAPS   H7X19311   1.270   4.696   7.199 -3.1551  2.9430 -0.4934
  170SAPS   H7Y19312   1.437   4.680   7.147 -1.6526 -0.7056  3.4974
  170SAPS   C3819313   1.323   4.753   6.986  0.0885  0.0280 -0.3137
  170SAPS   H8X19314   1.407   4.802   6.932 -0.0687 -1.0198 -1.5504
  170SAPS   H8Y19315   1.240   4.820   6.955  1.3552  0.5190 -2.8852
  170SAPS   C3919316   1.304   4.611   6.927 -0.2559 -0.5824 -0.5367
  170SAPS   H9X19317   1.211   4.577   6.979 -0.4089 -1.1567 -1.1840
  170SAPS   H9Y19318   1.371   4.532   6.966 -0.2883 -1.8541 -2.8918
  170SAPS  C31019319   1.323   4.607   6.785 -0.0390  0.2562  0.3024
  170SAPS  H10X19320   1.335   4.500   6.757 -1.7047 -0.5384  2.4190
  170SAPS  H10Y19321   1.412   4.663   6.747  0.7451 -2.8205 -3.0157
  170SAPS  C31119322   1.204   4.669   6.706  0.2508  0.8381 -0.1230
  170SAPS  H11X19323   1.182   4.767   6.753 -1.1081 -0.5717  2.3354
  170SAPS  H11Y19324   1.121   4.600   6.731 -0.1633  2.1086  2.2535
  170SAPS  C31219325   1.221   4.690   6.559  0.3528  0.2722  0.6516
  170SAPS  H12X19326   1.299   4.767   6.538  1.1395 -0.2586  1.5182
  170SAPS  H12Y19327   1.130   4.735   6.514  0.8150  0.0343 -0.5370
  170SAPS  C31319328   1.243   4.560   6.481  0.9375  0.3248 -0.5658
  170SAPS  H13X19329   1.153   4.495   6.477 -2.3009  3.8307  4.0154
  170SAPS  H13Y19330   1.309   4.502   6.549  1.4125  0.5745 -0.8093
  170SAPS  C31419331   1.308   4.573   6.344  0.3171  0.4605 -0.3574
  170SAPS  H14X19332   1.390   4.648   6.347  0.1988  0.8013 -3.1922
  170SAPS  H14Y19333   1.237   4.615   6.270  0.3538 -0.0289 -0.6786
  170SAPS  C31519334   1.346   4.433   6.294  0.4288 -0.5063 -0.0852
  170SAPS  H15X19335   1.256   4.369   6.291 -0.1492  0.3145 -0.6040
  170SAPS  H15Y19336   1.418   4.389   6.367 -0.3160 -2.2798 -0.3669
  170SAPS  C31619337   1.406   4.437   6.158  0.2615 -0.0879 -0.1022
  170SAPS  H16X19338   1.471   4.527   6.148 -1.5938  1.0906 -2.5096
  170SAPS  H16Y19339   1.329   4.459   6.082  0.7274  6.4524  0.7605
  170SAPS  C31719340   1.478   4.311   6.129  0.0975 -0.0058  0.5088
  170SAPS  H17X19341   1.583   4.301   6.163  0.5509  0.2070 -0.8005
  170SAPS  H17Y19342   1.487   4.315   6.019 -0.5983  1.6197  0.4904
  170SAPS  C31819343   1.393   4.191   6.154  0.2752  0.4885 -0.4007
  170SAPS  H18X19344   1.388   4.166   6.262  0.5610  1.5089 -0.1357
  170SAPS  H18Y19345   1.437   4.097   6.114  1.1378  0.8587 -0.3619
  170SAPS  H18Z19346   1.291   4.206   6.112 -0.1772  2.0963  1.1454
  171SAPS     N19347   2.626   5.586   8.340  0.1434 -0.7098 -0.0322
  171SAPS   HN119348   2.605   5.668   8.279  0.7699 -0.5869 -0.0900
  171SAPS   HN219349   2.539   5.533   8.360 -0.2330  0.7333  2.6013
  171SAPS   HN319350   2.654   5.629   8.431  1.5287  1.2958 -1.3219
  171SAPS   C1219351   2.735   5.501   8.291  0.1767 -0.9574  0.6720
  171SAPS  H12A19352   2.766   5.431   8.367  0.1184 -1.1144  0.5499
  171SAPS   C1319353   2.712   5.420   8.159  0.8301 -0.4401  0.4552
  171SAPS  O13A19354   2.602   5.430   8.096 -0.2931  0.6573 -0.2384
  171SAPS  O13B19355   2.805   5.353   8.114  0.2854 -0.0783  0.0580
  171SAPS   C1119356   2.860   5.581   8.257 -0.0542  0.4328 -1.3187
  171SAPS  H11A19357   2.852   5.630   8.157  3.8450  1.1651 -1.4666
  171SAPS  H11B19358   2.942   5.507   8.243 -0.7561 -0.6936  0.3130
  171SAPS     P19359   3.035   5.671   8.425 -0.4989 -0.0289 -0.1503
  171SAPS   O1319360   3.067   5.805   8.483  0.4305  0.4807  0.1709
  171SAPS   O1419361   3.035   5.548   8.513 -0.0204 -0.5892 -0.1567
  171SAPS   O1219362   2.894   5.675   8.362  0.1456  0.2248 -0.3069
  171SAPS   O1119363   3.130   5.650   8.300 -0.2419 -0.2693 -0.8106
  171SAPS    C119364   3.228   5.751   8.261  0.1409 -0.2953 -0.0251
  171SAPS    HA19365   3.287   5.803   8.340  1.8562 -0.3697 -1.1983
  171SAPS    HB19366   3.314   5.710   8.203 -0.3550 -0.2844 -0.7827
  171SAPS    C219367   3.163   5.855   8.161 -0.3047 -0.1016 -0.8377
  171SAPS    HS19368   3.075   5.907   8.204 -0.3156  0.3878 -1.4289
  171SAPS   O2119369   3.112   5.783   8.043 -0.0457 -0.5267  0.1682
  171SAPS   C2119370   3.023   5.852   7.961  0.0092  0.3418  0.0754
  171SAPS   O2219371   2.985   5.968   7.980 -0.6914 -0.4769  0.2478
  171SAPS   C2219372   2.974   5.763   7.852  0.2365  0.3455  0.6073
  171SAPS   H2R19373   3.052   5.688   7.826  1.8285  2.0598  0.1882
  171SAPS   H2S19374   2.898   5.701   7.904  0.7245  0.1292  1.0728
  171SAPS    C319375   3.268   5.961   8.128 -0.5241  0.1066  0.0336
  171SAPS    HX19376   3.296   6.012   8.223 -0.3759 -1.1276  0.6666
  171SAPS    HY19377   3.231   6.051   8.073 -1.8578 -0.7080 -0.4376
  171SAPS   O3119378   3.386   5.896   8.062  0.1150  0.1653 -0.0023
  171SAPS   C3119379   3.373   5.872   7.928 -0.5091  0.1407  0.1379
  171SAPS   O3219380   3.304   5.924   7.852 -0.5401  0.2286  0.5304
  171SAPS   C3219381   3.471   5.753   7.889  0.1932 -0.3886 -0.6770
  171SAPS   H2X19382   3.445   5.666   7.953 -1.1133 -0.0991 -0.7957
  171SAPS   H2Y19383   3.574   5.791   7.908 -0.2882  1.0796 -0.8973
  171SAPS   C2319384   2.927   5.822   7.720  0.0243  0.2637 -0.9056
  171SAPS   H3R19385   3.017   5.869   7.676  0.6694  0.6111  0.7221
  171SAPS   H3S19386   2.844   5.895   7.731 -1.4409 -1.6188  1.8876
  171SAPS   C2419387   2.894   5.707   7.619  0.5135  0.3078  0.9033
  171SAPS   H4R19388   2.969   5.627   7.630 -0.1169 -0.0493  3.0404
  171SAPS   H4S19389   2.898   5.753   7.518 -2.9182  0.1676  0.5852
  171SAPS   C2519390   2.751   5.659   7.639 -0.3261 -0.0132  0.1520
  171SAPS   H5R19391   2.714   5.658   7.742 -0.6886 -1.5063  0.0378
  171SAPS   C2619392   2.662   5.635   7.541 -0.0740  0.1702 -0.4751
  171SAPS   H6R19393   2.559   5.614   7.571  0.2435 -1.0683 -0.1977
  171SAPS   C2719394   2.683   5.639   7.392 -0.1092 -0.4163  0.6352
  171SAPS   H7R19395   2.790   5.659   7.369  0.0124 -0.3834  1.2221
  171SAPS   H7S19396   2.625   5.723   7.349  1.2282 -0.0695 -0.5686
  171SAPS   C2819397   2.633   5.507   7.326  0.6192  0.3018  0.0281
  171SAPS   H8R19398   2.621   5.424   7.397 -3.1460  0.6681  0.0106
  171SAPS   C2919399   2.610   5.485   7.198  0.4552  0.0808  0.3819
  171SAPS   H9R19400   2.583   5.382   7.168  0.6234  0.5969 -1.6561
  171SAPS  C21019401   2.623   5.587   7.088  0.3574  0.5649  0.1421
  171SAPS  H10R19402   2.654   5.688   7.122 -1.6466  1.6575 -1.0562
  171SAPS  H10S19403   2.521   5.594   7.043  0.3147  1.3522  0.3465
  171SAPS  C21119404   2.731   5.541   6.996  0.4680  0.9054  0.0244
  171SAPS  H11R19405   2.824   5.508   7.044  0.0069 -0.1924  0.2072
  171SAPS  C21219406   2.724   5.541   6.859 -0.9251 -0.5178 -0.3908
  171SAPS  H12R19407   2.810   5.495   6.808 -0.1568 -0.7578  1.0715
  171SAPS  C21319408   2.611   5.578   6.772 -0.5446 -0.1955  0.1203
  171SAPS  H13R19409   2.663   5.635   6.692 -1.7383  0.9488  0.1071
  171SAPS  H13S19410   2.537   5.653   6.808 -0.8233  0.5298 -1.8282
  171SAPS  C21419411   2.532   5.453   6.736 -0.0244 -0.0566  0.3179
  171SAPS  H14R19412   2.489   5.396   6.819 -1.9235  0.4726 -0.2513
  171SAPS  C21519413   2.501   5.414   6.613 -0.2801 -0.0538  0.1128
  171SAPS  H15R19414   2.432   5.329   6.602 -0.0852 -0.4574  1.6939
  171SAPS  C21619415   2.532   5.481   6.482 -0.7032  0.3950 -0.6027
  171SAPS  H16R19416   2.532   5.411   6.396 -1.4521 -2.5610  1.6441
  171SAPS  H16S19417   2.639   5.509   6.490  0.2236 -2.6006 -1.2201
  171SAPS  C21719418   2.444   5.601   6.447 -0.4956  0.2163 -0.8815
  171SAPS  H17R19419   2.509   5.644   6.368 -0.6030  1.6429 -0.2169
  171SAPS  H17S19420   2.426   5.669   6.534 -1.0908  1.1795 -1.7302
  171SAPS  C21819421   2.296   5.579   6.400 -0.2228  0.6395  0.3687
  171SAPS  H18R19422   2.235   5.568   6.492  0.0154  1.9797  0.7127
  171SAPS  H18S19423   2.309   5.482   6.347 -0.2836  1.4709 -1.2355
  171SAPS  C21919424   2.234   5.684   6.311 -0.2879 -0.7740  0.7258
  171SAPS  H19R19425   2.147   5.636   6.262  0.1971 -0.5187 -0.4026
  171SAPS  H19S19426   2.305   5.700   6.228 -1.0976  0.5279  0.2628
  171SAPS  C22019427   2.196   5.813   6.380  0.0076 -0.0056 -0.9423
  171SAPS  H20R19428   2.124   5.882   6.330 -0.1432  1.5284  1.2317
  171SAPS  H20S19429   2.284   5.869   6.418 -0.5334 -0.4229  1.0776
  171SAPS  H20T19430   2.140   5.787   6.473  1.1247  0.2189 -0.1841
  171SAPS   C3319431   3.462   5.715   7.746  0.3879 -0.5823  0.1062
  171SAPS   H3X19432   3.549   5.653   7.715  0.5479  0.1670 -1.0141
  171SAPS   H3Y19433   3.455   5.802   7.678 -3.4482 -2.0768 -1.7300
  171SAPS   C3419434   3.330   5.640   7.725  0.3291 -0.6875  0.3535
  171SAPS   H4X19435   3.248   5.706   7.759  0.4083  1.1573 -2.6309
  171SAPS   H4Y19436   3.335   5.542   7.777 -0.0371 -0.4917  0.7535
  171SAPS   C3519437   3.296   5.598   7.577 -0.1357  0.1481 -0.3501
  171SAPS   H5X19438   3.217   5.520   7.584  0.8378 -0.7653  0.9112
  171SAPS   H5Y19439   3.382   5.555   7.523 -0.6271 -0.5529 -0.5980
  171SAPS   C3619440   3.251   5.718   7.490  0.2964 -0.4015 -0.7027
  171SAPS   H6X19441   3.330   5.794   7.471  0.8403 -1.2441 -1.9496
  171SAPS   H6Y19442   3.161   5.765   7.537  2.0986  0.5613  2.0392
  171SAPS   C3719443   3.200   5.669   7.357  0.4238 -0.6769  0.3026
  171SAPS   H7X19444   3.151   5.571   7.376 -0.6159 -0.0349  1.0706
  171SAPS   H7Y19445   3.291   5.654   7.295 -1.1447 -1.2778 -2.0242
  171SAPS   C3819446   3.100   5.759   7.291  0.1974 -0.7538 -0.4445
  171SAPS   H8X19447   3.146   5.860   7.286  0.7732 -1.0290 -0.7271
  171SAPS   H8Y19448   3.011   5.778   7.355 -0.0108 -0.8522 -0.7033
  171SAPS   C3919449   3.063   5.707   7.150  0.0835 -0.4380 -0.1004
  171SAPS   H9X19450   2.989   5.780   7.110 -0.3614 -1.4565 -1.1943
  171SAPS   H9Y19451   3.011   5.611   7.169  0.9436 -0.9486 -0.2815
  171SAPS  C31019452   3.170   5.684   7.047 -0.1116  0.2289  0.4817
  171SAPS  H10X19453   3.216   5.583   7.058  0.3126  0.2810 -0.7347
  171SAPS  H10Y19454   3.260   5.748   7.059  1.7456 -2.2592  0.7312
  171SAPS  C31119455   3.125   5.696   6.904 -0.1370  0.2393  0.7520
  171SAPS  H11X19456   3.080   5.795   6.881 -0.6539  0.4599  2.5185
  171SAPS  H11Y19457   3.053   5.615   6.883  2.0646 -1.6583  0.1090
  171SAPS  C31219458   3.238   5.674   6.798 -1.0830 -0.5826  0.2984
  171SAPS  H12X19459   3.238   5.571   6.757  0.7970 -0.7356  0.5704
  171SAPS  H12Y19460   3.334   5.686   6.852 -0.8191  1.8501 -0.5884
  171SAPS  C31319461   3.240   5.770   6.678  0.8797  0.4977  0.5907
  171SAPS  H13X19462   3.328   5.750   6.614  0.8517  0.1473  0.6575
  171SAPS  H13Y19463   3.257   5.873   6.717 -1.5646  1.1826  0.0428
  171SAPS  C31419464   3.104   5.766   6.600  0.0787 -0.0541  0.1837
  171SAPS  H14X19465   3.034   5.847   6.630  0.0362  0.7242 -1.8604
  171SAPS  H14Y19466   3.058   5.672   6.640 -0.0162 -0.5116 -0.9734
  171SAPS  C31519467   3.121   5.775   6.453  0.3661 -0.1961  0.0282
  171SAPS  H15X19468   3.179   5.686   6.421  2.7327  1.4023 -0.3843
  171SAPS  H15Y19469   3.168   5.874   6.437 -0.9530 -0.0034 -3.7204
  171SAPS  C31619470   3.000   5.768   6.363  0.2692  0.3467  0.3985
  171SAPS  H16X19471   3.032   5.779   6.258 -1.3473 -0.4035 -0.2024
  171SAPS  H16Y19472   2.940   5.862   6.365  1.9426  1.4502  0.6516
  171SAPS  C31719473   2.906   5.652   6.395  0.1639 -0.3884  0.5032
  171SAPS  H17X19474   2.821   5.661   6.325  1.4493  1.8791 -0.9038
  171SAPS  H17Y19475   2.869   5.666   6.499 -2.5873  1.7820 -0.6483
  171SAPS  C31819476   2.966   5.509   6.373  0.2262 -0.4685 -0.2707
  171SAPS  H18X19477   3.058   5.501   6.435  0.0059  0.2042  0.1543
  171SAPS  H18Y19478   2.997   5.492   6.268 -1.3179 -3.2202 -0.3933
  171SAPS  H18Z19479   2.904   5.419   6.394 -0.5636 -0.1184 -1.0651
  172SAPS     N19480   6.020   0.686   8.322 -0.7515  0.4543 -0.2285
  172SAPS   HN119481   6.048   0.769   8.379  1.1094  0.2882 -0.8557
  172SAPS   HN219482   5.943   0.720   8.260 -2.3839  0.7775  1.8494
  172SAPS   HN319483   5.974   0.611   8.378 -1.9612 -0.2349 -2.0754
  172SAPS   C1219484   6.135   0.631   8.242 -0.0039  0.4757  0.4541
  172SAPS  H12A19485   6.213   0.608   8.313  1.5147 -0.1234 -1.3360
  172SAPS   C1319486   6.103   0.495   8.171  0.0349  0.0803 -0.4461
  172SAPS  O13A19487   5.987   0.441   8.169 -0.1567  0.6241 -0.4795
  172SAPS  O13B19488   6.200   0.449   8.107  0.4701  0.3534  0.4021
  172SAPS   C1119489   6.179   0.727   8.131  0.2646  0.3986  0.9024
  172SAPS  H11A19490   6.089   0.750   8.070 -2.1441 -2.4399  3.0869
  172SAPS  H11B19491   6.252   0.682   8.061 -0.6476 -0.8722  0.7452
  172SAPS     P19492   6.184   0.991   8.187 -0.0272  0.1732  0.1166
  172SAPS   O1319493   6.048   1.000   8.242  0.4695 -0.1500 -0.1414
  172SAPS   O1419494   6.288   1.081   8.243 -0.5516 -0.2183  0.6378
  172SAPS   O1219495   6.242   0.842   8.194 -0.3667  0.0753 -0.2598
  172SAPS   O1119496   6.189   1.014   8.030  0.3311  0.1273 -0.2331
  172SAPS    C119497   6.086   1.098   7.971  0.4758  0.8566 -0.0329
  172SAPS    HA19498   6.046   1.170   8.045  1.4504  1.4972 -0.1217
  172SAPS    HB19499   6.138   1.149   7.887  1.5882 -1.9098 -1.1479
  172SAPS    C219500   5.970   1.016   7.897 -0.1911 -0.5375  0.1216
  172SAPS    HS19501   5.906   0.964   7.972  1.5005 -0.3042  1.7859
  172SAPS   O2119502   6.035   0.926   7.810  0.3411 -0.3247 -0.0213
  172SAPS   C2119503   5.964   0.811   7.781  0.1660  0.0479  0.8017
  172SAPS   O2219504   5.856   0.779   7.827 -0.1052 -1.1375  0.3194
  172SAPS   C2219505   6.034   0.728   7.668  0.0887 -0.7335 -0.3461
  172SAPS   H2R19506   6.021   0.781   7.571  1.7079  0.1371 -0.1350
  172SAPS   H2S19507   6.143   0.728   7.693  0.2362 -2.2878 -0.8925
  172SAPS    C319508   5.887   1.116   7.810 -0.0357 -0.3203 -0.4460
  172SAPS    HX19509   5.956   1.163   7.737  0.8028  1.4264  1.3674
  172SAPS    HY19510   5.860   1.198   7.880  4.0615  1.2885 -0.4934
  172SAPS   O3119511   5.774   1.059   7.737 -0.1343 -0.1947  0.0702
  172SAPS   C3119512   5.672   1.016   7.807  0.1544  0.2871 -0.1789
  172SAPS   O3219513   5.654   1.033   7.926  1.0320 -0.3317  0.1282
  172SAPS   C3219514   5.569   0.950   7.709 -0.0221  0.1680 -0.1389
  172SAPS   H2X19515   5.508   1.031   7.664 -3.0236 -0.6659  2.1448
  172SAPS   H2Y19516   5.492   0.896   7.768  1.5218  0.8047  2.6711
  172SAPS   C2319517   5.998   0.573   7.677  0.4168  0.8203 -0.1277
  172SAPS   H3R19518   5.900   0.552   7.630  0.6496  1.0143 -0.7028
  172SAPS   H3S19519   6.001   0.539   7.783  2.4700 -1.0280 -0.7097
  172SAPS   C2419520   6.110   0.490   7.608 -0.0404  0.0985 -0.7355
  172SAPS   H4R19521   6.209   0.510   7.654  1.3814 -1.4737 -2.9547
  172SAPS   H4S19522   6.126   0.519   7.502  1.7738  0.2267 -0.4512
  172SAPS   C2519523   6.087   0.342   7.603  0.0761  1.0044  0.4026
  172SAPS   H5R19524   6.087   0.307   7.708 -1.3606  2.0278  0.7715
  172SAPS   C2619525   6.052   0.260   7.495 -0.0633 -0.1488  0.0473
  172SAPS   H6R19526   6.020   0.157   7.515  2.4644 -0.9146  0.6128
  172SAPS   C2719527   6.040   0.318   7.354  0.3475  0.5489 -0.0620
  172SAPS   H7R19528   6.072   0.248   7.274 -0.0102  0.0153  0.2516
  172SAPS   H7S19529   6.107   0.404   7.339 -0.9684  1.3122 -1.9331
  172SAPS   C2819530   5.896   0.356   7.327  0.5288 -0.2984  0.2818
  172SAPS   H8R19531   5.834   0.402   7.406 -0.0886  2.0002 -1.4302
  172SAPS   C2919532   5.831   0.340   7.209 -0.2207 -1.1783  0.4290
  172SAPS   H9R19533   5.728   0.373   7.191  0.4755  0.2455 -1.2433
  172SAPS  C21019534   5.894   0.267   7.097 -0.1876  0.4154 -0.3580
  172SAPS  H10R19535   5.817   0.227   7.028 -1.5915  0.9466  0.8747
  172SAPS  H10S19536   5.951   0.177   7.130 -0.1865  1.6684  3.5642
  172SAPS  C21119537   5.984   0.359   7.026  0.1445 -0.1243  0.0253
  172SAPS  H11R19538   5.951   0.464   7.027  0.9752  0.1437  0.3252
  172SAPS  C21219539   6.104   0.336   6.971 -1.0271 -0.2078 -0.7512
  172SAPS  H12R19540   6.151   0.412   6.907 -1.1165 -0.6110 -1.3068
  172SAPS  C21319541   6.186   0.205   6.971  0.4180 -1.1390  0.0787
  172SAPS  H13R19542   6.213   0.190   7.078  0.0640 -0.0138  0.3373
  172SAPS  H13S19543   6.281   0.222   6.916 -0.3594  2.0836 -0.4492
  172SAPS  C21419544   6.106   0.093   6.923  0.1118  0.9502  0.9868
  172SAPS  H14R19545   6.061   0.032   7.003 -0.9972  0.7404  0.2125
  172SAPS  C21519546   6.089   0.054   6.796 -1.2000 -0.4026  0.4031
  172SAPS  H15R19547   6.028  -0.034   6.773 -1.1000 -0.4090  0.1587
  172SAPS  C21619548   6.146   0.132   6.681  0.3105 -0.6321  0.1258
  172SAPS  H16R19549   6.157   0.237   6.715 -1.7315  0.4772 -2.3107
  172SAPS  H16S19550   6.074   0.142   6.597  2.0961 -0.5454 -1.4713
  172SAPS  C21719551   6.279   0.083   6.625  0.4018  0.4594 -0.3623
  172SAPS  H17R19552   6.257  -0.018   6.583  0.2615  0.7943 -1.0905
  172SAPS  H17S19553   6.346   0.065   6.712 -0.5513 -0.6972  0.1553
  172SAPS  C21819554   6.332   0.174   6.517 -0.5815  0.3936 -0.3406
  172SAPS  H18R19555   6.317   0.275   6.560  2.6383 -0.2703  2.7602
  172SAPS  H18S19556   6.261   0.162   6.431 -0.2521 -3.7496 -0.2367
  172SAPS  C21919557   6.483   0.153   6.487  0.0083  0.3507 -0.2030
  172SAPS  H19R19558   6.549   0.199   6.564 -0.0490  0.1367 -0.0261
  172SAPS  H19S19559   6.498   0.194   6.385  1.1833 -2.9918 -1.5171
  172SAPS  C22019560   6.519  -0.000   6.470  0.4830 -0.5661  0.1339
  172SAPS  H20R19561   6.604  -0.004   6.400 -1.2682 -0.3704 -2.1220
  172SAPS  H20S19562   6.445  -0.062   6.415 -0.0599  1.5801 -1.6887
  172SAPS  H20T19563   6.543  -0.040   6.571 -2.8902  0.4018  1.4954
  172SAPS   C3319564   5.627   0.856   7.603 -0.1955  0.0425  0.1214
  172SAPS   H3X19565   5.679   0.762   7.633  0.4534  0.3986  0.1339
  172SAPS   H3Y19566   5.704   0.917   7.550 -0.3487  1.2507  1.2282
  172SAPS   C3419567   5.515   0.815   7.510 -0.6377 -0.5818  0.1512
  172SAPS   H4X19568   5.471   0.910   7.473 -1.7225 -0.3482  1.9237
  172SAPS   H4Y19569   5.426   0.774   7.563 -0.6312 -0.6354  0.1212
  172SAPS   C3519570   5.553   0.711   7.400  0.5909  0.5575  0.4574
  172SAPS   H5X19571   5.463   0.720   7.336 -0.7985 -0.1727  2.2209
  172SAPS   H5Y19572   5.558   0.610   7.445  1.1826  0.2447 -0.2772
  172SAPS   C3619573   5.678   0.744   7.330  0.3760  0.6797 -0.5202
  172SAPS   H6X19574   5.762   0.717   7.398  1.3799 -0.5847 -2.1913
  172SAPS   H6Y19575   5.667   0.852   7.307 -1.8346  0.7694  0.6689
  172SAPS   C3719576   5.701   0.670   7.201 -0.3471 -0.9444 -0.2610
  172SAPS   H7X19577   5.692   0.559   7.211 -0.2741 -1.1030 -1.6892
  172SAPS   H7Y19578   5.805   0.696   7.172 -0.6045 -0.1000 -0.4469
  172SAPS   C3819579   5.608   0.717   7.087 -0.3639  0.2374 -0.1183
  172SAPS   H8X19580   5.625   0.827   7.081  3.0056 -0.1494  0.1319
  172SAPS   H8Y19581   5.500   0.695   7.103 -1.1183  1.9530 -2.3461
  172SAPS   C3919582   5.651   0.668   6.951 -0.0078  0.5481 -0.4361
  172SAPS   H9X19583   5.761   0.666   6.936 -0.0151 -1.2541 -0.4137
  172SAPS   H9Y19584   5.615   0.743   6.878 -0.1431  1.4676  0.5502
  172SAPS  C31019585   5.599   0.532   6.909  0.6201 -0.0653  0.4736
  172SAPS  H10X19586   5.488   0.531   6.894  0.7739 -0.9253 -0.8761
  172SAPS  H10Y19587   5.633   0.452   6.978  2.7807  0.5520  0.1923
  172SAPS  C31119588   5.657   0.478   6.778  0.2730 -0.0815  0.8828
  172SAPS  H11X19589   5.767   0.466   6.788  0.2958  0.3268  1.1683
  172SAPS  H11Y19590   5.634   0.557   6.703  1.8506  2.0301  2.5071
  172SAPS  C31219591   5.586   0.345   6.747 -0.1471  0.1294  0.2633
  172SAPS  H12X19592   5.482   0.356   6.709 -0.8664 -2.3433  1.2737
  172SAPS  H12Y19593   5.584   0.280   6.837 -1.8354 -0.9130 -0.4744
  172SAPS  C31319594   5.658   0.268   6.638  0.8369 -0.3411 -0.3544
  172SAPS  H13X19595   5.628   0.161   6.646  0.6000 -0.1471  2.4042
  172SAPS  H13Y19596   5.765   0.262   6.667  0.1326  0.0061  2.6215
  172SAPS  C31419597   5.624   0.330   6.498  0.7945  0.0020  0.6673
  172SAPS  H14X19598   5.674   0.429   6.494  1.6618 -0.4577 -2.7032
  172SAPS  H14Y19599   5.514   0.339   6.483  0.5754  2.6472  2.9425
  172SAPS  C31519600   5.664   0.238   6.386 -0.2066 -0.3331 -0.3784
  172SAPS  H15X19601   5.625   0.134   6.392 -0.2335 -0.4784 -2.5072
  172SAPS  H15Y19602   5.775   0.238   6.382 -0.1947  1.0328 -0.6770
  172SAPS  C31619603   5.621   0.292   6.253  1.1235  0.7067 -0.0841
  172SAPS  H16X19604   5.513   0.315   6.262  0.9258 -0.2577  0.1416
  172SAPS  H16Y19605   5.667   0.391   6.230 -0.7064  0.9246 -3.3537
  172SAPS  C31719606   5.654   0.196   6.133 -0.7785  0.7430 -1.1438
  172SAPS  H17X19607   5.612   0.100   6.169 -1.1138  2.1216  2.6149
  172SAPS  H17Y19608   5.763   0.181   6.116 -0.0551  1.6880  2.0228
  172SAPS  C31819609   5.595   0.230   5.998  0.3505 -0.7551  0.1766
  172SAPS  H18X19610   5.571   0.338   5.995  2.4883 -0.2145  0.6800
  172SAPS  H18Y19611   5.508   0.170   5.965 -0.0195 -0.4322  0.5618
  172SAPS  H18Z19612   5.666   0.207   5.915  0.3890 -1.9315  0.5151
  173SAPS     N19613   1.503   2.791   4.153 -0.2320 -0.8950 -0.2260
  173SAPS   HN119614   1.485   2.716   4.084  0.4921 -1.7256  0.4585
  173SAPS   HN219615   1.563   2.860   4.102 -2.2548  0.5705 -0.7576
  173SAPS   HN319616   1.563   2.748   4.226 -0.5601  1.0273  1.2588
  173SAPS   C1219617   1.381   2.858   4.201 -0.0437  0.5116 -0.4655
  173SAPS  H12A19618   1.400   2.918   4.289 -1.1195 -1.0291  0.8892
  173SAPS   C1319619   1.318   2.953   4.105  0.3107  0.4304 -0.5832
  173SAPS  O13A19620   1.362   2.950   3.987  0.2156  0.2201  0.4379
  173SAPS  O13B19621   1.205   2.996   4.127  0.3507  0.1663  0.1121
  173SAPS   C1119622   1.273   2.753   4.240  0.3209  0.4214  0.1439
  173SAPS  H11A19623   1.203   2.810   4.304 -0.2680 -0.4110  0.2521
  173SAPS  H11B19624   1.331   2.680   4.302  1.7335 -0.1014 -1.6702
  173SAPS     P19625   1.244   2.560   4.059  0.1443 -0.3218  0.1601
  173SAPS   O1319626   1.137   2.518   3.967 -0.2526  0.2451 -0.4233
  173SAPS   O1419627   1.380   2.580   4.000 -0.1538 -0.2485  0.1061
  173SAPS   O1219628   1.193   2.689   4.131 -0.3366  0.4806  0.0064
  173SAPS   O1119629   1.257   2.458   4.186  0.6609 -0.6255  0.0053
  173SAPS    C119630   1.142   2.423   4.258 -0.0932  0.5400  0.0153
  173SAPS    HA19631   1.094   2.513   4.303 -0.7319 -0.1959  0.8233
  173SAPS    HB19632   1.057   2.387   4.196  0.0763 -0.9533  0.6062
  173SAPS    C219633   1.162   2.310   4.360 -0.1532  0.2771 -0.4640
  173SAPS    HS19634   1.059   2.284   4.391 -0.9363  1.9338 -1.5450
  173SAPS   O2119635   1.243   2.351   4.471 -0.0259 -0.0125  0.5061
  173SAPS   C2119636   1.194   2.453   4.534  0.2777 -0.0352  0.7761
  173SAPS   O2219637   1.076   2.496   4.535  0.5786 -0.0984  0.0411
  173SAPS   C2219638   1.316   2.513   4.609  0.0594  0.2388 -0.5335
  173SAPS   H2R19639   1.395   2.520   4.532 -2.6470  3.3385 -3.3672
  173SAPS   H2S19640   1.278   2.612   4.641 -0.5630  0.8155 -2.8498
  173SAPS    C319641   1.219   2.179   4.292 -0.0380 -0.2723  0.1622
  173SAPS    HX19642   1.320   2.209   4.257 -0.6951  1.7614 -0.1125
  173SAPS    HY19643   1.158   2.169   4.199  0.7403  0.5804 -0.4534
  173SAPS   O3119644   1.209   2.070   4.383 -0.2429 -0.0876 -0.6307
  173SAPS   C3119645   1.101   2.002   4.382  0.7344 -0.2986 -0.2074
  173SAPS   O3219646   1.012   2.006   4.300 -0.2630  0.3555 -0.3297
  173SAPS   C3219647   1.103   1.899   4.497  0.0021  0.2931  0.4623
  173SAPS   H2X19648   1.195   1.840   4.483  0.2016  1.1080 -2.2018
  173SAPS   H2Y19649   1.011   1.836   4.496 -1.5308  2.3670 -1.8287
  173SAPS   C2319650   1.355   2.428   4.740  0.5500 -0.1892  0.3286
  173SAPS   H3R19651   1.464   2.446   4.752  0.3514  0.6959  0.9667
  173SAPS   H3S19652   1.324   2.322   4.727 -1.7015  0.3760  0.6192
  173SAPS   C2419653   1.279   2.471   4.872  0.5460  0.4244 -0.4218
  173SAPS   H4R19654   1.310   2.398   4.950  1.5340 -0.1220 -1.2932
  173SAPS   H4S19655   1.170   2.456   4.856  0.4616  1.0010 -0.3967
  173SAPS   C2519656   1.306   2.609   4.917  0.0542 -0.5808 -0.1511
  173SAPS   H5R19657   1.245   2.692   4.878  0.7860  1.7896  3.2393
  173SAPS   C2619658   1.402   2.649   5.002  1.0471  0.0227  0.9201
  173SAPS   H6R19659   1.411   2.756   5.025 -1.2623  0.8416 -1.4672
  173SAPS   C2719660   1.494   2.563   5.080  0.0476 -0.2850  0.4092
  173SAPS   H7R19661   1.593   2.612   5.086 -0.0022 -0.3796  3.8115
  173SAPS   H7S19662   1.513   2.464   5.034 -0.1671  0.4018 -1.2341
  173SAPS   C2819663   1.435   2.538   5.221 -0.5588  0.6074  0.2131
  173SAPS   H8R19664   1.347   2.471   5.221 -0.3330  0.1215 -2.9382
  173SAPS   C2919665   1.491   2.589   5.338  0.2433 -0.7829 -0.1270
  173SAPS   H9R19666   1.467   2.543   5.435  0.3541  0.6704  0.6221
  173SAPS  C21019667   1.608   2.694   5.337  0.3353 -0.0196  0.1092
  173SAPS  H10R19668   1.694   2.665   5.274  1.5478  1.0743  1.2127
  173SAPS  H10S19669   1.653   2.687   5.438  2.7668  2.6171 -0.6865
  173SAPS  C21119670   1.560   2.828   5.297 -0.1958 -0.0614  0.2449
  173SAPS  H11R19671   1.452   2.851   5.305 -0.6964 -2.1962  0.2845
  173SAPS  C21219672   1.644   2.925   5.248  0.1121  0.9104  0.4688
  173SAPS  H12R19673   1.598   3.024   5.229 -1.1812  1.0956  3.8717
  173SAPS  C21319674   1.792   2.910   5.231  0.3882  0.5214  0.4284
  173SAPS  H13R19675   1.826   2.809   5.199 -1.7965 -0.4435  1.0200
  173SAPS  H13S19676   1.852   2.934   5.321  2.7925 -0.4334 -0.8058
  173SAPS  C21419677   1.839   3.016   5.135 -0.5041  0.4967  0.1378
  173SAPS  H14R19678   1.888   3.101   5.185 -0.2563  0.0744  0.6294
  173SAPS  C21519679   1.825   3.010   4.999  0.0848  0.4317  0.4019
  173SAPS  H15R19680   1.867   3.095   4.942 -2.2368 -0.0688 -2.2257
  173SAPS  C21619681   1.758   2.899   4.921  0.0212  0.7361 -0.3032
  173SAPS  H16R19682   1.734   2.819   4.994  0.7111 -1.4757 -2.3726
  173SAPS  H16S19683   1.828   2.855   4.847  0.4604  1.6856 -0.4785
  173SAPS  C21719684   1.627   2.941   4.835  0.0599 -0.8520 -1.0036
  173SAPS  H17R19685   1.549   2.998   4.889  0.5129 -0.4915 -0.7195
  173SAPS  H17S19686   1.578   2.845   4.807 -0.9688 -1.2920  1.9568
  173SAPS  C21819687   1.657   3.007   4.708  0.0505 -0.1036  0.6260
  173SAPS  H18R19688   1.719   2.937   4.648  0.8173  2.5385 -1.9182
  173SAPS  H18S19689   1.711   3.104   4.723  1.2391 -0.7302  0.4971
  173SAPS  C21919690   1.535   3.043   4.625  0.2001 -0.6137 -0.3377
  173SAPS  H19R19691   1.571   3.087   4.530 -0.3608  1.7565  0.4464
  173SAPS  H19S19692   1.475   3.119   4.681  0.8330  1.0579 -1.8454
  173SAPS  C22019693   1.439   2.928   4.588 -0.2344 -0.2103 -0.3291
  173SAPS  H20R19694   1.358   2.965   4.522 -2.1274 -2.8631  0.3519
  173SAPS  H20S19695   1.389   2.880   4.675  2.0264 -1.1279  0.5458
  173SAPS  H20T19696   1.484   2.843   4.533 -2.4629 -2.8678  1.6506
  173SAPS   C3319697   1.111   1.970   4.637 -0.0582  0.3181 -0.3479
  173SAPS   H3X19698   1.021   2.035   4.651 -0.2469 -0.2319  1.1899
  173SAPS   H3Y19699   1.192   2.046   4.641 -2.5883  3.1587  0.9746
  173SAPS   C3419700   1.130   1.861   4.744 -0.1083 -0.1053  0.1477
  173SAPS   H4X19701   1.221   1.801   4.722  0.8841  1.6567 -0.8303
  173SAPS   H4Y19702   1.038   1.799   4.751 -0.3596  0.1585 -0.6784
  173SAPS   C3519703   1.147   1.920   4.884  0.0221  0.2543  0.1997
  173SAPS   H5X19704   1.081   2.000   4.925 -0.7277 -0.7218  0.9541
  173SAPS   H5Y19705   1.244   1.973   4.875  0.9559 -1.4171  0.0536
  173SAPS   C3619706   1.161   1.819   4.993  0.2858 -0.3030 -0.2966
  173SAPS   H6X19707   1.256   1.838   5.048  0.9824  3.6091 -2.4857
  173SAPS   H6Y19708   1.166   1.725   4.934 -1.5349  0.6267 -2.0634
  173SAPS   C3719709   1.031   1.804   5.078 -0.0453 -0.5505 -0.6675
  173SAPS   H7X19710   0.942   1.799   5.012 -0.1201  0.7530 -0.7038
  173SAPS   H7Y19711   1.022   1.902   5.131  0.5190 -1.2713  0.8069
  173SAPS   C3819712   1.038   1.689   5.175 -0.1640 -0.3580 -0.4231
  173SAPS   H8X19713   1.106   1.609   5.139 -0.2841 -0.4701 -0.4050
  173SAPS   H8Y19714   0.945   1.629   5.189  0.2723 -1.1279 -0.7531
  173SAPS   C3919715   1.092   1.732   5.318 -0.4828  0.0885 -0.2841
  173SAPS   H9X19716   1.015   1.795   5.366 -2.4468 -2.2345 -0.2118
  173SAPS   H9Y19717   1.196   1.772   5.310  0.0775 -0.8062  1.6836
  173SAPS  C31019718   1.097   1.615   5.421  0.4132  0.4570 -0.3275
  173SAPS  H10X19719   1.150   1.524   5.384 -1.0244 -0.7875  0.5654
  173SAPS  H10Y19720   0.992   1.589   5.445  0.2896  1.5749  0.4236
  173SAPS  C31119721   1.170   1.666   5.550 -0.0336  0.0452 -0.5870
  173SAPS  H11X19722   1.122   1.763   5.573  1.0242  0.1903  1.1134
  173SAPS  H11Y19723   1.279   1.678   5.533 -0.1206 -0.0679 -1.2894
  173SAPS  C31219724   1.162   1.574   5.666  0.2673  0.1000 -0.1482
  173SAPS  H12X19725   1.226   1.486   5.643  0.4259 -0.4504  2.1343
  173SAPS  H12Y19726   1.066   1.519   5.666  0.2955 -0.0082  1.5977
  173SAPS  C31319727   1.201   1.619   5.805  0.8138  0.7824 -0.4880
  173SAPS  H13X19728   1.172   1.546   5.883  0.6207  2.2574  0.8647
  173SAPS  H13Y19729   1.139   1.710   5.822 -0.5091 -0.5725  2.7099
  173SAPS  C31419730   1.352   1.652   5.816  0.0153 -0.4787 -0.3690
  173SAPS  H14X19731   1.388   1.700   5.723 -1.7108  4.5112  1.2050
  173SAPS  H14Y19732   1.397   1.552   5.836  0.3365  0.1686  2.7573
  173SAPS  C31519733   1.392   1.746   5.931 -0.5759 -0.2031 -0.1629
  173SAPS  H15X19734   1.360   1.699   6.027  1.0134  1.1045  1.0716
  173SAPS  H15Y19735   1.330   1.837   5.913  0.4720  0.6327  0.2997
  173SAPS  C31619736   1.536   1.776   5.935 -0.3333  0.2820 -0.3137
  173SAPS  H16X19737   1.575   1.798   5.833  2.2974 -0.4673  0.4519
  173SAPS  H16Y19738   1.590   1.696   5.990 -0.1518 -0.0692 -0.9891
  173SAPS  C31719739   1.557   1.909   6.015  0.5741  0.4685  0.1451
  173SAPS  H17X19740   1.519   1.892   6.118  1.6981 -3.4161  0.0981
  173SAPS  H17Y19741   1.496   1.987   5.965 -1.0100 -1.6068 -1.3430
  173SAPS  C31819742   1.699   1.957   6.026  0.5829  0.2491 -0.5270
  173SAPS  H18X19743   1.770   1.877   6.055  0.4718 -0.0344 -1.0340
  173SAPS  H18Y19744   1.706   2.033   6.107 -1.4484 -0.0401 -0.0006
  173SAPS  H18Z19745   1.730   2.012   5.935 -0.0783  1.2666 -0.1602
  174SAPS     N19746   6.283   6.539   3.925 -0.3406  0.1976  0.0878
  174SAPS   HN119747   6.383   6.565   3.917 -0.6780  2.6701  2.5013
  174SAPS   HN219748   6.236   6.608   3.987  0.4221  0.1265  0.7586
  174SAPS   HN319749   6.286   6.443   3.964 -1.9161 -0.5042 -1.3650
  174SAPS   C1219750   6.216   6.532   3.789 -0.9922 -0.0639  0.0162
  174SAPS  H12A19751   6.217   6.630   3.744 -0.4847  1.2607  2.7060
  174SAPS   C1319752   6.294   6.436   3.691 -0.3035 -0.1638  0.1147
  174SAPS  O13A19753   6.396   6.376   3.721 -0.7419 -0.4821 -0.8010
  174SAPS  O13B19754   6.247   6.425   3.573  0.3208  0.4441  0.5379
  174SAPS   C1119755   6.069   6.488   3.811 -0.0406  0.2282  0.0080
  174SAPS  H11A19756   6.025   6.481   3.709  0.5771  2.1431 -0.4420
  174SAPS  H11B19757   6.015   6.563   3.872 -1.5807 -1.7052  1.1216
  174SAPS     P19758   5.960   6.259   3.861  0.0511  0.0595 -0.2983
  174SAPS   O1319759   5.870   6.306   3.756  0.0791 -0.0780  0.8470
  174SAPS   O1419760   6.029   6.125   3.832  0.1932  0.2942 -0.7779
  174SAPS   O1219761   6.070   6.369   3.886  0.6042  0.9330  0.2895
  174SAPS   O1119762   5.884   6.251   4.003 -0.2841  0.2453 -0.3417
  174SAPS    C119763   5.939   6.180   4.114  0.2982 -0.1630  0.0357
  174SAPS    HA19764   5.876   6.091   4.135  0.5324 -0.5758 -0.9441
  174SAPS    HB19765   6.050   6.171   4.110  0.4292  1.5168 -1.7036
  174SAPS    C219766   5.928   6.275   4.237  0.0004 -0.4779  0.3818
  174SAPS    HS19767   5.974   6.225   4.324  2.6067  0.0316 -0.6034
  174SAPS   O2119768   5.787   6.305   4.256  0.3701  0.1203 -1.0084
  174SAPS   C2119769   5.744   6.304   4.384 -0.3391  0.6300  0.5230
  174SAPS   O2219770   5.803   6.259   4.480  0.1167 -0.3682  0.1907
  174SAPS   C2219771   5.604   6.365   4.399  0.0287  0.4258  0.3465
  174SAPS   H2R19772   5.576   6.390   4.294 -1.1026 -0.9174  0.3010
  174SAPS   H2S19773   5.531   6.283   4.415  0.2775 -0.0697 -0.9129
  174SAPS    C319774   6.009   6.404   4.223  0.2026  0.1290 -0.0333
  174SAPS    HX19775   5.978   6.478   4.147 -1.3012  2.3747  2.5796
  174SAPS    HY19776   6.112   6.368   4.201 -0.6702 -2.6128 -0.0700
  174SAPS   O3119777   6.011   6.479   4.349 -0.1933  0.0260 -0.0940
  174SAPS   C3119778   6.078   6.434   4.448  0.6526  0.2870  0.9011
  174SAPS   O3219779   6.140   6.328   4.451 -0.2135  0.3334  0.3575
  174SAPS   C3219780   6.072   6.530   4.564  0.6019 -0.3516 -0.4208
  174SAPS   H2X19781   6.112   6.476   4.653 -3.2065 -0.9491  1.1199
  174SAPS   H2Y19782   5.966   6.546   4.592  0.6782  1.3151 -0.9935
  174SAPS   C2319783   5.591   6.482   4.497 -0.1136  0.2605  0.8932
  174SAPS   H3R19784   5.501   6.538   4.465  2.1977  2.3550 -2.6119
  174SAPS   H3S19785   5.674   6.551   4.472  0.6001  0.3245  3.1902
  174SAPS   C2419786   5.593   6.445   4.643 -0.1662 -0.6329 -0.1815
  174SAPS   H4R19787   5.697   6.417   4.668 -0.2232 -0.4450  0.2782
  174SAPS   H4S19788   5.525   6.362   4.672  0.5818 -1.3855 -0.5461
  174SAPS   C2519789   5.553   6.572   4.709  0.1189  0.3696  0.4312
  174SAPS   H5R19790   5.455   6.610   4.676 -0.1150 -0.4353  0.1702
  174SAPS   C2619791   5.621   6.647   4.803  0.0754  0.2764  0.1961
  174SAPS   H6R19792   5.595   6.741   4.853  0.5222 -0.0295  1.0341
  174SAPS   C2719793   5.759   6.614   4.858 -0.0844 -0.2089 -0.0952
  174SAPS   H7R19794   5.802   6.715   4.875 -3.2917  1.8109 -2.7426
  174SAPS   H7S19795   5.821   6.565   4.779  0.1988 -2.8866  1.6665
  174SAPS   C2819796   5.764   6.527   4.981 -0.2979  0.2511  0.3389
  174SAPS   H8R19797   5.705   6.434   4.972  0.3329 -0.4547  2.6533
  174SAPS   C2919798   5.833   6.543   5.096 -0.1779  0.6655 -0.1421
  174SAPS   H9R19799   5.822   6.475   5.181 -1.4790  1.2596  0.1869
  174SAPS  C21019800   5.917   6.666   5.127  0.2258 -0.1836  0.0765
  174SAPS  H10R19801   5.863   6.722   5.207 -3.0255 -1.1200 -1.2927
  174SAPS  H10S19802   5.917   6.739   5.043 -0.8202  1.4593  1.4206
  174SAPS  C21119803   6.054   6.629   5.182 -0.1303 -0.5876  0.3616
  174SAPS  H11R19804   6.101   6.558   5.112  1.0696  0.8266 -0.3263
  174SAPS  C21219805   6.115   6.665   5.292  0.1542  0.0784 -0.6696
  174SAPS  H12R19806   6.211   6.621   5.319 -0.2714 -0.1930  0.4562
  174SAPS  C21319807   6.053   6.757   5.399  0.2581  0.3755 -0.1524
  174SAPS  H13R19808   5.943   6.768   5.394 -0.3477 -3.2692  1.5939
  174SAPS  H13S19809   6.107   6.854   5.396  1.9318 -0.4355  1.6495
  174SAPS  C21419810   6.068   6.689   5.539 -0.1134  0.4236 -0.1562
  174SAPS  H14R19811   6.013   6.595   5.554 -0.4691  0.8772  1.4980
  174SAPS  C21519812   6.133   6.748   5.637  0.6603  0.1516  0.2191
  174SAPS  H15R19813   6.150   6.686   5.726  0.5580  1.0558  0.8837
  174SAPS  C21619814   6.218   6.874   5.635  0.6211 -0.4464 -0.2011
  174SAPS  H16R19815   6.270   6.878   5.536 -0.2958  1.4557 -0.6369
  174SAPS  H16S19816   6.290   6.870   5.719  3.1371 -2.2963 -2.2523
  174SAPS  C21719817   6.134   7.001   5.649  0.8673 -0.1340  0.2539
  174SAPS  H17R19818   6.044   6.999   5.584 -0.4182  0.4116  1.9621
  174SAPS  H17S19819   6.202   7.078   5.606 -0.8319 -0.0418 -2.4878
  174SAPS  C21819820   6.096   7.035   5.793  0.3938 -0.2312  0.5437
  174SAPS  H18R19821   6.047   6.948   5.843  0.5996 -1.3618 -1.1354
  174SAPS  H18S19822   6.028   7.122   5.787 -0.4457 -0.6873  2.5880
  174SAPS  C21919823   6.215   7.079   5.875 -0.1343  0.1462  0.3791
  174SAPS  H19R19824   6.261   7.171   5.833 -1.4754  0.0532 -1.4243
  174SAPS  H19S19825   6.296   7.003   5.876 -1.0947 -0.9676 -1.3661
  174SAPS  C22019826   6.175   7.122   6.028  0.2411  0.4999 -0.2810
  174SAPS  H20R19827   6.254   7.145   6.103  0.4584 -2.5803  0.5854
  174SAPS  H20S19828   6.112   7.042   6.073  0.7697 -0.6242 -1.4686
  174SAPS  H20T19829   6.107   7.207   6.009  0.3247  0.3066 -1.5468
  174SAPS   C3319830   6.153   6.662   4.543  0.1734  0.0393  0.0306
  174SAPS   H3X19831   6.085   6.726   4.483  0.9956  2.2151  1.3034
  174SAPS   H3Y19832   6.246   6.643   4.484 -0.4267 -0.2031 -0.8522
  174SAPS   C3419833   6.201   6.732   4.677 -0.0262  0.5379  0.6023
  174SAPS   H4X19834   6.108   6.750   4.735  0.1934 -0.7867  1.4133
  174SAPS   H4Y19835   6.236   6.834   4.653 -0.1137  0.7612  1.4060
  174SAPS   C3519836   6.304   6.655   4.757 -0.0587 -0.1373  0.2969
  174SAPS   H5X19837   6.401   6.654   4.702  0.9067  2.0388  1.8164
  174SAPS   H5Y19838   6.261   6.553   4.767  1.4105 -0.6073  2.7315
  174SAPS   C3619839   6.328   6.692   4.900 -0.0698  0.9409  0.2176
  174SAPS   H6X19840   6.402   6.630   4.954  0.1731  2.2645  1.5007
  174SAPS   H6Y19841   6.232   6.674   4.954 -0.3763 -0.8224 -0.8410
  174SAPS   C3719842   6.360   6.840   4.920  0.3797  0.7367 -0.0572
  174SAPS   H7X19843   6.269   6.897   4.893  1.2577  2.0413 -0.3686
  174SAPS   H7Y19844   6.444   6.862   4.850 -0.4485  0.4577 -1.1730
  174SAPS   C3819845   6.387   6.877   5.063 -0.1391 -0.3803  0.3923
  174SAPS   H8X19846   6.472   6.815   5.100  1.0457  0.2196 -1.2331
  174SAPS   H8Y19847   6.309   6.849   5.138  0.3422  2.0316  1.9120
  174SAPS   C3919848   6.407   7.027   5.095 -1.1277  0.3957  0.7473
  174SAPS   H9X19849   6.308   7.073   5.076 -1.2932 -0.8297 -1.8631
  174SAPS   H9Y19850   6.477   7.054   5.012  0.2569 -1.3042  1.2922
  174SAPS  C31019851   6.474   7.080   5.215 -0.1728 -0.1768  0.3997
  174SAPS  H10X19852   6.434   7.183   5.232 -0.2998  0.2872 -2.1993
  174SAPS  H10Y19853   6.583   7.095   5.198 -0.3589  2.8379  1.2393
  174SAPS  C31119854   6.455   6.986   5.339  0.0821 -0.1417  0.1384
  174SAPS  H11X19855   6.481   6.880   5.316  0.1739  0.0203 -0.5086
  174SAPS  H11Y19856   6.349   6.997   5.368 -0.2878 -1.5381 -0.6171
  174SAPS  C31219857   6.538   7.016   5.468  0.5589 -0.5298 -0.2090
  174SAPS  H12X19858   6.630   6.954   5.462 -0.1621 -1.4686 -2.5191
  174SAPS  H12Y19859   6.484   6.968   5.553 -0.0569 -0.0161 -0.3026
  174SAPS  C31319860   6.574   7.162   5.499 -0.0215 -0.1258 -0.0775
  174SAPS  H13X19861   6.477   7.212   5.518 -0.1459 -0.2416 -0.3974
  174SAPS  H13Y19862   6.621   7.203   5.408 -2.9162  2.0945 -0.7423
  174SAPS  C31419863   6.659   7.180   5.624  0.3422 -0.0147  0.0857
  174SAPS  H14X19864   6.682   7.286   5.648  1.1770 -0.6686  2.4993
  174SAPS  H14Y19865   6.756   7.126   5.616  0.4906  0.3361 -0.5518
  174SAPS  C31519866   6.587   7.125   5.746 -0.0779 -0.9539 -0.2039
  174SAPS  H15X19867   6.487   7.079   5.732 -0.2728 -0.1375 -1.7028
  174SAPS  H15Y19868   6.565   7.217   5.804  2.0164  0.6463 -1.7741
  174SAPS  C31619869   6.669   7.041   5.841 -0.7773  0.1556 -0.3968
  174SAPS  H16X19870   6.775   7.074   5.843 -0.8689  0.4697  1.5250
  174SAPS  H16Y19871   6.671   6.939   5.796 -1.0160 -1.1822  2.3593
  174SAPS  C31719872   6.615   7.024   5.988 -1.0540  0.0313 -0.0169
  174SAPS  H17X19873   6.652   6.929   6.031 -0.9261  0.1806  0.2062
  174SAPS  H17Y19874   6.504   7.022   5.992 -0.9960 -1.5948  1.3953
  174SAPS  C31819875   6.660   7.140   6.075  0.3703  0.1377  0.3556
  174SAPS  H18X19876   6.770   7.149   6.057  0.0445 -0.9006 -2.9372
  174SAPS  H18Y19877   6.651   7.117   6.183 -0.0827 -1.6968 -0.0419
  174SAPS  H18Z19878   6.607   7.236   6.055  0.8274 -0.1758 -2.9223
  175SAPS     N19879   3.699   5.530   3.647  0.3732 -0.2613  0.1783
  175SAPS   HN119880   3.726   5.515   3.747  1.0397  3.3002  0.6549
  175SAPS   HN219881   3.668   5.446   3.594  0.7362 -0.1636 -0.1934
  175SAPS   HN319882   3.777   5.571   3.592 -0.4293  1.6931  0.4279
  175SAPS   C1219883   3.590   5.635   3.653  0.6603 -0.5014  0.3199
  175SAPS  H12A19884   3.629   5.728   3.693 -0.8517 -0.7244  2.4970
  175SAPS   C1319885   3.530   5.669   3.517  0.4404 -0.4725  1.0725
  175SAPS  O13A19886   3.578   5.630   3.408 -0.4401 -0.5328  0.2899
  175SAPS  O13B19887   3.429   5.750   3.518  0.2272 -0.3712 -0.2830
  175SAPS   C1119888   3.474   5.581   3.746  0.3881  0.4256  0.0476
  175SAPS  H11A19889   3.452   5.478   3.713  1.6483  0.3833 -0.7279
  175SAPS  H11B19890   3.389   5.652   3.735 -0.2478 -0.2151  0.7686
  175SAPS     P19891   3.456   5.673   3.996  0.4488  0.1085 -0.3585
  175SAPS   O1319892   3.433   5.805   3.934 -0.0964 -0.0676 -0.2336
  175SAPS   O1419893   3.332   5.613   4.053  0.3093 -0.2055 -0.0147
  175SAPS   O1219894   3.507   5.572   3.889  0.6869  0.5611  0.0119
  175SAPS   O1119895   3.564   5.687   4.106 -0.2219 -0.0626 -0.5971
  175SAPS    C119896   3.579   5.590   4.210 -0.7594 -0.2344 -0.4603
  175SAPS    HA19897   3.479   5.564   4.253 -1.3754  1.7813 -0.5484
  175SAPS    HB19898   3.634   5.501   4.174  1.1288  0.4385  0.6234
  175SAPS    C219899   3.671   5.640   4.331  0.4011  0.2133  0.1913
  175SAPS    HS19900   3.690   5.557   4.402  0.7137  0.7900  0.8012
  175SAPS   O2119901   3.619   5.751   4.395  0.0741  0.0411 -0.1778
  175SAPS   C2119902   3.525   5.739   4.482  0.3857 -0.4459 -0.5874
  175SAPS   O2219903   3.471   5.635   4.512  0.1226  0.2849  0.4923
  175SAPS   C2219904   3.489   5.872   4.554 -0.4692  0.1833  1.7913
  175SAPS   H2R19905   3.580   5.934   4.567  0.2102 -0.5560  0.7876
  175SAPS   H2S19906   3.424   5.923   4.480 -0.0778 -2.4412 -0.5769
  175SAPS    C319907   3.816   5.674   4.279  0.7612 -0.2331 -0.2200
  175SAPS    HX19908   3.819   5.776   4.236  2.0166 -0.4533 -0.6926
  175SAPS    HY19909   3.841   5.605   4.195 -1.0629  0.3291 -1.2911
  175SAPS   O3119910   3.904   5.669   4.392 -0.3130  0.3541 -0.0514
  175SAPS   C3119911   4.033   5.676   4.366  0.5672 -0.9664  0.1330
  175SAPS   O3219912   4.087   5.712   4.263 -0.2631 -0.4703  0.7102
  175SAPS   C3219913   4.113   5.638   4.485 -0.9624  0.0291  0.3008
  175SAPS   H2X19914   4.050   5.601   4.569  0.8714 -2.0748  0.8689
  175SAPS   H2Y19915   4.178   5.721   4.518 -1.5095  0.2540  0.8335
  175SAPS   C2319916   3.426   5.844   4.688  0.8863 -0.8619 -0.1200
  175SAPS   H3R19917   3.492   5.782   4.753  0.9889  1.1324  1.7778
  175SAPS   H3S19918   3.326   5.795   4.682  0.0458  0.6949  0.6628
  175SAPS   C2419919   3.401   5.981   4.766 -0.1782  0.1512 -0.5711
  175SAPS   H4R19920   3.332   5.983   4.853 -0.8345 -0.1911 -1.0755
  175SAPS   H4S19921   3.354   6.055   4.696 -0.3293  0.5478 -0.0575
  175SAPS   C2519922   3.535   6.036   4.820 -0.4420  0.5506 -0.0121
  175SAPS   H5R19923   3.621   6.068   4.758 -0.4538  1.3999  0.3940
  175SAPS   C2619924   3.556   6.055   4.952 -0.6359  0.0925  0.1027
  175SAPS   H6R19925   3.648   6.108   4.980  0.1482 -0.2738 -1.6299
  175SAPS   C2719926   3.471   6.043   5.079 -0.3020  0.3794  0.1149
  175SAPS   H7R19927   3.527   5.983   5.153 -0.6472 -0.6582 -0.4458
  175SAPS   H7S19928   3.380   5.982   5.060 -0.2822  0.6843 -1.0445
  175SAPS   C2819929   3.420   6.172   5.144 -0.5334 -0.5317  0.4849
  175SAPS   H8R19930   3.371   6.249   5.082 -1.0279  0.2046  1.7522
  175SAPS   C2919931   3.422   6.212   5.271 -0.2118  0.3951 -0.4689
  175SAPS   H9R19932   3.372   6.308   5.293 -0.0496  0.0808  1.3709
  175SAPS  C21019933   3.476   6.142   5.393  0.0937  0.3841  0.3670
  175SAPS  H10R19934   3.572   6.179   5.434 -0.8181 -0.2159  3.2897
  175SAPS  H10S19935   3.511   6.040   5.367  1.4777  0.8440  0.3695
  175SAPS  C21119936   3.370   6.146   5.502 -1.0486 -0.2991  0.0989
  175SAPS  H11R19937   3.270   6.118   5.467 -0.8837 -0.4048 -0.3031
  175SAPS  C21219938   3.395   6.183   5.628 -0.0626 -0.0855  0.3221
  175SAPS  H12R19939   3.312   6.167   5.699  0.9017 -0.6196  1.3542
  175SAPS  C21319940   3.523   6.232   5.687  0.3816 -0.1271 -0.0370
  175SAPS  H13R19941   3.513   6.333   5.733  1.9395  1.3261 -2.6561
  175SAPS  H13S19942   3.594   6.268   5.610  0.0868  0.8085  0.1065
  175SAPS  C21419943   3.594   6.135   5.786  0.2463 -0.0181 -0.2602
  175SAPS  H14R19944   3.601   6.028   5.762  0.6564 -0.9877  3.5290
  175SAPS  C21519945   3.641   6.173   5.910  0.1440  0.2220 -0.1921
  175SAPS  H15R19946   3.697   6.102   5.973  0.9716  0.7329 -0.3335
  175SAPS  C21619947   3.636   6.312   5.960  0.0235 -0.4252 -0.4783
  175SAPS  H16R19948   3.542   6.369   5.942  0.6180  1.6315  2.2805
  175SAPS  H16S19949   3.718   6.377   5.921 -0.7915  1.8029  1.2972
  175SAPS  C21719950   3.621   6.331   6.118  0.1977  0.6182  0.8965
  175SAPS  H17R19951   3.705   6.278   6.168 -0.9900 -0.5617  1.7071
  175SAPS  H17S19952   3.526   6.284   6.152 -0.2013  0.3649 -0.5140
  175SAPS  C21819953   3.617   6.468   6.180  0.1215 -0.3066  0.0630
  175SAPS  H18R19954   3.531   6.521   6.133  0.0845 -0.4501 -0.0326
  175SAPS  H18S19955   3.711   6.522   6.160  0.9854 -0.0804  3.9798
  175SAPS  C21919956   3.600   6.470   6.326  0.5253  0.2112 -0.1277
  175SAPS  H19R19957   3.664   6.395   6.377  0.0132 -0.3955 -0.3617
  175SAPS  H19S19958   3.497   6.430   6.339  1.1517 -2.1539 -1.8625
  175SAPS  C22019959   3.636   6.606   6.373  0.3294  0.3352 -0.9397
  175SAPS  H20R19960   3.622   6.617   6.483 -0.2961 -1.8156 -0.7587
  175SAPS  H20S19961   3.568   6.688   6.343  0.2509  0.4688 -0.4202
  175SAPS  H20T19962   3.740   6.627   6.341  0.6900 -0.1924 -0.1737
  175SAPS   C3319963   4.213   5.522   4.469 -0.1656 -0.0210  0.6380
  175SAPS   H3X19964   4.273   5.545   4.379  3.2744  0.5615  2.8926
  175SAPS   H3Y19965   4.154   5.429   4.456  0.1409 -0.2371  0.7901
  175SAPS   C3419966   4.311   5.493   4.580 -0.3720  0.3243 -0.4432
  175SAPS   H4X19967   4.383   5.577   4.591 -0.7184  0.6481 -0.6158
  175SAPS   H4Y19968   4.374   5.405   4.557  0.8117  1.6896 -2.7049
  175SAPS   C3519969   4.250   5.468   4.720  0.0427  0.6726 -0.6733
  175SAPS   H5X19970   4.191   5.374   4.727 -0.6346  1.2149  2.2054
  175SAPS   H5Y19971   4.182   5.555   4.736  1.4678  1.7857 -0.5152
  175SAPS   C3619972   4.356   5.475   4.836  0.0482 -0.8421  0.4351
  175SAPS   H6X19973   4.317   5.486   4.939  2.3744  0.6846  1.2457
  175SAPS   H6Y19974   4.410   5.571   4.819  1.1041 -1.8583 -2.7029
  175SAPS   C3719975   4.457   5.359   4.825 -0.4014 -0.0084  0.0841
  175SAPS   H7X19976   4.516   5.388   4.734 -0.9233  1.3683  0.1547
  175SAPS   H7Y19977   4.414   5.258   4.814 -2.8900  1.0982 -1.0324
  175SAPS   C3819978   4.568   5.363   4.933  0.3290 -0.1882 -0.2071
  175SAPS   H8X19979   4.632   5.453   4.930  0.2104 -0.1111 -0.5133
  175SAPS   H8Y19980   4.642   5.281   4.917 -0.2077 -0.7085 -0.0972
  175SAPS   C3919981   4.510   5.346   5.073 -0.1098  0.6663  0.0879
  175SAPS   H9X19982   4.419   5.282   5.069  2.0339 -2.5280 -1.7399
  175SAPS   H9Y19983   4.498   5.450   5.111  1.6083  0.3781  1.5299
  175SAPS  C31019984   4.606   5.264   5.157  0.5126  0.1943  0.5476
  175SAPS  H10X19985   4.709   5.308   5.157 -0.2579  2.1660  2.1039
  175SAPS  H10Y19986   4.618   5.157   5.128  1.2137  1.1321 -3.0906
  175SAPS  C31119987   4.562   5.256   5.305  0.1672 -0.1847 -0.5427
  175SAPS  H11X19988   4.452   5.241   5.316  0.2972 -0.5913  0.3248
  175SAPS  H11Y19989   4.584   5.352   5.357 -0.4491  0.2317 -1.0369
  175SAPS  C31219990   4.639   5.155   5.389  0.4708 -0.5369  0.0636
  175SAPS  H12X19991   4.750   5.168   5.394  0.8978 -3.0779 -1.0200
  175SAPS  H12Y19992   4.634   5.063   5.327  0.6667  0.9576 -2.2850
  175SAPS  C31319993   4.576   5.133   5.525 -0.3296 -0.0026  0.4820
  175SAPS  H13X19994   4.469   5.106   5.520 -1.0098  2.6073 -1.8395
  175SAPS  H13Y19995   4.581   5.230   5.580  1.1182 -0.5208  1.3256
  175SAPS  C31419996   4.644   5.023   5.597  0.1243  0.8550 -0.1754
  175SAPS  H14X19997   4.751   5.023   5.565 -0.3360 -1.2430 -1.9453
  175SAPS  H14Y19998   4.604   4.927   5.560 -3.0195  2.1040 -0.3055
  175SAPS  C31519999   4.626   5.000   5.749  0.0474  0.6006  0.4918
  175SAPS  H15X20000   4.518   4.976   5.761  0.2558 -2.1815 -1.8333
  175SAPS  H15Y20001   4.643   5.097   5.800 -1.3470  1.6071 -0.8549
  175SAPS  C31620002   4.696   4.881   5.815 -0.7076  0.5445  0.1976
  175SAPS  H16X20003   4.802   4.875   5.784  0.0141 -1.1923  2.6182
  175SAPS  H16Y20004   4.659   4.783   5.777  1.8808 -0.0333 -1.0338
  175SAPS  C31720005   4.683   4.881   5.966  0.2914  0.5434  0.1561
  175SAPS  H17X20006   4.574   4.878   5.984 -0.0529 -2.1589 -1.7220
  175SAPS  H17Y20007   4.729   4.970   6.013  0.5011  0.9240 -0.7430
  175SAPS  C31820008   4.755   4.759   6.025 -0.9952  0.1792 -0.3807
  175SAPS  H18X20009   4.737   4.760   6.135 -2.6267  0.3355 -0.6264
  175SAPS  H18Y20010   4.865   4.768   6.009 -1.0439  0.1362 -0.7515
  175SAPS  H18Z20011   4.717   4.665   5.980  0.6217  0.1362 -1.7612
  176SAPS     N20012   3.564   2.858   3.630 -0.2564  0.3130  0.0043
  176SAPS   HN120013   3.594   2.760   3.609  1.0680  0.8941 -0.9945
  176SAPS   HN220014   3.636   2.926   3.662 -2.1839  1.4608  2.2099
  176SAPS   HN320015   3.503   2.852   3.714 -1.0853  1.9709 -0.4375
  176SAPS   C1220016   3.482   2.920   3.529  0.8326 -0.2628  0.3380
  176SAPS  H12A20017   3.550   2.943   3.448 -1.2110  1.7078 -0.9220
  176SAPS   C1320018   3.365   2.835   3.470  0.0602  0.1115 -0.2371
  176SAPS  O13A20019   3.352   2.713   3.497 -0.0723  0.1771 -1.0001
  176SAPS  O13B20020   3.292   2.890   3.386  0.6243 -0.1228 -0.3647
  176SAPS   C1120021   3.419   3.062   3.573 -0.1318  0.2438  0.6208
  176SAPS  H11A20022   3.330   3.032   3.633 -1.5411  0.6054 -1.1950
  176SAPS  H11B20023   3.379   3.109   3.480  2.4252  1.5390  0.0878
  176SAPS     P20024   3.456   3.273   3.723  0.0661 -0.5836 -0.0333
  176SAPS   O1320025   3.548   3.381   3.693  0.4651  0.1846  0.0368
  176SAPS   O1420026   3.315   3.293   3.695 -0.2226 -0.3414  0.5339
  176SAPS   O1220027   3.500   3.144   3.652 -0.3389  0.2281  0.0669
  176SAPS   O1120028   3.472   3.232   3.876 -0.3887 -0.2807  0.2036
  176SAPS    C120029   3.593   3.191   3.932 -0.2438  0.6325 -0.0328
  176SAPS    HA20030   3.584   3.083   3.957  1.6647 -0.1992 -2.5051
  176SAPS    HB20031   3.669   3.180   3.852 -0.3547 -0.5289  0.0066
  176SAPS    C220032   3.643   3.283   4.048  0.4828  0.2431 -0.3761
  176SAPS    HS20033   3.735   3.253   4.102 -2.1322 -2.8600  2.8803
  176SAPS   O2120034   3.536   3.299   4.141  0.6490 -0.6350 -0.9587
  176SAPS   C2120035   3.532   3.196   4.230  0.5615 -0.2537 -0.2679
  176SAPS   O2220036   3.623   3.114   4.244 -0.1245  0.1391 -0.2484
  176SAPS   C2220037   3.395   3.208   4.300  0.2840 -0.0734 -0.1751
  176SAPS   H2R20038   3.381   3.291   4.373  0.6035 -1.4867  1.5568
  176SAPS   H2S20039   3.335   3.217   4.207  1.5245 -0.0999 -1.0006
  176SAPS    C320040   3.676   3.424   3.993 -0.1417  0.3636 -0.4179
  176SAPS    HX20041   3.583   3.479   3.968 -0.2143 -0.4283 -1.9715
  176SAPS    HY20042   3.714   3.400   3.892 -1.5688 -2.9183 -0.2860
  176SAPS   O3120043   3.766   3.501   4.081  0.5168  0.0870 -0.0408
  176SAPS   C3120044   3.783   3.626   4.035 -0.3407 -0.3769 -0.0772
  176SAPS   O3220045   3.734   3.674   3.935  0.7930 -0.3936 -0.2145
  176SAPS   C3220046   3.853   3.721   4.143 -0.3849 -0.1869 -0.2885
  176SAPS   H2X20047   3.941   3.763   4.091  0.3528 -1.2014  0.1190
  176SAPS   H2Y20048   3.884   3.656   4.228  1.3018  1.2282  0.2220
  176SAPS   C2320049   3.344   3.088   4.378 -0.1377 -0.3123 -0.6701
  176SAPS   H3R20050   3.416   3.065   4.459  0.6720  2.2983 -0.5836
  176SAPS   H3S20051   3.331   2.996   4.316 -0.6633 -0.1284 -0.8355
  176SAPS   C2420052   3.208   3.123   4.456  0.5617  0.0239  0.5268
  176SAPS   H4R20053   3.149   3.194   4.394  1.5525  0.5463  0.1741
  176SAPS   H4S20054   3.246   3.187   4.538  0.3233  0.9549 -0.0768
  176SAPS   C2520055   3.123   3.009   4.497 -0.5689 -0.3621  0.1070
  176SAPS   H5R20056   3.096   2.940   4.416 -1.3452 -1.3562  1.1745
  176SAPS   C2620057   3.069   2.981   4.615 -0.5272 -0.2839  0.2568
  176SAPS   H6R20058   3.025   2.882   4.634  3.1931 -1.7786  2.0597
  176SAPS   C2720059   3.087   3.066   4.743  0.0749  0.1014  0.5796
  176SAPS   H7R20060   2.986   3.096   4.779  0.2046 -0.0117  1.0386
  176SAPS   H7S20061   3.149   3.157   4.732  0.1285 -0.1922 -2.3952
  176SAPS   C2820062   3.147   2.979   4.851 -0.1269 -0.0249  0.4260
  176SAPS   H8R20063   3.167   2.877   4.815 -0.2655  0.5177 -1.2751
  176SAPS   C2920064   3.181   3.020   4.975  0.4184 -0.4230  0.3794
  176SAPS   H9R20065   3.211   2.946   5.051 -1.4943 -0.9998  0.6283
  176SAPS  C21020066   3.165   3.157   5.042 -0.4123  0.6524  0.8277
  176SAPS  H10R20067   3.114   3.231   4.977 -2.6648  0.3124  2.0758
  176SAPS  H10S20068   3.266   3.200   5.056  0.6903 -1.1810 -0.9517
  176SAPS  C21120069   3.081   3.164   5.161  0.0075 -0.4666 -0.0948
  176SAPS  H11R20070   2.973   3.151   5.145 -0.0415 -0.2150  0.0308
  176SAPS  C21220071   3.111   3.202   5.289  0.2121  0.3888 -0.0066
  176SAPS  H12R20072   3.037   3.202   5.370 -0.7974  2.8899 -0.8347
  176SAPS  C21320073   3.251   3.228   5.338  0.0871  0.4593  0.4425
  176SAPS  H13R20074   3.247   3.319   5.401 -0.4798  0.0102  1.0697
  176SAPS  H13S20075   3.323   3.250   5.256 -0.3519  0.4727  0.0551
  176SAPS  C21420076   3.319   3.113   5.410  0.0418 -0.5032 -0.3743
  176SAPS  H14R20077   3.289   3.016   5.368 -0.1833  0.4698 -2.6366
  176SAPS  C21520078   3.382   3.111   5.528  0.7071 -0.6574 -0.2152
  176SAPS  H15R20079   3.430   3.021   5.569 -0.8285 -1.9420 -1.1393
  176SAPS  C21620080   3.414   3.236   5.606  0.0828  0.5344 -0.0979
  176SAPS  H16R20081   3.388   3.327   5.548 -0.0229  0.3560 -0.3346
  176SAPS  H16S20082   3.524   3.238   5.625 -0.1203  0.2858  1.1938
  176SAPS  C21720083   3.348   3.256   5.742  0.1752  0.3837 -0.1537
  176SAPS  H17R20084   3.379   3.167   5.801  0.9538  0.4265 -0.4835
  176SAPS  H17S20085   3.239   3.241   5.728  0.3705 -0.3651 -0.9829
  176SAPS  C21820086   3.386   3.383   5.816 -0.7584  0.3074  0.4966
  176SAPS  H18R20087   3.348   3.470   5.757 -0.0135 -1.0059 -2.0585
  176SAPS  H18S20088   3.497   3.376   5.819 -0.7375  0.8786  2.2289
  176SAPS  C21920089   3.319   3.384   5.959  0.7065  0.3060  0.0374
  176SAPS  H19R20090   3.211   3.365   5.941  0.8191  0.8276 -1.3282
  176SAPS  H19S20091   3.328   3.490   5.990  1.2511  0.7345 -1.4895
  176SAPS  C22020092   3.376   3.300   6.068 -0.0781  0.4846 -0.3329
  176SAPS  H20R20093   3.331   3.330   6.165  0.1250  0.5374 -0.2529
  176SAPS  H20S20094   3.484   3.323   6.080 -0.3181  1.9944 -0.9250
  176SAPS  H20T20095   3.376   3.188   6.069 -1.5671  0.4751 -0.2263
  176SAPS   C3320096   3.763   3.834   4.180  0.5340 -0.6226  0.3480
  176SAPS   H3X20097   3.713   3.879   4.091  2.9130 -1.1965 -1.3595
  176SAPS   H3Y20098   3.803   3.923   4.234 -0.8095  0.6552 -0.6570
  176SAPS   C3420099   3.638   3.790   4.256  0.1576 -0.1648  0.6721
  176SAPS   H4X20100   3.575   3.719   4.199 -0.3476  0.1041  0.8843
  176SAPS   H4Y20101   3.574   3.877   4.282  0.4958  0.6278 -1.0378
  176SAPS   C3520102   3.662   3.738   4.400 -0.4563 -0.0289 -0.3392
  176SAPS   H5X20103   3.727   3.812   4.451 -0.8582  0.1475 -0.0828
  176SAPS   H5Y20104   3.719   3.643   4.405  0.2142  0.4331  1.4337
  176SAPS   C3620105   3.536   3.737   4.495 -0.4939  0.2904 -0.7684
  176SAPS   H6X20106   3.487   3.638   4.482  0.0388 -0.1160  0.2211
  176SAPS   H6Y20107   3.474   3.825   4.466  1.4623  2.0246  0.0387
  176SAPS   C3720108   3.581   3.767   4.638 -0.5660  0.1961 -0.1015
  176SAPS   H7X20109   3.641   3.860   4.653 -1.0182  0.3577  0.8282
  176SAPS   H7Y20110   3.639   3.685   4.685  0.2955  0.0673 -1.3493
  176SAPS   C3820111   3.456   3.800   4.723 -0.7567  0.0026 -0.3463
  176SAPS   H8X20112   3.393   3.710   4.739 -2.5646  1.2258 -0.2192
  176SAPS   H8Y20113   3.387   3.867   4.668 -0.8138  0.8969  0.7766
  176SAPS   C3920114   3.484   3.859   4.859 -0.3661 -0.8493 -0.1032
  176SAPS   H9X20115   3.555   3.944   4.845  0.0674 -1.4671 -1.9053
  176SAPS   H9Y20116   3.528   3.776   4.918  2.1414  1.1960  1.1159
  176SAPS  C31020117   3.360   3.919   4.925  0.5132  0.3880  0.3901
  176SAPS  H10X20118   3.276   3.847   4.918 -0.2772  1.4010 -1.2082
  176SAPS  H10Y20119   3.337   4.005   4.859 -0.5047 -0.9042 -1.0165
  176SAPS  C31120120   3.373   3.965   5.072  0.1117 -0.8876  0.3926
  176SAPS  H11X20121   3.278   4.003   5.116  0.2869 -0.3363  0.3087
  176SAPS  H11Y20122   3.453   4.042   5.066 -1.4988  0.7489 -1.5333
  176SAPS  C31220123   3.406   3.857   5.171 -0.1766  0.1010  0.1620
  176SAPS  H12X20124   3.492   3.793   5.140 -2.6051 -2.5547 -1.5626
  176SAPS  H12Y20125   3.319   3.788   5.177  1.1899 -1.5728  3.1041
  176SAPS  C31320126   3.441   3.902   5.318  0.1606  0.1974 -0.6431
  176SAPS  H13X20127   3.347   3.948   5.354 -0.3242 -0.5626 -0.9213
  176SAPS  H13Y20128   3.518   3.982   5.315 -0.0566  0.4841  0.6796
  176SAPS  C31420129   3.473   3.788   5.415 -0.3870  0.7322 -0.8502
  176SAPS  H14X20130   3.572   3.751   5.380  0.8696  1.1054  2.0062
  176SAPS  H14Y20131   3.401   3.704   5.402  1.3163 -0.6390 -1.9174
  176SAPS  C31520132   3.497   3.812   5.566  0.1972  0.3434 -0.5643
  176SAPS  H15X20133   3.396   3.815   5.613  0.6959 -0.1203  0.5776
  176SAPS  H15Y20134   3.546   3.909   5.587 -1.1072  1.0945 -0.8550
  176SAPS  C31620135   3.577   3.697   5.639 -0.5135 -0.0142 -0.7150
  176SAPS  H16X20136   3.646   3.654   5.563  1.1541  2.1394 -0.5429
  176SAPS  H16Y20137   3.510   3.619   5.680  2.2091 -0.9883  2.3230
  176SAPS  C31720138   3.660   3.763   5.749 -0.4532  0.2891 -0.1086
  176SAPS  H17X20139   3.598   3.818   5.823 -0.3441 -0.4490  0.5494
  176SAPS  H17Y20140   3.735   3.832   5.706  0.7207 -0.7283  0.2626
  176SAPS  C31820141   3.730   3.656   5.836  0.0198 -0.3194  1.0178
  176SAPS  H18X20142   3.651   3.596   5.885 -1.3989 -1.6787 -2.6032
  176SAPS  H18Y20143   3.789   3.703   5.917 -3.1547  0.1008  3.2401
  176SAPS  H18Z20144   3.803   3.597   5.775  0.3862 -0.3776  1.5077
  177SAPS     N20145   4.209   2.448   3.574 -0.8153 -0.4057  0.2264
  177SAPS   HN120146   4.142   2.480   3.501 -0.7701 -1.6687 -0.4078
  177SAPS   HN220147   4.185   2.353   3.610 -1.7080 -1.2767 -2.3830
  177SAPS   HN320148   4.216   2.512   3.655 -1.1340 -0.9680  0.7023
  177SAPS   C1220149   4.344   2.452   3.503  0.2755  0.6039  0.6851
  177SAPS  H12A20150   4.332   2.383   3.420  0.0559 -0.9747  1.9799
  177SAPS   C1320151   4.383   2.585   3.448 -0.0010 -0.1909  0.3547
  177SAPS  O13A20152   4.308   2.683   3.459 -0.1737 -0.6238 -0.0932
  177SAPS  O13B20153   4.480   2.580   3.362  0.0473  0.3590 -0.2507
  177SAPS   C1120154   4.454   2.391   3.595  0.1288  0.4203 -0.0395
  177SAPS  H11A20155   4.460   2.465   3.678  1.0531 -0.3158  0.5592
  177SAPS  H11B20156   4.549   2.394   3.537 -0.5568 -1.8146 -1.3968
  177SAPS     P20157   4.460   2.121   3.577 -0.0894 -0.3652  0.3764
  177SAPS   O1320158   4.353   2.110   3.477  0.3915 -0.6152  0.3457
  177SAPS   O1420159   4.601   2.119   3.528  1.1559  0.0853  0.5500
  177SAPS   O1220160   4.433   2.260   3.647 -0.3136 -0.1762 -0.5647
  177SAPS   O1120161   4.441   2.013   3.687 -0.3642 -0.1104  0.3380
  177SAPS    C120162   4.374   2.037   3.810 -0.3759  0.0471  0.4874
  177SAPS    HA20163   4.302   2.122   3.811 -0.3134  0.1067 -0.1246
  177SAPS    HB20164   4.307   1.949   3.818  0.6465 -0.6206  2.1602
  177SAPS    C220165   4.468   2.031   3.930  0.2009 -0.2091  0.3426
  177SAPS    HS20166   4.404   2.035   4.021 -1.7766  0.5593 -1.0198
  177SAPS   O2120167   4.554   2.144   3.936 -0.2044  0.4072  0.0823
  177SAPS   C2120168   4.504   2.262   3.946  0.6641  0.2377  0.3381
  177SAPS   O2220169   4.388   2.289   3.956 -0.1114 -0.6190 -0.0529
  177SAPS   C2220170   4.614   2.357   3.974  0.0452 -0.1142 -0.1100
  177SAPS   H2R20171   4.686   2.367   3.891  1.0835  0.9635  0.8697
  177SAPS   H2S20172   4.570   2.455   4.002  1.0042  0.1654  0.4923
  177SAPS    C320173   4.551   1.900   3.937  0.5387 -0.6149 -0.3626
  177SAPS    HX20174   4.636   1.894   3.867  2.0431  1.6886  1.1261
  177SAPS    HY20175   4.475   1.826   3.904  0.5300 -0.5247 -0.5414
  177SAPS   O3120176   4.594   1.877   4.079 -0.3314  0.0696  0.9268
  177SAPS   C3120177   4.716   1.923   4.110  0.8015  0.5181 -0.7820
  177SAPS   O3220178   4.798   1.968   4.031  0.1989  0.0265 -0.0781
  177SAPS   C3220179   4.741   1.912   4.261  0.0258 -0.4517  0.3040
  177SAPS   H2X20180   4.657   1.851   4.302 -0.2693 -0.0890  0.2481
  177SAPS   H2Y20181   4.735   2.008   4.315  3.2874 -0.1425  0.2891
  177SAPS   C2320182   4.706   2.311   4.088  0.7717  0.1179  0.0217
  177SAPS   H3R20183   4.784   2.384   4.117  2.5735 -2.5099  2.3245
  177SAPS   H3S20184   4.770   2.226   4.057  1.1554  0.6617 -0.7081
  177SAPS   C2420185   4.651   2.271   4.227  0.1361 -0.2461  0.3007
  177SAPS   H4R20186   4.732   2.254   4.300 -0.4296 -0.3403  0.9202
  177SAPS   H4S20187   4.592   2.177   4.218 -0.6511  0.2519  0.0887
  177SAPS   C2520188   4.564   2.379   4.289 -0.2885  0.8694  0.3290
  177SAPS   H5R20189   4.501   2.441   4.223  1.3515  2.0443 -0.1769
  177SAPS   C2620190   4.560   2.417   4.417  0.5824 -0.3215 -0.1375
  177SAPS   H6R20191   4.487   2.495   4.442  0.8375 -0.8663  2.6079
  177SAPS   C2720192   4.648   2.363   4.529  0.2788  0.4736  0.4724
  177SAPS   H7R20193   4.744   2.321   4.492  1.6615  0.8898  3.2784
  177SAPS   H7S20194   4.603   2.282   4.591  1.1331  0.0195  0.5265
  177SAPS   C2820195   4.678   2.467   4.635  0.0768  0.5684  0.7149
  177SAPS   H8R20196   4.783   2.499   4.628  0.0745  0.4827  0.2249
  177SAPS   C2920197   4.599   2.502   4.740 -0.5821  0.5231 -0.7152
  177SAPS   H9R20198   4.634   2.568   4.821  0.6755 -0.3733 -0.4974
  177SAPS  C21020199   4.459   2.444   4.759  0.0059  0.5017  0.4208
  177SAPS  H10R20200   4.463   2.340   4.799 -0.2870  0.1797 -0.3680
  177SAPS  H10S20201   4.402   2.418   4.667  1.8005 -0.5324 -0.4544
  177SAPS  C21120202   4.385   2.540   4.847 -0.6308  0.3612 -0.0902
  177SAPS  H11R20203   4.316   2.604   4.792  1.3560  1.8675 -0.9254
  177SAPS  C21220204   4.370   2.538   4.982 -0.3305 -0.8222 -0.4326
  177SAPS  H12R20205   4.308   2.612   5.034  0.8291 -0.1299  0.0085
  177SAPS  C21320206   4.438   2.429   5.069 -0.5833  0.8751  0.2385
  177SAPS  H13R20207   4.534   2.467   5.109  0.3538 -2.8388  1.9601
  177SAPS  H13S20208   4.478   2.347   5.006 -1.2820 -0.3518  1.3407
  177SAPS  C21420209   4.349   2.382   5.179 -0.3535  0.0912  0.1866
  177SAPS  H14R20210   4.252   2.344   5.146 -0.6039 -0.2451  1.2541
  177SAPS  C21520211   4.379   2.392   5.312  0.3871  0.9018 -0.4748
  177SAPS  H15R20212   4.305   2.351   5.383  0.8313  0.2674 -0.3770
  177SAPS  C21620213   4.513   2.429   5.375  0.6262  0.0603 -0.5603
  177SAPS  H16R20214   4.510   2.533   5.414 -0.9139 -0.8817  2.0938
  177SAPS  H16S20215   4.588   2.429   5.293 -0.1259 -1.5339 -1.2754
  177SAPS  C21720216   4.566   2.336   5.483  0.7387 -0.0556 -0.1934
  177SAPS  H17R20217   4.661   2.380   5.522  0.6846 -0.2371  0.1363
  177SAPS  H17S20218   4.583   2.238   5.433 -0.5824  0.0090 -0.8163
  177SAPS  C21820219   4.463   2.322   5.599 -0.3626  0.7765  0.6150
  177SAPS  H18R20220   4.379   2.261   5.559 -0.9000  2.5034 -1.0188
  177SAPS  H18S20221   4.417   2.422   5.619  3.3529  2.7025  0.4926
  177SAPS  C21920222   4.521   2.256   5.722 -0.0919 -0.5418  0.1747
  177SAPS  H19R20223   4.581   2.173   5.678  1.1304 -0.6441  1.9659
  177SAPS  H19S20224   4.443   2.196   5.774  0.3407 -1.1542  0.1400
  177SAPS  C22020225   4.596   2.340   5.824 -0.2040  0.2291 -0.1917
  177SAPS  H20R20226   4.673   2.412   5.789  0.2417 -0.3218 -0.3592
  177SAPS  H20S20227   4.641   2.272   5.899  0.9533 -3.6600 -4.0287
  177SAPS  H20T20228   4.526   2.403   5.884  0.4149  0.5515  0.2051
  177SAPS   C3320229   4.880   1.856   4.308  0.2773  0.1890  0.2962
  177SAPS   H3X20230   4.955   1.937   4.307  0.0298  0.4603 -2.2340
  177SAPS   H3Y20231   4.912   1.776   4.238 -0.7860 -0.3257  0.3657
  177SAPS   C3420232   4.885   1.797   4.454  0.2933  0.1685  0.2070
  177SAPS   H4X20233   4.984   1.749   4.466  0.2603 -0.2715 -1.1023
  177SAPS   H4Y20234   4.809   1.716   4.449  2.2209 -1.6532 -1.3171
  177SAPS   C3520235   4.842   1.893   4.566 -1.3150  0.0145  0.4299
  177SAPS   H5X20236   4.843   1.818   4.648 -0.0566 -0.1313  0.2997
  177SAPS   H5Y20237   4.735   1.919   4.550 -1.7655 -2.1574 -0.5159
  177SAPS   C3620238   4.928   2.020   4.570  0.4667 -0.2544  0.0020
  177SAPS   H6X20239   4.871   2.086   4.502  0.6119  1.1687  1.2038
  177SAPS   H6Y20240   5.030   2.010   4.527  0.4282  0.5092 -0.2826
  177SAPS   C3720241   4.933   2.082   4.711  0.0493  0.3575  0.3807
  177SAPS   H7X20242   5.004   2.168   4.710 -0.0349  0.4239 -0.1115
  177SAPS   H7Y20243   4.982   2.006   4.775  2.2953  2.0457  0.8090
  177SAPS   C3820244   4.800   2.119   4.774 -0.5537  0.0434  0.0534
  177SAPS   H8X20245   4.721   2.045   4.748  0.1652 -0.7623  0.1288
  177SAPS   H8Y20246   4.757   2.213   4.733 -2.0694 -0.8528 -0.4763
  177SAPS   C3920247   4.807   2.144   4.922  0.1818  0.3737  0.2256
  177SAPS   H9X20248   4.841   2.049   4.968  0.1393  0.1923 -0.1177
  177SAPS   H9Y20249   4.707   2.142   4.970 -0.5477  1.5596 -1.1712
  177SAPS  C31020250   4.881   2.268   4.955  0.0056 -0.0393 -0.1389
  177SAPS  H10X20251   4.852   2.350   4.885  0.7502 -0.1446 -0.5856
  177SAPS  H10Y20252   4.989   2.241   4.944  0.0377 -1.4856  2.8014
  177SAPS  C31120253   4.858   2.305   5.103  0.0999  0.2846 -0.2471
  177SAPS  H11X20254   4.888   2.218   5.166 -0.2949 -1.7245 -2.6862
  177SAPS  H11Y20255   4.749   2.323   5.115 -0.0244  0.2481 -1.2828
  177SAPS  C31220256   4.932   2.435   5.148 -0.4620 -0.2093 -0.7721
  177SAPS  H12X20257   4.889   2.517   5.087  1.0612  0.7379 -0.6438
  177SAPS  H12Y20258   5.041   2.423   5.127 -0.1541 -1.1269  1.1888
  177SAPS  C31320259   4.915   2.466   5.303 -0.6610  0.2403  0.0938
  177SAPS  H13X20260   4.813   2.432   5.334 -0.7144  2.2035  2.3832
  177SAPS  H13Y20261   4.917   2.577   5.313 -0.0457  0.1423  1.2444
  177SAPS  C31420262   5.020   2.415   5.396 -0.3400  0.7050 -0.2643
  177SAPS  H14X20263   4.984   2.455   5.493 -0.1598  4.3605 -1.5843
  177SAPS  H14Y20264   5.119   2.463   5.379 -0.3134  1.6471  2.1685
  177SAPS  C31520265   5.045   2.261   5.404  0.2891 -0.2053 -0.5394
  177SAPS  H15X20266   5.089   2.237   5.304  2.4275 -0.2213  0.3426
  177SAPS  H15Y20267   4.959   2.193   5.419  0.2744  0.0564  0.6299
  177SAPS  C31620268   5.153   2.220   5.507 -0.1909 -0.3870  0.2560
  177SAPS  H16X20269   5.114   2.248   5.607 -0.8098  2.0303 -0.5771
  177SAPS  H16Y20270   5.239   2.286   5.481 -0.5560  0.0420  0.1119
  177SAPS  C31720271   5.189   2.067   5.493  0.6964 -0.1141 -0.3252
  177SAPS  H17X20272   5.232   2.051   5.391  0.4222 -2.1033 -0.1770
  177SAPS  H17Y20273   5.095   2.009   5.505  0.6968 -0.0128  0.1885
  177SAPS  C31820274   5.286   2.027   5.603 -0.1039 -0.4191 -0.5549
  177SAPS  H18X20275   5.288   1.916   5.603  1.4192 -0.4317 -1.4060
  177SAPS  H18Y20276   5.246   2.057   5.702 -0.3149  0.2749 -0.8489
  177SAPS  H18Z20277   5.389   2.064   5.582 -0.2109  0.9342  1.0754
  178SAPS     N20278   4.071   2.813   3.421  0.2462  0.0210  0.0336
  178SAPS   HN120279   4.101   2.909   3.446  1.9707  0.4306 -3.0710
  178SAPS   HN220280   4.157   2.756   3.410  0.2751  0.2089 -0.8130
  178SAPS   HN320281   4.026   2.821   3.327 -2.4262 -1.8885  1.0024
  178SAPS   C1220282   3.975   2.747   3.522  0.0611  0.1443  0.5563
  178SAPS  H12A20283   3.878   2.768   3.479  0.9853 -1.1404 -2.4264
  178SAPS   C1320284   3.965   2.594   3.524 -0.3387 -0.5827  0.3111
  178SAPS  O13A20285   3.999   2.527   3.423 -0.3932 -0.6099 -0.1403
  178SAPS  O13B20286   3.898   2.545   3.619  0.2471 -0.4362 -0.2192
  178SAPS   C1120287   4.002   2.807   3.663  0.0488 -0.1397 -0.0841
  178SAPS  H11A20288   4.083   2.750   3.713 -0.7226 -0.9648  0.2681
  178SAPS  H11B20289   3.919   2.777   3.731 -1.0764 -0.1529 -1.4357
  178SAPS     P20290   3.906   3.046   3.701 -0.5200  0.1796  0.0505
  178SAPS   O1320291   3.942   3.186   3.674  0.0176  0.3115  0.0603
  178SAPS   O1420292   3.791   2.989   3.634  0.4251  0.4256  0.4245
  178SAPS   O1220293   4.028   2.948   3.669  0.5241  0.1481 -0.1659
  178SAPS   O1120294   3.877   3.017   3.852  0.2788 -0.6511 -0.5304
  178SAPS    C120295   3.935   3.095   3.959  0.0631  0.0050  0.1411
  178SAPS    HA20296   3.942   3.202   3.931 -0.5156 -0.6736 -2.9519
  178SAPS    HB20297   3.874   3.083   4.052 -1.3398 -0.5332 -0.8122
  178SAPS    C220298   4.069   3.029   4.007 -0.4185 -0.1875  0.4103
  178SAPS    HS20299   4.134   3.008   3.919 -1.6116 -0.7055 -0.3724
  178SAPS   O2120300   4.036   2.906   4.069  0.0634  1.0248 -0.6061
  178SAPS   C2120301   4.123   2.806   4.077 -0.0311 -0.2007  0.2193
  178SAPS   O2220302   4.230   2.801   4.015 -0.0789 -0.7932  0.5868
  178SAPS   C2220303   4.050   2.687   4.158 -0.7186 -1.0348  0.1026
  178SAPS   H2R20304   3.999   2.731   4.246 -0.8694  0.4313 -0.6743
  178SAPS   H2S20305   3.963   2.655   4.095 -0.8128  2.7880 -2.0089
  178SAPS    C320306   4.156   3.119   4.101 -0.4901 -0.3361  0.5020
  178SAPS    HX20307   4.179   3.209   4.042 -0.9946 -0.8746 -0.5480
  178SAPS    HY20308   4.244   3.051   4.107 -0.8356 -0.8383 -0.0007
  178SAPS   O3120309   4.097   3.143   4.232  0.2222  0.2037 -0.0181
  178SAPS   C3120310   3.999   3.239   4.241  0.7067 -0.2533 -0.2459
  178SAPS   O3220311   3.996   3.339   4.173  0.0227  0.2959  0.1161
  178SAPS   C3220312   3.922   3.203   4.367  0.2147 -0.0877  0.1804
  178SAPS   H2X20313   3.999   3.182   4.444  0.0134  2.3240  1.1272
  178SAPS   H2Y20314   3.856   3.115   4.352 -0.4007  0.6891 -2.0256
  178SAPS   C2320315   4.143   2.569   4.188  0.3029  0.5551  0.5866
  178SAPS   H3R20316   4.217   2.549   4.108  0.0593  0.4441  0.3868
  178SAPS   H3S20317   4.084   2.476   4.204  0.4733  0.3734  0.1715
  178SAPS   C2420318   4.218   2.594   4.319  0.1218 -0.0722 -0.3744
  178SAPS   H4R20319   4.258   2.494   4.347  2.1947  0.2921 -1.8029
  178SAPS   H4S20320   4.148   2.614   4.403  0.3219 -0.1073 -0.1952
  178SAPS   C2520321   4.339   2.682   4.302 -0.5780 -0.8954  0.0112
  178SAPS   H5R20322   4.420   2.632   4.247  0.7383 -0.0742  1.1555
  178SAPS   C2620323   4.357   2.801   4.368  0.9565  0.9612 -1.0618
  178SAPS   H6R20324   4.445   2.865   4.353  0.8471  0.6792 -3.2315
  178SAPS   C2720325   4.252   2.871   4.456 -0.2712  0.1668  0.5170
  178SAPS   H7R20326   4.153   2.825   4.435  0.5018 -1.0878 -0.5660
  178SAPS   H7S20327   4.250   2.974   4.414 -1.0113 -0.7071 -1.7362
  178SAPS   C2820328   4.275   2.862   4.605  0.2538  0.3181 -0.1903
  178SAPS   H8R20329   4.335   2.779   4.647 -1.2228 -0.4789  0.4189
  178SAPS   C2920330   4.204   2.934   4.695 -0.2411  0.5407 -0.1724
  178SAPS   H9R20331   4.236   2.927   4.799  1.2844 -0.1690 -0.6617
  178SAPS  C21020332   4.082   3.024   4.677 -0.6360 -0.0951  0.4398
  178SAPS  H10R20333   4.000   2.959   4.713 -0.9769 -0.4240 -0.8742
  178SAPS  H10S20334   4.086   3.045   4.568  0.2603 -2.0874  0.0428
  178SAPS  C21120335   4.093   3.159   4.743  0.8444  0.1198 -0.2976
  178SAPS  H11R20336   4.095   3.250   4.682  3.5753  0.6825  0.5254
  178SAPS  C21220337   4.095   3.183   4.871  0.3730  0.1719 -0.7499
  178SAPS  H12R20338   4.101   3.285   4.912  0.1393 -0.3952  0.7738
  178SAPS  C21320339   4.085   3.077   4.986  0.4594 -0.1363  0.1600
  178SAPS  H13R20340   4.128   2.980   4.951 -1.0842 -0.1007 -2.0326
  178SAPS  H13S20341   3.981   3.053   5.018 -0.1009  0.0099 -1.4504
  178SAPS  C21420342   4.153   3.136   5.106  0.1040  0.1443  0.0774
  178SAPS  H14R20343   4.152   3.245   5.115 -0.9562  0.0751  0.8667
  178SAPS  C21520344   4.207   3.065   5.205 -0.3106 -0.5600  0.4767
  178SAPS  H15R20345   4.258   3.129   5.278  1.9720  1.0168 -2.3195
  178SAPS  C21620346   4.203   2.917   5.220 -0.5273  0.0342 -0.4207
  178SAPS  H16R20347   4.307   2.886   5.192 -0.6793 -0.9271  0.0119
  178SAPS  H16S20348   4.129   2.870   5.151 -2.4988  0.9809  0.9837
  178SAPS  C21720349   4.185   2.864   5.359 -0.0248 -0.5534  0.0885
  178SAPS  H17R20350   4.087   2.901   5.395  1.0849  1.8991  0.8464
  178SAPS  H17S20351   4.259   2.914   5.425 -0.9903  1.7932 -0.5350
  178SAPS  C21820352   4.202   2.716   5.359 -0.0546 -0.2151  0.5345
  178SAPS  H18R20353   4.307   2.695   5.331 -0.5728 -1.2392 -0.8019
  178SAPS  H18S20354   4.138   2.667   5.282  2.1338 -0.1661 -1.3955
  178SAPS  C21920355   4.180   2.650   5.499  0.2378  0.3618  0.3106
  178SAPS  H19R20356   4.262   2.685   5.565  1.2393  0.4407 -0.9337
  178SAPS  H19S20357   4.196   2.541   5.488 -2.1092 -0.1595  1.5787
  178SAPS  C22020358   4.044   2.683   5.567  0.0387  0.1585  0.1601
  178SAPS  H20R20359   3.950   2.637   5.529  1.2174 -1.8989 -0.4191
  178SAPS  H20S20360   4.041   2.793   5.579 -0.8910 -0.1260  4.3189
  178SAPS  H20T20361   4.042   2.645   5.672 -1.9863  0.1896  0.1729
  178SAPS   C3320362   3.840   3.319   4.413  0.5207  0.3750  0.2639
  178SAPS   H3X20363   3.768   3.345   4.332  0.6070  1.1776  0.4345
  178SAPS   H3Y20364   3.909   3.397   4.452 -0.6708  0.9982  1.2097
  178SAPS   C3420365   3.752   3.279   4.532 -0.5860  0.5229  0.3291
  178SAPS   H4X20366   3.814   3.254   4.621  2.1842  0.8941 -1.3904
  178SAPS   H4Y20367   3.694   3.184   4.531  0.3231 -0.0584  1.1649
  178SAPS   C3520368   3.649   3.385   4.561 -0.2693 -0.3964  0.2759
  178SAPS   H5X20369   3.593   3.396   4.466  3.4711  0.3969 -2.0620
  178SAPS   H5Y20370   3.712   3.477   4.572 -1.3264  0.1971  1.7222
  178SAPS   C3620371   3.563   3.366   4.679  0.3823 -0.5065 -0.8027
  178SAPS   H6X20372   3.491   3.288   4.647  0.7138 -0.1827 -2.4115
  178SAPS   H6Y20373   3.499   3.455   4.698 -0.7174 -1.3665 -0.3644
  178SAPS   C3720374   3.628   3.338   4.813 -1.0318 -0.1663 -0.5760
  178SAPS   H7X20375   3.706   3.410   4.843 -2.5560  0.9697  0.8829
  178SAPS   H7Y20376   3.675   3.238   4.821  0.1750  0.5566  3.2561
  178SAPS   C3820377   3.518   3.327   4.925  0.2716  0.5462 -0.1733
  178SAPS   H8X20378   3.471   3.227   4.918  1.2345  0.0003  0.9497
  178SAPS   H8Y20379   3.440   3.406   4.915 -0.6077 -0.3710 -0.8491
  178SAPS   C3920380   3.587   3.335   5.064  0.3758  0.2442  1.0043
  178SAPS   H9X20381   3.503   3.325   5.136 -0.9659  0.5975 -0.4417
  178SAPS   H9Y20382   3.638   3.432   5.082 -0.3289  0.3137  2.7720
  178SAPS  C31020383   3.679   3.216   5.104 -0.3927  0.4599 -0.6479
  178SAPS  H10X20384   3.773   3.235   5.049 -0.9275  0.7072 -1.4949
  178SAPS  H10Y20385   3.625   3.124   5.073 -0.9896  0.8187 -0.6904
  178SAPS  C31120386   3.721   3.210   5.253  1.3806  0.1204 -0.1585
  178SAPS  H11X20387   3.635   3.198   5.323  2.1429  0.0288  0.7825
  178SAPS  H11Y20388   3.772   3.303   5.286  0.2182  0.8237 -0.2761
  178SAPS  C31220389   3.808   3.086   5.276 -0.0302  0.4223  0.2891
  178SAPS  H12X20390   3.910   3.107   5.238 -0.5281 -0.7466 -1.8767
  178SAPS  H12Y20391   3.767   3.000   5.219 -0.1118 -0.2448  1.3227
  178SAPS  C31320392   3.818   3.050   5.425 -0.0408 -0.0864  0.1888
  178SAPS  H13X20393   3.860   2.950   5.446 -1.0525 -0.0814  2.4943
  178SAPS  H13Y20394   3.719   3.063   5.474 -1.6148 -0.9718 -2.5602
  178SAPS  C31420395   3.919   3.150   5.492 -0.2297  0.0026 -0.0126
  178SAPS  H14X20396   3.896   3.257   5.473 -4.2721 -0.7272 -0.0680
  178SAPS  H14Y20397   4.017   3.126   5.444  0.7195 -0.4578  2.0258
  178SAPS  C31520398   3.945   3.123   5.639 -0.6824  0.3467  0.6144
  178SAPS  H15X20399   4.036   3.174   5.677  0.2884 -0.7249 -0.2132
  178SAPS  H15Y20400   3.968   3.016   5.657 -0.4138  0.3364  0.2042
  178SAPS  C31620401   3.814   3.162   5.715  0.2548  0.1259  0.4291
  178SAPS  H16X20402   3.719   3.114   5.683  0.0989  1.2428 -0.8887
  178SAPS  H16Y20403   3.802   3.267   5.681  0.1519 -0.5250 -1.6721
  178SAPS  C31720404   3.840   3.168   5.862  0.1889 -0.4439  0.0674
  178SAPS  H17X20405   3.943   3.206   5.878  0.0542 -0.3827  0.8177
  178SAPS  H17Y20406   3.829   3.067   5.906  1.8757 -2.2555 -3.2817
  178SAPS  C31820407   3.743   3.261   5.932  0.1699  0.3240 -0.4157
  178SAPS  H18X20408   3.741   3.366   5.895  0.5637  0.7062  0.6049
  178SAPS  H18Y20409   3.759   3.266   6.042  1.1460 -0.0247 -0.5358
  178SAPS  H18Z20410   3.637   3.228   5.924 -0.2807  1.0556  1.7423
  179SAPS     N20411   4.543   6.430   3.557 -0.1038 -0.4770 -0.9505
  179SAPS   HN120412   4.448   6.433   3.515 -0.3980 -0.7876 -0.3252
  179SAPS   HN220413   4.574   6.331   3.569 -1.0203 -0.6035  0.6004
  179SAPS   HN320414   4.541   6.473   3.652  1.7129  1.3865 -1.6661
  179SAPS   C1220415   4.640   6.514   3.486 -0.6085  0.5516  0.3700
  179SAPS  H12A20416   4.740   6.509   3.526 -1.1024 -1.6850  1.4534
  179SAPS   C1320417   4.644   6.485   3.330 -0.1346  0.2529 -0.3758
  179SAPS  O13A20418   4.562   6.402   3.281  0.1307  0.6622 -0.5040
  179SAPS  O13B20419   4.714   6.560   3.252  0.0906  0.2421 -0.2446
  179SAPS   C1120420   4.590   6.665   3.492  0.2662  0.2384 -0.5063
  179SAPS  H11A20421   4.488   6.664   3.448  0.4948  0.6123 -1.0545
  179SAPS  H11B20422   4.656   6.733   3.435  1.9775 -0.3671  0.6798
  179SAPS     P20423   4.592   6.850   3.678  0.0302  0.0081  0.2561
  179SAPS   O1320424   4.727   6.879   3.731 -0.0216  0.2673 -0.0943
  179SAPS   O1420425   4.540   6.942   3.572  0.5053  0.5067  0.5184
  179SAPS   O1220426   4.585   6.704   3.632 -0.3732  0.4124  0.2081
  179SAPS   O1120427   4.496   6.861   3.806  0.0934  0.0469 -0.2022
  179SAPS    C120428   4.418   6.770   3.874  0.1245 -0.1774  0.2989
  179SAPS    HA20429   4.427   6.669   3.827  1.4283 -0.2227  0.5933
  179SAPS    HB20430   4.472   6.766   3.971  2.6531  3.1177 -0.7783
  179SAPS    C220431   4.260   6.796   3.872  0.0215 -0.2358  0.8447
  179SAPS    HS20432   4.242   6.849   3.776 -0.8522 -1.1621  0.4741
  179SAPS   O2120433   4.214   6.872   3.977  0.1467 -0.4777  0.3025
  179SAPS   C2120434   4.256   7.003   3.982 -0.3535  0.0003 -0.0937
  179SAPS   O2220435   4.296   7.074   3.895 -0.0238 -0.6573  0.1995
  179SAPS   C2220436   4.239   7.043   4.125 -0.1306 -0.5820 -0.4522
  179SAPS   H2R20437   4.128   7.048   4.131 -0.1183 -1.7366  1.6808
  179SAPS   H2S20438   4.281   6.965   4.191  1.7049  1.2593  0.6996
  179SAPS    C320439   4.168   6.666   3.870  0.1681 -0.1473 -0.0237
  179SAPS    HX20440   4.180   6.617   3.771 -1.0890 -0.2864 -0.1234
  179SAPS    HY20441   4.061   6.694   3.874 -0.1139 -1.1186 -0.4953
  179SAPS   O3120442   4.211   6.576   3.973 -0.3757  0.2271 -0.2182
  179SAPS   C3120443   4.158   6.595   4.088 -0.3546  0.8406 -0.1464
  179SAPS   O3220444   4.067   6.670   4.114  1.1917 -0.1199 -0.7385
  179SAPS   C3220445   4.251   6.520   4.189  0.4823  0.0803  0.0701
  179SAPS   H2X20446   4.354   6.511   4.149  0.2398  2.2537 -1.2036
  179SAPS   H2Y20447   4.207   6.418   4.190  0.9394 -0.1487  2.2701
  179SAPS   C2320448   4.306   7.176   4.164  0.2046 -0.1267  0.8904
  179SAPS   H3R20449   4.256   7.223   4.252  1.2961  2.7778  0.0724
  179SAPS   H3S20450   4.287   7.251   4.085 -1.1747 -0.0156  1.3056
  179SAPS   C2420451   4.454   7.167   4.205  0.1318 -0.3123  0.0460
  179SAPS   H4R20452   4.457   7.136   4.312  1.3048 -2.1968 -0.4833
  179SAPS   H4S20453   4.495   7.269   4.189 -0.4006 -0.3330 -1.5840
  179SAPS   C2520454   4.542   7.075   4.120 -0.1836 -0.3116 -0.7291
  179SAPS   H5R20455   4.577   7.121   4.027 -1.4813 -3.3962 -2.8982
  179SAPS   C2620456   4.589   6.943   4.141  0.2233  0.5942 -0.0236
  179SAPS   H6R20457   4.636   6.896   4.054 -0.6864 -2.0047  0.7928
  179SAPS   C2720458   4.561   6.850   4.256 -0.2958 -0.1011 -0.7106
  179SAPS   H7R20459   4.511   6.755   4.225  1.8813 -1.5623  0.0265
  179SAPS   H7S20460   4.496   6.909   4.324  2.4492  0.1518  1.9101
  179SAPS   C2820461   4.690   6.808   4.318 -0.0052 -0.0677 -0.0582
  179SAPS   H8R20462   4.743   6.723   4.273 -0.4426 -0.6789  0.5678
  179SAPS   C2920463   4.755   6.857   4.425 -0.0371  0.1156 -0.2809
  179SAPS   H9R20464   4.858   6.826   4.449 -0.3521 -0.4306  0.4418
  179SAPS  C21020465   4.705   6.967   4.510 -0.5824 -0.3172 -1.0315
  179SAPS  H10R20466   4.736   6.939   4.613 -0.3123  2.1429 -0.3914
  179SAPS  H10S20467   4.595   6.974   4.519 -0.3829  0.9781  1.0562
  179SAPS  C21120468   4.756   7.105   4.463 -0.4346  0.0851 -0.5729
  179SAPS  H11R20469   4.740   7.130   4.357 -0.6398  1.9164 -0.1330
  179SAPS  C21220470   4.819   7.195   4.531 -0.1956 -0.1082 -0.0335
  179SAPS  H12R20471   4.859   7.283   4.478 -0.0087 -0.6123 -0.7530
  179SAPS  C21320472   4.850   7.182   4.675 -0.9495  0.2102  0.1190
  179SAPS  H13R20473   4.956   7.150   4.692 -1.2122 -0.3149  0.8441
  179SAPS  H13S20474   4.809   7.093   4.728 -2.2648  1.4482  1.2870
  179SAPS  C21420475   4.814   7.309   4.749  0.5533  0.2274 -0.4883
  179SAPS  H14R20476   4.705   7.324   4.759  0.6917  1.8297 -1.0502
  179SAPS  C21520477   4.900   7.399   4.806  0.9794 -0.7082 -0.1955
  179SAPS  H15R20478   4.864   7.477   4.874 -0.4068 -0.3598 -1.2902
  179SAPS  C21620479   5.049   7.388   4.788 -0.4944 -0.2062 -0.0008
  179SAPS  H16R20480   5.079   7.296   4.733  0.9976  1.1535 -1.5619
  179SAPS  H16S20481   5.088   7.379   4.891 -0.8366  2.0283  0.3742
  179SAPS  C21720482   5.113   7.506   4.709 -0.4060  0.5589  0.2773
  179SAPS  H17R20483   5.224   7.509   4.705 -0.2581 -2.1166  0.7561
  179SAPS  H17S20484   5.082   7.603   4.754  3.3315  1.6375  0.8809
  179SAPS  C21820485   5.050   7.517   4.563 -0.4808  0.7695  0.6712
  179SAPS  H18R20486   4.943   7.488   4.570 -0.3950  0.0130 -0.8048
  179SAPS  H18S20487   5.096   7.440   4.498 -0.6361  1.1740  0.0716
  179SAPS  C21920488   5.045   7.652   4.512 -0.4648 -0.6765  0.6426
  179SAPS  H19R20489   5.144   7.696   4.537 -0.1415 -0.0283 -1.5279
  179SAPS  H19S20490   4.976   7.723   4.562 -0.1231  0.9268 -1.0283
  179SAPS  C22020491   5.025   7.662   4.355  0.0814 -0.2068 -0.6959
  179SAPS  H20R20492   5.073   7.759   4.327 -0.0473 -0.1352 -0.6721
  179SAPS  H20S20493   4.916   7.671   4.337  0.1449  0.2770 -0.8728
  179SAPS  H20T20494   5.059   7.573   4.299 -0.2776 -0.1241 -1.0524
  179SAPS   C3320495   4.256   6.593   4.327 -0.0065  0.3117  0.6986
  179SAPS   H3X20496   4.149   6.595   4.356 -0.0713  1.1493  0.4283
  179SAPS   H3Y20497   4.296   6.695   4.312 -0.4205  0.4598  0.5979
  179SAPS   C3420498   4.337   6.517   4.433 -0.9843  0.1262  0.1694
  179SAPS   H4X20499   4.431   6.489   4.381 -1.5630 -0.9228 -0.3461
  179SAPS   H4Y20500   4.288   6.423   4.466 -3.1945  0.4653 -1.8817
  179SAPS   C3520501   4.367   6.605   4.558  0.4491  0.5707  0.1989
  179SAPS   H5X20502   4.434   6.688   4.529 -0.4885  0.6215 -2.0338
  179SAPS   H5Y20503   4.418   6.540   4.633  0.3049 -0.2942 -0.4349
  179SAPS   C3620504   4.245   6.663   4.632  0.5981  0.3454 -0.0210
  179SAPS   H6X20505   4.185   6.573   4.659  0.4979  1.0209  2.2878
  179SAPS   H6Y20506   4.177   6.724   4.570  0.6291 -0.3789 -0.7794
  179SAPS   C3720507   4.282   6.738   4.762  0.3162 -0.6133  0.1601
  179SAPS   H7X20508   4.197   6.799   4.798 -0.5810 -1.8337  0.1536
  179SAPS   H7Y20509   4.363   6.811   4.738 -0.6346  0.5978  0.5141
  179SAPS   C3820510   4.308   6.651   4.878  0.5344  0.5145  0.1874
  179SAPS   H8X20511   4.409   6.607   4.862 -0.0533 -0.5915 -0.5336
  179SAPS   H8Y20512   4.235   6.568   4.873 -1.5783  2.3681 -1.2470
  179SAPS   C3920513   4.302   6.724   5.008 -0.0159  0.8670 -0.0415
  179SAPS   H9X20514   4.197   6.746   5.038 -0.8069 -0.4384 -1.6848
  179SAPS   H9Y20515   4.365   6.816   5.011 -0.3435  1.0750  1.3533
  179SAPS  C31020516   4.360   6.632   5.115 -0.0464  0.1520  0.2824
  179SAPS  H10X20517   4.460   6.589   5.091 -1.1452 -1.9957 -0.7577
  179SAPS  H10Y20518   4.290   6.545   5.120 -0.1548  0.3097  1.6676
  179SAPS  C31120519   4.358   6.691   5.260  0.3602  0.3480  0.6576
  179SAPS  H11X20520   4.416   6.786   5.267 -0.6452  0.9432  1.0808
  179SAPS  H11Y20521   4.415   6.629   5.333  0.6397  2.0156  1.9158
  179SAPS  C31220522   4.221   6.729   5.309  1.0325  0.2870  0.5027
  179SAPS  H12X20523   4.154   6.642   5.295 -0.3386  1.3501  0.2988
  179SAPS  H12Y20524   4.183   6.818   5.255  0.0783 -0.6837 -0.4706
  179SAPS  C31320525   4.220   6.755   5.460  0.2656 -0.3777 -0.4210
  179SAPS  H13X20526   4.123   6.795   5.498  1.0800 -0.0971  1.4940
  179SAPS  H13Y20527   4.305   6.822   5.485 -1.4776  2.0289 -0.5764
  179SAPS  C31420528   4.232   6.631   5.533  0.2475 -0.7507  0.3217
  179SAPS  H14X20529   4.334   6.591   5.518 -0.0817 -1.6993  0.5425
  179SAPS  H14Y20530   4.166   6.558   5.481 -0.8895  0.8452 -0.5775
  179SAPS  C31520531   4.196   6.635   5.687  0.1169  0.0274  0.9667
  179SAPS  H15X20532   4.214   6.528   5.712  2.4185 -0.6768 -2.7962
  179SAPS  H15Y20533   4.091   6.664   5.705  0.0228 -1.2455  2.7213
  179SAPS  C31620534   4.295   6.710   5.784 -0.0810 -0.1974 -0.5880
  179SAPS  H16X20535   4.328   6.808   5.745 -1.0353  1.3741  2.1887
  179SAPS  H16Y20536   4.386   6.648   5.789  0.6503  0.8855 -0.1491
  179SAPS  C31720537   4.235   6.737   5.918  0.3485 -0.0955 -0.0876
  179SAPS  H17X20538   4.197   6.643   5.963  3.8089 -0.8208  1.7230
  179SAPS  H17Y20539   4.149   6.806   5.909 -0.2064 -0.2207  3.1529
  179SAPS  C31820540   4.338   6.792   6.023 -0.2852  0.6103  0.3005
  179SAPS  H18X20541   4.281   6.823   6.114  0.9482  0.6052  1.1039
  179SAPS  H18Y20542   4.402   6.871   5.979  1.9888 -0.1587  2.0300
  179SAPS  H18Z20543   4.407   6.710   6.050 -0.7862  0.1044  0.0621
  180SAPS     N20544   5.015   6.171   3.318 -0.6909 -0.6650 -0.4191
  180SAPS   HN120545   4.965   6.088   3.356 -1.1986  0.1579  0.7723
  180SAPS   HN220546   4.951   6.233   3.265  1.3660  0.9380 -1.2029
  180SAPS   HN320547   5.079   6.150   3.238 -1.1080 -0.2553 -0.8674
  180SAPS   C1220548   5.086   6.236   3.430 -0.4166 -0.4592 -0.2452
  180SAPS  H12A20549   5.110   6.159   3.501  0.3507 -0.4955 -0.5314
  180SAPS   C1320550   5.216   6.316   3.391  0.6512 -0.3063 -0.0285
  180SAPS  O13A20551   5.266   6.304   3.277  0.1959  0.3382 -0.5496
  180SAPS  O13B20552   5.279   6.384   3.476  0.6168  0.0911  0.1405
  180SAPS   C1120553   4.984   6.334   3.506  0.1550  0.4429 -0.0373
  180SAPS  H11A20554   4.980   6.421   3.438  0.2560 -0.7809 -1.6698
  180SAPS  H11B20555   5.032   6.349   3.605  0.0884 -1.8257  0.3837
  180SAPS     P20556   4.787   6.186   3.605  0.1816 -0.3852 -0.4317
  180SAPS   O1320557   4.645   6.178   3.583 -0.0123 -0.1715  0.1023
  180SAPS   O1420558   4.861   6.064   3.593 -0.2398 -0.1868 -0.1725
  180SAPS   O1220559   4.847   6.293   3.509  0.0584 -0.1713  0.1105
  180SAPS   O1120560   4.825   6.253   3.749  0.4794 -0.5131  0.5004
  180SAPS    C120561   4.951   6.224   3.808  0.0794 -0.5963  0.0412
  180SAPS    HA20562   5.025   6.194   3.731 -0.0477  0.7584 -0.6466
  180SAPS    HB20563   5.001   6.312   3.853 -0.2624 -1.0122  1.2714
  180SAPS    C220564   4.934   6.119   3.924 -0.0361  0.4521  0.2833
  180SAPS    HS20565   4.901   6.028   3.870 -0.2016 -0.0004  1.1221
  180SAPS   O2120566   4.826   6.172   4.000  0.4543 -0.9103 -0.2553
  180SAPS   C2120567   4.780   6.110   4.105 -0.2368 -0.6688  0.2323
  180SAPS   O2220568   4.807   5.996   4.138  0.1402  0.2039 -0.2901
  180SAPS   C2220569   4.661   6.178   4.174 -0.5119  0.2737  0.6820
  180SAPS   H2R20570   4.594   6.210   4.091 -0.3842 -0.0093  0.4673
  180SAPS   H2S20571   4.611   6.101   4.236  1.1205 -2.8090 -1.5211
  180SAPS    C320572   5.056   6.096   4.002 -0.1927 -0.3234  0.3651
  180SAPS    HX20573   5.138   6.083   3.928 -0.8390 -0.6584 -0.3069
  180SAPS    HY20574   5.042   6.002   4.059  0.0036 -0.0759  0.8282
  180SAPS   O3120575   5.092   6.213   4.086 -0.3578  0.1654  0.2510
  180SAPS   C3120576   5.202   6.179   4.153  0.0713 -0.0589 -0.5956
  180SAPS   O3220577   5.255   6.069   4.170  0.6684  0.3249 -0.6105
  180SAPS   C3220578   5.266   6.311   4.204  0.0070  0.1127  0.4503
  180SAPS   H2X20579   5.280   6.379   4.117  2.2162 -1.9326 -0.9064
  180SAPS   H2Y20580   5.374   6.292   4.219  0.1635  0.3895 -0.2995
  180SAPS   C2320581   4.705   6.308   4.239 -0.6252 -0.0192 -0.3015
  180SAPS   H3R20582   4.616   6.372   4.259  0.5361  1.5334  0.1207
  180SAPS   H3S20583   4.765   6.370   4.169 -0.0873  0.8335  0.8666
  180SAPS   C2420584   4.793   6.306   4.369 -0.1605  0.2668  1.1606
  180SAPS   H4R20585   4.889   6.251   4.364  1.0300  2.3848 -2.2443
  180SAPS   H4S20586   4.735   6.257   4.451 -0.6766 -1.7104 -0.3016
  180SAPS   C2520587   4.843   6.448   4.400 -0.2609  0.2817  0.6914
  180SAPS   H5R20588   4.894   6.506   4.322 -1.1854 -0.1079 -0.2063
  180SAPS   C2620589   4.837   6.507   4.521  0.2188  0.4861 -0.1888
  180SAPS   H6R20590   4.890   6.603   4.537 -0.9547  0.9632  0.9715
  180SAPS   C2720591   4.766   6.461   4.644 -0.0520  0.2577  0.9736
  180SAPS   H7R20592   4.840   6.398   4.699  1.5861  1.6261  0.4239
  180SAPS   H7S20593   4.679   6.398   4.617  0.2515 -0.5084  1.7176
  180SAPS   C2820594   4.719   6.586   4.718 -0.1331  0.0516 -0.8446
  180SAPS   H8R20595   4.671   6.665   4.660  1.1649  1.3249 -0.2399
  180SAPS   C2920596   4.700   6.579   4.855 -0.0435  0.0572 -0.4209
  180SAPS   H9R20597   4.645   6.661   4.903  0.4823  0.0860  0.1523
  180SAPS  C21020598   4.747   6.471   4.954  0.7582 -0.4258  0.5183
  180SAPS  H10R20599   4.778   6.380   4.899  1.1159 -0.8164  1.3429
  180SAPS  H10S20600   4.663   6.422   5.008 -0.0799  1.0334  0.5877
  180SAPS  C21120601   4.850   6.530   5.045 -0.5422  0.5882  0.5692
  180SAPS  H11R20602   4.940   6.572   4.998 -1.3160 -0.2803 -1.8419
  180SAPS  C21220603   4.842   6.533   5.180 -0.8211  0.1884  0.4805
  180SAPS  H12R20604   4.924   6.583   5.235  1.8471 -0.2792 -2.7925
  180SAPS  C21320605   4.733   6.480   5.263  0.1962 -0.3939  0.3232
  180SAPS  H13R20606   4.779   6.408   5.333 -0.5857 -0.4189  0.8199
  180SAPS  H13S20607   4.660   6.418   5.206 -1.8226  0.9843  1.3038
  180SAPS  C21420608   4.663   6.587   5.344 -0.7465 -0.0109 -0.1212
  180SAPS  H14R20609   4.629   6.659   5.268 -0.2628 -0.5781 -0.8966
  180SAPS  C21520610   4.638   6.605   5.479  0.8992  1.3439 -0.4714
  180SAPS  H15R20611   4.596   6.699   5.518 -1.6779  1.5841 -3.4585
  180SAPS  C21620612   4.665   6.495   5.581  0.1822 -0.5752  0.5004
  180SAPS  H16R20613   4.690   6.403   5.525 -1.0948 -0.5380 -0.1853
  180SAPS  H16S20614   4.576   6.468   5.642 -0.0056 -2.1032 -0.4057
  180SAPS  C21720615   4.768   6.536   5.689 -0.2029  0.2533 -0.2947
  180SAPS  H17R20616   4.865   6.568   5.647 -1.1898  2.5790 -0.9378
  180SAPS  H17S20617   4.772   6.437   5.739 -0.1858  1.4924  2.2978
  180SAPS  C21820618   4.717   6.629   5.801  0.0778  0.3647  0.0053
  180SAPS  H18R20619   4.613   6.602   5.829 -0.0976  0.0927 -0.8656
  180SAPS  H18S20620   4.711   6.734   5.765  1.4661  1.3119  2.3213
  180SAPS  C21920621   4.808   6.627   5.932  0.0654 -0.0012 -0.2936
  180SAPS  H19R20622   4.748   6.690   6.001 -0.8154 -2.0403  0.8965
  180SAPS  H19S20623   4.908   6.670   5.907  0.1587 -1.0220 -1.7778
  180SAPS  C22020624   4.820   6.495   6.013 -0.0822 -0.0727  0.3794
  180SAPS  H20R20625   4.875   6.515   6.107 -3.4008  0.3588  2.4024
  180SAPS  H20S20626   4.721   6.450   6.037 -1.2403  1.0060 -2.0669
  180SAPS  H20T20627   4.886   6.422   5.962 -1.0492 -0.9913  0.3972
  180SAPS   C3320628   5.218   6.374   4.336  0.1138 -0.0651  0.1661
  180SAPS   H3X20629   5.111   6.403   4.331  0.3144  0.6731  0.0946
  180SAPS   H3Y20630   5.283   6.463   4.352  0.6502 -0.7464  2.1511
  180SAPS   C3420631   5.226   6.275   4.456 -0.3328  0.0262 -0.0901
  180SAPS   H4X20632   5.332   6.245   4.472 -0.4168  0.1804  0.8067
  180SAPS   H4Y20633   5.172   6.183   4.425  0.9858 -0.7271 -0.2391
  180SAPS   C3520634   5.163   6.338   4.581 -0.1374 -0.1555  1.0626
  180SAPS   H5X20635   5.054   6.341   4.564 -0.3831  2.8433  2.4478
  180SAPS   H5Y20636   5.194   6.444   4.596 -0.9169  0.3765 -0.8009
  180SAPS   C3620637   5.188   6.264   4.706  0.3424  0.6756 -0.5398
  180SAPS   H6X20638   5.268   6.189   4.686  0.8666  1.5938 -1.9949
  180SAPS   H6Y20639   5.100   6.212   4.749  1.9587 -1.4341  0.4113
  180SAPS   C3720640   5.214   6.363   4.820 -0.0783  0.2288 -0.1512
  180SAPS   H7X20641   5.136   6.443   4.821 -0.5070 -0.1842 -0.2913
  180SAPS   H7Y20642   5.308   6.411   4.785 -0.4936  1.2430  0.0885
  180SAPS   C3820643   5.222   6.305   4.960  0.6949  0.2689  0.2749
  180SAPS   H8X20644   5.310   6.238   4.968  0.2375 -0.4327 -0.3802
  180SAPS   H8Y20645   5.129   6.248   4.978  0.5597  1.1486  2.5984
  180SAPS   C3920646   5.235   6.419   5.063 -0.3005  0.4774  0.3176
  180SAPS   H9X20647   5.235   6.378   5.166  0.7229 -0.5437 -0.0619
  180SAPS   H9Y20648   5.141   6.479   5.065 -0.0590  0.8427  2.3237
  180SAPS  C31020649   5.357   6.517   5.040 -0.2249 -0.1380  0.3434
  180SAPS  H10X20650   5.346   6.576   4.946  1.6468  3.3440  2.1345
  180SAPS  H10Y20651   5.444   6.449   5.032  1.9974  2.6260 -0.2779
  180SAPS  C31120652   5.384   6.612   5.147  0.4998  0.0373 -0.6613
  180SAPS  H11X20653   5.296   6.675   5.171  1.2605  0.6344  0.6840
  180SAPS  H11Y20654   5.468   6.676   5.114  1.0911  0.7059  1.8906
  180SAPS  C31220655   5.437   6.547   5.277 -0.2748 -0.5628 -0.1074
  180SAPS  H12X20656   5.498   6.459   5.245 -0.4544 -0.2587 -1.3519
  180SAPS  H12Y20657   5.346   6.506   5.326 -0.7210 -1.9504 -1.9578
  180SAPS  C31320658   5.515   6.644   5.371  0.2525 -0.3619  0.2350
  180SAPS  H13X20659   5.460   6.739   5.390 -1.0779 -0.7568 -1.3705
  180SAPS  H13Y20660   5.604   6.683   5.319  0.5871 -1.2800  0.1060
  180SAPS  C31420661   5.581   6.571   5.495 -0.4986 -0.3972 -0.2242
  180SAPS  H14X20662   5.499   6.507   5.534 -1.9134  0.6665 -1.3626
  180SAPS  H14Y20663   5.594   6.654   5.567 -0.5744 -0.3150 -0.3043
  180SAPS  C31520664   5.717   6.503   5.485  0.0110  0.1775  0.4893
  180SAPS  H15X20665   5.797   6.555   5.427  0.4982  2.3769  2.9548
  180SAPS  H15Y20666   5.706   6.410   5.425 -1.6058  1.1666 -0.8409
  180SAPS  C31620667   5.781   6.453   5.614  0.0724  0.0531  0.4342
  180SAPS  H16X20668   5.805   6.538   5.681  0.5546 -0.0438  0.3912
  180SAPS  H16Y20669   5.878   6.409   5.581 -0.0635 -0.8008  1.1462
  180SAPS  C31720670   5.684   6.357   5.694 -0.3412 -0.2743  0.1843
  180SAPS  H17X20671   5.668   6.263   5.637 -0.0813 -0.7353  0.8525
  180SAPS  H17Y20672   5.586   6.405   5.717 -0.7331 -0.5712 -0.8366
  180SAPS  C31820673   5.750   6.322   5.824 -0.3973  0.1563 -0.5607
  180SAPS  H18X20674   5.682   6.245   5.864  0.3183  0.1790  0.7546
  180SAPS  H18Y20675   5.747   6.409   5.893 -0.4826 -0.0050 -0.3588
  180SAPS  H18Z20676   5.849   6.276   5.800 -0.7541  0.1244 -2.0934
  181POPC     N20677   3.839   1.808   8.312  0.5044  0.0643  0.2631
  181POPC   C1220678   3.949   1.819   8.209  0.7470  0.9917 -0.4382
  181POPC  H12A20679   3.981   1.718   8.191  2.7536  1.3326  0.9060
  181POPC  H12B20680   4.039   1.861   8.251  0.6544 -0.8250  1.7707
  181POPC   C1320681   3.879   1.716   8.417  0.7642  0.4893 -0.0439
  181POPC  H13A20682   3.804   1.669   8.477  2.7660 -1.4507  1.1021
  181POPC  H13B20683   3.923   1.628   8.371 -0.6755 -1.1571  1.5711
  181POPC  H13C20684   3.959   1.762   8.474 -0.4340  1.4069  0.9452
  181POPC   C1420685   3.824   1.944   8.379 -0.2621  0.1465  0.0765
  181POPC  H14A20686   3.917   1.968   8.427  0.7672  1.6351 -2.4265
  181POPC  H14B20687   3.803   2.011   8.296  2.2059  0.0317 -0.7131
  181POPC  H14C20688   3.755   1.944   8.461  1.1224  0.4312  1.2747
  181POPC   C1520689   3.706   1.771   8.252 -0.2140  0.2307 -0.6298
  181POPC  H15A20690   3.725   1.705   8.168  0.9173  1.5997 -1.5099
  181POPC  H15B20691   3.664   1.862   8.211  1.5220  1.5109  0.2950
  181POPC  H15C20692   3.649   1.733   8.335  2.0506 -1.0405  0.4313
  181POPC   C1120693   3.936   1.909   8.082  0.0312 -0.3806  0.0233
  181POPC  H11A20694   3.857   1.878   8.011 -0.0361  0.9646 -0.5170
  181POPC  H11B20695   4.031   1.900   8.024  0.5045  0.5848  0.6192
  181POPC     P20696   4.032   2.138   8.150  0.0812 -0.3502 -0.0585
  181POPC   O1320697   4.129   2.079   8.241 -0.7522 -0.7919 -0.1829
  181POPC   O1420698   3.981   2.265   8.197 -0.3038 -0.1600 -0.5708
  181POPC   O1220699   3.911   2.048   8.121 -0.1739 -0.7414  0.2222
  181POPC   O1120700   4.097   2.153   8.009 -0.2062  0.3558  0.5142
  181POPC    C120701   4.037   2.233   7.905  0.2892 -0.0672  0.4148
  181POPC    HA20702   4.118   2.295   7.860 -0.1998  0.3342  0.0700
  181POPC    HB20703   3.961   2.306   7.942 -1.3727 -1.6032  0.2002
  181POPC    C220704   3.974   2.145   7.803  0.3163  0.4087  0.2957
  181POPC    HS20705   3.898   2.082   7.855 -2.5892  1.9790 -1.7653
  181POPC   O2120706   4.074   2.067   7.736  0.1449 -0.2214 -0.3221
  181POPC   C2120707   4.031   1.953   7.683  0.4629  0.1805 -0.3117
  181POPC   O2220708   3.911   1.924   7.678 -0.4495  0.3072  0.5495
  181POPC   C2220709   4.145   1.865   7.641  0.0425 -0.1838  0.0589
  181POPC   H2R20710   4.109   1.766   7.606  0.6702  0.4573 -2.6457
  181POPC   H2S20711   4.204   1.840   7.731  2.0529 -0.6344 -1.3081
  181POPC    C320712   3.877   2.221   7.703 -0.4610 -0.0606  0.2778
  181POPC    HX20713   3.809   2.290   7.756  0.4225  0.3260  0.9320
  181POPC    HY20714   3.811   2.143   7.658 -0.7317  0.8589 -0.9810
  181POPC   O3120715   3.949   2.281   7.591 -0.1556 -0.1573  0.3733
  181POPC   C3120716   3.978   2.405   7.599  0.0519  0.3613 -0.5002
  181POPC   O3220717   3.953   2.480   7.690  0.7065 -0.2751  0.3770
  181POPC   C3220718   4.040   2.458   7.469  0.1242  0.5831  1.1005
  181POPC   H2X20719   4.146   2.486   7.483  0.2882  1.4644 -1.4379
  181POPC   H2Y20720   4.004   2.562   7.452  1.7524  1.0366  0.2523
  181POPC   C2320721   4.233   1.917   7.528  0.3281 -0.2463 -0.1884
  181POPC   H3R20722   4.339   1.884   7.543  0.6154  0.1759 -1.1918
  181POPC   H3S20723   4.238   2.027   7.541  0.2236 -0.2283 -0.3053
  181POPC   C2420724   4.169   1.897   7.387  0.1353  0.5203  0.5915
  181POPC   H4R20725   4.063   1.928   7.382 -1.0869 -3.2209 -0.5075
  181POPC   H4S20726   4.161   1.789   7.362  0.1195  1.1003 -2.1449
  181POPC   C2520727   4.249   1.961   7.269 -0.5869  0.4161 -0.3925
  181POPC   H5R20728   4.344   1.904   7.266 -1.7174 -1.7024  1.3667
  181POPC   H5S20729   4.260   2.063   7.311  0.4640  0.5875 -1.0634
  181POPC   C2620730   4.176   1.968   7.142 -0.3472 -0.1798  0.4639
  181POPC   H6R20731   4.114   2.059   7.154  1.8558  1.5146 -0.3831
  181POPC   H6S20732   4.114   1.875   7.137  0.9316 -1.0068 -0.8621
  181POPC   C2720733   4.277   1.976   7.023 -0.0584 -0.4859 -0.2429
  181POPC   H7R20734   4.350   1.893   7.036  0.5051  0.1314  0.7260
  181POPC   H7S20735   4.342   2.066   7.032 -1.1175  0.5284 -2.0667
  181POPC   C2820736   4.205   1.979   6.892 -0.2215 -0.0352  0.4248
  181POPC   H8R20737   4.143   2.071   6.891  0.5227  0.4788  0.2079
  181POPC   H8S20738   4.143   1.887   6.889 -0.4073  0.0308  1.7670
  181POPC   C2920739   4.309   1.991   6.786 -0.3690 -0.1623  0.4007
  181POPC   H9120740   4.347   2.093   6.767  0.5559 -0.2405  1.6982
  181POPC  C21020741   4.382   1.891   6.721  0.6181  0.0017  0.1369
  181POPC  H10120742   4.461   1.916   6.649  0.0153 -0.9247 -0.8822
  181POPC  C21120743   4.371   1.747   6.728  0.7843  0.1943  0.4338
  181POPC  H11R20744   4.277   1.717   6.779 -0.7420  1.0351 -1.7032
  181POPC  H11S20745   4.463   1.717   6.782  4.1613  4.0947 -2.5295
  181POPC  C21220746   4.360   1.669   6.587 -0.5097 -0.2240 -0.5608
  181POPC  H12R20747   4.267   1.705   6.538 -1.3636 -0.7800  0.6051
  181POPC  H12S20748   4.342   1.563   6.613  2.5748 -0.6844  0.0376
  181POPC  C21320749   4.490   1.692   6.501 -0.5796 -0.9330 -0.0469
  181POPC  H13R20750   4.572   1.625   6.536  0.0005 -1.7953 -2.7701
  181POPC  H13S20751   4.536   1.793   6.501 -0.6017 -0.9128  1.0459
  181POPC  C21420752   4.472   1.634   6.355  0.2721  0.6215 -0.5876
  181POPC  H14R20753   4.429   1.703   6.280  3.4577  2.0303 -1.2969
  181POPC  H14S20754   4.421   1.536   6.364  0.2625  0.6579 -0.2188
  181POPC  C21520755   4.610   1.605   6.284 -0.1951 -0.0961 -0.1967
  181POPC  H15R20756   4.588   1.535   6.200  2.8667  1.8367 -2.8508
  181POPC  H15S20757   4.677   1.553   6.356 -1.1016 -1.6576 -0.4236
  181POPC  C21620758   4.682   1.736   6.243  0.7428  0.0423  0.8500
  181POPC  H16R20759   4.734   1.784   6.329  0.2847  1.2641  0.4701
  181POPC  H16S20760   4.604   1.802   6.200 -0.2909  0.2877  2.9390
  181POPC  C21720761   4.800   1.714   6.146 -0.4294  0.3429 -0.2178
  181POPC  H17R20762   4.755   1.663   6.058  0.0434 -1.2252  0.4119
  181POPC  H17S20763   4.873   1.647   6.197 -0.4938 -0.2679 -0.9067
  181POPC  C21820764   4.864   1.850   6.098  0.0002 -0.2691  0.0134
  181POPC  H18R20765   4.787   1.912   6.048  0.1749 -0.9193 -1.0907
  181POPC  H18S20766   4.946   1.832   6.025 -0.0591 -0.0905 -0.0959
  181POPC  H18T20767   4.907   1.907   6.183 -0.8149  0.2522  0.0787
  181POPC   C3320768   4.043   2.369   7.339 -0.5565 -0.0045 -0.1696
  181POPC   H3X20769   3.941   2.327   7.321 -0.1044 -0.9212 -0.6309
  181POPC   H3Y20770   4.113   2.284   7.345 -0.1593  0.3932  1.9313
  181POPC   C3420771   4.086   2.452   7.216  0.3679 -0.3360  1.2073
  181POPC   H4X20772   4.172   2.511   7.254  1.0119 -0.5142  0.0691
  181POPC   H4Y20773   4.007   2.529   7.203  0.0057 -0.6935  1.2559
  181POPC   C3520774   4.101   2.373   7.088 -0.1274 -0.2197 -0.0659
  181POPC   H5X20775   4.005   2.340   7.044 -0.5294  2.1626 -1.1651
  181POPC   H5Y20776   4.181   2.297   7.097  1.4210  1.5490  2.9200
  181POPC   C3620777   4.152   2.476   6.979 -0.1192 -0.1505 -0.2404
  181POPC   H6X20778   4.245   2.522   7.019 -1.0212  0.9677  0.6023
  181POPC   H6Y20779   4.067   2.545   6.966 -0.9157 -1.0667 -0.0265
  181POPC   C3720780   4.186   2.407   6.850  0.3195  0.6611 -0.0066
  181POPC   H7X20781   4.213   2.300   6.854  0.2674  0.5976 -1.0270
  181POPC   H7Y20782   4.273   2.462   6.808  0.5009 -1.3760 -2.5068
  181POPC   C3820783   4.067   2.408   6.745 -0.8977  0.7654 -0.6709
  181POPC   H8X20784   3.975   2.395   6.805  0.0693 -1.8799  0.4326
  181POPC   H8Y20785   4.066   2.309   6.695 -3.3346  0.4269 -0.0578
  181POPC   C3920786   4.043   2.535   6.667  0.4116 -0.6376  0.5768
  181POPC   H9X20787   4.125   2.556   6.595 -0.2002 -1.0241 -0.2474
  181POPC   H9Y20788   4.043   2.615   6.744  3.6334 -0.5970  0.6897
  181POPC  C31020789   3.925   2.543   6.568  0.0435  0.2813 -0.7700
  181POPC  H10X20790   3.842   2.570   6.637 -0.2521 -1.5609 -0.3510
  181POPC  H10Y20791   3.899   2.453   6.508 -0.3648  0.8118 -1.3978
  181POPC  C31120792   3.952   2.657   6.465  0.6667 -0.7858  0.5693
  181POPC  H11X20793   4.018   2.633   6.379  0.7337  1.7041 -0.1411
  181POPC  H11Y20794   3.996   2.746   6.515 -0.5806  0.2348 -0.0758
  181POPC  C31220795   3.822   2.698   6.401  0.4056 -0.2390  0.1799
  181POPC  H12X20796   3.743   2.718   6.476 -0.2402  1.5794 -0.9144
  181POPC  H12Y20797   3.775   2.616   6.344 -2.1474  2.0590 -1.2459
  181POPC  C31320798   3.832   2.811   6.296  0.2971 -0.3111 -0.3453
  181POPC  H13X20799   3.891   2.770   6.211 -1.1157 -1.6852 -0.7017
  181POPC  H13Y20800   3.882   2.898   6.344 -1.4331 -0.0400  1.0887
  181POPC  C31420801   3.688   2.846   6.241 -0.1990 -0.1404  0.0420
  181POPC  H14X20802   3.624   2.908   6.308  2.6202  0.8432  2.0401
  181POPC  H14Y20803   3.631   2.753   6.223 -1.0929  0.1871  1.0822
  181POPC  C31520804   3.698   2.929   6.114  0.4141  0.0376 -0.3298
  181POPC  H15X20805   3.777   2.883   6.051  0.2126  1.3685 -1.6036
  181POPC  H15Y20806   3.734   3.033   6.131 -0.5607  0.4995 -0.9872
  181POPC  C31620807   3.569   2.930   6.030  0.2799  0.1058 -0.1846
  181POPC  H16X20808   3.485   2.983   6.080  0.5315 -0.4553  0.8391
  181POPC  H16Y20809   3.531   2.828   6.009  1.8776 -0.3275 -1.0958
  181POPC  H16Z20810   3.590   2.986   5.936 -0.5811  0.7489 -0.0078
  182POPC     N20811   0.489   6.749   8.011  0.3343 -0.0210  0.6458
  182POPC   C1220812   0.632   6.782   8.015 -0.0570  0.3835  0.1369
  182POPC  H12A20813   0.679   6.714   7.946 -0.0441  1.0374 -0.5090
  182POPC  H12B20814   0.674   6.758   8.111 -0.5919 -0.4966  0.1640
  182POPC   C1320815   0.400   6.852   8.082  0.1831  0.2536 -0.3223
  182POPC  H13A20816   0.302   6.812   8.104  0.3484 -0.4530 -0.8456
  182POPC  H13B20817   0.440   6.885   8.177 -0.6096 -1.0241  0.4798
  182POPC  H13C20818   0.392   6.942   8.023  1.4406 -0.2011 -1.2501
  182POPC   C1420819   0.449   6.737   7.867  0.1356  0.4912 -0.2081
  182POPC  H14A20820   0.450   6.834   7.820 -1.0856  0.1297 -1.0280
  182POPC  H14B20821   0.514   6.674   7.808  1.4161  1.3823  0.1935
  182POPC  H14C20822   0.344   6.711   7.863  0.0245  0.8961  0.0631
  182POPC   C1520823   0.475   6.619   8.082 -0.6738 -0.0663 -0.4242
  182POPC  H15A20824   0.531   6.548   8.023  0.3223  1.4085 -1.3383
  182POPC  H15B20825   0.374   6.588   8.102  0.4496 -2.7235  1.6904
  182POPC  H15C20826   0.516   6.618   8.182 -1.1256 -0.2505 -0.2430
  182POPC   C1120827   0.664   6.925   7.987  0.1481  0.1158  0.7649
  182POPC  H11A20828   0.632   6.953   7.885  1.6562 -1.0280 -0.0752
  182POPC  H11B20829   0.775   6.935   7.978 -0.0824  0.7040 -2.9690
  182POPC     P20830   0.645   7.168   8.070  0.1203  0.5586  0.5061
  182POPC   O1320831   0.790   7.179   8.042 -0.1462  0.3515 -0.1093
  182POPC   O1420832   0.598   7.245   8.191  0.0595 -0.3386  0.0877
  182POPC   O1220833   0.612   7.010   8.089 -0.0815 -0.4271  0.0920
  182POPC   O1120834   0.555   7.232   7.959 -0.3045  0.0450 -0.1903
  182POPC    C120835   0.415   7.199   7.959  0.1557  0.0313  0.1749
  182POPC    HA20836   0.367   7.180   8.058 -3.3906  1.5265 -1.0785
  182POPC    HB20837   0.397   7.113   7.891  0.7598  0.8723 -1.0832
  182POPC    C220838   0.336   7.323   7.909  0.2013  0.3617  0.0061
  182POPC    HS20839   0.227   7.300   7.906  0.1746  0.6257 -1.4883
  182POPC   O2120840   0.386   7.365   7.784  0.2854  0.3372  0.9772
  182POPC   C2120841   0.345   7.306   7.675  0.5571 -0.0589  0.9646
  182POPC   O2220842   0.264   7.212   7.670  0.2247  0.4918  0.2531
  182POPC   C2220843   0.407   7.375   7.559  0.0422  0.4190 -0.2243
  182POPC   H2R20844   0.513   7.344   7.548  0.7151  1.7974  1.8658
  182POPC   H2S20845   0.405   7.479   7.598 -2.9908 -0.6856  3.0109
  182POPC    C320846   0.364   7.443   7.998 -0.3583  0.2452 -0.9853
  182POPC    HX20847   0.471   7.467   7.984  0.0038 -1.4034 -1.1265
  182POPC    HY20848   0.346   7.416   8.104 -2.0061 -2.2145 -1.8023
  182POPC   O3120849   0.277   7.558   7.958 -0.0483  1.4503  0.0520
  182POPC   C3120850   0.331   7.674   7.941  0.4800 -0.2461 -0.3515
  182POPC   O3220851   0.446   7.708   7.968  0.9114 -0.3097 -0.1249
  182POPC   C3220852   0.214   7.766   7.900  0.1681  0.0512  0.7110
  182POPC   H2X20853   0.195   7.821   7.994 -1.7947 -1.8416  1.5363
  182POPC   H2Y20854   0.117   7.713   7.883 -0.3653  0.4240  2.3681
  182POPC   C2320855   0.341   7.364   7.420  0.1341  0.4383 -0.8164
  182POPC   H3R20856   0.376   7.448   7.356  2.7660 -0.2412 -0.4010
  182POPC   H3S20857   0.230   7.369   7.425  0.1902  0.3774  1.0743
  182POPC   C2420858   0.379   7.225   7.358  0.0509 -0.7563  0.4058
  182POPC   H4R20859   0.362   7.144   7.432 -0.2457  1.2041  2.5881
  182POPC   H4S20860   0.489   7.233   7.346 -0.0473  3.7467  0.6981
  182POPC   C2520861   0.295   7.206   7.230 -0.3287  0.3590 -0.4794
  182POPC   H5R20862   0.194   7.237   7.266 -0.3474  1.9452 -1.7784
  182POPC   H5S20863   0.293   7.097   7.209  2.6134  0.0325  0.4570
  182POPC   C2620864   0.340   7.289   7.115  0.9988  0.2576  0.3140
  182POPC   H6R20865   0.441   7.273   7.071  1.4466  0.9096  1.0919
  182POPC   H6S20866   0.348   7.393   7.154  0.6105  0.5829 -0.4442
  182POPC   C2720867   0.235   7.292   7.004  0.2873 -0.1121 -0.2016
  182POPC   H7R20868   0.130   7.317   7.029  0.4707 -0.6680  1.1740
  182POPC   H7S20869   0.234   7.195   6.948 -0.4010 -0.1796 -0.0842
  182POPC   C2820870   0.264   7.413   6.911 -0.2486  0.7678  0.0951
  182POPC   H8R20871   0.374   7.418   6.901 -0.0731 -1.3454  0.6992
  182POPC   H8S20872   0.222   7.509   6.949  0.3406  0.7007  0.9441
  182POPC   C2920873   0.207   7.387   6.772 -0.2115  0.5470 -0.0965
  182POPC   H9120874   0.097   7.395   6.761 -0.2538  0.5823  0.3626
  182POPC  C21020875   0.271   7.382   6.655 -0.3059  0.0018  0.6129
  182POPC  H10120876   0.211   7.375   6.564 -0.1265 -0.5689  0.5338
  182POPC  C21120877   0.418   7.385   6.624  0.0189  0.1306  0.0792
  182POPC  H11R20878   0.468   7.296   6.580  0.2247  1.3773 -2.3732
  182POPC  H11S20879   0.462   7.397   6.726  0.2520  0.2549 -0.0363
  182POPC  C21220880   0.475   7.507   6.544 -0.1018 -0.0796 -0.4918
  182POPC  H12R20881   0.583   7.517   6.568 -0.0546  0.0069 -0.7374
  182POPC  H12S20882   0.410   7.591   6.578 -0.1151 -0.5536  0.7016
  182POPC  C21320883   0.444   7.482   6.399 -0.4324 -0.1773  0.9189
  182POPC  H13R20884   0.337   7.457   6.385 -0.5667  1.0802 -0.5313
  182POPC  H13S20885   0.508   7.395   6.371  2.4857  1.3250  2.4430
  182POPC  C21420886   0.463   7.610   6.312  0.1996  0.4232 -0.1608
  182POPC  H14R20887   0.567   7.644   6.330  0.9020 -0.5904 -1.9818
  182POPC  H14S20888   0.386   7.680   6.351 -1.0369 -0.1635 -1.4654
  182POPC  C21520889   0.442   7.578   6.167  0.5497 -0.0623  0.0622
  182POPC  H15R20890   0.340   7.537   6.154  0.8002 -0.2923 -1.4810
  182POPC  H15S20891   0.506   7.494   6.132 -0.6875  0.3407 -3.6115
  182POPC  C21620892   0.456   7.696   6.074  0.4143  0.0533 -0.6322
  182POPC  H16R20893   0.464   7.656   5.971  0.5429 -1.7071  0.0318
  182POPC  H16S20894   0.547   7.755   6.098 -0.7981  1.5807  0.4493
  182POPC  C21720895   0.338   7.802   6.074 -0.3133 -0.4438 -0.0212
  182POPC  H17R20896   0.368   7.888   6.010  0.4925 -1.1544 -0.6257
  182POPC  H17S20897   0.309   7.832   6.177 -3.2370 -0.7499 -0.6670
  182POPC  C21820898   0.207   7.746   6.026  0.4701  0.1317  0.3001
  182POPC  H18R20899   0.121   7.816   6.038 -0.4960 -1.4376  4.2262
  182POPC  H18S20900   0.169   7.665   6.093  2.8446 -1.7632 -0.5344
  182POPC  H18T20901   0.204   7.710   5.921 -1.0728 -1.0548  0.7092
  182POPC   C3320902   0.248   7.865   7.792 -0.6570  0.4207  0.4253
  182POPC   H3X20903   0.358   7.881   7.783 -0.8726  1.6118 -0.2599
  182POPC   H3Y20904   0.185   7.956   7.787 -1.4039 -0.1089  0.0490
  182POPC   C3420905   0.220   7.789   7.665  0.2363 -0.4599 -0.2113
  182POPC   H4X20906   0.110   7.773   7.667  0.1081  0.1676 -1.2224
  182POPC   H4Y20907   0.257   7.685   7.673 -0.6322 -0.8701 -1.2363
  182POPC   C3520908   0.264   7.863   7.539 -0.1369  0.3137  0.1359
  182POPC   H5X20909   0.372   7.885   7.537 -0.4212  1.8002 -0.4718
  182POPC   H5Y20910   0.211   7.959   7.519 -1.1733 -0.7193 -2.5654
  182POPC   C3620911   0.229   7.778   7.404 -0.4475  0.1063  0.2087
  182POPC   H6X20912   0.138   7.716   7.419 -0.7668  0.4577 -0.2503
  182POPC   H6Y20913   0.307   7.700   7.391  0.3670  0.5611  2.1170
  182POPC   C3720914   0.212   7.865   7.276  0.1495 -0.4380  0.9892
  182POPC   H7X20915   0.304   7.921   7.252 -0.8591  0.9608  0.2203
  182POPC   H7Y20916   0.131   7.936   7.304  0.4094 -0.3833  1.6285
  182POPC   C3820917   0.160   7.791   7.149  0.1972 -0.2797 -0.1804
  182POPC   H8X20918   0.063   7.747   7.179 -0.2308  1.6051  1.4440
  182POPC   H8Y20919   0.230   7.708   7.125  0.7644 -0.5355  2.1641
  182POPC   C3920920   0.153   7.884   7.023  0.1238  0.7329  0.0839
  182POPC   H9X20921   0.251   7.934   7.004  1.7975 -2.6183 -0.9282
  182POPC   H9Y20922   0.079   7.963   7.046  0.8016  1.6342 -0.7083
  182POPC  C31020923   0.101   7.818   6.897 -0.2020 -0.2119  0.1329
  182POPC  H10X20924   0.010   7.759   6.921 -0.0744 -0.7760 -0.6997
  182POPC  H10Y20925   0.169   7.743   6.850 -0.4636 -0.6107  0.3771
  182POPC  C31120926   0.058   7.920   6.790 -0.3397 -0.0035 -0.6551
  182POPC  H11X20927   0.154   7.950   6.743  0.8219 -1.2902  0.7788
  182POPC  H11Y20928   0.008   8.010   6.832  1.9299  1.7877 -1.5738
  182POPC  C31220929  -0.023   7.850   6.675 -0.0038 -0.3095 -0.3356
  182POPC  H12X20930  -0.127   7.837   6.710  0.2868  1.5084  1.3870
  182POPC  H12Y20931   0.021   7.752   6.647  1.1447  0.1221 -0.1190
  182POPC  C31320932  -0.017   7.935   6.548  0.6842  0.3301 -0.1128
  182POPC  H13X20933   0.089   7.956   6.524  0.3325  1.1107 -1.0259
  182POPC  H13Y20934  -0.072   8.031   6.561 -2.4540 -0.9513 -2.6186
  182POPC  C31420935  -0.089   7.875   6.423  0.5384 -0.2652 -0.4887
  182POPC  H14X20936  -0.197   7.879   6.446  0.7503  0.2887  0.4856
  182POPC  H14Y20937  -0.043   7.775   6.404 -0.1104 -0.6697  0.0402
  182POPC  C31520938  -0.059   7.961   6.302  0.7486 -0.0168 -0.0807
  182POPC  H15X20939   0.052   7.967   6.296  0.7514  1.5289  1.0167
  182POPC  H15Y20940  -0.060   8.070   6.320  0.5941 -0.2945  1.8943
  182POPC  C31620941  -0.114   7.907   6.172 -0.5567 -0.3508 -0.1974
  182POPC  H16X20942  -0.077   7.805   6.148  0.4067 -0.3895  1.3561
  182POPC  H16Y20943  -0.075   7.968   6.088 -0.2482 -0.8236 -0.4022
  182POPC  H16Z20944  -0.225   7.910   6.163 -0.7131 -1.9432  0.8518
  183POPC     N20945   3.997   1.054   8.366  0.9390  0.5186 -0.0696
  183POPC   C1220946   3.871   1.125   8.326  0.0160  0.1117 -0.1530
  183POPC  H12A20947   3.852   1.213   8.385  0.8605  0.4219 -0.3291
  183POPC  H12B20948   3.791   1.053   8.328  0.8672 -1.0338 -2.5751
  183POPC   C1320949   4.113   1.145   8.378  0.6602 -0.2672  0.6002
  183POPC  H13A20950   4.202   1.098   8.417  0.2682 -0.1736  1.6336
  183POPC  H13B20951   4.137   1.187   8.281  0.7150  1.7238  1.4189
  183POPC  H13C20952   4.093   1.226   8.447 -0.3082 -0.8572  1.0274
  183POPC   C1420953   3.966   0.995   8.504 -0.5777 -0.0330 -0.1950
  183POPC  H14A20954   3.903   0.907   8.503 -0.1065 -0.3701 -0.8571
  183POPC  H14B20955   4.052   0.948   8.550 -1.2267 -0.8951  0.1820
  183POPC  H14C20956   3.918   1.063   8.573 -0.7900  1.0900 -1.4306
  183POPC   C1520957   4.027   0.935   8.275  0.1903 -0.8071 -0.3955
  183POPC  H15A20958   3.953   0.856   8.281 -0.7206 -0.0676 -1.4339
  183POPC  H15B20959   4.124   0.899   8.304  0.7054  2.1042  1.9642
  183POPC  H15C20960   4.033   0.977   8.176 -1.8939 -1.0965 -0.7073
  183POPC   C1120961   3.870   1.173   8.176 -0.2809 -0.2050  1.1091
  183POPC  H11A20962   3.766   1.206   8.154 -0.9799 -1.3453  2.4850
  183POPC  H11B20963   3.898   1.088   8.110  1.3345  1.0762  0.0878
  183POPC     P20964   3.914   1.429   8.201  0.1749 -0.0953  0.2211
  183POPC   O1320965   4.025   1.520   8.218 -0.3677 -0.2999 -0.3970
  183POPC   O1420966   3.829   1.410   8.328 -0.3031 -0.3289 -0.6812
  183POPC   O1220967   3.956   1.281   8.146 -0.8097  0.2313 -0.2833
  183POPC   O1120968   3.826   1.496   8.092 -0.5985 -0.2108 -0.0189
  183POPC    C120969   3.891   1.552   7.975  1.0279 -0.1643 -0.2898
  183POPC    HA20970   4.000   1.569   7.982  1.0221 -0.5470  5.0765
  183POPC    HB20971   3.842   1.651   7.969  1.4803  0.1141  0.5561
  183POPC    C220972   3.861   1.469   7.844 -0.5336 -0.6127 -0.3646
  183POPC    HS20973   3.750   1.464   7.847 -0.7307  1.8107 -1.4592
  183POPC   O2120974   3.926   1.339   7.854 -0.0835  0.3899  0.6321
  183POPC   C2120975   3.855   1.248   7.787 -0.2920  0.0224  0.3865
  183POPC   O2220976   3.754   1.264   7.723  0.7201  0.3369 -0.2572
  183POPC   C2220977   3.930   1.116   7.782 -0.1343  0.1828 -0.1674
  183POPC   H2R20978   3.847   1.042   7.774  0.5950 -0.4946 -1.9872
  183POPC   H2S20979   3.994   1.087   7.868 -0.9007 -2.2450 -0.3474
  183POPC    C320980   3.920   1.550   7.726  0.4161  0.3331 -0.0200
  183POPC    HX20981   4.025   1.572   7.751  1.0548 -1.3018 -1.0896
  183POPC    HY20982   3.860   1.642   7.708  2.2700  1.4282 -0.8350
  183POPC   O3120983   3.915   1.457   7.611 -0.4753  0.7454  0.1159
  183POPC   C3120984   3.808   1.461   7.541  0.8076  0.2602  0.1651
  183POPC   O3220985   3.702   1.518   7.563  0.0199 -0.5430  0.0870
  183POPC   C3220986   3.826   1.369   7.420 -0.2298 -0.4682  0.7359
  183POPC   H2X20987   3.823   1.265   7.460  1.2413  0.0330  2.2450
  183POPC   H2Y20988   3.930   1.391   7.388 -1.2907  1.4557 -1.7596
  183POPC   C2320989   4.024   1.099   7.652  0.8873  0.4469 -0.0295
  183POPC   H3R20990   4.117   1.154   7.680  0.7531  0.5633  0.1939
  183POPC   H3S20991   3.974   1.151   7.568  1.7443 -1.2468 -1.6465
  183POPC   C2420992   4.044   0.946   7.623 -0.2147 -0.2459  0.6926
  183POPC   H4R20993   3.953   0.903   7.577 -0.5994  0.0284  1.1882
  183POPC   H4S20994   4.074   0.878   7.706 -1.0514 -1.2076  0.2320
  183POPC   C2520995   4.169   0.920   7.525  0.1016  0.5347 -0.4647
  183POPC   H5R20996   4.212   0.819   7.545 -0.3571  0.7220  1.7208
  183POPC   H5S20997   4.248   0.992   7.555  0.2295  0.0099  0.5213
  183POPC   C2620998   4.144   0.939   7.373  0.0693 -0.3031 -0.6884
  183POPC   H6R20999   4.246   0.949   7.330  0.3477  2.6191  0.4093
  183POPC   H6S21000   4.090   1.036   7.363 -2.9384 -1.4058  2.6273
  183POPC   C2721001   4.085   0.830   7.300 -0.9886 -0.0256 -1.1879
  183POPC   H7R21002   3.976   0.817   7.319 -1.2324  0.4416 -2.2074
  183POPC   H7S21003   4.128   0.730   7.323 -2.5058 -0.5260 -0.3384
  183POPC   C2821004   4.119   0.829   7.152  0.2749  0.3779 -0.1736
  183POPC   H8R21005   4.075   0.740   7.101 -1.3567  1.0265  0.0429
  183POPC   H8S21006   4.228   0.838   7.132 -0.0226  3.5009 -0.8901
  183POPC   C2921007   4.061   0.944   7.074 -0.4667  0.2765 -0.4551
  183POPC   H9121008   4.018   1.018   7.142  2.0759 -0.1963  1.8082
  183POPC  C21021009   4.063   0.956   6.940 -0.3063  0.0596  0.3054
  183POPC  H10121010   4.017   1.050   6.905 -1.4096 -0.1014  1.2820
  183POPC  C21121011   4.122   0.862   6.838  0.0364  0.2749  0.3788
  183POPC  H11R21012   4.039   0.814   6.782  0.7649 -1.9359  1.0845
  183POPC  H11S21013   4.190   0.781   6.874  0.6608 -0.3939 -2.1204
  183POPC  C21221014   4.200   0.941   6.727  0.0692 -1.7365  0.5704
  183POPC  H12R21015   4.278   0.995   6.784  0.3125  0.6588 -1.8553
  183POPC  H12S21016   4.131   1.012   6.678  1.5007 -0.9820 -0.4101
  183POPC  C21321017   4.261   0.847   6.623  0.9496 -0.4981  0.1961
  183POPC  H13R21018   4.293   0.753   6.674 -0.4308 -0.2933  1.5209
  183POPC  H13S21019   4.358   0.889   6.588  1.0212 -1.5126 -0.9138
  183POPC  C21421020   4.175   0.835   6.494 -0.3591  1.1031 -0.2595
  183POPC  H14R21021   4.142   0.938   6.467 -3.6726  0.3885  0.5672
  183POPC  H14S21022   4.079   0.793   6.532 -0.6310  1.2119 -0.8187
  183POPC  C21521023   4.234   0.751   6.390 -0.3122  0.6575  0.3135
  183POPC  H15R21024   4.318   0.685   6.419  0.1072  1.4836  1.0155
  183POPC  H15S21025   4.273   0.809   6.304  0.3537 -2.2117 -1.4450
  183POPC  C21621026   4.126   0.672   6.314 -0.0294  0.6928  0.1310
  183POPC  H16R21027   4.064   0.753   6.270 -0.7171  0.0700 -0.0550
  183POPC  H16S21028   4.064   0.609   6.381  1.5953 -1.5753 -0.3712
  183POPC  C21721029   4.182   0.573   6.208 -0.7095  0.1592 -0.3682
  183POPC  H17R21030   4.262   0.508   6.249 -0.2719 -0.5175 -2.1763
  183POPC  H17S21031   4.239   0.628   6.130  0.3124  0.7910  0.7918
  183POPC  C21821032   4.078   0.479   6.143 -0.3329  0.3879  0.9736
  183POPC  H18R21033   3.992   0.541   6.110 -0.1848 -0.0131 -0.1948
  183POPC  H18S21034   4.036   0.411   6.220 -4.3846  2.0242  0.5082
  183POPC  H18T21035   4.130   0.426   6.061 -0.6361  0.7127  0.5707
  183POPC   C3321036   3.723   1.385   7.305  0.1244  0.0671 -0.2245
  183POPC   H3X21037   3.724   1.494   7.282  2.2298  0.1505  0.0463
  183POPC   H3Y21038   3.629   1.351   7.353  1.6765 -2.5163  1.2321
  183POPC   C3421039   3.762   1.292   7.188  0.4461 -0.0359 -0.0831
  183POPC   H4X21040   3.752   1.190   7.230 -0.5460  0.0223 -0.1698
  183POPC   H4Y21041   3.864   1.317   7.151  0.4968 -0.5940 -0.3290
  183POPC   C3521042   3.662   1.297   7.073  0.2319 -0.7057  0.4659
  183POPC   H5X21043   3.651   1.399   7.030 -0.4881 -1.6597 -1.7384
  183POPC   H5Y21044   3.565   1.274   7.122  1.0846 -2.5479  1.3737
  183POPC   C3621045   3.699   1.200   6.965 -0.5945 -0.1366  0.1073
  183POPC   H6X21046   3.691   1.095   7.000 -0.6916 -0.8400 -1.8790
  183POPC   H6Y21047   3.799   1.216   6.920  0.3243 -0.4931  1.9380
  183POPC   C3721048   3.599   1.207   6.855  0.3204 -0.6702  0.1050
  183POPC   H7X21049   3.599   1.306   6.806  0.0251 -0.1302  1.1535
  183POPC   H7Y21050   3.504   1.193   6.912  0.1231  0.0440 -0.0408
  183POPC   C3821051   3.615   1.107   6.739  0.3393  0.2021 -0.2392
  183POPC   H8X21052   3.586   1.006   6.776  1.7855 -0.5414 -1.0341
  183POPC   H8Y21053   3.720   1.092   6.706  0.6563 -1.4815  1.3695
  183POPC   C3921054   3.525   1.149   6.612  0.1882 -0.5117  0.8707
  183POPC   H9X21055   3.463   1.241   6.614  0.7646  0.0572 -2.1099
  183POPC   H9Y21056   3.463   1.060   6.586  1.2451 -0.5167 -1.9595
  183POPC  C31021057   3.605   1.166   6.478 -0.5697 -0.6763  0.5240
  183POPC  H10X21058   3.654   1.072   6.444  0.0482  0.5624 -2.3233
  183POPC  H10Y21059   3.701   1.219   6.496 -0.0985 -1.4263  0.2542
  183POPC  C31121060   3.528   1.220   6.353 -0.4418  0.0274  0.7069
  183POPC  H11X21061   3.487   1.317   6.388  2.7399  1.3293  1.1467
  183POPC  H11Y21062   3.446   1.149   6.328  0.8119 -1.3400  0.2887
  183POPC  C31221063   3.619   1.262   6.239 -0.6232 -0.6352  0.1517
  183POPC  H12X21064   3.671   1.175   6.194  1.7533  1.6463 -1.8658
  183POPC  H12Y21065   3.700   1.327   6.280 -0.1077 -0.3901 -1.2250
  183POPC  C31321066   3.536   1.334   6.126  0.2889  0.1113  0.5818
  183POPC  H13X21067   3.489   1.428   6.162 -0.0221 -0.4577  1.6724
  183POPC  H13Y21068   3.450   1.265   6.113  1.2158 -0.9217 -0.3970
  183POPC  C31421069   3.600   1.346   5.988 -0.7686 -0.7349  0.0876
  183POPC  H14X21070   3.670   1.431   5.976  0.2367 -1.5101  0.3499
  183POPC  H14Y21071   3.522   1.373   5.914 -1.4388  1.4033  1.4792
  183POPC  C31521072   3.670   1.222   5.947 -0.0946  0.3208  0.5262
  183POPC  H15X21073   3.603   1.134   5.958  0.0435  0.0150 -0.8607
  183POPC  H15Y21074   3.763   1.205   6.005 -0.1823  0.6295  0.7616
  183POPC  C31621075   3.708   1.239   5.800  0.4150 -0.0342 -0.1696
  183POPC  H16X21076   3.620   1.237   5.733  1.4687  5.0029 -2.1016
  183POPC  H16Y21077   3.774   1.164   5.751  0.1330  0.5986 -1.5613
  183POPC  H16Z21078   3.755   1.338   5.782 -0.7120  0.9913  2.1077
  184POPC     N21079   2.014   1.746   8.552  0.0074 -0.2130  0.0999
  184POPC   C1221080   2.001   1.738   8.404  0.6503  0.1152 -0.4996
  184POPC  H12A21081   2.088   1.691   8.360  1.6797  1.4303  0.0603
  184POPC  H12B21082   1.994   1.831   8.350  0.3871  0.4329  0.0765
  184POPC   C1321083   2.097   1.866   8.579  0.2881  0.0518  0.7228
  184POPC  H13A21084   2.195   1.850   8.538  0.6430 -0.2621  1.6673
  184POPC  H13B21085   2.051   1.953   8.534 -1.6955 -0.3756  1.8161
  184POPC  H13C21086   2.121   1.888   8.682  2.4496 -0.2910  0.3310
  184POPC   C1421087   1.888   1.766   8.635 -0.8008 -0.2122  0.4530
  184POPC  H14A21088   1.908   1.765   8.741 -0.4092  1.1767  0.4138
  184POPC  H14B21089   1.863   1.870   8.617  0.3679  0.0195  0.0869
  184POPC  H14C21090   1.807   1.701   8.604  0.4117 -1.7582  0.4275
  184POPC   C1521091   2.067   1.620   8.603 -0.3057  0.2029  0.0414
  184POPC  H15A21092   2.107   1.632   8.702 -2.8521  0.2102  1.1301
  184POPC  H15B21093   2.147   1.586   8.537 -1.7511 -2.4339 -0.4916
  184POPC  H15C21094   1.992   1.543   8.617 -1.9308  1.4526 -1.4220
  184POPC   C1121095   1.883   1.649   8.348  0.2502 -0.6410  0.0661
  184POPC  H11A21096   1.892   1.686   8.243  0.0511 -0.5755  0.0721
  184POPC  H11B21097   1.781   1.668   8.387 -0.8515 -0.6470 -2.6016
  184POPC     P21098   1.839   1.398   8.312 -0.2219 -0.1804  0.1623
  184POPC   O1321099   1.699   1.428   8.349  0.4033  0.5695 -0.1114
  184POPC   O1421100   1.881   1.272   8.370 -0.5027  0.0228 -0.2057
  184POPC   O1221101   1.926   1.517   8.359 -0.5306  0.6538 -0.5118
  184POPC   O1121102   1.853   1.383   8.154 -0.1585 -0.4581  0.4462
  184POPC    C121103   1.957   1.440   8.075  0.2955  0.1553 -0.6379
  184POPC    HA21104   2.031   1.370   8.030  0.5172  0.1958 -0.3335
  184POPC    HB21105   2.017   1.513   8.133 -0.1107 -1.2502  1.6719
  184POPC    C221106   1.883   1.516   7.961 -0.9000  0.4973  0.7452
  184POPC    HS21107   1.820   1.588   8.016  1.8131  3.0393  0.8037
  184POPC   O2121108   1.811   1.414   7.888 -0.2714  0.5171  0.1131
  184POPC   C2121109   1.700   1.457   7.836  0.1486 -0.3972  0.7186
  184POPC   O2221110   1.656   1.571   7.861  0.2422  0.0265 -0.0897
  184POPC   C2221111   1.646   1.366   7.724  0.5330  0.4268 -0.4276
  184POPC   H2R21112   1.582   1.300   7.786  3.0012  0.8937  2.8395
  184POPC   H2S21113   1.732   1.305   7.688  0.4844 -0.9573  1.6022
  184POPC    C321114   1.984   1.594   7.874 -0.0783  0.4067  0.5037
  184POPC    HX21115   2.073   1.529   7.856 -1.6630 -1.1580 -2.3415
  184POPC    HY21116   2.010   1.674   7.946 -3.7934  2.5046 -0.2579
  184POPC   O3121117   1.938   1.652   7.756  0.4345 -0.0703  0.3137
  184POPC   C3121118   1.998   1.628   7.639 -0.0788  0.7141 -0.3898
  184POPC   O3221119   2.091   1.546   7.623  0.1649  0.3588  0.4027
  184POPC   C3221120   1.913   1.694   7.532 -0.7359  0.0289  1.3255
  184POPC   H2X21121   1.913   1.804   7.551  0.7623 -0.0908  2.2176
  184POPC   H2Y21122   1.809   1.656   7.532 -0.6659 -0.1772  0.2720
  184POPC   C2321123   1.574   1.441   7.609 -0.6667  0.7235 -0.1494
  184POPC   H3R21124   1.649   1.511   7.566  2.8082 -1.9249  1.0762
  184POPC   H3S21125   1.496   1.502   7.659  0.4610  0.3949  2.1756
  184POPC   C2421126   1.523   1.341   7.507 -0.2953  0.3172 -0.2185
  184POPC   H4R21127   1.434   1.293   7.554 -1.8465  4.1594  1.1266
  184POPC   H4S21128   1.595   1.262   7.476 -1.4660 -0.5266 -0.8708
  184POPC   C2521129   1.475   1.402   7.379 -0.2013  0.0996  0.0969
  184POPC   H5R21130   1.406   1.482   7.411 -2.2275 -1.2409 -0.7323
  184POPC   H5S21131   1.418   1.324   7.325  1.6959  0.1538 -2.1462
  184POPC   C2621132   1.581   1.451   7.282 -0.5378  0.0502 -0.2456
  184POPC   H6R21133   1.642   1.366   7.247 -0.4394  0.5211 -1.2375
  184POPC   H6S21134   1.643   1.521   7.343 -0.8818 -0.7939  1.1141
  184POPC   C2721135   1.525   1.530   7.166  0.0787 -0.0099 -0.0781
  184POPC   H7R21136   1.610   1.579   7.112  2.6271 -2.0040  1.8668
  184POPC   H7S21137   1.448   1.600   7.205  0.3013  0.8504 -1.1072
  184POPC   C2821138   1.451   1.447   7.062  0.4083 -0.2386 -0.0694
  184POPC   H8R21139   1.378   1.519   7.019  0.2947  0.1902  0.8155
  184POPC   H8S21140   1.384   1.374   7.113 -0.3797  0.3349 -0.2666
  184POPC   C2921141   1.531   1.380   6.952  1.0343  0.8758  0.4066
  184POPC   H9121142   1.578   1.282   6.968 -1.6127 -0.8036 -1.3474
  184POPC  C21021143   1.544   1.421   6.824  0.1173 -0.3896  0.0314
  184POPC  H10121144   1.607   1.355   6.763 -0.9675 -1.9514  0.5241
  184POPC  C21121145   1.494   1.542   6.746  0.4707 -0.0304  0.0368
  184POPC  H11R21146   1.471   1.620   6.822 -1.2376 -0.8898  0.4457
  184POPC  H11S21147   1.407   1.523   6.680  0.9183  0.9258 -0.8705
  184POPC  C21221148   1.605   1.592   6.651  0.3187 -0.3419 -0.1208
  184POPC  H12R21149   1.561   1.674   6.590 -1.7203  0.0749  1.8056
  184POPC  H12S21150   1.640   1.514   6.579 -0.7729 -0.1383 -0.9052
  184POPC  C21321151   1.740   1.642   6.715  0.0419 -0.4238  0.2615
  184POPC  H13R21152   1.803   1.555   6.745 -0.5311  0.1765  3.6521
  184POPC  H13S21153   1.713   1.683   6.815 -0.2680 -2.1564  0.9437
  184POPC  C21421154   1.811   1.748   6.628  0.0106 -0.5779  0.5590
  184POPC  H14R21155   1.913   1.768   6.668  0.9745  2.6253 -2.8620
  184POPC  H14S21156   1.747   1.838   6.639 -1.8518 -1.6585 -0.7570
  184POPC  C21521157   1.817   1.697   6.483 -1.1815 -0.3599 -0.4684
  184POPC  H15R21158   1.720   1.710   6.430 -0.4638 -0.2534 -1.7819
  184POPC  H15S21159   1.853   1.593   6.473  1.6911  0.6671 -1.6775
  184POPC  C21621160   1.928   1.777   6.405  0.1521  0.0073 -0.7320
  184POPC  H16R21161   1.914   1.887   6.416  0.9165  0.0433 -0.0232
  184POPC  H16S21162   1.901   1.761   6.299 -2.7856  0.7873 -0.2093
  184POPC  C21721163   2.069   1.739   6.450 -0.3382  0.8383  0.2969
  184POPC  H17R21164   2.072   1.640   6.399 -1.0810 -1.2046  3.9017
  184POPC  H17S21165   2.079   1.721   6.559 -1.5256  0.6607  0.3879
  184POPC  C21821166   2.183   1.824   6.399  0.1740 -0.1617 -0.3690
  184POPC  H18R21167   2.256   1.853   6.478 -0.7860 -0.5021  0.6634
  184POPC  H18S21168   2.137   1.919   6.366 -1.5083 -0.8858 -0.2082
  184POPC  H18T21169   2.230   1.787   6.306  0.5656 -0.2014 -0.1607
  184POPC   C3321170   1.966   1.679   7.383 -0.2178  0.3259  0.1782
  184POPC   H3X21171   1.955   1.574   7.349 -1.0182  0.3322  0.3993
  184POPC   H3Y21172   2.074   1.704   7.379 -0.6883  2.5870 -0.3493
  184POPC   C3421173   1.889   1.783   7.295  0.0021  1.0249  0.4673
  184POPC   H4X21174   1.884   1.886   7.336  2.4621  0.7806  1.5337
  184POPC   H4Y21175   1.787   1.744   7.273  0.5075  1.4854 -3.3142
  184POPC   C3521176   1.950   1.797   7.153  0.6291  0.3908 -0.6085
  184POPC   H5X21177   1.931   1.697   7.107  2.1305 -0.0048 -0.4308
  184POPC   H5Y21178   2.058   1.827   7.153  0.3958  1.2612 -0.5001
  184POPC   C3621179   1.886   1.918   7.085  0.3679 -0.3484  0.7591
  184POPC   H6X21180   1.899   2.018   7.131 -0.8842  0.5421 -0.7089
  184POPC   H6Y21181   1.775   1.908   7.088  0.3367 -0.0764  0.5876
  184POPC   C3721182   1.936   1.927   6.934 -0.4247  0.0923  0.5264
  184POPC   H7X21183   1.862   1.982   6.872  0.6029 -0.9491 -1.7313
  184POPC   H7Y21184   1.925   1.822   6.899 -1.3767  0.8102 -1.4941
  184POPC   C3821185   2.081   1.984   6.929  0.2554 -0.4834 -0.7170
  184POPC   H8X21186   2.149   1.918   6.986 -2.1359 -0.8893  1.9218
  184POPC   H8Y21187   2.093   2.081   6.983 -1.5810 -1.3378  1.3687
  184POPC   C3921188   2.118   2.001   6.787 -0.2790 -0.2160  0.2077
  184POPC   H9X21189   2.133   1.900   6.744  0.4407  0.2249 -0.6253
  184POPC   H9Y21190   2.220   2.046   6.780 -0.5019  0.7232  2.1904
  184POPC  C31021191   2.020   2.070   6.695  0.4708  0.2714 -0.4830
  184POPC  H10X21192   1.926   2.013   6.677 -0.1043  0.8200  0.6384
  184POPC  H10Y21193   2.067   2.084   6.595  0.4606  2.8408 -0.1973
  184POPC  C31121194   1.968   2.213   6.747  0.8538 -0.0748 -0.1286
  184POPC  H11X21195   2.055   2.281   6.744  0.2207  0.7234 -1.8349
  184POPC  H11Y21196   1.941   2.205   6.854 -3.7250  0.1508 -1.0478
  184POPC  C31221197   1.861   2.283   6.670 -0.6009 -0.0114 -0.6324
  184POPC  H12X21198   1.833   2.376   6.726  0.7460 -0.6128  1.1179
  184POPC  H12Y21199   1.770   2.219   6.680 -0.4485 -0.0451  0.6512
  184POPC  C31321200   1.900   2.305   6.518  1.0750  0.2356 -0.3359
  184POPC  H13X21201   1.919   2.212   6.460 -0.4652  0.3929 -1.1564
  184POPC  H13Y21202   1.994   2.364   6.520  1.7875 -0.8251 -1.1717
  184POPC  C31421203   1.781   2.381   6.451 -0.1544 -0.0161 -0.5090
  184POPC  H14X21204   1.817   2.411   6.350 -1.8077  1.6952 -0.6570
  184POPC  H14Y21205   1.756   2.476   6.504 -0.5880  0.1554 -1.0046
  184POPC  C31521206   1.649   2.299   6.431  0.7912 -0.4092  0.0785
  184POPC  H15X21207   1.568   2.366   6.394  1.8876  0.4164 -0.9210
  184POPC  H15Y21208   1.615   2.276   6.534  0.6817 -0.5328  0.0148
  184POPC  C31621209   1.673   2.174   6.353  0.1476 -0.2082  0.2407
  184POPC  H16X21210   1.720   2.193   6.254 -1.3980 -0.9919 -0.6842
  184POPC  H16Y21211   1.579   2.121   6.330  0.3197  0.0844 -1.2206
  184POPC  H16Z21212   1.730   2.101   6.416 -3.4514 -3.4036  0.1485
  185POPC     N21213   2.285   3.707   3.886  0.2958  0.8941 -0.2289
  185POPC   C1221214   2.341   3.652   3.756  0.8704 -0.3332  0.7733
  185POPC  H12A21215   2.409   3.723   3.711  2.8872 -1.2315  2.2609
  185POPC  H12B21216   2.263   3.632   3.683  1.5531 -0.5426  0.0860
  185POPC   C1321217   2.244   3.602   3.981  0.1903 -0.2679 -0.4194
  185POPC  H13A21218   2.155   3.551   3.948 -0.9039  1.0870  0.3007
  185POPC  H13B21219   2.319   3.525   3.993  1.7959  1.1429 -0.9737
  185POPC  H13C21220   2.229   3.648   4.078 -0.8365  0.0443 -0.7114
  185POPC   C1421221   2.384   3.782   3.967 -0.1647  0.2750  0.1811
  185POPC  H14A21222   2.335   3.844   4.041 -0.4080 -0.2991  0.5117
  185POPC  H14B21223   2.469   3.722   3.997  0.1769  1.5745  2.0504
  185POPC  H14C21224   2.433   3.849   3.897 -0.0919 -0.4455 -0.4683
  185POPC   C1521225   2.170   3.798   3.859  0.0251  0.4404 -0.2103
  185POPC  H15A21226   2.145   3.858   3.945 -1.4633 -1.7272  0.9857
  185POPC  H15B21227   2.080   3.739   3.850  0.8507 -0.8522 -0.2915
  185POPC  H15C21228   2.188   3.864   3.775  2.4578  3.1605  2.2281
  185POPC   C1121229   2.416   3.518   3.741 -0.1144 -0.1474  0.0951
  185POPC  H11A21230   2.443   3.499   3.636  0.1287  2.0394 -0.2906
  185POPC  H11B21231   2.337   3.447   3.775 -2.2279  2.1843  0.3612
  185POPC     P21232   2.574   3.393   3.898 -0.0262  0.4271  0.0637
  185POPC   O1321233   2.692   3.428   3.980  0.2700 -0.6801 -0.1058
  185POPC   O1421234   2.594   3.279   3.804  0.1430  0.5644  0.2168
  185POPC   O1221235   2.530   3.520   3.823 -0.0235 -0.1803  0.1200
  185POPC   O1121236   2.449   3.357   3.987 -0.6815  0.5400 -0.0965
  185POPC    C121237   2.443   3.231   4.062 -0.5520  0.5027  0.4997
  185POPC    HA21238   2.530   3.167   4.034 -0.9436  0.3579 -0.4124
  185POPC    HB21239   2.369   3.163   4.016 -0.4788  0.4124  0.5146
  185POPC    C221240   2.437   3.246   4.207 -0.6735 -0.0994  0.1598
  185POPC    HS21241   2.342   3.301   4.227 -0.7618 -0.3787  0.5281
  185POPC   O2121242   2.559   3.311   4.249  0.4980  0.0001 -0.7371
  185POPC   C2121243   2.560   3.360   4.364 -0.7548 -0.1709 -0.3772
  185POPC   O2221244   2.466   3.393   4.438 -0.0070  0.0806  0.3928
  185POPC   C2221245   2.708   3.356   4.418  0.0337  0.1344 -0.0143
  185POPC   H2R21246   2.761   3.443   4.373  0.9118 -1.1852 -1.6568
  185POPC   H2S21247   2.761   3.264   4.384  0.3054  0.7688 -1.3710
  185POPC    C321248   2.427   3.105   4.272  0.1434  0.8040  0.0577
  185POPC    HX21249   2.507   3.038   4.233  0.6366  1.2445  0.3068
  185POPC    HY21250   2.337   3.062   4.221  1.0601  0.0306 -0.9705
  185POPC   O3121251   2.425   3.115   4.418  0.2368  0.2961  0.4202
  185POPC   C3121252   2.296   3.125   4.466 -0.7905 -0.5569 -0.2158
  185POPC   O3221253   2.193   3.124   4.406  0.0762  0.2455  0.4699
  185POPC   C3221254   2.306   3.145   4.611  0.2001 -0.4076  0.2352
  185POPC   H2X21255   2.350   3.246   4.621 -0.2567  0.2140 -3.0266
  185POPC   H2Y21256   2.379   3.072   4.652  0.2434 -0.2947  0.3599
  185POPC   C2321257   2.711   3.366   4.573  0.4983  0.0072  0.0198
  185POPC   H3R21258   2.814   3.345   4.608  0.5637 -2.0364 -1.1817
  185POPC   H3S21259   2.650   3.283   4.615 -1.0812  1.3722  0.4950
  185POPC   C2421260   2.673   3.505   4.632  0.9942  1.1314  0.0522
  185POPC   H4R21261   2.611   3.560   4.558 -1.0054  0.1379  0.9172
  185POPC   H4S21262   2.775   3.549   4.641  2.5925 -2.4047  1.3808
  185POPC   C2521263   2.581   3.514   4.757 -0.4706  0.2110 -0.2907
  185POPC   H5R21264   2.482   3.487   4.714 -1.2184  0.1380  1.4039
  185POPC   H5S21265   2.574   3.612   4.808 -0.2141  1.6047 -2.7712
  185POPC   C2621266   2.616   3.407   4.859 -0.3064 -0.8342 -0.6922
  185POPC   H6R21267   2.720   3.421   4.893 -0.1323 -1.9055 -0.7474
  185POPC   H6S21268   2.605   3.305   4.817  0.1612 -0.2829 -2.2380
  185POPC   C2721269   2.525   3.425   4.990 -1.3449 -0.0332  0.0698
  185POPC   H7R21270   2.416   3.424   4.968 -1.4703  0.2544  0.6614
  185POPC   H7S21271   2.554   3.519   5.042  0.0855  0.2363 -1.1373
  185POPC   C2821272   2.561   3.320   5.101 -0.0831  0.3234 -1.0042
  185POPC   H8R21273   2.540   3.224   5.050  0.8321 -0.1537 -0.5050
  185POPC   H8S21274   2.478   3.332   5.174  0.8363  1.3660 -0.0951
  185POPC   C2921275   2.692   3.324   5.177  0.1347  0.7878 -0.2600
  185POPC   H9121276   2.785   3.287   5.130  0.4314  0.7817  0.3207
  185POPC  C21021277   2.717   3.357   5.307  0.3271 -0.1579  0.6048
  185POPC  H10121278   2.820   3.365   5.342  0.8927 -1.0973 -0.7725
  185POPC  C21121279   2.620   3.416   5.404 -0.2701  0.7658 -0.1719
  185POPC  H11R21280   2.524   3.443   5.355 -1.7645 -0.2455  2.0294
  185POPC  H11S21281   2.661   3.512   5.442  1.6512 -0.4628  1.0453
  185POPC  C21221282   2.611   3.328   5.526 -0.4836 -0.0614  0.4055
  185POPC  H12R21283   2.703   3.305   5.584 -1.0227  0.2739  1.4146
  185POPC  H12S21284   2.579   3.229   5.489  0.1769 -0.3800  0.6783
  185POPC  C21321285   2.511   3.382   5.636 -0.2001  0.7845 -0.4100
  185POPC  H13R21286   2.404   3.385   5.605  0.0904 -0.1166 -1.5761
  185POPC  H13S21287   2.535   3.488   5.658  1.9894 -0.0178  1.4128
  185POPC  C21421288   2.526   3.294   5.759 -0.1938  1.1163  0.4703
  185POPC  H14R21289   2.631   3.270   5.786 -0.8575 -1.2624  1.1781
  185POPC  H14S21290   2.483   3.197   5.727  1.9459  0.0945  0.5283
  185POPC  C21521291   2.455   3.358   5.872  0.1595  0.1804 -0.5399
  185POPC  H15R21292   2.354   3.388   5.837  0.2470  1.2858  0.1275
  185POPC  H15S21293   2.518   3.443   5.906 -0.7265  1.5827 -2.2415
  185POPC  C21621294   2.424   3.255   5.983 -0.0784 -0.0729  0.4074
  185POPC  H16R21295   2.516   3.194   5.997 -0.5595 -0.4303  2.4270
  185POPC  H16S21296   2.346   3.187   5.941  1.7736 -2.9139  1.2874
  185POPC  C21721297   2.362   3.309   6.116  0.2055 -0.1579  0.1101
  185POPC  H17R21298   2.308   3.229   6.171  0.7366  0.2972  1.3288
  185POPC  H17S21299   2.280   3.379   6.089 -0.7328 -0.3424  2.2653
  185POPC  C21821300   2.471   3.372   6.199 -0.2338  0.7287  0.4749
  185POPC  H18R21301   2.545   3.290   6.214 -2.7100 -1.8551 -0.4635
  185POPC  H18S21302   2.431   3.401   6.298  1.2464 -0.7937  1.5758
  185POPC  H18T21303   2.516   3.458   6.145  2.5031 -1.4918 -1.0281
  185POPC   C3321304   2.177   3.147   4.687  0.3647  0.7601  0.0790
  185POPC   H3X21305   2.153   3.044   4.722  1.1406 -0.2084 -2.0967
  185POPC   H3Y21306   2.091   3.168   4.619  0.5008  0.2134 -0.2661
  185POPC   C3421307   2.187   3.237   4.804 -0.3019 -0.3216 -0.0511
  185POPC   H4X21308   2.081   3.268   4.817  0.4362  1.9622  1.1346
  185POPC   H4Y21309   2.241   3.334   4.795  4.5627 -2.5670  1.5091
  185POPC   C3521310   2.241   3.173   4.928  0.4749  0.2386  0.1960
  185POPC   H5X21311   2.352   3.162   4.934  0.6713  1.2223 -1.3532
  185POPC   H5Y21312   2.213   3.065   4.929  2.4577 -0.3164  0.7810
  185POPC   C3621313   2.185   3.235   5.058  0.1987 -0.4155  0.4206
  185POPC   H6X21314   2.079   3.248   5.029  0.4114 -1.2150 -0.7903
  185POPC   H6Y21315   2.237   3.332   5.076 -0.9299  0.4407 -0.7675
  185POPC   C3721316   2.171   3.143   5.184 -0.5692 -0.1660  0.1366
  185POPC   H7X21317   2.276   3.120   5.212  0.0223  1.7973 -0.3688
  185POPC   H7Y21318   2.116   3.046   5.177 -1.4961  0.4395 -1.4351
  185POPC   C3821319   2.123   3.230   5.292 -0.3774 -0.7278 -0.0963
  185POPC   H8X21320   2.036   3.286   5.251 -0.4412 -1.0284 -0.3808
  185POPC   H8Y21321   2.190   3.308   5.332 -2.5840  0.7325  0.9831
  185POPC   C3921322   2.093   3.156   5.421 -0.7091  0.6836 -0.3310
  185POPC   H9X21323   2.040   3.060   5.402 -2.9840  1.7625  0.2063
  185POPC   H9Y21324   2.024   3.213   5.488 -2.5928 -0.7199 -0.9753
  185POPC  C31021325   2.219   3.123   5.505  0.5109  0.4037 -0.1915
  185POPC  H10X21326   2.262   3.219   5.540 -0.1551  0.5458  0.2443
  185POPC  H10Y21327   2.297   3.071   5.446  1.9982  1.4477  0.7917
  185POPC  C31121328   2.179   3.050   5.634 -0.1491 -0.0340  0.6652
  185POPC  H11X21329   2.263   3.002   5.688  0.1038 -1.7004 -1.0744
  185POPC  H11Y21330   2.110   2.965   5.612 -0.2065  0.5180 -1.5777
  185POPC  C31221331   2.119   3.154   5.726 -0.0785 -0.3064 -0.4942
  185POPC  H12X21332   2.029   3.201   5.681 -0.4084  0.1056  0.5627
  185POPC  H12Y21333   2.190   3.235   5.750 -1.1190  0.7514 -0.9012
  185POPC  C31321334   2.080   3.087   5.853  0.3420 -0.2755  0.0641
  185POPC  H13X21335   2.165   3.052   5.916  0.9942  1.2444  0.0675
  185POPC  H13Y21336   2.017   2.999   5.828 -0.7506  0.8173 -1.2030
  185POPC  C31421337   1.998   3.185   5.931 -0.1068 -0.8047 -0.1531
  185POPC  H14X21338   1.945   3.263   5.872  0.5472 -0.5795 -0.4434
  185POPC  H14Y21339   2.081   3.227   5.992  0.6709 -0.9416 -1.0912
  185POPC  C31521340   1.897   3.124   6.023  0.1057 -0.2492  0.0119
  185POPC  H15X21341   1.839   3.056   5.956 -0.6536  0.0876  0.3196
  185POPC  H15Y21342   1.826   3.204   6.054  0.8410  0.0655  0.9175
  185POPC  C31621343   1.959   3.053   6.142  0.6058  0.0833 -0.2057
  185POPC  H16X21344   2.046   2.992   6.111  2.4548  2.3855  0.2157
  185POPC  H16Y21345   1.897   2.993   6.212  1.6591 -2.6932 -1.4796
  185POPC  H16Z21346   1.994   3.140   6.202  0.4400  1.3677 -1.8957
  186POPC     N21347   4.810   4.181   3.440 -0.2987  0.1357 -0.1505
  186POPC   C1221348   4.827   4.225   3.589 -0.4888  0.1197  0.3284
  186POPC  H12A21349   4.820   4.333   3.593 -0.5723  0.1502 -0.4735
  186POPC  H12B21350   4.930   4.199   3.611 -0.3687  0.2936 -0.0139
  186POPC   C1321351   4.836   4.037   3.427 -0.2496  0.2154  0.1361
  186POPC  H13A21352   4.771   3.976   3.487  1.7161 -2.4868 -0.2984
  186POPC  H13B21353   4.824   4.003   3.325  0.2097  0.4082  0.0106
  186POPC  H13C21354   4.938   4.011   3.452 -1.0768 -1.8780  1.5468
  186POPC   C1421355   4.664   4.218   3.392 -0.6769 -0.1075 -0.1312
  186POPC  H14A21356   4.587   4.170   3.450  0.8623  0.4379  2.5473
  186POPC  H14B21357   4.647   4.325   3.400  0.1758 -0.0179  0.7148
  186POPC  H14C21358   4.652   4.194   3.287 -1.4599  0.0070 -0.0684
  186POPC   C1521359   4.910   4.250   3.347  0.4395  0.1501 -0.4558
  186POPC  H15A21360   4.905   4.357   3.363 -0.3322 -0.0300  0.6603
  186POPC  H15B21361   4.875   4.223   3.249 -0.2941  0.4457 -0.2867
  186POPC  H15C21362   5.011   4.214   3.354 -0.2827 -1.8954  0.0716
  186POPC   C1121363   4.736   4.163   3.692 -0.0890 -0.4552  0.7152
  186POPC  H11A21364   4.633   4.162   3.650  0.6733 -0.4230 -1.2734
  186POPC  H11B21365   4.749   4.228   3.781  1.7967  1.3271 -0.7677
  186POPC     P21366   4.870   3.965   3.800  0.4316  0.3808  0.6446
  186POPC   O1321367   4.997   4.036   3.758 -0.5442  0.5234 -0.2429
  186POPC   O1421368   4.866   3.817   3.803 -0.2802  0.1764  0.5152
  186POPC   O1221369   4.759   4.024   3.709  0.7051 -0.3143 -0.2721
  186POPC   O1121370   4.823   4.014   3.943 -0.4500 -0.0330 -0.5291
  186POPC    C121371   4.693   3.988   3.995 -0.5281 -0.1421 -0.4419
  186POPC    HA21372   4.641   3.900   3.952 -1.7113  0.4942 -0.3636
  186POPC    HB21373   4.626   4.074   3.973  0.1564  0.0114 -2.0130
  186POPC    C221374   4.695   3.945   4.148 -0.8121  0.6647  1.2750
  186POPC    HS21375   4.597   3.900   4.172 -0.4312 -0.7822  0.3185
  186POPC   O2121376   4.724   4.067   4.221 -0.0106  0.1041 -0.1597
  186POPC   C2121377   4.622   4.140   4.252  0.5513 -0.3733  0.6534
  186POPC   O2221378   4.514   4.154   4.192  0.3005  0.8443 -0.7491
  186POPC   C2221379   4.672   4.227   4.378 -0.8262  0.1646 -0.0709
  186POPC   H2R21380   4.676   4.332   4.340  0.6105  0.0235 -0.3493
  186POPC   H2S21381   4.780   4.207   4.389 -0.7872  0.8984  1.1249
  186POPC    C321382   4.811   3.839   4.182  0.1409 -0.8253  0.1418
  186POPC    HX21383   4.911   3.848   4.136  0.9212 -1.4597  1.6550
  186POPC    HY21384   4.772   3.740   4.149 -0.5781 -0.8913  1.1269
  186POPC   O3121385   4.822   3.819   4.327 -0.6990 -0.0759 -0.9034
  186POPC   C3121386   4.915   3.883   4.388  0.1531 -0.0950  0.1086
  186POPC   O3221387   4.985   3.972   4.347  0.2461 -0.0673  0.5181
  186POPC   C3221388   4.943   3.810   4.515  0.7156  0.0109 -0.6134
  186POPC   H2X21389   4.964   3.703   4.498  4.6026 -0.1425  3.5562
  186POPC   H2Y21390   4.856   3.822   4.583  0.0637 -2.3926 -0.9440
  186POPC   C2321391   4.581   4.209   4.498  0.2464  0.0888 -0.1122
  186POPC   H3R21392   4.476   4.233   4.473  0.6358  1.6753 -0.3374
  186POPC   H3S21393   4.604   4.285   4.576 -0.6985 -0.4443  0.7199
  186POPC   C2421394   4.586   4.071   4.560  0.1030  0.0475  0.2839
  186POPC   H4R21395   4.688   4.052   4.600 -0.8333 -1.7438  1.9698
  186POPC   H4S21396   4.551   3.985   4.499 -0.0754  0.9746 -0.9785
  186POPC   C2521397   4.503   4.075   4.691  0.5165  0.0069 -1.1615
  186POPC   H5R21398   4.395   4.090   4.669  0.1975 -0.0158  0.2981
  186POPC   H5S21399   4.537   4.166   4.745 -0.8476  0.3823 -0.8841
  186POPC   C2621400   4.522   3.952   4.779 -0.1007 -0.5492 -0.0974
  186POPC   H6R21401   4.503   3.866   4.712  1.4081 -0.9763 -0.0129
  186POPC   H6S21402   4.444   3.960   4.858  1.2520 -1.7092  1.4470
  186POPC   C2721403   4.663   3.941   4.839  1.0805 -0.3311  0.4357
  186POPC   H7R21404   4.677   4.034   4.898 -1.4295 -0.3155  1.1390
  186POPC   H7S21405   4.741   3.934   4.761  1.2566 -0.9940  0.6680
  186POPC   C2821406   4.674   3.814   4.926 -0.1640 -0.2515 -0.5218
  186POPC   H8R21407   4.696   3.722   4.868  1.0579  0.2285 -0.8608
  186POPC   H8S21408   4.576   3.815   4.979  0.9285  1.8499  1.6415
  186POPC   C2921409   4.794   3.829   5.020  0.4602 -0.2559 -0.7368
  186POPC   H9121410   4.887   3.858   4.969  1.0834 -1.2855 -0.2021
  186POPC  C21021411   4.802   3.822   5.155 -0.1393 -1.1788 -0.2021
  186POPC  H10121412   4.901   3.843   5.197  0.0047 -0.2531 -0.9605
  186POPC  C21121413   4.687   3.802   5.247 -0.0570 -0.4003  0.6534
  186POPC  H11R21414   4.595   3.848   5.206  1.3666  1.8077 -0.2981
  186POPC  H11S21415   4.698   3.861   5.341 -1.4334  0.1769  0.4669
  186POPC  C21221416   4.680   3.661   5.303 -0.8946  0.6505  0.2487
  186POPC  H12R21417   4.680   3.588   5.219 -0.4634 -0.8854  1.5368
  186POPC  H12S21418   4.590   3.649   5.367 -0.9077 -0.5958  0.0153
  186POPC  C21321419   4.798   3.622   5.396  0.4501 -0.9268 -0.2823
  186POPC  H13R21420   4.901   3.640   5.360  0.9239 -0.5229  1.1907
  186POPC  H13S21421   4.786   3.512   5.404 -0.5698 -0.7604  0.7066
  186POPC  C21421422   4.787   3.692   5.536 -0.0901 -0.4408 -0.1556
  186POPC  H14R21423   4.797   3.802   5.526 -2.4881 -0.1247  0.3700
  186POPC  H14S21424   4.860   3.643   5.604  0.2011 -2.0753 -1.5925
  186POPC  C21521425   4.654   3.678   5.619 -0.5067  0.0874  0.3722
  186POPC  H15R21426   4.631   3.570   5.627 -1.5261  0.0605 -2.0596
  186POPC  H15S21427   4.580   3.732   5.557  0.3644  1.9547  0.8807
  186POPC  C21621428   4.664   3.749   5.751  0.7227  0.7073 -0.0050
  186POPC  H16R21429   4.741   3.828   5.763 -1.3426  2.5440  2.1240
  186POPC  H16S21430   4.695   3.669   5.822  0.3229  0.7676  0.2414
  186POPC  C21721431   4.534   3.798   5.803  0.0740  0.3036  0.6297
  186POPC  H17R21432   4.448   3.728   5.791 -0.7909  1.7276 -2.5166
  186POPC  H17S21433   4.504   3.888   5.745  0.4696  0.2368  0.3211
  186POPC  C21821434   4.552   3.842   5.947 -0.0096 -0.3757  0.1795
  186POPC  H18R21435   4.492   3.931   5.976 -3.3713 -2.5057  0.3536
  186POPC  H18S21436   4.518   3.760   6.014  0.1467 -0.7920 -0.2402
  186POPC  H18T21437   4.658   3.861   5.975  0.2540 -1.0187 -0.3319
  186POPC   C3321438   5.081   3.846   4.574 -0.1997 -0.2129  0.1983
  186POPC   H3X21439   5.063   3.951   4.607  0.3146  0.2194 -0.8557
  186POPC   H3Y21440   5.155   3.842   4.492  0.3081 -1.6080  0.6983
  186POPC   C3421441   5.118   3.752   4.692  0.3137 -0.0272  0.5074
  186POPC   H4X21442   5.080   3.649   4.674  0.1447 -0.0551  1.0100
  186POPC   H4Y21443   5.060   3.786   4.780  0.0350  3.0178 -0.7456
  186POPC   C3521444   5.268   3.752   4.731 -0.3704 -0.1017 -0.1902
  186POPC   H5X21445   5.305   3.853   4.756  0.6690 -0.0810 -1.6843
  186POPC   H5Y21446   5.342   3.721   4.655 -1.2831 -0.0597 -1.1248
  186POPC   C3621447   5.291   3.662   4.852 -0.0975  0.0782  0.0292
  186POPC   H6X21448   5.398   3.636   4.864  0.6506  2.6958 -0.2354
  186POPC   H6Y21449   5.251   3.563   4.820  2.0474 -1.0136  0.5639
  186POPC   C3721450   5.249   3.711   4.986 -0.0900 -0.6492  0.1338
  186POPC   H7X21451   5.144   3.747   4.978 -0.3932 -1.3671  0.7861
  186POPC   H7Y21452   5.299   3.809   5.002  1.2786 -1.5555  1.7997
  186POPC   C3821453   5.258   3.627   5.109  0.0282 -0.7312  0.4433
  186POPC   H8X21454   5.361   3.594   5.134  0.5059  0.1637 -0.2605
  186POPC   H8Y21455   5.195   3.537   5.091  0.5146 -0.8132 -0.9798
  186POPC   C3921456   5.195   3.700   5.231 -0.7321 -0.2303 -0.0471
  186POPC   H9X21457   5.086   3.720   5.237 -0.9630 -1.8442  2.9629
  186POPC   H9Y21458   5.248   3.796   5.246 -0.9188 -0.0047 -0.7835
  186POPC  C31021459   5.223   3.606   5.355 -0.1762  0.0388 -0.2538
  186POPC  H10X21460   5.330   3.573   5.354  0.8836  3.1186  1.2205
  186POPC  H10Y21461   5.158   3.516   5.358  0.7470 -0.8123 -2.7973
  186POPC  C31121462   5.208   3.665   5.499 -0.1056  0.4132  0.2899
  186POPC  H11X21463   5.114   3.724   5.502  0.5354  1.4135  1.7356
  186POPC  H11Y21464   5.293   3.736   5.510  0.6769 -0.4139 -0.3376
  186POPC  C31221465   5.192   3.555   5.609 -0.3550 -0.0624  0.8874
  186POPC  H12X21466   5.286   3.499   5.629  0.1112  0.2016 -0.5002
  186POPC  H12Y21467   5.125   3.482   5.559 -1.2748  0.3187  1.5346
  186POPC  C31321468   5.138   3.603   5.741  0.0499  0.4999 -0.5281
  186POPC  H13X21469   5.125   3.512   5.804  0.5684  1.2355  0.6740
  186POPC  H13Y21470   5.036   3.646   5.734  0.2571  1.0364 -0.3069
  186POPC  C31421471   5.234   3.702   5.808  0.1824 -0.4282 -0.1851
  186POPC  H14X21472   5.209   3.805   5.774 -0.1051  0.3393  2.1507
  186POPC  H14Y21473   5.333   3.684   5.762  0.6315  1.4291 -0.0328
  186POPC  C31521474   5.242   3.697   5.958 -0.2893  0.0737 -0.5054
  186POPC  H15X21475   5.318   3.773   5.986 -0.1003 -0.1546 -0.3980
  186POPC  H15Y21476   5.284   3.595   5.972 -0.4042 -0.4588 -3.3049
  186POPC  C31621477   5.113   3.716   6.037  0.4281  0.2600  0.1241
  186POPC  H16X21478   5.120   3.755   6.141 -1.3097 -0.1341  0.4113
  186POPC  H16Y21479   5.066   3.617   6.055 -0.2207  0.1632 -1.8798
  186POPC  H16Z21480   5.039   3.767   5.972 -0.3268 -0.5119  0.3590
  187POPC     N21481   1.607   0.776   3.370  0.0124  0.2212 -0.5706
  187POPC   C1221482   1.544   0.894   3.443  0.2407 -0.6587 -0.0589
  187POPC  H12A21483   1.436   0.889   3.447  0.1747  0.0215 -0.9005
  187POPC  H12B21484   1.563   0.982   3.385 -0.1647  0.7709  1.8764
  187POPC   C1321485   1.750   0.799   3.356 -0.0117  0.1421 -0.0615
  187POPC  H13A21486   1.793   0.819   3.453 -2.0335  0.4561  0.8238
  187POPC  H13B21487   1.798   0.719   3.302 -1.4564 -1.4700  0.9190
  187POPC  H13C21488   1.781   0.884   3.296  0.0426 -0.4344 -0.8616
  187POPC   C1421489   1.580   0.652   3.454  0.3045 -0.1781  0.3606
  187POPC  H14A21490   1.599   0.558   3.403 -0.2298 -2.1142  3.4643
  187POPC  H14B21491   1.639   0.658   3.544  2.5163  4.1158 -1.0935
  187POPC  H14C21492   1.476   0.651   3.482  0.6987  1.4288  2.0490
  187POPC   C1521493   1.540   0.758   3.237 -1.0269  0.4213  0.2317
  187POPC  H15A21494   1.433   0.744   3.239 -1.1473  1.2381 -0.2529
  187POPC  H15B21495   1.580   0.674   3.182  0.1058  0.8344  0.3809
  187POPC  H15C21496   1.558   0.843   3.173  0.5041 -2.1139 -3.0214
  187POPC   C1121497   1.585   0.927   3.584 -0.3587  0.3461 -0.3559
  187POPC  H11A21498   1.547   0.853   3.657 -1.9575  0.5176 -0.9804
  187POPC  H11B21499   1.532   1.021   3.612 -0.9682 -0.1322  0.1209
  187POPC     P21500   1.830   0.895   3.686  0.1370  0.5210  0.2849
  187POPC   O1321501   1.965   0.946   3.660  0.1143  0.2966 -0.2024
  187POPC   O1421502   1.822   0.747   3.698  0.5335  0.0921  0.3805
  187POPC   O1221503   1.724   0.949   3.578 -0.2784 -0.1190  0.7939
  187POPC   O1121504   1.782   0.956   3.823 -0.1525 -0.9084 -0.3078
  187POPC    C121505   1.807   0.897   3.947  0.3052  0.2292 -1.1560
  187POPC    HA21506   1.815   0.971   4.028 -0.6138  2.2044 -2.7703
  187POPC    HB21507   1.911   0.858   3.948  1.3365  2.6628  1.8224
  187POPC    C221508   1.698   0.787   3.984 -0.1117 -0.0558  0.3820
  187POPC    HS21509   1.661   0.748   3.886  1.4255 -0.9847  0.1405
  187POPC   O2121510   1.593   0.857   4.055  0.2628  0.9181 -0.4467
  187POPC   C2121511   1.481   0.868   3.984  0.3231 -0.5138  0.0023
  187POPC   O2221512   1.464   0.841   3.870  0.1043  0.0898  0.0395
  187POPC   C2221513   1.372   0.918   4.080 -1.0194  0.2605  0.6569
  187POPC   H2R21514   1.299   0.970   4.014  0.9302  1.5351 -0.6095
  187POPC   H2S21515   1.421   0.988   4.151  3.3625  0.7959 -2.5290
  187POPC    C321516   1.752   0.670   4.068  0.9000  0.7243 -0.5445
  187POPC    HX21517   1.820   0.604   4.009  1.8181  1.3291 -0.1887
  187POPC    HY21518   1.661   0.615   4.102  2.5391 -1.1612  1.1063
  187POPC   O3121519   1.825   0.719   4.183 -0.1233  0.0050  0.1516
  187POPC   C3121520   1.876   0.627   4.264 -0.4044  0.2711  0.3095
  187POPC   O3221521   1.860   0.510   4.252  0.3709 -0.6468  1.2751
  187POPC   C3221522   1.934   0.693   4.385  0.5156 -0.5591  0.5435
  187POPC   H2X21523   1.851   0.749   4.432  0.4060 -2.3183  2.5650
  187POPC   H2Y21524   2.015   0.757   4.342  1.0093 -1.1995  0.4990
  187POPC   C2321525   1.302   0.800   4.151  0.3072  0.4389  0.3258
  187POPC   H3R21526   1.302   0.702   4.098  3.3852  1.3555 -1.6651
  187POPC   H3S21527   1.195   0.830   4.149  0.4740  1.1064  1.1412
  187POPC   C2421528   1.340   0.789   4.297 -0.7146 -0.1551 -0.0323
  187POPC   H4R21529   1.251   0.734   4.335 -0.2917 -0.2994  0.7704
  187POPC   H4S21530   1.335   0.891   4.342 -0.8098  0.4561 -1.3939
  187POPC   C2521531   1.461   0.697   4.320 -0.7805 -0.9401 -0.6784
  187POPC   H5R21532   1.557   0.752   4.309 -0.6778 -0.4621  1.8901
  187POPC   H5S21533   1.460   0.615   4.246 -1.4762 -0.0787 -1.6603
  187POPC   C2621534   1.462   0.645   4.468  0.6350 -0.3286 -0.5080
  187POPC   H6R21535   1.392   0.561   4.485 -1.3683  1.0799 -1.3325
  187POPC   H6S21536   1.432   0.727   4.536  0.0284 -0.1950 -0.9286
  187POPC   C2721537   1.598   0.594   4.512  0.1887 -0.6852 -0.5016
  187POPC   H7R21538   1.671   0.676   4.493  2.0041 -1.6712  1.7747
  187POPC   H7S21539   1.623   0.514   4.438  1.6693  0.3300 -1.1567
  187POPC   C2821540   1.617   0.552   4.666  0.6692  0.3975  0.6832
  187POPC   H8R21541   1.584   0.637   4.729 -3.2085 -0.4989  0.0844
  187POPC   H8S21542   1.724   0.532   4.693  0.6215  0.7824  1.1592
  187POPC   C2921543   1.533   0.431   4.700 -0.2782  0.4155 -0.4930
  187POPC   H9121544   1.436   0.416   4.650  0.6585 -0.5298 -2.1027
  187POPC  C21021545   1.564   0.362   4.813  0.4892 -0.6892  0.5491
  187POPC  H10121546   1.499   0.276   4.836 -0.8643  0.3798  0.8685
  187POPC  C21121547   1.685   0.372   4.895  0.2479  0.0581 -0.8130
  187POPC  H11R21548   1.717   0.478   4.904  1.4602 -0.3200 -0.3455
  187POPC  H11S21549   1.767   0.317   4.843 -0.7474 -1.4472 -0.8494
  187POPC  C21221550   1.693   0.299   5.029  0.5070  0.1848  0.2603
  187POPC  H12R21551   1.798   0.275   5.056  1.1149  3.0664  0.7269
  187POPC  H12S21552   1.651   0.197   5.018  1.5757 -0.0902 -1.8295
  187POPC  C21321553   1.622   0.376   5.136  0.3070 -0.4238 -0.0375
  187POPC  H13R21554   1.526   0.399   5.086  1.1091 -0.5291 -1.7134
  187POPC  H13S21555   1.679   0.470   5.154  0.0223 -0.6435  2.2903
  187POPC  C21421556   1.587   0.300   5.268  0.3138 -0.1824 -0.1763
  187POPC  H14R21557   1.677   0.265   5.323 -0.5338  1.9674  2.8623
  187POPC  H14S21558   1.527   0.209   5.246  0.8095 -0.4579 -0.4198
  187POPC  C21521559   1.513   0.392   5.362  0.0807  0.1175 -0.4229
  187POPC  H15R21560   1.438   0.449   5.303 -0.8693  1.3796  1.8548
  187POPC  H15S21561   1.596   0.453   5.404  0.6633 -1.0815  0.2229
  187POPC  C21621562   1.464   0.315   5.487  0.5856 -0.2737  0.1237
  187POPC  H16R21563   1.547   0.274   5.548 -2.4435 -1.4052  3.9028
  187POPC  H16S21564   1.403   0.231   5.447  2.5921 -1.6401 -0.2086
  187POPC  C21721565   1.391   0.412   5.572 -0.6411 -0.8593 -0.6771
  187POPC  H17R21566   1.317   0.467   5.509  2.1667  0.6922 -2.8376
  187POPC  H17S21567   1.452   0.497   5.608 -0.4590  0.7401 -4.3212
  187POPC  C21821568   1.320   0.347   5.694  0.4317  0.2356 -0.1810
  187POPC  H18R21569   1.371   0.259   5.737  0.8092  0.9767  0.9356
  187POPC  H18S21570   1.222   0.299   5.671  1.2082 -1.4438 -0.0945
  187POPC  H18T21571   1.287   0.419   5.772 -3.2474  0.4011 -1.6523
  187POPC   C3321572   1.989   0.597   4.483  0.2912  0.7399  0.4881
  187POPC   H3X21573   2.083   0.557   4.441 -1.2719  0.8505 -3.5685
  187POPC   H3Y21574   1.920   0.510   4.488 -0.7009  1.5675  1.8779
  187POPC   C3421575   1.996   0.661   4.617  0.2363 -0.3242  0.4560
  187POPC   H4X21576   1.890   0.690   4.631 -1.0087 -3.8809 -0.4297
  187POPC   H4Y21577   2.066   0.747   4.612  1.4493 -1.2822  0.3032
  187POPC   C3521578   2.041   0.559   4.726  0.0277  0.4197 -0.2918
  187POPC   H5X21579   2.142   0.520   4.699 -0.4852  1.2936 -3.9296
  187POPC   H5Y21580   1.983   0.465   4.717  3.5073 -1.7769 -1.8446
  187POPC   C3621581   2.023   0.610   4.873 -0.4822 -0.4757 -0.6091
  187POPC   H6X21582   1.921   0.652   4.888 -1.0589 -1.4663 -1.6001
  187POPC   H6Y21583   2.095   0.693   4.890  1.3798 -2.5501  2.8420
  187POPC   C3721584   2.038   0.492   4.972  0.3206 -0.3067 -0.2792
  187POPC   H7X21585   2.130   0.431   4.959 -0.9531 -2.2722 -0.3937
  187POPC   H7Y21586   1.952   0.424   4.958  0.1812 -0.5772  1.7146
  187POPC   C3821587   2.028   0.546   5.117 -0.1571 -0.1201  0.4938
  187POPC   H8X21588   1.930   0.592   5.144 -0.7615 -0.0135 -1.6443
  187POPC   H8Y21589   2.102   0.624   5.144 -1.4163  0.6729  1.7980
  187POPC   C3921590   2.034   0.423   5.219  0.3896 -0.4600 -0.3595
  187POPC   H9X21591   2.125   0.360   5.213  1.6987  1.3552 -0.3540
  187POPC   H9Y21592   1.944   0.358   5.206  1.9539 -2.4822 -1.7964
  187POPC  C31021593   2.023   0.472   5.360  1.0144 -0.1833 -0.1852
  187POPC  H10X21594   1.932   0.535   5.366  1.3869  0.2702  1.0801
  187POPC  H10Y21595   2.108   0.538   5.387  1.2700  0.5761 -2.6399
  187POPC  C31121596   2.007   0.360   5.462  0.5874 -0.4806 -0.3304
  187POPC  H11X21597   2.105   0.308   5.457  0.9351  0.0718  0.5451
  187POPC  H11Y21598   1.926   0.295   5.422 -0.5787  1.2616 -0.9185
  187POPC  C31221599   1.977   0.391   5.606  0.3983  0.2597 -0.5039
  187POPC  H12X21600   2.052   0.471   5.622  1.1239 -0.9472  3.1501
  187POPC  H12Y21601   1.991   0.308   5.680 -0.7552  0.6255  0.1480
  187POPC  C31321602   1.833   0.445   5.632  0.0733 -0.5953 -0.2031
  187POPC  H13X21603   1.762   0.366   5.598 -2.0677  1.9941 -2.1731
  187POPC  H13Y21604   1.813   0.541   5.580  2.0671  0.0180  0.0860
  187POPC  C31421605   1.798   0.486   5.778 -0.5677  0.1578  0.2611
  187POPC  H14X21606   1.697   0.533   5.779 -1.0595 -0.8266  1.9691
  187POPC  H14Y21607   1.866   0.567   5.809  0.0036 -0.1460 -0.1844
  187POPC  C31521608   1.802   0.379   5.881  0.0794  0.1952  0.5148
  187POPC  H15X21609   1.832   0.431   5.975 -3.0400  2.1879  0.5679
  187POPC  H15Y21610   1.876   0.301   5.852 -0.5121 -0.6888  1.3143
  187POPC  C31621611   1.666   0.317   5.890 -0.2567 -0.6622  0.6375
  187POPC  H16X21612   1.623   0.281   5.794  1.7098 -0.3822 -0.4087
  187POPC  H16Y21613   1.594   0.388   5.935  1.6764  0.0043  2.9173
  187POPC  H16Z21614   1.675   0.225   5.953  4.4465 -0.7298  0.1932
  188POPC     N21615   3.000   0.763   3.194 -0.0534 -1.1897 -0.4352
  188POPC   C1221616   2.851   0.797   3.193 -0.1007  0.1093 -0.3745
  188POPC  H12A21617   2.793   0.712   3.227 -0.5950  0.9519  1.0028
  188POPC  H12B21618   2.822   0.797   3.089  1.4383 -0.5989 -0.8313
  188POPC   C1321619   3.010   0.632   3.114 -0.7086  0.3412 -0.1580
  188POPC  H13A21620   3.102   0.577   3.125 -1.6126 -1.1272  0.3231
  188POPC  H13B21621   2.928   0.568   3.145 -0.6010  1.2298  2.1441
  188POPC  H13C21622   3.007   0.657   3.009 -0.4928  2.8123  0.3717
  188POPC   C1421623   3.084   0.868   3.135 -0.6197  0.4051 -0.2242
  188POPC  H14A21624   3.189   0.841   3.130 -0.5884  0.6497 -0.9606
  188POPC  H14B21625   3.062   0.887   3.031 -3.1392 -0.8208  0.0035
  188POPC  H14C21626   3.071   0.957   3.194  1.6819  0.1133  0.8529
  188POPC   C1521627   3.045   0.730   3.333  0.1710  0.3778  0.1415
  188POPC  H15A21628   3.146   0.690   3.338 -0.0395 -0.3230 -0.9204
  188POPC  H15B21629   2.976   0.656   3.371 -3.5186  2.0542 -2.7424
  188POPC  H15C21630   3.048   0.815   3.400 -0.7989  0.0552  0.6116
  188POPC   C1121631   2.788   0.930   3.261  0.0540  0.3186 -1.0401
  188POPC  H11A21632   2.679   0.941   3.239  0.4319  1.3615 -2.5068
  188POPC  H11B21633   2.836   1.012   3.205  0.5817  0.7800  0.0696
  188POPC     P21634   2.719   0.902   3.507  0.0045 -0.2041 -0.0520
  188POPC   O1321635   2.703   0.757   3.496 -0.4839 -0.3444 -0.2566
  188POPC   O1421636   2.594   0.983   3.482 -0.5144 -0.3613 -0.1007
  188POPC   O1221637   2.826   0.938   3.404  0.2095 -0.1593 -0.2559
  188POPC   O1121638   2.783   0.941   3.643  0.5337  0.5514  0.2358
  188POPC    C121639   2.875   1.050   3.661  0.6993  0.1207 -0.1768
  188POPC    HA21640   2.875   1.117   3.573 -0.2646 -0.9627 -1.0263
  188POPC    HB21641   2.977   1.008   3.665  0.1296 -1.7889 -2.9951
  188POPC    C221642   2.848   1.128   3.792 -0.8476  0.3886  0.1975
  188POPC    HS21643   2.920   1.212   3.800  0.4065 -0.8102  3.2959
  188POPC   O2121644   2.882   1.041   3.895 -0.2925 -0.1493  0.3424
  188POPC   C2121645   2.927   1.096   3.999 -0.3315 -0.5781 -0.3333
  188POPC   O2221646   2.935   1.221   4.012  0.1465  0.6087 -0.0358
  188POPC   C2221647   2.974   0.998   4.108  0.7840 -0.5036  1.3905
  188POPC   H2R21648   3.075   0.957   4.085  1.0918  1.1294 -0.3533
  188POPC   H2S21649   2.897   0.919   4.096 -1.3677  1.8993 -2.8589
  188POPC    C321650   2.703   1.189   3.792 -0.0676 -0.1498  0.1286
  188POPC    HX21651   2.632   1.122   3.738 -0.3400 -0.5659  0.9890
  188POPC    HY21652   2.708   1.276   3.723 -0.1957 -1.6921 -1.9376
  188POPC   O3121653   2.652   1.222   3.919  0.5497  0.3196 -0.1605
  188POPC   C3121654   2.577   1.127   3.968  0.5269 -0.4535 -0.1394
  188POPC   O3221655   2.559   1.017   3.921  0.2308 -0.0423 -0.0989
  188POPC   C3221656   2.499   1.183   4.093  0.3156  0.2351 -0.2950
  188POPC   H2X21657   2.392   1.184   4.064 -0.7012 -0.8628  2.9936
  188POPC   H2Y21658   2.531   1.290   4.096  3.2618 -0.4742 -1.9588
  188POPC   C2321659   2.990   1.057   4.254 -0.3403  0.5969 -0.1734
  188POPC   H3R21660   2.943   1.157   4.250 -1.1720  0.1679 -1.6708
  188POPC   H3S21661   3.097   1.085   4.264 -0.7054  1.7000  0.9518
  188POPC   C2421662   2.931   0.950   4.352  0.3288 -0.0742  0.9321
  188POPC   H4R21663   2.964   0.850   4.315 -0.7729 -1.2019  2.8325
  188POPC   H4S21664   2.822   0.944   4.332  1.0116 -1.4394 -3.5437
  188POPC   C2521665   2.966   0.972   4.497 -0.0836  0.8669  0.8397
  188POPC   H5R21666   2.925   1.071   4.525  2.3623  1.8923  1.0639
  188POPC   H5S21667   3.076   0.983   4.499  0.1679 -1.2944  1.2935
  188POPC   C2621668   2.950   0.860   4.602  1.0696  0.4238  0.1363
  188POPC   H6R21669   3.040   0.862   4.667  1.7168 -1.3920 -0.6530
  188POPC   H6S21670   2.950   0.767   4.541 -0.7712  0.9952 -0.7829
  188POPC   C2721671   2.819   0.867   4.673  0.6607  0.7141 -0.8381
  188POPC   H7R21672   2.736   0.870   4.599  0.1681  3.8697 -0.2837
  188POPC   H7S21673   2.808   0.962   4.730  3.1785 -1.1059  3.0963
  188POPC   C2821674   2.788   0.746   4.764 -0.4630  0.0363  0.3073
  188POPC   H8R21675   2.758   0.663   4.696  1.1567 -0.2127 -0.1472
  188POPC   H8S21676   2.695   0.779   4.815 -0.2334  0.6667  0.3235
  188POPC   C2921677   2.903   0.695   4.847  0.1462  0.1573  0.0430
  188POPC   H9121678   2.967   0.622   4.795  1.9341  0.9090  1.1130
  188POPC  C21021679   2.920   0.718   4.982 -0.1381  0.5747  0.1998
  188POPC  H10121680   3.013   0.677   5.024  0.3788  2.0909  0.6190
  188POPC  C21121681   2.826   0.780   5.082  0.3279 -0.0054 -0.0901
  188POPC  H11R21682   2.728   0.805   5.036  1.0417 -0.1038 -1.7526
  188POPC  H11S21683   2.869   0.880   5.106 -0.1347  0.0192  0.6784
  188POPC  C21221684   2.805   0.689   5.203 -0.2687  0.3922 -0.6596
  188POPC  H12R21685   2.741   0.601   5.179  0.3977  0.3057 -2.2344
  188POPC  H12S21686   2.752   0.750   5.279  3.6129  1.6362  1.3510
  188POPC  C21321687   2.933   0.633   5.268 -0.6072 -0.3039 -0.6381
  188POPC  H13R21688   3.008   0.715   5.274  0.3901 -1.3019  2.8523
  188POPC  H13S21689   2.976   0.556   5.200  0.5051  0.6530 -1.0559
  188POPC  C21421690   2.922   0.575   5.406  0.6290  0.3747 -0.0230
  188POPC  H14R21691   2.835   0.506   5.416  0.0082  1.1897  0.3049
  188POPC  H14S21692   2.905   0.647   5.489 -1.6089 -4.3123  4.1467
  188POPC  C21521693   3.050   0.508   5.443  0.2149  0.0997 -0.2351
  188POPC  H15R21694   3.137   0.572   5.417 -0.6255  2.2025  1.8083
  188POPC  H15S21695   3.065   0.416   5.382  1.0738  0.8374 -1.1614
  188POPC  C21621696   3.062   0.495   5.598 -0.3907  0.3508 -0.0335
  188POPC  H16R21697   3.090   0.600   5.619  4.3898 -0.3846 -1.5108
  188POPC  H16S21698   3.152   0.430   5.606 -0.7470 -0.1628 -0.1425
  188POPC  C21721699   2.949   0.442   5.685 -0.2103 -0.6707 -0.2000
  188POPC  H17R21700   2.871   0.396   5.619  0.0211  0.8941 -1.6403
  188POPC  H17S21701   2.893   0.526   5.731 -1.1244 -0.9046 -0.8440
  188POPC  C21821702   2.984   0.348   5.794 -0.4618 -0.2186 -0.1688
  188POPC  H18R21703   3.052   0.407   5.860  0.8097  0.3108 -1.8641
  188POPC  H18S21704   3.038   0.259   5.755 -0.4525 -0.0506 -0.5484
  188POPC  H18T21705   2.892   0.318   5.848  0.4444 -1.9220  0.5176
  188POPC   C3321706   2.537   1.104   4.218 -0.8098  0.2051 -0.2985
  188POPC   H3X21707   2.643   1.072   4.219 -0.9095 -0.1512  0.8615
  188POPC   H3Y21708   2.478   1.010   4.221 -1.5964  0.7138  1.4842
  188POPC   C3421709   2.516   1.180   4.351 -0.1243 -0.4646  0.2206
  188POPC   H4X21710   2.428   1.247   4.353  1.0041  1.0308  1.1766
  188POPC   H4Y21711   2.606   1.244   4.358 -2.2559  2.7408  0.2716
  188POPC   C3521712   2.513   1.073   4.463 -0.1618  0.2216 -0.6260
  188POPC   H5X21713   2.608   1.016   4.457 -1.1691 -1.6511  0.2752
  188POPC   H5Y21714   2.424   1.008   4.458 -1.1127  1.2840  1.1238
  188POPC   C3621715   2.504   1.136   4.603  0.1826  0.4149  0.7882
  188POPC   H6X21716   2.421   1.209   4.610  0.9921  1.2809  1.6052
  188POPC   H6Y21717   2.594   1.196   4.629 -1.5170  2.8938  1.2565
  188POPC   C3721718   2.498   1.038   4.719 -0.3940 -0.0885 -0.1584
  188POPC   H7X21719   2.577   0.960   4.708  0.2296  0.7197 -1.7184
  188POPC   H7Y21720   2.400   0.986   4.727 -0.2463 -0.4839 -0.9050
  188POPC   C3821721   2.524   1.109   4.853 -0.3421 -0.2591  0.3968
  188POPC   H8X21722   2.445   1.187   4.856  0.3640  0.4518  0.9695
  188POPC   H8Y21723   2.623   1.161   4.851 -0.5876  0.1973 -0.7162
  188POPC   C3921724   2.516   1.021   4.982  0.1911 -0.2851  0.7811
  188POPC   H9X21725   2.581   0.933   4.967  2.7152  1.6897 -0.7645
  188POPC   H9Y21726   2.408   0.998   4.997 -0.2835  2.0758  1.4540
  188POPC  C31021727   2.566   1.102   5.093 -0.1996 -0.2057  0.3697
  188POPC  H10X21728   2.511   1.199   5.091  0.7721  0.3579  0.0544
  188POPC  H10Y21729   2.677   1.108   5.086 -0.1533 -0.5624  0.8187
  188POPC  C31121730   2.542   1.033   5.231 -0.2588  0.1378 -0.1694
  188POPC  H11X21731   2.597   0.936   5.229  0.3380  0.4393  0.7942
  188POPC  H11Y21732   2.434   1.012   5.243 -0.2555  0.8021  1.2472
  188POPC  C31221733   2.589   1.128   5.345  0.2415 -0.0025 -0.8231
  188POPC  H12X21734   2.540   1.227   5.335  1.6710  0.8394  0.0913
  188POPC  H12Y21735   2.696   1.142   5.318  1.5658 -0.6502  3.4052
  188POPC  C31321736   2.581   1.073   5.495  0.2732 -0.6200 -0.4414
  188POPC  H13X21737   2.478   1.068   5.535  0.9380 -1.1629  1.2723
  188POPC  H13Y21738   2.624   1.151   5.562 -0.7206 -1.3350  1.0855
  188POPC  C31421739   2.645   0.931   5.515  0.1782  0.0429  0.9080
  188POPC  H14X21740   2.737   0.924   5.453 -0.1924 -2.2017  0.5437
  188POPC  H14Y21741   2.569   0.864   5.470  1.2424 -0.0264 -0.8735
  188POPC  C31521742   2.664   0.880   5.661 -0.3325  0.4423 -0.4420
  188POPC  H15X21743   2.567   0.890   5.715  0.5537 -1.6677  1.7120
  188POPC  H15Y21744   2.738   0.952   5.700  0.7155 -1.8316  2.0910
  188POPC  C31621745   2.704   0.737   5.667 -0.4152 -0.1143 -0.9545
  188POPC  H16X21746   2.664   0.705   5.766 -1.5028  0.6977 -1.1234
  188POPC  H16Y21747   2.814   0.722   5.661 -0.1758  1.2443 -0.3466
  188POPC  H16Z21748   2.652   0.687   5.583  0.6253  1.6670 -2.7347
  189SAPI   C1221749   3.416   4.465   8.322  0.3495  0.4358  0.4063
  189SAPI    H221750   3.362   4.455   8.226 -0.2399 -0.6153  0.8319
  189SAPI    O221751   3.535   4.394   8.303 -0.3808  0.8189 -0.2827
  189SAPI   HO221752   3.552   4.380   8.210  0.5259 -0.2665  0.0197
  189SAPI   C1321753   3.439   4.618   8.355 -0.3607 -0.1507 -0.1060
  189SAPI    H321754   3.333   4.650   8.365 -1.2285 -2.8691  0.1971
  189SAPI    O321755   3.496   4.686   8.241 -0.1066  0.2117 -0.4320
  189SAPI   HO321756   3.452   4.769   8.259 -0.2925 -0.4994  3.2271
  189SAPI   C1421757   3.509   4.645   8.487 -0.1116  0.9675  1.0606
  189SAPI    H421758   3.612   4.619   8.454 -0.1277  1.1929  0.8302
  189SAPI    O421759   3.514   4.783   8.519  0.0430  0.8736  0.0419
  189SAPI   HO421760   3.584   4.819   8.465  1.2226  0.7914  1.4463
  189SAPI   C1521761   3.471   4.537   8.601 -0.5134  0.5887 -0.2750
  189SAPI    H521762   3.403   4.596   8.665 -2.4182  0.7900 -2.3493
  189SAPI    O521763   3.582   4.522   8.687 -0.6294  0.0578  0.1326
  189SAPI   HO521764   3.554   4.500   8.776  2.1428  0.7792  1.2859
  189SAPI   C1621765   3.400   4.406   8.561  0.4345 -0.3011 -0.9934
  189SAPI    H621766   3.480   4.329   8.561  1.2074  0.4795 -1.4178
  189SAPI    O621767   3.313   4.353   8.669 -0.3331 -0.0500  0.2657
  189SAPI   HO621768   3.221   4.373   8.650 -0.4680 -1.6642 -0.9701
  189SAPI   C1121769   3.333   4.408   8.431  0.6059 -0.0354  0.4188
  189SAPI    H121770   3.247   4.477   8.448  1.9783  2.0004 -0.4366
  189SAPI     P21771   3.115   4.247   8.392 -0.3661  0.1443 -0.1340
  189SAPI   O1321772   3.057   4.330   8.501  0.2745 -0.5670  0.7175
  189SAPI   O1421773   3.095   4.101   8.407  0.2271 -0.7169 -0.0889
  189SAPI   O1221774   3.278   4.282   8.385  0.0328 -0.0273 -0.4436
  189SAPI   O1121775   3.071   4.302   8.252  0.3088  0.2649 -1.2209
  189SAPI    C121776   3.060   4.442   8.219 -0.3032 -0.3466 -0.9857
  189SAPI    HA21777   3.022   4.509   8.300 -2.8665  0.6893 -2.9352
  189SAPI    HB21778   3.162   4.478   8.194 -0.9520  0.8146 -2.1105
  189SAPI    C221779   2.995   4.478   8.087  0.4040 -0.2970 -0.2998
  189SAPI    HS21780   2.884   4.469   8.092  0.5933 -2.9167  0.3383
  189SAPI   O2121781   3.039   4.367   7.995  0.1098  0.0532 -0.7250
  189SAPI   C2121782   2.958   4.266   7.988  0.7590  1.0138  0.2031
  189SAPI   O2221783   2.856   4.245   8.051  0.3098 -0.1111 -0.1912
  189SAPI   C2221784   3.021   4.147   7.920  0.4646 -0.0930  0.5845
  189SAPI   H2R21785   3.122   4.175   7.882  0.3177  0.1867  0.4007
  189SAPI   H2S21786   3.035   4.063   7.991 -0.4382 -1.9731 -1.3481
  189SAPI    C321787   3.050   4.609   8.025 -0.0633  0.8194 -0.1691
  189SAPI    HX21788   3.157   4.606   7.995 -0.2525 -0.2944 -0.7606
  189SAPI    HY21789   3.041   4.689   8.102  0.9500  1.0478 -0.2715
  189SAPI   O3121790   2.971   4.641   7.910 -0.0243 -0.6132 -0.0509
  189SAPI   C3121791   2.983   4.770   7.861 -0.3348  0.6296  0.3172
  189SAPI   O3221792   3.055   4.856   7.912 -0.0552  0.2211 -0.3652
  189SAPI   C3221793   2.881   4.797   7.756  1.2772 -0.0293 -0.3478
  189SAPI   H2X21794   2.882   4.908   7.752 -0.5423  0.1323  1.5965
  189SAPI   H2Y21795   2.784   4.764   7.799  1.8265 -0.8617  0.2857
  189SAPI   C2321796   2.930   4.091   7.802  0.1992  0.4541 -0.4402
  189SAPI   H3R21797   2.873   4.181   7.771 -0.0975  0.4027 -0.0524
  189SAPI   H3S21798   2.861   4.014   7.844 -0.2895  0.1242 -1.7956
  189SAPI   C2421799   3.007   4.031   7.680  0.1294  0.6038  0.4334
  189SAPI   H4R21800   3.094   4.098   7.667  0.2077  0.4533  0.1888
  189SAPI   H4S21801   2.947   4.042   7.587 -2.4281  2.0934  2.0971
  189SAPI   C2521802   3.057   3.894   7.715 -0.1418 -0.5854 -0.4458
  189SAPI   H5R21803   3.108   3.879   7.811 -0.3392 -3.6180 -0.7288
  189SAPI   C2621804   3.066   3.784   7.627  0.2945 -0.0337 -0.7989
  189SAPI   H6R21805   3.121   3.693   7.654 -1.5104 -0.3044  2.6455
  189SAPI   C2721806   3.025   3.790   7.482  0.1078 -0.3767 -0.1224
  189SAPI   H7R21807   2.933   3.852   7.479 -0.7935 -1.6047  1.0188
  189SAPI   H7S21808   2.986   3.690   7.453  0.3206 -0.6293  0.4342
  189SAPI   C2821809   3.129   3.842   7.389 -0.1757 -0.7599 -0.6308
  189SAPI   H8R21810   3.125   3.949   7.365  1.3348 -1.1763 -3.0968
  189SAPI   C2921811   3.233   3.772   7.347 -0.4131  0.1715 -0.1196
  189SAPI   H9R21812   3.311   3.809   7.279  0.5250 -0.0184  0.8407
  189SAPI  C21021813   3.285   3.635   7.386 -0.0872 -0.4465 -0.2136
  189SAPI  H10R21814   3.228   3.602   7.475  0.9649 -1.5136  0.0975
  189SAPI  H10S21815   3.384   3.662   7.429 -0.3173  0.6585 -0.3546
  189SAPI  C21121816   3.296   3.534   7.275 -0.1793 -0.3786 -0.0867
  189SAPI  H11R21817   3.203   3.516   7.220 -1.7145  0.2204  2.1700
  189SAPI  C21221818   3.406   3.459   7.245 -0.1666 -0.1970 -0.0315
  189SAPI  H12R21819   3.396   3.389   7.160 -2.0608 -1.5251  1.1962
  189SAPI  C21321820   3.542   3.463   7.303 -1.1023  0.4061 -0.2033
  189SAPI  H13R21821   3.557   3.520   7.397 -1.6278 -1.2050  0.8986
  189SAPI  H13S21822   3.602   3.513   7.223  0.8578 -0.2291  0.7955
  189SAPI  C21421823   3.598   3.323   7.327 -0.3885 -0.0592  0.2646
  189SAPI  H14R21824   3.539   3.258   7.392 -0.6113 -0.4308 -0.3005
  189SAPI  C21521825   3.699   3.256   7.259  1.0778  0.0749 -0.4745
  189SAPI  H15R21826   3.718   3.153   7.291  0.6131  0.3859  0.8624
  189SAPI  C21621827   3.790   3.291   7.144 -0.2280 -0.1765  0.2357
  189SAPI  H16R21828   3.882   3.230   7.157 -0.0784  0.2699  1.3824
  189SAPI  H16S21829   3.842   3.388   7.160 -2.3264  1.3352 -1.5081
  189SAPI  C21721830   3.728   3.269   7.006 -0.6587 -0.5228 -0.1463
  189SAPI  H17R21831   3.669   3.175   6.997 -2.5806  0.7030 -0.9230
  189SAPI  H17S21832   3.820   3.248   6.948 -0.3340 -3.1796  1.1530
  189SAPI  C21821833   3.662   3.387   6.942  0.1611 -0.2020  0.3810
  189SAPI  H18R21834   3.729   3.475   6.952  0.0523 -0.1813  0.9583
  189SAPI  H18S21835   3.569   3.410   6.998 -0.6013  0.3218 -1.0373
  189SAPI  C21921836   3.636   3.381   6.792 -0.0302 -0.3474  0.1547
  189SAPI  H19R21837   3.739   3.375   6.749  0.0747  0.2534  0.3137
  189SAPI  H19S21838   3.585   3.478   6.772  1.3642  0.1696 -1.1771
  189SAPI  C22021839   3.557   3.263   6.747  0.0900 -0.2199 -0.1325
  189SAPI  H20R21840   3.617   3.169   6.747  0.9914  0.3360  0.4489
  189SAPI  H20S21841   3.525   3.278   6.642 -0.5371 -2.8789 -0.3901
  189SAPI  H20T21842   3.470   3.253   6.816 -0.8358 -0.8087 -1.3512
  189SAPI   C3321843   2.924   4.736   7.626 -0.3197  0.5898 -0.1279
  189SAPI   H3X21844   2.922   4.626   7.634 -0.8749  0.5936 -0.1724
  189SAPI   H3Y21845   3.027   4.753   7.587 -0.4835  0.2605 -0.7159
  189SAPI   C3421846   2.827   4.768   7.510  0.0529  0.1904  0.4622
  189SAPI   H4X21847   2.871   4.861   7.468 -0.6222  0.2244 -0.2028
  189SAPI   H4Y21848   2.724   4.776   7.550  0.0955  0.7996  0.4574
  189SAPI   C3521849   2.829   4.664   7.404  0.1587  0.2192 -0.2489
  189SAPI   H5X21850   2.725   4.667   7.365 -0.0285 -1.0347  0.0966
  189SAPI   H5Y21851   2.850   4.562   7.445  1.9491  0.9190  0.7080
  189SAPI   C3621852   2.933   4.685   7.291 -0.3148  0.0164 -0.7196
  189SAPI   H6X21853   3.032   4.642   7.315 -0.4050  0.5378  0.6771
  189SAPI   H6Y21854   2.962   4.792   7.288  1.4605 -0.2307  3.0508
  189SAPI   C3721855   2.891   4.652   7.148 -0.0681  0.6505  0.1243
  189SAPI   H7X21856   2.783   4.678   7.147  0.2848  2.1933 -0.5439
  189SAPI   H7Y21857   2.904   4.545   7.122  1.5400  1.3430 -2.2836
  189SAPI   C3821858   2.959   4.729   7.036  0.1696 -0.5497 -0.4406
  189SAPI   H8X21859   3.067   4.710   7.055  0.3839  0.9148 -0.0979
  189SAPI   H8Y21860   2.948   4.838   7.053  2.2032 -0.4121  0.3379
  189SAPI   C3921861   2.923   4.696   6.895  0.0965  0.2665  0.6180
  189SAPI   H9X21862   2.931   4.791   6.839  1.7187 -0.6151 -0.7739
  189SAPI   H9Y21863   2.822   4.651   6.885  0.9386 -1.9279  1.4431
  189SAPI  C31021864   3.019   4.593   6.834 -0.3986 -0.3871 -0.3634
  189SAPI  H10X21865   2.988   4.497   6.879 -2.1756  0.1565 -0.3499
  189SAPI  H10Y21866   3.122   4.620   6.866 -1.1521  2.2953  0.0514
  189SAPI  C31121867   3.035   4.585   6.683  0.2429 -0.1382  0.6780
  189SAPI  H11X21868   2.935   4.580   6.636  1.4877 -0.9975 -2.1135
  189SAPI  H11Y21869   3.099   4.500   6.650  0.5574 -0.3393  1.7903
  189SAPI  C31221870   3.086   4.719   6.615 -0.3436  0.4935 -0.1922
  189SAPI  H12X21871   3.185   4.748   6.656 -0.1574  0.5639 -0.6823
  189SAPI  H12Y21872   3.015   4.803   6.633  0.9776  1.5239  0.3130
  189SAPI  C31321873   3.109   4.707   6.464  0.2818 -0.2620 -0.7624
  189SAPI  H13X21874   3.197   4.643   6.442 -0.4960 -1.1879 -1.2784
  189SAPI  H13Y21875   3.144   4.809   6.439 -1.3744  0.2462 -1.1138
  189SAPI  C31421876   2.994   4.661   6.377  0.2815  0.2719 -0.4585
  189SAPI  H14X21877   2.908   4.729   6.358 -1.5490 -2.0060 -0.7197
  189SAPI  H14Y21878   2.949   4.577   6.434 -1.6458  1.9956  0.6891
  189SAPI  C31521879   3.036   4.600   6.240  0.3528  0.2763  0.5718
  189SAPI  H15X21880   3.096   4.510   6.264  1.4525  0.6286 -0.6675
  189SAPI  H15Y21881   3.115   4.661   6.191  1.4386 -0.6995  1.0635
  189SAPI  C31621882   2.922   4.568   6.145 -0.2645 -0.4070  0.2089
  189SAPI  H16X21883   2.861   4.487   6.190 -2.3863  1.3465  0.6554
  189SAPI  H16Y21884   2.953   4.531   6.045  0.7025 -0.8374  0.6468
  189SAPI  C31721885   2.838   4.692   6.109  0.3342 -0.2622  0.6421
  189SAPI  H17X21886   2.779   4.720   6.199  0.7448  0.9651  0.5576
  189SAPI  H17Y21887   2.761   4.645   6.044  0.7465 -0.7768  0.5179
  189SAPI  C31821888   2.908   4.802   6.032 -0.4035 -0.2830 -0.0146
  189SAPI  H18X21889   2.994   4.848   6.086 -0.9389  1.7431 -0.7938
  189SAPI  H18Y21890   2.840   4.876   5.984  1.9656  1.1827 -1.3184
  189SAPI  H18Z21891   2.962   4.770   5.940 -0.9681  2.3441 -1.3724
  190SAPI   C1221892   2.981   2.835   8.085 -0.1136  0.4923  0.1682
  190SAPI    H221893   2.958   2.802   7.982 -0.8622  1.4859 -0.0005
  190SAPI    O221894   3.054   2.727   8.147  0.0084 -0.5100 -0.6272
  190SAPI   HO221895   2.988   2.662   8.172  0.8987 -0.1665  3.2840
  190SAPI   C1321896   3.053   2.965   8.070 -0.3939 -0.6253 -0.3380
  190SAPI    H321897   2.985   3.043   8.028 -0.6751 -0.3699  0.5737
  190SAPI    O321898   3.156   2.956   7.973  0.2243  0.0163  0.5681
  190SAPI   HO321899   3.199   2.870   7.979  0.8773  0.3556  0.8085
  190SAPI   C1421900   3.099   3.011   8.206 -0.3769  0.2679 -0.0870
  190SAPI    H421901   3.178   2.939   8.239  0.7359  1.3631 -0.3000
  190SAPI    O421902   3.162   3.139   8.206 -0.0501 -0.6293  0.2556
  190SAPI   HO421903   3.244   3.147   8.156 -0.5507  1.4261 -0.3256
  190SAPI   C1521904   2.992   3.006   8.315  0.5447 -0.5569 -0.3508
  190SAPI    H521905   2.941   3.103   8.302  1.2743  0.1301  1.6091
  190SAPI    O521906   3.039   3.017   8.447 -0.6429 -0.1893 -0.5752
  190SAPI   HO521907   2.990   3.092   8.480  0.4387  0.3220 -0.1106
  190SAPI   C1621908   2.874   2.901   8.299 -0.7460  0.1669  0.3888
  190SAPI    H621909   2.893   2.810   8.359 -0.6755 -0.9912 -1.3182
  190SAPI    O621910   2.748   2.954   8.347  0.0138  0.7947 -0.7128
  190SAPI   HO621911   2.692   2.948   8.269  1.2857 -0.2243 -1.6052
  190SAPI   C1121912   2.853   2.854   8.154  0.6144  0.5466 -0.2799
  190SAPI    H121913   2.814   2.945   8.103  0.8298 -0.8590 -3.0976
  190SAPI     P21914   2.679   2.689   8.028 -0.0176 -0.4353 -0.4242
  190SAPI   O1321915   2.626   2.807   7.966  0.1178 -0.1989  0.6220
  190SAPI   O1421916   2.582   2.590   8.077 -0.1256  0.7213 -0.1707
  190SAPI   O1221917   2.770   2.737   8.151 -0.2413  0.1833  0.3650
  190SAPI   O1121918   2.769   2.608   7.922 -0.5346 -0.3825 -0.2989
  190SAPI    C121919   2.873   2.514   7.962  0.6822  0.5473  0.2465
  190SAPI    HA21920   2.972   2.560   7.938  2.0028 -2.3115 -0.2021
  190SAPI    HB21921   2.876   2.489   8.070 -1.7974  1.0825  0.4979
  190SAPI    C221922   2.865   2.377   7.874 -0.3725 -0.0059 -0.0908
  190SAPI    HS21923   2.822   2.298   7.939  0.0061  1.8381  2.5509
  190SAPI   O2121924   2.997   2.342   7.831 -0.2739  0.1147 -0.2356
  190SAPI   C2121925   3.056   2.249   7.907  0.8835  0.4951  0.2581
  190SAPI   O2221926   3.007   2.175   7.985  0.8645 -0.0473  0.4053
  190SAPI   C2221927   3.203   2.258   7.876  0.5719 -0.3858  0.0179
  190SAPI   H2R21928   3.224   2.321   7.787  0.3033 -0.4166 -0.0688
  190SAPI   H2S21929   3.246   2.319   7.958  0.5839  1.0845 -1.0329
  190SAPI    C321930   2.775   2.388   7.743 -0.2393 -0.0255 -0.6357
  190SAPI    HX21931   2.798   2.479   7.684 -2.0429  2.0468  1.6423
  190SAPI    HY21932   2.679   2.406   7.796  0.5710 -2.5010  1.9366
  190SAPI   O3121933   2.777   2.268   7.664 -1.2456  0.0831  0.1310
  190SAPI   C3121934   2.723   2.162   7.721  0.8081 -0.7109  0.0409
  190SAPI   O3221935   2.681   2.157   7.836 -0.5125  0.1335 -0.2984
  190SAPI   C3221936   2.717   2.046   7.614  0.7902 -0.6361 -0.5595
  190SAPI   H2X21937   2.788   1.967   7.648  0.8190 -0.3071  0.1651
  190SAPI   H2Y21938   2.752   2.089   7.518  0.0526  3.3440  0.7588
  190SAPI   C2321939   3.283   2.134   7.861  0.0656  0.0588  0.6803
  190SAPI   H3R21940   3.268   2.070   7.951 -0.4173 -0.1711  0.4412
  190SAPI   H3S21941   3.392   2.155   7.862  0.2223 -0.7225  0.5806
  190SAPI   C2421942   3.237   2.063   7.736  0.4609 -0.0844 -0.4489
  190SAPI   H4R21943   3.131   2.037   7.756  0.6558  0.7784  2.0110
  190SAPI   H4S21944   3.292   1.967   7.727  0.3236 -0.2486  0.3898
  190SAPI   C2521945   3.260   2.147   7.610  0.6833  0.6338  0.5145
  190SAPI   H5R21946   3.340   2.221   7.630  0.7972  0.2133  1.7244
  190SAPI   C2621947   3.202   2.148   7.489  0.0759  0.3806 -0.5538
  190SAPI   H6R21948   3.248   2.210   7.410 -0.9635  0.0074 -1.4762
  190SAPI   C2721949   3.092   2.057   7.441 -0.2622  0.5980 -0.7673
  190SAPI   H7R21950   3.046   1.990   7.517 -0.4393  1.8627  0.2736
  190SAPI   H7S21951   3.126   1.991   7.358 -1.8475 -1.1054 -0.1274
  190SAPI   C2821952   2.984   2.147   7.397 -0.0175 -0.4001 -0.1387
  190SAPI   H8R21953   2.952   2.219   7.475 -0.5437 -2.0827  1.2807
  190SAPI   C2921954   2.941   2.160   7.269 -0.6740 -0.7262  0.2258
  190SAPI   H9R21955   2.860   2.230   7.242  1.3821  1.2276 -1.2019
  190SAPI  C21021956   2.991   2.070   7.162  0.3744 -0.3459 -0.2663
  190SAPI  H10R21957   2.903   2.073   7.094  0.5777  1.7334 -0.4929
  190SAPI  H10S21958   2.996   1.965   7.199 -1.8463  0.2498  1.9374
  190SAPI  C21121959   3.115   2.108   7.085  0.7603  0.2277  0.1285
  190SAPI  H11R21960   3.201   2.140   7.146 -0.0027  0.9124  0.8662
  190SAPI  C21221961   3.138   2.087   6.950 -0.1969 -0.3050 -0.3213
  190SAPI  H12R21962   3.240   2.103   6.911  0.7255  0.2883  2.1321
  190SAPI  C21321963   3.039   2.028   6.859  0.1439  0.4222  0.8029
  190SAPI  H13R21964   2.958   1.978   6.915  0.2837 -0.2580  0.4189
  190SAPI  H13S21965   3.089   1.948   6.798 -0.3786 -0.1704  1.1470
  190SAPI  C21421966   3.006   2.141   6.764  0.6409 -0.0133  0.2575
  190SAPI  H14R21967   3.074   2.228   6.760  2.0459 -1.0363  1.1028
  190SAPI  C21521968   2.901   2.146   6.676 -0.1419  0.2182  0.2705
  190SAPI  H15R21969   2.897   2.225   6.600  3.0426  0.1277 -0.1523
  190SAPI  C21621970   2.784   2.040   6.663  0.2058 -0.3403  0.3708
  190SAPI  H16R21971   2.693   2.073   6.718  0.1142 -0.1143  0.0868
  190SAPI  H16S21972   2.814   1.946   6.713 -0.9540 -0.5476  0.7115
  190SAPI  C21721973   2.739   2.019   6.516  0.2117  0.0641  0.5878
  190SAPI  H17R21974   2.649   1.956   6.533  0.5880 -0.2978  1.2990
  190SAPI  H17S21975   2.805   1.964   6.447 -0.4825  0.4988 -0.4460
  190SAPI  C21821976   2.685   2.135   6.436 -0.1102  0.0962 -0.0100
  190SAPI  H18R21977   2.669   2.096   6.333 -0.1212  1.4403 -0.5414
  190SAPI  H18S21978   2.772   2.203   6.423  0.2926 -0.2670  0.7371
  190SAPI  C21921979   2.559   2.191   6.495 -0.2458 -0.6894 -0.6969
  190SAPI  H19R21980   2.533   2.283   6.437  0.2001 -0.0740  0.0713
  190SAPI  H19S21981   2.552   2.204   6.605 -2.3246 -2.6274 -0.5342
  190SAPI  C22021982   2.435   2.098   6.471 -0.6428  0.0670 -0.4365
  190SAPI  H20R21983   2.422   2.011   6.538 -1.7895  0.8636  0.4132
  190SAPI  H20S21984   2.444   2.065   6.365  2.1393 -0.9447  0.0318
  190SAPI  H20T21985   2.338   2.149   6.482 -0.2271  1.3723 -2.2750
  190SAPI   C3321986   2.576   1.993   7.613 -0.0590 -0.2668 -0.0920
  190SAPI   H3X21987   2.504   2.071   7.577 -0.5820  0.5805  2.6009
  190SAPI   H3Y21988   2.557   1.952   7.714  1.6498 -1.4388 -0.2180
  190SAPI   C3421989   2.571   1.867   7.535  0.6391 -0.1175  0.5299
  190SAPI   H4X21990   2.630   1.795   7.595  2.1539  1.2900  0.7989
  190SAPI   H4Y21991   2.608   1.869   7.430 -2.2722  0.1522 -0.5946
  190SAPI   C3521992   2.435   1.798   7.516  0.1872 -0.2426 -0.2103
  190SAPI   H5X21993   2.367   1.863   7.457  0.0634 -1.2248 -1.1943
  190SAPI   H5Y21994   2.394   1.799   7.619  0.9502  1.2998  0.1089
  190SAPI   C3621995   2.436   1.659   7.458 -0.7351 -0.1402 -0.2657
  190SAPI   H6X21996   2.345   1.603   7.488 -1.7738  1.8406  0.4767
  190SAPI   H6Y21997   2.521   1.611   7.510  0.3128  0.6360 -1.2220
  190SAPI   C3721998   2.464   1.641   7.309 -0.3407 -0.0290  0.1240
  190SAPI   H7X21999   2.464   1.532   7.286 -0.9540  0.1996 -1.1057
  190SAPI   H7Y22000   2.570   1.665   7.286 -0.1289 -1.1328 -0.1292
  190SAPI   C3822001   2.363   1.721   7.219 -1.1552  0.0705 -0.4658
  190SAPI   H8X22002   2.364   1.831   7.227  0.9917  0.0230  0.5784
  190SAPI   H8Y22003   2.264   1.681   7.249 -1.5688  0.0864 -1.7515
  190SAPI   C3922004   2.386   1.688   7.070  0.0680  0.6290 -0.2449
  190SAPI   H9X22005   2.295   1.705   7.009 -0.6486 -0.4798  0.4687
  190SAPI   H9Y22006   2.419   1.582   7.057 -0.7422  0.1977  1.0350
  190SAPI  C31022007   2.496   1.773   7.004  0.0258  0.2034  0.5773
  190SAPI  H10X22008   2.577   1.794   7.077  0.5905 -0.3003  0.1117
  190SAPI  H10Y22009   2.447   1.868   6.973 -0.1628 -0.0540  0.0718
  190SAPI  C31122010   2.561   1.701   6.880  0.1944  0.5887  0.5382
  190SAPI  H11X22011   2.602   1.605   6.917 -1.2974  0.1950  1.2342
  190SAPI  H11Y22012   2.646   1.765   6.846  0.8786 -0.3431  0.4755
  190SAPI  C31222013   2.467   1.656   6.761 -0.4668  0.0537 -0.4524
  190SAPI  H12X22014   2.421   1.740   6.705 -0.4200 -0.1267 -0.7664
  190SAPI  H12Y22015   2.378   1.601   6.796 -0.7569  2.0984  2.3348
  190SAPI  C31322016   2.535   1.563   6.660  0.1236 -0.2394  0.0281
  190SAPI  H13X22017   2.537   1.461   6.702 -0.7557 -0.5925 -0.7637
  190SAPI  H13Y22018   2.644   1.584   6.649  0.1111  0.3714  0.9573
  190SAPI  C31422019   2.481   1.564   6.518 -0.4834 -0.1671  0.2184
  190SAPI  H14X22020   2.472   1.672   6.493 -1.2889  0.5585  3.2148
  190SAPI  H14Y22021   2.378   1.524   6.525 -0.3442 -0.7097 -0.7070
  190SAPI  C31522022   2.552   1.491   6.414 -0.6038 -0.1012 -0.2724
  190SAPI  H15X22023   2.577   1.391   6.456 -0.7004  0.4311  1.0890
  190SAPI  H15Y22024   2.651   1.527   6.377 -0.5832 -1.7338 -1.9977
  190SAPI  C31622025   2.464   1.469   6.295  0.7021  0.2214  0.5711
  190SAPI  H16X22026   2.364   1.428   6.319  1.0520 -2.5565 -2.1683
  190SAPI  H16Y22027   2.504   1.392   6.226 -0.7534  0.5366 -0.6645
  190SAPI  C31722028   2.451   1.600   6.214 -0.1611  0.2801  0.2460
  190SAPI  H17X22029   2.555   1.635   6.197  0.6917 -0.0473  3.8454
  190SAPI  H17Y22030   2.407   1.676   6.282  2.1918 -0.1381  2.4257
  190SAPI  C31822031   2.378   1.590   6.085  0.9656  0.7169  0.6884
  190SAPI  H18X22032   2.368   1.683   6.025 -0.0085  0.4809  0.4642
  190SAPI  H18Y22033   2.273   1.556   6.097  1.1247 -1.0936 -2.1567
  190SAPI  H18Z22034   2.426   1.512   6.023  2.2756  2.5805 -0.7600
  191SAPI   C1222035   1.764   5.751   3.745 -0.2525  0.5772  0.0064
  191SAPI    H222036   1.814   5.726   3.649 -2.4993 -0.6346 -0.9291
  191SAPI    O222037   1.870   5.768   3.853  0.1912 -0.0880  0.3024
  191SAPI   HO222038   1.892   5.685   3.896  0.2756  0.7988  2.0590
  191SAPI   C1322039   1.690   5.879   3.729 -0.3379 -0.2638  0.3252
  191SAPI    H322040   1.640   5.870   3.630  1.8193  0.8605 -0.9550
  191SAPI    O322041   1.786   5.991   3.708 -0.2794 -0.5610 -0.1772
  191SAPI   HO322042   1.837   6.013   3.786 -0.0641  1.5627 -0.8441
  191SAPI   C1422043   1.586   5.915   3.837 -0.1832  0.2575 -0.4457
  191SAPI    H422044   1.637   5.985   3.907 -1.8180 -0.8651  1.9961
  191SAPI    O422045   1.479   5.997   3.784  0.3461 -0.5453 -0.0340
  191SAPI   HO422046   1.447   6.066   3.841  0.1970  0.0463 -0.8201
  191SAPI   C1522047   1.534   5.798   3.919 -0.2721  0.2965 -0.4942
  191SAPI    H522048   1.431   5.783   3.879 -0.7249 -2.3783  1.3826
  191SAPI    O522049   1.510   5.833   4.054 -0.1533  0.3588  0.2601
  191SAPI   HO522050   1.594   5.863   4.091  0.5166  0.0101 -0.9178
  191SAPI   C1622051   1.596   5.655   3.895 -0.0933  0.5090 -0.0918
  191SAPI    H622052   1.660   5.641   3.985 -1.6385 -0.2107  0.9346
  191SAPI    O622053   1.494   5.555   3.903 -0.0506 -0.5872  0.1691
  191SAPI   HO622054   1.537   5.469   3.909  2.1689  0.2335 -1.9498
  191SAPI   C1122055   1.674   5.634   3.769 -0.8230  0.1475  0.2845
  191SAPI    H122056   1.603   5.634   3.684  0.1316 -0.7030 -0.5361
  191SAPI     P22057   1.717   5.374   3.713 -0.1815  0.0984 -0.1383
  191SAPI   O1322058   1.834   5.292   3.672  0.4034  0.5582  0.0672
  191SAPI   O1422059   1.604   5.384   3.617  0.1117 -0.3029  0.3424
  191SAPI   O1222060   1.764   5.522   3.764  0.0971  0.1560 -0.6711
  191SAPI   O1122061   1.661   5.307   3.852  0.2225  0.1856 -0.5326
  191SAPI    C122062   1.747   5.284   3.961 -0.0636  0.1464 -0.1964
  191SAPI    HA22063   1.802   5.188   3.952 -1.5981 -0.8065  0.2483
  191SAPI    HB22064   1.814   5.372   3.973  1.2002 -0.7636 -0.4552
  191SAPI    C222065   1.674   5.269   4.098 -0.5606  0.1267 -0.2674
  191SAPI    HS22066   1.619   5.173   4.096 -2.5884  1.2631 -1.1806
  191SAPI   O2122067   1.590   5.379   4.135 -0.3601 -0.7696  0.2953
  191SAPI   C2122068   1.488   5.352   4.218 -0.3435 -1.3391  0.1361
  191SAPI   O2222069   1.450   5.242   4.249  0.3518  0.4758 -0.1712
  191SAPI   C2222070   1.433   5.489   4.278 -0.4371  0.0544 -0.0708
  191SAPI   H2R22071   1.369   5.529   4.197 -1.2331 -1.4505 -0.2064
  191SAPI   H2S22072   1.374   5.466   4.369 -1.7749  0.9839 -0.6787
  191SAPI    C322073   1.782   5.240   4.207 -0.0490 -0.2364  0.0957
  191SAPI    HX22074   1.845   5.331   4.207  0.3017 -0.4371 -1.9253
  191SAPI    HY22075   1.856   5.171   4.162  0.8791 -0.1557  1.4189
  191SAPI   O3122076   1.741   5.204   4.340  0.2969  0.2487 -0.6308
  191SAPI   C3122077   1.706   5.076   4.350 -0.0099 -0.3462  0.1173
  191SAPI   O3222078   1.703   4.997   4.249  0.0364 -0.4266  0.4118
  191SAPI   C3222079   1.671   5.036   4.493 -0.3192 -0.3172  0.1366
  191SAPI   H2X22080   1.766   5.037   4.549 -0.0572 -1.6876 -0.2334
  191SAPI   H2Y22081   1.636   4.932   4.475 -0.6013 -0.3879  1.0650
  191SAPI   C2322082   1.539   5.600   4.311 -0.7677  0.5044  0.3436
  191SAPI   H3R22083   1.581   5.644   4.218  2.8996 -0.2145  1.5261
  191SAPI   H3S22084   1.628   5.553   4.358 -1.0108  0.1017  0.4069
  191SAPI   C2422085   1.484   5.704   4.403  0.3872 -0.2418  0.5460
  191SAPI   H4R22086   1.455   5.653   4.498 -0.8672  1.0410  0.8834
  191SAPI   H4S22087   1.395   5.745   4.349  0.1229 -0.2431  0.9767
  191SAPI   C2522088   1.576   5.815   4.441  0.0465 -0.0824 -0.0355
  191SAPI   H5R22089   1.678   5.786   4.470  0.7279  0.4276 -1.7707
  191SAPI   C2622090   1.539   5.942   4.471 -0.7071 -0.3931 -0.3147
  191SAPI   H6R22091   1.609   6.026   4.485 -3.4188  1.9458  0.1862
  191SAPI   C2722092   1.393   5.991   4.460  0.9067 -0.4991  0.0032
  191SAPI   H7R22093   1.388   6.078   4.529  0.8656 -0.2887 -0.2670
  191SAPI   H7S22094   1.323   5.930   4.522  0.4453 -0.9335 -0.9210
  191SAPI   C2822095   1.343   6.003   4.318  0.1566  0.0304 -0.2882
  191SAPI   H8R22096   1.400   5.941   4.247  0.4202 -1.1675  0.9377
  191SAPI   C2922097   1.237   6.080   4.271  0.1597  0.6179 -0.7844
  191SAPI   H9R22098   1.188   6.065   4.174  0.4142 -0.2628 -0.7905
  191SAPI  C21022099   1.151   6.173   4.359 -0.0293 -0.7473 -0.0142
  191SAPI  H10R22100   1.177   6.279   4.340 -2.4695 -0.1204 -0.1843
  191SAPI  H10S22101   1.179   6.147   4.464  2.5239 -0.2589 -0.5218
  191SAPI  C21122102   1.001   6.159   4.333 -0.4849  0.0608  0.0373
  191SAPI  H11R22103   0.968   6.099   4.247  1.2219  0.7022 -1.1361
  191SAPI  C21222104   0.911   6.237   4.400 -0.2168  0.0609  0.1725
  191SAPI  H12R22105   0.804   6.229   4.373  0.1239  1.1310 -1.6376
  191SAPI  C21322106   0.936   6.331   4.522 -0.4235 -0.1424  0.0843
  191SAPI  H13R22107   1.041   6.326   4.558 -0.4565 -1.7222  0.0038
  191SAPI  H13S22108   0.877   6.298   4.610 -2.4195  2.0545 -0.3320
  191SAPI  C21422109   0.891   6.470   4.487 -0.0146  0.1589 -0.0014
  191SAPI  H14R22110   0.804   6.466   4.421  0.2722 -1.1962 -0.3366
  191SAPI  C21522111   0.930   6.588   4.540  0.1123  0.2490  0.8233
  191SAPI  H15R22112   0.890   6.677   4.488  1.8171  1.7143  1.8910
  191SAPI  C21622113   1.044   6.615   4.633 -0.6718 -0.1516 -0.0700
  191SAPI  H16R22114   1.095   6.711   4.606 -0.6440 -0.6954 -2.1660
  191SAPI  H16S22115   1.118   6.532   4.633  0.4444  0.7429 -2.3764
  191SAPI  C21722116   0.992   6.617   4.782 -0.3091  0.6070  0.3506
  191SAPI  H17R22117   0.934   6.522   4.788 -0.9317  0.8445 -1.3143
  191SAPI  H17S22118   0.923   6.703   4.795  1.5312  2.2965 -0.5630
  191SAPI  C21822119   1.094   6.614   4.893 -0.4401 -0.2598 -0.1256
  191SAPI  H18R22120   1.136   6.715   4.911 -0.3923 -0.2593 -0.2422
  191SAPI  H18S22121   1.175   6.540   4.879 -0.5743 -0.0727 -2.3266
  191SAPI  C21922122   1.025   6.567   5.021 -0.0335  0.3657  0.1619
  191SAPI  H19R22123   0.984   6.468   4.993  0.3019  0.1820  0.3066
  191SAPI  H19S22124   0.947   6.643   5.041  0.2891  0.1008  2.8681
  191SAPI  C22022125   1.118   6.552   5.142  0.1543 -0.6498 -0.4194
  191SAPI  H20R22126   1.202   6.480   5.129  2.2325  1.6008 -0.2139
  191SAPI  H20S22127   1.063   6.521   5.233  1.1840  1.2102  0.9098
  191SAPI  H20T22128   1.158   6.650   5.176 -0.7012 -0.4326 -0.0192
  191SAPI   C3322129   1.551   5.115   4.554  0.0918 -0.0308  0.1172
  191SAPI   H3X22130   1.465   5.115   4.484  0.8354  0.5161 -0.8284
  191SAPI   H3Y22131   1.585   5.220   4.565 -2.8718  1.3458 -2.4574
  191SAPI   C3422132   1.517   5.058   4.697  0.3506 -0.7727  0.8869
  191SAPI   H4X22133   1.609   5.028   4.751  1.2711  1.1051  0.4465
  191SAPI   H4Y22134   1.466   4.964   4.667  1.7819 -0.5026 -2.9863
  191SAPI   C3522135   1.437   5.162   4.781  0.2539  0.0422 -0.1021
  191SAPI   H5X22136   1.349   5.195   4.721 -0.0429  0.8844  0.7833
  191SAPI   H5Y22137   1.492   5.255   4.803 -0.6825  0.4885  0.4021
  191SAPI   C3622138   1.371   5.101   4.907  0.1159 -0.3388  0.2168
  191SAPI   H6X22139   1.430   5.018   4.951 -0.4490 -1.0105 -0.2697
  191SAPI   H6Y22140   1.268   5.069   4.879 -0.3488 -0.8865  2.3381
  191SAPI   C3722141   1.346   5.215   5.014 -0.0740 -0.7017  0.5585
  191SAPI   H7X22142   1.300   5.308   4.975  0.6159 -0.6361 -0.1256
  191SAPI   H7Y22143   1.446   5.254   5.043  0.0060  0.2671 -0.9371
  191SAPI   C3822144   1.263   5.164   5.126 -0.4908  0.3856 -1.0527
  191SAPI   H8X22145   1.323   5.103   5.198  0.0547  0.5324 -1.3799
  191SAPI   H8Y22146   1.176   5.104   5.093 -0.5837 -0.9787  1.4148
  191SAPI   C3922147   1.207   5.283   5.205  0.0582  0.5743  0.3691
  191SAPI   H9X22148   1.165   5.366   5.144  2.2655  1.0909 -0.5441
  191SAPI   H9Y22149   1.295   5.328   5.257  0.6473  0.9946 -0.9374
  191SAPI  C31022150   1.106   5.233   5.309 -0.0896  0.3408  0.0847
  191SAPI  H10X22151   1.026   5.167   5.269  0.5976 -1.5732  1.7199
  191SAPI  H10Y22152   1.059   5.321   5.358 -0.9672 -0.1885  0.2010
  191SAPI  C31122153   1.176   5.162   5.426  0.4457  0.2229 -0.3184
  191SAPI  H11X22154   1.271   5.209   5.458  1.1763 -0.9035 -0.7634
  191SAPI  H11Y22155   1.218   5.066   5.388  1.7605  0.7692 -0.2837
  191SAPI  C31222156   1.083   5.136   5.551  0.1981 -0.0430  0.1617
  191SAPI  H12X22157   0.984   5.101   5.515  0.9743 -0.8115 -1.3217
  191SAPI  H12Y22158   1.052   5.232   5.597 -2.1881  0.3348 -2.0033
  191SAPI  C31322159   1.140   5.034   5.651 -0.2106 -0.6341  0.6189
  191SAPI  H13X22160   1.138   4.939   5.594 -0.6330  1.3820 -3.0734
  191SAPI  H13Y22161   1.073   5.028   5.740 -0.0536  0.7527  0.8554
  191SAPI  C31422162   1.281   5.058   5.705 -0.1500  0.5136  0.0457
  191SAPI  H14X22163   1.352   5.090   5.627  0.3148  0.2585  0.3546
  191SAPI  H14Y22164   1.312   4.960   5.749 -0.9640  0.6216  0.9030
  191SAPI  C31522165   1.289   5.154   5.829  0.2537 -0.5293  0.4836
  191SAPI  H15X22166   1.254   5.099   5.919  0.2713 -0.4572  0.5347
  191SAPI  H15Y22167   1.230   5.246   5.808 -0.4892 -0.8616  1.0897
  191SAPI  C31622168   1.438   5.204   5.854 -0.0827 -0.2801 -0.1244
  191SAPI  H16X22169   1.465   5.242   5.753 -2.1596  0.5798 -0.4170
  191SAPI  H16Y22170   1.506   5.123   5.886  2.5336  1.3242 -1.3356
  191SAPI  C31722171   1.452   5.329   5.945 -0.0606  0.5337  0.0386
  191SAPI  H17X22172   1.392   5.317   6.038  0.8254  1.8689  0.8014
  191SAPI  H17Y22173   1.400   5.417   5.901 -0.9717  0.3612  0.7334
  191SAPI  C31822174   1.592   5.368   5.975  0.5508  0.2810  0.0645
  191SAPI  H18X22175   1.591   5.434   6.064 -3.0395  1.4697 -0.6739
  191SAPI  H18Y22176   1.628   5.432   5.892 -0.9717  1.2717  0.1408
  191SAPI  H18Z22177   1.658   5.281   5.999 -1.0098 -1.0790 -0.3769
  192SAPI   C1222178   2.570   4.212   3.463  0.3073 -0.1644  0.3302
  192SAPI    H222179   2.493   4.203   3.542  0.6592 -0.5446  0.6347
  192SAPI    O222180   2.537   4.112   3.362  0.4768 -0.3562  0.5014
  192SAPI   HO222181   2.550   4.025   3.400 -0.7191 -0.6378  0.3078
  192SAPI   C1322182   2.571   4.347   3.400  0.4618  0.0237 -0.1179
  192SAPI    H322183   2.583   4.423   3.480  3.1117  0.5921 -0.9307
  192SAPI    O322184   2.442   4.375   3.346 -0.1238 -0.2670 -0.2741
  192SAPI   HO322185   2.418   4.286   3.319 -2.7494 -0.3426  1.8724
  192SAPI   C1422186   2.683   4.370   3.307 -0.7944 -0.5141  0.0618
  192SAPI    H422187   2.655   4.321   3.212 -2.2615 -3.7649  2.0341
  192SAPI    O422188   2.677   4.511   3.275 -0.9920  0.1748 -0.2198
  192SAPI   HO422189   2.639   4.512   3.187  1.5054 -2.3696 -1.4543
  192SAPI   C1522190   2.815   4.315   3.342 -0.0369  0.1074 -0.1752
  192SAPI    H522191   2.847   4.383   3.423 -1.6637  2.0775 -1.1066
  192SAPI    O522192   2.902   4.327   3.230  0.3353 -0.1907  0.2003
  192SAPI   HO522193   2.980   4.378   3.255  2.7258 -2.9102 -1.0683
  192SAPI   C1622194   2.806   4.176   3.407 -0.5415  0.0422 -0.1309
  192SAPI    H622195   2.785   4.099   3.330 -0.1701 -1.4943  1.2518
  192SAPI    O622196   2.937   4.139   3.461  0.7636 -0.6057  0.1682
  192SAPI   HO622197   2.967   4.203   3.526  1.6749 -0.3049 -0.5234
  192SAPI   C1122198   2.708   4.176   3.516 -0.5194 -0.3057  0.8352
  192SAPI    H122199   2.731   4.259   3.587 -1.7987  1.2264 -0.4722
  192SAPI     P22200   2.661   4.023   3.731 -0.1847  0.2012  0.3056
  192SAPI   O1322201   2.639   3.874   3.750  0.4263  0.0037 -0.1353
  192SAPI   O1422202   2.547   4.112   3.758  0.3238 -0.3622 -0.1376
  192SAPI   O1222203   2.706   4.042   3.572  0.6413  0.0217  0.2904
  192SAPI   O1122204   2.778   4.083   3.808 -0.1680 -0.2673  0.3436
  192SAPI    C122205   2.908   4.016   3.792 -0.5524 -0.4158 -0.2908
  192SAPI    HA22206   2.917   3.944   3.708  0.7720 -1.1704  0.4624
  192SAPI    HB22207   3.001   4.077   3.791  0.2796 -1.6153  0.3575
  192SAPI    C222208   2.930   3.927   3.920 -0.5139 -0.3584 -0.3164
  192SAPI    HS22209   2.884   3.829   3.895 -0.1837 -0.0372 -2.3368
  192SAPI   O2122210   2.873   3.983   4.039  0.2279 -0.3439 -0.0602
  192SAPI   C2122211   2.834   3.903   4.133 -0.2557 -0.2430 -0.4689
  192SAPI   O2222212   2.836   3.781   4.125 -0.0841 -0.2130  0.7919
  192SAPI   C2222213   2.803   3.989   4.255  0.3610 -0.6227 -0.3478
  192SAPI   H2R22214   2.776   4.088   4.212  1.3673 -0.3032 -0.2569
  192SAPI   H2S22215   2.712   3.950   4.307  0.9486 -3.1850 -1.0629
  192SAPI    C322216   3.080   3.900   3.946  0.7705  0.1251  0.2354
  192SAPI    HX22217   3.119   3.991   3.996 -0.8433  2.3122 -2.2202
  192SAPI    HY22218   3.139   3.888   3.853  1.6659  1.8196  0.5551
  192SAPI   O3122219   3.098   3.777   4.019 -0.4177  0.5596 -0.2382
  192SAPI   C3122220   3.217   3.764   4.083  0.1717  0.5880  0.2612
  192SAPI   O3222221   3.295   3.857   4.090  0.0963 -0.0418 -0.3837
  192SAPI   C3222222   3.231   3.625   4.146 -0.1687 -0.0490 -0.2592
  192SAPI   H2X22223   3.311   3.580   4.084  1.6758  1.9966  0.5030
  192SAPI   H2Y22224   3.142   3.559   4.138 -0.1927 -0.2213  1.1902
  192SAPI   C2322225   2.903   3.996   4.369  0.3825  0.4257  0.7185
  192SAPI   H3R22226   2.869   4.070   4.444 -3.0550  0.4379 -0.6605
  192SAPI   H3S22227   2.998   4.039   4.331  1.2154 -1.6261  0.3563
  192SAPI   C2422228   2.928   3.859   4.442  0.1084 -0.9707 -0.4685
  192SAPI   H4R22229   2.952   3.783   4.365  1.8991  0.4283 -1.3866
  192SAPI   H4S22230   2.831   3.843   4.493 -0.0671  0.9165 -0.1002
  192SAPI   C2522231   3.038   3.882   4.542 -0.8876  0.0680 -0.7400
  192SAPI   H5R22232   3.138   3.848   4.513 -0.4931 -0.6052  1.2108
  192SAPI   C2622233   3.027   3.928   4.667 -0.1666 -0.6088 -0.1191
  192SAPI   H6R22234   3.122   3.943   4.720 -0.2960 -1.2324  0.2968
  192SAPI   C2722235   2.907   3.973   4.743  0.4348  0.3712 -0.5971
  192SAPI   H7R22236   2.813   3.933   4.699  1.6516 -0.7216 -2.3016
  192SAPI   H7S22237   2.903   4.084   4.731  0.3979  0.7514  2.1557
  192SAPI   C2822238   2.912   3.928   4.882  0.2551 -0.2017  0.4855
  192SAPI   H8R22239   2.898   3.819   4.883 -0.1598 -0.1704 -0.5334
  192SAPI   C2922240   2.903   3.997   4.999  0.6604 -0.6131 -0.6058
  192SAPI   H9R22241   2.911   3.935   5.090 -0.4270  1.4550  0.9865
  192SAPI  C21022242   2.896   4.146   5.013  0.0374 -0.1999 -0.3316
  192SAPI  H10R22243   2.808   4.161   5.079 -1.6282  1.2857 -2.7194
  192SAPI  H10S22244   2.881   4.191   4.913  2.8981 -0.7992 -1.1266
  192SAPI  C21122245   3.016   4.211   5.063 -0.1348  0.0140  0.0665
  192SAPI  H11R22246   3.086   4.246   4.985  0.3577  1.0557  0.9458
  192SAPI  C21222247   3.069   4.224   5.181  0.3857 -0.5763 -1.3847
  192SAPI  H12R22248   3.163   4.281   5.184  0.7346 -1.1533  0.7166
  192SAPI  C21322249   3.024   4.192   5.325 -0.2764 -0.5938  1.0495
  192SAPI  H13R22250   2.917   4.168   5.338 -0.6698  1.5904  2.3286
  192SAPI  H13S22251   3.046   4.283   5.386  1.3284 -0.1110 -0.1748
  192SAPI  C21422252   3.105   4.077   5.380  0.5855 -0.2062 -0.3170
  192SAPI  H14R22253   3.112   3.985   5.320  0.5508 -0.7954  0.5562
  192SAPI  C21522254   3.153   4.074   5.504  0.1067  0.1697 -0.1462
  192SAPI  H15R22255   3.210   3.982   5.524  0.3866  0.5459  0.8947
  192SAPI  C21622256   3.158   4.166   5.625  0.1914 -0.1290  0.1791
  192SAPI  H16R22257   3.085   4.247   5.602 -0.7913 -0.6896  1.2105
  192SAPI  H16S22258   3.260   4.210   5.636  0.9532 -2.2550  2.9111
  192SAPI  C21722259   3.110   4.089   5.748  0.2273  0.3725  0.3967
  192SAPI  H17R22260   3.016   4.033   5.728  0.4503 -0.0343  0.4718
  192SAPI  H17S22261   3.092   4.162   5.829  0.5809 -0.9568  1.7219
  192SAPI  C21822262   3.217   3.988   5.804  0.2316 -0.3164 -1.0351
  192SAPI  H18R22263   3.311   4.046   5.821 -0.4512  0.4421  0.3068
  192SAPI  H18S22264   3.243   3.910   5.729 -1.5336 -1.7898 -0.1874
  192SAPI  C21922265   3.169   3.920   5.930 -0.0388 -0.4655 -0.2789
  192SAPI  H19R22266   3.087   3.850   5.905 -0.7518  1.0010 -2.3050
  192SAPI  H19S22267   3.118   3.991   5.999  2.0733 -0.0058  0.8933
  192SAPI  C22022268   3.280   3.847   6.009 -0.3923  0.2357 -0.3518
  192SAPI  H20R22269   3.313   3.755   5.957 -0.7195 -1.3487  2.1288
  192SAPI  H20S22270   3.252   3.806   6.108 -1.7255 -0.3414 -0.9438
  192SAPI  H20T22271   3.362   3.921   6.019 -1.6051  1.5672  0.0862
  192SAPI   C3322272   3.281   3.612   4.294 -0.5192 -0.3228  0.4715
  192SAPI   H3X22273   3.296   3.711   4.340  0.8129 -0.7525  1.0019
  192SAPI   H3Y22274   3.382   3.566   4.291 -0.2830  0.2078  0.0181
  192SAPI   C3422275   3.180   3.539   4.372 -0.2941  0.0077  0.9191
  192SAPI   H4X22276   3.162   3.434   4.340 -1.1277 -0.8496  3.8980
  192SAPI   H4Y22277   3.086   3.596   4.361 -0.4606 -0.0248  2.0228
  192SAPI   C3522278   3.208   3.521   4.520 -0.3047  0.5526 -0.9249
  192SAPI   H5X22279   3.246   3.616   4.563 -1.0236 -0.6498  2.7488
  192SAPI   H5Y22280   3.276   3.433   4.531  1.3296  1.9197  0.3436
  192SAPI   C3622281   3.073   3.493   4.595 -0.3191  1.1495  0.2132
  192SAPI   H6X22282   3.037   3.396   4.553  2.3986 -0.4901  1.4078
  192SAPI   H6Y22283   2.994   3.572   4.589 -1.3309  0.2961  1.6593
  192SAPI   C3722284   3.101   3.456   4.745 -0.7312  0.4528  0.2311
  192SAPI   H7X22285   3.194   3.394   4.744 -1.0646 -0.0545 -0.3727
  192SAPI   H7Y22286   3.019   3.401   4.795  1.0282 -0.3786  2.3405
  192SAPI   C3822287   3.119   3.578   4.843  0.2177  0.5789  0.1847
  192SAPI   H8X22288   3.017   3.620   4.858  0.5318  0.9966  1.2951
  192SAPI   H8Y22289   3.176   3.658   4.791  0.0080  1.2971  1.0350
  192SAPI   C3922290   3.194   3.550   4.975 -0.7372  0.1345 -0.0931
  192SAPI   H9X22291   3.294   3.593   4.954  0.4926 -3.3020 -2.1040
  192SAPI   H9Y22292   3.215   3.442   4.991  1.7906  0.6275  0.2116
  192SAPI  C31022293   3.126   3.621   5.094 -0.2906  0.6350 -0.6151
  192SAPI  H10X22294   3.016   3.613   5.080 -0.3804  1.6378 -0.5667
  192SAPI  H10Y22295   3.147   3.730   5.096  1.3013  0.3543  0.9015
  192SAPI  C31122296   3.158   3.559   5.228  0.3543 -0.2994  0.1172
  192SAPI  H11X22297   3.268   3.560   5.246  0.6151 -1.6106 -1.1772
  192SAPI  H11Y22298   3.116   3.456   5.236  2.3076 -1.0624  1.5287
  192SAPI  C31222299   3.092   3.644   5.338  0.1382 -0.5450 -0.3914
  192SAPI  H12X22300   2.993   3.678   5.300  0.4346 -1.7373 -2.4018
  192SAPI  H12Y22301   3.146   3.741   5.343  0.8145 -0.8159 -1.8685
  192SAPI  C31322302   3.087   3.573   5.475  0.6271  0.1316 -0.2946
  192SAPI  H13X22303   3.196   3.569   5.495  0.4708  1.3370  0.9169
  192SAPI  H13Y22304   3.055   3.467   5.464 -1.5433  0.0998  4.1428
  192SAPI  C31422305   3.014   3.634   5.595  0.5419  0.0288 -0.2560
  192SAPI  H14X22306   2.905   3.640   5.578  0.5367  2.2386  0.2979
  192SAPI  H14Y22307   3.065   3.731   5.611 -2.7222  1.8099  0.0057
  192SAPI  C31522308   3.044   3.562   5.723 -0.3268  0.8041  0.2659
  192SAPI  H15X22309   3.140   3.567   5.778 -0.3647 -2.0664  0.7583
  192SAPI  H15Y22310   3.046   3.453   5.700 -0.3887  0.6821  0.8283
  192SAPI  C31622311   2.930   3.574   5.832 -0.8059  0.3277  0.8375
  192SAPI  H16X22312   2.830   3.540   5.795 -0.4355 -0.6161  0.6574
  192SAPI  H16Y22313   2.925   3.680   5.864 -1.6168  0.0562  1.6336
  192SAPI  C31722314   2.957   3.484   5.948  0.1560  0.2946 -0.8779
  192SAPI  H17X22315   3.058   3.508   5.989  0.3137  2.0297 -2.1835
  192SAPI  H17Y22316   2.958   3.386   5.896  0.3847  0.5994 -1.4453
  192SAPI  C31822317   2.848   3.484   6.055 -0.5520  0.0858 -0.6091
  192SAPI  H18X22318   2.814   3.586   6.082  3.1875  0.9925  1.3861
  192SAPI  H18Y22319   2.886   3.427   6.143 -1.7731 -1.2199 -0.8846
  192SAPI  H18Z22320   2.758   3.428   6.023  1.2612 -2.6594 -1.2649
  193SOD    SOD22321   6.724   0.246   3.083 -0.4562 -0.6394  0.0393
  194SOD    SOD22322   5.016   6.706   8.301 -0.1049  0.6499  0.1458
  195SOD    SOD22323   1.698   6.814   3.311  0.0473 -0.3559 -0.3827
  196SOD    SOD22324   6.690   4.663   4.369 -0.5388  0.0142  0.1524
  197SOD    SOD22325   6.719   6.319   1.893  0.2156 -0.0350  0.1261
  198SOD    SOD22326   4.308   3.814   3.784 -0.1706  0.1772  0.1731
  199SOD    SOD22327   1.981   3.846   3.473 -0.0254  0.2104  0.1936
  200SOD    SOD22328   0.639   0.819   8.047 -0.7405  0.4028 -0.1821
  201SOD    SOD22329   5.211   3.070   3.000  0.2576  0.1011 -0.2959
  202SOD    SOD22330   2.629   4.777   1.661 -0.3873  0.4259  0.2094
  203SOD    SOD22331   4.339   6.827   0.316 -0.1616  0.1109  0.3494
  204SOD    SOD22332   5.577   2.711   3.349 -0.2246 -0.1428 -0.2131
  205SOD    SOD22333   2.821   6.379   8.120 -0.3667  0.2440 -0.5242
  206SOD    SOD22334   2.602   4.253   8.121  0.0617 -0.0744  0.0579
  207SOD    SOD22335   1.628   0.867   1.413  0.0289 -0.3222  0.0053
  208SOD    SOD22336   5.305   3.180   8.538  0.0946 -0.0152  0.0462
  209SOD    SOD22337   5.168   6.574   3.305  0.0294  0.4853  0.4244
  210SOD    SOD22338   5.913   3.761   1.721  0.1351  0.5806  0.0462
  211SOD    SOD22339   1.520   4.874   0.490  0.4666 -0.0894 -0.1892
  212SOD    SOD22340   2.797   1.023   2.304 -0.3539 -0.0587  0.5829
  213SOD    SOD22341   2.258   2.253   0.612  0.2256  0.1469 -0.0451
  214SOD    SOD22342   3.555   3.537   2.396 -0.1902 -0.0135 -0.5318
  215SOD    SOD22343   1.970   2.666   1.720 -0.1515 -0.5109 -0.3481
  216SOD    SOD22344   2.699   2.887   3.701 -0.1123  0.2045  0.4196
  217SOD    SOD22345   6.472   5.967   3.844 -0.6026 -0.0194 -0.2271
  218SOD    SOD22346   5.700   3.006   8.349  0.4131 -0.2673  0.0053
  219SOD    SOD22347   1.654   5.618   2.920  0.1360 -0.1767 -0.0309
  220SOD    SOD22348   3.117   6.752   2.893 -0.8917 -0.1100 -0.2234
  221SOD    SOD22349   2.624   5.820   3.329  0.0422  0.1496  0.5171
  222SOD    SOD22350   6.306   5.779   2.040 -0.1525 -0.6214 -0.1117
  223SOD    SOD22351   3.689   2.480   2.149 -0.0220 -0.5541 -0.6482
  224SOD    SOD22352   1.310   5.433   0.458 -0.0973  0.5641 -0.3076
  225SOD    SOD22353   3.745   1.058   0.275 -0.7479 -0.1856 -0.0349
  226SOD    SOD22354   0.549   3.162   7.962 -0.2970 -0.3608  0.2122
  227SOD    SOD22355   6.410   2.613   2.748 -0.4963 -0.3624 -0.6157
  228SOD    SOD22356   0.663   0.955   0.197  0.1515  0.7574 -0.4064
  229SOD    SOD22357   0.350   1.824   3.147 -0.1100 -0.2068 -0.6320
  230CLA    CLA22358   6.544   2.919   3.833 -0.0503  0.4454 -0.1355
  231CLA    CLA22359   2.245   6.644   1.141  0.0717 -0.5243  0.4222
  232CLA    CLA22360   1.431   5.401   0.874  0.0631  0.1324  0.4380
  233CLA    CLA22361   4.823   6.650   0.137  0.2284 -0.0660  0.1075
  234CLA    CLA22362   0.471   1.964   1.646 -0.4640  0.0107 -0.2548
  235CLA    CLA22363   3.718   6.525   3.257 -0.5564  0.0042 -0.3322
  236CLA    CLA22364   1.329   0.720   2.778 -0.2660 -0.0944  0.0075
  237CLA    CLA22365   5.831   4.608   1.758 -0.0018 -0.2619  0.6092
  238CLA    CLA22366   2.327   2.237   2.035 -0.2226 -0.5332  0.2910
  239CLA    CLA22367   4.347   3.193   3.214 -0.0274  0.2091 -0.2950
  240CLA    CLA22368   3.215   0.685   1.361 -0.1586  0.0325 -0.1091
  241CLA    CLA22369   0.062   1.855   0.099 -0.1002  0.0147 -0.1917
  242CLA    CLA22370   4.186   1.664   1.095 -0.2279 -0.1380 -0.1809
  243CLA    CLA22371   5.903   3.527   2.724 -0.5275  0.0131  0.0062
  244CLA    CLA22372   5.204   2.300   3.619  0.1717 -0.3269 -0.0187
  245CLA    CLA22373   3.823   4.006   2.203 -0.2296 -0.2382 -0.1223
  246CLA    CLA22374   4.357   4.767   2.610 -0.0089  0.0237  0.3446
  247TIP3   OH222375   6.207   3.416   0.880 -0.0216 -0.3793 -0.7697
  247TIP3    H122376   6.127   3.461   0.851  0.4661  0.3588 -0.9918
  247TIP3    H222377   6.268   3.425   0.807  0.5066 -0.3223 -0.3313
  248TIP3   OH222378   1.838   4.806   8.544  0.3019  0.5547 -0.1045
  248TIP3    H122379   1.933   4.801   8.548  0.4029 -1.6237 -2.7139
  248TIP3    H222380   1.820   4.887   8.496  0.6584  1.9865  2.0181
  249TIP3   OH222381   2.303   2.471   2.902 -0.4553  0.2561  0.7475
  249TIP3    H122382   2.335   2.534   2.837 -0.4354  0.6970  1.1800
  249TIP3    H222383   2.380   2.419   2.925 -0.6646 -0.5379 -0.2813
  250TIP3   OH222384   6.106   3.674   0.616  0.2882 -0.6212  0.5860
  250TIP3    H122385   6.043   3.609   0.647  2.0537 -2.3179  0.7860
  250TIP3    H222386   6.147   3.634   0.539 -0.9107  1.7082 -1.4466
  251TIP3   OH222387   2.190   3.806   2.465 -0.4958 -0.5435 -0.0707
  251TIP3    H122388   2.164   3.898   2.460 -2.2084 -0.8972  1.2496
  251TIP3    H222389   2.117   3.758   2.427  0.2534 -1.3940 -0.4848
  252TIP3   OH222390   6.360   3.796   2.279  0.8205  0.4044 -0.4327
  252TIP3    H122391   6.340   3.873   2.225  0.7846  0.7952  0.1263
  252TIP3    H222392   6.345   3.721   2.221 -0.8195  0.7432 -0.4704
  253TIP3   OH222393   6.851   3.011   2.440 -0.4175 -0.1848 -0.1181
  253TIP3    H122394   6.782   2.961   2.484  0.2647 -1.1011 -0.0449
  253TIP3    H222395   6.883   3.071   2.506  0.7901 -1.7410  0.7851
  254TIP3   OH222396   6.393   4.518   0.768 -0.3328 -0.0516  0.3309
  254TIP3    H122397   6.463   4.577   0.740  0.1624 -0.6441  0.3203
  254TIP3    H222398   6.320   4.537   0.709  0.1670 -0.1690 -0.3226
  255TIP3   OH222399   0.836   1.224   3.807 -0.0433 -0.3184 -0.4944
  255TIP3    H122400   0.903   1.283   3.774 -2.0718  3.5020  1.6040
  255TIP3    H222401   0.873   1.189   3.889 -0.2501  1.2539  0.3114
  256TIP3   OH222402   1.565   3.160   4.004  0.0945 -0.7350  0.2812
  256TIP3    H122403   1.535   3.224   3.939 -1.0648  0.8800  2.2693
  256TIP3    H222404   1.494   3.095   4.007 -0.1141 -0.5102  0.3043
  257TIP3   OH222405   0.252   2.406   3.166 -0.1870 -0.6211 -0.2577
  257TIP3    H122406   0.329   2.382   3.217  1.3858 -0.1119 -2.2669
  257TIP3    H222407   0.182   2.417   3.231  1.6795 -0.0448  1.7512
  258TIP3   OH222408   0.951   4.096   8.212 -0.0074  0.0609 -0.2930
  258TIP3    H122409   0.992   4.084   8.127  2.9703  0.8098  0.9062
  258TIP3    H222410   1.003   4.164   8.255 -1.1000 -0.6032  2.3166
  259TIP3   OH222411   6.098   4.760   0.801 -0.0627  0.0427 -0.0101
  259TIP3    H122412   6.178   4.813   0.803  0.0253 -0.1078  0.5714
  259TIP3    H222413   6.058   4.781   0.716  1.1683 -0.7279 -0.8070
  260TIP3   OH222414   3.121   2.123   3.074  0.5350 -0.2270  0.4072
  260TIP3    H122415   3.175   2.049   3.104 -0.3137 -1.2242 -0.4320
  260TIP3    H222416   3.038   2.113   3.121  0.6361  0.5837  0.7720
  261TIP3   OH222417   5.872   0.754   3.679  0.3927  0.4797  0.1851
  261TIP3    H122418   5.952   0.705   3.699  0.5542 -0.4230 -2.3362
  261TIP3    H222419   5.808   0.722   3.743  0.9035 -2.0395 -0.4629
  262TIP3   OH222420   2.303   5.208   2.533  0.1905 -0.0381 -0.3270
  262TIP3    H122421   2.373   5.188   2.595  0.0788 -1.4937 -0.6277
  262TIP3    H222422   2.244   5.266   2.580  2.1385  2.1866 -0.4252
  263TIP3   OH222423   0.497   4.560   2.771 -0.3614  0.3574 -0.4836
  263TIP3    H122424   0.582   4.519   2.785 -0.1008  0.8730 -0.5605
  263TIP3    H222425   0.507   4.649   2.802 -0.4370  0.8593 -1.8210
  264TIP3   OH222426   5.641   2.215   0.483 -0.2871 -0.7046  0.0867
  264TIP3    H122427   5.665   2.123   0.473  0.9419 -0.6432  2.0410
  264TIP3    H222428   5.553   2.213   0.522 -1.3064 -0.9684 -2.0614
  265TIP3   OH222429   2.581   6.118   2.048 -0.0707  0.4553  0.4764
  265TIP3    H122430   2.648   6.179   2.079 -0.5861  2.2383 -1.6029
  265TIP3    H222431   2.498   6.162   2.069 -0.5149 -0.4319  0.5974
  266TIP3   OH222432   1.853   4.575   3.014  0.3327 -0.6715 -0.0463
  266TIP3    H122433   1.763   4.541   3.016 -0.3115  0.9416 -0.4186
  266TIP3    H222434   1.854   4.643   3.082  1.6260 -1.4558  0.7674
  267TIP3   OH222435   2.773   5.919   3.476 -0.3420  0.2452  0.5641
  267TIP3    H122436   2.829   5.992   3.451  0.4496 -0.0066  1.4942
  267TIP3    H222437   2.812   5.887   3.558 -1.9148  0.1106  1.2840
  268TIP3   OH222438   2.343   0.744   0.483  0.6380  0.3707  0.0166
  268TIP3    H122439   2.370   0.792   0.561  0.6251  0.6571 -0.1531
  268TIP3    H222440   2.293   0.807   0.432 -0.3654 -0.1607  0.3260
  269TIP3   OH222441   4.296   4.312   2.857  0.2055 -0.4916 -0.1333
  269TIP3    H122442   4.267   4.372   2.789  0.8891  0.1232  0.1100
  269TIP3    H222443   4.215   4.285   2.902 -0.1190  0.1108 -0.3530
  270TIP3   OH222444   6.250   1.667   1.017  0.5789  0.6553  0.0417
  270TIP3    H122445   6.190   1.705   1.080 -0.1911 -1.3415  0.5860
  270TIP3    H222446   6.336   1.671   1.059  0.3069  0.6578  0.6021
  271TIP3   OH222447   0.195   2.591   2.968 -0.4949 -0.5328 -0.6273
  271TIP3    H122448   0.220   2.560   3.055 -2.0676 -1.1688 -0.3685
  271TIP3    H222449   0.252   2.666   2.953  0.7985 -1.2646  0.3356
  272TIP3   OH222450   0.378   2.014   3.855  0.0886  0.0271  0.6063
  272TIP3    H122451   0.418   2.090   3.812  1.6102 -0.9953  0.1181
  272TIP3    H222452   0.325   2.051   3.925  2.1095  1.4966  1.4561
  273TIP3   OH222453   6.667   6.524   1.037  0.3385 -0.0626  0.7227
  273TIP3    H122454   6.581   6.499   1.071 -0.2682 -0.5412 -1.0125
  273TIP3    H222455   6.698   6.445   0.991  1.4369  0.2966  0.8172
  274TIP3   OH222456   3.588   2.512   0.763 -0.3273 -0.4406 -0.0316
  274TIP3    H122457   3.579   2.581   0.697 -0.5785 -1.2324 -0.8528
  274TIP3    H222458   3.547   2.548   0.841 -0.0162  0.5239 -0.3078
  275TIP3   OH222459   0.814   3.611   3.898  0.3529  0.5573  0.3023
  275TIP3    H122460   0.814   3.689   3.953  1.5219  0.9901 -0.2744
  275TIP3    H222461   0.825   3.538   3.960  0.1426  0.9132  0.7630
  276TIP3   OH222462   0.703   0.175   0.188  0.2274  0.5207  0.0047
  276TIP3    H122463   0.733   0.113   0.121 -1.6952  0.7457 -1.1354
  276TIP3    H222464   0.745   0.258   0.162  0.0032  0.4655 -0.5590
  277TIP3   OH222465   4.685   6.062   3.005  0.1019 -0.6874  0.1360
  277TIP3    H122466   4.756   6.042   2.945  0.1742 -1.5786  0.4981
  277TIP3    H222467   4.618   6.103   2.951  0.0794 -1.6585 -0.5882
  278TIP3   OH222468   0.588   3.710   0.724 -0.3065 -0.5310  0.6576
  278TIP3    H122469   0.493   3.712   0.718 -0.2515 -0.3498 -0.2202
  278TIP3    H222470   0.606   3.679   0.813 -1.1771 -0.9603  0.6866
  279TIP3   OH222471   3.740   4.535   0.878  0.0460  0.3213 -0.5120
  279TIP3    H122472   3.797   4.484   0.935  0.2691  1.0180 -0.1142
  279TIP3    H222473   3.651   4.518   0.911  0.2862  2.1400  1.2133
  280TIP3   OH222474   0.711   4.993   3.811 -1.0120  0.0367 -0.2328
  280TIP3    H122475   0.785   4.937   3.834  0.2623  1.1987 -1.2785
  280TIP3    H222476   0.701   4.983   3.716 -2.0525  0.0794 -0.1402
  281TIP3   OH222477   6.466   0.719   8.277  0.2723  0.1953 -0.0061
  281TIP3    H122478   6.550   0.762   8.260  0.7500 -0.3425  0.9234
  281TIP3    H222479   6.400   0.784   8.253  0.9463  0.4923 -1.0880
  282TIP3   OH222480   2.548   6.771   8.132 -0.0668  0.0648  0.0064
  282TIP3    H122481   2.477   6.795   8.190  0.0851 -2.1862  1.2253
  282TIP3    H222482   2.520   6.802   8.046 -1.5627  0.9943  0.7832
  283TIP3   OH222483   5.571   3.069   1.907 -0.2656 -0.2718 -0.2320
  283TIP3    H122484   5.525   3.003   1.854 -0.0278 -0.4662 -0.1976
  283TIP3    H222485   5.656   3.078   1.864 -1.0640  1.6214 -1.5708
  284TIP3   OH222486   4.736   5.875   0.581  0.0195  0.0981  0.0598
  284TIP3    H122487   4.751   5.825   0.661 -0.3913  1.2088  0.8614
  284TIP3    H222488   4.727   5.809   0.512  2.7075 -0.8371  0.4925
  285TIP3   OH222489   1.035   4.211   1.751 -0.8821 -0.5972  0.5561
  285TIP3    H122490   1.055   4.118   1.762 -0.1647 -0.4263  0.6979
  285TIP3    H222491   1.022   4.243   1.840 -1.5731 -0.6521  0.4817
  286TIP3   OH222492   4.415   4.209   2.533 -0.3002  0.1004 -0.1813
  286TIP3    H122493   4.458   4.257   2.603 -0.5400  1.7868 -1.1290
  286TIP3    H222494   4.460   4.125   2.530  0.7863  0.6092  0.9161
  287TIP3   OH222495   4.791   3.547   8.039 -0.5731 -0.1372  0.0091
  287TIP3    H122496   4.813   3.503   8.121  0.8901  0.8141  0.1619
  287TIP3    H222497   4.868   3.536   7.984 -0.6687  1.1418 -0.4080
  288TIP3   OH222498   3.855   2.345   2.232 -0.2814 -0.4217 -0.3983
  288TIP3    H122499   3.900   2.296   2.163 -0.9160 -1.4122 -0.1294
  288TIP3    H222500   3.925   2.379   2.287  0.1595 -2.6296  0.4942
  289TIP3   OH222501   2.670   5.454   2.329  0.3585 -0.2473 -0.1480
  289TIP3    H122502   2.574   5.458   2.322  0.3714  5.2438 -2.0003
  289TIP3    H222503   2.687   5.452   2.423 -1.5589 -0.9823  0.2320
  290TIP3   OH222504   5.876   6.706   2.694 -0.5719 -0.2541  0.1024
  290TIP3    H122505   5.879   6.795   2.729 -0.2527  0.1266 -0.8612
  290TIP3    H222506   5.952   6.700   2.636 -0.6858 -1.1031  0.0256
  291TIP3   OH222507   4.374   2.796   1.717 -0.1842 -0.5000 -0.4446
  291TIP3    H122508   4.296   2.844   1.689  0.0039 -0.0920 -0.2778
  291TIP3    H222509   4.341   2.710   1.743 -0.6302 -0.2201 -0.0507
  292TIP3   OH222510   2.504   1.562   3.985  0.0535  0.4995  0.0924
  292TIP3    H122511   2.461   1.477   3.974  1.2913 -0.5031  2.3640
  292TIP3    H222512   2.557   1.572   3.906  0.4096 -1.1806  0.0712
  293TIP3   OH222513   5.459   2.304   2.114 -0.6433 -0.3689  0.1489
  293TIP3    H122514   5.514   2.274   2.187 -1.4146  0.0066  0.9105
  293TIP3    H222515   5.454   2.229   2.055  2.3510  0.2132 -1.0114
  294TIP3   OH222516   6.838   6.662   2.210  0.4781  0.4344 -0.2575
  294TIP3    H122517   6.810   6.669   2.301  1.0515 -0.9416  0.0437
  294TIP3    H222518   6.930   6.690   2.211  0.8622 -0.7920 -0.1741
  295TIP3   OH222519   4.540   3.975   2.174 -0.2976 -0.3436 -0.5750
  295TIP3    H122520   4.512   3.897   2.222  1.2506 -0.8123 -0.4021
  295TIP3    H222521   4.520   3.956   2.083  0.0730 -0.9410 -0.5333
  296TIP3   OH222522   3.163   0.773   2.500  0.0557  0.4590 -0.5692
  296TIP3    H122523   3.248   0.812   2.481  0.4564  0.5691  1.2724
  296TIP3    H222524   3.160   0.694   2.446  1.9330 -0.2739  0.3116
  297TIP3   OH222525   4.927   3.101   2.554 -0.0137 -0.0027  0.2353
  297TIP3    H122526   4.904   3.160   2.482  1.4912 -0.2157 -0.4428
  297TIP3    H222527   5.019   3.080   2.541 -0.5536 -2.8084  0.2359
  298TIP3   OH222528   1.133   6.204   3.150 -0.3426  0.7051  0.0331
  298TIP3    H122529   1.060   6.141   3.156 -0.0784  0.4528  0.7785
  298TIP3    H222530   1.104   6.268   3.085 -0.8212  0.0766 -0.3843
  299TIP3   OH222531   0.955   6.744   2.008 -0.5838 -0.2597  0.6779
  299TIP3    H122532   0.878   6.733   1.952 -0.5570  0.3364  0.5170
  299TIP3    H222533   0.959   6.839   2.024  0.6552 -0.1640 -0.0974
  300TIP3   OH222534   2.000   1.737   3.464  0.1716  0.7802 -0.0182
  300TIP3    H122535   1.964   1.727   3.552  1.6557  0.9774  0.6347
  300TIP3    H222536   1.945   1.803   3.423  0.2723  1.6570  1.2148
  301TIP3   OH222537   5.106   2.713   3.241 -0.2378 -0.3276 -0.4247
  301TIP3    H122538   5.082   2.688   3.330  1.6870 -0.9597 -0.0354
  301TIP3    H222539   5.104   2.632   3.191  1.3558 -0.4981 -0.2753
  302TIP3   OH222540   0.027   1.611   1.812  0.2057  0.0821 -0.1289
  302TIP3    H122541   0.015   1.702   1.784  0.1955 -0.2413 -1.2073
  302TIP3    H222542   0.005   1.612   1.905 -0.8896  0.9740 -0.3713
  303TIP3   OH222543   5.185   3.006   0.058  0.1544 -0.2171 -0.0707
  303TIP3    H122544   5.128   2.972   0.127 -0.0062  2.5788  1.2809
  303TIP3    H222545   5.193   2.933  -0.004 -1.7395 -1.9787  1.6140
  304TIP3   OH222546   6.510   1.272   1.054 -0.5491 -0.5033 -0.4361
  304TIP3    H122547   6.601   1.266   1.024 -0.7728 -1.8173 -0.9178
  304TIP3    H222548   6.460   1.291   0.975 -0.6172  1.0877 -0.0290
  305TIP3   OH222549   2.888   6.793   8.287  0.2191 -0.1393  0.5873
  305TIP3    H122550   2.824   6.798   8.216 -0.1765  0.3282  0.9710
  305TIP3    H222551   2.952   6.861   8.267 -0.0714  0.2163  0.8439
  306TIP3   OH222552   4.891   6.121   0.706  0.0449  0.2001 -0.2054
  306TIP3    H122553   4.820   6.064   0.678 -0.2390  0.0543  0.7757
  306TIP3    H222554   4.907   6.097   0.798 -0.7636  2.3508  0.5777
  307TIP3   OH222555   1.872   1.471   2.942 -0.1791 -0.0019 -0.0157
  307TIP3    H122556   1.901   1.555   2.978 -2.2214  0.6801  0.1493
  307TIP3    H222557   1.801   1.443   3.000 -0.7347 -0.9526 -1.1093
  308TIP3   OH222558   3.145   5.661   1.927  0.2751 -0.5629 -0.1133
  308TIP3    H122559   3.108   5.605   1.995 -1.6455  1.1105  0.3056
  308TIP3    H222560   3.102   5.632   1.846 -0.8338  0.3326  0.1266
  309TIP3   OH222561   5.874   5.882   2.654  0.4743  0.1974 -0.3613
  309TIP3    H122562   5.915   5.875   2.740  0.7552 -0.2606 -0.5293
  309TIP3    H222563   5.881   5.794   2.617 -1.4273 -0.1228 -0.0549
  310TIP3   OH222564   1.123   3.189   2.516 -0.0630 -0.1019  0.5146
  310TIP3    H122565   1.107   3.223   2.604  0.4029  0.5949  0.3398
  310TIP3    H222566   1.037   3.159   2.486  0.2420 -3.1626  2.3251
  311TIP3   OH222567   1.064   1.105   8.075  0.2711 -0.2111 -0.1569
  311TIP3    H122568   1.065   1.012   8.051 -1.1155 -0.2440 -0.1888
  311TIP3    H222569   1.109   1.149   8.003  1.3777 -0.8927  0.0926
  312TIP3   OH222570   6.323   6.672   3.474 -0.2311  0.1233 -0.0175
  312TIP3    H122571   6.314   6.594   3.528 -0.1391 -0.0515 -0.2540
  312TIP3    H222572   6.377   6.645   3.401  0.4169  0.6035  0.2772
  313TIP3   OH222573   0.116   1.609   1.006  0.0176 -0.3661 -0.2645
  313TIP3    H122574   0.118   1.538   0.941 -0.2131 -0.8024  0.1966
  313TIP3    H222575   0.192   1.592   1.062 -1.9318 -2.3604  2.0129
  314TIP3   OH222576   5.693   4.853   1.599 -0.1579 -0.3104 -0.5642
  314TIP3    H122577   5.733   4.784   1.651 -1.5960 -1.0847 -0.4430
  314TIP3    H222578   5.724   4.838   1.510 -0.1566 -0.8754 -0.4689
  315TIP3   OH222579   3.882   1.076   1.411  0.3050  0.4111 -0.4261
  315TIP3    H122580   3.878   0.993   1.364  2.7172 -1.5246  2.3588
  315TIP3    H222581   3.791   1.102   1.422 -0.5252 -1.6790 -1.6907
  316TIP3   OH222582   5.529   6.090   4.236  0.0244  0.3064 -0.6662
  316TIP3    H122583   5.599   6.025   4.233  0.4887  0.7373  0.3021
  316TIP3    H222584   5.454   6.047   4.194  0.7473 -0.3017 -1.3639
  317TIP3   OH222585   2.820   2.595   2.700 -0.4983  0.4749 -0.2070
  317TIP3    H122586   2.834   2.688   2.683  0.6004  0.0102 -2.2492
  317TIP3    H222587   2.888   2.571   2.763  0.8063  0.5928 -1.5149
  318TIP3   OH222588   2.636   1.513   2.859 -0.1853 -0.2891 -0.1095
  318TIP3    H122589   2.584   1.467   2.925  0.5915 -2.4807 -0.9258
  318TIP3    H222590   2.572   1.557   2.804 -0.8877  0.9748  1.6087
  319TIP3   OH222591   4.860   6.509   8.292 -0.8214 -0.0609 -0.2059
  319TIP3    H122592   4.776   6.552   8.272 -1.3149 -0.4959  0.8662
  319TIP3    H222593   4.836   6.419   8.313 -0.5183  0.5214  3.2154
  320TIP3   OH222594   4.875   0.854   2.884  0.3589  0.2140  0.5469
  320TIP3    H122595   4.894   0.947   2.870  0.6597 -0.1441 -1.9245
  320TIP3    H222596   4.961   0.813   2.889  0.3448  0.2879  4.5192
  321TIP3   OH222597   6.191   4.536   0.536  0.0538 -0.1556 -0.3308
  321TIP3    H122598   6.119   4.476   0.559 -0.8603  0.1392 -2.2404
  321TIP3    H222599   6.167   4.571   0.450  1.0140  2.2680  0.2941
  322TIP3   OH222600   6.348   2.701   3.907  0.4014  0.1280 -0.1789
  322TIP3    H122601   6.392   2.768   3.855  0.6867 -0.7747 -1.1229
  322TIP3    H222602   6.356   2.732   3.997  1.2396  0.9544 -0.5221
  323TIP3   OH222603   1.255   0.544   1.320 -0.1747  0.0843 -0.0242
  323TIP3    H122604   1.208   0.460   1.321 -0.0209 -0.0064  1.1393
  323TIP3    H222605   1.189   0.608   1.345  0.3070 -0.0539  1.6978
  324TIP3   OH222606   2.004   1.278   2.298  0.3151  0.2198  0.2427
  324TIP3    H122607   2.010   1.185   2.320  0.8104  0.5110  1.4735
  324TIP3    H222608   2.081   1.295   2.243  1.1163  0.2100  1.3209
  325TIP3   OH222609   4.788   3.709   1.160 -0.0641  0.7545  0.0602
  325TIP3    H122610   4.856   3.758   1.206  0.7320  0.9515 -1.2744
  325TIP3    H222611   4.762   3.766   1.088 -2.4271  1.1350  1.1144
  326TIP3   OH222612   5.047   1.693   2.998 -0.0003 -0.2318  0.8761
  326TIP3    H122613   5.053   1.763   2.933 -0.2264 -0.5818  0.4733
  326TIP3    H222614   4.965   1.648   2.977  0.8177 -1.5031  0.2323
  327TIP3   OH222615   5.437   1.494   0.242  0.2636 -0.2276  0.2155
  327TIP3    H122616   5.465   1.443   0.166  0.3717 -0.0699  0.1496
  327TIP3    H222617   5.344   1.509   0.228  0.5999  1.2141 -0.7208
  328TIP3   OH222618   3.062   3.390   2.961  0.2119  0.3504  1.1156
  328TIP3    H122619   3.138   3.430   3.004  1.8435 -1.6899  0.3046
  328TIP3    H222620   3.064   3.299   2.990 -1.4870  0.0645  0.4429
  329TIP3   OH222621   5.339   1.206   2.440  0.1424  0.1282 -0.3479
  329TIP3    H122622   5.324   1.248   2.524 -1.6153  2.7781 -1.8246
  329TIP3    H222623   5.255   1.167   2.417  1.2282 -2.7752  0.0834
  330TIP3   OH222624   1.825   0.012   2.123  0.2459  0.3244  0.1798
  330TIP3    H122625   1.825  -0.059   2.059 -2.3507  0.7850 -0.4173
  330TIP3    H222626   1.918   0.038   2.129  0.6387  0.3054 -3.4788
  331TIP3   OH222627   0.439   6.613   2.454  0.2885  0.3007 -0.1234
  331TIP3    H122628   0.467   6.523   2.437  0.7112  0.2945  0.5516
  331TIP3    H222629   0.369   6.604   2.519  1.9775  0.5490  1.8615
  332TIP3   OH222630   0.568   6.794   0.475  0.5917  0.1372 -0.7253
  332TIP3    H122631   0.494   6.815   0.532  1.5875  2.4343 -0.1593
  332TIP3    H222632   0.528   6.752   0.398 -0.9392 -1.4345  0.8461
  333TIP3   OH222633   1.211   3.888   1.019  0.1455  0.2413  0.1494
  333TIP3    H122634   1.228   3.951   1.090  0.0701  0.1995  0.2046
  333TIP3    H222635   1.116   3.890   1.008  0.1937  0.5748 -0.2480
  334TIP3   OH222636   5.925   5.055   4.248 -0.4061 -0.1987  0.4179
  334TIP3    H122637   6.017   5.062   4.272  0.5796  0.5009 -2.9796
  334TIP3    H222638   5.880   5.120   4.302  1.8167  2.4436 -0.6767
  335TIP3   OH222639   0.027   6.764   3.147 -0.4812  0.0116 -0.2943
  335TIP3    H122640   0.109   6.804   3.176  0.2699 -1.5553 -0.1593
  335TIP3    H222641  -0.035   6.837   3.143  0.9700  1.2791 -0.6484
  336TIP3   OH222642   0.193   5.401   0.879 -0.1774  0.1749  0.2040
  336TIP3    H122643   0.147   5.379   0.798  1.7483  0.4393 -1.0239
  336TIP3    H222644   0.241   5.322   0.902  0.1635  0.4506  0.4519
  337TIP3   OH222645   1.610   0.855   2.817 -0.5969  0.8420  0.1863
  337TIP3    H122646   1.547   0.805   2.766  0.2381 -0.4911  0.3946
  337TIP3    H222647   1.680   0.793   2.836  0.0369  1.8388  1.2898
  338TIP3   OH222648   5.045   4.503   1.743  0.0190  0.0795 -0.3723
  338TIP3    H122649   5.134   4.467   1.737  0.5747  0.8618  2.0789
  338TIP3    H222650   4.990   4.428   1.763 -0.1140 -0.6026 -2.9896
  339TIP3   OH222651   5.491   2.434   0.944  0.1669 -0.8153 -0.3443
  339TIP3    H122652   5.467   2.438   0.851  2.5716 -0.4971 -1.0312
  339TIP3    H222653   5.570   2.380   0.945 -0.1273 -1.2743  1.6245
  340TIP3   OH222654   5.020   3.744   0.624  0.2606  0.3226  0.0735
  340TIP3    H122655   5.103   3.740   0.578  0.3339 -0.9567  0.2647
  340TIP3    H222656   4.985   3.831   0.605  2.6653  1.7765  1.7966
  341TIP3   OH222657   1.771   3.760   4.090 -0.2352 -0.3423 -0.5328
  341TIP3    H122658   1.738   3.804   4.012 -0.6964  2.1816  0.9660
  341TIP3    H222659   1.700   3.702   4.118 -0.8477  0.2273 -0.8959
  342TIP3   OH222660   1.053   6.773   7.981 -0.5495  0.4257 -0.5655
  342TIP3    H122661   1.073   6.866   7.971  1.7720  0.0721  0.2663
  342TIP3    H222662   1.096   6.747   8.062 -3.7096 -0.7608  0.8717
  343TIP3   OH222663   5.941   2.049   3.552 -0.2104  0.7912  0.1127
  343TIP3    H122664   5.951   2.083   3.463 -1.8390 -1.1634 -0.9172
  343TIP3    H222665   6.024   2.005   3.571  0.4238  1.8648 -0.1285
  344TIP3   OH222666   2.311   1.371   3.829  0.2655 -0.9773 -0.3785
  344TIP3    H122667   2.368   1.349   3.755 -0.3690 -0.1260 -1.1552
  344TIP3    H222668   2.294   1.465   3.818  1.0758 -0.5500  1.5149
  345TIP3   OH222669   6.218   5.608   2.909 -0.7818 -0.0940  0.1197
  345TIP3    H122670   6.279   5.535   2.895 -1.8705 -1.1209  0.5784
  345TIP3    H222671   6.135   5.566   2.930 -1.5951  1.2835 -0.2366
  346TIP3   OH222672   5.414   4.897   1.253 -0.3936  0.4631  0.7665
  346TIP3    H122673   5.329   4.902   1.297 -0.4498  1.4314  0.5784
  346TIP3    H222674   5.466   4.966   1.295  0.4213 -0.3337  1.1086
  347TIP3   OH222675   5.510   4.203   2.170 -0.2801  0.1530 -0.0621
  347TIP3    H122676   5.561   4.276   2.206 -3.5498  2.5422  0.1291
  347TIP3    H222677   5.482   4.154   2.247 -0.3907  0.3517  0.0257
  348TIP3   OH222678   4.833   4.819   3.787  0.4671 -0.1534  0.2546
  348TIP3    H122679   4.756   4.869   3.814 -1.0224 -0.7820 -2.4633
  348TIP3    H222680   4.837   4.746   3.849 -0.4352  0.5017  1.1119
  349TIP3   OH222681   1.969   0.504   0.760 -0.2899  0.1188 -0.0998
  349TIP3    H122682   1.899   0.476   0.701  1.1852  0.4126 -2.0882
  349TIP3    H222683   2.017   0.423   0.780  0.5399  0.3219 -1.1717
  350TIP3   OH222684   5.337   6.719   2.317  0.4576  0.5476  0.0452
  350TIP3    H122685   5.388   6.664   2.258  0.2759 -0.1859  0.5648
  350TIP3    H222686   5.314   6.662   2.390 -1.5685  0.6840 -0.4238
  351TIP3   OH222687   5.890   4.240   1.756  0.1540  0.0009  0.1342
  351TIP3    H122688   5.875   4.215   1.848 -0.0712  1.6164  0.5612
  351TIP3    H222689   5.911   4.333   1.759  0.0602  0.1046 -1.4828
  352TIP3   OH222690   5.021   4.511   3.212 -0.2487  0.0717 -0.3989
  352TIP3    H122691   5.010   4.450   3.138 -1.7266  0.0774 -0.2152
  352TIP3    H222692   4.997   4.596   3.176 -1.5947 -0.0256  0.2239
  353TIP3   OH222693   5.130   1.291   3.528  0.3999  0.3577  0.5370
  353TIP3    H122694   5.119   1.261   3.619 -1.9904  0.1711  0.2389
  353TIP3    H222695   5.091   1.222   3.475 -2.0266  2.2554 -0.3618
  354TIP3   OH222696   4.189   1.039   0.523 -0.1531 -0.5403 -0.0780
  354TIP3    H122697   4.172   1.129   0.551 -2.6458 -0.6599 -0.9163
  354TIP3    H222698   4.284   1.028   0.533 -0.0111  1.5560  1.7623
  355TIP3   OH222699   2.058   5.863   8.372 -0.1933  0.3807  0.2975
  355TIP3    H122700   2.019   5.950   8.379  0.1411  0.6162 -0.5940
  355TIP3    H222701   2.000   5.807   8.424  0.0233  1.2576  1.5410
  356TIP3   OH222702   4.451   0.513   0.321 -0.1803 -0.1477 -0.0892
  356TIP3    H122703   4.505   0.578   0.276  0.1178  0.7222  1.4247
  356TIP3    H222704   4.401   0.565   0.384 -2.7136 -0.9475 -1.3297
  357TIP3   OH222705   2.513   3.250   0.690  0.7662 -0.2879  0.6945
  357TIP3    H122706   2.566   3.252   0.770  0.2129 -1.1610  1.1085
  357TIP3    H222707   2.458   3.328   0.696  1.2248  0.0294  0.8154
  358TIP3   OH222708   1.005   1.707   2.763  0.0767 -0.4369  0.3370
  358TIP3    H122709   1.037   1.764   2.693 -2.1760 -0.9446 -1.2408
  358TIP3    H222710   0.961   1.767   2.824 -1.7381 -0.3178 -0.9927
  359TIP3   OH222711   4.175   5.354   1.865  0.3486 -0.0794  0.5347
  359TIP3    H122712   4.209   5.395   1.945  1.7255  0.5703 -0.3409
  359TIP3    H222713   4.082   5.340   1.883  0.7687 -0.6305  2.5138
  360TIP3   OH222714   1.821   4.185   0.472 -0.1325  1.0337 -0.7039
  360TIP3    H122715   1.875   4.256   0.436  0.0800  0.9497 -0.5563
  360TIP3    H222716   1.780   4.145   0.396  1.4491 -0.0840 -1.0163
  361TIP3   OH222717   5.116   4.628   2.453  0.1006  0.1050 -0.0374
  361TIP3    H122718   5.169   4.661   2.381 -1.0205  1.7844 -0.1400
  361TIP3    H222719   5.042   4.585   2.410 -0.1200  0.3370  0.1137
  362TIP3   OH222720   5.745   0.055   0.450  0.0049 -0.3166  0.2455
  362TIP3    H122721   5.792   0.091   0.375 -1.5329 -0.9553 -1.0735
  362TIP3    H222722   5.654   0.081   0.437 -0.6869 -2.3308  0.6671
  363TIP3   OH222723   4.695   4.605   1.619  0.0402  0.0924  0.3924
  363TIP3    H122724   4.630   4.629   1.553 -0.0262  1.5855  0.9542
  363TIP3    H222725   4.736   4.688   1.642  0.3656 -0.4682  1.9037
  364TIP3   OH222726   5.529   2.764   4.149 -0.2087 -0.0502  0.0588
  364TIP3    H122727   5.566   2.699   4.209  1.0872  0.9525  0.3979
  364TIP3    H222728   5.549   2.848   4.190 -3.3990  0.5851  0.5304
  365TIP3   OH222729   5.412   4.594   3.621  0.1449  0.1937  0.1891
  365TIP3    H122730   5.443   4.503   3.621  1.2564  0.5423 -1.2815
  365TIP3    H222731   5.317   4.586   3.631  0.2356 -1.1188  0.2693
  366TIP3   OH222732   3.216   0.518   1.734 -0.0803  0.0549 -0.4242
  366TIP3    H122733   3.260   0.588   1.686 -1.7159 -0.5161 -2.9610
  366TIP3    H222734   3.126   0.549   1.746 -0.7534 -1.4307 -1.3372
  367TIP3   OH222735   5.062   1.585   1.329  0.8872  0.3953 -1.4916
  367TIP3    H122736   4.970   1.562   1.339  1.5935 -2.6221 -0.8874
  367TIP3    H222737   5.075   1.593   1.234  0.0435  0.8086 -1.5793
  368TIP3   OH222738   4.693   4.392   2.470 -0.0811  0.0703 -0.3917
  368TIP3    H122739   4.699   4.303   2.435  0.1533  0.0094 -0.2020
  368TIP3    H222740   4.672   4.446   2.395  1.4379  0.0821 -0.8413
  369TIP3   OH222741   4.986   2.068   0.946  0.7018  0.2271 -0.0003
  369TIP3    H122742   5.071   2.025   0.951  0.3641 -0.3345  1.6792
  369TIP3    H222743   4.984   2.124   1.024  0.3107  1.7597 -1.0751
  370TIP3   OH222744   5.197   6.933   8.557  0.2780 -0.5104  0.2250
  370TIP3    H122745   5.264   6.865   8.547 -0.2285 -0.9491 -0.2386
  370TIP3    H222746   5.118   6.895   8.518  0.3134  0.8317 -1.2522
  371TIP3   OH222747   5.799   1.021   2.234 -0.8770  0.2798  0.2190
  371TIP3    H122748   5.706   1.011   2.212 -0.7633 -1.8923  0.4661
  371TIP3    H222749   5.845   0.971   2.166 -0.0049  0.0832  0.9355
  372TIP3   OH222750   2.522   6.018   3.257 -0.0918 -0.3301 -0.3220
  372TIP3    H122751   2.508   6.049   3.167  0.0934  1.1632  0.1471
  372TIP3    H222752   2.537   6.097   3.308  2.8433 -1.3195  0.5382
  373TIP3   OH222753   3.683   0.328   1.266 -0.5837 -0.3188  0.2669
  373TIP3    H122754   3.634   0.409   1.282  0.5697  1.0525 -2.3931
  373TIP3    H222755   3.770   0.345   1.303 -0.4441 -0.4495  0.0075
  374TIP3   OH222756   5.068   4.747   1.849  0.3837 -0.0247 -0.4325
  374TIP3    H122757   5.127   4.731   1.923  0.5142  0.3210 -0.4581
  374TIP3    H222758   5.056   4.661   1.808  1.6509  0.0505 -1.0136
  375TIP3   OH222759   4.342   2.161   2.381 -0.0297 -0.1373 -0.2044
  375TIP3    H122760   4.308   2.125   2.300 -1.0273  1.5653 -0.5959
  375TIP3    H222761   4.266   2.202   2.423  0.9591  1.1993  0.3494
  376TIP3   OH222762   4.988   6.005   1.339 -0.2817  0.1827  0.4835
  376TIP3    H122763   5.063   5.945   1.342 -0.4649 -0.0626  0.1995
  376TIP3    H222764   5.022   6.083   1.297 -0.2487 -0.0247  0.1222
  377TIP3   OH222765   0.764   5.207   1.870  0.3292  0.1972 -0.0451
  377TIP3    H122766   0.675   5.197   1.836  0.6639  2.3820 -1.7321
  377TIP3    H222767   0.820   5.174   1.800  0.9196  1.7318 -0.3281
  378TIP3   OH222768   5.294   5.257   3.367  0.3982  0.2596  0.4377
  378TIP3    H122769   5.277   5.304   3.285 -0.9371 -1.0462 -0.0767
  378TIP3    H222770   5.389   5.258   3.376  0.4606  2.7992  0.3413
  379TIP3   OH222771   2.100   4.072   2.455  0.4988 -0.0700 -0.1304
  379TIP3    H122772   2.051   4.081   2.536 -1.1385  0.9110 -1.1868
  379TIP3    H222773   2.138   4.159   2.440  0.5035 -0.1506 -0.6019
  380TIP3   OH222774   3.871   4.989   1.222  0.1462 -0.3818  0.2350
  380TIP3    H122775   3.847   5.081   1.235  1.2119 -0.3928  2.8482
  380TIP3    H222776   3.934   4.991   1.150 -0.9652  0.7065 -0.7577
  381TIP3   OH222777   4.062   2.802   0.856 -0.0179  0.9047  1.1341
  381TIP3    H122778   3.990   2.740   0.857 -0.0941  0.9949  1.9802
  381TIP3    H222779   4.041   2.863   0.785  1.4339 -1.5712 -1.6635
  382TIP3   OH222780   6.684   6.685   0.552  0.3563 -0.0749 -0.5849
  382TIP3    H122781   6.649   6.692   0.641  0.9036 -0.7483 -0.3122
  382TIP3    H222782   6.778   6.703   0.561  1.1190 -3.5592 -0.4442
  383TIP3   OH222783   2.386   1.439   8.476  0.2146 -0.4412 -0.6319
  383TIP3    H122784   2.452   1.394   8.424  1.4098  0.5445 -0.0138
  383TIP3    H222785   2.386   1.529   8.443 -0.6143 -0.3486 -0.4185
  384TIP3   OH222786   4.876   3.027   8.465 -0.0424 -0.6655  0.5222
  384TIP3    H122787   4.896   2.934   8.456 -0.0492 -0.4972 -1.9854
  384TIP3    H222788   4.884   3.062   8.376 -2.1294  1.3211  1.0216
  385TIP3   OH222789   4.674   3.263   0.878 -0.1242  0.1435 -0.0855
  385TIP3    H122790   4.668   3.341   0.933 -1.4870  0.9651 -1.3334
  385TIP3    H222791   4.642   3.192   0.934  1.0649  0.4435  1.0411
  386TIP3   OH222792   6.444   0.901   0.809 -0.4261 -0.3347  0.5272
  386TIP3    H122793   6.472   0.810   0.798 -0.1399 -0.1782 -0.0837
  386TIP3    H222794   6.504   0.951   0.753 -1.5632  0.0734 -0.3564
  387TIP3   OH222795   4.115   4.574   0.638  0.6338  0.0606 -0.1024
  387TIP3    H122796   4.087   4.631   0.710  0.2773 -0.6792  0.3602
  387TIP3    H222797   4.174   4.628   0.586  0.9782  0.5826  0.8049
  388TIP3   OH222798   6.342   6.218   3.436  0.2068 -0.1214 -0.3434
  388TIP3    H122799   6.346   6.243   3.343  1.2696  0.5336 -0.1352
  388TIP3    H222800   6.335   6.300   3.483  2.1043 -0.2471  0.2634
  389TIP3   OH222801   1.335   0.988   1.915 -0.2016  0.0482  0.0011
  389TIP3    H122802   1.325   0.997   2.010 -0.8853  0.7881 -0.1316
  389TIP3    H222803   1.311   0.897   1.896  2.1416 -0.8383  0.7929
  390TIP3   OH222804   1.201   0.781   1.102  0.5038  0.4373  1.0888
  390TIP3    H122805   1.273   0.718   1.108  1.1164  1.2144  2.3788
  390TIP3    H222806   1.127   0.737   1.143  0.4383 -0.0845  0.4255
  391TIP3   OH222807   5.055   4.002   1.443 -0.2207  0.2721 -0.1644
  391TIP3    H122808   5.027   3.959   1.363 -1.0665  1.8273 -0.7626
  391TIP3    H222809   5.147   3.977   1.454 -0.5135 -1.1374 -0.7973
  392TIP3   OH222810   5.769   0.648   2.152 -0.0428  0.2072 -0.3893
  392TIP3    H122811   5.787   0.630   2.245 -1.2598 -2.4085 -0.5501
  392TIP3    H222812   5.797   0.568   2.107 -0.7150  0.8961 -2.1126
  393TIP3   OH222813   4.578   6.578   3.038 -0.3465 -0.4508  0.1235
  393TIP3    H122814   4.542   6.489   3.027 -0.8435 -0.2995  0.4522
  393TIP3    H222815   4.621   6.575   3.124 -0.7465 -0.2555  0.3348
  394TIP3   OH222816   4.111   2.386   3.912  0.2444  0.3733 -0.4461
  394TIP3    H122817   4.128   2.480   3.919 -1.5252  0.7551 -0.7707
  394TIP3    H222818   4.194   2.345   3.934  1.5143  2.0427 -1.8593
  395TIP3   OH222819   3.392   5.641   0.711 -0.1559  0.0389  0.5307
  395TIP3    H122820   3.429   5.692   0.784 -0.4144 -1.3358  1.6552
  395TIP3    H222821   3.313   5.602   0.747 -0.8043  0.0739 -0.7955
  396TIP3   OH222822   1.295   3.519   2.727 -0.5673 -0.2757  0.2730
  396TIP3    H122823   1.221   3.546   2.673  0.8937 -1.6033 -2.5841
  396TIP3    H222824   1.302   3.424   2.714  0.0869 -0.6306  2.6067
  397TIP3   OH222825   4.724   1.312   1.026  0.0587 -0.7049  0.5181
  397TIP3    H122826   4.641   1.274   1.055  1.2184 -2.9879  1.0385
  397TIP3    H222827   4.754   1.255   0.956 -0.0513  1.6590 -1.5805
  398TIP3   OH222828   6.022   6.173   4.638  0.4882 -0.0614  0.2268
  398TIP3    H122829   6.070   6.242   4.592 -0.1873  0.6900  0.6258
  398TIP3    H222830   5.933   6.180   4.606  0.5596 -1.2313 -0.2567
  399TIP3   OH222831   1.252   6.300   2.025  0.1031  0.1846 -0.3054
  399TIP3    H122832   1.268   6.206   2.017  1.4864  0.3012  0.6526
  399TIP3    H222833   1.299   6.338   1.950  1.0189  0.2202  0.2683
  400TIP3   OH222834   1.310   0.025   1.035 -0.3187  0.4085  0.6122
  400TIP3    H122835   1.358  -0.049   1.074 -1.0072 -0.5831 -0.3732
  400TIP3    H222836   1.371   0.098   1.042  1.2519 -0.7416 -0.3178
  401TIP3   OH222837   2.874   5.190   2.428 -0.5265 -0.1174 -0.0178
  401TIP3    H122838   2.956   5.143   2.412  0.2396  0.7244  1.2412
  401TIP3    H222839   2.900   5.281   2.438 -1.6931  0.2433 -0.1303
  402TIP3   OH222840   4.709   1.168   3.342 -0.0219  0.2011  0.1548
  402TIP3    H122841   4.725   1.189   3.250 -1.8681 -1.1111 -0.5199
  402TIP3    H222842   4.704   1.072   3.345 -0.7490  0.2481  1.4640
  403TIP3   OH222843   3.594   5.883   8.410 -0.4858  0.4233 -0.4307
  403TIP3    H122844   3.631   5.843   8.331  2.4895  0.5617  0.7940
  403TIP3    H222845   3.563   5.969   8.380 -0.0281  0.2197 -1.5717
  404TIP3   OH222846   3.513   3.953   0.908 -0.0279  0.1425  0.3225
  404TIP3    H122847   3.565   3.922   0.835  0.0603  2.1480 -0.5132
  404TIP3    H222848   3.574   4.003   0.963 -0.6790  1.0607  0.2373
  405TIP3   OH222849   5.795   1.696   1.444  0.2512  0.1909  0.2210
  405TIP3    H122850   5.801   1.618   1.499  0.1172  0.1445  0.1711
  405TIP3    H222851   5.843   1.763   1.492  0.2073  0.1273  0.3540
  406TIP3   OH222852   0.246   2.246   3.376 -0.1121 -0.0748 -0.4819
  406TIP3    H122853   0.182   2.228   3.445 -0.5285  2.1920 -0.1895
  406TIP3    H222854   0.330   2.246   3.420 -0.4401  2.1297  0.2812
  407TIP3   OH222855   5.314   0.576   8.171 -0.6217  0.5141  0.1443
  407TIP3    H122856   5.292   0.658   8.129 -1.6595  0.1870  0.0223
  407TIP3    H222857   5.334   0.516   8.099 -3.0229 -0.2284  0.0061
  408TIP3   OH222858   5.612   0.403   3.814  0.5120 -0.7850 -0.5144
  408TIP3    H122859   5.698   0.365   3.799  1.0756  0.5082 -0.7520
  408TIP3    H222860   5.562   0.334   3.856  1.9861 -1.2393  0.5914
  409TIP3   OH222861   0.772   0.945   8.570 -0.7612 -0.3367  0.3032
  409TIP3    H122862   0.815   0.982   8.493 -0.1841 -0.9476  0.3166
  409TIP3    H222863   0.781   0.850   8.559 -1.5872 -0.4573  0.6096
  410TIP3   OH222864   3.871   4.961   2.231  0.0211  0.0810 -1.0341
  410TIP3    H122865   3.857   4.971   2.137  2.2564 -1.9941 -1.6799
  410TIP3    H222866   3.875   4.866   2.245 -3.6176  0.1126  1.7862
  411TIP3   OH222867   0.640   6.414   3.352 -0.9554 -1.1049 -0.3074
  411TIP3    H122868   0.613   6.455   3.435  0.6901 -2.3896  0.9240
  411TIP3    H222869   0.575   6.445   3.289 -1.6572  0.7784  1.2163
  412TIP3   OH222870   0.248   6.368   0.607 -0.2842 -0.1865  0.0890
  412TIP3    H122871   0.197   6.355   0.527 -0.2507  0.2739 -0.0068
  412TIP3    H222872   0.335   6.333   0.586 -0.5737 -1.0742  0.2886
  413TIP3   OH222873   6.580   4.345   1.094 -0.5667  0.0097  0.3399
  413TIP3    H122874   6.595   4.323   1.186  2.3923  0.5857  0.0736
  413TIP3    H222875   6.563   4.440   1.095  2.4898  0.6529  0.1254
  414TIP3   OH222876   0.797   1.735   0.221  0.4014  0.5554 -0.4660
  414TIP3    H122877   0.838   1.729   0.307  0.5446  0.0196 -0.5674
  414TIP3    H222878   0.773   1.645   0.199  0.9464  0.5954 -1.2628
  415TIP3   OH222879   2.736   0.757   1.888 -0.4998 -0.0430 -0.5672
  415TIP3    H122880   2.682   0.689   1.929 -0.0718  0.6565  1.2728
  415TIP3    H222881   2.674   0.809   1.836 -0.9410 -1.3935 -1.4595
  416TIP3   OH222882   0.182   4.736   3.508 -0.2423  0.1340  0.1342
  416TIP3    H122883   0.201   4.646   3.534 -0.1140  0.0907 -0.1076
  416TIP3    H222884   0.144   4.776   3.586  2.6077  0.7781  1.3345
  417TIP3   OH222885   0.388   3.812   1.840 -0.3031  0.1963 -0.4331
  417TIP3    H122886   0.323   3.743   1.854  0.0247 -0.0572 -0.1653
  417TIP3    H222887   0.406   3.846   1.927 -0.4566  0.6179 -0.5644
  418TIP3   OH222888   4.409   1.220   8.189  0.0258 -0.2606 -0.1971
  418TIP3    H122889   4.319   1.210   8.158 -1.0327  2.5256  1.5055
  418TIP3    H222890   4.417   1.156   8.260 -1.0270  0.1739  0.3382
  419TIP3   OH222891   2.103   5.205   1.792  0.0380 -0.6293  0.3468
  419TIP3    H122892   2.044   5.138   1.758  0.1181 -0.3321 -0.4083
  419TIP3    H222893   2.052   5.252   1.858  0.3980 -2.2579  1.8706
  420TIP3   OH222894   1.532   3.698   0.649  0.3860  0.3901 -0.2624
  420TIP3    H122895   1.577   3.767   0.599  1.0271  0.6976  0.7037
  420TIP3    H222896   1.493   3.744   0.724  1.2360 -0.3393  0.6632
  421TIP3   OH222897   2.185   0.457   0.153  0.0562 -0.2063  0.3299
  421TIP3    H122898   2.161   0.550   0.146  0.3941 -0.2066 -1.4445
  421TIP3    H222899   2.101   0.411   0.155 -0.1103  0.1128  0.8235
  422TIP3   OH222900   3.329   2.377   1.592  0.2591 -0.3296 -0.3960
  422TIP3    H122901   3.252   2.325   1.569 -0.1584 -0.2903  0.8554
  422TIP3    H222902   3.402   2.329   1.554 -0.2613 -1.0719 -0.4788
  423TIP3   OH222903   5.482   1.073   2.194 -0.2796 -0.1058 -0.2848
  423TIP3    H122904   5.531   1.153   2.212  0.2733 -0.3785 -0.5676
  423TIP3    H222905   5.433   1.056   2.274  0.6961 -0.2670  0.2855
  424TIP3   OH222906   4.832   6.715   1.728 -0.8364  0.1596  0.3764
  424TIP3    H122907   4.768   6.782   1.752 -1.9974  0.2379 -2.5494
  424TIP3    H222908   4.889   6.758   1.664  0.2722 -0.8006  0.6845
  425TIP3   OH222909   0.968   6.750   2.535 -0.1167  0.2979 -0.0526
  425TIP3    H122910   0.955   6.656   2.524 -0.7897  0.5619 -2.0118
  425TIP3    H222911   0.905   6.789   2.475  0.6893  1.9882  0.1611
  426TIP3   OH222912   5.593   0.822   8.199  0.6712 -0.0773  0.0510
  426TIP3    H122913   5.565   0.748   8.252  1.7769  1.0268  2.3118
  426TIP3    H222914   5.512   0.867   8.176  0.1790 -0.1145  1.5821
  427TIP3   OH222915   1.629   5.163   0.793  0.2821 -0.7457 -0.3390
  427TIP3    H122916   1.600   5.239   0.844 -0.9996 -1.7064  0.4015
  427TIP3    H222917   1.608   5.088   0.848 -0.6483 -1.7828 -2.0581
  428TIP3   OH222918   2.097   5.512   8.081  0.0207  0.0105  0.0615
  428TIP3    H122919   2.098   5.476   8.170  1.6144  0.3212  0.1968
  428TIP3    H222920   2.004   5.518   8.059 -0.3748 -1.7265  1.0300
  429TIP3   OH222921   1.102   3.060   4.365  0.4225 -0.3280 -0.5614
  429TIP3    H122922   1.130   3.045   4.274  1.2210 -0.7849 -0.2504
  429TIP3    H222923   1.034   2.994   4.380 -0.9111  0.8315 -1.3459
  430TIP3   OH222924   0.927   6.536   0.347  0.8552  0.2273  0.1670
  430TIP3    H122925   0.878   6.584   0.414 -0.7846 -2.4113  0.9993
  430TIP3    H222926   0.860   6.501   0.289  1.8540 -1.9516  0.2393
  431TIP3   OH222927   1.245   2.193   1.914 -0.4579 -0.4965  0.0215
  431TIP3    H122928   1.265   2.111   1.959  1.3121 -1.1142 -1.7792
  431TIP3    H222929   1.179   2.169   1.849  1.1065 -0.8844 -1.4961
  432TIP3   OH222930   4.741   3.573   3.775  0.6582  0.2168 -0.6174
  432TIP3    H122931   4.770   3.658   3.805 -3.0096  1.1006  1.0097
  432TIP3    H222932   4.679   3.543   3.842  0.6159 -3.0401 -1.8948
  433TIP3   OH222933   6.178   5.478   0.785 -1.1511 -0.9181  0.1386
  433TIP3    H122934   6.245   5.410   0.800 -0.8022 -0.9231 -1.2729
  433TIP3    H222935   6.154   5.508   0.872 -1.3741 -2.9180  0.8265
  434TIP3   OH222936   2.387   1.967   2.158 -0.0046  0.3457 -0.0535
  434TIP3    H122937   2.368   2.054   2.123  1.7318  0.6674 -0.2792
  434TIP3    H222938   2.482   1.962   2.160  0.0090 -2.2500 -1.8552
  435TIP3   OH222939   1.486   1.746   1.183  0.7209  0.4055 -0.4864
  435TIP3    H122940   1.522   1.691   1.113 -0.6627 -0.6655 -0.3903
  435TIP3    H222941   1.445   1.684   1.244  1.1680  1.3809  0.8547
  436TIP3   OH222942   3.211   2.693   3.750 -0.2446 -0.1160 -0.1171
  436TIP3    H122943   3.226   2.685   3.656 -0.5241  0.7625 -0.2458
  436TIP3    H222944   3.242   2.610   3.786  1.0446  0.0293 -0.8269
  437TIP3   OH222945   1.047   1.480   0.828 -0.4690 -0.2747 -1.0462
  437TIP3    H122946   1.121   1.448   0.879 -0.5030 -1.6211 -1.7943
  437TIP3    H222947   1.036   1.415   0.758  0.1342  1.9281 -3.3263
  438TIP3   OH222948   2.939   3.203   0.797 -0.4300  0.5338  0.1443
  438TIP3    H122949   2.887   3.186   0.875 -1.7758  0.2250 -0.7796
  438TIP3    H222950   2.943   3.119   0.751 -0.6504  0.9593 -0.6837
  439TIP3   OH222951   3.699   2.681   0.168 -0.5846  0.5195 -0.5052
  439TIP3    H122952   3.618   2.639   0.139 -0.8077 -0.7164  1.6489
  439TIP3    H222953   3.689   2.688   0.263  1.2200  1.7373 -0.3511
  440TIP3   OH222954   0.109   5.743   3.973 -0.4419 -0.3295  0.6721
  440TIP3    H122955   0.096   5.661   4.021  1.7425 -1.3488 -0.3043
  440TIP3    H222956   0.124   5.808   4.041  0.4964 -1.3185  1.4619
  441TIP3   OH222957   6.200   5.858   0.342 -0.0979  0.0443 -0.4656
  441TIP3    H122958   6.282   5.903   0.359 -0.0911  0.1122 -0.6826
  441TIP3    H222959   6.157   5.853   0.428  0.1498 -0.0298 -0.3441
  442TIP3   OH222960   5.064   6.407   0.083 -1.0458  0.0465  0.3749
  442TIP3    H122961   5.123   6.437   0.152 -0.6748 -1.5534  0.7928
  442TIP3    H222962   4.979   6.444   0.106 -0.5914  0.8939  0.7507
  443TIP3   OH222963   1.038   1.684   1.460  0.4126  0.1732 -0.3921
  443TIP3    H122964   0.947   1.712   1.462 -0.4134 -1.9799  3.9347
  443TIP3    H222965   1.085   1.751   1.508  0.3511 -0.4940  0.6396
  444TIP3   OH222966   2.620   3.525   2.007  0.3488 -0.6001  0.0072
  444TIP3    H122967   2.614   3.539   2.102 -0.7938 -2.1023  0.2014
  444TIP3    H222968   2.583   3.604   1.968 -0.3641 -0.4949  0.8573
  445TIP3   OH222969   1.768   2.848   0.828 -0.0551 -0.5912 -0.0498
  445TIP3    H122970   1.821   2.813   0.757 -1.2395 -1.0464 -0.7266
  445TIP3    H222971   1.754   2.940   0.804  1.0395 -0.2438  0.5279
  446TIP3   OH222972   1.425   6.277   1.796 -0.0361 -0.0179 -0.1661
  446TIP3    H122973   1.357   6.289   1.730 -0.0609  1.2869  0.0611
  446TIP3    H222974   1.480   6.355   1.789  0.8812 -0.5953  0.3010
  447TIP3   OH222975   2.377   4.298   8.206 -0.2450 -0.8489  0.2717
  447TIP3    H122976   2.409   4.366   8.265  0.3098  0.0164 -0.9830
  447TIP3    H222977   2.288   4.280   8.236 -1.1476  1.8438 -0.5393
  448TIP3   OH222978   2.913   3.998   0.045  0.4957  0.4319 -0.4372
  448TIP3    H122979   2.890   4.090   0.039  0.6670  0.5139  0.1287
  448TIP3    H222980   2.978   3.985  -0.024 -1.3581  0.1408 -2.2210
  449TIP3   OH222981   4.424   0.532   2.331  0.1788  0.0337 -1.2284
  449TIP3    H122982   4.389   0.613   2.295  0.3886  0.5257 -0.3571
  449TIP3    H222983   4.354   0.468   2.320 -0.4351  0.6257 -0.8795
  450TIP3   OH222984   2.058   3.728   3.004 -0.1815  0.5400 -0.3309
  450TIP3    H122985   2.095   3.658   2.950  0.2431 -0.3463  1.0377
  450TIP3    H222986   2.017   3.788   2.942  2.4195  0.9008 -1.8401
  451TIP3   OH222987   3.003   1.556   3.657  0.0921 -0.0232  0.2867
  451TIP3    H122988   3.008   1.546   3.752 -2.2863 -0.4787  0.4251
  451TIP3    H222989   2.984   1.649   3.643  2.0969  0.4169  0.0986
  452TIP3   OH222990   4.740   2.964   4.210 -0.3185 -0.3645  0.1701
  452TIP3    H122991   4.816   3.022   4.200 -0.8446  0.1467 -1.1033
  452TIP3    H222992   4.673   3.019   4.250 -0.3006 -0.5612  0.4711
  453TIP3   OH222993   3.099   3.251   1.374  0.5230 -0.2909 -0.5957
  453TIP3    H122994   3.069   3.286   1.290  0.3095 -2.7774 -1.6415
  453TIP3    H222995   3.024   3.203   1.408  0.8330  0.1307  0.7355
  454TIP3   OH222996   2.842   5.515   3.037  0.2004  0.0663 -0.0737
  454TIP3    H122997   2.803   5.571   2.970 -0.2777 -1.7501 -1.3965
  454TIP3    H222998   2.936   5.533   3.031 -0.1180  2.7216  1.4938
  455TIP3   OH222999   0.212   3.467   1.440  0.1245 -0.4101 -0.0573
  455TIP3    H123000   0.292   3.413   1.440  1.4050  1.3539  1.0381
  455TIP3    H223001   0.184   3.467   1.532  0.0042  0.5525 -0.0848
  456TIP3   OH223002   0.012   4.941   0.269  0.3052 -0.2384 -0.0001
  456TIP3    H123003  -0.059   4.941   0.204  0.1353 -2.9406  0.0510
  456TIP3    H223004  -0.033   4.953   0.353  0.4400  2.4326 -0.2420
  457TIP3   OH223005   1.442   1.655   0.870 -0.6889 -0.4939  0.8712
  457TIP3    H123006   1.386   1.694   0.802  0.9615  0.7726  0.1559
  457TIP3    H223007   1.464   1.568   0.836  0.7776  0.4231 -0.6919
  458TIP3   OH223008   6.229   4.958   2.935  0.4056  0.1802  0.1744
  458TIP3    H123009   6.185   4.960   3.020 -0.6625 -0.7137 -0.3323
  458TIP3    H223010   6.322   4.967   2.956  0.1817 -0.2513  1.4581
  459TIP3   OH223011   5.127   1.963   3.434  0.2115  0.0424  0.0260
  459TIP3    H123012   5.107   2.053   3.411 -2.7396  0.1534  2.3606
  459TIP3    H223013   5.163   1.968   3.523  0.0429 -1.0619  0.1785
  460TIP3   OH223014   2.829   5.053   2.977 -0.2668 -0.9307  0.0397
  460TIP3    H123015   2.736   5.037   2.995 -0.6494 -0.7911 -1.6636
  460TIP3    H223016   2.864   5.085   3.060 -1.9266 -0.1623  0.4923
  461TIP3   OH223017   5.449   4.863   4.128 -0.0758 -0.2171 -0.3555
  461TIP3    H123018   5.526   4.844   4.181  1.0528  1.1344 -1.4298
  461TIP3    H223019   5.431   4.956   4.142 -0.7970 -0.2357 -1.0258
  462TIP3   OH223020   1.469   5.074   2.752 -0.2724  0.3086 -0.1877
  462TIP3    H123021   1.402   5.044   2.691 -0.2847  1.2511 -0.6578
  462TIP3    H223022   1.427   5.072   2.838 -0.2627 -1.0003 -0.1850
  463TIP3   OH223023   3.468   5.741   2.988 -0.2013  0.3455 -0.3418
  463TIP3    H123024   3.450   5.770   3.077  1.8786  0.2555  0.1535
  463TIP3    H223025   3.442   5.649   2.987 -0.1480  0.3210  0.2189
  464TIP3   OH223026   3.319   4.037   1.484 -0.1385 -0.8479 -0.4012
  464TIP3    H123027   3.276   4.102   1.540  1.7679 -0.6418  0.9582
  464TIP3    H223028   3.248   3.985   1.447 -1.6076  0.6899  0.1439
  465TIP3   OH223029   2.842   0.827   1.065 -0.2996  0.0269  0.2389
  465TIP3    H123030   2.839   0.784   0.980 -0.8990 -0.0559  0.2974
  465TIP3    H223031   2.855   0.920   1.046 -2.5179  0.3408 -0.0652
  466TIP3   OH223032   5.840   5.867   2.982  0.6419 -0.0710  0.6284
  466TIP3    H123033   5.803   5.847   3.068  0.4215  2.1811  1.1157
  466TIP3    H223034   5.876   5.955   2.992  2.9103 -0.7605 -0.8859
  467TIP3   OH223035   6.327   4.989   3.242 -0.1202 -0.1582 -0.0491
  467TIP3    H123036   6.336   4.940   3.324  2.3424  0.8121  0.3416
  467TIP3    H223037   6.292   5.074   3.268 -1.4000 -0.5867 -0.3174
  468TIP3   OH223038   6.642   0.086   0.844 -0.3835 -0.3915 -0.1516
  468TIP3    H123039   6.709   0.027   0.879  0.7204  1.1542  0.4165
  468TIP3    H223040   6.603   0.128   0.921  0.5785  1.4451 -0.6122
  469TIP3   OH223041   2.153   4.043   0.040 -0.6768 -0.0384 -0.3608
  469TIP3    H123042   2.143   4.020  -0.052 -0.8964 -1.7613  0.0613
  469TIP3    H223043   2.226   3.988   0.070 -0.4736  0.6532  0.4522
  470TIP3   OH223044   0.680   3.615   0.969 -0.7558  0.0987  0.0385
  470TIP3    H123045   0.776   3.615   0.979 -0.7257 -0.3699 -0.1905
  470TIP3    H223046   0.651   3.540   1.021 -0.8242 -0.8619 -1.3238
  471TIP3   OH223047   2.496   5.971   1.393 -0.1378  0.5156 -0.5053
  471TIP3    H123048   2.443   5.976   1.472 -1.3521  0.4170 -1.2893
  471TIP3    H223049   2.563   6.038   1.405 -1.2867  1.6311 -0.0905
  472TIP3   OH223050   2.617   1.220   1.413  0.1690  0.4415  0.1081
  472TIP3    H123051   2.701   1.175   1.425 -0.3324 -0.0493  2.1539
  472TIP3    H223052   2.551   1.153   1.428 -0.6028  1.0298 -0.5859
  473TIP3   OH223053   6.606   6.355   3.541 -0.3252 -0.1693 -0.1194
  473TIP3    H123054   6.652   6.436   3.562  0.1987 -0.3718 -0.4614
  473TIP3    H223055   6.520   6.365   3.582 -0.5262  0.8551 -0.7527
  474TIP3   OH223056   4.833   4.070   0.939  0.0159  0.3714 -0.0839
  474TIP3    H123057   4.779   4.017   0.880 -0.5554  1.6740 -0.7568
  474TIP3    H223058   4.796   4.158   0.934  0.6761  0.7675  1.3518
  475TIP3   OH223059   4.586   3.349   1.403  0.5894  0.0358 -1.1338
  475TIP3    H123060   4.497   3.382   1.395  1.1154  1.6274 -0.8418
  475TIP3    H223061   4.598   3.336   1.497  1.0927  1.1436 -1.0325
  476TIP3   OH223062   0.596   6.738   0.893  0.2738 -0.2221 -0.3850
  476TIP3    H123063   0.593   6.661   0.949 -1.7992 -0.2915 -0.5048
  476TIP3    H223064   0.560   6.708   0.809 -1.1048  0.9601 -0.2629
  477TIP3   OH223065   0.098   0.589   0.425 -0.3370  0.3762  0.0036
  477TIP3    H123066   0.177   0.641   0.410  0.2737 -0.9944 -1.9532
  477TIP3    H223067   0.131   0.500   0.440 -1.4933 -0.4909 -2.1844
  478TIP3   OH223068   6.076   0.897   2.865  0.4839  0.0174 -0.6914
  478TIP3    H123069   6.166   0.874   2.887  0.5005  0.0758 -0.6973
  478TIP3    H223070   6.070   0.991   2.885 -0.0797 -0.3481  1.0290
  479TIP3   OH223071   5.009   0.776   1.122 -0.5317  0.2850  0.0765
  479TIP3    H123072   5.005   0.867   1.091  1.7052 -0.1418 -1.7206
  479TIP3    H223073   5.068   0.780   1.198  0.7753  0.1644 -0.9059
  480TIP3   OH223074   2.255   2.481   2.598  0.4638 -0.4608  0.7832
  480TIP3    H123075   2.207   2.428   2.661  1.8042 -0.6909  1.6553
  480TIP3    H223076   2.305   2.417   2.546 -1.3541 -0.3705 -1.2367
  481TIP3   OH223077   5.625   2.456   0.122  0.0508 -0.3542 -0.3926
  481TIP3    H123078   5.692   2.452   0.190  0.4153  1.6070 -0.5685
  481TIP3    H223079   5.544   2.472   0.170  0.4499  2.0668 -0.3792
  482TIP3   OH223080   4.145   4.300   1.520 -0.9747 -0.0799  0.3903
  482TIP3    H123081   4.208   4.265   1.583 -1.5199 -0.9570  0.4716
  482TIP3    H223082   4.154   4.395   1.527 -0.6646 -0.1752  1.4277
  483TIP3   OH223083   4.881   3.445   3.152 -0.3510  0.2693 -0.0986
  483TIP3    H123084   4.796   3.401   3.158  0.1432 -0.7575 -0.4401
  483TIP3    H223085   4.863   3.535   3.181 -1.5879  0.1297 -0.3594
  484TIP3   OH223086   3.064   4.240   4.208 -0.3340 -0.4149 -0.0745
  484TIP3    H123087   3.139   4.241   4.268 -0.3061  0.1760 -0.1094
  484TIP3    H223088   3.001   4.299   4.249 -0.5891 -0.5427 -0.2855
  485TIP3   OH223089   4.184   6.219   3.170 -0.4055 -0.2942  0.0260
  485TIP3    H123090   4.138   6.247   3.250  0.1860 -2.0039  1.0111
  485TIP3    H223091   4.131   6.146   3.137 -1.3563  1.1993 -1.9161
  486TIP3   OH223092   4.396   4.398   2.326 -0.1915 -0.3395 -0.1474
  486TIP3    H123093   4.429   4.347   2.399 -1.9077 -0.9446  0.2587
  486TIP3    H223094   4.465   4.461   2.307  0.9862 -1.2766  0.8776
  487TIP3   OH223095   3.167   5.623   1.591  0.0042  0.2498  0.4103
  487TIP3    H123096   3.107   5.663   1.655 -0.0827  1.1695 -0.2142
  487TIP3    H223097   3.118   5.626   1.508  1.4497  2.5016 -0.4665
  488TIP3   OH223098   3.140   5.690   4.288  0.0259  0.1677  0.0079
  488TIP3    H123099   3.193   5.690   4.208  1.1224 -0.7523  0.7058
  488TIP3    H223100   3.086   5.611   4.281  1.1291 -0.6834  0.7911
  489TIP3   OH223101   4.135   4.479   2.711 -0.0237 -0.0980  0.1850
  489TIP3    H123102   4.046   4.509   2.731  0.0634  1.0551 -1.0566
  489TIP3    H223103   4.170   4.546   2.653  1.1564 -1.2796 -0.4987
  490TIP3   OH223104   6.364   1.460   3.244 -0.0049 -0.0512  0.2188
  490TIP3    H123105   6.273   1.460   3.273 -0.3680  1.1654 -0.8445
  490TIP3    H223106   6.366   1.399   3.171  0.5922 -1.9405  1.7079
  491TIP3   OH223107   5.865   3.221   0.698 -0.2567  0.4029 -0.3880
  491TIP3    H123108   5.886   3.150   0.759  1.8860  0.6843 -0.7101
  491TIP3    H223109   5.869   3.181   0.611 -0.0835  0.6764 -0.5107
  492TIP3   OH223110   3.783   5.783   0.576  0.0404 -0.2238 -0.5337
  492TIP3    H123111   3.783   5.841   0.500 -0.0260  1.3822  0.6531
  492TIP3    H223112   3.740   5.833   0.645  1.6210 -0.9593  1.0695
  493TIP3   OH223113   3.091   1.527   3.053 -0.7272  0.2342  0.0494
  493TIP3    H123114   2.998   1.513   3.036 -0.7460  0.4882 -0.0654
  493TIP3    H223115   3.094   1.567   3.140 -0.5646 -2.0481  1.1708
  494TIP3   OH223116   1.742   1.794   2.778  0.4057 -0.0014 -0.2605
  494TIP3    H123117   1.666   1.738   2.787  1.1740 -0.9967  0.1456
  494TIP3    H223118   1.773   1.809   2.867 -0.4531  2.0648 -0.2356
  495TIP3   OH223119   1.387   3.405   3.617 -0.8426  0.3920 -0.2016
  495TIP3    H123120   1.383   3.464   3.542 -2.0281 -0.6449 -0.9970
  495TIP3    H223121   1.328   3.445   3.681 -0.9734  0.5051 -0.3916
  496TIP3   OH223122   1.730   0.295   8.207  0.4513 -0.0462 -0.2042
  496TIP3    H123123   1.752   0.203   8.193  0.2719 -0.1401  0.1140
  496TIP3    H223124   1.811   0.334   8.239  0.4160 -0.1858  0.0598
  497TIP3   OH223125   4.399   6.171   1.629 -0.3088  0.4529 -0.0315
  497TIP3    H123126   4.376   6.258   1.663  2.2599  0.6238  1.5186
  497TIP3    H223127   4.494   6.169   1.629 -0.2504 -1.6527 -2.0845
  498TIP3   OH223128   2.704   5.311   3.656 -0.4816  0.1431  0.0199
  498TIP3    H123129   2.721   5.220   3.632 -0.0803 -0.1911  1.4563
  498TIP3    H223130   2.790   5.345   3.680 -0.6365  0.9005 -0.4875
  499TIP3   OH223131   5.578   5.820   2.867 -0.0755  0.6970  0.5339
  499TIP3    H123132   5.665   5.831   2.907 -1.2609 -0.3816  3.6966
  499TIP3    H223133   5.530   5.765   2.929 -2.6812  0.2955 -1.6791
  500TIP3   OH223134   0.942   6.193   1.180 -0.4529  0.2379  0.7722
  500TIP3    H123135   0.993   6.241   1.245 -0.5953  0.9343  0.3832
  500TIP3    H223136   1.007   6.144   1.130 -0.3660 -0.5030  1.5883
  501TIP3   OH223137   4.934   6.386   2.935  0.0308  0.0529  0.2338
  501TIP3    H123138   4.899   6.297   2.935  0.4283 -0.1058  0.0593
  501TIP3    H223139   5.018   6.379   2.889  0.5869  0.3110  1.1780
  502TIP3   OH223140   6.000   5.275   3.205 -0.2165 -0.0580 -0.0275
  502TIP3    H123141   5.948   5.194   3.212  0.1926 -0.5067 -1.7565
  502TIP3    H223142   5.955   5.337   3.263 -0.0792 -1.7220  2.0179
  503TIP3   OH223143   0.369   6.345   0.974 -0.1524 -0.2094 -0.5075
  503TIP3    H123144   0.311   6.404   0.926 -1.1814 -0.7469  0.0409
  503TIP3    H223145   0.311   6.298   1.035  1.0170  0.0309  0.8503
  504TIP3   OH223146   1.297   0.766   2.080  0.3412  0.9337  0.0595
  504TIP3    H123147   1.375   0.821   2.091  0.6602  1.2327 -2.7846
  504TIP3    H223148   1.331   0.684   2.044 -0.6956  1.7597 -3.0862
  505TIP3   OH223149   5.766   5.075   2.863  0.4027  0.1790 -0.6310
  505TIP3    H123150   5.799   4.999   2.910 -3.2079 -0.2442  1.5813
  505TIP3    H223151   5.783   5.056   2.771  2.1451 -1.8995  0.0349
  506TIP3   OH223152   3.053   3.076   0.231  0.0248 -0.0114 -0.4811
  506TIP3    H123153   2.972   3.126   0.239  0.8268  1.1484  0.7232
  506TIP3    H223154   3.121   3.142   0.222  0.9862 -0.9304 -0.1047
  507TIP3   OH223155   3.690   2.131   7.986  0.1629 -0.8705 -0.2332
  507TIP3    H123156   3.759   2.085   8.033  2.2495  0.3549 -1.8918
  507TIP3    H223157   3.652   2.065   7.928  2.0840 -0.9594 -1.4944
  508TIP3   OH223158   6.495   2.567   1.105 -0.2883 -0.9097 -0.4256
  508TIP3    H123159   6.495   2.614   1.189  0.0494 -0.3182 -0.7535
  508TIP3    H223160   6.406   2.580   1.071 -0.5788 -1.5602  0.0608
  509TIP3   OH223161   6.655   4.602   8.457 -0.3418 -0.1447  0.3639
  509TIP3    H123162   6.632   4.510   8.469  0.7629 -0.2241  2.2091
  509TIP3    H223163   6.741   4.600   8.415 -0.5221  0.0689 -0.0249
  510TIP3   OH223164   0.376   3.279   2.999 -0.0653  0.8275 -0.1936
  510TIP3    H123165   0.411   3.263   2.912  0.9879  0.9888  0.1774
  510TIP3    H223166   0.346   3.370   2.997 -0.0265  0.8356 -0.3843
  511TIP3   OH223167   2.013   1.926   0.319  0.1970  0.2495  0.3049
  511TIP3    H123168   1.954   1.954   0.389 -1.9628 -5.0284  1.0924
  511TIP3    H223169   2.076   1.869   0.361  2.4676  1.3277 -1.4137
  512TIP3   OH223170   6.425   2.318   1.940  0.3549  0.2637  0.0865
  512TIP3    H123171   6.478   2.270   1.877  0.9829 -1.2196  1.6540
  512TIP3    H223172   6.397   2.396   1.893  0.7144 -0.7988 -2.0350
  513TIP3   OH223173   0.754   3.347   0.410 -0.0379 -0.1880  0.4338
  513TIP3    H123174   0.685   3.280   0.415 -0.6520  0.3933 -0.0873
  513TIP3    H223175   0.812   3.325   0.483 -1.8335  0.4481  2.1695
  514TIP3   OH223176   5.793   1.627   0.016  0.3185 -0.0388  0.3900
  514TIP3    H123177   5.735   1.672  -0.045  0.1033 -0.3603  0.3583
  514TIP3    H223178   5.839   1.698   0.061  0.7191  0.1912 -0.3698
  515TIP3   OH223179   4.873   3.518   8.326  0.2506  0.0958 -0.2566
  515TIP3    H123180   4.898   3.458   8.396 -0.6454  0.0317  0.0236
  515TIP3    H223181   4.956   3.544   8.285  0.8697  0.7916  1.3567
  516TIP3   OH223182   6.698   5.895   1.818 -0.1100 -0.2873 -0.7799
  516TIP3    H123183   6.635   5.860   1.755 -0.8200  1.2462 -0.9847
  516TIP3    H223184   6.781   5.898   1.771 -1.0866  3.1098 -2.6385
  517TIP3   OH223185   4.719   1.332   3.562 -0.5194  0.7914 -0.3844
  517TIP3    H123186   4.744   1.389   3.490  0.6536 -1.1925 -1.6396
  517TIP3    H223187   4.743   1.244   3.533 -0.8211 -0.1980  2.0810
  518TIP3   OH223188   4.041   2.798   1.454 -0.3695 -0.5606 -0.3315
  518TIP3    H123189   4.131   2.809   1.422 -0.5738 -1.3462 -1.2545
  518TIP3    H223190   4.048   2.797   1.549  0.7277 -1.4832 -0.4029
  519TIP3   OH223191   1.074   1.080   2.084  0.1810 -0.3761  0.5844
  519TIP3    H123192   1.024   0.999   2.079 -1.7563  0.7439  0.8530
  519TIP3    H223193   1.071   1.115   1.995  2.1778 -1.1911  0.1303
  520TIP3   OH223194   6.516   2.876   2.421 -0.2944 -0.3489 -0.1576
  520TIP3    H123195   6.456   2.930   2.472  1.4514 -0.6595  2.3881
  520TIP3    H223196   6.535   2.930   2.343 -1.8714  0.8075  0.2011
  521TIP3   OH223197   0.823   5.523   8.575 -0.3572  0.2007  0.1069
  521TIP3    H123198   0.837   5.511   8.669 -1.4229 -0.7673  0.1555
  521TIP3    H223199   0.771   5.448   8.548  2.1479 -1.0119 -1.8165
  522TIP3   OH223200   0.935   5.133   3.653  0.2811 -0.3058 -0.3286
  522TIP3    H123201   0.969   5.075   3.584 -0.7653 -1.0487 -0.2469
  522TIP3    H223202   0.981   5.105   3.732  1.7473  0.7804 -0.7464
  523TIP3   OH223203   1.010   3.793   1.317  0.0054 -0.3990  0.7464
  523TIP3    H123204   0.931   3.847   1.315  0.3912  0.1599  0.2069
  523TIP3    H223205   0.982   3.707   1.287 -0.2407  0.0089 -0.2220
  524TIP3   OH223206   3.777   5.770   3.256 -0.4510 -0.3246 -0.3220
  524TIP3    H123207   3.731   5.689   3.275 -0.3877 -0.0102  1.3011
  524TIP3    H223208   3.727   5.838   3.300 -0.4863  0.5477 -1.6212
  525TIP3   OH223209   2.188   3.854   1.464 -0.3247  0.2819  0.0929
  525TIP3    H123210   2.206   3.935   1.510  1.8678  1.0598 -1.9061
  525TIP3    H223211   2.240   3.788   1.510  0.5366  0.7093 -0.2553
  526TIP3   OH223212   3.839   6.756   1.233  0.5303 -0.2729  0.7663
  526TIP3    H123213   3.905   6.703   1.188 -1.0323 -1.2490 -0.5020
  526TIP3    H223214   3.890   6.820   1.283  2.4951  1.3228 -2.8557
  527TIP3   OH223215   1.213   1.414   1.880 -0.7014 -0.2031 -0.2081
  527TIP3    H123216   1.130   1.375   1.906 -0.4539 -0.8121 -0.3006
  527TIP3    H223217   1.190   1.479   1.813 -0.9995 -1.2363 -1.1327
  528TIP3   OH223218   4.524   3.537   7.991  0.2177  0.3456  0.7224
  528TIP3    H123219   4.502   3.511   7.901  1.8254 -1.9113  0.9269
  528TIP3    H223220   4.617   3.518   8.000  0.0449  0.3098  2.9574
  529TIP3   OH223221   4.166   2.119   3.299  0.2615  0.9735  0.3147
  529TIP3    H123222   4.095   2.066   3.336  0.7042  0.0958 -0.0650
  529TIP3    H223223   4.234   2.116   3.366 -0.0396  1.7958  0.6676
  530TIP3   OH223224   0.285   1.166   8.104  0.7565 -0.1776  0.0315
  530TIP3    H123225   0.255   1.089   8.152 -0.3105 -0.1338 -0.5410
  530TIP3    H223226   0.213   1.188   8.045  0.9364  1.3862  0.3340
  531TIP3   OH223227   5.874   2.014   0.621 -0.1677  0.3899 -0.1265
  531TIP3    H123228   5.920   1.930   0.629 -0.3234  0.3871  0.9226
  531TIP3    H223229   5.837   2.013   0.533  1.0087 -0.0300 -0.6386
  532TIP3   OH223230   3.340   3.541   0.136 -0.1045 -0.7359 -0.4295
  532TIP3    H123231   3.435   3.534   0.132 -0.1755 -2.7807  0.0692
  532TIP3    H223232   3.310   3.450   0.147 -1.9985  0.0594  1.6831
  533TIP3   OH223233   0.893   4.433   0.385 -0.1583  0.3344  0.4306
  533TIP3    H123234   0.859   4.444   0.296 -0.1222 -0.3908  0.3219
  533TIP3    H223235   0.832   4.372   0.427  0.4042 -0.1465  0.5688
  534TIP3   OH223236   5.093   1.100   0.536 -0.0368  0.1867 -0.0464
  534TIP3    H123237   5.120   1.126   0.624  1.4761  2.5711 -1.1169
  534TIP3    H223238   5.000   1.124   0.532 -0.0152  0.4561  0.7437
  535TIP3   OH223239   2.996   4.517   2.646 -0.1307 -0.4993  0.0060
  535TIP3    H123240   3.018   4.593   2.700 -1.2143  0.1976 -0.4959
  535TIP3    H223241   3.052   4.525   2.569 -1.5666  0.8990 -0.9566
  536TIP3   OH223242   0.717   2.846   8.533 -0.0373  0.1641 -0.5403
  536TIP3    H123243   0.811   2.856   8.516  0.1454  0.6604  0.6273
  536TIP3    H223244   0.686   2.936   8.546 -0.2698 -0.1165  1.0136
  537TIP3   OH223245   3.023   2.844   0.075  0.2274  0.1187  0.0982
  537TIP3    H123246   3.007   2.905   0.147 -1.1407  1.3169 -1.1513
  537TIP3    H223247   3.014   2.898  -0.004 -0.0435 -1.5138 -1.0195
  538TIP3   OH223248   4.864   0.650   2.059  0.0324  0.5783  0.2790
  538TIP3    H123249   4.851   0.556   2.045  0.0052  0.3765  1.5646
  538TIP3    H223250   4.846   0.663   2.152 -0.5029  1.9546  0.0105
  539TIP3   OH223251   1.189   0.322   1.688  0.1523  0.0956  0.2077
  539TIP3    H123252   1.277   0.340   1.653 -0.4135  1.3590 -0.6454
  539TIP3    H223253   1.168   0.234   1.656  0.9150 -0.0253  0.0175
  540TIP3   OH223254   3.898   3.809   8.314 -0.1818  0.7461 -0.3775
  540TIP3    H123255   3.862   3.766   8.236  0.5684  0.2656 -0.4724
  540TIP3    H223256   3.883   3.903   8.299 -1.2554  0.5792 -0.4659
  541TIP3   OH223257   4.015   1.883   2.608  0.2562 -0.6037  0.1582
  541TIP3    H123258   4.045   1.860   2.696 -3.2009 -3.3141  0.8136
  541TIP3    H223259   4.007   1.979   2.609  1.2738 -0.4918  2.3826
  542TIP3   OH223260   3.835   0.796   3.341 -0.3055  0.1548  0.3330
  542TIP3    H123261   3.852   0.885   3.310 -0.1191  0.3873  1.0618
  542TIP3    H223262   3.891   0.787   3.418  1.3640 -1.4125 -0.9933
  543TIP3   OH223263   5.739   2.449   3.926 -0.2888 -0.4825 -0.6359
  543TIP3    H123264   5.730   2.354   3.931  2.2226 -0.7141  1.9121
  543TIP3    H223265   5.709   2.481   4.011 -0.4650  0.9341 -1.2099
  544TIP3   OH223266   2.965   0.626   1.784  0.3917 -0.0127 -0.3417
  544TIP3    H123267   2.892   0.669   1.828  0.0523  0.0207 -0.9208
  544TIP3    H223268   2.934   0.613   1.694  0.1573 -2.1602 -0.0186
  545TIP3   OH223269   1.497   4.988   2.390 -0.0017  0.1736  0.3735
  545TIP3    H123270   1.442   4.947   2.457  0.0132 -0.2492  0.1281
  545TIP3    H223271   1.580   4.940   2.394  0.1989  0.5255  0.4447
  546TIP3   OH223272   6.217   3.287   2.567 -0.2522 -0.7942 -0.4136
  546TIP3    H123273   6.164   3.277   2.647  2.4002 -1.3001  1.4004
  546TIP3    H223274   6.215   3.381   2.549 -1.9257 -0.8287 -0.5590
  547TIP3   OH223275   5.959   4.419   3.143 -0.4437 -0.3208 -0.1247
  547TIP3    H123276   6.030   4.483   3.134  0.8081 -1.6594 -0.2622
  547TIP3    H223277   5.986   4.363   3.216 -1.9999 -0.1079  0.6520
  548TIP3   OH223278   1.438   2.385   1.611  0.5386 -0.0737 -0.0061
  548TIP3    H123279   1.401   2.369   1.698 -1.1627 -0.7805 -0.8120
  548TIP3    H223280   1.530   2.359   1.619  0.7145  0.9005  1.8473
  549TIP3   OH223281   1.803   2.705   2.156  0.0209  0.0872 -0.3228
  549TIP3    H123282   1.714   2.673   2.167  1.1926 -2.7186  2.5881
  549TIP3    H223283   1.822   2.753   2.237  1.1863  0.6139 -0.8676
  550TIP3   OH223284   0.082   5.200   3.057  0.0876 -0.7184 -0.0704
  550TIP3    H123285   0.015   5.133   3.043  0.4108 -0.6741 -2.0064
  550TIP3    H223286   0.121   5.214   2.971  1.0867  0.8519  0.5959
  551TIP3   OH223287   4.166   5.894   2.468 -0.4658  0.9817  0.0441
  551TIP3    H123288   4.164   5.948   2.388  0.4648  2.5109  0.9980
  551TIP3    H223289   4.259   5.876   2.482 -0.7270 -0.4853  0.0294
  552TIP3   OH223290   0.279   2.687   1.525  0.3276  1.1299 -0.2646
  552TIP3    H123291   0.330   2.753   1.478 -0.3654  1.4545 -0.5830
  552TIP3    H223292   0.306   2.604   1.487  2.0282  1.1141  0.9063
  553TIP3   OH223293   3.426   5.234   0.704 -0.5010  0.0718  0.1608
  553TIP3    H123294   3.496   5.169   0.705 -0.1361  0.4367 -0.5995
  553TIP3    H223295   3.467   5.311   0.664 -1.0587  0.6134  0.6228
  554TIP3   OH223296   6.871   5.385   7.932 -0.5115 -0.4062  0.2344
  554TIP3    H123297   6.909   5.468   7.903  1.3580 -1.2846 -0.0075
  554TIP3    H223298   6.945   5.324   7.935 -1.7242 -1.9402  0.9349
  555TIP3   OH223299   5.315   3.566   0.254 -0.4351  0.2183  0.3034
  555TIP3    H123300   5.390   3.626   0.262  1.4823 -1.9198 -0.4661
  555TIP3    H223301   5.250   3.615   0.204  0.6019  2.0346  0.6542
  556TIP3   OH223302   4.869   6.760   3.147 -0.5963  0.7134  0.3639
  556TIP3    H123303   4.833   6.837   3.191 -3.4431  0.3509 -1.1160
  556TIP3    H223304   4.820   6.686   3.183 -1.0582  0.1218 -1.3835
  557TIP3   OH223305   5.753   1.998   0.137 -0.1519  0.0847  0.7265
  557TIP3    H123306   5.786   2.088   0.147  1.4631 -0.5860  1.8473
  557TIP3    H223307   5.680   2.006   0.076  2.1430  1.6958 -2.0649
  558TIP3   OH223308   1.465   6.356   1.395 -0.1889 -0.1742  0.1601
  558TIP3    H123309   1.429   6.443   1.412  1.8647  0.3967  2.2051
  558TIP3    H223310   1.443   6.337   1.304  0.4724  3.1011 -0.7882
  559TIP3   OH223311   3.124   3.848   1.699  0.3180  0.5092 -0.0624
  559TIP3    H123312   3.200   3.827   1.752  0.1329  0.5488  0.2197
  559TIP3    H223313   3.132   3.791   1.622  1.6057  1.7953 -0.9512
  560TIP3   OH223314   6.920   5.326   1.624  0.2698 -0.0047 -0.5195
  560TIP3    H123315   6.921   5.380   1.703 -0.3693  1.3466 -1.3948
  560TIP3    H223316   6.949   5.384   1.554  1.6104 -1.3910 -1.1786
  561TIP3   OH223317   1.118   4.196   1.492 -0.3870  0.5308  0.1938
  561TIP3    H123318   1.193   4.255   1.481 -1.0061  1.5502  1.2165
  561TIP3    H223319   1.090   4.209   1.583 -1.4748 -0.2382 -0.0077
  562TIP3   OH223320   3.366   5.392   2.288 -0.1055  0.2375 -0.5374
  562TIP3    H123321   3.310   5.452   2.338 -0.9739 -0.0134 -1.1862
  562TIP3    H223322   3.368   5.430   2.200  1.6928  0.8703 -0.2705
  563TIP3   OH223323   1.211   2.364   3.759  0.1496  0.7445 -0.4552
  563TIP3    H123324   1.291   2.335   3.803  0.2029  0.2072 -0.8940
  563TIP3    H223325   1.165   2.415   3.825 -0.4228 -1.1733  0.7097
  564TIP3   OH223326   1.061   5.142   3.163 -0.0110 -0.4202  0.1211
  564TIP3    H123327   1.003   5.173   3.094 -0.9551 -1.9618  0.1875
  564TIP3    H223328   1.046   5.202   3.236 -1.1193 -0.4616 -0.0576
  565TIP3   OH223329   2.996   5.229   0.665  0.1585  0.2149  0.3255
  565TIP3    H123330   2.932   5.189   0.606  0.4079  1.2980 -0.7173
  565TIP3    H223331   2.995   5.322   0.643  1.4925  0.3858  0.8592
  566TIP3   OH223332   0.544   2.673   2.306  0.0008  0.1078  0.1296
  566TIP3    H123333   0.583   2.644   2.223 -0.8416 -1.7593  0.3365
  566TIP3    H223334   0.604   2.641   2.373  0.7130  1.6743  0.2739
  567TIP3   OH223335   5.329   1.313   2.693  0.9535 -0.3307 -0.5379
  567TIP3    H123336   5.368   1.395   2.663  2.9792 -1.1895 -0.3835
  567TIP3    H223337   5.379   1.290   2.772 -1.1639 -0.5255  0.8326
  568TIP3   OH223338   0.851   4.034   2.555  0.1541  0.3482  0.5726
  568TIP3    H123339   0.931   3.984   2.539  0.7215  1.2580  0.4755
  568TIP3    H223340   0.781   3.978   2.521  0.5489 -1.2366  2.2415
  569TIP3   OH223341   5.213   1.719   4.311 -0.0567  0.1796  0.0378
  569TIP3    H123342   5.133   1.738   4.263 -0.5263 -0.2845  0.6237
  569TIP3    H223343   5.190   1.648   4.371  0.8652 -0.1626  0.0130
  570TIP3   OH223344   4.537   3.244   7.898 -0.0239 -0.1251  0.2907
  570TIP3    H123345   4.515   3.230   7.806  0.1656  2.4174 -0.2240
  570TIP3    H223346   4.454   3.235   7.945 -0.3666 -0.1679 -0.3172
  571TIP3   OH223347   5.896   0.182   2.236  0.2226 -0.2026 -0.6495
  571TIP3    H123348   5.846   0.156   2.313  0.4301 -0.4729 -0.6019
  571TIP3    H223349   5.965   0.115   2.229  0.7225  0.2987 -0.5696
  572TIP3   OH223350   2.744   5.177   2.180 -0.2406  0.2290  0.3354
  572TIP3    H123351   2.790   5.237   2.122 -0.5845 -0.4423 -0.6605
  572TIP3    H223352   2.798   5.172   2.258 -0.1029  1.6686  0.3559
  573TIP3   OH223353   1.248   5.401   2.184 -0.2116 -0.3399  0.6878
  573TIP3    H123354   1.317   5.447   2.231 -0.9805  0.3510  1.1727
  573TIP3    H223355   1.226   5.458   2.110  0.4768 -1.0710 -0.1036
  574TIP3   OH223356   6.510   0.856   1.839  0.3381  1.1354 -0.1051
  574TIP3    H123357   6.597   0.884   1.810 -0.0897  1.3576 -1.2686
  574TIP3    H223358   6.524   0.773   1.883  0.9786  0.3232 -1.7410
  575TIP3   OH223359   2.653   6.305   3.672 -0.1325  0.2660  0.5331
  575TIP3    H123360   2.707   6.360   3.729 -2.5286  0.5481  2.7472
  575TIP3    H223361   2.651   6.220   3.715  0.0116 -0.2857 -0.5132
  576TIP3   OH223362   2.800   0.784   0.025 -0.6968 -0.8316 -0.2368
  576TIP3    H123363   2.828   0.874   0.043  1.7348 -1.5548 -0.0411
  576TIP3    H223364   2.770   0.750   0.109 -2.0638 -0.1030 -0.4024
  577TIP3   OH223365   1.397   4.974   4.236 -0.1206 -0.2303  0.2489
  577TIP3    H123366   1.330   4.988   4.169  0.1301 -0.7262 -0.1107
  577TIP3    H223367   1.423   5.062   4.264  1.4679  0.0760 -1.9862
  578TIP3   OH223368   0.943   0.935   1.843  0.4777  0.1557  0.4905
  578TIP3    H123369   0.949   0.849   1.884  1.8138  1.0843  2.3741
  578TIP3    H223370   0.867   0.977   1.883 -0.0113 -0.0369 -0.2240
  579TIP3   OH223371   4.429   1.849   1.114  0.2673 -0.3720 -0.1413
  579TIP3    H123372   4.346   1.803   1.120  0.2448 -0.2533  0.4616
  579TIP3    H223373   4.494   1.786   1.147  0.3488 -0.2739 -0.1120
  580TIP3   OH223374   5.179   1.820   1.413  0.2863  0.0517  0.2088
  580TIP3    H123375   5.272   1.809   1.396  0.2964  0.2317  0.1480
  580TIP3    H223376   5.137   1.747   1.367  0.5671 -1.3011  1.9891
  581TIP3   OH223377   0.890   5.499   2.920  0.2838  0.1323  0.0649
  581TIP3    H123378   0.875   5.450   2.839  0.8135 -3.2177  1.8300
  581TIP3    H223379   0.819   5.473   2.978  1.1266  0.7454  1.4139
  582TIP3   OH223380   5.842   1.173   3.147  0.1998 -0.3010  0.0324
  582TIP3    H123381   5.748   1.182   3.163  0.1800 -1.2441  0.5746
  582TIP3    H223382   5.854   1.079   3.135  0.9479 -0.0909 -0.9188
  583TIP3   OH223383   1.656   4.909   2.944 -0.3570 -0.1893 -0.2386
  583TIP3    H123384   1.571   4.874   2.973 -0.8633  0.5843 -0.7454
  583TIP3    H223385   1.633   4.981   2.885  0.6562 -0.6833 -1.2633
  584TIP3   OH223386   5.928   1.501   0.459 -0.0654 -0.0722  0.1537
  584TIP3    H123387   5.927   1.460   0.372 -0.8006 -0.8301  0.5136
  584TIP3    H223388   5.892   1.435   0.517  0.0944  0.5656  0.9903
  585TIP3   OH223389   1.288   0.192   3.135  0.3804  0.1142  0.0914
  585TIP3    H123390   1.279   0.099   3.156 -1.5071  0.7047  2.2768
  585TIP3    H223391   1.382   0.208   3.137  0.7110 -1.6220  0.1913
  586TIP3   OH223392   0.239   3.641   3.696  0.0062 -0.5371  0.1018
  586TIP3    H123393   0.244   3.686   3.611 -0.4310  1.0548  0.8837
  586TIP3    H223394   0.329   3.640   3.728 -0.3154  2.7596  1.4962
  587TIP3   OH223395   4.544   4.799   2.379 -0.0988  0.0017  0.4386
  587TIP3    H123396   4.478   4.784   2.447 -1.7718  0.3484 -1.0455
  587TIP3    H223397   4.513   4.749   2.304  0.9627  0.7506 -0.5298
  588TIP3   OH223398   4.858   2.586   2.553 -0.8756  0.0915  0.7492
  588TIP3    H123399   4.811   2.649   2.606 -1.4392  0.0060  0.3552
  588TIP3    H223400   4.917   2.639   2.499 -2.0420  0.3649 -0.2831
  589TIP3   OH223401   4.185   1.898   0.654  0.3840  0.2234 -0.5689
  589TIP3    H123402   4.196   1.984   0.695 -0.5970 -0.2619  0.8026
  589TIP3    H223403   4.104   1.864   0.692  2.1224 -2.4465  1.0664
  590TIP3   OH223404   6.340   0.681   3.254  0.4027  0.1021 -0.2388
  590TIP3    H123405   6.347   0.587   3.265  2.4666  0.0812 -1.2713
  590TIP3    H223406   6.257   0.704   3.297  0.1384 -2.0648  0.5422
  591TIP3   OH223407   6.287   4.840   3.499 -0.6625 -0.0262  0.2216
  591TIP3    H123408   6.208   4.866   3.547 -0.7992 -2.8899  1.7702
  591TIP3    H223409   6.255   4.780   3.431  0.0750 -0.6181  0.3877
  592TIP3   OH223410   1.743   5.307   2.547 -0.2080 -0.0653  0.1709
  592TIP3    H123411   1.749   5.261   2.463  0.7372 -0.0764  0.2375
  592TIP3    H223412   1.649   5.310   2.565 -0.3352 -1.5894 -0.0493
  593TIP3   OH223413   3.088   2.761   1.187  0.5592  1.0086  0.2442
  593TIP3    H123414   3.042   2.833   1.143  0.5745  1.2794  0.6608
  593TIP3    H223415   3.080   2.687   1.127  0.6523  1.3903 -0.2518
  594TIP3   OH223416   1.970   6.007   1.261 -0.0979 -0.5520 -0.0283
  594TIP3    H123417   2.052   6.034   1.303 -0.6511 -0.6133  1.1502
  594TIP3    H223418   1.939   6.085   1.216  0.7090 -0.5916 -0.6811
  595TIP3   OH223419   1.856   0.695   1.110  0.5718  0.1559  0.1188
  595TIP3    H123420   1.910   0.634   1.160 -0.6668 -1.0081  0.0828
  595TIP3    H223421   1.906   0.777   1.111  1.5842 -0.4343  1.4100
  596TIP3   OH223422   5.032   6.250   1.959 -0.3311 -1.3455  0.0753
  596TIP3    H123423   4.952   6.298   1.979 -0.0359 -1.5785  2.0014
  596TIP3    H223424   5.019   6.164   1.997  0.7682 -1.4249  0.3281
  597TIP3   OH223425   3.194   2.145   2.189 -0.5907  0.6734  0.1113
  597TIP3    H123426   3.132   2.083   2.151 -0.3141  0.6120 -0.2417
  597TIP3    H223427   3.280   2.111   2.164 -0.3654  0.1311  1.5334
  598TIP3   OH223428   6.618   0.241   1.081  0.3931 -0.2222 -1.1843
  598TIP3    H123429   6.591   0.261   1.171  0.4199  0.3707 -1.3020
  598TIP3    H223430   6.699   0.291   1.070  0.3983 -0.3097 -1.5329
  599TIP3   OH223431   6.649   2.725   3.301  0.5765 -0.1925 -0.8922
  599TIP3    H123432   6.714   2.669   3.260  1.6779  2.2563 -2.7385
  599TIP3    H223433   6.682   2.814   3.288 -2.6333  1.1215 -1.0315
  600TIP3   OH223434   0.277   1.757   0.515  0.3417 -0.1799  0.3748
  600TIP3    H123435   0.364   1.779   0.481  0.6350  1.4840  2.0232
  600TIP3    H223436   0.225   1.836   0.498 -0.1078 -0.1632  1.7365
  601TIP3   OH223437   4.711   3.676   2.288  0.1808 -0.0339  0.7951
  601TIP3    H123438   4.618   3.698   2.290  0.4032  0.9516  0.4182
  601TIP3    H223439   4.752   3.744   2.235  1.1167 -0.4787  0.9163
  602TIP3   OH223440   3.107   4.590   1.625 -0.5456 -0.3618  0.2462
  602TIP3    H123441   3.108   4.673   1.579 -0.1495  0.6900  2.0683
  602TIP3    H223442   3.134   4.526   1.559  1.0793  1.2101 -0.7022
  603TIP3   OH223443   4.440   3.154   0.143 -0.7010 -0.2754  0.1903
  603TIP3    H123444   4.522   3.105   0.143 -0.9670 -0.7639  1.3953
  603TIP3    H223445   4.391   3.118   0.217 -1.6148  0.6411  0.0490
  604TIP3   OH223446   3.325   4.440   3.143  0.2422 -0.3596 -0.7926
  604TIP3    H123447   3.309   4.465   3.052 -2.6114  0.0005 -0.2701
  604TIP3    H223448   3.251   4.475   3.191  0.0359 -3.2231  1.2152
  605TIP3   OH223449   0.201   4.696   1.340 -0.4017 -0.1602  0.1247
  605TIP3    H123450   0.167   4.619   1.294  0.2761 -0.6919  0.4967
  605TIP3    H223451   0.143   4.706   1.415  0.6948 -1.5677  1.2190
  606TIP3   OH223452   4.927   1.730   3.403  0.0857  0.3767 -0.3758
  606TIP3    H123453   4.877   1.811   3.409  0.0600  0.3961 -0.8118
  606TIP3    H223454   5.006   1.747   3.454 -0.0595  0.5704 -0.2137
  607TIP3   OH223455   4.412   4.057   1.524 -0.0940  0.7446  0.0134
  607TIP3    H123456   4.349   4.026   1.458  0.8038  0.5889 -0.7922
  607TIP3    H223457   4.496   4.021   1.495  0.4423  1.3383  0.8136
  608TIP3   OH223458   4.115   3.962   2.143 -0.3609 -0.2738 -0.0646
  608TIP3    H123459   4.157   3.906   2.207 -0.6469 -0.0475  0.3301
  608TIP3    H223460   4.027   3.977   2.178 -0.2044  0.6340 -0.0154
  609TIP3   OH223461   1.951   2.761   1.947  0.1981 -0.0101  0.2450
  609TIP3    H123462   1.988   2.848   1.962 -1.0445  0.2230  2.2128
  609TIP3    H223463   1.900   2.742   2.025 -0.5447 -2.0238 -0.6548
  610TIP3   OH223464   3.732   2.663   1.142 -0.3191 -0.3687  0.0753
  610TIP3    H123465   3.810   2.715   1.122 -1.0247  1.1777  1.1024
  610TIP3    H223466   3.764   2.573   1.151  1.4206  0.2853  0.8713
  611TIP3   OH223467   3.987   0.015   1.398 -0.3258 -0.2818  0.7731
  611TIP3    H123468   4.053  -0.050   1.372 -0.4725 -0.3484  0.5656
  611TIP3    H223469   4.034   0.099   1.394 -0.1792 -0.3569  0.8888
  612TIP3   OH223470   5.673   5.879   3.572 -0.4283 -0.2511  0.1482
  612TIP3    H123471   5.598   5.932   3.544 -0.9358  0.0510  1.9701
  612TIP3    H223472   5.748   5.938   3.565 -0.9982  0.7787  2.2177
  613TIP3   OH223473   4.262   1.778   1.409 -0.4851 -0.2684 -0.2033
  613TIP3    H123474   4.320   1.842   1.368  0.8418 -2.4190 -1.9238
  613TIP3    H223475   4.205   1.748   1.338 -1.7534 -0.3446  0.7972
  614TIP3   OH223476   2.213   1.670   1.697  0.1354  0.2799 -0.3692
  614TIP3    H123477   2.191   1.698   1.608 -1.6578  0.1627  0.0103
  614TIP3    H223478   2.235   1.752   1.742 -0.8617  0.5943 -0.4207
  615TIP3   OH223479   0.805   0.292   2.170 -0.2162  0.1680  0.5522
  615TIP3    H123480   0.775   0.303   2.079 -2.2278 -1.8685  0.8688
  615TIP3    H223481   0.882   0.349   2.177  0.4606 -0.1486 -2.6277
  616TIP3   OH223482   5.309   0.365   3.891 -0.5269 -0.2313 -0.2075
  616TIP3    H123483   5.250   0.428   3.933  0.8863  1.4096 -0.5758
  616TIP3    H223484   5.340   0.310   3.963 -1.4979 -0.2794  0.1861
  617TIP3   OH223485   2.564   4.918   3.705  0.2607 -0.3505  0.0738
  617TIP3    H123486   2.630   4.960   3.651 -0.4186 -1.7871 -1.9785
  617TIP3    H223487   2.604   4.836   3.733  0.2867 -0.0106  1.0796
  618TIP3   OH223488   6.407   3.969   1.021  0.2732  0.1428  0.0712
  618TIP3    H123489   6.488   3.968   0.971 -0.5627 -1.4906 -1.3558
  618TIP3    H223490   6.339   3.985   0.955 -0.7622 -0.9496  0.8372
  619TIP3   OH223491   0.406   0.154   1.300  0.6099  0.3187 -0.5728
  619TIP3    H123492   0.331   0.140   1.359  0.6860 -2.0863 -0.9272
  619TIP3    H223493   0.367   0.157   1.212  0.8630 -0.8023 -0.7466
  620TIP3   OH223494   1.286   1.071   2.583  0.0469  0.4167  0.4484
  620TIP3    H123495   1.282   1.155   2.536  3.1152 -0.2183 -1.1842
  620TIP3    H223496   1.363   1.078   2.639  0.0132 -1.1354  0.7293
  621TIP3   OH223497   3.607   1.789   3.080  0.2320 -0.1089  0.0778
  621TIP3    H123498   3.582   1.859   3.141  0.5722 -1.0127  1.2946
  621TIP3    H223499   3.703   1.789   3.081  0.2556  0.2299 -0.9120
  622TIP3   OH223500   0.542   1.026   8.125  0.0256 -0.1094  0.2741
  622TIP3    H123501   0.502   0.993   8.206  0.2050  1.2712  0.9531
  622TIP3    H223502   0.477   1.087   8.089 -0.1231 -0.8325 -0.7337
  623TIP3   OH223503   5.462   5.635   3.303  0.1333  0.3920 -0.2946
  623TIP3    H123504   5.390   5.582   3.268  0.3251  0.3910 -0.6896
  623TIP3    H223505   5.425   5.677   3.381  0.0358 -0.4858  0.1486
  624TIP3   OH223506   6.106   5.705   3.394 -0.2567  0.2171 -0.0327
  624TIP3    H123507   6.015   5.675   3.396 -0.5053  0.6737 -2.2233
  624TIP3    H223508   6.105   5.789   3.440 -1.1229  0.5901 -0.7096
  625TIP3   OH223509   3.143   4.672   0.900  0.6164  0.2005  0.4582
  625TIP3    H123510   3.142   4.580   0.927  1.3671 -0.4286 -1.4824
  625TIP3    H223511   3.234   4.689   0.877  0.1180  0.7935 -1.1762
  626TIP3   OH223512   2.838   4.194   1.708 -0.0039  0.0240 -0.2697
  626TIP3    H123513   2.869   4.143   1.784  2.0702  0.2287 -0.9124
  626TIP3    H223514   2.886   4.277   1.714 -0.6758  0.4946 -1.1934
  627TIP3   OH223515   0.986   5.552   3.218  0.6991 -0.0192 -0.1483
  627TIP3    H123516   0.926   5.569   3.146 -1.5472  1.5842  1.9087
  627TIP3    H223517   0.985   5.634   3.269  0.8137 -1.5740  2.5620
  628TIP3   OH223518   4.860   2.485   0.775 -0.0457  0.0833  0.4093
  628TIP3    H123519   4.782   2.446   0.813 -0.2579 -0.0435 -0.1367
  628TIP3    H223520   4.912   2.411   0.744 -0.3119  0.2023 -0.3657
  629TIP3   OH223521   0.404   3.815   2.303  0.5017  0.1316  0.3347
  629TIP3    H123522   0.495   3.843   2.294  0.1043  1.2472 -0.4281
  629TIP3    H223523   0.363   3.838   2.219 -0.4501 -0.4981  0.6034
  630TIP3   OH223524   2.585   2.519   1.155 -0.0118 -0.1839  0.1098
  630TIP3    H123525   2.527   2.442   1.154 -1.3853  0.8215 -0.8612
  630TIP3    H223526   2.532   2.589   1.117  1.5431  1.0181  0.0920
  631TIP3   OH223527   2.775   0.651   1.601 -0.1972  0.2209  0.2433
  631TIP3    H123528   2.778   0.694   1.515 -2.8225 -0.1160 -0.0905
  631TIP3    H223529   2.720   0.708   1.654 -2.5026 -1.8397  0.2362
  632TIP3   OH223530   6.842   4.607   3.343  0.4450  0.3099 -0.2414
  632TIP3    H123531   6.923   4.556   3.341  0.3616 -0.0370  2.2285
  632TIP3    H223532   6.868   4.695   3.316  1.1883 -0.2781 -1.5598
  633TIP3   OH223533   3.257   0.476   3.172  0.4810  0.6636  0.4358
  633TIP3    H123534   3.302   0.557   3.146  0.3203  0.5793 -0.1248
  633TIP3    H223535   3.303   0.407   3.125  0.5986  0.4286  0.8947
  634TIP3   OH223536   0.120   4.262   3.879  0.1542  0.6021 -0.5837
  634TIP3    H123537   0.129   4.173   3.912 -0.9663  0.8199  0.3878
  634TIP3    H223538   0.138   4.256   3.785  1.5635 -0.3713 -0.2745
  635TIP3   OH223539   3.832   2.804   1.904 -0.0806  0.5805  0.6272
  635TIP3    H123540   3.771   2.753   1.958 -1.3167 -0.2600 -1.4318
  635TIP3    H223541   3.782   2.881   1.878  0.4550  0.9245  0.6069
  636TIP3   OH223542   2.504   2.983   8.146  0.6793 -0.3574  0.2800
  636TIP3    H123543   2.547   2.932   8.078  0.7431 -0.1679  0.1778
  636TIP3    H223544   2.426   2.931   8.169 -0.0260  0.1754 -0.8238
  637TIP3   OH223545   0.353   1.620   3.534 -0.4260  0.1669  0.5217
  637TIP3    H123546   0.409   1.613   3.456  1.6031  1.9049  1.7103
  637TIP3    H223547   0.267   1.645   3.500  0.2785  0.4043 -1.1970
  638TIP3   OH223548   1.730   0.969   0.270 -0.2503 -0.5621 -0.2583
  638TIP3    H123549   1.651   0.971   0.324 -0.3003  0.3233 -0.3619
  638TIP3    H223550   1.738   1.057   0.235  0.7601 -0.6528 -0.2941
  639TIP3   OH223551   0.544   3.884   3.020 -0.5475 -0.0813  0.1333
  639TIP3    H123552   0.556   3.796   3.055  0.6302  0.1690  0.3839
  639TIP3    H223553   0.624   3.901   2.971 -0.6382  0.9630  0.3365
  640TIP3   OH223554   3.311   4.764   3.102  0.1374  0.3897 -0.2372
  640TIP3    H123555   3.342   4.702   3.036  0.1339  2.2130 -2.0156
  640TIP3    H223556   3.341   4.849   3.072 -0.4332  1.3811  1.8012
  641TIP3   OH223557   4.089   0.510   4.596  0.4136 -0.3418 -0.4043
  641TIP3    H123558   4.080   0.494   4.689 -0.4441  1.4596 -0.1138
  641TIP3    H223559   4.182   0.524   4.582  0.6916 -1.7785 -0.0463
  642TIP3   OH223560   4.365   4.737   0.878  0.0385 -0.8738  0.3969
  642TIP3    H123561   4.427   4.702   0.814  1.1416 -0.4656  1.2143
  642TIP3    H223562   4.309   4.797   0.827  0.9391 -0.5025 -0.1790
  643TIP3   OH223563   2.411   3.722   2.338  0.3803  0.0752  0.2170
  643TIP3    H123564   2.400   3.638   2.294  0.4421 -0.1006  0.5397
  643TIP3    H223565   2.327   3.738   2.381  0.5522 -0.0931  0.6240
  644TIP3   OH223566   4.353   6.891   0.073 -0.6603 -0.1935 -0.2539
  644TIP3    H123567   4.313   6.893  -0.013 -0.0420  2.0283 -0.5391
  644TIP3    H223568   4.442   6.859   0.058 -0.4159  0.6011 -0.5097
  645TIP3   OH223569   0.828   3.455   8.582 -0.1083 -0.0634 -0.2292
  645TIP3    H123570   0.807   3.499   8.500 -2.3226  1.0456  0.8414
  645TIP3    H223571   0.743   3.438   8.622  0.8877 -1.2735  1.4918
  646TIP3   OH223572   1.889   2.015   2.512 -0.9582 -0.9903 -0.4324
  646TIP3    H123573   1.917   2.022   2.603 -1.8649  0.7246 -0.2360
  646TIP3    H223574   1.911   1.925   2.486 -0.0852 -1.2948  1.2587
  647TIP3   OH223575   0.379   3.095   0.078 -0.0525 -0.1534  0.0241
  647TIP3    H123576   0.288   3.070   0.066 -0.1030  0.0985 -0.1306
  647TIP3    H223577   0.406   3.129  -0.007  0.6651 -1.6958 -0.3899
  648TIP3   OH223578   6.650   0.803   3.001  0.1439 -0.2194 -0.1003
  648TIP3    H123579   6.670   0.880   2.947 -0.0362 -0.4974 -0.5703
  648TIP3    H223580   6.691   0.730   2.955 -0.5699 -0.5561 -0.2145
  649TIP3   OH223581   4.320   5.644   2.982 -0.1885  0.7720 -0.3060
  649TIP3    H123582   4.231   5.621   2.956 -0.1345 -0.2214  0.3544
  649TIP3    H223583   4.361   5.674   2.901 -1.2169  1.5862 -0.5555
  650TIP3   OH223584   5.416   4.261   1.328 -0.2430 -0.0529 -0.4711
  650TIP3    H123585   5.381   4.200   1.393  0.1235  1.5307  1.3063
  650TIP3    H223586   5.345   4.324   1.314  0.1189  0.3125 -0.6873
  651TIP3   OH223587   5.657   5.774   3.200  0.1519  0.2889 -0.2281
  651TIP3    H123588   5.589   5.709   3.219  1.3568 -0.8392  0.3267
  651TIP3    H223589   5.617   5.857   3.225 -0.9100 -0.3872  0.4186
  652TIP3   OH223590   6.830   4.235   3.011 -0.1433 -0.4184  0.3125
  652TIP3    H123591   6.833   4.276   3.097  0.1433 -1.5366  0.8641
  652TIP3    H223592   6.737   4.218   2.995 -0.0932 -1.4955  1.0632
  653TIP3   OH223593   1.357   3.644   3.430 -0.2597 -0.2473 -0.3549
  653TIP3    H123594   1.264   3.625   3.421 -0.2234  0.0471 -1.5674
  653TIP3    H223595   1.386   3.667   3.341  0.7318  0.7565  0.1940
  654TIP3   OH223596   1.058   3.001   1.035  0.4787  0.4650 -0.0073
  654TIP3    H123597   1.117   2.930   1.059  1.6836  1.6449  0.6420
  654TIP3    H223598   1.047   3.052   1.115 -2.7511 -0.5708  0.3567
  655TIP3   OH223599   5.448   4.110   2.431  0.2052  0.1025  0.0337
  655TIP3    H123600   5.524   4.073   2.476 -0.8989 -1.7049  0.5130
  655TIP3    H223601   5.423   4.186   2.484  0.1952 -0.7556  1.2839
  656TIP3   OH223602   4.373   3.717   3.989  0.1868  0.1702 -0.2142
  656TIP3    H123603   4.419   3.731   4.071  0.9012 -1.4502 -0.2895
  656TIP3    H223604   4.300   3.660   4.011 -1.4631  2.1608 -0.2223
  657TIP3   OH223605   2.975   5.883   2.255  0.2621  0.1146 -0.3668
  657TIP3    H123606   3.051   5.935   2.229  1.4356 -1.1780  0.3445
  657TIP3    H223607   2.911   5.897   2.185  1.4973  0.5212 -1.4588
  658TIP3   OH223608   0.525   1.705   8.475 -0.5079 -0.1437 -0.4334
  658TIP3    H123609   0.521   1.801   8.470  0.8535 -0.0691 -0.5101
  658TIP3    H223610   0.485   1.675   8.394 -1.3579  0.3342 -0.2086
  659TIP3   OH223611   0.120   1.490   2.641 -0.1311 -0.0406  0.1172
  659TIP3    H123612   0.087   1.419   2.585 -0.5584  0.1548  0.1164
  659TIP3    H223613   0.190   1.449   2.692 -0.6433 -0.5752  0.4117
  660TIP3   OH223614   2.272   0.725   3.640  0.2907  0.6230 -0.1882
  660TIP3    H123615   2.345   0.683   3.595 -0.0454  0.2864 -0.4214
  660TIP3    H223616   2.285   0.704   3.732  1.9721  2.7648  0.1541
  661TIP3   OH223617   0.978   6.300   0.660  0.0505  0.2640 -0.6630
  661TIP3    H123618   0.999   6.222   0.712  0.2587  0.9065  0.2437
  661TIP3    H223619   1.064   6.335   0.635 -0.0129  0.8593 -0.0589
  662TIP3   OH223620   3.349   1.874   1.861  0.3840  0.1304 -0.1103
  662TIP3    H123621   3.260   1.862   1.828  0.2735 -1.2755  0.5901
  662TIP3    H223622   3.402   1.890   1.783 -0.0922 -1.5887 -0.8302
  663TIP3   OH223623   2.705   2.192   0.175 -0.1152  0.1592  0.0415
  663TIP3    H123624   2.761   2.164   0.103 -0.3966  0.2861 -0.2322
  663TIP3    H223625   2.685   2.111   0.223 -1.7462 -0.3162 -1.3242
  664TIP3   OH223626   5.965   0.046   0.051 -0.2081  0.3201 -0.0305
  664TIP3    H123627   5.875   0.013   0.048  0.4335 -1.5398 -0.5413
  664TIP3    H223628   6.019  -0.031   0.032  1.5293  1.2620  0.8460
  665TIP3   OH223629   0.273   3.650   4.268 -0.2376 -0.2141  0.5188
  665TIP3    H123630   0.360   3.629   4.235 -0.2595  0.1878  0.2075
  665TIP3    H223631   0.240   3.718   4.210 -0.9093 -0.6217  0.4023
  666TIP3   OH223632   4.165   2.988   0.145  0.0878 -0.4699  0.5436
  666TIP3    H123633   4.255   3.014   0.129  0.0752  0.0298  1.2265
  666TIP3    H223634   4.169   2.930   0.220 -0.1946 -0.1345  0.8242
  667TIP3   OH223635   3.663   5.621   2.391 -0.1279  0.3529  0.4564
  667TIP3    H123636   3.708   5.569   2.457  2.2751  0.7179 -0.7756
  667TIP3    H223637   3.664   5.566   2.312 -1.2179  0.6911  0.1808
  668TIP3   OH223638   3.661   0.604   0.718  0.6961  0.4868 -0.3699
  668TIP3    H123639   3.657   0.580   0.626  0.9973  0.4134 -0.3661
  668TIP3    H223640   3.740   0.561   0.751 -0.6957 -1.5128  0.5365
  669TIP3   OH223641   5.957   0.680   2.747  0.3515 -0.2645  0.4309
  669TIP3    H123642   6.015   0.739   2.796 -0.0671 -1.1632  2.0552
  669TIP3    H223643   5.905   0.738   2.692  3.6708  0.5588 -2.2291
  670TIP3   OH223644   6.370   1.303   3.013  0.3443  0.5195 -0.1324
  670TIP3    H123645   6.432   1.235   2.989 -0.0327  0.1629 -0.1046
  670TIP3    H223646   6.328   1.326   2.930 -0.8945 -0.6488  0.1344
  671TIP3   OH223647   6.268   6.384   2.333 -0.0627  0.3331 -0.2652
  671TIP3    H123648   6.228   6.465   2.365 -0.4656 -0.0896  0.3026
  671TIP3    H223649   6.359   6.389   2.363  0.2870  1.1984 -1.3844
  672TIP3   OH223650   4.045   0.269   0.288  0.0216 -0.0030  0.1752
  672TIP3    H123651   3.955   0.271   0.255  0.0345  0.9041  0.1753
  672TIP3    H223652   4.036   0.271   0.383  0.0428  1.7114  0.1787
  673TIP3   OH223653   4.586   1.175   1.428 -0.1500 -0.1811 -0.3707
  673TIP3    H123654   4.613   1.083   1.431  1.5707  0.3154  1.2295
  673TIP3    H223655   4.655   1.222   1.476 -1.3791  1.8572 -0.4874
  674TIP3   OH223656   6.367   1.715   8.485 -0.3566 -0.4824  0.1312
  674TIP3    H123657   6.272   1.721   8.470 -0.3277  0.8793  0.3770
  674TIP3    H223658   6.406   1.751   8.405 -0.0621 -0.5102  0.2610
  675TIP3   OH223659   2.607   2.974   2.611  0.1280  0.2369  0.4351
  675TIP3    H123660   2.575   3.045   2.666  1.3183  1.1052  0.0438
  675TIP3    H223661   2.655   2.917   2.672  0.7015  0.7324  0.4568
  676TIP3   OH223662   6.754   1.418   0.198  0.0430  0.2261 -0.0989
  676TIP3    H123663   6.687   1.390   0.136  0.6005  0.5682 -0.8774
  676TIP3    H223664   6.707   1.467   0.265 -0.5624 -0.0956 -0.2874
  677TIP3   OH223665   0.301   5.688   3.552 -0.1063 -0.3418 -0.2466
  677TIP3    H123666   0.243   5.625   3.510 -1.2641  0.3445  0.2688
  677TIP3    H223667   0.242   5.753   3.589  1.0471  0.9002 -0.5270
  678TIP3   OH223668   5.629   6.016   0.332  0.2178  0.2065  0.0550
  678TIP3    H123669   5.699   6.006   0.397  0.1970 -1.7879 -0.1829
  678TIP3    H223670   5.551   6.032   0.385  0.3629 -0.4518  0.4789
  679TIP3   OH223671   6.625   0.625   1.627  0.5166  0.3998 -0.2121
  679TIP3    H123672   6.595   0.686   1.559  0.9086  1.4264  0.4933
  679TIP3    H223673   6.708   0.591   1.593  1.0486  1.4123  0.0036
  680TIP3   OH223674   3.681   5.081   8.086 -0.2544 -0.1133  0.0614
  680TIP3    H123675   3.770   5.064   8.056 -0.2237 -0.5051  0.3727
  680TIP3    H223676   3.692   5.122   8.172 -0.3777 -0.2476  0.1413
  681TIP3   OH223677   5.559   1.572   3.474 -0.3546 -0.7024  0.4346
  681TIP3    H123678   5.565   1.666   3.459  1.2074 -0.4379  2.4073
  681TIP3    H223679   5.472   1.560   3.513 -0.6818 -0.1309 -0.0961
  682TIP3   OH223680   1.520   5.467   0.583  0.7765 -0.1792 -0.0234
  682TIP3    H123681   1.608   5.430   0.570  0.5310 -1.0365  0.6728
  682TIP3    H223682   1.500   5.449   0.675  0.8836  2.2402  0.5432
  683TIP3   OH223683   0.968   1.310   1.866  0.4299  0.1865  0.4984
  683TIP3    H123684   0.963   1.388   1.810 -0.6194 -0.4954 -0.3909
  683TIP3    H223685   0.910   1.330   1.940  0.4143  0.3675  0.4369
  684TIP3   OH223686   6.924   6.025   0.915  0.0062  0.0395 -0.3701
  684TIP3    H123687   7.013   6.057   0.901  0.4330 -0.5623  0.7613
  684TIP3    H223688   6.890   6.079   0.987  0.3569 -1.2750  0.8355
  685TIP3   OH223689   0.910   1.725   2.452  0.1988  0.1746 -0.5777
  685TIP3    H123690   0.908   1.802   2.510 -0.6591  0.1215 -0.5292
  685TIP3    H223691   0.852   1.749   2.380  1.2665  0.2448 -1.4427
  686TIP3   OH223692   5.386   2.446   8.436 -0.0266 -0.7645 -0.0533
  686TIP3    H123693   5.364   2.365   8.389  0.4139 -0.2159 -1.2430
  686TIP3    H223694   5.304   2.472   8.478 -0.4759 -1.1994 -0.6405
  687TIP3   OH223695   6.666   5.351   1.505 -0.4818  0.1340  0.1906
  687TIP3    H123696   6.661   5.276   1.446 -1.8374  0.8931 -0.6995
  687TIP3    H223697   6.755   5.347   1.540  1.4509  1.1938 -3.9896
  688TIP3   OH223698   5.371   0.167   0.937  0.1023 -0.5706  0.2374
  688TIP3    H123699   5.277   0.159   0.954 -0.0916  0.0081 -0.4819
  688TIP3    H223700   5.376   0.180   0.842  0.8455  0.2478  0.3800
  689TIP3   OH223701   3.645   5.708   1.493 -0.1822  0.4349  0.3609
  689TIP3    H123702   3.728   5.753   1.504  1.3187 -2.0528  0.0309
  689TIP3    H223703   3.642   5.686   1.400 -0.4005 -0.9356  0.6767
  690TIP3   OH223704   3.080   6.613   1.806 -0.3787 -0.1952 -0.4696
  690TIP3    H123705   3.163   6.630   1.762  0.9845 -0.5766  1.8101
  690TIP3    H223706   3.091   6.528   1.847 -1.0963  0.6145  1.5343
  691TIP3   OH223707   3.408   6.663   1.077  0.0876  0.5778 -0.4237
  691TIP3    H123708   3.479   6.704   1.126  0.5928 -0.7089 -0.0341
  691TIP3    H223709   3.359   6.736   1.040  3.4241  1.6003 -3.3909
  692TIP3   OH223710   3.911   1.179   2.678  0.1924  0.2633 -0.4186
  692TIP3    H123711   3.853   1.139   2.613  1.9108 -0.7442 -1.3877
  692TIP3    H223712   3.991   1.128   2.675  1.1085  1.5014  1.0152
  693TIP3   OH223713   4.896   4.623   3.558  0.4179  0.5613  0.3701
  693TIP3    H123714   4.830   4.561   3.591 -0.0413  0.5337 -0.5735
  693TIP3    H223715   4.872   4.706   3.598  0.9210  0.1961  1.4900
  694TIP3   OH223716   0.342   1.799   2.443  0.0953  0.7683  0.3767
  694TIP3    H123717   0.294   1.811   2.362  1.1794 -2.5869 -0.9634
  694TIP3    H223718   0.434   1.813   2.418  0.3833  0.3505  1.1737
  695TIP3   OH223719   3.166   0.522   0.655 -0.1811  0.2874 -0.2430
  695TIP3    H123720   3.105   0.593   0.633 -0.0862  0.8734  1.2484
  695TIP3    H223721   3.243   0.567   0.691  0.5078 -0.5186 -0.6657
  696TIP3   OH223722   5.934   6.145   1.318 -0.1364  0.0274  0.1938
  696TIP3    H123723   5.963   6.231   1.350 -2.1974  1.4730 -1.5794
  696TIP3    H223724   6.009   6.113   1.267  0.3113  1.2545  0.0345
  697TIP3   OH223725   3.758   2.447   2.522 -0.1982 -0.1072 -0.3589
  697TIP3    H123726   3.727   2.495   2.445 -0.7668  1.1417  0.6047
  697TIP3    H223727   3.786   2.516   2.583  2.2070 -1.1120 -0.2320
  698TIP3   OH223728   4.494   2.383   1.285 -0.3312  0.1876  0.5829
  698TIP3    H123729   4.484   2.294   1.251  0.1075  0.4719 -0.3203
  698TIP3    H223730   4.464   2.377   1.375  0.0407 -0.9629  0.6508
  699TIP3   OH223731   4.151   5.125   8.426  0.3768 -0.3974 -0.1674
  699TIP3    H123732   4.065   5.167   8.435  0.7755  0.0653  2.1546
  699TIP3    H223733   4.132   5.039   8.388 -0.8500  0.4802 -1.6280
  700TIP3   OH223734   6.757   4.909   0.948 -0.1691 -0.0173 -0.3126
  700TIP3    H123735   6.718   4.849   0.884 -1.4645 -0.4610  0.8357
  700TIP3    H223736   6.791   4.982   0.895 -0.5252 -0.7201 -1.5543
  701TIP3   OH223737   6.630   1.806   0.338 -0.3898 -0.5069  0.2802
  701TIP3    H123738   6.643   1.798   0.243  2.9360 -0.6439  0.6234
  701TIP3    H223739   6.672   1.729   0.374 -1.2033 -0.2197  1.9364
  702TIP3   OH223740   1.513   0.142   0.343  0.0713  0.5960  0.5197
  702TIP3    H123741   1.540   0.064   0.293  0.8084  0.3916  1.2112
  702TIP3    H223742   1.536   0.122   0.433 -1.3603  0.9214  0.9800
  703TIP3   OH223743   2.997   3.501   0.195  0.2096 -0.3860  0.5811
  703TIP3    H123744   3.008   3.451   0.275 -0.5758 -0.5810  0.5740
  703TIP3    H223745   2.941   3.575   0.220  1.5255  0.6417  0.6481
  704TIP3   OH223746   5.320   3.112   2.303 -0.1581 -0.3006  0.3370
  704TIP3    H123747   5.248   3.124   2.241  1.0808  1.6879 -0.8254
  704TIP3    H223748   5.280   3.067   2.377 -2.4402  0.1365 -0.5388
  705TIP3   OH223749   0.975   2.469   0.001 -0.0715  0.0839  0.0843
  705TIP3    H123750   1.038   2.397   0.003  0.5947  0.5727 -1.5382
  705TIP3    H223751   1.026   2.545   0.028 -1.1325 -0.1950  3.3159
  706TIP3   OH223752   6.773   5.496   2.186 -0.3080 -0.0906 -0.2237
  706TIP3    H123753   6.868   5.499   2.176 -0.2872  0.6988  0.1692
  706TIP3    H223754   6.747   5.414   2.143  0.5293 -0.2422 -0.4546
  707TIP3   OH223755   6.251   1.731   2.473  0.0455  0.1865 -0.1692
  707TIP3    H123756   6.170   1.684   2.492  1.0818 -1.6570 -0.0365
  707TIP3    H223757   6.233   1.822   2.497 -1.7617 -0.3060  0.4750
  708TIP3   OH223758   5.084   3.278   1.364 -0.0860 -0.2683  0.0352
  708TIP3    H123759   5.120   3.324   1.440 -1.0826 -1.1256  1.0691
  708TIP3    H223760   5.103   3.186   1.380 -2.3393 -0.7268  0.4763
  709TIP3   OH223761   4.751   1.957   2.597  0.4110  0.8671  0.3070
  709TIP3    H123762   4.675   1.960   2.540  0.5097 -2.4628 -0.1690
  709TIP3    H223763   4.826   1.948   2.537  0.5922 -1.7563  0.8256
  710TIP3   OH223764   2.247   6.695   0.169  0.1420  0.0954  0.2336
  710TIP3    H123765   2.299   6.723   0.244  1.4935 -1.4773 -0.0563
  710TIP3    H223766   2.297   6.724   0.093 -0.3670  0.2064 -0.0627
  711TIP3   OH223767   3.978   6.355   3.846  0.7084 -0.2853  0.5436
  711TIP3    H123768   3.961   6.327   3.935 -0.3529  0.4087  0.5827
  711TIP3    H223769   3.969   6.276   3.793  1.0537 -0.6432  1.0210
  712TIP3   OH223770   4.910   2.971   0.550  0.3607  0.3541  0.7571
  712TIP3    H123771   4.881   2.897   0.604 -0.1440  0.4176  0.5791
  712TIP3    H223772   4.832   3.026   0.541 -0.5808 -1.2763 -2.8181
  713TIP3   OH223773   4.060   4.067   0.568 -0.1130 -0.3918  0.3984
  713TIP3    H123774   4.019   4.125   0.633 -0.4325  0.0469 -0.1826
  713TIP3    H223775   4.121   4.014   0.619 -1.2308 -0.8992  1.2481
  714TIP3   OH223776   0.991   3.568   3.679 -0.1165  0.1796  0.1408
  714TIP3    H123777   1.066   3.557   3.738  0.6729  1.6205 -0.5362
  714TIP3    H223778   0.930   3.623   3.729 -0.3424 -0.2684  0.3622
  715TIP3   OH223779   4.367   3.047   1.905 -0.1762  0.2226  0.2112
  715TIP3    H123780   4.288   3.007   1.942 -0.0638 -0.1129  0.0910
  715TIP3    H223781   4.375   3.008   1.818 -0.2744  0.7904 -0.0630
  716TIP3   OH223782   3.871   0.647   3.074  0.1124 -0.1400 -0.4775
  716TIP3    H123783   3.916   0.563   3.067 -0.3539 -0.3559 -0.9259
  716TIP3    H223784   3.895   0.679   3.162 -0.3073 -1.0931  0.0025
  717TIP3   OH223785   0.857   4.817   3.571  0.3586 -0.7978 -0.9525
  717TIP3    H123786   0.894   4.748   3.625  1.2974 -0.2233 -0.8382
  717TIP3    H223787   0.932   4.858   3.529 -0.1550  0.3014 -0.8425
  718TIP3   OH223788   6.037   0.147   8.149 -0.3937  0.2017  0.3707
  718TIP3    H123789   6.107   0.156   8.214 -2.8480  1.3158  3.0625
  718TIP3    H223790   6.001   0.235   8.139 -3.8509 -0.8163  2.1613
  719TIP3   OH223791   5.102   5.057   0.860  0.3197 -0.2402  0.1123
  719TIP3    H123792   5.108   5.087   0.951 -0.6651  0.9488 -0.1876
  719TIP3    H223793   5.041   4.983   0.863  1.2612 -1.0152  0.5840
  720TIP3   OH223794   2.850   2.668   3.318 -0.6597 -0.0288 -0.4999
  720TIP3    H123795   2.904   2.625   3.251  0.4782  0.3869  0.1224
  720TIP3    H223796   2.913   2.719   3.370 -1.6086  0.1398  0.5081
  721TIP3   OH223797   0.629   4.159   3.724  0.2733 -0.6538  0.3944
  721TIP3    H123798   0.655   4.088   3.782  0.4838 -0.9285 -0.0277
  721TIP3    H223799   0.547   4.129   3.684  0.5693 -0.8398 -0.0851
  722TIP3   OH223800   2.817   1.778   1.657  0.2097 -0.3005 -0.7364
  722TIP3    H123801   2.793   1.863   1.621  0.4056 -0.2308 -0.7026
  722TIP3    H223802   2.734   1.730   1.663 -0.0229  0.1849  0.0358
  723TIP3   OH223803   2.202   6.150   0.620  0.2950 -0.3295  0.2725
  723TIP3    H123804   2.157   6.234   0.635 -0.1246 -0.5951  0.5459
  723TIP3    H223805   2.206   6.141   0.525 -0.5539 -0.4579  0.2357
  724TIP3   OH223806   6.863   4.078   2.777 -0.5847  0.5326  0.4682
  724TIP3    H123807   6.814   4.000   2.804 -0.4374  0.5426  0.7668
  724TIP3    H223808   6.879   4.126   2.859  0.5763  0.1554  0.4715
  725TIP3   OH223809   0.743   0.258   2.425  0.6207 -0.2813  0.1595
  725TIP3    H123810   0.755   0.259   2.330  0.0400  0.6068  0.0832
  725TIP3    H223811   0.824   0.218   2.459  1.5696  0.8910 -0.6205
  726TIP3   OH223812   2.688   6.815   2.296 -0.2261  0.0511 -0.0093
  726TIP3    H123813   2.651   6.773   2.373  0.1871  1.1954  0.8390
  726TIP3    H223814   2.782   6.793   2.300 -0.2287 -0.0093 -0.2661
  727TIP3   OH223815   0.256   0.011   7.634  0.1933 -0.3184  0.5452
  727TIP3    H123816   0.351   0.007   7.643  0.6326  2.3809 -1.6777
  727TIP3    H223817   0.234   0.102   7.653 -2.0173 -0.8832  1.0428
  728TIP3   OH223818   3.150   3.849   1.399  0.1958 -0.2026  0.1150
  728TIP3    H123819   3.163   3.755   1.384  0.2818 -0.3270  0.9251
  728TIP3    H223820   3.057   3.864   1.382 -0.3476 -0.8895  2.1534
  729TIP3   OH223821   2.807   3.212   0.223  0.5679  0.0511  0.5189
  729TIP3    H123822   2.769   3.134   0.182  1.9092  0.8732 -2.5952
  729TIP3    H223823   2.803   3.194   0.316 -1.4430 -2.6422  0.0455
  730TIP3   OH223824   2.259   3.284   1.354  0.5123 -0.0144  0.4557
  730TIP3    H123825   2.233   3.269   1.445  0.6022 -0.9676  0.3326
  730TIP3    H223826   2.292   3.199   1.324  0.7687  0.3687 -0.3738
  731TIP3   OH223827   2.200   3.205   0.565 -0.3335 -0.9037  0.5728
  731TIP3    H123828   2.282   3.199   0.614 -0.7951 -1.1777  1.3277
  731TIP3    H223829   2.149   3.271   0.612 -0.4823 -0.6148  0.0110
  732TIP3   OH223830   3.834   6.181   2.886 -0.3144 -0.3072 -0.2663
  732TIP3    H123831   3.850   6.275   2.898 -1.2977 -0.3232  1.4520
  732TIP3    H223832   3.818   6.172   2.792 -2.5352  1.6682 -0.1895
  733TIP3   OH223833   4.171   1.292   2.383  0.1266  0.2739 -0.5532
  733TIP3    H123834   4.176   1.376   2.428 -0.5008 -0.0493  0.1452
  733TIP3    H223835   4.245   1.241   2.417 -0.2856  0.0670  0.0511
  734TIP3   OH223836   4.778   4.384   1.751  0.2886  0.1335  0.2146
  734TIP3    H123837   4.772   4.468   1.705  2.0129  0.2115  0.0559
  734TIP3    H223838   4.745   4.320   1.688 -0.4060  0.6072  0.0834
  735TIP3   OH223839   0.471   4.496   1.890  0.0791  0.3977 -0.2810
  735TIP3    H123840   0.528   4.471   1.818  1.5325 -1.1210  1.2771
  735TIP3    H223841   0.450   4.587   1.874  1.5203  0.5024 -1.8689
  736TIP3   OH223842   6.658   4.293   1.859 -0.0225 -0.2012 -0.2623
  736TIP3    H123843   6.610   4.364   1.900 -1.3346 -0.4772 -1.2415
  736TIP3    H223844   6.637   4.300   1.765  2.3040 -0.0103 -0.8355
  737TIP3   OH223845   4.528   2.160   0.778  0.2034 -0.4266  0.3028
  737TIP3    H123846   4.452   2.199   0.735  1.2133  0.4834 -0.7372
  737TIP3    H223847   4.526   2.068   0.752  0.7674  0.0871 -1.7708
  738TIP3   OH223848   4.695   2.800   1.977 -0.3429  0.9139  0.6184
  738TIP3    H123849   4.729   2.749   1.903 -0.2266  1.3282  0.3749
  738TIP3    H223850   4.773   2.841   2.014 -0.5256  1.5988  0.2702
  739TIP3   OH223851   3.232   4.396   1.009  0.5652  0.4738 -0.1248
  739TIP3    H123852   3.288   4.468   1.041 -2.2547  2.6857  0.2345
  739TIP3    H223853   3.241   4.399   0.914  0.3698  1.4221 -0.1208
  740TIP3   OH223854   0.972   6.079   0.172  0.8989 -0.0040  0.6205
  740TIP3    H123855   0.892   6.121   0.203  1.6274  0.3086  2.1567
  740TIP3    H223856   0.942   5.996   0.135 -0.2088  0.4552  0.4334
  741TIP3   OH223857   6.049   0.322   1.610  0.1942  0.1292 -0.1345
  741TIP3    H123858   6.047   0.244   1.665  0.7760  0.9302  1.0772
  741TIP3    H223859   5.961   0.327   1.571 -0.0002 -0.8366  0.1702
  742TIP3   OH223860   5.520   5.565   0.072  0.5028  0.3120  0.0154
  742TIP3    H123861   5.608   5.573   0.033  0.8288 -0.6406  0.5293
  742TIP3    H223862   5.464   5.617   0.014  1.3476  0.6787 -0.5012
  743TIP3   OH223863   6.303   0.449   1.727 -0.0046 -0.3916  0.1661
  743TIP3    H123864   6.383   0.451   1.781 -0.6470  0.1883  1.1229
  743TIP3    H223865   6.286   0.541   1.706 -0.3629 -0.5208 -0.1201
  744TIP3   OH223866   0.795   5.727   8.397 -0.1859  0.3583 -0.1803
  744TIP3    H123867   0.751   5.789   8.455  1.1008  0.5089  0.6672
  744TIP3    H223868   0.814   5.651   8.452 -2.3174 -1.1278 -1.3595
  745TIP3   OH223869   6.730   0.455   0.727  0.2183  0.0901  0.5295
  745TIP3    H123870   6.722   0.360   0.713 -0.9346  0.0672  1.1643
  745TIP3    H223871   6.823   0.469   0.747  0.1226 -1.1516  2.0066
  746TIP3   OH223872   1.001   5.791   3.323  0.0628  0.0525  0.3222
  746TIP3    H123873   0.915   5.829   3.303  0.3283  0.3565 -0.2772
  746TIP3    H223874   1.055   5.866   3.349  0.3227 -0.0448  0.0688
  747TIP3   OH223875   1.085   3.572   3.404 -0.6932  0.3674  0.1039
  747TIP3    H123876   1.053   3.570   3.494  1.1873 -0.7919  0.8096
  747TIP3    H223877   1.083   3.480   3.376 -0.5287  0.6137 -0.7431
  748TIP3   OH223878   3.426   1.427   0.272  0.4224  0.3403  0.1827
  748TIP3    H123879   3.444   1.521   0.275  1.0582  0.2303 -0.0700
  748TIP3    H223880   3.396   1.411   0.182  0.1310  0.3347  0.2811
  749TIP3   OH223881   3.858   2.376   1.666  0.3319 -0.9857  0.3300
  749TIP3    H123882   3.923   2.417   1.610  0.0623 -0.4196  0.4131
  749TIP3    H223883   3.775   2.415   1.638  0.0446 -1.6158  0.2982
  750TIP3   OH223884   6.543   5.207   3.275 -0.3318  0.2040  0.1163
  750TIP3    H123885   6.578   5.118   3.273  1.3946  0.8359  0.4015
  750TIP3    H223886   6.470   5.202   3.337  0.8961 -0.6527  1.5606
  751TIP3   OH223887   1.724   1.589   1.096  0.4081 -0.4466  0.3377
  751TIP3    H123888   1.669   1.534   1.040  0.6022  0.8214 -1.1727
  751TIP3    H223889   1.756   1.530   1.164 -0.6053 -1.8338 -0.3423
  752TIP3   OH223890   1.954   1.483   1.813  0.0310  0.1925  0.4990
  752TIP3    H123891   1.925   1.467   1.903 -0.6699  1.8493  0.5990
  752TIP3    H223892   2.013   1.557   1.820 -0.1482  0.4305 -0.4164
  753TIP3   OH223893   0.142   6.740   0.435 -0.5110 -0.3320  0.2068
  753TIP3    H123894   0.175   6.656   0.405  0.2178  0.7138 -2.1021
  753TIP3    H223895   0.063   6.755   0.383 -0.7010  0.3675  0.6828
  754TIP3   OH223896   6.090   5.995   1.135  0.0458  0.2705  0.4323
  754TIP3    H123897   6.100   5.926   1.202 -1.3026 -1.9051 -1.4491
  754TIP3    H223898   6.141   5.963   1.061  1.1817  2.4452  0.2205
  755TIP3   OH223899   3.485   4.796   1.980 -0.1425  0.3568  0.3909
  755TIP3    H123900   3.440   4.733   1.923  0.5387 -0.3223  0.5992
  755TIP3    H223901   3.577   4.788   1.957  0.0451  0.6790  1.0179
  756TIP3   OH223902   2.757   5.348   0.524 -0.0649  0.5125  0.0726
  756TIP3    H123903   2.777   5.301   0.444  0.1422  0.1164  0.3522
  756TIP3    H223904   2.762   5.440   0.500  1.5057  0.4248 -0.0123
  757TIP3   OH223905   3.320   6.875   0.720 -0.2081 -0.5272 -0.0881
  757TIP3    H123906   3.406   6.861   0.680 -0.3707 -1.8898  0.0116
  757TIP3    H223907   3.306   6.970   0.712  1.2485 -0.2908 -0.1947
  758TIP3   OH223908   1.018   1.481   1.652 -0.0060  0.1382 -0.7006
  758TIP3    H123909   1.051   1.468   1.563 -0.2236 -1.2528 -0.5988
  758TIP3    H223910   0.997   1.574   1.656  0.7187  0.3812 -1.8564
  759TIP3   OH223911   6.662   3.002   3.539  0.2028 -0.0891  0.0403
  759TIP3    H123912   6.747   2.963   3.519 -0.0857 -0.3736 -0.6824
  759TIP3    H223913   6.637   2.964   3.623 -0.4557 -2.1677 -1.0375
  760TIP3   OH223914   3.982   2.004   1.765  0.1893 -0.5148 -0.4577
  760TIP3    H123915   3.985   1.921   1.718 -0.4511 -0.0966 -1.2599
  760TIP3    H223916   4.051   1.996   1.832 -1.1285 -2.4392  0.7826
  761TIP3   OH223917   2.745   1.554   3.355  0.3618  0.0854  0.9364
  761TIP3    H123918   2.797   1.475   3.341  2.2767  1.5322 -0.8263
  761TIP3    H223919   2.750   1.571   3.449  0.3681 -1.5580  1.2554
  762TIP3   OH223920   0.079   3.335   3.627 -0.1352 -0.0125  0.0265
  762TIP3    H123921   0.050   3.252   3.589 -0.6816 -0.2623  0.9516
  762TIP3    H223922   0.172   3.322   3.645 -0.1340 -0.2923 -0.1779
  763TIP3   OH223923   4.492   1.217   1.146 -0.6057 -0.3077  0.0701
  763TIP3    H123924   4.398   1.231   1.154 -0.7940 -1.9324  1.1401
  763TIP3    H223925   4.517   1.172   1.227  1.2415  0.7852  0.1633
  764TIP3   OH223926   6.778   1.564   3.695 -0.5847  0.1032  0.6209
  764TIP3    H123927   6.835   1.631   3.659  1.1385 -0.4396  2.1879
  764TIP3    H223928   6.795   1.565   3.789  0.3901 -3.2463  0.6317
  765TIP3   OH223929   1.173   3.588   1.581  0.2292  0.5023 -0.7341
  765TIP3    H123930   1.115   3.631   1.518  0.4534  2.2826  0.1894
  765TIP3    H223931   1.245   3.651   1.592 -0.2539  0.6769  1.9515
  766TIP3   OH223932   3.321   2.422   2.356  0.2056  0.1422  0.0349
  766TIP3    H123933   3.305   2.355   2.423  0.4769 -1.4196 -1.4048
  766TIP3    H223934   3.235   2.453   2.331 -0.0405 -0.8313 -0.3899
  767TIP3   OH223935   0.443   5.183   2.189  0.9166 -0.2248  0.0640
  767TIP3    H123936   0.348   5.181   2.205  0.9963 -0.5975  0.5097
  767TIP3    H223937   0.478   5.114   2.246  1.4175 -0.3238 -0.3626
  768TIP3   OH223938   2.305   6.243   1.842  0.0199 -0.1936  0.2317
  768TIP3    H123939   2.294   6.254   1.748 -0.9108 -0.4240  0.3067
  768TIP3    H223940   2.388   6.195   1.851  1.4376  2.0184 -0.3367
  769TIP3   OH223941   3.308   6.171   2.072  0.4498 -0.3416  0.1513
  769TIP3    H123942   3.271   6.109   2.135 -0.1468  0.9870  1.1386
  769TIP3    H223943   3.400   6.144   2.064 -0.0316 -1.9920 -0.2726
  770TIP3   OH223944   4.480   5.369   3.504  0.1146 -0.2873  0.4042
  770TIP3    H123945   4.523   5.304   3.560 -1.5669 -0.9801  0.9499
  770TIP3    H223946   4.491   5.336   3.415 -0.5724 -1.2444  0.6619
  771TIP3   OH223947   5.440   0.053   3.723  0.5034 -0.6378 -0.0102
  771TIP3    H123948   5.520   0.002   3.714  0.9834  0.0266  0.3885
  771TIP3    H223949   5.437   0.077   3.815 -1.0249 -2.0342  0.3326
  772TIP3   OH223950   5.077   3.167   3.371  0.1215 -0.1874  0.0126
  772TIP3    H123951   4.991   3.210   3.363  1.1100  1.6404 -1.7782
  772TIP3    H223952   5.073   3.096   3.307 -0.1400 -0.2188  0.0611
  773TIP3   OH223953   4.427   6.638   1.430  0.1081  0.6111  0.7512
  773TIP3    H123954   4.431   6.646   1.334  0.0635 -1.2178  0.5604
  773TIP3    H223955   4.517   6.654   1.459  0.6761 -1.1754  0.1424
  774TIP3   OH223956   1.814   2.071   0.132 -0.5798  0.3062  0.5607
  774TIP3    H123957   1.883   2.033   0.186  0.7639  0.5934 -0.8497
  774TIP3    H223958   1.806   2.161   0.163  1.3596  0.9782 -0.7102
  775TIP3   OH223959   3.334   5.471   2.001  0.3542  0.4106  0.0357
  775TIP3    H123960   3.327   5.464   1.906 -0.1613 -1.0595  0.1510
  775TIP3    H223961   3.253   5.514   2.028 -0.6325 -1.3335 -0.0213
  776TIP3   OH223962   4.707   0.789   2.576 -1.0212  0.1000  0.9782
  776TIP3    H123963   4.668   0.873   2.600  0.3148  1.1659 -0.3980
  776TIP3    H223964   4.651   0.724   2.619 -2.7996  1.6254  1.1174
  777TIP3   OH223965   1.590   6.012   3.418 -0.0576 -0.0578  0.2635
  777TIP3    H123966   1.632   5.962   3.488 -1.4293 -0.4042  0.8762
  777TIP3    H223967   1.553   6.088   3.461 -1.8449 -0.8070  0.1559
  778TIP3   OH223968   2.813   6.361   3.894 -0.1074  1.0968  0.5845
  778TIP3    H123969   2.837   6.271   3.917 -1.3912  0.8502  1.0308
  778TIP3    H223970   2.892   6.412   3.912 -0.1570  0.4726  2.9171
  779TIP3   OH223971   6.450   6.134   0.180  0.9061  0.4309 -0.7119
  779TIP3    H123972   6.493   6.217   0.201 -1.0028  1.8663 -2.0408
  779TIP3    H223973   6.363   6.142   0.218  0.4425 -0.6551 -1.4806
  780TIP3   OH223974   5.101   2.596   3.496  0.5880  0.0591 -0.2224
  780TIP3    H123975   5.012   2.607   3.531  0.9747  1.2248  0.4375
  780TIP3    H223976   5.127   2.509   3.525  0.2247  0.3027  0.8734
  781TIP3   OH223977   3.518   1.814   2.681 -0.1723 -0.1248  0.0575
  781TIP3    H123978   3.539   1.724   2.656 -2.3305 -0.8983  0.7485
  781TIP3    H223979   3.460   1.845   2.611  0.9161  0.9439 -0.4174
  782TIP3   OH223980   1.119   0.316   1.185 -0.3094 -0.0781  0.0121
  782TIP3    H123981   1.162   0.256   1.124  1.2837  0.4895  0.5071
  782TIP3    H223982   1.088   0.388   1.130  0.3862  0.0394 -0.2373
  783TIP3   OH223983   2.873   0.042   1.496  0.3491 -0.2511  0.1178
  783TIP3    H123984   2.778   0.039   1.506  0.4048  0.3876  0.9992
  783TIP3    H223985   2.906   0.045   1.585  1.1231  1.1194 -0.1863
  784TIP3   OH223986   1.284   4.853   2.244 -0.3657 -0.1209  0.4816
  784TIP3    H123987   1.291   4.947   2.261 -0.1147  0.0858 -0.6277
  784TIP3    H223988   1.314   4.811   2.324  1.0473  0.7620  0.4583
  785TIP3   OH223989   2.638   4.005   1.265  0.1338  0.0962  0.7860
  785TIP3    H123990   2.622   4.069   1.195 -1.9866 -1.9829 -0.7669
  785TIP3    H223991   2.587   4.039   1.339 -1.3770  0.0317 -0.1687
  786TIP3   OH223992   1.680   6.936   1.084  0.0170 -0.0725  0.3605
  786TIP3    H123993   1.609   6.871   1.088  0.7718 -1.0396 -0.9371
  786TIP3    H223994   1.647   7.010   1.134 -2.3099 -0.1258 -0.9090
  787TIP3   OH223995   3.610   6.938   0.198 -0.6134 -0.2622  0.4529
  787TIP3    H123996   3.565   6.930   0.114  0.2848 -0.4753 -0.0244
  787TIP3    H223997   3.548   6.904   0.262 -0.1848 -3.1437 -0.4878
  788TIP3   OH223998   0.561   6.942   7.649  0.4255 -0.4405  0.7022
  788TIP3    H123999   0.607   6.859   7.665  1.2369 -0.2667 -0.5992
  788TIP3    H224000   0.629   7.008   7.648  0.2437 -0.2083 -1.5083
  789TIP3   OH224001   2.860   6.575   2.072  0.3760 -0.3257  0.3819
  789TIP3    H124002   2.907   6.580   1.989 -2.1222 -1.0387 -1.1911
  789TIP3    H224003   2.873   6.661   2.112  2.4007 -0.2882 -0.2569
  790TIP3   OH224004   0.774   4.437   0.703 -0.0676 -0.1064  0.3412
  790TIP3    H124005   0.722   4.399   0.632  1.1027 -0.6156 -0.2744
  790TIP3    H224006   0.856   4.388   0.701 -0.2283 -0.5667  2.4580
  791TIP3   OH224007   1.824   3.042   3.455 -0.1092  0.1812 -0.3805
  791TIP3    H124008   1.890   2.976   3.433 -0.1943  0.2597 -0.8861
  791TIP3    H224009   1.777   3.005   3.529  0.5588  0.1609  0.0420
  792TIP3   OH224010   6.386   2.829   4.158 -0.1390  0.1670  0.5994
  792TIP3    H124011   6.408   2.921   4.174 -1.8494  0.5931  0.7485
  792TIP3    H224012   6.470   2.784   4.154  0.8327  2.0139 -1.2286
  793TIP3   OH224013   5.768   5.814   0.522 -0.2345 -0.3135 -0.0543
  793TIP3    H124014   5.695   5.823   0.583 -0.1926  1.1966 -0.1962
  793TIP3    H224015   5.800   5.725   0.536 -1.3847 -0.6129  0.8076
  794TIP3   OH224016   1.393   6.497   0.323  0.1630 -0.1482  0.3864
  794TIP3    H124017   1.453   6.427   0.297  1.1853  1.0019 -0.4303
  794TIP3    H224018   1.320   6.491   0.261 -0.1026 -0.9093  0.7566
  795TIP3   OH224019   0.388   1.513   4.039  0.2818 -0.4239  0.3852
  795TIP3    H124020   0.323   1.539   3.973  0.4620 -3.5484 -1.2443
  795TIP3    H224021   0.339   1.457   4.099  1.1388 -1.6765 -0.0533
  796TIP3   OH224022   1.573   1.404   0.977 -0.7041  0.3980  0.0747
  796TIP3    H124023   1.500   1.406   1.039 -0.0645  0.4367  0.8473
  796TIP3    H224024   1.549   1.337   0.914 -1.5483  0.6250  0.1388
  797TIP3   OH224025   5.871   1.730   2.120  0.2460 -0.7683 -0.1728
  797TIP3    H124026   5.954   1.723   2.073  1.4981 -0.7780  1.8762
  797TIP3    H224027   5.858   1.644   2.159 -0.3063 -0.5263  0.1939
  798TIP3   OH224028   6.086   5.121   0.731 -0.2232 -0.4393 -0.2024
  798TIP3    H124029   6.038   5.112   0.648  0.7698  0.4334 -0.8920
  798TIP3    H224030   6.021   5.156   0.792 -0.8513 -0.6803 -0.7119
  799TIP3   OH224031   4.660   3.214   1.826  0.4175 -0.8900  0.3980
  799TIP3    H124032   4.623   3.136   1.784 -0.7540 -0.9673  1.4957
  799TIP3    H224033   4.729   3.243   1.767 -0.2511 -1.7891 -0.8724
  800TIP3   OH224034   0.084   5.566   3.468  0.9799  0.2495 -0.8648
  800TIP3    H124035   0.023   5.615   3.523  1.8685 -1.3287  1.7186
  800TIP3    H224036   0.039   5.558   3.384 -0.6920  2.3410 -0.2830
  801TIP3   OH224037   0.653   0.436   0.752 -0.3305 -0.2362 -0.0546
  801TIP3    H124038   0.617   0.381   0.822 -0.4245 -0.7141 -0.4699
  801TIP3    H224039   0.665   0.375   0.678 -0.2572  0.2675 -0.4600
  802TIP3   OH224040   4.226   6.422   1.426 -0.0308 -0.4381  0.0436
  802TIP3    H124041   4.290   6.483   1.461 -0.2702 -0.6366  0.8764
  802TIP3    H224042   4.143   6.450   1.465 -0.1857 -1.1177  0.2210
  803TIP3   OH224043   6.146   4.252   0.980  0.0185 -0.3639  0.3036
  803TIP3    H124044   6.234   4.215   0.983 -0.1442 -0.6924  1.1903
  803TIP3    H224045   6.160   4.346   0.969  0.4856 -0.3910  0.6403
  804TIP3   OH224046   5.343   0.807   3.243  0.0830  0.0463  0.1599
  804TIP3    H124047   5.356   0.901   3.233 -0.0264  0.1275  0.7557
  804TIP3    H224048   5.277   0.799   3.311  3.0322 -0.5060  3.2572
  805TIP3   OH224049   3.998   4.747   1.364 -0.4993 -0.0230 -0.4812
  805TIP3    H124050   3.969   4.835   1.341  2.0385  0.8467 -0.5827
  805TIP3    H224051   4.047   4.717   1.287 -0.4352 -1.1254 -0.0272
  806TIP3   OH224052   2.735   1.739   8.482  0.3652 -0.1649 -0.5796
  806TIP3    H124053   2.689   1.819   8.459  0.2951  0.1552  0.6293
  806TIP3    H224054   2.676   1.692   8.541  1.6927  0.4431  1.3150
  807TIP3   OH224055   1.770   0.668   2.929 -0.3322 -0.7579  0.3379
  807TIP3    H124056   1.810   0.584   2.906  0.9299 -0.1195  0.0818
  807TIP3    H224057   1.834   0.711   2.986  0.6741  1.4030 -2.1694
  808TIP3   OH224058   2.254   5.023   3.071  0.8408  0.2425  1.0143
  808TIP3    H124059   2.290   4.951   3.123  0.3818  0.2739  1.3834
  808TIP3    H224060   2.160   5.011   3.076  0.7832 -1.0302 -1.6217
  809TIP3   OH224061   5.433   1.322   7.822 -0.8982  0.3871 -0.1903
  809TIP3    H124062   5.358   1.284   7.776 -1.5481  1.6159 -0.1949
  809TIP3    H224063   5.402   1.408   7.850 -0.2259  0.0496  1.7492
  810TIP3   OH224064   2.993   6.369   2.996  0.4282 -0.0137 -0.0825
  810TIP3    H124065   3.058   6.439   3.004 -0.2949  0.7548 -0.7255
  810TIP3    H224066   3.012   6.311   3.069  2.6104 -0.4810 -0.9290
  811TIP3   OH224067   1.110   4.367   1.984  1.1905  0.0376 -0.5682
  811TIP3    H124068   1.143   4.442   2.033 -0.3186 -0.5926  1.5958
  811TIP3    H224069   1.165   4.294   2.013  0.7798 -0.2014 -0.3750
  812TIP3   OH224070   4.898   3.300   0.675 -0.2304 -0.1360  0.0686
  812TIP3    H124071   4.947   3.232   0.628 -1.4654 -0.8271 -0.2715
  812TIP3    H224072   4.839   3.252   0.733 -0.4026  0.6712  0.5831
  813TIP3   OH224073   6.398   6.785   3.163  0.1305  0.3915 -0.2933
  813TIP3    H124074   6.418   6.733   3.085  1.0333  0.2364  0.0339
  813TIP3    H224075   6.422   6.729   3.236 -0.1513  0.7653  0.0919
  814TIP3   OH224076   6.467   1.864   1.750  0.1170 -0.2752 -0.3077
  814TIP3    H124077   6.504   1.776   1.760 -1.5707 -1.3580 -2.6666
  814TIP3    H224078   6.544   1.921   1.744  1.2522 -1.4355  1.8758
  815TIP3   OH224079   5.976   1.348   3.608 -0.0985 -0.2625  0.0582
  815TIP3    H124080   5.948   1.303   3.688  1.5123  0.3777  1.0345
  815TIP3    H224081   6.069   1.325   3.600  0.1802  1.0672 -0.6761
  816TIP3   OH224082   2.450   1.829   3.034 -0.5381  0.2769 -0.1204
  816TIP3    H124083   2.369   1.850   3.080  1.0512  1.1371  2.4614
  816TIP3    H224084   2.497   1.771   3.093  1.2208  0.6773 -1.0652
  817TIP3   OH224085   0.834   0.129   1.119  0.2318  0.0396  0.8519
  817TIP3    H124086   0.863   0.200   1.063  0.4250 -0.1778  0.6781
  817TIP3    H224087   0.872   0.050   1.081 -0.8332 -0.2955  0.4277
  818TIP3   OH224088   5.550   3.102   2.648 -0.2194 -0.0665  0.0370
  818TIP3    H124089   5.558   3.197   2.642 -0.1057 -0.1852 -2.8864
  818TIP3    H224090   5.483   3.087   2.715 -0.9390  2.1062 -0.1422
  819TIP3   OH224091   3.835   0.040   1.979 -0.3823  0.0064  0.5250
  819TIP3    H124092   3.794   0.018   1.895 -0.7456 -0.2930  0.7792
  819TIP3    H224093   3.882  -0.039   2.004  0.5553  0.4195  0.1236
  820TIP3   OH224094   4.895   1.543   1.695  0.6408  0.4761  0.9243
  820TIP3    H124095   4.945   1.617   1.730  2.3706 -0.6448  0.9285
  820TIP3    H224096   4.961   1.479   1.670 -0.6361  0.2244 -2.2145
  821TIP3   OH224097   4.576   2.447   0.808  0.0683 -0.1499 -0.1141
  821TIP3    H124098   4.561   2.356   0.836 -0.0615 -0.5562 -1.4622
  821TIP3    H224099   4.543   2.451   0.718 -0.3240  1.3520  0.0587
  822TIP3   OH224100   5.726   0.825   2.677  0.5219 -0.9462  0.0553
  822TIP3    H124101   5.740   0.905   2.626  0.0309 -1.4108 -0.8279
  822TIP3    H224102   5.684   0.855   2.758 -0.8986 -0.4219 -0.8411
  823TIP3   OH224103   0.219   1.307   4.192 -0.0848  0.0785 -0.0656
  823TIP3    H124104   0.141   1.357   4.168 -0.2982 -0.5243 -0.6507
  823TIP3    H224105   0.210   1.224   4.144  2.5628  1.2448 -2.8820
  824TIP3   OH224106   6.021   0.587   1.610  0.2601  1.0538 -0.1579
  824TIP3    H124107   5.939   0.592   1.658 -0.6835 -1.0709 -1.4228
  824TIP3    H224108   6.059   0.503   1.635  1.1995  1.2416 -0.8920
  825TIP3   OH224109   1.932   3.087   1.473 -0.5086  0.6307  0.0446
  825TIP3    H124110   1.983   3.167   1.488  2.2719 -0.9785 -0.2040
  825TIP3    H224111   1.844   3.109   1.506  0.5187  3.2833  1.3634
  826TIP3   OH224112   5.076   3.965   8.527  0.5027  0.0941 -0.7173
  826TIP3    H124113   5.056   4.048   8.484 -1.1919  0.2250  0.2452
  826TIP3    H224114   4.991   3.924   8.543  1.2849 -1.7965 -1.0513
  827TIP3   OH224115   1.147   4.507   3.219 -0.2351  0.0907 -0.3229
  827TIP3    H124116   1.131   4.537   3.308  1.5417 -0.7053  0.2895
  827TIP3    H224117   1.174   4.416   3.227 -1.3208 -0.4154 -1.8087
  828TIP3   OH224118   5.276   2.834   2.938 -0.2856  0.4358  0.2611
  828TIP3    H124119   5.332   2.817   2.863 -1.7372  1.4433 -1.1205
  828TIP3    H224120   5.306   2.773   3.005  1.5722  0.0593 -0.8537
  829TIP3   OH224121   3.821   1.924   2.157  0.2159  0.5518  0.0902
  829TIP3    H124122   3.754   1.954   2.218 -0.8406 -0.4722 -0.5225
  829TIP3    H224123   3.865   1.852   2.203 -0.0455  0.3034 -0.0488
  830TIP3   OH224124   0.277   4.135   1.266 -0.5420  0.5332 -0.3686
  830TIP3    H124125   0.251   4.102   1.352 -0.0021  0.0512 -0.3852
  830TIP3    H224126   0.215   4.206   1.248 -0.5370  0.7768  0.5106
  831TIP3   OH224127   2.773   2.597   0.528  0.5106  0.0463 -0.2217
  831TIP3    H124128   2.694   2.603   0.475 -0.1609  0.2043  0.7642
  831TIP3    H224129   2.794   2.504   0.530  0.5278  0.0383 -0.7397
  832TIP3   OH224130   5.628   5.068   1.822 -0.6210  0.2393 -0.0431
  832TIP3    H124131   5.666   5.004   1.761 -1.0287 -0.9517  0.9023
  832TIP3    H224132   5.595   5.014   1.894 -2.6860  1.3433 -0.0986
  833TIP3   OH224133   0.979   1.652   0.428 -0.0341  0.1850  0.2604
  833TIP3    H124134   1.069   1.620   0.432 -0.0681 -0.1893 -1.2060
  833TIP3    H224135   0.972   1.715   0.500  1.8468  1.3122 -0.4776
  834TIP3   OH224136   3.733   1.468   0.998  0.1036  0.2081  0.8116
  834TIP3    H124137   3.828   1.467   1.000  0.1880 -0.2383 -1.2367
  834TIP3    H224138   3.711   1.558   0.973 -0.0060  0.2917  1.2098
  835TIP3   OH224139   5.688   1.529   2.332 -0.4800 -0.4565 -0.3538
  835TIP3    H124140   5.741   1.559   2.405 -1.4569  0.9874 -0.2043
  835TIP3    H224141   5.748   1.525   2.258  0.0125  0.3481 -0.0029
  836TIP3   OH224142   0.234   3.625   0.414  0.3361 -0.5609 -0.1534
  836TIP3    H124143   0.195   3.572   0.345 -1.4863 -0.0406  0.4151
  836TIP3    H224144   0.301   3.568   0.453  1.3854 -0.8885 -2.2411
  837TIP3   OH224145   1.444   0.734   1.477  0.2327  0.2893  0.3431
  837TIP3    H124146   1.407   0.666   1.421  0.4099  1.5711 -1.3814
  837TIP3    H224147   1.490   0.686   1.546  0.3312 -1.3255 -0.8071
  838TIP3   OH224148   3.999   4.652   1.935 -0.1960 -0.1269  0.7356
  838TIP3    H124149   4.079   4.602   1.950  0.1059 -0.2451 -0.9882
  838TIP3    H224150   3.931   4.604   1.982  0.5101 -0.7992  1.0947
  839TIP3   OH224151   4.486   1.886   1.751 -0.5523  0.1811 -0.5277
  839TIP3    H124152   4.510   1.852   1.838 -0.2654 -0.5932 -0.8960
  839TIP3    H224153   4.463   1.807   1.701  0.5342  0.4884 -1.5409
  840TIP3   OH224154   0.507   1.066   2.460  0.3350  0.9403  0.5857
  840TIP3    H124155   0.520   0.999   2.527 -0.9470  0.1955  0.1310
  840TIP3    H224156   0.577   1.050   2.396 -0.0033 -0.0367  0.4406
  841TIP3   OH224157   6.723   2.923   8.306 -0.4178 -0.2315 -0.0850
  841TIP3    H124158   6.811   2.887   8.322  0.1185 -0.8162 -3.6201
  841TIP3    H224159   6.737   2.992   8.241 -2.6260 -0.8671 -1.3182
  842TIP3   OH224160   0.135   6.430   8.446 -0.6728  0.3629  0.0612
  842TIP3    H124161   0.099   6.407   8.532  0.6553 -0.2255  0.4886
  842TIP3    H224162   0.076   6.387   8.383 -1.8027  1.0031  0.6504
  843TIP3   OH224163   6.582   4.117   2.930 -0.7256 -0.2098 -0.3138
  843TIP3    H124164   6.617   4.039   2.887 -0.5787 -0.8277  0.8804
  843TIP3    H224165   6.524   4.083   2.998 -2.1093  0.7769 -0.9691
  844TIP3   OH224166   0.948   5.890   2.461  0.9576 -0.0305  0.3559
  844TIP3    H124167   1.024   5.908   2.516 -0.0176  1.3550  1.2956
  844TIP3    H224168   0.930   5.973   2.416 -0.2124 -0.2249  0.4331
  845TIP3   OH224169   5.803   4.322   2.711  0.2288 -0.5691 -0.0993
  845TIP3    H124170   5.728   4.380   2.699 -0.3342 -1.0424  0.9390
  845TIP3    H224171   5.844   4.318   2.625  0.6357  1.7939 -0.0720
  846TIP3   OH224172   0.248   5.032   0.233  0.2522 -0.0065 -0.2570
  846TIP3    H124173   0.251   5.073   0.147  1.9663 -0.0599 -0.2537
  846TIP3    H224174   0.161   4.993   0.238 -0.7343  2.0092 -1.0052
  847TIP3   OH224175   5.313   3.593   3.516  0.1657  0.2638  0.7023
  847TIP3    H124176   5.254   3.587   3.441 -0.7276 -2.0044  1.5187
  847TIP3    H224177   5.336   3.686   3.520 -1.6375  0.8578 -0.9352
  848TIP3   OH224178   4.684   6.310   0.969  0.1810  0.2202  0.0123
  848TIP3    H124179   4.593   6.337   0.984  0.3817  0.3643  0.9764
  848TIP3    H224180   4.679   6.215   0.958 -0.0127  0.1569  0.6334
  849TIP3   OH224181   4.648   3.808   7.763 -0.0722  0.4696  0.3258
  849TIP3    H124182   4.661   3.832   7.854  0.5112  0.5006  0.2383
  849TIP3    H224183   4.556   3.827   7.745 -0.2948  0.0734  1.0215
  850TIP3   OH224184   0.345   0.013   0.159  0.0801 -0.3169 -0.4035
  850TIP3    H124185   0.421   0.012   0.101 -1.1605 -2.1471 -2.1536
  850TIP3    H224186   0.358  -0.064   0.215 -0.9475 -1.2567 -1.4222
  851TIP3   OH224187   4.948   2.473   1.533  0.3849  0.3864 -0.0417
  851TIP3    H124188   4.866   2.424   1.546  0.4643  0.4942  0.9700
  851TIP3    H224189   4.969   2.461   1.440 -0.0423 -0.8083 -0.0029
  852TIP3   OH224190   2.767   0.639   0.804  0.4151 -0.0874  0.4805
  852TIP3    H124191   2.745   0.558   0.757 -0.5551  0.5674 -0.2227
  852TIP3    H224192   2.844   0.673   0.757  0.7936 -0.5545  0.7438
  853TIP3   OH224193   3.720   6.864   3.577  0.3249  0.2778 -0.5627
  853TIP3    H124194   3.636   6.892   3.613 -0.1337  0.2842 -1.5997
  853TIP3    H224195   3.784   6.894   3.641 -0.5048 -0.3837  0.6174
  854TIP3   OH224196   4.667   5.743   3.054  0.2353 -0.0367 -0.3586
  854TIP3    H124197   4.620   5.724   3.135 -1.9319 -0.9493 -1.7415
  854TIP3    H224198   4.670   5.839   3.050  1.6657  0.0347  1.4525
  855TIP3   OH224199   6.279   1.475   2.750 -0.2028 -0.8611 -0.1186
  855TIP3    H124200   6.374   1.481   2.752 -0.2253 -0.2827 -0.3510
  855TIP3    H224201   6.257   1.475   2.656 -0.4623 -0.2562 -0.0617
  856TIP3   OH224202   6.864   0.123   0.465  0.0177  0.3138 -0.4103
  856TIP3    H124203   6.887   0.189   0.400  0.0633  1.5171  0.7765
  856TIP3    H224204   6.877   0.039   0.420  2.7629  1.0099 -1.0949
  857TIP3   OH224205   3.243   3.794   8.053  0.1597  0.2110 -0.2103
  857TIP3    H124206   3.312   3.752   8.105  1.2742  1.4133 -0.6620
  857TIP3    H224207   3.274   3.884   8.040 -1.6527  0.8717 -0.1813
  858TIP3   OH224208   0.320   2.534   3.546  0.0260  0.1784  0.3837
  858TIP3    H124209   0.340   2.441   3.553 -1.0355 -0.0336  0.9539
  858TIP3    H224210   0.384   2.568   3.484 -0.7382 -1.3047 -1.3250
  859TIP3   OH224211   4.529   3.999   7.963 -0.3593  0.3584 -0.5319
  859TIP3    H124212   4.597   4.063   7.984 -1.1429  0.6399  1.2935
  859TIP3    H224213   4.557   3.919   8.008 -0.6414  0.1369 -0.7497
  860TIP3   OH224214   6.102   5.571   1.044  0.4523 -0.2838 -0.0889
  860TIP3    H124215   6.174   5.531   1.092  2.0591  2.1771 -0.2797
  860TIP3    H224216   6.042   5.601   1.112  0.3813 -0.9333  0.1420
  861TIP3   OH224217   0.594   4.405   1.643  0.1782  0.2331 -0.2620
  861TIP3    H124218   0.582   4.474   1.578  1.4367 -0.0173 -0.7974
  861TIP3    H224219   0.688   4.385   1.639 -0.2516 -2.0192 -0.6417
  862TIP3   OH224220   5.745   4.990   2.568  0.2548 -0.1951 -0.0456
  862TIP3    H124221   5.691   5.047   2.514  0.0433 -0.5293 -0.1859
  862TIP3    H224222   5.831   4.992   2.525  0.2815  0.1119  0.0185
  863TIP3   OH224223   0.481   3.438   1.285  0.6022  0.1465 -0.7470
  863TIP3    H124224   0.514   3.410   1.199 -0.4287  0.1902 -1.1789
  863TIP3    H224225   0.481   3.359   1.338 -0.6606 -0.3384 -1.4288
  864TIP3   OH224226   6.750   6.849   3.351  0.6564 -0.1854 -0.1319
  864TIP3    H124227   6.784   6.761   3.334  0.7989 -0.2408  0.4404
  864TIP3    H224228   6.758   6.861   3.445  1.2937  0.7088 -0.2779
  865TIP3   OH224229   1.427   2.843   3.209 -0.2880  0.0024 -0.5736
  865TIP3    H124230   1.463   2.856   3.297 -0.5015  0.5486 -0.5613
  865TIP3    H224231   1.476   2.769   3.174 -2.4336 -2.4597  1.2186
  866TIP3   OH224232   5.356   0.033   2.445  0.3569 -0.7466  0.1642
  866TIP3    H124233   5.337  -0.042   2.390  0.5003  1.0713 -2.5707
  866TIP3    H224234   5.309   0.106   2.404  2.1550  1.1340  1.2203
  867TIP3   OH224235   1.761   2.514   0.748  0.0859  0.2748 -0.2611
  867TIP3    H124236   1.853   2.503   0.727  0.1121 -0.6560  0.2990
  867TIP3    H224237   1.755   2.495   0.842 -0.8397 -0.7466 -0.5082
  868TIP3   OH224238   3.434   3.079   8.148 -0.5202 -0.5846 -0.5781
  868TIP3    H124239   3.506   3.122   8.102  0.6732 -1.2013  0.6560
  868TIP3    H224240   3.429   2.992   8.109 -1.0108 -0.3393 -1.0753
  869TIP3   OH224241   2.985   0.741   0.621 -0.2090 -0.1602 -0.4539
  869TIP3    H124242   3.009   0.833   0.607  1.3110 -0.7588 -2.1222
  869TIP3    H224243   2.945   0.714   0.538 -0.9209 -0.9357  0.1276
  870TIP3   OH224244   6.442   2.545   1.729  0.3091 -0.0464 -0.7471
  870TIP3    H124245   6.349   2.524   1.728  0.4241 -0.5801 -0.7450
  870TIP3    H224246   6.447   2.637   1.703 -0.3908  0.7220  1.6138
  871TIP3   OH224247   3.498   3.985   1.742  0.0765 -0.8757  0.1912
  871TIP3    H124248   3.461   3.911   1.788 -5.1906  2.3761  2.1160
  871TIP3    H224249   3.452   3.987   1.658  1.4562 -0.6700 -0.5976
  872TIP3   OH224250   3.439   0.687   3.067  0.2150 -0.0962  0.6401
  872TIP3    H124251   3.520   0.643   3.040  0.3890  0.4223  0.3146
  872TIP3    H224252   3.421   0.751   2.998 -1.9146 -1.9612 -0.6593
  873TIP3   OH224253   4.248   6.932   2.163 -0.6615  0.2485 -0.1874
  873TIP3    H124254   4.198   6.938   2.244 -1.0803  0.6287 -0.4675
  873TIP3    H224255   4.264   6.839   2.151 -0.1534  0.2306  0.5978
  874TIP3   OH224256   4.063   5.023   3.059 -0.4292 -0.7278  0.1131
  874TIP3    H124257   4.059   5.049   2.967  0.1258  0.1406  0.3218
  874TIP3    H224258   4.157   5.017   3.077 -0.5377 -0.8309  0.6386
  875TIP3   OH224259   4.801   5.616   3.495  0.2772 -0.2135 -0.0080
  875TIP3    H124260   4.869   5.684   3.490 -1.3726  1.6775  1.8247
  875TIP3    H224261   4.840   5.548   3.550  0.8465  0.6671  0.7197
  876TIP3   OH224262   3.414   5.715   0.443  0.1709  0.3722  0.2209
  876TIP3    H124263   3.424   5.808   0.461  0.0116  0.4759 -0.2255
  876TIP3    H224264   3.384   5.677   0.526  1.3250  0.5333  0.7339
  877TIP3   OH224265   6.556   5.209   2.720  0.3155  0.2593 -0.1773
  877TIP3    H124266   6.614   5.235   2.648 -0.2899  0.9955 -0.4160
  877TIP3    H224267   6.611   5.215   2.798  1.4208 -2.0188 -0.6965
  878TIP3   OH224268   2.654   4.041   8.190 -0.5245 -0.0013  0.2013
  878TIP3    H124269   2.693   3.963   8.151  0.3128 -0.8524  2.5960
  878TIP3    H224270   2.660   4.027   8.284  0.3887  3.3248  0.7581
  879TIP3   OH224271   4.719   2.570   1.781  0.3201  0.1431  0.3679
  879TIP3    H124272   4.660   2.601   1.713  0.8865  0.6310  0.0918
  879TIP3    H224273   4.804   2.609   1.759  0.4971  0.3622  1.3868
  880TIP3   OH224274   2.563   0.388   3.031 -0.0649 -0.0439 -0.2992
  880TIP3    H124275   2.471   0.376   3.007  0.1397  1.1095 -1.8051
  880TIP3    H224276   2.609   0.323   2.978  0.0615 -0.0717 -0.1540
  881TIP3   OH224277   1.403   0.044   0.763 -0.0641 -0.0066 -0.4344
  881TIP3    H124278   1.343   0.004   0.826  0.7740  1.0813  1.1059
  881TIP3    H224279   1.359   0.126   0.737  0.8990  1.0369  1.0680
  882TIP3   OH224280   0.784   0.767   1.327  0.0045  0.3827 -0.1013
  882TIP3    H124281   0.725   0.766   1.403 -1.7826  2.4482 -1.3752
  882TIP3    H224282   0.745   0.829   1.266  0.3262 -2.5306 -3.5895
  883TIP3   OH224283   4.808   3.597   7.685  0.4600 -0.9923  0.7596
  883TIP3    H124284   4.770   3.673   7.730  1.0679 -1.4261  2.0738
  883TIP3    H224285   4.900   3.597   7.711  0.8227 -1.2973 -0.4842
  884TIP3   OH224286   3.459   4.904   2.905 -0.0256 -0.2160  0.0810
  884TIP3    H124287   3.460   4.839   2.835  1.5674  0.4513 -0.5644
  884TIP3    H224288   3.477   4.987   2.860 -0.5648  0.4547  1.0790
  885TIP3   OH224289   4.464   5.308   3.131  0.1512  0.1577  0.0689
  885TIP3    H124290   4.373   5.327   3.109 -0.0323 -2.4482 -1.8119
  885TIP3    H224291   4.511   5.388   3.106 -1.5253  1.4510  0.8172
  886TIP3   OH224292   3.939   6.576   0.543  0.0204  0.8154  0.0104
  886TIP3    H124293   3.989   6.637   0.597  0.6422  1.5322 -1.3094
  886TIP3    H224294   3.888   6.632   0.485 -0.0489  0.0859 -0.6515
  887TIP3   OH224295   6.472   2.840   1.016  0.0948 -0.2299 -0.4680
  887TIP3    H124296   6.422   2.825   1.097 -0.4581 -0.2053 -0.8040
  887TIP3    H224297   6.431   2.783   0.952 -0.4807  0.9221 -1.1449
  888TIP3   OH224298   6.103   5.358   2.973  0.3636  0.1901 -0.1160
  888TIP3    H124299   6.194   5.333   2.988  0.4589  1.2247  1.2528
  888TIP3    H224300   6.054   5.316   3.044  0.1817  1.7257  0.7187
  889TIP3   OH224301   3.335   0.283   2.105  0.3054 -0.5839  0.5633
  889TIP3    H124302   3.334   0.297   2.011 -0.3725 -0.3898  0.5972
  889TIP3    H224303   3.283   0.354   2.142 -0.3016 -1.2314  0.9992
  890TIP3   OH224304   1.774   1.387   1.249 -0.4746  0.4442 -0.0055
  890TIP3    H124305   1.768   1.302   1.205 -1.3470  0.0883  0.7732
  890TIP3    H224306   1.742   1.371   1.337  0.7984  1.2595  0.6274
  891TIP3   OH224307   3.930   3.612   0.767 -0.7531 -0.9289  0.2408
  891TIP3    H124308   3.945   3.664   0.688 -1.6555  1.5614  1.5967
  891TIP3    H224309   3.871   3.542   0.739  1.0328 -1.7232 -1.8024
  892TIP3   OH224310   4.972   6.808   0.959  0.4350  0.6107 -0.3121
  892TIP3    H124311   4.897   6.754   0.935 -0.1609  0.6055  1.4336
  892TIP3    H224312   5.041   6.782   0.897 -1.3657  1.6753 -2.9345
  893TIP3   OH224313   4.919   6.655   2.864 -0.2722  0.4214  0.3499
  893TIP3    H124314   4.876   6.704   2.934 -0.8979  0.0944  0.2107
  893TIP3    H224315   4.938   6.570   2.903 -2.1632 -0.3822 -0.3217
  894TIP3   OH224316   2.230   2.079   3.390 -0.5589 -0.0166  0.8462
  894TIP3    H124317   2.297   2.137   3.426  0.5303  1.3383 -2.8753
  894TIP3    H224318   2.159   2.137   3.364 -0.7514 -0.7050 -0.2455
  895TIP3   OH224319   4.259   6.223   1.922  0.1292 -0.2353  0.1535
  895TIP3    H124320   4.255   6.165   1.846 -2.0488 -0.6579  0.5190
  895TIP3    H224321   4.292   6.167   1.993  1.1423 -0.1225 -0.2107
  896TIP3   OH224322   5.207   5.071   0.332  0.1377 -0.0567  0.0846
  896TIP3    H124323   5.268   5.100   0.264 -0.8260  0.2900 -0.6615
  896TIP3    H224324   5.144   5.143   0.340 -1.1887 -1.1160 -0.4108
  897TIP3   OH224325   1.639   0.138   1.350 -0.2595 -0.0246  0.2942
  897TIP3    H124326   1.625   0.060   1.403 -1.1830  0.1922  0.3882
  897TIP3    H224327   1.647   0.209   1.414 -0.8967  0.1693  0.1583
  898TIP3   OH224328   5.367   2.623   1.692  0.2137  0.0803 -0.1565
  898TIP3    H124329   5.357   2.586   1.780 -0.4252 -0.4629 -0.4469
  898TIP3    H224330   5.443   2.577   1.656 -0.7141 -1.1805 -0.6028
  899TIP3   OH224331   5.360   2.466   0.193 -0.8149 -0.2128 -0.2880
  899TIP3    H124332   5.294   2.421   0.141  0.3251 -2.9382  0.4524
  899TIP3    H224333   5.310   2.516   0.257 -2.1616 -0.7017 -0.9103
  900TIP3   OH224334   2.665   2.158   8.155 -0.2498  0.1071  0.1326
  900TIP3    H124335   2.620   2.231   8.198 -1.7105 -0.8193  0.2402
  900TIP3    H224336   2.616   2.143   8.074  0.7215 -0.0398 -0.4498
  901TIP3   OH224337   6.070   2.871   3.714  0.2110 -0.3209  0.7520
  901TIP3    H124338   6.153   2.906   3.681  0.3811  0.4507  1.9144
  901TIP3    H224339   6.081   2.869   3.809 -0.8391 -0.9152  0.8775
  902TIP3   OH224340   6.104   0.822   8.555  0.6368  0.3940 -0.2072
  902TIP3    H124341   6.154   0.904   8.554 -1.1619  1.5441 -0.6402
  902TIP3    H224342   6.056   0.824   8.638  0.9927 -0.5175  0.0367
  903TIP3   OH224343   0.848   5.889   1.911  0.4241 -0.0758  0.3659
  903TIP3    H124344   0.938   5.918   1.923  0.6346 -0.7067  0.3266
  903TIP3    H224345   0.808   5.899   1.998  0.4886  0.3375  0.3504
  904TIP3   OH224346   5.481   2.068   2.491  0.6710 -0.2005 -0.3388
  904TIP3    H124347   5.415   2.013   2.449  0.9625 -0.1070 -0.9339
  904TIP3    H224348   5.530   2.106   2.418  0.3486  1.0100  0.0482
  905TIP3   OH224349   6.264   0.331   7.893  0.3051 -0.3474  0.0552
  905TIP3    H124350   6.251   0.352   7.985  1.8564 -2.1179  0.7360
  905TIP3    H224351   6.301   0.411   7.855  1.0996 -0.0817  1.3349
  906TIP3   OH224352   6.558   1.236   3.715 -0.0169  0.4760  1.2929
  906TIP3    H124353   6.472   1.208   3.747 -0.1467  2.0460  2.4352
  906TIP3    H224354   6.605   1.263   3.793  0.7959  1.5107  0.4780
  907TIP3   OH224355   5.590   2.548   2.193 -0.3966 -0.1678  1.0977
  907TIP3    H124356   5.600   2.625   2.250 -0.3774 -0.6839  1.8020
  907TIP3    H224357   5.507   2.509   2.220 -0.6335 -0.1430  0.4278
  908TIP3   OH224358   4.540   0.321   0.921 -0.3159  0.1607 -0.0120
  908TIP3    H124359   4.584   0.316   1.006 -0.7256 -0.3333  0.1814
  908TIP3    H224360   4.521   0.414   0.909 -1.1229  0.1337  0.9059
  909TIP3   OH224361   5.555   4.587   3.195  0.4070 -0.2999  0.3796
  909TIP3    H124362   5.476   4.538   3.217  1.2632 -1.6473  0.6249
  909TIP3    H224363   5.528   4.648   3.126 -1.2430  0.5931  1.7369
  910TIP3   OH224364   4.297   1.549   8.275 -0.2490 -0.3841  0.0217
  910TIP3    H124365   4.207   1.532   8.245 -0.2638 -2.2174  0.9570
  910TIP3    H224366   4.325   1.625   8.224 -1.8783 -0.5462 -1.2165
  911TIP3   OH224367   5.753   6.795   3.031 -0.1989 -0.1929 -0.7345
  911TIP3    H124368   5.734   6.861   2.964 -0.0098  0.2803 -0.3332
  911TIP3    H224369   5.673   6.743   3.038 -0.3771  0.0421 -1.0032
  912TIP3   OH224370   1.807   1.791   2.153  0.4764 -0.5502  0.0189
  912TIP3    H124371   1.854   1.872   2.173  0.8781 -1.0533  1.2183
  912TIP3    H224372   1.779   1.801   2.062  1.6872  0.3586 -0.2821
  913TIP3   OH224373   2.978   1.998   0.794 -0.0188  0.0482  0.2485
  913TIP3    H124374   2.910   1.938   0.824 -0.5051  0.9084  0.9137
  913TIP3    H224375   3.044   1.942   0.754 -0.6130 -0.8944  0.5740
  914TIP3   OH224376   5.359   5.089   0.656  0.0942 -0.1938 -0.2188
  914TIP3    H124377   5.392   5.134   0.579  0.0142  0.5931  0.1955
  914TIP3    H224378   5.313   5.013   0.621 -2.5143  1.6832 -1.2060
  915TIP3   OH224379   3.451   0.899   1.268 -0.4042  0.3957 -0.0946
  915TIP3    H124380   3.375   0.846   1.290  0.4355 -0.7445  0.0994
  915TIP3    H224381   3.524   0.857   1.311  0.2450  1.9287  0.3876
  916TIP3   OH224382   5.073   2.734   1.953 -0.1309 -0.6943 -0.0124
  916TIP3    H124383   5.024   2.710   1.874  1.4540 -1.1872 -0.8882
  916TIP3    H224384   5.093   2.651   1.995 -0.5086 -0.4612  0.6529
  917TIP3   OH224385   2.066   5.349   8.289 -0.0678  0.1200  0.3565
  917TIP3    H124386   2.030   5.395   8.365 -1.3702 -0.1929 -0.0407
  917TIP3    H224387   2.008   5.274   8.277  1.6487 -1.3340  0.6334
  918TIP3   OH224388   1.420   0.547   3.928  0.0778 -0.3596  0.2615
  918TIP3    H124389   1.474   0.566   3.851 -1.8359  0.7355 -0.8727
  918TIP3    H224390   1.475   0.489   3.981  2.5406  1.0821 -0.5652
  919TIP3   OH224391   6.827   6.231   1.262  0.1083 -0.0833  0.7574
  919TIP3    H124392   6.854   6.140   1.279  1.9467  0.4251  0.8252
  919TIP3    H224393   6.881   6.258   1.188  1.4712  1.7157  2.3008
  920TIP3   OH224394   6.765   3.299   2.350  0.1713 -0.0114 -0.2221
  920TIP3    H124395   6.713   3.224   2.378 -0.4069  0.9471  1.4322
  920TIP3    H224396   6.703   3.357   2.306  0.2809  0.1931 -0.1110
  921TIP3   OH224397   3.630   1.673   3.489  0.2979 -0.3878 -0.4920
  921TIP3    H124398   3.650   1.588   3.528 -1.7651 -0.4912  0.4906
  921TIP3    H224399   3.703   1.730   3.516  0.4361 -1.2200  1.0019
  922TIP3   OH224400   5.429   6.435   0.091  0.1390 -0.5259 -0.1666
  922TIP3    H124401   5.411   6.397   0.005 -0.6582  0.1748 -0.3183
  922TIP3    H224402   5.520   6.409   0.109  0.0399 -1.3957 -0.8323
  923TIP3   OH224403   1.977   1.002   0.144 -0.3376  0.1822  0.2050
  923TIP3    H124404   1.962   1.086   0.100  1.5638  2.1301  2.9547
  923TIP3    H224405   1.904   0.994   0.205  0.4739  0.8782  1.3045
  924TIP3   OH224406   4.690   5.273   2.936 -0.3685  0.7953  0.0142
  924TIP3    H124407   4.628   5.260   3.008  0.0171  0.4742  0.2988
  924TIP3    H224408   4.714   5.365   2.942 -0.4745  0.8136  0.1891
  925TIP3   OH224409   2.477   1.942   1.521  0.4727  0.8495 -0.1810
  925TIP3    H124410   2.495   2.019   1.467 -1.5858  0.2516 -1.8674
  925TIP3    H224411   2.383   1.928   1.511  0.3444 -0.3698  2.1883
  926TIP3   OH224412   0.392   0.719   1.051  0.0966 -0.3922 -0.4763
  926TIP3    H124413   0.316   0.769   1.081  0.4868  0.1772 -0.4273
  926TIP3    H224414   0.416   0.759   0.967  1.0449  0.2009  0.0510
  927TIP3   OH224415   6.255   1.683   1.783  0.5156 -0.3892 -0.0562
  927TIP3    H124416   6.284   1.598   1.749  1.2097 -0.6363  1.0755
  927TIP3    H224417   6.326   1.743   1.760  0.6579 -0.4088  0.3292
  928TIP3   OH224418   3.659   6.318   0.418  0.7111 -0.1311  0.2398
  928TIP3    H124419   3.673   6.338   0.325 -0.4963 -1.8850 -0.3871
  928TIP3    H224420   3.746   6.307   0.454  1.2016 -2.2026 -1.3904
  929TIP3   OH224421   2.500   3.551   2.970 -0.5402 -0.1994  0.0758
  929TIP3    H124422   2.540   3.638   2.966  1.5462 -0.9654  1.8960
  929TIP3    H224423   2.575   3.491   2.973 -1.9325 -2.0631 -0.9884
  930TIP3   OH224424   1.113   5.517   1.400 -0.2219  0.0644  0.2780
  930TIP3    H124425   1.085   5.539   1.489 -0.5496 -0.5234  0.3279
  930TIP3    H224426   1.046   5.455   1.369  0.4163 -0.4800 -0.0256
  931TIP3   OH224427   4.932   2.607   1.143 -0.3804 -0.2934  0.7066
  931TIP3    H124428   4.974   2.665   1.206 -1.5158  0.6453  0.6283
  931TIP3    H224429   4.868   2.558   1.194  0.0496 -0.9546  0.6277
  932TIP3   OH224430   1.309   2.749   1.141  0.1593 -0.3902  0.0938
  932TIP3    H124431   1.390   2.760   1.090 -0.2364  0.6636 -0.3332
  932TIP3    H224432   1.329   2.784   1.227 -0.2725  1.3221 -0.4607
  933TIP3   OH224433   0.194   5.165   2.784 -0.0352 -0.1495  0.1871
  933TIP3    H124434   0.207   5.241   2.727 -0.8871 -0.5320 -0.5318
  933TIP3    H224435   0.120   5.118   2.746  0.0692 -1.0016  0.9919
  934TIP3   OH224436   4.706   0.878   3.341 -0.7865  0.2858  0.5742
  934TIP3    H124437   4.652   0.813   3.386 -0.9120  1.0240  1.5106
  934TIP3    H224438   4.778   0.827   3.303 -2.0001 -0.6919 -0.5413
  935TIP3   OH224439   4.517   4.697   0.381  0.2515 -0.0345 -0.1337
  935TIP3    H124440   4.474   4.617   0.351 -0.8995  0.6938 -0.4940
  935TIP3    H224441   4.485   4.764   0.321  0.7216  0.8002  0.5437
  936TIP3   OH224442   1.645   4.237   0.682  0.2538  0.0448  0.1959
  936TIP3    H124443   1.698   4.295   0.738  2.0601 -2.9957  1.9331
  936TIP3    H224444   1.702   4.217   0.608 -0.5688  0.8516 -0.6758
  937TIP3   OH224445   2.627   4.995   0.960 -0.1394 -0.2993 -0.1116
  937TIP3    H124446   2.621   5.090   0.970  0.5614  0.1536 -3.0166
  937TIP3    H224447   2.683   4.967   1.032  1.3900  1.8078 -0.3677
  938TIP3   OH224448   2.779   3.639   3.761 -0.7989 -0.3051 -0.6366
  938TIP3    H124449   2.721   3.715   3.759  0.2431  0.6486  1.7512
  938TIP3    H224450   2.730   3.573   3.809 -1.2945 -0.8475 -1.8270
  939TIP3   OH224451   3.239   6.316   2.497 -0.1875  0.2094 -0.1149
  939TIP3    H124452   3.285   6.232   2.488  0.3582  0.6267 -1.4717
  939TIP3    H224453   3.281   6.373   2.433 -0.2367  1.6792  1.0957
  940TIP3   OH224454   1.247   6.239   3.687 -0.2672 -0.1505 -0.2604
  940TIP3    H124455   1.330   6.284   3.707 -0.0843 -0.9884  1.0237
  940TIP3    H224456   1.262   6.198   3.602  0.8437 -0.7228  0.1923
  941TIP3   OH224457   4.768   0.058   3.379  0.3221 -0.6390 -0.2795
  941TIP3    H124458   4.837   0.007   3.422 -0.6357 -2.1042 -0.4118
  941TIP3    H224459   4.694   0.051   3.439 -0.5196 -1.3391 -1.3737
  942TIP3   OH224460   2.256   2.998   1.386 -0.0938  0.0935  0.1363
  942TIP3    H124461   2.225   3.016   1.475 -0.1317 -1.0160  0.3571
  942TIP3    H224462   2.326   2.933   1.397 -0.1741 -0.1362 -0.6486
  943TIP3   OH224463   5.873   6.125   0.103 -0.0721 -0.4786  0.1164
  943TIP3    H124464   5.870   6.051   0.165  2.5600  0.1181  1.0964
  943TIP3    H224465   5.886   6.084   0.018 -0.2836 -1.2065  0.4206
  944TIP3   OH224466   3.082   1.819   2.405  0.2168  0.1665 -0.5841
  944TIP3    H124467   3.014   1.861   2.458  0.2104 -0.0251 -0.4436
  944TIP3    H224468   3.050   1.730   2.391 -0.8370  0.8042 -2.6920
  945TIP3   OH224469   3.161   4.859   1.825  0.1099  0.0675 -0.0932
  945TIP3    H124470   3.106   4.921   1.874 -0.7965  0.6806 -1.8018
  945TIP3    H224471   3.242   4.907   1.810  0.6099 -0.3212  1.2188
  946TIP3   OH224472   2.095   3.519   1.693 -0.1627 -0.1388 -0.1744
  946TIP3    H124473   2.019   3.537   1.637 -1.1703 -0.0645  1.1665
  946TIP3    H224474   2.167   3.566   1.651 -1.1760  1.0111 -0.6906
  947TIP3   OH224475   2.330   2.780   8.209 -0.0870 -0.2377  0.7589
  947TIP3    H124476   2.239   2.806   8.225  0.1410  0.4116  1.0330
  947TIP3    H224477   2.327   2.685   8.199 -0.9484 -0.1206 -0.2689
  948TIP3   OH224478   5.467   5.458   2.389  0.4436  0.1972  0.1776
  948TIP3    H124479   5.455   5.551   2.372  0.6419  0.2039  0.0709
  948TIP3    H224480   5.512   5.456   2.474 -0.6780  0.1585  0.7920
  949TIP3   OH224481   0.976   6.708   4.191 -0.4243 -0.7545  0.2648
  949TIP3    H124482   0.901   6.763   4.215 -0.8561 -1.6592  1.0905
  949TIP3    H224483   0.974   6.707   4.095 -0.8008  0.1205  0.2490
  950TIP3   OH224484   5.196   6.509   1.289  0.0616 -0.1743 -0.2826
  950TIP3    H124485   5.252   6.555   1.352  1.3649  0.4464 -1.8362
  950TIP3    H224486   5.204   6.417   1.312 -0.1829  0.1050  0.9933
  951TIP3   OH224487   4.799   4.900   2.449 -0.1839  0.2083  0.2483
  951TIP3    H124488   4.724   4.857   2.408  0.4349 -0.7193  0.0343
  951TIP3    H224489   4.761   4.960   2.512 -1.1231  0.4688 -0.5344
  952TIP3   OH224490   6.645   1.432   8.108  0.3685 -1.2328  0.1614
  952TIP3    H124491   6.713   1.420   8.041  2.1400 -0.6945  1.7614
  952TIP3    H224492   6.622   1.525   8.102  0.1234 -1.3048 -0.0456
  953TIP3   OH224493   6.176   5.808   2.359 -0.1823 -0.3227 -0.1173
  953TIP3    H124494   6.271   5.820   2.358 -0.0946 -0.8872  0.4643
  953TIP3    H224495   6.141   5.896   2.372  0.3756 -0.4237  2.5611
  954TIP3   OH224496   3.893   0.740   1.414 -0.2036 -0.6847 -0.4428
  954TIP3    H124497   3.827   0.763   1.480  1.5778  0.2319  1.0964
  954TIP3    H224498   3.853   0.767   1.331 -1.9717 -0.6501  0.3701
  955TIP3   OH224499   5.621   5.522   4.341  0.4509 -0.2014  0.2569
  955TIP3    H124500   5.629   5.439   4.294  3.6753 -0.7690  1.5489
  955TIP3    H224501   5.654   5.587   4.279 -4.2650  0.7166 -1.6702
  956TIP3   OH224502   0.598   1.367   2.172  0.2939 -0.0807 -0.0261
  956TIP3    H124503   0.691   1.362   2.151  0.4849  1.4592  0.3586
  956TIP3    H224504   0.564   1.438   2.117 -0.7208 -0.7689 -0.3373
  957TIP3   OH224505   2.833   5.623   3.711 -0.4486 -0.2960 -0.6048
  957TIP3    H124506   2.862   5.714   3.721  0.2133 -0.5003 -0.6280
  957TIP3    H224507   2.737   5.629   3.708 -0.3745  0.6549 -3.0053
  958TIP3   OH224508   4.905   2.822   7.910  0.4446 -0.1032  0.2740
  958TIP3    H124509   4.839   2.805   7.978 -0.1780  0.9045 -0.0496
  958TIP3    H224510   4.854   2.837   7.830  1.1130 -0.1807 -0.1757
  959TIP3   OH224511   2.299   5.325   0.999  0.5539  0.0441  0.0535
  959TIP3    H124512   2.228   5.272   0.963  0.8780 -0.6542  0.4271
  959TIP3    H224513   2.267   5.415   0.994 -0.0623 -0.2002 -0.4482
  960TIP3   OH224514   1.355   3.188   2.123 -0.1075  0.4417  0.6119
  960TIP3    H124515   1.440   3.233   2.117  0.7838 -1.3028 -0.5871
  960TIP3    H224516   1.356   3.148   2.210  0.7401 -0.3722  0.2446
  961TIP3   OH224517   4.731   4.996   0.478 -0.0022 -0.3249 -0.3005
  961TIP3    H124518   4.688   5.014   0.395  0.5047 -0.3764 -0.5755
  961TIP3    H224519   4.701   5.065   0.537 -1.9015 -1.3756  0.0401
  962TIP3   OH224520   5.575   1.231   1.288  0.2329 -0.0525  0.0643
  962TIP3    H124521   5.500   1.222   1.347  1.6933 -0.1277  2.0103
  962TIP3    H224522   5.601   1.323   1.296 -0.2167  0.2245 -1.3698
  963TIP3   OH224523   0.511   2.940   1.917 -0.0934  0.3076  0.2181
  963TIP3    H124524   0.593   2.963   1.959 -1.1898  0.0389  2.6622
  963TIP3    H224525   0.457   3.019   1.923 -0.2372  0.3092 -0.8512
  964TIP3   OH224526   2.996   2.604   0.949 -0.1820  0.4023 -0.8004
  964TIP3    H124527   2.919   2.647   0.913 -1.8216 -2.4799 -1.1173
  964TIP3    H224528   3.031   2.553   0.877 -0.0862 -0.9896  0.1807
  965TIP3   OH224529   2.774   0.174   2.558  0.2390  0.0712 -0.1396
  965TIP3    H124530   2.820   0.090   2.560 -1.7352 -1.0255  1.1819
  965TIP3    H224531   2.730   0.176   2.473  0.7495  0.0540 -0.4089
  966TIP3   OH224532   2.006   1.382   0.605  0.1720 -0.1697 -0.0342
  966TIP3    H124533   2.043   1.299   0.634 -0.6481 -0.8694 -0.9137
  966TIP3    H224534   2.000   1.373   0.510 -0.8834  0.4822 -0.0423
  967TIP3   OH224535   2.502   5.742   3.502 -0.5386 -0.0248  0.3865
  967TIP3    H124536   2.542   5.672   3.553 -1.8400 -1.5532 -0.5690
  967TIP3    H224537   2.410   5.717   3.496 -0.8993  1.4261 -0.5624
  968TIP3   OH224538   6.473   4.209   0.356 -0.2893  0.2879  0.3584
  968TIP3    H124539   6.516   4.187   0.273 -0.6321  0.0324  0.2473
  968TIP3    H224540   6.529   4.171   0.423 -0.2014  0.1825  0.2249
  969TIP3   OH224541   5.030   5.735   8.141 -0.1773  0.3101 -0.0001
  969TIP3    H124542   5.033   5.788   8.062  0.2028  1.8948  1.0180
  969TIP3    H224543   5.099   5.771   8.197  0.9857 -2.1180  0.2792
  970TIP3   OH224544   3.386   0.247   3.130 -0.1514 -0.1271  0.1090
  970TIP3    H124545   3.368   0.160   3.166 -1.1171  0.2722  0.6459
  970TIP3    H224546   3.475   0.242   3.097  0.1173 -1.0541  0.9441
  971TIP3   OH224547   1.503   0.959   1.209  0.3205 -0.1158 -0.1822
  971TIP3    H124548   1.411   0.985   1.209  0.2313 -0.4219 -0.2157
  971TIP3    H224549   1.509   0.892   1.140  0.5081 -0.2942  0.0032
  972TIP3   OH224550   5.944   5.050   2.023 -0.2440 -0.6609 -0.1768
  972TIP3    H124551   5.993   5.109   1.965 -1.3466 -1.5539 -2.1150
  972TIP3    H224552   5.921   5.105   2.098 -1.6068  1.5865 -2.0846
  973TIP3   OH224553   4.577   4.663   3.911  0.1894  0.2605  0.2769
  973TIP3    H124554   4.591   4.628   3.823 -1.0226  0.5626 -0.0480
  973TIP3    H224555   4.483   4.656   3.925  0.6110 -2.2996  2.6404
  974TIP3   OH224556   3.337   4.639   1.813  0.1475  0.1089  0.0878
  974TIP3    H124557   3.304   4.613   1.727  0.5931 -0.5997  0.1190
  974TIP3    H224558   3.273   4.702   1.845 -0.4924 -0.2806 -0.3941
  975TIP3   OH224559   3.256   2.527   2.744  0.9264  0.1106  0.1856
  975TIP3    H124560   3.336   2.490   2.705  0.8537 -0.4169  0.5312
  975TIP3    H224561   3.193   2.456   2.741  0.0955  0.8740 -1.1457
  976TIP3   OH224562   0.536   2.613   1.702  0.2871  0.3489 -0.0773
  976TIP3    H124563   0.533   2.708   1.709  1.5919  0.2764  2.5327
  976TIP3    H224564   0.450   2.584   1.731 -1.3130  0.7023 -3.8786
  977TIP3   OH224565   3.590   4.579   2.989  0.0344  0.2081 -0.1776
  977TIP3    H124566   3.510   4.579   2.937  1.0579 -0.7687 -1.8655
  977TIP3    H224567   3.646   4.513   2.947  1.6331  0.6866  1.0783
  978TIP3   OH224568   0.558   3.476   3.476  0.1127 -0.4235 -0.0474
  978TIP3    H124569   0.604   3.411   3.529  0.1649  0.5041  1.0865
  978TIP3    H224570   0.589   3.560   3.509 -0.7763  0.1964 -0.7335
  979TIP3   OH224571   3.622   0.088   1.414  0.3439 -0.2925 -0.3649
  979TIP3    H124572   3.703   0.099   1.464 -0.7786  1.9091  1.1668
  979TIP3    H224573   3.602   0.175   1.381  0.5414 -1.5010 -4.0759
  980TIP3   OH224574   1.975   3.314   1.285 -0.5898  0.4655  0.5202
  980TIP3    H124575   2.006   3.225   1.303 -1.2134  0.2269  0.4594
  980TIP3    H224576   2.041   3.352   1.228 -0.8650 -0.3518 -0.3749
  981TIP3   OH224577   1.589   3.320   2.161  0.1803 -0.5068  0.2516
  981TIP3    H124578   1.676   3.311   2.121  0.3811  0.3537  0.4706
  981TIP3    H224579   1.604   3.307   2.255  0.1338  0.0155  0.3316
  982TIP3   OH224580   3.114   0.987   0.695  0.5932 -0.2012 -0.1073
  982TIP3    H124581   3.028   1.027   0.702  1.0890  0.8956  0.0089
  982TIP3    H224582   3.126   0.941   0.777  0.1640 -0.2453 -0.0712
  983TIP3   OH224583   4.766   1.644   4.031 -0.3486  0.3473  0.4322
  983TIP3    H124584   4.686   1.636   4.082 -1.6185  0.7834 -1.3856
  983TIP3    H224585   4.749   1.597   3.950  1.3641  0.1914  0.1079
  984TIP3   OH224586   0.910   0.578   2.176 -0.1658  0.0673  0.2480
  984TIP3    H124587   0.957   0.659   2.196 -0.8758  0.6641 -0.4508
  984TIP3    H224588   0.916   0.570   2.081  0.1857 -0.8864  0.3428
  985TIP3   OH224589   0.628   5.784   7.980  0.0645 -0.2611  0.2807
  985TIP3    H124590   0.654   5.875   7.997  1.9500 -1.1249  2.6266
  985TIP3    H224591   0.533   5.785   7.986  0.0123  1.6177 -0.1938
  986TIP3   OH224592   6.517   1.600   2.465  0.3768 -0.0646  0.3608
  986TIP3    H124593   6.441   1.658   2.455 -1.1838 -1.7841  1.5135
  986TIP3    H224594   6.548   1.585   2.375 -0.4869  0.8894 -0.1125
  987TIP3   OH224595   2.480   0.846   8.400 -0.6500  0.4913 -0.2655
  987TIP3    H124596   2.499   0.764   8.446 -1.2905  0.3638 -0.2153
  987TIP3    H224597   2.537   0.845   8.324  0.9904  1.0600  0.9086
  988TIP3   OH224598   2.257   5.500   3.611  0.3990  0.0674 -0.1330
  988TIP3    H124599   2.291   5.412   3.597 -0.9398 -0.1279 -2.5193
  988TIP3    H224600   2.225   5.528   3.526  0.0319  2.5705  0.7355
  989TIP3   OH224601   4.040   0.391   1.156 -0.5375 -0.3474  0.1621
  989TIP3    H124602   3.981   0.377   1.230  0.0608 -1.8633  0.3948
  989TIP3    H224603   3.990   0.364   1.080 -0.2048 -1.5297  0.3474
  990TIP3   OH224604   3.290   3.757   0.321 -0.3338  0.2649 -0.2436
  990TIP3    H124605   3.384   3.774   0.325 -0.2837 -0.2531  1.3529
  990TIP3    H224606   3.283   3.674   0.274  0.0755 -0.1076  0.3349
  991TIP3   OH224607   5.486   2.807   1.381  0.2389  0.2206 -0.4839
  991TIP3    H124608   5.483   2.842   1.292 -0.9734 -0.9860 -0.9544
  991TIP3    H224609   5.406   2.756   1.389  0.1817  0.5511  1.4219
  992TIP3   OH224610   5.435   4.934   1.601  0.4048 -0.1635  0.6324
  992TIP3    H124611   5.517   4.885   1.607  0.2571 -0.3746  0.9411
  992TIP3    H224612   5.442   4.982   1.519  0.7158 -0.4087  0.5128
  993TIP3   OH224613   4.603   4.473   3.705  0.7186 -0.4860 -0.6034
  993TIP3    H124614   4.628   4.485   3.613 -1.7191 -0.9411 -1.3951
  993TIP3    H224615   4.525   4.418   3.702 -1.1418  1.8189  1.5623
  994TIP3   OH224616   5.599   5.899   1.523 -0.0008  0.1553 -0.0288
  994TIP3    H124617   5.688   5.880   1.494 -0.2406 -2.0591  0.5442
  994TIP3    H224618   5.564   5.956   1.454  1.4737  0.1458 -0.8360
  995TIP3   OH224619   3.728   2.880   0.890 -0.5903  0.2433 -0.2668
  995TIP3    H124620   3.708   2.796   0.930  0.3478  0.7185  1.2880
  995TIP3    H224621   3.643   2.925   0.884 -0.5586  1.2654  3.9171
  996TIP3   OH224622   5.745   2.925   2.603  0.5171 -0.1738 -0.3867
  996TIP3    H124623   5.778   2.906   2.691  1.1666  0.3237 -0.5172
  996TIP3    H224624   5.661   2.968   2.617 -0.7003 -2.5048 -0.0667
  997TIP3   OH224625   1.625   1.057   8.189  0.4819 -0.2122  0.4751
  997TIP3    H124626   1.561   1.127   8.180  2.5939  1.8279  0.4661
  997TIP3    H224627   1.619   1.007   8.108  0.9439  1.7995 -0.8541
  998TIP3   OH224628   6.205   2.566   8.049  0.4790 -0.0309  0.3919
  998TIP3    H124629   6.278   2.507   8.030  2.2554  2.0216  0.3723
  998TIP3    H224630   6.237   2.621   8.121 -0.7231  1.4284 -0.1237
  999TIP3   OH224631   5.835   0.150   7.759  0.6280 -0.0649  0.1416
  999TIP3    H124632   5.877   0.231   7.789  0.9504 -0.4097  0.6399
  999TIP3    H224633   5.756   0.180   7.714 -0.1528  0.4731  1.7827
 1000TIP3   OH224634   1.718   3.113   1.193 -0.4039 -0.0099 -0.1896
 1000TIP3    H124635   1.777   3.120   1.268 -2.5054  0.1732  1.5592
 1000TIP3    H224636   1.684   3.202   1.182 -0.2901 -0.0868 -1.2415
 1001TIP3   OH224637   0.495   6.226   0.616 -0.0465 -0.0766  0.0364
 1001TIP3    H124638   0.589   6.208   0.606  0.1739  1.1103 -0.2009
 1001TIP3    H224639   0.461   6.152   0.666  1.1738 -0.1144  0.8367
 1002TIP3   OH224640   3.951   3.728   3.294 -0.0323  0.0287 -0.1134
 1002TIP3    H124641   3.938   3.705   3.386 -1.9901  1.0385 -0.0722
 1002TIP3    H224642   3.925   3.650   3.245 -1.9335  0.4193  0.1625
 1003TIP3   OH224643   3.251   2.220   8.479  0.6235  0.3001 -0.6237
 1003TIP3    H124644   3.228   2.165   8.404 -0.1184 -1.0362  0.5345
 1003TIP3    H224645   3.299   2.161   8.538  1.3637  1.3799 -0.1199
 1004TIP3   OH224646   6.187   1.914   0.563  0.1112 -0.3223  0.1668
 1004TIP3    H124647   6.234   1.857   0.624  0.2998  0.8454  1.1631
 1004TIP3    H224648   6.162   1.990   0.616 -0.7306  0.2117 -0.9515
 1005TIP3   OH224649   3.757   1.186   0.090  0.6000  0.2407 -0.0252
 1005TIP3    H124650   3.805   1.268   0.094  0.3809  0.3203  1.1841
 1005TIP3    H224651   3.682   1.204   0.032 -0.6532  1.5512  1.8968
 1006TIP3   OH224652   4.503   6.881   0.970 -0.4308 -0.0505  0.4205
 1006TIP3    H124653   4.518   6.952   0.907 -0.7020 -0.3073  0.0621
 1006TIP3    H224654   4.555   6.906   1.046 -2.4854  1.8677  1.3134
 1007TIP3   OH224655   6.565   1.537   0.347  0.0884  0.0478  0.4581
 1007TIP3    H124656   6.487   1.514   0.296  0.6693  1.5104 -1.1848
 1007TIP3    H224657   6.539   1.525   0.438 -1.3836 -1.4873 -0.1157
 1008TIP3   OH224658   1.869   5.221   2.797  0.9269  0.0331  0.2942
 1008TIP3    H124659   1.948   5.181   2.760  0.0012  0.7547 -2.7357
 1008TIP3    H224660   1.840   5.283   2.730 -2.0462  0.0327  1.4497
 1009TIP3   OH224661   1.827   6.676   1.066 -0.2970  0.4674 -0.1669
 1009TIP3    H124662   1.851   6.769   1.057 -0.0089  0.3275 -0.9656
 1009TIP3    H224663   1.785   6.670   1.151  1.9024  0.8751  1.0148
 1010TIP3   OH224664   0.401   3.204   1.435  0.2003 -0.0862 -0.6754
 1010TIP3    H124665   0.325   3.180   1.488  0.2960 -1.0726 -0.9690
 1010TIP3    H224666   0.405   3.138   1.366  0.8923  0.3814 -1.1077
 1011TIP3   OH224667   0.994   0.112   7.905 -0.0763 -0.4532  0.2219
 1011TIP3    H124668   0.921   0.152   7.952 -0.3389 -0.3340 -0.2854
 1011TIP3    H224669   1.061   0.180   7.902 -0.5012 -0.0585 -0.5926
 1012TIP3   OH224670   1.911   2.761   3.152 -0.1152 -0.6547  0.5621
 1012TIP3    H124671   1.963   2.701   3.098  1.1250 -0.7995  1.8580
 1012TIP3    H224672   1.855   2.807   3.090  0.3209 -1.7465 -0.6821
 1013TIP3   OH224673   0.925   4.066   0.464 -0.2299  0.4937  0.1846
 1013TIP3    H124674   1.014   4.041   0.438 -0.2731  1.4070 -0.9214
 1013TIP3    H224675   0.935   4.103   0.552  0.0131 -2.1477  1.3707
 1014TIP3   OH224676   0.275   5.916   1.476 -0.0298 -0.0267  0.1534
 1014TIP3    H124677   0.304   5.901   1.386  0.1417  0.0080  0.2020
 1014TIP3    H224678   0.354   5.946   1.522 -0.1278  0.0042  0.3032
 1015TIP3   OH224679   3.569   6.483   1.824 -0.0911 -0.3776 -0.5087
 1015TIP3    H124680   3.660   6.455   1.833 -0.2023 -0.3561  1.0638
 1015TIP3    H224681   3.571   6.548   1.754  1.3039  0.3494  0.1469
 1016TIP3   OH224682   4.630   2.982   1.689  0.6418 -0.0834 -0.0940
 1016TIP3    H124683   4.580   2.914   1.735  0.5729  1.5138  2.3626
 1016TIP3    H224684   4.571   3.012   1.619 -1.0650  0.3277  1.4414
 1017TIP3   OH224685   0.137   6.663   2.065 -0.1241 -0.1332  0.1649
 1017TIP3    H124686   0.185   6.744   2.054 -0.0535 -0.3231 -1.0655
 1017TIP3    H224687   0.193   6.609   2.122 -0.3131  0.7707  1.2326
 1018TIP3   OH224688   6.545   2.624   0.102  0.5671 -0.4490  0.5224
 1018TIP3    H124689   6.619   2.676   0.133 -1.6654  1.5180  3.1063
 1018TIP3    H224690   6.546   2.546   0.156  0.9659 -0.6310  0.2585
 1019TIP3   OH224691   4.778   1.110   0.519  0.1479  0.3645 -0.0680
 1019TIP3    H124692   4.723   1.155   0.582 -1.2174  0.2348 -1.1041
 1019TIP3    H224693   4.732   1.121   0.435  0.7525 -1.3235 -0.6633
 1020TIP3   OH224694   5.023   2.348   2.539  0.4157 -0.1088 -0.1160
 1020TIP3    H124695   4.944   2.401   2.529 -0.3322 -1.2051 -0.1750
 1020TIP3    H224696   5.076   2.395   2.603 -0.7784  0.0677  0.7649
 1021TIP3   OH224697   0.872   4.700   8.477  0.1036  0.1620  0.0628
 1021TIP3    H124698   0.818   4.638   8.525  2.2877 -1.1900  0.9046
 1021TIP3    H224699   0.855   4.785   8.518 -0.5264 -0.4234  1.0368
 1022TIP3   OH224700   0.506   4.968   0.167 -0.1575 -0.5284 -0.4491
 1022TIP3    H124701   0.527   4.900   0.103 -0.4133 -0.8542 -0.1897
 1022TIP3    H224702   0.411   4.969   0.171 -0.1445 -0.5587 -0.0260
 1023TIP3   OH224703   2.417   0.343   3.728  0.1187 -0.2616 -0.1799
 1023TIP3    H124704   2.421   0.439   3.725 -1.2833 -0.1156  1.3276
 1023TIP3    H224705   2.503   0.316   3.760  0.5151  0.4818 -0.5945
 1024TIP3   OH224706   2.525   1.600   0.072  0.0535 -0.5949  0.1114
 1024TIP3    H124707   2.468   1.537   0.029 -0.1771 -0.6850  0.5385
 1024TIP3    H224708   2.469   1.675   0.091  0.4978  0.0582 -1.0524
 1025TIP3   OH224709   4.643   5.089   0.229 -0.6876  0.8359  0.7519
 1025TIP3    H124710   4.621   5.178   0.201 -1.0081  0.4894 -0.1503
 1025TIP3    H224711   4.617   5.034   0.155  0.4092  0.0897  0.8985
 1026TIP3   OH224712   4.988   5.186   1.642 -0.2851  0.2483  0.1309
 1026TIP3    H124713   4.904   5.148   1.669  0.0363 -0.0206  0.7959
 1026TIP3    H224714   5.051   5.115   1.653 -0.0988  0.1778 -1.2191
 1027TIP3   OH224715   6.595   6.117   4.189 -0.4964  0.4449  0.3654
 1027TIP3    H124716   6.626   6.088   4.103 -0.4218  0.5543  0.3550
 1027TIP3    H224717   6.631   6.052   4.250  1.4609  1.6690  0.5928
 1028TIP3   OH224718   0.273   1.320   0.695  0.1562 -0.3256  0.0409
 1028TIP3    H124719   0.312   1.317   0.608 -0.9554  0.3532 -0.5134
 1028TIP3    H224720   0.262   1.414   0.713 -0.5522 -0.4813  0.4657
 1029TIP3   OH224721   0.418   0.943   8.350 -0.5240  0.1233 -0.0656
 1029TIP3    H124722   0.368   0.871   8.389 -1.4392  0.8668  0.1652
 1029TIP3    H224723   0.415   1.013   8.415 -0.2725  0.6391 -0.5966
 1030TIP3   OH224724   5.994   5.361   1.876 -0.0603  0.0196  0.3235
 1030TIP3    H124725   6.051   5.284   1.882 -0.3604 -0.3190 -0.8957
 1030TIP3    H224726   5.947   5.363   1.959  1.6129  0.2182  1.2964
 1031TIP3   OH224727   6.458   3.627   3.843  0.0473 -0.3716  0.0007
 1031TIP3    H124728   6.476   3.550   3.789  0.5174  0.1937 -0.6698
 1031TIP3    H224729   6.368   3.651   3.822  0.3563  0.0747 -0.8256
 1032TIP3   OH224730   2.344   5.392   1.987  0.3443 -0.1378  0.3275
 1032TIP3    H124731   2.386   5.474   1.960  0.4987 -0.4453 -0.3856
 1032TIP3    H224732   2.411   5.325   1.974 -0.1494 -0.5420 -0.2298
 1033TIP3   OH224733   2.957   6.826   2.183 -0.2090  0.1684  0.6582
 1033TIP3    H124734   3.049   6.816   2.160 -0.8714 -1.5617 -1.6575
 1033TIP3    H224735   2.923   6.890   2.121 -0.9162 -0.5500  0.2788
 1034TIP3   OH224736   2.528   6.548   2.013  0.2092  0.1256  0.0132
 1034TIP3    H124737   2.579   6.606   2.069  0.3841  0.5046 -0.5294
 1034TIP3    H224738   2.437   6.573   2.028  0.3085  0.8524 -0.5519
 1035TIP3   OH224739   5.313   0.740   0.001  0.6229 -0.4390  0.7371
 1035TIP3    H124740   5.315   0.833  -0.024 -0.6546 -0.0137  2.0573
 1035TIP3    H224741   5.368   0.696  -0.064 -0.9398  0.8503 -1.5700
 1036TIP3   OH224742   0.858   6.382   2.762 -0.0979 -0.2783  0.2788
 1036TIP3    H124743   0.770   6.419   2.764 -0.7262 -1.7543  0.6245
 1036TIP3    H224744   0.879   6.377   2.668 -0.8807 -1.0628  0.1392
 1037TIP3   OH224745   1.914   4.049   3.576 -0.9035 -0.4361  0.5837
 1037TIP3    H124746   1.945   4.079   3.662  1.1260 -0.6193 -0.0235
 1037TIP3    H224747   1.924   4.126   3.520 -1.8500 -0.4318  0.4088
 1038TIP3   OH224748   2.995   6.216   2.333 -0.6145  0.3590 -0.9916
 1038TIP3    H124749   3.063   6.278   2.358  1.1937 -1.2032 -1.7774
 1038TIP3    H224750   2.939   6.264   2.272 -1.5240  2.3212  1.2617
 1039TIP3   OH224751   5.250   3.418   0.578  0.1755  0.0479  0.9126
 1039TIP3    H124752   5.200   3.374   0.509 -0.6222  0.7635  1.0191
 1039TIP3    H224753   5.277   3.501   0.539  1.2043 -0.2847  0.8951
 1040TIP3   OH224754   5.128   1.761   0.661 -0.1740 -0.2269  0.1263
 1040TIP3    H124755   5.199   1.747   0.598 -1.0222 -2.0682 -0.5277
 1040TIP3    H224756   5.067   1.688   0.644 -1.6309  0.6124  1.4538
 1041TIP3   OH224757   6.871   3.173   1.225 -0.7331 -0.1496  0.3835
 1041TIP3    H124758   6.819   3.152   1.147  0.5339 -2.8645  0.1591
 1041TIP3    H224759   6.893   3.088   1.263  3.1217  0.8071  0.7010
 1042TIP3   OH224760   6.507   3.392   0.413  0.4559  0.8842  0.2646
 1042TIP3    H124761   6.436   3.443   0.374  1.4151  0.3491 -2.3260
 1042TIP3    H224762   6.523   3.321   0.352  1.2068 -0.8267  2.3148
 1043TIP3   OH224763   4.995   6.636   0.527  0.1480 -0.6981  0.3267
 1043TIP3    H124764   4.978   6.668   0.616 -0.0718 -0.3775  0.1705
 1043TIP3    H224765   5.068   6.575   0.537  0.4218 -0.3193  0.6621
 1044TIP3   OH224766   1.982   0.477   2.835 -0.6813  0.0792  0.4840
 1044TIP3    H124767   2.049   0.545   2.824 -0.1104 -0.8178 -2.8020
 1044TIP3    H224768   2.012   0.425   2.909  0.3329  1.7245  1.3013
 1045TIP3   OH224769   6.240   4.339   1.918  0.6238 -0.1182 -0.5099
 1045TIP3    H124770   6.327   4.373   1.895  1.1847 -0.1952  1.3273
 1045TIP3    H224771   6.202   4.409   1.971  0.0192 -0.5663 -0.3577
 1046TIP3   OH224772   3.602   2.894   2.690  0.0958 -0.5764 -0.5311
 1046TIP3    H124773   3.519   2.938   2.710  0.4420  0.2383 -0.8152
 1046TIP3    H224774   3.617   2.836   2.764 -1.5325 -1.9774 -1.2310
 1047TIP3   OH224775   2.930   5.101   0.428  0.0589  0.2020 -0.5476
 1047TIP3    H124776   2.995   5.031   0.415 -2.2504 -1.9175 -1.4572
 1047TIP3    H224777   2.922   5.142   0.342  1.3620  1.6405 -0.0297
 1048TIP3   OH224778   6.833   5.001   2.138 -0.0042  0.0681  0.3125
 1048TIP3    H124779   6.817   5.027   2.047 -0.1417  0.8428  0.5472
 1048TIP3    H224780   6.893   4.927   2.132  0.3691  0.4187 -0.3875
 1049TIP3   OH224781   6.574   4.938   1.132 -1.1947 -0.0211  0.8312
 1049TIP3    H124782   6.630   4.965   1.059 -0.3396  0.0343  1.4825
 1049TIP3    H224783   6.564   4.844   1.121 -1.6345  0.0895  0.2659
 1050TIP3   OH224784   5.061   1.040   3.384 -0.1136  0.3823 -0.0247
 1050TIP3    H124785   5.063   0.947   3.362  2.8231  0.7159 -1.9117
 1050TIP3    H224786   5.042   1.083   3.301  2.7958  1.4800 -0.2697
 1051TIP3   OH224787   2.278   1.531   2.437  0.2497 -0.4694  0.1230
 1051TIP3    H124788   2.253   1.607   2.383 -0.6621 -0.9944 -0.2068
 1051TIP3    H224789   2.270   1.456   2.377 -1.5085 -1.1669  1.1580
 1052TIP3   OH224790   5.754   1.420   2.795 -0.5079  0.1077  0.0530
 1052TIP3    H124791   5.729   1.409   2.703 -0.6440  0.1923  0.0788
 1052TIP3    H224792   5.849   1.412   2.796 -0.5508 -0.4727 -0.0134
 1053TIP3   OH224793   6.690   4.793   2.443  0.1593 -0.0503  0.0263
 1053TIP3    H124794   6.676   4.877   2.398  0.6876 -0.1440 -0.3190
 1053TIP3    H224795   6.603   4.770   2.478  0.3564  1.5412  1.7326
 1054TIP3   OH224796   2.539   3.824   1.521 -0.2814  0.0926 -0.1268
 1054TIP3    H124797   2.595   3.833   1.444 -3.1443  0.1829 -2.3550
 1054TIP3    H224798   2.485   3.747   1.502 -2.2461  1.1363  0.9704
 1055TIP3   OH224799   1.849   3.730   1.804  0.3731 -1.1120 -0.6706
 1055TIP3    H124800   1.807   3.806   1.845 -1.0480 -1.1930 -1.8771
 1055TIP3    H224801   1.941   3.754   1.799  0.0864  0.1878 -0.2545
 1056TIP3   OH224802   1.104   5.034   1.193  0.4614  0.0872  0.1176
 1056TIP3    H124803   1.104   5.029   1.098  0.3781  1.5111  0.0210
 1056TIP3    H224804   1.195   5.016   1.218  0.2264 -1.5639 -0.1229
 1057TIP3   OH224805   6.516   5.135   0.870  0.6052 -0.3891 -1.0041
 1057TIP3    H124806   6.469   5.114   0.950 -0.2524  2.1210 -0.7810
 1057TIP3    H224807   6.453   5.120   0.800  0.7660 -0.8059 -1.0642
 1058TIP3   OH224808   4.570   3.022   2.113 -0.8797 -0.8206 -0.2529
 1058TIP3    H124809   4.509   3.058   2.048 -1.9478 -1.0871  0.5758
 1058TIP3    H224810   4.586   2.933   2.084 -1.2512 -0.8975 -0.2281
 1059TIP3   OH224811   2.795   5.747   1.143 -0.0408  0.0038  0.3652
 1059TIP3    H124812   2.701   5.745   1.161 -0.1982 -0.4862 -0.4557
 1059TIP3    H224813   2.834   5.698   1.216 -0.5439 -0.8463  0.0831
 1060TIP3   OH224814   6.695   6.279   0.851 -0.4017 -0.5128  0.2261
 1060TIP3    H124815   6.752   6.316   0.784 -0.5945  0.8132  0.7650
 1060TIP3    H224816   6.608   6.275   0.810 -1.0600  2.5236  1.0475
 1061TIP3   OH224817   5.302   5.439   0.385 -0.0000  0.1340 -0.3467
 1061TIP3    H124818   5.249   5.505   0.431  1.8375  0.2405  1.7873
 1061TIP3    H224819   5.370   5.489   0.340 -0.0946 -0.1599 -0.8230
 1062TIP3   OH224820   4.720   4.137   1.587 -0.9258  0.0164 -0.7164
 1062TIP3    H124821   4.677   4.113   1.505 -0.8274 -1.6530 -0.3194
 1062TIP3    H224822   4.668   4.094   1.655  0.1420 -0.3184 -0.0756
 1063TIP3   OH224823   5.070   3.545   1.120  0.2204  0.1096 -0.1639
 1063TIP3    H124824   5.017   3.539   1.041  1.2150 -2.7272 -0.7090
 1063TIP3    H224825   5.030   3.483   1.181  0.8350  0.5523  0.7238
 1064TIP3   OH224826   2.850   1.827   2.542  0.5627  0.3558  0.2503
 1064TIP3    H124827   2.819   1.816   2.452 -0.4625  0.9258  0.5153
 1064TIP3    H224828   2.861   1.738   2.575  1.5301  0.1376 -0.6253
 1065TIP3   OH224829   0.068   5.418   3.220 -0.4524  0.0836 -0.1425
 1065TIP3    H124830   0.008   5.368   3.276 -1.7068  0.8740 -0.7346
 1065TIP3    H224831   0.094   5.356   3.151 -0.0606 -0.4539  0.4733
 1066TIP3   OH224832   3.443   3.868   3.816  0.8236 -0.7995  0.3037
 1066TIP3    H124833   3.407   3.894   3.901  0.1618  1.8298 -0.6948
 1066TIP3    H224834   3.525   3.916   3.808  0.0981  0.2622 -1.1744
 1067TIP3   OH224835   2.558   0.758   8.054  0.1940  0.1738  0.8547
 1067TIP3    H124836   2.520   0.809   7.982  1.0364 -0.9946 -0.4836
 1067TIP3    H224837   2.604   0.822   8.108 -0.2083  1.0458  0.1908
 1068TIP3   OH224838   5.087   1.962   7.691  0.0876 -0.2593  0.3619
 1068TIP3    H124839   5.135   1.879   7.685 -1.4680 -1.1802 -0.0418
 1068TIP3    H224840   5.140   2.016   7.749  1.8620 -1.0163 -0.4487
 1069TIP3   OH224841   0.755   3.523   3.191  0.0137  0.1917 -0.4568
 1069TIP3    H124842   0.670   3.560   3.169 -0.4179 -0.7541 -0.4084
 1069TIP3    H224843   0.748   3.430   3.170  0.5952 -0.1587  0.7670
 1070TIP3   OH224844   3.950   6.913   4.058  0.0668 -0.0662  0.2642
 1070TIP3    H124845   3.890   6.894   4.130 -0.5504 -1.4579 -0.5552
 1070TIP3    H224846   4.018   6.847   4.065  0.4233  0.2753  0.0331
 1071TIP3   OH224847   6.056   2.106   3.033 -0.0537  0.7599 -0.7747
 1071TIP3    H124848   6.061   2.010   3.036 -1.1379  0.6894  1.9572
 1071TIP3    H224849   6.030   2.126   2.943 -1.0173 -1.6010 -1.1075
 1072TIP3   OH224850   1.117   0.022   1.733 -0.0725  0.2704  0.2940
 1072TIP3    H124851   1.062  -0.001   1.808  0.6314 -1.1390  0.4190
 1072TIP3    H224852   1.202   0.044   1.772 -0.5778  2.8191  0.1387
 1073TIP3   OH224853   5.440   0.827   2.600  0.6571  0.2194 -0.1193
 1073TIP3    H124854   5.531   0.851   2.618  0.6457  0.3195 -0.1924
 1073TIP3    H224855   5.427   0.743   2.645  1.3816 -0.8449 -1.8235
 1074TIP3   OH224856   2.505   5.612   1.897 -0.2952  0.1931 -0.3803
 1074TIP3    H124857   2.597   5.605   1.922 -0.5999 -1.5536  0.4384
 1074TIP3    H224858   2.503   5.682   1.833  1.0386  2.7995  2.1831
 1075TIP3   OH224859   0.990   3.946   4.245 -0.3374 -0.4740 -0.4317
 1075TIP3    H124860   0.976   4.029   4.289 -1.0355 -0.4256 -0.7298
 1075TIP3    H224861   1.056   3.964   4.179 -1.8655  0.3352 -1.8014
 1076TIP3   OH224862   1.857   1.129   7.911 -0.0854 -0.1693  0.0898
 1076TIP3    H124863   1.942   1.109   7.870 -0.2059 -1.1962  0.3099
 1076TIP3    H224864   1.861   1.223   7.929  1.6839 -0.4654  1.5841
 1077TIP3   OH224865   4.435   6.128   2.141 -1.0823  0.0923 -0.1491
 1077TIP3    H124866   4.504   6.094   2.198 -0.8661  0.3299 -0.2655
 1077TIP3    H224867   4.409   6.211   2.180 -0.6029  0.4890 -0.6425
 1078TIP3   OH224868   6.560   4.877   1.448  0.8621  0.2157  0.2414
 1078TIP3    H124869   6.617   4.942   1.407  1.2042 -0.9630 -1.2345
 1078TIP3    H224870   6.515   4.835   1.375 -0.5657 -0.1185  1.2758
 1079TIP3   OH224871   5.143   1.639   8.514  0.2763 -0.5990  0.3811
 1079TIP3    H124872   5.114   1.550   8.534  1.4934 -1.0933  0.0436
 1079TIP3    H224873   5.226   1.627   8.469  0.1906  0.6993 -0.1605
 1080TIP3   OH224874   3.737   4.908   3.525  0.5575  0.1105  0.3937
 1080TIP3    H124875   3.736   4.881   3.617 -0.2563  0.2006  0.4119
 1080TIP3    H224876   3.651   4.946   3.510  1.4091  2.1024  0.1794
 1081TIP3   OH224877   4.302   2.285   8.345 -0.1144 -0.1537  0.5603
 1081TIP3    H124878   4.261   2.200   8.329 -0.9754  0.1219  1.2218
 1081TIP3    H224879   4.296   2.297   8.440 -0.1111  0.7031  0.4627
 1082TIP3   OH224880   2.209   5.157   0.513  0.0803 -0.0269 -0.5006
 1082TIP3    H124881   2.294   5.146   0.556  0.2416  2.9489  0.1055
 1082TIP3    H224882   2.158   5.211   0.572 -1.2405  0.5892 -2.1181
 1083TIP3   OH224883   0.077   6.719   0.038  0.3286  0.2312  0.5147
 1083TIP3    H124884   0.131   6.781  -0.010  1.7210 -0.3485  1.2711
 1083TIP3    H224885   0.006   6.696  -0.023  1.7080 -0.0547 -1.0499
 1084TIP3   OH224886   0.031   3.231   2.152 -0.4762 -0.6989  0.0816
 1084TIP3    H124887   0.073   3.163   2.204 -1.0138 -0.5370  0.7498
 1084TIP3    H224888  -0.026   3.277   2.214  0.9823  1.3377  0.0303
 1085TIP3   OH224889   5.379   1.762   0.073  0.3706  0.6264 -0.1016
 1085TIP3    H124890   5.362   1.717  -0.010  0.9662  0.4911 -0.1594
 1085TIP3    H224891   5.343   1.703   0.140  0.2701  0.5303 -0.2399
 1086TIP3   OH224892   2.980   3.139   3.377  0.5321  0.1127 -0.1899
 1086TIP3    H124893   3.062   3.149   3.328  0.6382  0.7411  0.1073
 1086TIP3    H224894   2.995   3.186   3.459 -0.3419  0.7735 -0.3946
 1087TIP3   OH224895   5.063   2.104   2.704  0.0468 -0.1120 -0.0452
 1087TIP3    H124896   5.009   2.119   2.781 -1.6274 -0.0641 -1.1809
 1087TIP3    H224897   5.046   2.180   2.647 -0.1044 -0.9596 -1.1811
 1088TIP3   OH224898   4.754   3.423   0.318 -0.1989 -0.1910  0.3079
 1088TIP3    H124899   4.762   3.492   0.384 -0.5987  0.8305 -0.6872
 1088TIP3    H224900   4.670   3.439   0.277  0.5206 -0.1264 -1.1927
 1089TIP3   OH224901   1.314   4.881   8.315 -0.0135 -0.5739  0.7454
 1089TIP3    H124902   1.328   4.902   8.407 -0.3539  1.9927  0.2820
 1089TIP3    H224903   1.305   4.966   8.271 -3.1059 -1.6601 -1.1423
 1090TIP3   OH224904   3.893   0.050   3.794 -0.0870  0.3172  0.1670
 1090TIP3    H124905   3.832   0.116   3.827 -0.0805  0.2714  0.2713
 1090TIP3    H224906   3.931   0.011   3.873  1.4685  1.6319  0.1201
 1091TIP3   OH224907   5.541   3.808   8.169  0.1644  0.0250  0.2675
 1091TIP3    H124908   5.469   3.824   8.229 -0.1292  0.2187 -0.1355
 1091TIP3    H224909   5.500   3.774   8.090  0.3990  1.2021 -0.3770
 1092TIP3   OH224910   0.389   0.582   0.281 -0.7114 -0.2923 -0.1046
 1092TIP3    H124911   0.425   0.562   0.367 -1.8468 -1.3980  0.1416
 1092TIP3    H224912   0.422   0.513   0.224 -1.2511 -0.4856 -0.1900
 1093TIP3   OH224913   5.935   3.544   8.065  0.2554 -0.5068 -0.8427
 1093TIP3    H124914   5.952   3.496   7.984 -0.5677 -1.2151 -0.6133
 1093TIP3    H224915   5.843   3.525   8.085  0.2577  0.2048 -0.0995
 1094TIP3   OH224916   2.212   2.045   2.864 -0.4895  0.5332 -0.0020
 1094TIP3    H124917   2.121   2.043   2.834  0.3680 -0.2304 -2.8538
 1094TIP3    H224918   2.248   1.962   2.835  1.0402  0.6640  1.4247
 1095TIP3   OH224919   1.752   2.743   1.688  0.1498  0.1112  0.2234
 1095TIP3    H124920   1.672   2.779   1.649  0.7660  0.8166 -0.4112
 1095TIP3    H224921   1.725   2.658   1.724 -1.4274  1.2999  2.0529
 1096TIP3   OH224922   3.769   3.931   3.388 -0.3214 -0.0672 -0.2212
 1096TIP3    H124923   3.756   3.984   3.308 -0.0795 -0.7854 -0.7464
 1096TIP3    H224924   3.843   3.874   3.366 -0.2618 -0.2789  0.5233
 1097TIP3   OH224925   2.801   5.683   0.473  0.1002  0.1154 -0.2232
 1097TIP3    H124926   2.778   5.653   0.561  2.5276 -2.7192 -0.3975
 1097TIP3    H224927   2.856   5.759   0.487  1.6505 -1.1534  0.8648
 1098TIP3   OH224928   3.904   0.738   0.949  0.6149  0.4955  0.0185
 1098TIP3    H124929   3.814   0.764   0.932 -0.1530 -1.3205  0.9958
 1098TIP3    H224930   3.957   0.809   0.914 -1.1562  1.2192 -1.3184
 1099TIP3   OH224931   6.740   0.723   0.967  1.0593 -0.2845  0.6673
 1099TIP3    H124932   6.746   0.819   0.960  1.7313 -0.2305  1.7929
 1099TIP3    H224933   6.659   0.701   0.921  1.2274  0.7557 -0.1768
 1100TIP3   OH224934   1.454   6.417   2.186  0.3478 -0.1508 -0.0314
 1100TIP3    H124935   1.363   6.401   2.159 -0.1998  0.7637  1.1577
 1100TIP3    H224936   1.460   6.378   2.273  1.3107 -0.7935 -0.3684
 1101TIP3   OH224937   0.206   2.165   2.696  0.2578 -0.1685  0.1432
 1101TIP3    H124938   0.221   2.260   2.697  0.2499 -0.1692  0.7296
 1101TIP3    H224939   0.156   2.148   2.776 -0.9803 -0.4759 -0.6775
 1102TIP3   OH224940   6.800   6.013   0.623  0.4480 -0.3783  0.5253
 1102TIP3    H124941   6.710   6.046   0.618  0.3092 -0.7918  0.2850
 1102TIP3    H224942   6.827   6.029   0.713  2.0522  4.8259 -0.5199
 1103TIP3   OH224943   6.155   0.116   2.101  0.0150 -0.1907 -0.1402
 1103TIP3    H124944   6.199   0.156   2.175  1.2114 -0.3981 -0.7145
 1103TIP3    H224945   6.147   0.187   2.036  1.4526 -0.6464 -0.8606
 1104TIP3   OH224946   1.152   3.323   1.133  0.3816 -0.2829  0.2382
 1104TIP3    H124947   1.155   3.312   1.228  0.2145  0.2431  0.3074
 1104TIP3    H224948   1.241   3.306   1.104  0.5987  0.2380  0.5733
 1105TIP3   OH224949   5.117   1.881   2.065 -0.2597  0.5626  0.1466
 1105TIP3    H124950   5.022   1.879   2.069 -0.2223 -0.7711  1.1249
 1105TIP3    H224951   5.145   1.810   2.123  1.3343  1.1027  0.0892
 1106TIP3   OH224952   0.989   1.001   2.350 -0.0749  0.0498  0.2749
 1106TIP3    H124953   0.990   1.060   2.425 -0.5088  0.3299  0.0624
 1106TIP3    H224954   1.012   1.056   2.275  0.1280 -0.1796  0.1672
 1107TIP3   OH224955   6.494   0.006   2.950 -0.3662 -0.3552 -0.3902
 1107TIP3    H124956   6.522  -0.084   2.932  0.9721 -0.1511  0.5749
 1107TIP3    H224957   6.472   0.005   3.043 -0.3521  0.3193 -0.3796
 1108TIP3   OH224958   4.121   1.558   3.146  0.0961  0.0681  0.1822
 1108TIP3    H124959   4.215   1.561   3.162  0.2075  0.1141 -0.4476
 1108TIP3    H224960   4.091   1.646   3.168  1.0215  1.7436 -4.3053
 1109TIP3   OH224961   3.107   4.773   3.570  0.3367  0.0342 -0.6278
 1109TIP3    H124962   3.180   4.720   3.538  1.3309  0.9247  0.1159
 1109TIP3    H224963   3.130   4.793   3.661 -0.3977  1.0992 -0.6591
 1110TIP3   OH224964   1.546   3.422   7.986 -0.3866  0.3157 -0.0253
 1110TIP3    H124965   1.471   3.413   8.045  0.6907 -1.0461  1.2189
 1110TIP3    H224966   1.592   3.339   7.993  0.4213  0.5395 -1.9675
 1111TIP3   OH224967   4.930   4.780   2.236  0.2960 -0.9122  0.1597
 1111TIP3    H124968   4.904   4.819   2.320 -0.9664 -1.8485  0.2315
 1111TIP3    H224969   4.879   4.828   2.171  0.6138 -0.7854  0.0004
 1112TIP3   OH224970   5.244   4.103   2.039 -0.0292 -0.2612  0.4374
 1112TIP3    H124971   5.236   4.156   2.118  2.0958 -1.2658  1.4096
 1112TIP3    H224972   5.292   4.158   1.977 -1.4342  0.4163 -0.0786
 1113TIP3   OH224973   0.902   3.485   1.721 -0.5278 -0.2708  0.0042
 1113TIP3    H124974   0.893   3.393   1.695  1.6856 -0.2043 -1.2083
 1113TIP3    H224975   0.971   3.519   1.664 -2.5596  2.6704 -0.9024
 1114TIP3   OH224976   5.891   5.076   3.532 -0.5701 -0.1954 -0.8689
 1114TIP3    H124977   5.947   5.150   3.507 -1.1056  0.9353  1.0549
 1114TIP3    H224978   5.804   5.113   3.541 -0.8601 -1.0443  0.1069
 1115TIP3   OH224979   0.904   4.540   3.064 -0.2308  0.1007 -0.0587
 1115TIP3    H124980   0.938   4.622   3.099 -0.7055  0.0390  0.5560
 1115TIP3    H224981   0.883   4.488   3.141  1.1545 -1.0764 -0.4182
 1116TIP3   OH224982   4.627   2.200   7.826 -0.2786  0.2693  0.3480
 1116TIP3    H124983   4.640   2.285   7.784 -0.7129 -0.3893 -1.2036
 1116TIP3    H224984   4.667   2.137   7.766  0.2809 -0.6161  1.5959
 1117TIP3   OH224985   3.038   5.497   2.744 -0.8720 -0.9631 -0.3985
 1117TIP3    H124986   2.953   5.537   2.723 -1.1420 -1.0476  0.5193
 1117TIP3    H224987   3.018   5.429   2.808  0.1944  0.9939  2.2098
 1118TIP3   OH224988   5.267   6.098   1.753 -0.1879 -0.4132  0.0502
 1118TIP3    H124989   5.362   6.089   1.759 -0.3294 -1.0924  1.9329
 1118TIP3    H224990   5.253   6.164   1.685  1.6269 -0.0224  0.0078
 1119TIP3   OH224991   6.059   2.903   1.310  0.2831 -0.7456 -0.1070
 1119TIP3    H124992   5.967   2.926   1.324  0.3722 -1.1418  1.2842
 1119TIP3    H224993   6.064   2.810   1.335  0.8851 -0.9896 -1.0661
 1120TIP3   OH224994   2.311   2.840   2.190 -0.0320 -0.0204 -0.2752
 1120TIP3    H124995   2.284   2.755   2.224  0.4638 -0.4288 -0.8847
 1120TIP3    H224996   2.232   2.894   2.195 -0.6468 -0.8465 -0.9269
 1121TIP3   OH224997   3.739   4.719   1.825 -0.6902  0.1452  0.1565
 1121TIP3    H124998   3.815   4.677   1.865 -1.4274 -0.1389  1.3102
 1121TIP3    H224999   3.776   4.778   1.759  0.4417 -1.2591 -0.5285
 1122TIP3   OH225000   5.791   0.616   8.484  0.1425 -0.0020  0.1658
 1122TIP3    H125001   5.820   0.633   8.574 -0.0006 -3.0310  0.8993
 1122TIP3    H225002   5.696   0.624   8.488  0.1094 -0.4798  0.3797
 1123TIP3   OH225003   3.847   4.406   1.571  0.8218 -0.0146  0.4085
 1123TIP3    H125004   3.822   4.370   1.486 -1.8160 -0.6032  1.3210
 1123TIP3    H225005   3.877   4.330   1.622  2.2710  0.3147  0.0774
 1124TIP3   OH225006   6.747   2.585   2.359 -0.3982 -0.2936 -0.3604
 1124TIP3    H125007   6.794   2.568   2.277  0.5798 -2.0268  0.4907
 1124TIP3    H225008   6.741   2.680   2.365  4.3289  0.2141  0.1098
 1125TIP3   OH225009   5.354   2.477   1.918 -0.0921 -0.5569 -0.2636
 1125TIP3    H125010   5.259   2.461   1.921 -0.1752 -0.1969 -0.8716
 1125TIP3    H225011   5.389   2.420   1.986 -0.7295 -0.8135 -0.1353
 1126TIP3   OH225012   6.524   1.500   7.696 -0.0609  0.1716 -1.0080
 1126TIP3    H125013   6.457   1.530   7.634 -2.1053  1.2409  1.5591
 1126TIP3    H225014   6.507   1.550   7.776  3.2400 -0.2389  0.0918
 1127TIP3   OH225015   0.868   4.939   1.356  0.1937 -0.2796 -0.2945
 1127TIP3    H125016   0.941   4.985   1.315  1.0085 -0.7925  0.5592
 1127TIP3    H225017   0.907   4.864   1.400 -0.9835 -1.2084 -0.7547
 1128TIP3   OH225018   2.143   3.892   0.748 -0.0789  0.0215 -0.5791
 1128TIP3    H125019   2.131   3.800   0.772 -0.1060  0.5699  1.8047
 1128TIP3    H225020   2.057   3.920   0.719 -0.9360  0.0413  1.7497
 1129TIP3   OH225021   5.161   6.367   2.243 -0.2354  0.0895  0.1109
 1129TIP3    H125022   5.112   6.446   2.220 -1.0382 -0.0251  1.3308
 1129TIP3    H225023   5.102   6.295   2.224 -0.0825 -0.1246  0.4344
 1130TIP3   OH225024   1.906   5.118   1.088 -0.3689 -0.0704 -0.2725
 1130TIP3    H125025   1.939   5.036   1.052 -0.3756  0.1468 -0.7736
 1130TIP3    H225026   1.816   5.098   1.113 -1.0365  0.2845 -2.1923
 1131TIP3   OH225027   6.238   0.028   2.382  0.0793 -0.0441 -0.1624
 1131TIP3    H125028   6.294   0.105   2.373  0.5833 -0.4446 -0.5888
 1131TIP3    H225029   6.152   0.062   2.407  0.6272  0.5430  0.9607
 1132TIP3   OH225030   0.971   2.959   0.636  0.1576 -0.2999  0.1974
 1132TIP3    H125031   0.949   2.950   0.728 -0.7613 -1.0329 -0.0823
 1132TIP3    H225032   1.029   3.035   0.633 -0.3747  0.1724  1.2855
 1133TIP3   OH225033   0.640   6.500   3.626 -0.1610  0.1075 -0.1033
 1133TIP3    H125034   0.710   6.545   3.673 -2.5938  2.3920  1.6209
 1133TIP3    H225035   0.644   6.410   3.657  1.2150  0.4910  0.9203
 1134TIP3   OH225036   5.518   6.711   2.762 -0.5838  0.6465 -0.0462
 1134TIP3    H125037   5.588   6.777   2.761 -1.0031  1.1087  0.4737
 1134TIP3    H225038   5.561   6.629   2.738  0.1943  0.8644  0.5932
 1135TIP3   OH225039   3.002   2.522   3.123 -0.2844  0.3338  0.1143
 1135TIP3    H125040   2.940   2.455   3.094 -2.0234  0.8293  2.3625
 1135TIP3    H225041   3.084   2.476   3.137 -1.3697 -1.3568  1.3803
 1136TIP3   OH225042   1.051   3.540   0.330 -0.3937 -0.8146  0.3753
 1136TIP3    H125043   1.017   3.594   0.401 -2.2955 -0.4088 -0.7906
 1136TIP3    H225044   1.061   3.453   0.369  2.1072  0.1275  2.0929
 1137TIP3   OH225045   0.148   6.650   3.978 -0.0789  0.3502  0.3657
 1137TIP3    H125046   0.189   6.583   4.032 -1.5555 -0.5374  0.4480
 1137TIP3    H225047   0.130   6.723   4.038  1.7668  0.9721  0.2208
 1138TIP3   OH225048   3.659   0.239   3.038 -0.6178 -1.0172  0.3681
 1138TIP3    H125049   3.726   0.239   3.106 -2.3034 -1.0721  2.1452
 1138TIP3    H225050   3.687   0.173   2.975  0.6918 -1.4399  1.3623
 1139TIP3   OH225051   2.350   6.660   0.594 -0.2691 -0.2187  0.1432
 1139TIP3    H125052   2.269   6.609   0.595  0.5650 -1.6566 -0.7877
 1139TIP3    H225053   2.420   6.594   0.602  0.8403  0.8363 -0.5079
 1140TIP3   OH225054   2.529   6.479   0.789  0.1651 -0.3268  0.7706
 1140TIP3    H125055   2.554   6.393   0.822 -1.4011 -0.6079  1.3369
 1140TIP3    H225056   2.446   6.498   0.834 -1.2090  0.0284 -1.7322
 1141TIP3   OH225057   5.660   2.008   1.476  0.1999  0.0428 -0.5997
 1141TIP3    H125058   5.705   2.092   1.464 -0.9154  0.3747 -3.0127
 1141TIP3    H225059   5.661   1.967   1.390  0.5346 -2.3824  0.4747
 1142TIP3   OH225060   0.007   1.193   3.465 -0.5049  0.1257 -0.4677
 1142TIP3    H125061   0.007   1.152   3.378  1.4765 -0.1908 -0.3553
 1142TIP3    H225062  -0.039   1.131   3.521  1.5117 -1.5172 -0.5259
 1143TIP3   OH225063   5.002   4.120   4.136  0.0579  0.1641 -0.0133
 1143TIP3    H125064   4.927   4.098   4.082 -0.4496 -0.7869  1.0362
 1143TIP3    H225065   4.980   4.086   4.223  0.9039  1.5083  0.7678
 1144TIP3   OH225066   2.659   1.201   8.430  0.4674 -0.6495  0.3237
 1144TIP3    H125067   2.706   1.134   8.381 -1.4229 -2.4966  0.8933
 1144TIP3    H225068   2.622   1.259   8.363  0.5013 -1.3214 -0.2873
 1145TIP3   OH225069   4.528   2.607   1.571  0.2060 -0.2293  0.1394
 1145TIP3    H125070   4.454   2.548   1.558  1.3621 -1.6300 -0.3555
 1145TIP3    H225071   4.489   2.686   1.609 -1.4565 -1.1179  0.3901
 1146TIP3   OH225072   4.360   6.753   1.812  0.1827 -0.1660  0.3781
 1146TIP3    H125073   4.401   6.774   1.728 -1.4737  0.4593 -0.3270
 1146TIP3    H225074   4.335   6.838   1.848  0.3741 -0.4717  1.2500
 1147TIP3   OH225075   2.057   2.104   3.139 -0.2381  0.0162 -0.2491
 1147TIP3    H125076   2.059   2.191   3.179  0.2201  1.0548 -2.4138
 1147TIP3    H225077   2.148   2.085   3.117 -0.2341 -1.3422  0.7738
 1148TIP3   OH225078   3.275   4.830   0.586 -0.1769  0.0787 -0.0217
 1148TIP3    H125079   3.202   4.783   0.545 -0.4340 -0.1680  0.7012
 1148TIP3    H225080   3.249   4.922   0.582 -0.6811 -0.0304  0.5051
 1149TIP3   OH225081   5.699   3.715   1.646 -0.1345  0.0529  0.3916
 1149TIP3    H125082   5.649   3.718   1.727 -0.5399  1.0860  0.1188
 1149TIP3    H225083   5.667   3.638   1.600 -2.2514  1.2533 -0.2505
 1150TIP3   OH225084   4.595   3.710   4.505  0.4790 -0.2139 -0.5312
 1150TIP3    H125085   4.566   3.722   4.415  1.7281 -0.7707 -1.0356
 1150TIP3    H225086   4.589   3.615   4.519  0.0472 -0.1028  0.0618
 1151TIP3   OH225087   4.674   0.661   2.311 -0.1415  1.0383 -0.2738
 1151TIP3    H125088   4.715   0.691   2.392  1.1297 -2.2873  0.4818
 1151TIP3    H225089   4.592   0.619   2.339  1.0195 -1.4867 -0.3673
 1152TIP3   OH225090   6.111   0.888   3.306 -0.4831  0.1234 -0.0815
 1152TIP3    H125091   6.062   0.898   3.224 -0.5136 -0.4444 -0.1359
 1152TIP3    H225092   6.196   0.928   3.288  0.1127 -1.4640 -0.9471
 1153TIP3   OH225093   3.712   0.519   2.293 -0.1456 -0.4196  0.2076
 1153TIP3    H125094   3.619   0.498   2.298  0.0870 -1.4213  0.8013
 1153TIP3    H225095   3.715   0.613   2.278 -1.2482 -0.2995  0.6344
 1154TIP3   OH225096   3.141   0.190   1.588 -0.4354  0.2238 -0.1560
 1154TIP3    H125097   3.216   0.191   1.529 -0.4299  0.4209 -0.1437
 1154TIP3    H225098   3.091   0.269   1.567 -0.6012  0.1311 -0.1151
 1155TIP3   OH225099   6.504   3.148   1.601  0.5608 -0.1844 -0.4445
 1155TIP3    H125100   6.588   3.148   1.646  1.3326 -1.7722 -1.7957
 1155TIP3    H225101   6.446   3.100   1.660  0.8893 -0.0630 -0.0176
 1156TIP3   OH225102   5.144   3.846   0.377  0.1717 -0.1001  0.1344
 1156TIP3    H125103   5.085   3.914   0.345  0.6484 -0.1309 -0.8424
 1156TIP3    H225104   5.213   3.894   0.423  0.0601  0.0199  0.1769
 1157TIP3   OH225105   2.261   6.615   2.045 -0.4488  0.3308 -0.0267
 1157TIP3    H125106   2.227   6.681   1.986 -0.0589  0.0952 -0.5220
 1157TIP3    H225107   2.287   6.664   2.123 -0.3516  0.7356 -0.3108
 1158TIP3   OH225108   6.224   0.343   8.457 -0.0011  0.4543 -0.0754
 1158TIP3    H125109   6.206   0.283   8.385  3.1527 -0.1007 -0.5322
 1158TIP3    H225110   6.233   0.286   8.534  0.5936  0.5852 -0.0435
 1159TIP3   OH225111   3.355   2.436   1.886 -0.6531  0.1071  0.5072
 1159TIP3    H125112   3.363   2.463   1.794 -0.3015 -1.0168  0.1914
 1159TIP3    H225113   3.261   2.427   1.900 -0.6868 -0.2040  0.1057
 1160TIP3   OH225114   3.168   1.548   1.008  0.2300 -0.0727  0.1545
 1160TIP3    H125115   3.080   1.557   1.043  0.9265 -1.5112  2.4765
 1160TIP3    H225116   3.215   1.624   1.044 -0.1181  0.9820 -1.5006
 1161TIP3   OH225117   4.716   1.038   8.540  0.3783  0.2755 -0.4229
 1161TIP3    H125118   4.635   0.986   8.543  0.7474 -0.3788 -1.4189
 1161TIP3    H225119   4.760   1.010   8.460  0.8855  1.7082 -0.6785
 1162TIP3   OH225120   3.495   6.233   2.678 -0.7559 -0.7407 -0.5134
 1162TIP3    H125121   3.435   6.305   2.693 -0.7592 -0.7674 -0.3998
 1162TIP3    H225122   3.538   6.218   2.763  1.1447  0.8318 -1.1170
 1163TIP3   OH225123   5.024   6.882   1.595 -0.0852 -0.0145  0.9431
 1163TIP3    H125124   5.064   6.898   1.510 -1.8659 -0.1428  0.0277
 1163TIP3    H225125   5.008   6.969   1.632 -0.3829  0.0743  0.6067
 1164TIP3   OH225126   1.188   6.096   1.530 -0.7499  1.3501  0.3076
 1164TIP3    H125127   1.174   6.026   1.467  0.4178  2.0245 -0.7482
 1164TIP3    H225128   1.128   6.076   1.602 -0.3303 -0.8159  0.1303
 1165TIP3   OH225129   4.407   6.011   1.373 -0.1604  0.0292  0.6358
 1165TIP3    H125130   4.354   6.008   1.293 -2.1039 -2.0980  1.8783
 1165TIP3    H225131   4.370   6.084   1.423 -0.5961 -0.2034  0.6536
 1166TIP3   OH225132   6.614   5.291   2.018 -0.4404  0.1021 -0.7789
 1166TIP3    H125133   6.528   5.252   2.028 -0.3558  0.1091  0.0199
 1166TIP3    H225134   6.668   5.221   1.980 -0.4339 -0.3831  0.1096
 1167TIP3   OH225135   3.544   2.326   2.068  0.6856  0.5915 -0.6608
 1167TIP3    H125136   3.539   2.231   2.061  1.6304  0.4008  0.8685
 1167TIP3    H225137   3.457   2.356   2.041  0.3882 -0.6897 -1.2173
 1168TIP3   OH225138   5.464   0.540   3.252  0.1273 -0.2756  0.2749
 1168TIP3    H125139   5.482   0.519   3.344 -1.5116 -2.6405  0.1328
 1168TIP3    H225140   5.427   0.628   3.255  0.4205 -0.1686  1.8405
 1169TIP3   OH225141   0.634   0.996   0.682  0.1549  0.3167  0.1329
 1169TIP3    H125142   0.661   1.079   0.642 -0.2371  0.6701  0.5850
 1169TIP3    H225143   0.712   0.965   0.728  0.4525  0.1741 -0.4593
 1170TIP3   OH225144   6.881   1.640   2.064 -0.2704 -0.9232  0.0238
 1170TIP3    H125145   6.912   1.594   2.142  0.1455  1.1025  1.1228
 1170TIP3    H225146   6.795   1.675   2.089  0.0845  0.1688 -0.2281
 1171TIP3   OH225147   3.478   6.126   8.361 -0.3065  0.3271 -0.4368
 1171TIP3    H125148   3.416   6.182   8.409  0.0072  0.1505  0.1834
 1171TIP3    H225149   3.541   6.187   8.324  0.6618  0.3372  1.1401
 1172TIP3   OH225150   6.153   6.771   8.289  0.1879  0.3351  0.3907
 1172TIP3    H125151   6.208   6.693   8.301  1.5261  1.1032 -0.4588
 1172TIP3    H225152   6.130   6.770   8.196  0.3212  1.0142  0.3463
 1173TIP3   OH225153   2.340   3.023   2.530 -0.0964 -0.2895  0.2889
 1173TIP3    H125154   2.423   2.978   2.549 -0.0951 -0.5418 -0.3121
 1173TIP3    H225155   2.315   3.062   2.614  0.5207 -0.3927  0.5281
 1174TIP3   OH225156   6.127   5.798   1.345  0.3915  0.2082  0.2455
 1174TIP3    H125157   6.112   5.743   1.421  1.1248 -1.7616 -0.9567
 1174TIP3    H225158   6.205   5.761   1.303  0.8473  2.1033 -0.6978
 1175TIP3   OH225159   3.550   1.048   2.793 -0.2351  0.3260  0.5077
 1175TIP3    H125160   3.570   1.046   2.699 -0.2778 -0.6644  0.5124
 1175TIP3    H225161   3.627   1.088   2.833  0.3247 -0.4215  0.1824
 1176TIP3   OH225162   6.448   6.687   1.441 -0.2434 -0.2772 -0.2546
 1176TIP3    H125163   6.448   6.666   1.535  0.5359  1.9915  0.3113
 1176TIP3    H225164   6.365   6.732   1.427  0.1457  0.4082 -0.3860
 1177TIP3   OH225165   2.060   3.033   2.474 -0.1483 -0.2055  0.0850
 1177TIP3    H125166   2.011   3.077   2.543 -1.6344 -1.6000 -0.0263
 1177TIP3    H225167   2.149   3.024   2.510 -0.2895  1.1505  0.8403
 1178TIP3   OH225168   0.954   2.462   3.312  0.5722  0.3656 -0.8512
 1178TIP3    H125169   1.036   2.505   3.336  1.7280 -2.3338  0.3650
 1178TIP3    H225170   0.889   2.499   3.372  1.7310 -0.2534  0.8449
 1179TIP3   OH225171   2.476   5.527   2.971 -0.4482 -0.0832 -0.1685
 1179TIP3    H125172   2.476   5.544   2.877  1.0607 -0.9102 -0.3441
 1179TIP3    H225173   2.384   5.511   2.992 -0.6689 -1.1665 -1.7518
 1180TIP3   OH225174   5.925   2.495   3.739 -0.9472  0.6637 -0.3637
 1180TIP3    H125175   6.015   2.504   3.770 -0.6206 -3.1424  0.1955
 1180TIP3    H225176   5.875   2.472   3.817 -1.3578 -2.3913 -1.4095
 1181TIP3   OH225177   0.759   1.962   2.859  0.1793  0.6095  0.0350
 1181TIP3    H125178   0.717   1.885   2.821  0.4531  0.7590 -0.5689
 1181TIP3    H225179   0.821   1.927   2.923 -0.9701  0.3870  1.0761
 1182TIP3   OH225180   2.137   5.780   4.356 -0.2723 -0.3189  0.1563
 1182TIP3    H125181   2.228   5.781   4.325  0.0618  1.5942  1.0739
 1182TIP3    H225182   2.109   5.690   4.343  0.9423 -0.4198 -2.4695
 1183TIP3   OH225183   0.959   6.933   0.650  0.4981  0.2392 -0.4984
 1183TIP3    H125184   0.884   6.904   0.599 -0.2000  0.7933  0.1892
 1183TIP3    H225185   1.015   6.855   0.657 -0.6354 -0.5457  0.0745
 1184TIP3   OH225186   5.482   0.160   0.361  0.4018  0.3168  0.3448
 1184TIP3    H125187   5.499   0.251   0.385 -1.2096  0.3041  1.7224
 1184TIP3    H225188   5.394   0.161   0.323  1.4690 -0.2661 -2.4328
 1185TIP3   OH225189   0.915   0.585   0.771  0.0836 -0.6143 -0.3158
 1185TIP3    H125190   0.877   0.643   0.706 -0.8144 -0.4858  0.3061
 1185TIP3    H225191   0.843   0.527   0.796  0.0961  0.0497  1.3638
 1186TIP3   OH225192   2.220   1.378   1.758 -0.0533 -0.1329  0.6933
 1186TIP3    H125193   2.157   1.450   1.751 -0.8834 -0.7469  1.6942
 1186TIP3    H225194   2.291   1.404   1.699 -0.8249  0.9922  0.2117
 1187TIP3   OH225195   6.835   1.618   3.265 -0.3018  0.3477  0.4149
 1187TIP3    H125196   6.799   1.610   3.177 -1.1481 -2.6733  0.9111
 1187TIP3    H225197   6.759   1.631   3.322 -0.1031 -0.7650  0.9648
 1188TIP3   OH225198   1.525   2.770   0.959 -0.5952 -0.1923 -0.1228
 1188TIP3    H125199   1.596   2.818   0.916 -1.9196 -0.2922 -2.5956
 1188TIP3    H225200   1.558   2.681   0.967 -0.4196 -0.2627 -1.3504
 1189TIP3   OH225201   6.561   1.900   3.334 -0.1883  0.4951 -0.0781
 1189TIP3    H125202   6.545   1.805   3.334  1.7997  0.1256  0.7249
 1189TIP3    H225203   6.636   1.911   3.276 -0.5375  1.6289 -0.3316
 1190TIP3   OH225204   4.300   0.068   1.917 -0.0044 -0.6885  0.5910
 1190TIP3    H125205   4.259   0.046   2.000 -0.4757  1.3643  0.9480
 1190TIP3    H225206   4.337   0.155   1.930  3.0013 -1.7150 -0.2729
 1191TIP3   OH225207   3.882   6.935   0.383 -0.1260 -0.0751  0.0974
 1191TIP3    H125208   3.831   6.854   0.381  0.3550 -0.3588 -1.6559
 1191TIP3    H225209   3.839   6.993   0.321  2.0014 -0.5825 -2.0103
 1192TIP3   OH225210   5.934   4.183   3.309 -0.2229  0.0183 -0.2180
 1192TIP3    H125211   5.850   4.138   3.319 -0.1206  0.0728  1.0024
 1192TIP3    H225212   5.971   4.186   3.397  0.3136  1.4362 -0.4543
 1193TIP3   OH225213   4.392   2.386   7.893  0.4888 -0.5604 -0.1921
 1193TIP3    H125214   4.472   2.414   7.937 -0.1696  1.2144 -0.0648
 1193TIP3    H225215   4.321   2.415   7.951 -0.3191 -0.0463 -1.4011
 1194TIP3   OH225216   4.039   3.182   2.435 -0.0064  0.0058  0.1222
 1194TIP3    H125217   4.130   3.162   2.413 -0.7685 -2.1775 -1.3445
 1194TIP3    H225218   4.042   3.271   2.469  2.6044  0.1857 -0.3679
 1195TIP3   OH225219   4.522   0.375   8.068  0.1946  0.0778 -0.0056
 1195TIP3    H125220   4.593   0.404   8.125 -0.7438  0.3477  1.0806
 1195TIP3    H225221   4.483   0.301   8.114  0.2806 -0.5880 -0.9894
 1196TIP3   OH225222   0.269   1.392   2.191  0.0512 -0.3152 -0.2271
 1196TIP3    H125223   0.272   1.363   2.100 -1.3425  0.3054 -0.4913
 1196TIP3    H225224   0.330   1.334   2.236 -0.6358 -1.8905 -1.2276
 1197TIP3   OH225225   0.868   2.839   2.214  0.0716  0.1196  0.0475
 1197TIP3    H125226   0.853   2.759   2.164 -4.1477  0.7933 -0.1397
 1197TIP3    H225227   0.854   2.812   2.305 -1.7200  0.5954 -0.0440
 1198TIP3   OH225228   4.819   6.714   0.718  0.4082 -0.6758 -0.3178
 1198TIP3    H125229   4.754   6.755   0.660  1.0707 -1.2641 -1.5207
 1198TIP3    H225230   4.771   6.643   0.761  0.0335 -0.5842 -0.5777
 1199TIP3   OH225231   2.805   6.120   1.789  0.5625 -0.4089 -0.0689
 1199TIP3    H125232   2.823   6.213   1.792  0.1123 -0.3308  0.3319
 1199TIP3    H225233   2.729   6.112   1.731  1.9166 -0.7499 -1.8858
 1200TIP3   OH225234   2.478   1.629   0.550 -0.5245 -0.5515 -0.2974
 1200TIP3    H125235   2.506   1.619   0.459 -0.5636 -2.2487 -0.1570
 1200TIP3    H225236   2.441   1.544   0.574 -1.7126  0.2605  0.9170
 1201TIP3   OH225237   0.318   3.564   3.357  0.0216  0.1855  0.0177
 1201TIP3    H125238   0.386   3.510   3.399 -0.7040  1.5499  3.2237
 1201TIP3    H225239   0.364   3.643   3.331 -0.1998  1.0252  2.0070
 1202TIP3   OH225240   6.922   2.899   3.568  0.0651 -0.6658 -0.1288
 1202TIP3    H125241   6.989   2.956   3.529 -0.0243 -0.0772  0.5580
 1202TIP3    H225242   6.947   2.811   3.541  0.6856 -0.3841 -0.5075
 1203TIP3   OH225243   5.986   6.714   0.257 -0.0232  0.0222 -0.1532
 1203TIP3    H125244   6.034   6.639   0.293  0.7485 -0.8494 -2.7950
 1203TIP3    H225245   5.902   6.678   0.230 -1.3282  1.0464  2.2137
 1204TIP3   OH225246   0.043   0.682   2.658 -0.5755  0.2224 -0.6831
 1204TIP3    H125247   0.055   0.774   2.633  1.3065 -0.4527 -2.5284
 1204TIP3    H225248   0.069   0.633   2.581 -0.9359 -1.9041  0.4835
 1205TIP3   OH225249   0.691   3.219   1.432 -0.2722 -0.0270  0.7774
 1205TIP3    H125250   0.752   3.191   1.501  0.4611  2.3536  1.2102
 1205TIP3    H225251   0.608   3.234   1.479 -0.3403 -0.3700  0.7646
 1206TIP3   OH225252   4.291   6.407   3.462  0.2572  0.2295 -0.3262
 1206TIP3    H125253   4.276   6.420   3.369 -1.6175  2.0191  0.1549
 1206TIP3    H225254   4.211   6.364   3.494  0.1150  1.2027  0.7094
 1207TIP3   OH225255   0.610   1.358   0.856 -0.0780 -0.0636  0.0947
 1207TIP3    H125256   0.672   1.354   0.929  0.0637  0.6399  0.0195
 1207TIP3    H225257   0.604   1.451   0.835 -0.9419 -0.1496 -0.0898
 1208TIP3   OH225258   6.395   5.225   3.605  0.4501  0.6247  0.1456
 1208TIP3    H125259   6.362   5.312   3.628  2.1607  1.3461 -0.0448
 1208TIP3    H225260   6.477   5.241   3.559  0.4332 -1.0694 -0.5460
 1209TIP3   OH225261   5.268   6.027   2.039  0.0327 -1.0649 -0.0106
 1209TIP3    H125262   5.270   6.050   1.946  0.4500  0.1471  0.2744
 1209TIP3    H225263   5.229   6.103   2.081  1.5887 -0.7779  1.0016
 1210TIP3   OH225264   0.951   3.292   0.197  0.1879 -0.4516  0.3448
 1210TIP3    H125265   0.904   3.342   0.130  1.7429  0.6682  0.0164
 1210TIP3    H225266   0.900   3.302   0.277  0.0308  0.9972  0.0783
 1211TIP3   OH225267   3.577   0.621   2.521  0.2442  0.1357 -0.0846
 1211TIP3    H125268   3.507   0.655   2.577 -1.0447  0.0866 -1.6018
 1211TIP3    H225269   3.657   0.659   2.558 -0.5459  0.1174  1.7513
 1212TIP3   OH225270   1.931   4.002   4.024  0.3563  0.9848  0.0221
 1212TIP3    H125271   2.007   4.059   4.014  0.8727  0.3285  0.1213
 1212TIP3    H225272   1.943   3.961   4.110  1.1677 -0.9441 -0.9465
 1213TIP3   OH225273   2.461   5.572   0.980 -0.6750  0.1648 -0.4639
 1213TIP3    H125274   2.507   5.489   0.992  1.0270  1.0134 -0.8683
 1213TIP3    H225275   2.478   5.621   1.060 -0.9800  0.4573 -0.5746
 1214TIP3   OH225276   4.380   3.945   3.444  0.1916 -0.1788  0.0727
 1214TIP3    H125277   4.324   3.882   3.490 -1.3127 -0.4992 -2.0394
 1214TIP3    H225278   4.350   4.031   3.474 -2.3401 -0.2922 -1.8416
 1215TIP3   OH225279   5.670   3.098   8.153  0.6320  0.3216  0.0067
 1215TIP3    H125280   5.593   3.141   8.114  0.6622 -0.3051 -0.7826
 1215TIP3    H225281   5.739   3.110   8.088  1.3355  1.2409  0.8984
 1216TIP3   OH225282   5.126   1.377   0.041 -0.0405 -0.3229 -0.4879
 1216TIP3    H125283   5.076   1.384   0.122  0.5002 -0.7579 -0.1123
 1216TIP3    H225284   5.207   1.333   0.066  1.1171  1.4943 -0.8194
 1217TIP3   OH225285   6.545   4.003   2.175 -0.1776  0.0800  0.0521
 1217TIP3    H125286   6.622   3.957   2.208 -0.6967 -1.2579 -0.5310
 1217TIP3    H225287   6.493   4.023   2.253  1.2337  1.9983  0.5790
 1218TIP3   OH225288   3.379   4.062   2.132 -0.1483 -0.2587  0.1913
 1218TIP3    H125289   3.437   3.996   2.094 -0.0778  0.7640 -1.5903
 1218TIP3    H225290   3.335   4.101   2.056 -0.6778  1.2779  1.2530
 1219TIP3   OH225291   4.225   0.953   2.384  0.3478  0.4898 -0.2443
 1219TIP3    H125292   4.274   0.941   2.302 -0.4992 -3.4096 -0.3670
 1219TIP3    H225293   4.261   0.889   2.444 -1.1711  1.0818  1.3988
 1220TIP3   OH225294   1.882   3.128   0.975 -0.4272  0.6221 -0.0137
 1220TIP3    H125295   1.825   3.132   1.052 -0.3079 -2.3432  0.3480
 1220TIP3    H225296   1.965   3.094   1.008  0.0403  0.4977 -1.2487
 1221TIP3   OH225297   3.122   4.625   2.024 -0.0236 -0.0960 -0.3934
 1221TIP3    H125298   3.141   4.707   1.978  0.2521  0.5619  0.8388
 1221TIP3    H225299   3.190   4.619   2.091 -1.2554 -0.2386  0.8975
 1222TIP3   OH225300   5.557   2.912   3.452  1.0071 -0.5106  0.2955
 1222TIP3    H125301   5.581   3.004   3.459 -0.9800  0.0260  0.7871
 1222TIP3    H225302   5.483   2.902   3.513 -1.3223 -1.4761 -2.4484
 1223TIP3   OH225303   5.826   3.284   2.520 -0.5921 -0.1201  0.2884
 1223TIP3    H125304   5.882   3.314   2.592 -1.1324 -0.5007  0.8715
 1223TIP3    H225305   5.740   3.321   2.539 -0.3875  1.1937 -1.0617
 1224TIP3   OH225306   6.683   5.051   1.648 -0.0493 -0.2820  0.0978
 1224TIP3    H125307   6.623   4.987   1.609 -0.6271 -0.0694  0.6231
 1224TIP3    H225308   6.758   5.054   1.588 -0.5214 -0.6226 -0.5126
 1225TIP3   OH225309   4.234   5.950   2.975 -0.1353 -0.3882 -0.1393
 1225TIP3    H125310   4.201   5.877   3.027  0.1948 -0.9619 -0.7183
 1225TIP3    H225311   4.279   5.909   2.901  1.0955  0.3891  0.1482
 1226TIP3   OH225312   0.528   0.390   3.798  0.1087  0.3569 -0.1132
 1226TIP3    H125313   0.456   0.381   3.735  0.1352 -0.2619 -0.0561
 1226TIP3    H225314   0.562   0.479   3.783  1.2509 -0.3673 -2.2013
 1227TIP3   OH225315   4.454   0.090   0.448 -0.3555 -0.0924 -0.7039
 1227TIP3    H125316   4.392   0.103   0.520 -2.0901 -0.9518 -1.9443
 1227TIP3    H225317   4.518   0.160   0.458 -0.9395  0.2298  1.2398
 1228TIP3   OH225318   1.463   5.784   2.055  0.7768  0.0311 -0.6957
 1228TIP3    H125319   1.516   5.799   1.976  1.8564 -0.2281 -0.0489
 1228TIP3    H225320   1.442   5.871   2.086 -2.5346  0.2474 -3.0516
 1229TIP3   OH225321   0.679   6.705   0.131 -0.6391  0.2971 -0.7271
 1229TIP3    H125322   0.752   6.746   0.179  1.0501 -1.1102 -1.9677
 1229TIP3    H225323   0.647   6.773   0.073  0.6000  0.5588 -1.1231
 1230TIP3   OH225324   1.761   5.882   4.128 -0.2118  0.8999 -0.3480
 1230TIP3    H125325   1.794   5.946   4.065 -0.3918  1.3951  0.0503
 1230TIP3    H225326   1.806   5.905   4.210 -1.0277  1.1589  0.0365
 1231TIP3   OH225327   4.982   4.708   2.681  0.1013 -0.0209 -0.2681
 1231TIP3    H125328   5.074   4.725   2.700  0.2931 -0.0359 -1.1450
 1231TIP3    H225329   4.982   4.670   2.594 -0.8963  2.1023 -1.2842
 1232TIP3   OH225330   6.578   1.428   3.527 -0.1208 -0.4030  0.0286
 1232TIP3    H125331   6.558   1.349   3.576 -0.9470  0.1560  0.6378
 1232TIP3    H225332   6.649   1.470   3.575 -1.9793  0.9701  1.8013
 1233TIP3   OH225333   3.347   0.900   2.892  0.7355 -0.0413 -0.4871
 1233TIP3    H125334   3.421   0.947   2.853  0.8253 -0.4935 -0.8729
 1233TIP3    H225335   3.272   0.958   2.878  0.3427 -1.0507 -3.2578
 1234TIP3   OH225336   3.953   1.975   0.142 -1.0857  0.2756 -0.0595
 1234TIP3    H125337   3.893   1.975   0.218 -2.8987 -3.0143 -1.2926
 1234TIP3    H225338   3.934   2.058   0.098 -0.9731  1.6472  2.2871
 1235TIP3   OH225339   6.109   2.738   3.093 -0.1552 -0.1065  0.5526
 1235TIP3    H125340   6.120   2.816   3.147 -1.4982  0.1441  0.4943
 1235TIP3    H225341   6.124   2.665   3.152  3.0469  0.1156  0.2096
 1236TIP3   OH225342   4.010   4.713   2.268 -0.0813  0.2119 -0.9796
 1236TIP3    H125343   4.084   4.673   2.222 -0.4963 -1.8351 -0.0071
 1236TIP3    H225344   4.025   4.690   2.360 -0.9157  1.4804 -0.5063
 1237TIP3   OH225345   1.636   6.628   1.283 -0.7075  0.5158  0.0860
 1237TIP3    H125346   1.691   6.689   1.332 -2.4432  1.3337  1.0955
 1237TIP3    H225347   1.642   6.546   1.332  0.5589  0.2317 -0.5118
 1238TIP3   OH225348   5.625   2.815   8.239  0.4028  0.0902  0.4757
 1238TIP3    H125349   5.590   2.844   8.154  0.7013  0.5050  0.4898
 1238TIP3    H225350   5.599   2.723   8.245 -1.8332  0.6922  1.0626
 1239TIP3   OH225351   4.345   4.306   1.296 -0.6110  0.1941  0.6132
 1239TIP3    H125352   4.266   4.346   1.332 -0.3083 -0.3324  1.9307
 1239TIP3    H225353   4.375   4.247   1.365  1.6890  1.3832  0.7277
 1240TIP3   OH225354   2.386   4.284   0.015  0.3943  0.0439 -0.3831
 1240TIP3    H125355   2.460   4.341  -0.005 -0.4942  0.5660 -2.4291
 1240TIP3    H225356   2.311   4.326  -0.028 -0.5337 -1.9982 -0.8566
 1241TIP3   OH225357   4.793   0.318   3.460 -0.0075  0.0283  0.1600
 1241TIP3    H125358   4.797   0.225   3.435  1.5607 -0.6095  2.4885
 1241TIP3    H225359   4.775   0.317   3.554 -1.7495  2.1746 -0.0888
 1242TIP3   OH225360   5.708   4.577   3.475 -0.0122  0.2932 -0.0339
 1242TIP3    H125361   5.628   4.623   3.503  0.5332  1.5100 -0.4265
 1242TIP3    H225362   5.677   4.490   3.450 -0.8579 -0.0909  2.1222
 1243TIP3   OH225363   2.411   6.254   8.116  0.0559  0.4897  0.3445
 1243TIP3    H125364   2.456   6.184   8.069  2.0504  0.1357  2.5791
 1243TIP3    H225365   2.347   6.209   8.171 -3.6722  1.0194 -3.1486
 1244TIP3   OH225366   5.980   1.704   2.673  0.2563  0.2089 -0.2634
 1244TIP3    H125367   6.004   1.661   2.755  1.3648  0.4289 -0.4481
 1244TIP3    H225368   6.043   1.776   2.665  0.7012 -0.3035 -1.7107
 1245TIP3   OH225369   5.629   1.380   0.070  0.0421 -0.3939 -0.1156
 1245TIP3    H125370   5.673   1.461   0.096  1.1452 -1.0528  0.1262
 1245TIP3    H225371   5.656   1.366  -0.021  0.5448 -0.9312  0.1113
 1246TIP3   OH225372   1.045   2.013   3.975  0.1024  0.4822 -0.2514
 1246TIP3    H125373   1.034   2.006   4.070  1.0161 -0.1474 -0.1868
 1246TIP3    H225374   1.031   2.106   3.957 -0.6924  0.5049  0.4077
 1247TIP3   OH225375   0.804   0.522   0.327  0.3611  0.0757 -0.0748
 1247TIP3    H125376   0.773   0.472   0.251  0.7032 -1.6322  0.8620
 1247TIP3    H225377   0.764   0.477   0.402  0.0104  1.7458  0.7711
 1248TIP3   OH225378   6.304   4.895   0.474  0.5027 -0.0737 -0.5195
 1248TIP3    H125379   6.289   4.985   0.442  1.3639 -0.1278 -1.1297
 1248TIP3    H225380   6.267   4.839   0.405 -0.0188 -0.1906 -0.1471
 1249TIP3   OH225381   3.482   5.271   4.323 -0.1789 -0.5652 -0.1957
 1249TIP3    H125382   3.449   5.229   4.403 -1.0704  0.0709 -0.2127
 1249TIP3    H225383   3.405   5.310   4.283  0.6672  1.5504  0.1079
 1250TIP3   OH225384   5.205   6.251   2.584  0.0184 -0.0361 -0.2283
 1250TIP3    H125385   5.245   6.213   2.506  1.0654 -0.0373  0.2871
 1250TIP3    H225386   5.256   6.215   2.657 -1.8731 -1.2425  0.5909
 1251TIP3   OH225387   2.710   2.501   8.559 -0.0240 -0.4489 -0.1375
 1251TIP3    H125388   2.800   2.475   8.537  0.8455  1.5454  0.7559
 1251TIP3    H225389   2.706   2.493   8.655 -0.6967 -0.2254 -0.1450
 1252TIP3   OH225390   1.756   1.146   1.106 -0.5430  0.1901  0.0400
 1252TIP3    H125391   1.756   1.196   1.025 -0.3283 -0.4082 -0.3312
 1252TIP3    H225392   1.727   1.059   1.082 -0.1862 -0.0790  0.5503
 1253TIP3   OH225393   4.465   4.463   1.540 -0.1121 -0.1173  0.0646
 1253TIP3    H125394   4.408   4.406   1.592 -0.4292 -0.7812 -0.9756
 1253TIP3    H225395   4.544   4.474   1.593  0.3609 -2.3116 -0.0974
 1254TIP3   OH225396   0.113   5.560   2.114  0.1449  0.4165 -0.4997
 1254TIP3    H125397   0.140   5.497   2.181 -2.1496 -2.5356 -2.1273
 1254TIP3    H225398   0.179   5.552   2.046 -0.7140 -1.2151 -1.2006
 1255TIP3   OH225399   1.573   6.832   2.492 -0.1640 -0.4729  0.4597
 1255TIP3    H125400   1.500   6.847   2.552  1.3127  3.3953  1.5794
 1255TIP3    H225401   1.646   6.804   2.549 -0.0400 -1.7319 -0.2829
 1256TIP3   OH225402   6.649   5.649   0.838 -0.4035  0.7143  0.5347
 1256TIP3    H125403   6.611   5.585   0.778 -2.0181  1.2508  0.9340
 1256TIP3    H225404   6.574   5.698   0.872  0.6209  1.5265  1.7276
 1257TIP3   OH225405   4.144   0.724   3.289  0.2403  0.3881 -0.1244
 1257TIP3    H125406   4.049   0.723   3.279  0.1827 -1.0142  0.2562
 1257TIP3    H225407   4.159   0.680   3.372  1.2327  0.4783 -0.2461
 1258TIP3   OH225408   4.739   5.765   3.868 -0.4707 -0.3859  0.2337
 1258TIP3    H125409   4.833   5.767   3.853 -0.8095  0.9401 -2.3953
 1258TIP3    H225410   4.708   5.694   3.812 -1.2971  1.2756 -1.5448
 1259TIP3   OH225411   0.685   0.798   1.649 -0.2664 -0.7339  0.5952
 1259TIP3    H125412   0.592   0.800   1.627 -0.4016 -0.6861  1.1501
 1259TIP3    H225413   0.716   0.887   1.631 -0.2716 -0.8075  0.2003
 1260TIP3   OH225414   2.728   2.584   2.988  0.2381  0.4340 -0.0357
 1260TIP3    H125415   2.684   2.507   2.953 -0.4674  0.0943  1.5016
 1260TIP3    H225416   2.821   2.560   2.992 -0.0846 -0.7484  1.3343
 1261TIP3   OH225417   3.300   1.250   2.725 -0.6575  0.3214 -0.2370
 1261TIP3    H125418   3.333   1.334   2.693  0.2560 -0.0372 -0.2801
 1261TIP3    H225419   3.356   1.185   2.683 -1.7455 -0.3475 -0.6736
 1262TIP3   OH225420   5.742   3.812   2.273 -0.6344 -0.5151 -0.8741
 1262TIP3    H125421   5.826   3.805   2.318 -0.4034  2.9688 -0.5037
 1262TIP3    H225422   5.686   3.747   2.315 -0.3547  2.2048  4.4640
 1263TIP3   OH225423   2.429   2.042   0.456 -0.3453 -0.4643  0.1400
 1263TIP3    H125424   2.382   1.977   0.509 -0.1223 -0.8900 -0.1759
 1263TIP3    H225425   2.385   2.040   0.372 -0.7432  0.2636  0.3262
 1264TIP3   OH225426   2.796   4.411   2.283 -0.0634  0.1646 -0.4591
 1264TIP3    H125427   2.827   4.480   2.224 -1.4367  1.9289  0.7561
 1264TIP3    H225428   2.870   4.395   2.342  0.2243  0.7476 -0.6499
 1265TIP3   OH225429   4.404   3.377   0.948 -0.5357  0.2280 -0.0231
 1265TIP3    H125430   4.405   3.283   0.970 -0.3697  0.2241 -0.0474
 1265TIP3    H225431   4.467   3.416   1.008  0.7001  0.0654 -1.1514
 1266TIP3   OH225432   2.946   1.574   8.573 -0.2492  0.0514 -0.1543
 1266TIP3    H125433   2.884   1.628   8.523  1.9942  2.7032 -0.3386
 1266TIP3    H225434   2.978   1.510   8.509 -0.2815  0.8907 -1.0535
 1267TIP3   OH225435   4.527   2.423   0.536 -0.1170 -0.4840  0.0638
 1267TIP3    H125436   4.594   2.355   0.527 -0.3998 -0.6148 -1.1721
 1267TIP3    H225437   4.559   2.496   0.483 -0.7504 -0.3881 -0.1964
 1268TIP3   OH225438   3.199   5.109   1.176 -0.1576  0.2039 -0.1365
 1268TIP3    H125439   3.160   5.049   1.112 -1.0752  0.6156  0.0141
 1268TIP3    H225440   3.240   5.177   1.123  1.9942 -1.1580 -0.3495
 1269TIP3   OH225441   5.138   0.482   2.250 -0.1402  0.8769 -0.2824
 1269TIP3    H125442   5.050   0.457   2.222  1.1652  0.0549 -4.3336
 1269TIP3    H225443   5.165   0.549   2.187  2.0449  1.3561  1.0452
 1270TIP3   OH225444   2.854   6.728   2.841 -0.0757  0.5151 -0.2662
 1270TIP3    H125445   2.842   6.764   2.929 -2.9632  0.9996 -0.7534
 1270TIP3    H225446   2.829   6.636   2.849 -1.2233  0.7747 -0.7247
 1271TIP3   OH225447   1.885   0.917   2.294  0.3883 -0.0902  0.4656
 1271TIP3    H125448   1.923   0.862   2.225  0.7220  1.8952 -1.0371
 1271TIP3    H225449   1.954   0.927   2.359  1.2082  0.5694 -0.4871
 1272TIP3   OH225450   5.744   5.335   3.684 -0.4259  0.2721  0.3761
 1272TIP3    H125451   5.683   5.409   3.693 -0.4233  0.3121  0.0508
 1272TIP3    H225452   5.696   5.271   3.632  0.7806  1.3792 -2.2542
 1273TIP3   OH225453   0.802   2.598   1.697  0.0785  0.2480 -0.0251
 1273TIP3    H125454   0.832   2.582   1.608  1.7661  0.7038  0.4335
 1273TIP3    H225455   0.709   2.620   1.687  0.2835  0.4924 -1.6819
 1274TIP3   OH225456   3.505   3.767   2.413 -0.1099  0.1370  0.7663
 1274TIP3    H125457   3.442   3.831   2.380 -1.5563 -0.5895  1.9739
 1274TIP3    H225458   3.562   3.816   2.472 -1.4690  0.2933  2.0163
 1275TIP3   OH225459   5.792   4.586   0.893  0.2729  0.0020  0.4850
 1275TIP3    H125460   5.732   4.649   0.933 -0.7825 -0.0739 -0.8998
 1275TIP3    H225461   5.828   4.632   0.817 -1.3919 -1.3656 -1.2249
 1276TIP3   OH225462   1.540   0.204   3.172  0.3370 -0.0878  0.4293
 1276TIP3    H125463   1.590   0.285   3.185 -0.1108  0.5146 -1.3594
 1276TIP3    H225464   1.605   0.134   3.176  1.1466  0.5865 -0.5746
 1277TIP3   OH225465   3.764   3.428   0.638  0.5344  0.4813 -0.3831
 1277TIP3    H125466   3.755   3.383   0.554  0.0506  0.0102 -0.0893
 1277TIP3    H225467   3.688   3.398   0.689  0.4927  1.2213  0.0099
 1278TIP3   OH225468   1.476   5.494   1.660 -0.8134  0.8678 -0.3279
 1278TIP3    H125469   1.481   5.419   1.602 -2.2530 -0.3142  0.9640
 1278TIP3    H225470   1.524   5.467   1.738 -0.4934  1.6806 -0.2412
 1279TIP3   OH225471   0.067   1.122   2.825  0.1732  0.1211 -0.3834
 1279TIP3    H125472   0.159   1.096   2.816 -0.1410 -0.9327 -0.7329
 1279TIP3    H225473   0.030   1.055   2.883 -0.3487  0.6093 -0.1489
 1280TIP3   OH225474   6.711   6.843   1.497  0.2037 -0.5195  0.7672
 1280TIP3    H125475   6.649   6.882   1.435  1.5050  0.2446 -0.0847
 1280TIP3    H225476   6.708   6.749   1.477  0.8755 -0.2485 -0.7399
 1281TIP3   OH225477   6.006   5.668   3.121 -0.6013 -0.1255 -0.2798
 1281TIP3    H125478   6.034   5.713   3.200 -1.3661  0.1052 -0.1341
 1281TIP3    H225479   5.962   5.735   3.069 -1.2067 -0.5573 -0.3359
 1282TIP3   OH225480   0.773   6.507   8.537 -0.4275 -0.0303  0.0916
 1282TIP3    H125481   0.722   6.516   8.457 -0.4155  0.5232  0.1392
 1282TIP3    H225482   0.719   6.549   8.604 -0.3022 -0.2247  0.3133
 1283TIP3   OH225483   5.457   4.612   1.301  0.3720  0.4319  0.7613
 1283TIP3    H125484   5.519   4.598   1.373 -0.0281  2.5913  1.6072
 1283TIP3    H225485   5.448   4.707   1.295  2.2767  0.5807 -3.8385
 1284TIP3   OH225486   2.512   6.547   2.754 -0.6408 -0.0857  0.2111
 1284TIP3    H125487   2.453   6.592   2.814  2.2526  2.5000  1.3665
 1284TIP3    H225488   2.563   6.488   2.811  0.5893  0.7150 -0.0269
 1285TIP3   OH225489   6.585   5.774   3.034 -0.4322  0.5660 -0.6372
 1285TIP3    H125490   6.580   5.716   3.110 -0.9098  0.9575 -0.3624
 1285TIP3    H225491   6.676   5.805   3.033 -0.0558 -0.5208 -1.0453
 1286TIP3   OH225492   6.537   4.701   0.589  0.2533 -0.8493  0.1480
 1286TIP3    H125493   6.480   4.762   0.543  0.3928 -1.5016 -0.9261
 1286TIP3    H225494   6.521   4.616   0.547  1.5563 -1.1635  0.2257
 1287TIP3   OH225495   1.294   2.101   1.469  0.3870  0.5580  0.4124
 1287TIP3    H125496   1.291   2.194   1.447  0.5107  0.9476  1.9217
 1287TIP3    H225497   1.387   2.080   1.472  0.3431  0.1164 -0.9230
 1288TIP3   OH225498   5.598   6.351   3.731 -0.0271 -0.3417  0.2371
 1288TIP3    H125499   5.574   6.352   3.823 -0.5355 -0.3410  0.1036
 1288TIP3    H225500   5.692   6.333   3.731 -0.0492 -0.4521  0.7491
 1289TIP3   OH225501   6.693   3.593   0.481 -0.0466 -0.2668  0.1794
 1289TIP3    H125502   6.714   3.552   0.565  1.2150 -1.4037 -0.6494
 1289TIP3    H225503   6.610   3.554   0.455  0.3955 -1.2129  0.1237
 1290TIP3   OH225504   3.202   3.982   0.180  0.0860  0.0233 -0.3202
 1290TIP3    H125505   3.164   3.946   0.100 -2.7277 -0.3316  1.0438
 1290TIP3    H225506   3.228   3.905   0.231 -0.5151  0.1356  0.1635
 1291TIP3   OH225507   4.216   5.339   3.000  0.2764  0.2065  0.2968
 1291TIP3    H125508   4.208   5.255   2.955  1.7405  0.9827 -1.5147
 1291TIP3    H225509   4.223   5.404   2.930 -1.4489  1.9629  1.6373
 1292TIP3   OH225510   0.889   4.731   0.998 -0.1133 -0.1558 -0.0928
 1292TIP3    H125511   0.829   4.669   1.040 -0.2556  1.4137  2.2654
 1292TIP3    H225512   0.976   4.706   1.030 -0.0264  0.0976 -0.1283
 1293TIP3   OH225513   5.041   6.197   1.633  0.1724  0.4926 -0.6953
 1293TIP3    H125514   4.982   6.123   1.645  0.6372  0.1065 -0.7562
 1293TIP3    H225515   5.071   6.220   1.721  0.0602  0.5795 -0.6802
 1294TIP3   OH225516   1.797   5.426   0.589  0.0411 -0.3619 -0.7217
 1294TIP3    H125517   1.886   5.461   0.584  0.1926 -0.2877  1.4679
 1294TIP3    H225518   1.808   5.331   0.588  0.1995 -0.3556  0.0191
 1295TIP3   OH225519   5.494   6.397   2.869  0.2294  0.1505 -0.1527
 1295TIP3    H125520   5.540   6.320   2.902  0.4550  0.0673 -0.6520
 1295TIP3    H225521   5.564   6.460   2.850 -0.0086  0.8959  1.2649
 1296TIP3   OH225522   1.574   6.542   2.506  0.0824 -0.1617  0.0800
 1296TIP3    H125523   1.623   6.608   2.458 -0.3809  1.0645  1.2470
 1296TIP3    H225524   1.487   6.543   2.466 -0.1875  0.5772  0.6803
 1297TIP3   OH225525   1.520   3.106   2.922  0.2867  0.7008  0.4421
 1297TIP3    H125526   1.511   3.195   2.954 -1.3170  0.1136  1.8026
 1297TIP3    H225527   1.440   3.062   2.952  1.1436 -1.2418  0.0293
 1298TIP3   OH225528   6.835   4.862   3.615 -0.3590 -0.4757 -0.1053
 1298TIP3    H125529   6.859   4.775   3.648  0.0354 -0.9217 -1.5189
 1298TIP3    H225530   6.791   4.845   3.532 -0.9980  0.6415 -0.0145
 1299TIP3   OH225531   5.829   5.049   3.249 -0.3632  0.1194 -0.3303
 1299TIP3    H125532   5.797   5.091   3.329 -1.5459 -0.8202 -0.2881
 1299TIP3    H225533   5.844   4.958   3.274 -1.8228 -0.4596 -1.4205
 1300TIP3   OH225534   4.103   2.671   7.995  0.1539  0.3425  0.4792
 1300TIP3    H125535   4.094   2.595   8.052 -1.3525 -0.4153 -0.6868
 1300TIP3    H225536   4.065   2.743   8.044  1.3485  0.3236  1.4891
 1301TIP3   OH225537   1.693   1.466   3.210  0.1708 -0.3625 -0.1157
 1301TIP3    H125538   1.731   1.464   3.298 -0.4345  1.3785  0.2250
 1301TIP3    H225539   1.684   1.560   3.190 -3.5156 -0.6012 -0.3143
 1302TIP3   OH225540   2.579   3.363   0.146 -0.2358 -0.6907  0.3556
 1302TIP3    H125541   2.648   3.348   0.211  0.3917 -2.0336 -0.5650
 1302TIP3    H225542   2.626   3.376   0.064 -1.0571 -0.3633 -0.0785
 1303TIP3   OH225543   3.605   0.762   0.986  0.4885 -0.4947  0.4417
 1303TIP3    H125544   3.547   0.793   0.916  1.9976  0.9150 -0.2643
 1303TIP3    H225545   3.633   0.675   0.958 -0.7888 -0.9474  0.5076
 1304TIP3   OH225546   2.918   1.716   2.128 -0.1183  0.6501  0.2715
 1304TIP3    H125547   2.927   1.715   2.033  1.1287  2.0913  0.3386
 1304TIP3    H225548   2.964   1.795   2.156 -0.1182  0.0530  2.1139
 1305TIP3   OH225549   5.360   2.850   0.411  0.0969  0.1310  0.2031
 1305TIP3    H125550   5.283   2.815   0.367  0.4522 -0.7330  0.2484
 1305TIP3    H225551   5.326   2.893   0.489 -0.4733  1.0922 -0.5620
 1306TIP3   OH225552   0.609   4.892   1.464  0.2264 -0.3554 -0.0711
 1306TIP3    H125553   0.699   4.917   1.442 -0.2647  1.1176 -0.5145
 1306TIP3    H225554   0.586   4.947   1.539 -0.9209  0.6936 -1.1363
 1307TIP3   OH225555   1.525   3.898   0.443  0.1629  0.2436 -0.3463
 1307TIP3    H125556   1.478   3.859   0.369  0.8617 -0.7739 -0.2819
 1307TIP3    H225557   1.542   3.988   0.416 -0.6106  0.2200 -0.9376
 1308TIP3   OH225558   2.647   1.995   8.521 -0.3794  0.1465 -0.4610
 1308TIP3    H125559   2.715   2.063   8.516  0.5682 -0.5387  1.6983
 1308TIP3    H225560   2.568   2.043   8.546 -0.2266  0.6983 -0.9979
 1309TIP3   OH225561   1.521   1.181   8.455  0.1381 -0.2258  0.0967
 1309TIP3    H125562   1.574   1.131   8.393 -0.6332 -0.0938 -0.6889
 1309TIP3    H225563   1.431   1.161   8.431 -0.1729  0.2542  0.8374
 1310TIP3   OH225564   5.142   6.457   1.720 -0.0381  0.1155 -0.2271
 1310TIP3    H125565   5.163   6.421   1.634  3.5943 -0.3384  0.6805
 1310TIP3    H225566   5.186   6.542   1.722  0.0825  0.0367  1.2406
 1311TIP3   OH225567   4.067   2.937   0.601 -0.1381 -0.0590  0.2490
 1311TIP3    H125568   3.972   2.944   0.603 -0.0652  1.6770 -0.2912
 1311TIP3    H225569   4.086   2.873   0.532 -0.9074 -0.8628  0.7738
 1312TIP3   OH225570   5.313   5.717   3.802  0.4339  0.7077 -0.0316
 1312TIP3    H125571   5.307   5.805   3.839  1.7570  1.4202 -1.4160
 1312TIP3    H225572   5.348   5.663   3.873 -1.6959  0.9485  1.2751
 1313TIP3   OH225573   6.597   6.008   1.448 -0.0247  0.0278  0.4561
 1313TIP3    H125574   6.581   6.060   1.527 -1.1873 -0.4020  0.5252
 1313TIP3    H225575   6.574   6.066   1.376  1.1929  0.4758  0.4052
 1314TIP3   OH225576   5.210   6.262   0.302 -0.2137 -0.1499 -0.5561
 1314TIP3    H125577   5.259   6.247   0.222  0.4684 -1.3095  0.0409
 1314TIP3    H225578   5.199   6.174   0.340  0.2566  0.4450  1.0513
 1315TIP3   OH225579   6.314   4.130   3.398  0.3994  0.2429  0.6096
 1315TIP3    H125580   6.320   4.065   3.328 -0.4505  0.1609  0.6024
 1315TIP3    H225581   6.403   4.163   3.408  0.3396  1.1610 -1.3786
 1316TIP3   OH225582   6.773   3.863   0.400 -0.1354 -0.3352  0.7651
 1316TIP3    H125583   6.765   3.768   0.403  0.3304 -0.5489 -2.0213
 1316TIP3    H225584   6.851   3.882   0.453 -0.2350 -1.4761  1.3644
 1317TIP3   OH225585   1.971   2.499   2.209 -0.4742 -0.1422  0.5026
 1317TIP3    H125586   2.049   2.554   2.218 -0.2154 -0.6842  1.8444
 1317TIP3    H225587   1.899   2.560   2.195 -0.4364  0.7227  3.4660
 1318TIP3   OH225588   6.882   2.928   1.397  0.3866  0.4163 -0.7492
 1318TIP3    H125589   6.914   2.930   1.487  2.6273  0.8973 -1.4844
 1318TIP3    H225590   6.950   2.881   1.349 -1.0795 -0.4181 -2.1053
 1319TIP3   OH225591   0.220   3.534   3.003  0.5590 -0.1463  0.0592
 1319TIP3    H125592   0.125   3.527   2.996  0.4077  1.1046  0.6004
 1319TIP3    H225593   0.244   3.598   2.936  0.8982  0.3152  0.6145
 1320TIP3   OH225594   2.728   1.763   3.186 -0.9071 -0.1080 -0.0127
 1320TIP3    H125595   2.754   1.686   3.237 -3.1042  0.1884  1.6908
 1320TIP3    H225596   2.764   1.747   3.099  1.7346 -1.3387  1.1960
 1321TIP3   OH225597   4.523   6.632   0.846 -0.0521 -0.2330  0.4354
 1321TIP3    H125598   4.523   6.720   0.884 -1.5498 -0.0641  0.1246
 1321TIP3    H225599   4.599   6.589   0.885  0.0859  0.8481  1.4240
 1322TIP3   OH225600   4.506   2.342   0.103 -0.3977  0.3441 -0.0159
 1322TIP3    H125601   4.559   2.272   0.064 -0.7618 -1.4465  2.4591
 1322TIP3    H225602   4.569   2.410   0.126  0.4799 -0.5890  0.4412
 1323TIP3   OH225603   2.689   5.374   3.373 -0.3431 -0.1126 -0.2708
 1323TIP3    H125604   2.729   5.458   3.349 -3.5480  1.3151 -1.1778
 1323TIP3    H225605   2.710   5.364   3.466  1.0503  1.1072 -0.4097
 1324TIP3   OH225606   4.118   5.302   1.064  0.8791 -0.0419 -0.1878
 1324TIP3    H125607   4.079   5.376   1.112  2.8433  0.5878  0.5405
 1324TIP3    H225608   4.089   5.314   0.974 -0.8752  0.1752  0.3788
 1325TIP3   OH225609   0.114   1.846   3.145 -0.0997  0.6070  0.1539
 1325TIP3    H125610   0.076   1.908   3.208 -1.7035 -0.6529  0.5015
 1325TIP3    H225611   0.038   1.798   3.110  0.8307  0.6268 -2.0792
 1326TIP3   OH225612   5.142   5.087   1.154  0.0255  0.4992  0.4168
 1326TIP3    H125613   5.107   5.077   1.242 -2.1078 -0.3163 -0.4657
 1326TIP3    H225614   5.185   5.004   1.135  1.3525  1.0211  1.0024
 1327TIP3   OH225615   5.387   6.305   0.707  0.4002 -0.4156  0.4512
 1327TIP3    H125616   5.310   6.322   0.761  1.3286  0.2156  1.6425
 1327TIP3    H225617   5.461   6.316   0.768  1.4659 -0.1479 -0.8588
 1328TIP3   OH225618   4.665   2.306   1.894 -0.2833 -0.2640 -0.9326
 1328TIP3    H125619   4.664   2.391   1.852  1.5523  0.2133 -0.1108
 1328TIP3    H225620   4.677   2.325   1.987 -1.6258 -1.3822 -0.4862
 1329TIP3   OH225621   6.331   0.978   3.144 -0.7879 -0.1040  0.2304
 1329TIP3    H125622   6.347   1.019   3.059  2.2649 -0.4311  0.5234
 1329TIP3    H225623   6.375   0.893   3.138 -0.2473 -0.0146  2.2028
 1330TIP3   OH225624   6.091   0.047   0.298  0.3893 -0.1218 -0.1010
 1330TIP3    H125625   6.050  -0.040   0.302 -1.3127  0.6074 -0.6936
 1330TIP3    H225626   6.055   0.086   0.218  1.3144  1.0413  0.0321
 1331TIP3   OH225627   3.825   2.649   2.730  0.2035  0.4705  0.4353
 1331TIP3    H125628   3.913   2.622   2.754  0.5731  2.5359  1.6432
 1331TIP3    H225629   3.789   2.690   2.809 -1.2435  1.0972 -0.4922
 1332TIP3   OH225630   3.837   1.452   2.632  0.0647 -0.2250 -0.4230
 1332TIP3    H125631   3.760   1.440   2.688  0.9705 -0.1526  0.8936
 1332TIP3    H225632   3.879   1.366   2.631  1.3281  0.3276  1.0161
 1333TIP3   OH225633   0.408   4.374   1.118 -0.4911 -0.2407  0.2101
 1333TIP3    H125634   0.376   4.319   1.189 -2.9084  0.4895 -0.2172
 1333TIP3    H225635   0.404   4.318   1.040  0.3448 -0.4802  0.3393
 1334TIP3   OH225636   1.893   0.360   1.454 -0.6428 -0.3505 -0.1947
 1334TIP3    H125637   1.928   0.279   1.489 -0.1941  0.1774  0.6180
 1334TIP3    H225638   1.960   0.426   1.475 -0.3650  0.0106 -2.0133
 1335TIP3   OH225639   1.807   6.137   2.044 -0.1823 -0.4256  0.1644
 1335TIP3    H125640   1.785   6.229   2.026  0.5796 -0.5995 -1.9400
 1335TIP3    H225641   1.755   6.088   1.981  0.1257 -1.3814  0.6484
 1336TIP3   OH225642   1.252   1.338   0.944  0.6970 -0.4707  0.4487
 1336TIP3    H125643   1.254   1.249   0.910  1.0189  0.2589 -1.5551
 1336TIP3    H225644   1.302   1.333   1.026  1.1659 -2.0082  0.1014
 1337TIP3   OH225645   6.538   6.570   3.322 -0.1078 -0.0459 -0.0380
 1337TIP3    H125646   6.518   6.486   3.281 -0.5395  0.5211 -1.0047
 1337TIP3    H225647   6.620   6.554   3.369  1.0709 -0.4050 -2.1088
 1338TIP3   OH225648   3.767   0.885   2.958  0.0043  0.0239  0.3715
 1338TIP3    H125649   3.777   0.909   2.865 -1.5004  0.0350  0.1973
 1338TIP3    H225650   3.784   0.791   2.960 -0.5442 -0.0858 -0.0172
 1339TIP3   OH225651   5.869   5.647   1.193  0.0767  0.2852 -0.5029
 1339TIP3    H125652   5.884   5.627   1.286 -0.0955 -1.1823 -0.7596
 1339TIP3    H225653   5.830   5.734   1.193  0.7823  0.6259  0.7498
 1340TIP3   OH225654   6.905   5.904   1.286  0.2310 -0.1568 -0.2645
 1340TIP3    H125655   6.982   5.849   1.301  0.5573  0.5135  0.6023
 1340TIP3    H225656   6.866   5.869   1.206  1.3850 -0.5663 -0.6707
 1341TIP3   OH225657   2.514   5.730   3.143 -0.1893  0.0140  0.1597
 1341TIP3    H125658   2.504   5.650   3.091  0.6210 -0.2131  0.3488
 1341TIP3    H225659   2.483   5.800   3.085 -0.0368 -0.3288 -0.3352
 1342TIP3   OH225660   6.201   3.271   1.747  0.0230 -0.3007  0.5250
 1342TIP3    H125661   6.201   3.219   1.666  2.0777 -0.0061  0.2792
 1342TIP3    H225662   6.210   3.361   1.717  0.0377 -0.1186  1.0686
 1343TIP3   OH225663   4.019   0.992   2.996 -0.0625  0.2776  0.3001
 1343TIP3    H125664   3.931   0.960   2.976 -0.3499  1.5961 -0.6946
 1343TIP3    H225665   4.005   1.063   3.058  0.2434  0.7911 -0.2026
 1344TIP3   OH225666   2.653   5.640   0.021 -0.2069 -0.1069 -0.5450
 1344TIP3    H125667   2.663   5.725   0.064  1.9194 -0.5682 -0.0391
 1344TIP3    H225668   2.603   5.588   0.083  1.9742 -0.4509  1.0516
 1345TIP3   OH225669   3.300   3.930   2.359 -0.4357 -0.1276  1.1015
 1345TIP3    H125670   3.320   3.994   2.427  0.5511 -0.6631  1.3372
 1345TIP3    H225671   3.319   3.976   2.277 -1.6384  0.5232  1.1497
 1346TIP3   OH225672   4.537   0.594   2.038 -0.7650 -0.1991 -0.8971
 1346TIP3    H125673   4.571   0.519   2.087 -2.2106 -0.3966 -0.1248
 1346TIP3    H225674   4.582   0.669   2.075 -0.6181 -0.5204 -0.4036
 1347TIP3   OH225675   6.639   3.535   1.320  0.0928  0.3012  0.1066
 1347TIP3    H125676   6.620   3.610   1.263 -0.6383  1.2704  1.5571
 1347TIP3    H225677   6.734   3.530   1.323  0.1657  1.5101  0.3833
 1348TIP3   OH225678   4.007   2.738   1.724 -0.5663 -0.2105 -0.4660
 1348TIP3    H125679   3.926   2.768   1.766 -0.4028  2.1681 -1.6822
 1348TIP3    H225680   4.042   2.672   1.784 -0.4259  2.7584  3.0991
 1349TIP3   OH225681   2.894   3.498   4.166 -0.0043  0.2814  0.2587
 1349TIP3    H125682   2.810   3.476   4.127  0.7570  2.0738 -2.7307
 1349TIP3    H225683   2.889   3.592   4.183  0.9251  0.1617  1.3131
 1350TIP3   OH225684   1.061   4.806   2.537  0.4527 -0.1426 -0.7985
 1350TIP3    H125685   1.022   4.800   2.450 -0.1215  0.6009 -0.6032
 1350TIP3    H225686   0.987   4.801   2.597  0.9419 -1.8951 -0.2782
 1351TIP3   OH225687   2.823   6.849   1.912  0.6137 -0.1711 -0.4653
 1351TIP3    H125688   2.903   6.869   1.862  1.4975 -1.5696  0.3154
 1351TIP3    H225689   2.780   6.780   1.861  0.7249 -0.5184 -0.0935
 1352TIP3   OH225690   0.107   4.509   3.236  0.6240 -0.0273 -0.8030
 1352TIP3    H125691   0.186   4.563   3.244  0.6595  0.1078 -1.8623
 1352TIP3    H225692   0.112   4.473   3.148 -0.7722  0.4427 -1.1071
 1353TIP3   OH225693   5.828   3.477   1.064 -0.2536  0.0956 -0.1669
 1353TIP3    H125694   5.887   3.490   1.138 -0.8903 -0.7698  0.5074
 1353TIP3    H225695   5.795   3.388   1.074  0.9240 -0.6656 -2.4316
 1354TIP3   OH225696   6.180   4.385   3.332 -0.1125 -0.2064 -0.1156
 1354TIP3    H125697   6.206   4.337   3.253  0.5825 -0.2596  0.1396
 1354TIP3    H225698   6.136   4.320   3.386  0.8992 -0.5847  0.2643
 1355TIP3   OH225699   5.722   0.544   2.847  0.3864  0.1533 -0.7922
 1355TIP3    H125700   5.685   0.624   2.884  2.7184  0.7597  0.4618
 1355TIP3    H225701   5.805   0.571   2.807  0.6735 -1.4484 -1.3756
 1356TIP3   OH225702   5.471   3.759   3.710  0.4867 -0.0775 -0.1376
 1356TIP3    H125703   5.430   3.845   3.723 -1.1596 -0.8411 -0.1220
 1356TIP3    H225704   5.430   3.703   3.775  2.5269 -0.6202  0.7856
 1357TIP3   OH225705   6.612   5.770   1.584  0.6570  0.5423  0.4398
 1357TIP3    H125706   6.563   5.850   1.565 -0.5704 -0.1946  0.4283
 1357TIP3    H225707   6.675   5.763   1.513 -0.5566  0.4570 -0.6572
 1358TIP3   OH225708   4.517   2.662   2.714 -0.2442  0.1332  0.5568
 1358TIP3    H125709   4.486   2.741   2.670 -0.4625 -0.7053 -0.8506
 1358TIP3    H225710   4.555   2.694   2.796 -0.5105  1.6721  0.1156
 1359TIP3   OH225711   2.715   2.662   2.034  0.1758 -0.4254 -0.3479
 1359TIP3    H125712   2.637   2.666   1.979  0.2398 -0.1438 -0.4184
 1359TIP3    H225713   2.693   2.715   2.111  1.2201  1.8601 -1.5290
 1360TIP3   OH225714   2.854   3.141   1.460 -0.0624 -0.0479 -0.4774
 1360TIP3    H125715   2.806   3.105   1.534  2.7104  0.7115  1.8395
 1360TIP3    H225716   2.819   3.229   1.449  0.0611  0.1295  0.4843
 1361TIP3   OH225717   4.249   1.596   1.921 -0.0082 -0.1723  0.3001
 1361TIP3    H125718   4.310   1.651   1.873 -0.5385 -0.7731 -1.1286
 1361TIP3    H225719   4.184   1.569   1.855 -0.9705 -0.7398  1.4384
 1362TIP3   OH225720   3.626   3.504   0.055  0.2402  0.4371  0.1074
 1362TIP3    H125721   3.655   3.413   0.050 -1.0380 -0.0039  0.3419
 1362TIP3    H225722   3.603   3.526  -0.035  0.0870  0.3644  0.1279
 1363TIP3   OH225723   3.436   1.568   0.864 -0.3666  0.0404 -0.0982
 1363TIP3    H125724   3.375   1.593   0.934  0.2713  0.6259  0.2617
 1363TIP3    H225725   3.443   1.473   0.873  0.5293  0.2056  1.3515
 1364TIP3   OH225726   4.085   6.659   0.764  0.1173 -0.8304 -0.2488
 1364TIP3    H125727   4.138   6.739   0.762 -1.2410  0.1402  0.2321
 1364TIP3    H225728   4.147   6.588   0.753  1.7091  0.1531  1.7483
 1365TIP3   OH225729   4.048   0.511   2.188 -0.1401 -0.1548  0.4890
 1365TIP3    H125730   4.142   0.522   2.182 -0.3734  1.1463 -1.6937
 1365TIP3    H225731   4.028   0.433   2.136 -0.3556  0.1362  0.1300
 1366TIP3   OH225732   0.005   1.279   2.497 -0.2614  0.1548 -0.0843
 1366TIP3    H125733   0.081   1.221   2.496  0.3438  0.9193  0.3144
 1366TIP3    H225734  -0.014   1.296   2.405 -0.8423 -1.1589 -0.2307
 1367TIP3   OH225735   5.105   5.681   7.822 -0.1334 -0.4955 -0.6585
 1367TIP3    H125736   5.083   5.774   7.828  0.4955 -0.4127  0.7102
 1367TIP3    H225737   5.200   5.679   7.836 -0.3566 -1.4589  0.9158
 1368TIP3   OH225738   0.575   1.514   1.914  0.8497 -0.2696 -0.1808
 1368TIP3    H125739   0.610   1.453   1.849  2.1582 -0.3256  0.5543
 1368TIP3    H225740   0.620   1.597   1.897 -1.6596  0.9040 -1.8509
 1369TIP3   OH225741   2.684   6.862   3.581  0.2884 -0.1538 -0.2518
 1369TIP3    H125742   2.719   6.944   3.616  0.4121  0.1094 -0.9733
 1369TIP3    H225743   2.722   6.794   3.637 -0.0608  0.2874  0.5462
 1370TIP3   OH225744   6.047   6.645   2.264  0.0143 -0.1495 -0.2403
 1370TIP3    H125745   5.964   6.602   2.245  0.2699 -0.9409  0.4158
 1370TIP3    H225746   6.056   6.712   2.195 -0.4515 -1.0356 -1.1774
 1371TIP3   OH225747   6.573   5.665   0.358 -0.7539 -0.4625  0.2486
 1371TIP3    H125748   6.558   5.731   0.290 -0.9440 -0.1009  0.6376
 1371TIP3    H225749   6.635   5.706   0.418  0.2214 -1.1682 -0.2414
 1372TIP3   OH225750   6.722   1.509   1.165  0.5526 -0.5282 -0.0727
 1372TIP3    H125751   6.645   1.533   1.113  1.4749  2.0615 -0.3473
 1372TIP3    H225752   6.778   1.461   1.105 -0.1054 -1.0212 -0.3115
 1373TIP3   OH225753   0.454   3.011   8.102 -0.1308  0.2097 -0.0849
 1373TIP3    H125754   0.363   2.989   8.121  0.3005 -0.3246  1.4343
 1373TIP3    H225755   0.503   2.932   8.125  0.6537  0.1636 -1.7389
 1374TIP3   OH225756   3.942   6.483   1.174 -0.3748 -0.5706  0.3633
 1374TIP3    H125757   3.865   6.434   1.145 -1.2167 -0.5556  2.4342
 1374TIP3    H225758   3.950   6.463   1.267  1.4777  0.3295  0.4396
 1375TIP3   OH225759   2.578   2.801   1.693 -0.0023  0.2430 -0.2652
 1375TIP3    H125760   2.549   2.774   1.779  0.0629 -3.1821 -1.1989
 1375TIP3    H225761   2.657   2.750   1.676  0.7820  1.8399 -1.8488
 1376TIP3   OH225762   1.731   4.360   2.632  0.1079 -0.0788 -0.0864
 1376TIP3    H125763   1.756   4.351   2.540  0.8699 -0.7989  0.1693
 1376TIP3    H225764   1.792   4.425   2.668 -0.7715  0.8698 -0.2895
 1377TIP3   OH225765   1.779   3.423   4.064 -0.1005 -0.0349  0.1521
 1377TIP3    H125766   1.756   3.445   3.974 -1.3864  0.1473  0.5178
 1377TIP3    H225767   1.726   3.481   4.118  1.9611  1.1447  1.0492
 1378TIP3   OH225768   5.421   1.810   2.095  0.3808  0.0965 -0.3007
 1378TIP3    H125769   5.410   1.740   2.030  0.6929 -0.2842  0.0519
 1378TIP3    H225770   5.514   1.806   2.118  0.4689  0.8380 -0.5126
 1379TIP3   OH225771   3.068   1.967   2.020  0.7258  0.0468  0.0563
 1379TIP3    H125772   3.045   2.046   1.970  0.3094  0.6614  1.1745
 1379TIP3    H225773   3.062   1.896   1.957  1.6015  0.9630 -1.1095
 1380TIP3   OH225774   4.568   1.864   0.747 -0.3448 -0.5115 -0.1189
 1380TIP3    H125775   4.524   1.784   0.718 -0.7353 -0.5526  0.5568
 1380TIP3    H225776   4.612   1.839   0.827 -0.2503 -0.1127 -0.0470
 1381TIP3   OH225777   4.061   0.103   8.234 -0.6044  0.3357  0.3570
 1381TIP3    H125778   4.114   0.120   8.156 -0.2844 -0.1970  0.4558
 1381TIP3    H225779   3.971   0.100   8.202 -0.5397  0.8073  0.1191
 1382TIP3   OH225780   4.887   5.690   1.607 -0.2870  0.3389  0.3803
 1382TIP3    H125781   4.980   5.710   1.603  0.1245 -1.5457 -0.2669
 1382TIP3    H225782   4.880   5.613   1.663 -1.1591 -0.9832 -1.4441
 1383TIP3   OH225783   0.091   5.973   0.180 -0.7332  0.3031 -0.1370
 1383TIP3    H125784   0.072   5.897   0.126 -1.2112  2.0280 -2.5774
 1383TIP3    H225785   0.006   5.996   0.219 -0.4763 -0.6835  1.0648
 1384TIP3   OH225786   6.312   5.852   3.018  0.2135 -0.0073  0.6587
 1384TIP3    H125787   6.381   5.789   3.041  1.6321  0.9436 -0.8109
 1384TIP3    H225788   6.242   5.797   2.983  0.9961 -0.8847  0.3927
 1385TIP3   OH225789   3.736   1.231   2.892 -0.0023 -0.0630  0.1335
 1385TIP3    H125790   3.800   1.210   2.825  1.0631 -0.9105  1.3705
 1385TIP3    H225791   3.764   1.315   2.928  0.1926 -0.2375  0.3956
 1386TIP3   OH225792   2.355   3.317   2.937  0.5840 -0.1446  0.3038
 1386TIP3    H125793   2.281   3.343   2.993 -1.1633 -0.3532 -1.8096
 1386TIP3    H225794   2.415   3.392   2.942 -0.6070  0.8188  0.6516
 1387TIP3   OH225795   2.059   2.231   2.195  0.5921 -0.7592  0.1985
 1387TIP3    H125796   2.150   2.253   2.178  0.4214  0.5480  0.8451
 1387TIP3    H225797   2.012   2.314   2.186 -0.6623 -1.5477 -0.8888
 1388TIP3   OH225798   5.547   3.684   1.877  0.0175 -0.1734 -0.2508
 1388TIP3    H125799   5.585   3.613   1.930  0.2308 -1.4422 -2.0030
 1388TIP3    H225800   5.491   3.732   1.938 -0.2751 -1.9593  0.9712
 1389TIP3   OH225801   5.961   1.807   0.127  0.0437  0.0423  1.0037
 1389TIP3    H125802   5.908   1.886   0.138 -0.0593 -0.0180  0.9304
 1389TIP3    H225803   5.998   1.791   0.214  1.5864  1.2682  0.6196
 1390TIP3   OH225804   1.381   0.503   1.067 -0.2106  0.3270  0.0620
 1390TIP3    H125805   1.314   0.454   1.019  1.5595 -0.8734 -1.3120
 1390TIP3    H225806   1.341   0.523   1.151 -2.5206  0.2492 -0.9411
 1391TIP3   OH225807   4.439   5.207   1.419 -0.2730 -0.0753  0.3075
 1391TIP3    H125808   4.379   5.217   1.493 -1.2825  0.6190 -0.5645
 1391TIP3    H225809   4.505   5.275   1.433 -1.8318  1.7445 -0.6535
 1392TIP3   OH225810   6.491   6.579   0.018  0.5300  0.7616  0.5498
 1392TIP3    H125811   6.425   6.509   0.014 -0.0408  1.3644 -1.8778
 1392TIP3    H225812   6.444   6.654   0.054  0.1758  0.9003 -0.2005
 1393TIP3   OH225813   5.605   6.869   0.860 -0.1486 -0.3213 -0.8036
 1393TIP3    H125814   5.573   6.893   0.947  0.9600 -1.0516 -0.1670
 1393TIP3    H225815   5.589   6.775   0.854  3.0944 -1.0736  0.1748
 1394TIP3   OH225816   5.630   0.032   2.473 -0.1050  0.8889  0.0877
 1394TIP3    H125817   5.626   0.123   2.444 -0.7756  0.5328 -1.0113
 1394TIP3    H225818   5.539   0.006   2.484  0.1042  0.9559  2.5073
 1395TIP3   OH225819   5.618   3.810   3.145  0.2348  0.3497  0.6035
 1395TIP3    H125820   5.543   3.858   3.110  0.4895  0.1851 -0.1988
 1395TIP3    H225821   5.639   3.854   3.227 -0.2867  0.8514  0.4738
 1396TIP3   OH225822   1.807   4.612   1.673  0.1629 -0.1937  0.3933
 1396TIP3    H125823   1.815   4.541   1.737 -0.0917 -1.1252 -0.5816
 1396TIP3    H225824   1.753   4.678   1.717  0.4660 -0.5624  1.3396
 1397TIP3   OH225825   2.479   5.237   3.016  0.3654  0.2515 -0.3757
 1397TIP3    H125826   2.411   5.243   3.083  1.5578 -0.3539  0.9345
 1397TIP3    H225827   2.537   5.312   3.033  0.1798  0.6387 -1.3432
 1398TIP3   OH225828   3.379   1.181   1.762 -0.3718 -0.2461  0.0139
 1398TIP3    H125829   3.460   1.131   1.772  0.0033  0.5199  0.9412
 1398TIP3    H225830   3.367   1.189   1.667 -1.2344 -3.3036 -0.2395
 1399TIP3   OH225831   2.379   5.429   8.340 -0.1302 -0.2779  0.4708
 1399TIP3    H125832   2.315   5.500   8.333  0.3579  0.2544  1.2651
 1399TIP3    H225833   2.338   5.355   8.296 -0.9391  0.2963  0.2442
 1400TIP3   OH225834   1.525   6.874   1.493 -0.5171  0.0629 -0.3037
 1400TIP3    H125835   1.501   6.839   1.578 -1.5180 -1.1867 -1.0618
 1400TIP3    H225836   1.524   6.798   1.434  1.2397  0.6928 -1.2296
 1401TIP3   OH225837   0.418   5.361   3.102 -0.4444  0.1981  0.0749
 1401TIP3    H125838   0.389   5.430   3.161 -0.6606  0.3127 -0.1627
 1401TIP3    H225839   0.391   5.279   3.144 -3.4225  0.3492 -1.3027
 1402TIP3   OH225840   6.623   5.610   2.415  0.6536  0.3035 -0.2563
 1402TIP3    H125841   6.668   5.597   2.331 -0.5759  2.1283 -1.2594
 1402TIP3    H225842   6.539   5.566   2.404 -0.4045  2.3506 -0.8611
 1403TIP3   OH225843   1.199   4.900   3.763  0.1509 -0.0513 -0.5132
 1403TIP3    H125844   1.191   4.993   3.782  0.2486  0.1048 -1.1926
 1403TIP3    H225845   1.139   4.857   3.824 -0.0108  0.4699 -0.3055
 1404TIP3   OH225846   6.587   3.014   2.176 -0.4370 -0.0448  0.2788
 1404TIP3    H125847   6.604   3.075   2.104  2.1584  0.2393  0.9982
 1404TIP3    H225848   6.515   2.960   2.146 -0.8087  1.4183 -1.6517
 1405TIP3   OH225849   0.924   1.827   3.028 -0.0771 -0.5202  0.5436
 1405TIP3    H125850   1.016   1.840   3.007 -0.4387  0.3534 -0.6760
 1405TIP3    H225851   0.923   1.797   3.118  1.3051  1.2488  1.2018
 1406TIP3   OH225852   1.130   6.219   2.539  0.7036 -0.3492 -0.4144
 1406TIP3    H125853   1.072   6.205   2.464  2.1950 -0.0707 -1.6711
 1406TIP3    H225854   1.075   6.200   2.615 -0.7839 -0.9310 -1.5712
 1407TIP3   OH225855   2.750   4.154   0.445  0.3946  0.1975  0.0210
 1407TIP3    H125856   2.707   4.230   0.483  0.8005  0.7034 -0.5062
 1407TIP3    H225857   2.743   4.086   0.512 -0.3218  0.5769  0.3381
 1408TIP3   OH225858   1.674   2.715   3.941 -0.0238 -0.1000  0.4259
 1408TIP3    H125859   1.682   2.632   3.893 -0.0903 -0.5312  1.1536
 1408TIP3    H225860   1.758   2.758   3.928  0.0039 -0.2663  0.0243
 1409TIP3   OH225861   0.079   5.517   1.139 -0.3248  0.0434 -0.3234
 1409TIP3    H125862   0.132   5.595   1.122 -0.4373  0.1399 -0.2292
 1409TIP3    H225863   0.102   5.457   1.068 -0.2170  0.1508 -0.3799
 1410TIP3   OH225864   2.875   5.096   8.072  0.8336  0.2621 -0.1813
 1410TIP3    H125865   2.839   5.185   8.065  2.2345  0.8139 -0.9086
 1410TIP3    H225866   2.851   5.054   7.989 -0.6397 -0.3968  0.5384
 1411TIP3   OH225867   1.714   2.594   1.353  0.4291 -0.1702  0.3198
 1411TIP3    H125868   1.638   2.652   1.352  1.1984  0.8598  0.2344
 1411TIP3    H225869   1.681   2.513   1.393 -0.3492  0.7636  1.6658
 1412TIP3   OH225870   2.623   3.253   2.730 -0.3665  0.3490 -0.4212
 1412TIP3    H125871   2.576   3.316   2.675  0.7117 -2.4375 -5.0266
 1412TIP3    H225872   2.715   3.281   2.724  0.3810 -2.1685 -3.8788
 1413TIP3   OH225873   1.505   5.940   2.654 -0.1103 -0.0565 -0.3887
 1413TIP3    H125874   1.477   5.848   2.655  0.1644 -0.1397  0.0353
 1413TIP3    H225875   1.542   5.954   2.742  1.8543 -0.1630 -1.1447
 1414TIP3   OH225876   4.833   5.408   1.692 -0.1319  0.1306 -0.4407
 1414TIP3    H125877   4.868   5.326   1.658 -2.0255 -0.9533  0.0270
 1414TIP3    H225878   4.762   5.431   1.631 -1.2389  0.0567  0.7719
 1415TIP3   OH225879   0.928   0.957   1.052 -0.4363 -0.1529 -0.1920
 1415TIP3    H125880   0.996   0.927   0.992  1.1220  2.4643  0.1039
 1415TIP3    H225881   0.847   0.925   1.014  0.6447 -0.1339 -2.7264
 1416TIP3   OH225882   6.825   5.021   2.927 -0.7101 -0.1688 -0.3127
 1416TIP3    H125883   6.776   5.099   2.897 -1.4863 -0.3990  0.3145
 1416TIP3    H225884   6.860   4.983   2.847 -2.9748 -0.9338 -1.0288
 1417TIP3   OH225885   0.301   4.682   3.175 -0.1112  0.0273  0.3828
 1417TIP3    H125886   0.390   4.662   3.146 -0.2702 -1.6859  0.9871
 1417TIP3    H225887   0.258   4.717   3.097  1.2710  1.6533  0.2757
 1418TIP3   OH225888   3.451   6.647   2.071  0.0993  0.4178  0.2404
 1418TIP3    H125889   3.497   6.725   2.043  1.2796  0.2615  1.5997
 1418TIP3    H225890   3.473   6.581   2.006  1.1119  0.5890  0.3914
 1419TIP3   OH225891   0.920   1.039   8.364  0.1306 -0.6299  0.0631
 1419TIP3    H125892   1.007   1.003   8.377  0.1514 -0.0828  1.7068
 1419TIP3    H225893   0.925   1.128   8.399 -1.6132 -1.2978  2.3203
 1420TIP3   OH225894   5.140   2.055   1.872  0.2427  0.5988 -0.0814
 1420TIP3    H125895   5.133   1.971   1.917 -1.2466 -0.1493 -1.5667
 1420TIP3    H225896   5.049   2.078   1.851  0.5750  2.8939  0.8029
 1421TIP3   OH225897   0.450   0.838   0.186  0.2308 -0.3359 -0.2398
 1421TIP3    H125898   0.450   0.772   0.256  0.0710 -0.2720 -0.1815
 1421TIP3    H225899   0.368   0.824   0.140  0.2185 -0.2072 -0.2565
 1422TIP3   OH225900   1.409   2.269   3.968  0.0136 -0.0748  0.0691
 1422TIP3    H125901   1.501   2.255   3.945 -0.0782  1.8728 -1.7680
 1422TIP3    H225902   1.412   2.327   4.045  0.3307  0.3612 -0.2675
 1423TIP3   OH225903   5.484   4.308   0.655  0.8767  0.4494 -0.2154
 1423TIP3    H125904   5.502   4.217   0.680 -2.6993  0.1626  2.0312
 1423TIP3    H225905   5.504   4.359   0.733 -0.5230  1.0872 -0.2561
 1424TIP3   OH225906   2.407   0.573   2.365 -0.0177  0.2001  0.0958
 1424TIP3    H125907   2.359   0.654   2.346 -0.8805 -0.2998  0.1074
 1424TIP3    H225908   2.378   0.548   2.452  2.2191  1.2608  1.2435
 1425TIP3   OH225909   4.492   0.090   2.386 -0.3488  0.1284 -0.5763
 1425TIP3    H125910   4.422   0.137   2.341  0.4438 -0.0473 -2.0307
 1425TIP3    H225911   4.453   0.007   2.413 -0.9342  0.3962 -0.5866
 1426TIP3   OH225912   5.361   1.190   0.018  0.3086  0.6967 -0.0746
 1426TIP3    H125913   5.419   1.169   0.091 -0.8463 -1.1836  0.3458
 1426TIP3    H225914   5.408   1.158  -0.059  0.4736  0.5154  0.0986
 1427TIP3   OH225915   5.859   5.442   3.380  0.1234  0.2327 -0.1137
 1427TIP3    H125916   5.829   5.531   3.363 -1.2913 -0.1194  0.3898
 1427TIP3    H225917   5.890   5.444   3.471  1.0715  0.4464 -0.4339
 1428TIP3   OH225918   4.949   2.360   3.862  0.2235  0.3220  0.7334
 1428TIP3    H125919   4.877   2.333   3.804 -1.2552 -1.7429  3.3091
 1428TIP3    H225920   5.020   2.299   3.842 -0.8767 -1.5059  2.1422
 1429TIP3   OH225921   0.060   0.252   2.752 -0.4397  0.6401 -0.6690
 1429TIP3    H125922   0.095   0.334   2.718 -0.2552  1.8403  2.1720
 1429TIP3    H225923   0.107   0.237   2.834 -2.6699 -0.6006  0.4934
 1430TIP3   OH225924   2.970   4.963   0.713  0.1652 -0.2679  0.1872
 1430TIP3    H125925   3.023   4.911   0.653 -0.2321  1.6351 -1.9694
 1430TIP3    H225926   3.003   5.052   0.702 -0.9375  0.3653  1.7233
 1431TIP3   OH225927   6.925   6.244   8.317  0.0690  0.1968 -0.1702
 1431TIP3    H125928   6.924   6.171   8.255  0.3411  0.0972 -0.0600
 1431TIP3    H225929   6.897   6.206   8.400 -2.8886  0.8453 -0.7648
 1432TIP3   OH225930   6.333   1.334   2.035  0.4831 -0.2346  0.4392
 1432TIP3    H125931   6.384   1.275   1.980 -1.2219 -1.5895  0.2353
 1432TIP3    H225932   6.375   1.420   2.023  1.7140 -0.9817 -0.9228
 1433TIP3   OH225933   1.928   3.597   3.862  0.5300 -0.0446  0.6814
 1433TIP3    H125934   1.850   3.562   3.819  1.5312 -0.4852 -0.8605
 1433TIP3    H225935   1.907   3.595   3.955 -0.3997 -2.4481  0.4974
 1434TIP3   OH225936   1.258   2.729   2.871  0.4142  0.2421 -0.7256
 1434TIP3    H125937   1.341   2.766   2.900  0.1749 -0.0288  0.3719
 1434TIP3    H225938   1.275   2.635   2.863 -0.2096 -0.0902  1.2622
 1435TIP3   OH225939   0.283   3.939   2.511  0.3787 -1.5641 -0.1987
 1435TIP3    H125940   0.205   3.986   2.481  1.4897  0.9879  0.6433
 1435TIP3    H225941   0.298   3.873   2.444 -1.6052 -1.0990 -1.1864
 1436TIP3   OH225942   3.836   3.356   2.638 -0.6541 -0.5128  0.3619
 1436TIP3    H125943   3.931   3.361   2.629 -0.5919  0.4286  1.3212
 1436TIP3    H225944   3.820   3.276   2.688 -0.4808 -1.4724 -1.0913
 1437TIP3   OH225945   4.588   4.546   3.141 -0.6401 -0.6265  0.0193
 1437TIP3    H125946   4.532   4.468   3.137 -0.7663 -0.5385  0.0358
 1437TIP3    H225947   4.532   4.612   3.183 -0.1001 -0.9060  1.2201
 1438TIP3   OH225948   6.122   2.129   1.942 -0.1701 -0.1215  0.2973
 1438TIP3    H125949   6.173   2.069   1.997 -1.6338 -2.3209 -0.6195
 1438TIP3    H225950   6.176   2.142   1.864  0.4501  0.3253  0.7893
 1439TIP3   OH225951   0.110   4.313   1.813 -0.7139  0.5871  0.3008
 1439TIP3    H125952   0.110   4.242   1.877 -1.5025  0.8100  0.5578
 1439TIP3    H225953   0.165   4.280   1.742 -0.7616 -0.1301  0.5819
 1440TIP3   OH225954   0.090   5.611   7.928  0.3067  0.4287  0.4757
 1440TIP3    H125955   0.095   5.684   7.866  1.7754 -1.2071 -1.4936
 1440TIP3    H225956   0.169   5.619   7.981  0.5841  0.1597  0.1070
 1441TIP3   OH225957   6.932   5.852   3.339 -0.1150  0.4230 -0.2706
 1441TIP3    H125958   6.940   5.923   3.403  0.9735  0.6088 -0.5961
 1441TIP3    H225959   6.846   5.814   3.356 -0.0483  0.7872  0.9878
 1442TIP3   OH225960   0.720   5.740   3.312  0.2276  0.6536 -0.8599
 1442TIP3    H125961   0.683   5.658   3.343  0.3070  0.9065 -0.0549
 1442TIP3    H225962   0.645   5.789   3.277  0.1580  0.3019 -1.2022
 1443TIP3   OH225963   5.170   4.996   1.694 -0.6153  0.2495 -0.1833
 1443TIP3    H125964   5.156   4.916   1.745 -0.5823  0.0272 -0.5214
 1443TIP3    H225965   5.263   4.994   1.673 -0.9709 -0.6491 -1.8766
 1444TIP3   OH225966   1.512   2.321   0.759 -0.0243 -0.3388 -0.3268
 1444TIP3    H125967   1.598   2.361   0.768 -0.5145  0.2689  3.2410
 1444TIP3    H225968   1.530   2.228   0.745  1.1141  0.1995 -2.9467
 1445TIP3   OH225969   5.944   3.295   2.107  0.0894  0.1190 -0.2201
 1445TIP3    H125970   6.007   3.299   2.179 -0.7065 -0.3887  0.5302
 1445TIP3    H225971   5.894   3.215   2.124 -2.5380  1.8489  0.7472
 1446TIP3   OH225972   2.693   2.983   3.468 -0.1472 -0.5892  0.1357
 1446TIP3    H125973   2.613   3.033   3.487  0.9138  0.5382  1.9805
 1446TIP3    H225974   2.712   3.002   3.376 -1.3099  0.1228  0.0185
 1447TIP3   OH225975   0.719   5.026   2.989  0.2056  0.5276 -0.0366
 1447TIP3    H125976   0.642   4.974   2.967 -1.1212  2.2475  0.3111
 1447TIP3    H225977   0.691   5.079   3.064  2.2957 -0.0167  1.2164
 1448TIP3   OH225978   0.874   1.857   1.007  0.3243 -0.2439  0.5880
 1448TIP3    H125979   0.796   1.907   1.032 -0.6898 -1.7945  0.6150
 1448TIP3    H225980   0.946   1.919   1.018 -0.6849  0.6924  2.2766
 1449TIP3   OH225981   1.489   5.105   0.558 -0.2434 -0.3649  0.1242
 1449TIP3    H125982   1.540   5.153   0.623  1.9274  0.3176 -1.9550
 1449TIP3    H225983   1.400   5.138   0.569  0.8763  3.2020 -0.2117
 1450TIP3   OH225984   3.320   0.064   2.556  0.7029 -0.2570 -0.2219
 1450TIP3    H125985   3.333  -0.031   2.563 -0.6924 -0.5860 -1.6273
 1450TIP3    H225986   3.359   0.087   2.472  1.3558  0.4971  0.2760
 1451TIP3   OH225987   5.610   3.341   2.918 -0.6072  0.4479  0.1599
 1451TIP3    H125988   5.645   3.383   2.839 -1.6148  5.3008  1.8863
 1451TIP3    H225989   5.688   3.323   2.972 -0.1433  2.4566  0.2469
 1452TIP3   OH225990   1.395   0.989   0.165 -0.0067 -0.3103  0.5829
 1452TIP3    H125991   1.322   0.932   0.138 -0.0947  0.0576  0.0176
 1452TIP3    H225992   1.433   0.946   0.241 -0.4474 -0.8158  0.5198
 1453TIP3   OH225993   5.816   2.692   0.159 -0.2967  0.0549  0.0412
 1453TIP3    H125994   5.738   2.681   0.105 -0.4952  3.1723 -0.4834
 1453TIP3    H225995   5.889   2.693   0.097 -0.1833  0.3695  0.1774
 1454TIP3   OH225996   1.076   6.523   3.319  0.2572 -0.3947 -0.3020
 1454TIP3    H125997   0.981   6.520   3.306  0.3006 -0.0862 -0.6751
 1454TIP3    H225998   1.089   6.476   3.402 -0.3030  0.2723  0.1823
 1455TIP3   OH225999   4.058   6.911   0.030 -0.7426 -0.1887  0.5382
 1455TIP3    H126000   4.022   6.944  -0.052 -1.8954  1.4137  1.6393
 1455TIP3    H226001   4.059   6.816   0.018  1.0159  0.0402 -2.0526
 1456TIP3   OH226002   1.140   6.493   0.182 -0.0140  0.4515  0.0484
 1456TIP3    H126003   1.118   6.534   0.099  0.8705  0.9356  0.0442
 1456TIP3    H226004   1.069   6.519   0.241 -1.0234 -0.4907 -0.7257
 1457TIP3   OH226005   4.533   0.997   0.997 -0.8924  0.2005 -0.5311
 1457TIP3    H126006   4.535   1.081   1.043 -1.6375  0.5745 -1.1472
 1457TIP3    H226007   4.446   0.961   1.018 -0.5004 -0.5129 -0.1075
 1458TIP3   OH226008   6.358   0.681   2.300  0.2193 -0.1848  0.1936
 1458TIP3    H126009   6.340   0.697   2.393 -1.1271  0.3827 -0.1364
 1458TIP3    H226010   6.313   0.598   2.281  1.1744 -0.7241  0.2221
 1459TIP3   OH226011   6.163   4.216   4.233 -0.0008  0.3258  0.4772
 1459TIP3    H126012   6.229   4.195   4.300 -1.3230  0.7298  1.9657
 1459TIP3    H226013   6.079   4.202   4.278 -0.9372  2.8071 -0.3847
 1460TIP3   OH226014   5.862   2.822   4.035 -0.0827 -0.3247  0.3317
 1460TIP3    H126015   5.822   2.907   4.054 -0.8435 -0.7744  0.7829
 1460TIP3    H226016   5.955   2.842   4.025 -0.3507  0.6854 -0.3880
 1461TIP3   OH226017   6.198   1.945   3.597  0.2972 -0.0288  0.1891
 1461TIP3    H126018   6.214   2.010   3.528  1.6882  0.1590  0.6565
 1461TIP3    H226019   6.261   1.875   3.579  0.3438 -0.2011  0.9919
 1462TIP3   OH226020   5.253   2.143   4.082  0.3766 -0.0102  0.0167
 1462TIP3    H126021   5.189   2.213   4.095  0.7555  0.3230  0.1060
 1462TIP3    H226022   5.206   2.077   4.030  0.6969  1.3058 -2.0820
 1463TIP3   OH226023   4.501   0.306   2.738 -0.2636 -0.5761 -0.0109
 1463TIP3    H126024   4.481   0.212   2.743 -0.9719 -0.3974  0.7283
 1463TIP3    H226025   4.450   0.345   2.809  0.4650  0.2995  0.0455
 1464TIP3   OH226026   6.249   3.829   4.244 -0.1920 -0.2289  0.0869
 1464TIP3    H126027   6.302   3.755   4.273 -0.3425 -0.8375 -1.1650
 1464TIP3    H226028   6.168   3.790   4.212  0.7447  0.1625 -3.0725
 1465TIP3   OH226029   4.994   5.094   8.338 -0.1290  0.1399  0.3778
 1465TIP3    H126030   5.014   5.121   8.248  2.4186  2.0167  1.4024
 1465TIP3    H226031   5.033   5.007   8.346 -0.7706 -0.2382 -0.4341
 1466TIP3   OH226032   3.693   5.679   0.927  0.3327 -0.4193  0.3540
 1466TIP3    H126033   3.733   5.628   0.856  1.8700 -0.0695  0.9281
 1466TIP3    H226034   3.687   5.767   0.892  2.5438  0.1055  1.1267
 1467TIP3   OH226035   5.885   1.949   0.927 -0.0476  0.0006 -0.0593
 1467TIP3    H126036   5.879   2.023   0.987 -3.4737 -0.3594  0.2618
 1467TIP3    H226037   5.870   1.987   0.841  1.7078  0.0942 -0.3476
 1468TIP3   OH226038   6.709   2.920   0.778  0.0353  0.1179  0.2589
 1468TIP3    H126039   6.680   3.006   0.808  1.0732  0.8530 -0.7385
 1468TIP3    H226040   6.639   2.860   0.804 -1.7412  1.5851 -0.9292
 1469TIP3   OH226041   5.969   5.611   0.415  0.1012  0.0795  0.2092
 1469TIP3    H126042   5.987   5.532   0.465 -0.9172 -0.8839 -0.8843
 1469TIP3    H226043   6.014   5.598   0.332 -1.2070 -0.0112 -0.5200
 1470TIP3   OH226044   1.869   5.524   1.134 -0.3308 -0.0316  0.2788
 1470TIP3    H126045   1.841   5.614   1.148 -0.9471 -0.2086  0.2331
 1470TIP3    H226046   1.851   5.507   1.041 -0.0861 -0.1529  0.2541
 1471TIP3   OH226047   5.886   2.829   2.828  0.1056  0.3233 -0.3373
 1471TIP3    H126048   5.954   2.890   2.857  0.5327 -0.1358 -0.3548
 1471TIP3    H226049   5.934   2.751   2.801 -0.3253  0.5344 -1.7803
 1472TIP3   OH226050   2.761   6.939   0.906 -0.1950  0.3766 -0.2933
 1472TIP3    H126051   2.699   6.915   0.974  3.2304 -1.5300  2.5135
 1472TIP3    H226052   2.780   7.031   0.922  0.2534  0.0568  1.1942
 1473TIP3   OH226053   1.852   6.019   8.393 -0.5029  0.2460 -0.3938
 1473TIP3    H126054   1.794   6.003   8.318 -1.6964 -1.2815  0.7836
 1473TIP3    H226055   1.797   6.065   8.457 -0.1479 -0.3366  0.3485
 1474TIP3   OH226056   5.194   3.609   1.963 -0.0709 -0.0940  0.0784
 1474TIP3    H126057   5.226   3.655   2.040  0.9686  1.2993 -1.1235
 1474TIP3    H226058   5.196   3.517   1.987 -0.5757  0.3562  1.9800
 1475TIP3   OH226059   4.161   1.310   0.585  0.2532  0.0421  0.1862
 1475TIP3    H126060   4.113   1.336   0.507  1.0772  2.0584  0.2746
 1475TIP3    H226061   4.114   1.352   0.657  1.0945  0.5657  0.4472
 1476TIP3   OH226062   0.413   2.176   0.168  0.2325  0.0424 -0.0098
 1476TIP3    H126063   0.445   2.258   0.130 -0.2121  1.0381  1.6650
 1476TIP3    H226064   0.318   2.180   0.157  0.2246 -0.3570 -0.0952
 1477TIP3   OH226065   0.711   2.600   0.035  0.0842  0.2667  0.3927
 1477TIP3    H126066   0.729   2.685  -0.005 -0.0601  0.8389  1.5063
 1477TIP3    H226067   0.796   2.556   0.037 -0.0569 -0.1730 -1.3694
 1478TIP3   OH226068   1.701   0.240   0.923 -0.2523  0.5752  0.2502
 1478TIP3    H126069   1.669   0.150   0.928  2.5180 -0.4438  1.5533
 1478TIP3    H226070   1.673   0.281   1.004  0.7592 -0.0062  0.9208
 1479TIP3   OH226071   2.367   2.627   8.503 -0.0142  0.7237 -0.4348
 1479TIP3    H126072   2.295   2.687   8.485  0.2699  0.4548 -2.6505
 1479TIP3    H226073   2.444   2.683   8.509  0.1068  0.6989 -1.5754
 1480TIP3   OH226074   5.507   5.896   2.086 -0.3904  0.1185 -0.0555
 1480TIP3    H126075   5.417   5.913   2.058  0.0473  0.4504 -1.3571
 1480TIP3    H226076   5.537   5.981   2.120 -0.5764  0.0007  0.4039
 1481TIP3   OH226077   6.426   1.044   2.888  0.2760 -0.0083 -0.1309
 1481TIP3    H126078   6.517   1.028   2.865 -0.2274 -0.7169 -1.7696
 1481TIP3    H226079   6.378   1.036   2.805 -1.0974  1.8595  0.3959
 1482TIP3   OH226080   6.240   6.813   1.276 -0.2012  0.1958 -0.3184
 1482TIP3    H126081   6.288   6.844   1.199 -1.7714  1.0335 -0.9972
 1482TIP3    H226082   6.235   6.889   1.333  0.3745 -0.2421  0.3253
 1483TIP3   OH226083   0.664   3.862   1.600 -0.2301  0.0738 -0.4311
 1483TIP3    H126084   0.618   3.842   1.519 -0.0570 -1.7182 -0.1257
 1483TIP3    H226085   0.619   3.939   1.635  0.9027  2.1459 -3.1436
 1484TIP3   OH226086   4.604   2.194   3.235 -0.5298  0.0433  0.0533
 1484TIP3    H126087   4.681   2.172   3.184 -0.3607 -1.2986  0.8383
 1484TIP3    H226088   4.627   2.173   3.325 -0.9576  1.9929  0.6778
 1485TIP3   OH226089   6.466   2.565   2.320  0.1715  0.0574 -0.2973
 1485TIP3    H126090   6.562   2.562   2.314  0.1821  1.1527 -0.8851
 1485TIP3    H226091   6.448   2.588   2.411  0.4879  0.6441 -0.3838
 1486TIP3   OH226092   1.272   4.742   3.259  0.4491 -0.1188  0.0585
 1486TIP3    H126093   1.357   4.701   3.242  0.1967 -2.1737  3.1345
 1486TIP3    H226094   1.208   4.677   3.233 -0.0631 -0.2100  1.4811
 1487TIP3   OH226095   0.944   5.718   7.818 -0.1869  0.1308 -0.0466
 1487TIP3    H126096   1.005   5.677   7.756  0.4744 -0.6027  1.0500
 1487TIP3    H226097   0.940   5.809   7.790 -1.4898 -0.5513 -2.4020
 1488TIP3   OH226098   6.110   1.850   3.318  0.2195  1.1020 -0.2234
 1488TIP3    H126099   6.082   1.843   3.227  1.0968 -0.4835 -0.4068
 1488TIP3    H226100   6.086   1.766   3.357  1.0789  1.2453  0.6482
 1489TIP3   OH226101   5.858   5.221   0.908  0.4722  0.1189 -0.2162
 1489TIP3    H126102   5.786   5.284   0.899  0.1947 -0.2011 -0.2768
 1489TIP3    H226103   5.814   5.136   0.912  0.8595 -0.0920 -0.4302
 1490TIP3   OH226104   4.791   0.415   1.946 -0.0375 -0.4245 -0.2479
 1490TIP3    H126105   4.823   0.370   1.868 -1.0805  0.2470 -1.0904
 1490TIP3    H226106   4.765   0.344   2.005 -1.3444 -0.9864 -1.4293
 1491TIP3   OH226107   3.945   1.150   0.333  0.2135 -0.3290  0.6471
 1491TIP3    H126108   4.024   1.109   0.298  0.3038 -0.2529  0.7623
 1491TIP3    H226109   3.969   1.242   0.346 -0.2822 -0.0166 -0.5328
 1492TIP3   OH226110   1.184   5.751   8.168  0.1169 -0.2431 -0.3050
 1492TIP3    H126111   1.218   5.792   8.088  0.0612  0.2596 -0.0804
 1492TIP3    H226112   1.158   5.825   8.223 -0.6514 -0.6108 -0.1681
 1493TIP3   OH226113   0.371   1.673   1.112 -0.0663 -0.2032 -0.2082
 1493TIP3    H126114   0.372   1.717   1.197  1.5411  0.4563 -0.5166
 1493TIP3    H226115   0.350   1.742   1.050 -0.4082 -0.5024 -0.4265
 1494TIP3   OH226116   6.453   1.967   2.875  0.2878  0.3214  0.1648
 1494TIP3    H126117   6.390   1.986   2.945 -0.4957 -0.5588 -0.2876
 1494TIP3    H226118   6.477   1.875   2.887  0.0575  0.1257 -0.7837
 1495TIP3   OH226119   3.910   5.311   1.894 -0.5904  0.1391  0.2280
 1495TIP3    H126120   3.919   5.302   1.989 -1.5283 -1.5877  0.1989
 1495TIP3    H226121   3.815   5.316   1.880 -0.5130 -0.7945 -0.6933
 1496TIP3   OH226122   2.885   2.288   1.399  0.1660 -0.0295  0.1824
 1496TIP3    H126123   2.937   2.332   1.466  1.7817 -0.1838 -0.9050
 1496TIP3    H226124   2.898   2.342   1.320 -2.8229  0.9735  0.2347
 1497TIP3   OH226125   2.742   3.188   3.024 -0.6556  0.1572  0.5392
 1497TIP3    H126126   2.808   3.132   3.064  0.6451  1.5690  0.4717
 1497TIP3    H226127   2.663   3.134   3.020  1.5501 -3.3670 -3.8047
 1498TIP3   OH226128   4.540   1.164   2.490 -0.1326 -0.0531 -0.3957
 1498TIP3    H126129   4.458   1.184   2.535 -0.1393 -0.9440  0.0135
 1498TIP3    H226130   4.596   1.125   2.558  0.9100  1.1937 -0.4844
 1499TIP3   OH226131   3.295   3.113   1.519  0.7857 -0.9012 -0.4885
 1499TIP3    H126132   3.227   3.139   1.457  0.7438  2.3666  0.7341
 1499TIP3    H226133   3.340   3.040   1.476 -1.5352 -1.2105 -2.6606
 1500TIP3   OH226134   0.585   1.604   1.336  0.0288  0.0635  0.1366
 1500TIP3    H126135   0.529   1.666   1.383 -0.1439  0.6280 -0.7923
 1500TIP3    H226136   0.524   1.539   1.301  0.0417  0.2093 -0.1594
 1501TIP3   OH226137   1.487   4.592   3.223 -0.1064  0.0974  0.5971
 1501TIP3    H126138   1.573   4.624   3.251  1.3141 -1.3881 -1.7132
 1501TIP3    H226139   1.506   4.535   3.149 -3.3520  2.4629 -2.3908
 1502TIP3   OH226140   3.456   3.445   2.619 -0.0788 -0.8290 -0.0829
 1502TIP3    H126141   3.376   3.447   2.567 -0.5704 -2.6094  0.5381
 1502TIP3    H226142   3.461   3.355   2.652  1.3900 -0.3466  1.1121
 1503TIP3   OH226143   0.603   5.017   1.711  0.6111 -0.1706 -0.0896
 1503TIP3    H126144   0.527   5.062   1.747  0.8768 -0.5234  0.9655
 1503TIP3    H226145   0.635   4.962   1.783  2.1141  0.3036 -0.3503
 1504TIP3   OH226146   3.503   5.451   2.632 -0.6468 -0.5459  1.1118
 1504TIP3    H126147   3.523   5.409   2.549  0.9655  3.1502 -0.5758
 1504TIP3    H226148   3.419   5.413   2.659 -1.3986 -1.6573 -2.3675
 1505TIP3   OH226149   3.051   1.469   3.404 -0.0800 -0.0355  0.9934
 1505TIP3    H126150   3.097   1.549   3.380 -1.5535  0.2693 -1.1891
 1505TIP3    H226151   3.030   1.480   3.497  1.3335  1.2548  1.1984
 1506TIP3   OH226152   2.235   0.322   1.284 -0.2136 -0.3918 -0.5490
 1506TIP3    H126153   2.298   0.317   1.356 -1.9588  0.3180  1.1114
 1506TIP3    H226154   2.232   0.233   1.249 -0.1762 -1.0545  1.0470
 1507TIP3   OH226155   2.779   0.485   0.198 -0.6896  0.3671  0.3776
 1507TIP3    H126156   2.786   0.431   0.119  0.8851  1.5181 -0.3234
 1507TIP3    H226157   2.687   0.479   0.223 -0.6320 -2.3941  0.1880
 1508TIP3   OH226158   5.839   0.006   0.717 -0.5942 -0.4072  0.1576
 1508TIP3    H126159   5.769  -0.042   0.761 -1.1382 -0.5183 -0.8039
 1508TIP3    H226160   5.818  -0.001   0.624  0.8282 -0.6572 -0.1655
 1509TIP3   OH226161   4.677   4.842   0.856  0.8646 -0.0668  0.2522
 1509TIP3    H126162   4.671   4.784   0.932 -1.3880 -1.2354 -0.6953
 1509TIP3    H226163   4.618   4.915   0.877  1.5137  0.4653  0.2729
 1510TIP3   OH226164   5.672   3.939   2.045  0.4635 -0.0114 -0.5678
 1510TIP3    H126165   5.577   3.931   2.031 -0.2001  4.1027  0.1022
 1510TIP3    H226166   5.686   3.905   2.133 -0.1078 -1.7552 -1.1076
 1511TIP3   OH226167   6.153   1.052   1.185 -0.3846 -0.4288 -0.0980
 1511TIP3    H126168   6.230   1.030   1.237  0.9514  1.2848 -1.2483
 1511TIP3    H226169   6.177   1.029   1.095 -0.5772  1.5295 -0.7033
 1512TIP3   OH226170   5.681   5.026   0.947  0.1239 -0.4276 -0.3503
 1512TIP3    H126171   5.691   4.958   1.014  3.6185 -1.9025 -2.1346
 1512TIP3    H226172   5.591   5.014   0.916 -1.1031 -0.7288  2.8476
 1513TIP3   OH226173   2.430   0.160   0.224  0.0387  0.1852 -0.0568
 1513TIP3    H126174   2.402   0.137   0.135  0.1542  0.5514 -0.1875
 1513TIP3    H226175   2.413   0.081   0.275  1.3360 -0.5425 -0.6994
 1514TIP3   OH226176   5.525   3.855   3.435  0.0660  0.4188 -0.3896
 1514TIP3    H126177   5.435   3.873   3.407 -0.2849  0.6845  0.8458
 1514TIP3    H226178   5.515   3.813   3.521  1.1636  1.7634  0.4269
 1515TIP3   OH226179   1.046   4.221   2.570 -0.0386  0.4064 -0.0016
 1515TIP3    H126180   1.022   4.310   2.596 -1.0493  0.4186 -0.9256
 1515TIP3    H226181   0.962   4.174   2.567  0.6085 -1.0960  2.2548
 1516TIP3   OH226182   3.488   5.402   1.539  0.2431 -0.3893  0.2977
 1516TIP3    H126183   3.468   5.317   1.500  0.1266 -0.3458  0.2646
 1516TIP3    H226184   3.497   5.461   1.464  2.3759 -0.7940  0.1533
 1517TIP3   OH226185   4.711   6.810   2.150  0.0704 -0.2327 -1.1843
 1517TIP3    H126186   4.762   6.730   2.137 -2.1441 -2.3490  1.6319
 1517TIP3    H226187   4.635   6.799   2.091 -1.5116 -1.5993  0.9625
 1518TIP3   OH226188   3.582   4.397   0.357 -0.5227 -0.4305 -0.7195
 1518TIP3    H126189   3.575   4.302   0.346 -2.4713 -0.6049  1.1994
 1518TIP3    H226190   3.608   4.408   0.449 -1.2863  0.8793 -0.6371
 1519TIP3   OH226191   0.118   0.969   0.631 -0.2990 -0.5550 -0.6056
 1519TIP3    H126192   0.050   0.951   0.566 -0.2843  0.1392 -0.8195
 1519TIP3    H226193   0.199   0.975   0.580 -0.1459 -0.9266 -0.4084
 1520TIP3   OH226194   0.400   4.866   3.351 -0.3833 -0.0375 -0.0041
 1520TIP3    H126195   0.371   4.798   3.291 -1.9627  2.5182 -2.4092
 1520TIP3    H226196   0.340   4.860   3.425 -1.9797  0.0744 -1.2216
 1521TIP3   OH226197   0.039   5.834   8.480 -0.0553  0.2347  0.0939
 1521TIP3    H126198  -0.034   5.822   8.419 -0.3377  0.6953  0.3341
 1521TIP3    H226199   0.117   5.831   8.425 -0.2860  0.2137 -0.2338
 1522TIP3   OH226200   2.430   2.305   1.101  0.1771 -0.3052 -0.3487
 1522TIP3    H126201   2.407   2.250   1.176  0.5012 -0.6787 -0.5208
 1522TIP3    H226202   2.355   2.300   1.043 -0.8615  1.4239  0.7500
 1523TIP3   OH226203   4.596   1.017   3.616  0.2912 -0.4705  0.1871
 1523TIP3    H126204   4.575   0.950   3.681  0.3152  0.1599  0.8538
 1523TIP3    H226205   4.691   1.020   3.615  0.3105 -1.1043 -0.5337
 1524TIP3   OH226206   2.647   1.550   1.940 -0.5851 -0.1430 -0.4760
 1524TIP3    H126207   2.607   1.635   1.919  0.7374  1.1814  1.9277
 1524TIP3    H226208   2.724   1.546   1.884  1.0384  1.7555  1.4574
 1525TIP3   OH226209   2.671   2.889   1.408 -0.3360  0.3190 -0.0292
 1525TIP3    H126210   2.762   2.908   1.433 -0.5003 -0.1619  0.9826
 1525TIP3    H226211   2.624   2.883   1.491 -0.4073 -4.0752 -0.1838
 1526TIP3   OH226212   1.997   4.532   2.346  0.4355 -0.2018  0.1336
 1526TIP3    H126213   2.062   4.554   2.279 -0.0923  0.5664 -0.1378
 1526TIP3    H226214   2.017   4.592   2.419  0.3488 -0.3054  0.2429
 1527TIP3   OH226215   1.647   4.193   2.938  0.8616  0.1002 -0.3277
 1527TIP3    H126216   1.735   4.215   2.908  0.9184  0.9008  0.3858
 1527TIP3    H226217   1.661   4.152   3.024  0.6172 -0.9890 -0.7871
 1528TIP3   OH226218   0.232   0.309   2.429 -0.0910  0.5062  0.5952
 1528TIP3    H126219   0.313   0.335   2.473  1.1344  0.6085 -1.5873
 1528TIP3    H226220   0.225   0.215   2.446 -0.0809  0.6825  1.6313
 1529TIP3   OH226221   4.043   1.270   1.561  0.2629  0.2617  0.3731
 1529TIP3    H126222   4.119   1.244   1.611 -0.1969  0.1824  1.0425
 1529TIP3    H226223   3.990   1.190   1.553 -0.2073  0.5280  0.7464
 1530TIP3   OH226224   3.004   6.067   3.428  0.1695 -0.3384 -0.4970
 1530TIP3    H126225   3.055   6.142   3.458  1.4679 -0.0203 -3.2186
 1530TIP3    H226226   3.063   5.992   3.436 -0.2289 -0.6358 -0.2463
 1531TIP3   OH226227   0.016   1.806   1.499  0.6752  1.1971 -0.0041
 1531TIP3    H126228   0.070   1.789   1.576 -0.3221  0.6601  0.6075
 1531TIP3    H226229   0.078   1.831   1.430  1.6420  1.0139  0.7831
 1532TIP3   OH226230   5.470   1.142   1.862 -0.2526  0.5249 -0.2518
 1532TIP3    H126231   5.388   1.104   1.830 -1.2296 -0.1332  2.7507
 1532TIP3    H226232   5.528   1.067   1.875  0.7230  0.9415 -1.8723
 1533TIP3   OH226233   1.915   0.137   1.136  0.4577  0.4262 -0.0775
 1533TIP3    H126234   1.855   0.083   1.084  1.4995 -1.0746  0.2210
 1533TIP3    H226235   1.858   0.185   1.197 -0.6063  0.7732 -1.3045
 1534TIP3   OH226236   4.153   3.576   2.825 -0.4904 -0.4930  0.1205
 1534TIP3    H126237   4.087   3.559   2.892  0.1394 -0.6205  0.7115
 1534TIP3    H226238   4.196   3.656   2.853 -0.1607 -0.5978 -0.0814
 1535TIP3   OH226239   2.837   6.293   2.130  0.2620 -0.3582  0.1258
 1535TIP3    H126240   2.767   6.356   2.146 -0.4275 -0.8315 -0.8300
 1535TIP3    H226241   2.899   6.339   2.073 -2.0918 -1.5390 -3.8010
 1536TIP3   OH226242   1.467   6.033   0.533 -0.1369  0.2818  0.5152
 1536TIP3    H126243   1.529   6.093   0.575  1.9007 -0.9304 -0.6415
 1536TIP3    H226244   1.454   6.069   0.446  1.7289 -1.2777 -0.4783
 1537TIP3   OH226245   2.959   6.386   0.480 -0.1128  0.0631 -0.3285
 1537TIP3    H126246   2.974   6.293   0.462 -0.5667 -0.0897  0.0698
 1537TIP3    H226247   2.991   6.399   0.570 -0.0355  0.2975 -0.3886
 1538TIP3   OH226248   1.505   4.529   1.064 -0.0645 -0.1991  0.4238
 1538TIP3    H126249   1.547   4.586   0.999 -0.4815  0.1871  0.4834
 1538TIP3    H226250   1.468   4.590   1.128  0.7585 -0.5966  1.2871
 1539TIP3   OH226251   2.079   4.390   4.359 -0.3103 -0.2807 -0.0010
 1539TIP3    H126252   2.107   4.299   4.347  0.3008  0.0132 -1.0169
 1539TIP3    H226253   1.984   4.386   4.363 -0.2977 -0.9466 -0.2300
 1540TIP3   OH226254   3.306   5.298   0.945 -0.5577  0.3621 -0.2841
 1540TIP3    H126255   3.385   5.346   0.971 -1.7014  1.2538  1.8406
 1540TIP3    H226256   3.325   5.265   0.857  1.3220  2.4330 -0.7401
 1541TIP3   OH226257   4.346   5.321   8.540 -0.2834  0.2876 -0.7912
 1541TIP3    H126258   4.392   5.377   8.478 -0.7294 -0.3721 -1.7477
 1541TIP3    H226259   4.303   5.255   8.485 -1.3822  0.1872  0.1572
 1542TIP3   OH226260   1.319   6.577   3.285  0.2468 -0.6776 -0.1148
 1542TIP3    H126261   1.331   6.548   3.195  0.5394  1.2906 -0.7378
 1542TIP3    H226262   1.224   6.575   3.298 -0.1668  2.5783 -1.7755
 1543TIP3   OH226263   5.951   1.615   3.689 -0.5955  0.1629  0.4227
 1543TIP3    H126264   5.962   1.521   3.677  0.9861  0.3697  0.0572
 1543TIP3    H226265   6.026   1.642   3.741 -1.8569  1.0019  1.8881
 1544TIP3   OH226266   3.184   4.638   0.286 -0.4125 -0.3392 -0.3892
 1544TIP3    H126267   3.236   4.585   0.346  1.2835 -1.5112 -2.7447
 1544TIP3    H226268   3.103   4.589   0.273 -0.0828 -0.8934 -0.3416
 1545TIP3   OH226269   5.716   6.348   0.103  0.2858 -0.4568  0.3945
 1545TIP3    H126270   5.769   6.286   0.154  0.2824 -1.1130 -0.3792
 1545TIP3    H226271   5.722   6.316   0.013 -1.8071 -0.8443  0.3402
 1546TIP3   OH226272   3.328   4.623   2.232 -0.1898 -0.4299 -0.6400
 1546TIP3    H126273   3.378   4.704   2.237 -2.0730  0.7249  0.3238
 1546TIP3    H226274   3.299   4.607   2.321 -1.4080 -1.1350 -1.1420
 1547TIP3   OH226275   4.624   3.954   1.410 -0.1872  0.0315 -0.0358
 1547TIP3    H126276   4.675   3.961   1.329 -1.0310  1.7013 -0.4785
 1547TIP3    H226277   4.590   3.864   1.409 -0.6427  0.1758 -1.8611
 1548TIP3   OH226278   2.156   0.747   3.387 -0.3681  0.3189  0.3466
 1548TIP3    H126279   2.166   0.743   3.482  0.6076  0.7649  0.2779
 1548TIP3    H226280   2.240   0.716   3.353 -1.2188 -1.2769 -0.4087
 1549TIP3   OH226281   5.755   0.953   8.447 -0.3765  0.0264 -0.2405
 1549TIP3    H126282   5.786   1.004   8.372  1.2161  0.5899  0.7344
 1549TIP3    H226283   5.699   0.885   8.409 -0.0633  0.6267 -1.8698
 1550TIP3   OH226284   6.890   6.863   0.252  0.5152 -0.2722 -0.2424
 1550TIP3    H126285   6.802   6.826   0.243  0.7576 -1.0320  0.3977
 1550TIP3    H226286   6.945   6.807   0.197  0.8124 -0.5953  0.3793
 1551TIP3   OH226287   3.382   1.815   2.913 -0.0360 -0.4876 -0.5625
 1551TIP3    H126288   3.424   1.808   2.827  1.3359  0.2277  0.0242
 1551TIP3    H226289   3.449   1.788   2.975 -0.9683 -0.8536  0.3120
 1552TIP3   OH226290   5.862   4.067   2.223  0.0842 -0.2989  0.7734
 1552TIP3    H126291   5.828   3.982   2.194  1.7245 -0.9477  0.6274
 1552TIP3    H226292   5.906   4.048   2.306  0.2279  0.4659  0.8818
 1553TIP3   OH226293   1.589   4.907   1.412  0.1194 -0.0317  0.0345
 1553TIP3    H126294   1.673   4.934   1.450  0.4933 -0.6677 -0.3040
 1553TIP3    H226295   1.555   4.841   1.473  0.3882 -0.5495 -0.3592
 1554TIP3   OH226296   0.595   5.307   0.179  0.2424 -0.2455 -0.1137
 1554TIP3    H126297   0.589   5.275   0.089 -0.9055 -1.8380  0.4830
 1554TIP3    H226298   0.688   5.304   0.199  0.2670 -2.8656 -0.2709
 1555TIP3   OH226299   6.911   2.423   2.528 -0.4002 -0.2257  0.3910
 1555TIP3    H126300   6.843   2.478   2.488  0.1099  0.7119  0.7732
 1555TIP3    H226301   6.969   2.400   2.456  0.5666  1.5321  0.5529
 1556TIP3   OH226302   6.797   0.798   0.370 -0.3009  0.0351 -0.1381
 1556TIP3    H126303   6.787   0.770   0.279 -1.9132  0.1697 -0.0383
 1556TIP3    H226304   6.870   0.746   0.403 -1.8050 -2.5071 -0.5807
 1557TIP3   OH226305   5.769   1.801   3.496  0.1933  0.0627  0.2746
 1557TIP3    H126306   5.769   1.724   3.552  1.4353  0.6261  1.1049
 1557TIP3    H226307   5.834   1.860   3.536  0.8955  0.6293 -1.5748
 1558TIP3   OH226308   4.023   3.243   1.208  0.1589  0.6642 -0.3492
 1558TIP3    H126309   3.985   3.218   1.123 -1.0740  1.8127 -0.1759
 1558TIP3    H226310   3.949   3.239   1.269  1.1656 -0.7605  0.8233
 1559TIP3   OH226311   6.407   5.983   1.683  0.2140  0.2083 -0.1954
 1559TIP3    H126312   6.362   5.988   1.598 -1.4347  0.4660  0.6599
 1559TIP3    H226313   6.384   5.896   1.717  0.8831  0.0988  0.0029
 1560TIP3   OH226314   5.041   2.788   2.763 -0.1634  0.2812  0.0712
 1560TIP3    H126315   5.122   2.769   2.811  0.0911 -0.0668 -0.4973
 1560TIP3    H226316   5.055   2.751   2.676 -1.2706 -0.5375  0.2245
 1561TIP3   OH226317   2.849   2.328   2.981 -0.0236 -0.2586 -0.7518
 1561TIP3    H126318   2.755   2.308   2.987 -0.0498 -0.2346 -1.0953
 1561TIP3    H226319   2.885   2.258   2.926  0.0828 -0.0057 -1.0034
 1562TIP3   OH226320   5.106   2.358   1.724  0.3414 -0.1883  0.7443
 1562TIP3    H126321   5.058   2.422   1.672  0.0505 -0.4937  0.6332
 1562TIP3    H226322   5.175   2.327   1.665  0.3258 -0.1598  0.7109
 1563TIP3   OH226323   4.544   0.768   0.161 -0.1775 -0.5565 -0.1704
 1563TIP3    H126324   4.460   0.815   0.154 -1.0521 -2.0083  0.2233
 1563TIP3    H226325   4.598   0.824   0.216 -1.6371 -0.5758  1.3458
 1564TIP3   OH226326   3.135   3.380   3.870  0.0620 -0.2921  0.3953
 1564TIP3    H126327   3.176   3.327   3.802 -1.5788 -0.5047 -0.5067
 1564TIP3    H226328   3.199   3.447   3.891  1.3303 -1.3434 -0.0223
 1565TIP3   OH226329   6.128   3.247   2.317 -0.1673  0.5788 -0.0147
 1565TIP3    H126330   6.192   3.185   2.285 -0.6548  0.1627 -0.2017
 1565TIP3    H226331   6.140   3.248   2.412 -0.5193 -0.2174  0.0430
 1566TIP3   OH226332   0.130   4.011   3.377 -0.4310 -0.2279  0.2937
 1566TIP3    H126333   0.042   4.038   3.354 -0.8848  0.8583  2.9259
 1566TIP3    H226334   0.187   4.078   3.339 -0.4932 -1.7320 -2.7173
 1567TIP3   OH226335   1.915   4.031   0.677  0.2030  0.4214 -0.2269
 1567TIP3    H126336   1.851   3.972   0.637 -0.1116  1.1312 -0.7818
 1567TIP3    H226337   1.912   4.110   0.623  1.1475  0.6752  0.0697
 1568TIP3   OH226338   1.174   3.940   3.469 -0.1453  0.5354 -0.2378
 1568TIP3    H126339   1.149   3.883   3.396  1.6873 -0.2872 -0.2661
 1568TIP3    H226340   1.183   4.027   3.430  0.2969  0.2005 -0.8921
 1569TIP3   OH226341   2.576   1.174   0.389  0.1727  0.0828 -0.0950
 1569TIP3    H126342   2.592   1.266   0.368  0.8723  0.2093  0.9205
 1569TIP3    H226343   2.618   1.161   0.474  0.5338 -1.3170 -0.4684
 1570TIP3   OH226344   3.186   0.062   1.228  0.5225 -0.1739 -0.0931
 1570TIP3    H126345   3.256   0.016   1.181  0.9051 -0.5613  0.8298
 1570TIP3    H226346   3.144  -0.005   1.280 -1.8916 -0.3742 -2.1081
 1571TIP3   OH226347   2.025   1.763   2.480  0.0552  0.1506 -0.1872
 1571TIP3    H126348   2.086   1.754   2.406 -0.5964  1.5054 -0.9284
 1571TIP3    H226349   1.972   1.684   2.477  0.1108  0.1314 -1.1276
 1572TIP3   OH226350   3.973   1.631   2.450  0.0747  0.2584 -0.0243
 1572TIP3    H126351   3.992   1.709   2.502 -2.5968  1.0879 -0.1011
 1572TIP3    H226352   3.941   1.567   2.514  0.2220  0.0025 -0.2083
 1573TIP3   OH226353   3.787   5.915   0.334 -0.1428  0.4236 -0.5558
 1573TIP3    H126354   3.749   5.876   0.255 -0.5064 -1.1158  0.3290
 1573TIP3    H226355   3.735   5.994   0.348 -1.0892 -0.0854 -1.0308
 1574TIP3   OH226356   4.406   1.377   1.540  0.0443  0.7724 -0.3438
 1574TIP3    H126357   4.449   1.295   1.516 -1.0201 -0.2570  1.1169
 1574TIP3    H226358   4.343   1.392   1.468 -0.3368 -0.1488 -0.2245
 1575TIP3   OH226359   3.583   0.154   2.016 -0.5776 -0.3646  0.6249
 1575TIP3    H126360   3.671   0.178   1.987 -1.5236  0.8612 -1.4235
 1575TIP3    H226361   3.538   0.237   2.026 -1.5798 -0.9869  1.5369
 1576TIP3   OH226362   3.255   3.105   1.993  0.1899  0.3040 -0.2709
 1576TIP3    H126363   3.161   3.107   2.009  0.2813  1.1626  0.1689
 1576TIP3    H226364   3.287   3.191   2.020  1.2883 -0.3746  0.7303
 1577TIP3   OH226365   0.031   5.891   2.551  0.1258  0.2097  0.2222
 1577TIP3    H126366   0.045   5.841   2.471  1.5255 -0.5364  0.8937
 1577TIP3    H226367   0.108   5.872   2.605 -0.5825  1.0242  1.5760
 1578TIP3   OH226368   5.744   3.016   3.793  0.4544  0.0746 -0.2140
 1578TIP3    H126369   5.739   2.921   3.803  2.7850 -0.3530 -2.1740
 1578TIP3    H226370   5.795   3.046   3.868 -1.0462 -0.0521  0.8960
 1579TIP3   OH226371   2.015   4.201   1.360 -0.1409 -0.1403 -0.9915
 1579TIP3    H126372   2.101   4.178   1.393 -0.7520  0.4670  1.1704
 1579TIP3    H226373   1.965   4.120   1.364 -0.4571  0.1051  0.4864
 1580TIP3   OH226374   6.781   6.227   2.119  0.2825 -0.2104 -0.1033
 1580TIP3    H126375   6.870   6.262   2.111  1.8072 -3.2563  1.7690
 1580TIP3    H226376   6.765   6.222   2.213 -1.6425 -0.3503 -0.3892
 1581TIP3   OH226377   4.092   6.924   2.384  0.4991 -0.4170 -0.0763
 1581TIP3    H126378   4.003   6.950   2.410  0.9164 -0.1830  1.1553
 1581TIP3    H226379   4.084   6.831   2.362 -0.4169  0.0197 -1.7757
 1582TIP3   OH226380   3.298   4.536   4.157 -0.5119  0.5413 -0.6040
 1582TIP3    H126381   3.233   4.604   4.177 -0.7803  0.0482  0.2736
 1582TIP3    H226382   3.258   4.455   4.188 -0.5956 -0.1857 -2.4815
 1583TIP3   OH226383   3.502   6.600   0.504 -0.1355  0.4629 -0.1846
 1583TIP3    H126384   3.459   6.609   0.589 -0.0809  1.2474 -0.2291
 1583TIP3    H226385   3.547   6.516   0.509  1.6556  1.4363  1.4091
 1584TIP3   OH226386   5.451   3.909   4.014  0.0159  0.3171  0.1603
 1584TIP3    H126387   5.449   3.870   4.101 -0.6302 -0.7920 -0.3346
 1584TIP3    H226388   5.358   3.923   3.992  0.2091  1.6499  0.0999
 1585TIP3   OH226389   6.269   6.523   1.812  0.0489 -0.3336  0.2209
 1585TIP3    H126390   6.257   6.525   1.907 -0.4254  0.7714  0.1513
 1585TIP3    H226391   6.180   6.526   1.776  0.2411 -0.2296 -0.2544
 1586TIP3   OH226392   0.989   4.132   2.307  0.4658 -0.4977  0.1446
 1586TIP3    H126393   1.038   4.173   2.378 -0.1022 -1.6812  1.2582
 1586TIP3    H226394   0.901   4.167   2.315  0.5592 -0.1058 -0.4364
 1587TIP3   OH226395   2.627   3.372   1.449 -0.2303  0.7528  0.2579
 1587TIP3    H126396   2.635   3.454   1.400 -0.8545  1.0452  0.6232
 1587TIP3    H226397   2.585   3.398   1.531 -0.2292  0.0990  0.4672
 1588TIP3   OH226398   3.949   3.806   0.564  0.7869  0.2978 -0.1832
 1588TIP3    H126399   3.994   3.777   0.485  0.5436  1.1952 -0.6624
 1588TIP3    H226400   3.965   3.901   0.567 -0.2450  0.4706  0.1615
 1589TIP3   OH226401   3.303   2.847   3.133  0.5004 -0.5979  0.0418
 1589TIP3    H126402   3.353   2.774   3.095  2.3043  0.5130  0.1693
 1589TIP3    H226403   3.316   2.837   3.228  1.1609  0.1269  0.0393
 1590TIP3   OH226404   6.554   3.455   2.620 -0.4534  0.1720  0.7847
 1590TIP3    H126405   6.562   3.447   2.525 -0.1678 -0.3925  0.8487
 1590TIP3    H226406   6.634   3.414   2.654 -0.8165 -0.1435  1.2774
 1591TIP3   OH226407   6.847   0.424   1.583  0.1319 -0.1073  0.2909
 1591TIP3    H126408   6.912   0.424   1.654  1.2821  0.9533 -0.7131
 1591TIP3    H226409   6.896   0.452   1.506 -1.6322  1.1589 -0.4336
 1592TIP3   OH226410   0.668   5.434   4.011  0.1112  0.4481 -0.8056
 1592TIP3    H126411   0.692   5.393   3.927 -3.4912  1.1737 -2.3707
 1592TIP3    H226412   0.732   5.504   4.021  1.5114 -0.5411 -2.1745
 1593TIP3   OH226413   2.240   2.868   0.581 -0.1859  0.4700 -0.4557
 1593TIP3    H126414   2.178   2.886   0.511 -1.3142 -0.8316  0.1578
 1593TIP3    H226415   2.187   2.868   0.661  1.2327  2.9247  0.5830
 1594TIP3   OH226416   2.088   3.889   1.795 -0.2488  0.0539  0.3296
 1594TIP3    H126417   2.182   3.905   1.783 -0.1721  0.9670  1.9067
 1594TIP3    H226418   2.046   3.952   1.736  0.1352  1.1202  1.1657
 1595TIP3   OH226419   4.978   4.903   3.572 -0.1770  0.7049 -0.3409
 1595TIP3    H126420   4.945   4.861   3.652 -2.9048  1.3219 -1.0358
 1595TIP3    H226421   5.033   4.975   3.604 -1.3061  1.0175  1.0302
 1596TIP3   OH226422   6.458   6.529   0.558 -0.0424  0.0067  0.3286
 1596TIP3    H126423   6.480   6.579   0.637  0.0772 -1.9213  1.6173
 1596TIP3    H226424   6.542   6.512   0.516  0.3415 -1.8816  1.7308
 1597TIP3   OH226425   2.107   4.167   3.126 -0.2537  0.5753  0.4555
 1597TIP3    H126426   2.072   4.254   3.144 -1.0216  0.5856 -0.9956
 1597TIP3    H226427   2.174   4.181   3.059 -1.7678 -0.1305 -1.2883
 1598TIP3   OH226428   1.826   5.803   1.178  0.3232  0.7791 -0.7873
 1598TIP3    H126429   1.745   5.817   1.226  2.1916 -0.1639  3.0533
 1598TIP3    H226430   1.878   5.881   1.197  1.0198  0.5236 -1.5852
 1599TIP3   OH226431   1.220   5.642   2.070 -0.3355 -0.5215  0.3567
 1599TIP3    H126432   1.217   5.602   1.982  0.0560  1.9777 -0.8719
 1599TIP3    H226433   1.301   5.693   2.070 -0.3035 -0.5217  2.2245
 1600TIP3   OH226434   2.176   4.431   8.465 -0.1808  0.4005  0.0911
 1600TIP3    H126435   2.210   4.502   8.410  1.9607 -1.2112 -0.8458
 1600TIP3    H226436   2.158   4.360   8.404 -1.5332 -0.1443  1.0840
 1601TIP3   OH226437   0.611   2.446   1.496 -0.1943  0.1344  0.1903
 1601TIP3    H126438   0.602   2.353   1.517 -0.2962 -0.1538 -1.0740
 1601TIP3    H226439   0.577   2.491   1.573  1.0173 -0.8457  1.3592
 1602TIP3   OH226440   2.336   2.375   1.650 -0.2263 -0.1716 -0.2732
 1602TIP3    H126441   2.412   2.352   1.597 -0.2611 -0.3469 -0.2480
 1602TIP3    H226442   2.333   2.308   1.718 -1.2239 -1.0262 -1.0992
 1603TIP3   OH226443   6.899   1.366   1.685  0.1700  0.0941 -0.1748
 1603TIP3    H126444   6.936   1.436   1.738  0.2875  0.3188 -0.5490
 1603TIP3    H226445   6.916   1.286   1.735 -0.0574  0.3437  0.2992
 1604TIP3   OH226446   6.085   6.613   1.135  0.0645  0.2378 -0.4167
 1604TIP3    H126447   5.994   6.637   1.150  0.2052  0.1568  0.6561
 1604TIP3    H226448   6.135   6.687   1.170  0.4751 -1.0687  1.9392
 1605TIP3   OH226449   5.015   3.609   2.281  0.2184  0.0268  0.7170
 1605TIP3    H126450   5.041   3.681   2.224  0.0792  0.1708  0.8339
 1605TIP3    H226451   4.921   3.623   2.296  0.1154 -0.3703  0.4640
 1606TIP3   OH226452   6.358   0.026   1.023  0.0860 -0.0851 -0.0195
 1606TIP3    H126453   6.378  -0.038   0.954  0.2161 -0.6212  0.5093
 1606TIP3    H226454   6.369   0.111   0.980 -2.5107 -0.3611 -1.4679
 1607TIP3   OH226455   0.838   4.067   0.209  0.0645  0.3746 -0.7388
 1607TIP3    H126456   0.918   4.110   0.178  0.9911 -1.7127 -1.4305
 1607TIP3    H226457   0.828   4.098   0.299  0.3396  2.4248 -1.3444
 1608TIP3   OH226458   5.524   4.643   1.824 -0.0505 -0.4907  0.2387
 1608TIP3    H126459   5.482   4.602   1.749  1.5718  1.5149 -1.9310
 1608TIP3    H226460   5.617   4.624   1.812  0.2403 -0.1385  1.7827
 1609TIP3   OH226461   0.796   4.318   3.286  0.5089 -0.3284 -0.1670
 1609TIP3    H126462   0.802   4.284   3.375 -0.7906 -0.2989 -0.0578
 1609TIP3    H226463   0.778   4.241   3.232 -2.9127  0.0975  0.1359
 1610TIP3   OH226464   5.429   0.553   1.370  0.0615  0.1400 -0.1798
 1610TIP3    H126465   5.419   0.646   1.388 -1.0180 -0.2601  1.5157
 1610TIP3    H226466   5.382   0.539   1.288 -1.5030  0.7659  0.5656
 1611TIP3   OH226467   2.740   5.408   2.596 -0.9592  0.6321  0.1380
 1611TIP3    H126468   2.710   5.329   2.551 -0.0500 -0.1493  0.8675
 1611TIP3    H226469   2.775   5.377   2.680  1.2166  1.5471 -0.3554
 1612TIP3   OH226470   2.319   2.542   2.045  0.8652 -0.4036  0.3286
 1612TIP3    H126471   2.337   2.450   2.025  0.6943 -0.3782  0.0646
 1612TIP3    H226472   2.328   2.547   2.141 -2.2929 -1.4059  0.7958
 1613TIP3   OH226473   1.999   4.230   0.845 -0.1392 -0.0818  0.2510
 1613TIP3    H126474   2.060   4.188   0.906  0.1661  0.7566  0.5323
 1613TIP3    H226475   1.954   4.157   0.803  1.0930 -0.7208 -0.0012
 1614TIP3   OH226476   1.588   5.638   2.698 -0.5515 -0.0544  0.1574
 1614TIP3    H126477   1.640   5.649   2.618 -2.3541  1.0008 -0.9631
 1614TIP3    H226478   1.553   5.549   2.691  0.8250 -0.6573  0.7669
 1615TIP3   OH226479   6.628   0.804   3.817 -0.0852  0.8108 -0.0276
 1615TIP3    H126480   6.705   0.796   3.874 -0.5158  0.9911  0.5981
 1615TIP3    H226481   6.602   0.713   3.799  0.8043  0.7347 -0.9979
 1616TIP3   OH226482   0.584   5.306   0.860 -0.1538 -0.1791  0.0308
 1616TIP3    H126483   0.526   5.322   0.934  0.5150 -0.5815  0.6589
 1616TIP3    H226484   0.526   5.288   0.787 -0.8222 -1.0018  0.7507
 1617TIP3   OH226485   3.986   5.634   4.001  0.3784  0.0724 -0.6135
 1617TIP3    H126486   3.961   5.722   3.975 -2.0731  0.5910  2.9004
 1617TIP3    H226487   4.081   5.632   3.988  0.2353  2.3371 -2.9291
 1618TIP3   OH226488   4.081   2.591   2.790 -0.4124  0.0187 -0.1682
 1618TIP3    H126489   4.121   2.582   2.704 -1.8019  0.2018 -0.8645
 1618TIP3    H226490   4.153   2.579   2.852  0.6669  0.2352 -1.3550
 1619TIP3   OH226491   1.154   3.887   8.250  0.0225 -0.2675  0.3203
 1619TIP3    H126492   1.114   3.817   8.302  1.9667  0.0917  2.4738
 1619TIP3    H226493   1.092   3.960   8.257  0.0053 -0.3888  1.7867
 1620TIP3   OH226494   3.504   4.420   1.414  0.6183  0.4621  0.0466
 1620TIP3    H126495   3.505   4.483   1.487  1.4847 -0.2813  0.6942
 1620TIP3    H226496   3.552   4.345   1.447  0.2871 -0.2283 -1.0139
 1621TIP3   OH226497   4.025   2.427   0.296 -0.0937 -0.0845  0.4178
 1621TIP3    H126498   4.117   2.435   0.320 -0.1927 -0.8813  1.1126
 1621TIP3    H226499   3.984   2.385   0.371 -0.5223 -2.1309 -0.8667
 1622TIP3   OH226500   5.297   1.800   1.796  0.2290  0.5404 -0.1624
 1622TIP3    H126501   5.326   1.722   1.843  0.8472 -0.0895 -1.5266
 1622TIP3    H226502   5.372   1.824   1.741 -0.2071  1.6770 -0.2822
 1623TIP3   OH226503   1.711   0.453   1.990 -0.4717 -0.1019  0.5629
 1623TIP3    H126504   1.670   0.374   1.955  1.0631 -0.5650 -0.2622
 1623TIP3    H226505   1.800   0.426   2.013  0.0416  1.3580  0.4073
 1624TIP3   OH226506   5.254   1.468   0.535 -0.0694 -0.1286  0.6455
 1624TIP3    H126507   5.301   1.425   0.607 -1.7937 -2.1593  0.6499
 1624TIP3    H226508   5.161   1.454   0.556 -0.6189 -0.1211 -1.6130
 1625TIP3   OH226509   1.439   3.628   0.979 -0.6200  0.6477 -0.3571
 1625TIP3    H126510   1.387   3.706   0.962 -3.2199 -1.1341 -1.1716
 1625TIP3    H226511   1.376   3.562   1.008  1.4634 -1.1541  0.4114
 1626TIP3   OH226512   3.940   6.084   3.127 -0.1786 -0.5824 -0.3517
 1626TIP3    H126513   3.876   6.120   3.189 -0.2555  0.3260 -0.9400
 1626TIP3    H226514   3.913   6.118   3.042  0.8516 -0.4964 -0.6656
 1627TIP3   OH226515   5.107   2.154   0.320 -0.1275  0.0990 -0.0632
 1627TIP3    H126516   5.196   2.147   0.284  0.2991  0.3596  0.9171
 1627TIP3    H226517   5.102   2.084   0.385 -0.5771  0.2088  0.0230
 1628TIP3   OH226518   4.005   5.784   8.230 -0.0246 -0.3544 -0.5759
 1628TIP3    H126519   4.054   5.711   8.192 -0.6267 -0.4450 -1.1843
 1628TIP3    H226520   4.053   5.862   8.203 -0.4672 -0.4160 -1.5626
 1629TIP3   OH226521   0.715   3.562   8.365 -0.5761  0.3345 -0.2860
 1629TIP3    H126522   0.626   3.529   8.376 -0.7391  0.1910 -1.7765
 1629TIP3    H226523   0.752   3.506   8.296  0.7152  0.3120  0.3991
 1630TIP3   OH226524   1.563   5.056   1.785  0.4050 -0.0626 -0.0098
 1630TIP3    H126525   1.546   5.113   1.860  2.6174 -1.1006  1.3910
 1630TIP3    H226526   1.586   4.972   1.824  2.1952 -0.4857 -1.7899
 1631TIP3   OH226527   4.001   0.414   3.102 -0.3475 -0.3989  0.3575
 1631TIP3    H126528   3.975   0.334   3.147 -0.4471 -0.6106 -0.0655
 1631TIP3    H226529   4.017   0.386   3.011 -0.6439  0.1048  0.1425
 1632TIP3   OH226530   0.737   6.479   1.927 -0.1003 -0.2962  0.1866
 1632TIP3    H126531   0.807   6.436   1.877  0.8062  1.2222  0.1044
 1632TIP3    H226532   0.696   6.539   1.865 -0.9673 -0.5760  0.4669
 1633TIP3   OH226533   1.433   4.512   3.651  0.5846  0.4991  0.2180
 1633TIP3    H126534   1.500   4.508   3.720  2.7085  1.1083 -1.6710
 1633TIP3    H226535   1.416   4.605   3.639  0.0179  0.3847  0.1266
 1634TIP3   OH226536   4.556   4.939   4.047  0.3222  0.2372 -0.2827
 1634TIP3    H126537   4.572   4.987   3.966 -1.1631 -0.3459 -0.9648
 1634TIP3    H226538   4.569   4.847   4.024  0.5483  0.1123  0.3160
 1635TIP3   OH226539   2.641   4.444   0.036 -0.2982  0.0221 -0.4784
 1635TIP3    H126540   2.637   4.480  -0.053 -0.0752 -0.4148 -0.6665
 1635TIP3    H226541   2.703   4.372   0.029  2.0671  1.8118  0.6632
 1636TIP3   OH226542   4.383   0.862   3.450 -0.3113 -0.2355  0.5071
 1636TIP3    H126543   4.425   0.843   3.535 -0.9639 -1.3003  0.6129
 1636TIP3    H226544   4.380   0.777   3.406  0.3983  0.3810 -0.7785
 1637TIP3   OH226545   3.225   6.696   3.306 -0.2400 -0.4181  0.1333
 1637TIP3    H126546   3.198   6.736   3.389  3.7481  0.7830  1.1014
 1637TIP3    H226547   3.298   6.638   3.330  0.1535 -1.1025 -2.3905
 1638TIP3   OH226548   0.842   2.541   3.572 -0.7751 -0.1991 -0.5142
 1638TIP3    H126549   0.896   2.598   3.627  0.2709 -0.8445 -0.8536
 1638TIP3    H226550   0.827   2.463   3.625  0.9304 -1.1831 -1.3883
 1639TIP3   OH226551   0.566   2.908   1.594 -0.1506  0.4811  0.4304
 1639TIP3    H126552   0.644   2.964   1.595 -1.1487  1.9358 -0.1268
 1639TIP3    H226553   0.502   2.956   1.647 -1.3122  0.3123 -0.7736
 1640TIP3   OH226554   3.744   3.392   8.335  0.2900  0.6032  0.2830
 1640TIP3    H126555   3.703   3.308   8.358  0.4921  0.1325 -1.0220
 1640TIP3    H226556   3.671   3.453   8.328  0.0592  0.3502  0.4332
 1641TIP3   OH226557   3.782   1.193   1.764  0.2781 -0.3608  0.4490
 1641TIP3    H126558   3.877   1.188   1.774  0.1156 -3.3817  1.3878
 1641TIP3    H226559   3.752   1.244   1.839  1.0629 -0.5658  0.9124
 1642TIP3   OH226560   5.842   3.083   1.313  0.2765  0.3729  0.0913
 1642TIP3    H126561   5.795   3.089   1.396 -1.1314  1.2574 -0.7332
 1642TIP3    H226562   5.810   3.157   1.261  1.8922  0.4464 -0.8795
 1643TIP3   OH226563   0.785   0.098   1.409  0.0194  0.2248  0.1551
 1643TIP3    H126564   0.804   0.071   1.319  0.0074  0.4256  0.0925
 1643TIP3    H226565   0.788   0.194   1.407  2.3145  0.2387  0.8627
 1644TIP3   OH226566   1.241   1.028   1.219  0.4495 -1.0692 -0.5620
 1644TIP3    H126567   1.183   1.103   1.228  0.9664 -0.6533 -0.6511
 1644TIP3    H226568   1.194   0.968   1.161 -1.4127 -2.2687  2.0224
 1645TIP3   OH226569   3.693   3.230   8.042 -0.7408  0.3913  0.5645
 1645TIP3    H126570   3.756   3.299   8.063  0.8051 -0.0504 -2.1532
 1645TIP3    H226571   3.746   3.161   8.002 -2.4023 -1.9524  2.1227
 1646TIP3   OH226572   1.848   1.953   3.351  0.0613  0.7832  0.4457
 1646TIP3    H126573   1.760   1.984   3.330 -0.9323 -2.5406 -1.0142
 1646TIP3    H226574   1.906   2.001   3.291 -1.2150  0.6506 -0.9511
 1647TIP3   OH226575   0.078   5.771   2.290  0.3410 -0.5703 -0.7308
 1647TIP3    H126576   0.105   5.858   2.260 -1.7594 -0.2058 -1.7748
 1647TIP3    H226577   0.080   5.717   2.211 -0.2554 -0.9434 -0.5002
 1648TIP3   OH226578   4.279   1.194   1.720 -0.6062  0.4414  0.6818
 1648TIP3    H126579   4.349   1.145   1.763 -0.4110 -0.0305 -0.1460
 1648TIP3    H226580   4.325   1.254   1.661 -0.8823  0.5092  0.5356
 1649TIP3   OH226581   4.403   1.696   3.137 -0.3623  0.1828  0.4537
 1649TIP3    H126582   4.457   1.679   3.214  0.7564  0.7690 -0.1834
 1649TIP3    H226583   4.402   1.791   3.129  0.7679  0.0999 -1.0859
 1650TIP3   OH226584   2.280   6.305   1.292  0.3043 -0.0752 -0.0640
 1650TIP3    H126585   2.362   6.311   1.244 -0.4826 -1.3520 -1.6763
 1650TIP3    H226586   2.221   6.364   1.245 -0.3043 -0.8651 -0.3155
 1651TIP3   OH226587   2.629   4.729   2.199 -0.8387  0.2148  0.3140
 1651TIP3    H126588   2.605   4.728   2.292 -2.2257  0.0062 -0.0246
 1651TIP3    H226589   2.705   4.671   2.193 -0.9362 -0.0338  1.2566
 1652TIP3   OH226590   2.224   1.412   0.300  0.1979 -0.0357 -0.0157
 1652TIP3    H126591   2.245   1.323   0.272 -0.9425  0.4880 -2.9458
 1652TIP3    H226592   2.137   1.405   0.339 -0.0343 -0.1622 -0.5528
 1653TIP3   OH226593   3.342   3.340   1.028 -0.6920  0.2309 -0.0447
 1653TIP3    H126594   3.365   3.366   1.117 -0.0419 -2.0163  0.4972
 1653TIP3    H226595   3.421   3.299   0.994 -1.2040  0.2903 -1.3616
 1654TIP3   OH226596   0.139   2.768   1.257 -0.0174 -0.1258  0.2560
 1654TIP3    H126597   0.203   2.804   1.195  0.2072  0.0691  0.5965
 1654TIP3    H226598   0.132   2.676   1.234 -0.4579  0.0908 -0.5091
 1655TIP3   OH226599   5.582   3.096   0.643 -0.6178 -0.7863 -0.4087
 1655TIP3    H126600   5.534   3.117   0.563  1.7296 -1.0315 -1.9665
 1655TIP3    H226601   5.571   3.174   0.698 -0.0758  0.5317 -2.0898
 1656TIP3   OH226602   3.808   0.784   2.604  0.2352 -0.2366 -0.3037
 1656TIP3    H126603   3.869   0.747   2.540  1.9478  2.1396 -0.1849
 1656TIP3    H226604   3.857   0.785   2.686  0.4621  2.5076 -0.3846
 1657TIP3   OH226605   4.986   1.195   1.371  0.1399  0.1053  0.4886
 1657TIP3    H126606   4.908   1.230   1.414 -0.6932 -0.1082 -0.7982
 1657TIP3    H226607   5.030   1.271   1.333 -0.6570  0.0042 -0.6881
 1658TIP3   OH226608   4.236   5.653   1.982  0.1179  0.1116  0.0720
 1658TIP3    H126609   4.193   5.618   2.060  1.9646 -0.4955  0.8888
 1658TIP3    H226610   4.281   5.732   2.014 -0.0424  0.5137 -0.6626
 1659TIP3   OH226611   5.185   0.285   2.813 -0.2625 -0.2223  0.4358
 1659TIP3    H126612   5.116   0.351   2.817  1.1286  1.4784 -1.5051
 1659TIP3    H226613   5.242   0.305   2.887  0.8525  1.6977 -0.8570
 1660TIP3   OH226614   1.621   1.908   0.021  0.5505  0.3104  0.0871
 1660TIP3    H126615   1.686   1.969   0.056 -0.7614  1.2389  1.0051
 1660TIP3    H226616   1.551   1.964  -0.013  0.3964 -0.6519 -1.2852
 1661TIP3   OH226617   5.071   2.884   8.157 -0.1718 -0.2777  0.1724
 1661TIP3    H126618   5.008   2.935   8.208 -1.0178 -1.5554  0.4373
 1661TIP3    H226619   5.028   2.870   8.073  0.2004 -0.2873 -0.0195
 1662TIP3   OH226620   6.691   5.013   0.170 -0.0709  0.1267 -0.2339
 1662TIP3    H126621   6.661   4.922   0.178  0.7373 -0.1099  0.2882
 1662TIP3    H226622   6.633   5.052   0.105 -0.2065 -0.8712 -0.7418
 1663TIP3   OH226623   4.251   1.438   7.942  0.0622  0.1952 -0.1612
 1663TIP3    H126624   4.338   1.415   7.910  0.3538 -0.6453  1.1718
 1663TIP3    H226625   4.219   1.358   7.984  0.0135  1.4065  2.2730
 1664TIP3   OH226626   5.743   1.346   3.502  0.7778  0.0922  0.0278
 1664TIP3    H126627   5.720   1.439   3.502  0.2275 -0.0349 -0.2320
 1664TIP3    H226628   5.838   1.344   3.512  0.7625  0.6726  0.3272
 1665TIP3   OH226629   4.633   2.113   2.204 -0.0235  0.5276  0.1704
 1665TIP3    H126630   4.637   2.208   2.196  4.1402  0.5830  0.6644
 1665TIP3    H226631   4.639   2.096   2.298 -2.4483 -0.3422  0.2590
 1666TIP3   OH226632   5.951   0.206   2.956  0.1880 -0.0571 -0.4149
 1666TIP3    H126633   5.872   0.158   2.983  1.4414 -1.7503  0.4096
 1666TIP3    H226634   5.966   0.269   3.026 -0.1624 -0.0587 -0.3343
 1667TIP3   OH226635   0.151   2.163   0.079 -0.2553 -0.2753  0.1986
 1667TIP3    H126636   0.075   2.215   0.050 -0.3527 -1.1722 -1.2771
 1667TIP3    H226637   0.118   2.074   0.085  0.5399 -0.5845  0.0845
 1668TIP3   OH226638   4.200   5.824   1.132 -0.6474 -0.1535 -0.3142
 1668TIP3    H126639   4.129   5.883   1.158  0.5277  0.5317  1.5972
 1668TIP3    H226640   4.249   5.873   1.067  1.1083  1.7260  2.2132
 1669TIP3   OH226641   0.128   3.282   0.503 -0.6069  0.6117  0.1083
 1669TIP3    H126642   0.217   3.317   0.507 -1.6802  3.5884  3.4070
 1669TIP3    H226643   0.116   3.239   0.588 -1.4651 -2.4830 -1.4453
 1670TIP3   OH226644   5.780   4.853   1.963  0.1076  0.4110  0.2996
 1670TIP3    H126645   5.852   4.915   1.978  0.8917 -0.4807  0.3163
 1670TIP3    H226646   5.816   4.789   1.902 -0.0146 -1.1466  1.7935
 1671TIP3   OH226647   0.630   4.292   8.586 -0.5782  0.2254  0.2678
 1671TIP3    H126648   0.536   4.277   8.588 -0.5133 -1.0081 -2.0163
 1671TIP3    H226649   0.668   4.205   8.576  0.6905  0.8323 -0.4776
 1672TIP3   OH226650   1.461   6.713   1.710 -0.5597 -0.2266 -0.2047
 1672TIP3    H126651   1.374   6.717   1.749 -0.3000 -2.1689  0.7031
 1672TIP3    H226652   1.511   6.656   1.769  1.9734  2.4898  0.4869
 1673TIP3   OH226653   3.460   1.650   1.269 -0.1221  0.0791 -0.1216
 1673TIP3    H126654   3.408   1.691   1.200 -0.6610  0.9407  0.7633
 1673TIP3    H226655   3.493   1.724   1.320  0.1130 -0.5470  0.6472
 1674TIP3   OH226656   1.513   4.348   1.805 -0.4671  0.1187 -0.0236
 1674TIP3    H126657   1.437   4.293   1.787 -1.0058  0.9449 -0.3331
 1674TIP3    H226658   1.519   4.406   1.730 -0.1363  0.7440  0.4745
 1675TIP3   OH226659   1.521   5.247   3.410 -0.0299  0.2013 -0.0534
 1675TIP3    H126660   1.513   5.171   3.467  1.2606 -1.0648 -1.4607
 1675TIP3    H226661   1.564   5.313   3.465  1.4019 -1.0585  0.4050
 1676TIP3   OH226662   1.666   6.704   2.908 -0.0729 -0.1266  0.5168
 1676TIP3    H126663   1.655   6.618   2.868  2.1580 -0.0583 -0.3858
 1676TIP3    H226664   1.654   6.766   2.836 -1.0065  0.3123  1.0262
 1677TIP3   OH226665   3.877   2.573   0.815  0.2658  0.0442  0.6676
 1677TIP3    H126666   3.919   2.488   0.828 -0.9486 -0.6045  0.5443
 1677TIP3    H226667   3.812   2.557   0.746  2.9856  2.1506 -2.6934
 1678TIP3   OH226668   3.171   6.409   0.656 -0.8351 -0.3928  0.4464
 1678TIP3    H126669   3.232   6.341   0.684  2.1534  1.6212 -0.6025
 1678TIP3    H226670   3.160   6.394   0.562 -3.4873 -1.7471  0.8961
 1679TIP3   OH226671   1.317   2.039   2.605 -0.2229 -0.0860 -0.5420
 1679TIP3    H126672   1.405   2.011   2.630 -0.3168 -0.9592 -1.1485
 1679TIP3    H226673   1.288   2.095   2.678  0.3243 -0.8430  0.2732
 1680TIP3   OH226674   2.665   4.076   0.206  0.5003  0.3006  0.6184
 1680TIP3    H126675   2.664   4.155   0.152  0.3219 -0.6154 -0.7738
 1680TIP3    H226676   2.699   4.105   0.290  0.6414  1.8154  0.0734
 1681TIP3   OH226677   3.871   4.812   0.808  0.0844 -0.2955 -0.0626
 1681TIP3    H126678   3.872   4.776   0.897 -0.9941 -0.8633 -0.2612
 1681TIP3    H226679   3.790   4.778   0.769  0.9105 -0.6845 -1.5230
 1682TIP3   OH226680   2.919   1.379   0.865  0.1755 -0.6080  0.2034
 1682TIP3    H126681   2.891   1.390   0.774 -0.6851 -1.0371  0.4100
 1682TIP3    H226682   3.012   1.358   0.859 -0.3407 -2.9508 -0.7481
 1683TIP3   OH226683   5.763   3.893   3.836 -0.2330  0.2315 -0.1478
 1683TIP3    H126684   5.669   3.894   3.852 -0.7311 -1.4196 -2.5647
 1683TIP3    H226685   5.800   3.850   3.913 -1.7307 -1.2533 -0.2120
 1684TIP3   OH226686   1.079   3.855   2.558 -0.0925  0.0991 -0.3118
 1684TIP3    H126687   1.161   3.816   2.589 -0.1108  1.7149  2.0299
 1684TIP3    H226688   1.082   3.845   2.463  1.2826 -2.7587 -0.0785
 1685TIP3   OH226689   2.709   1.691   1.327 -0.5124 -1.0097 -0.1051
 1685TIP3    H126690   2.803   1.674   1.340 -0.6087 -0.0140  2.4412
 1685TIP3    H226691   2.705   1.736   1.243  1.4770  0.0099  0.2656
 1686TIP3   OH226692   3.253   5.377   4.200  0.1392  0.4348  0.7967
 1686TIP3    H126693   3.294   5.460   4.175  0.3191  0.5028  1.3000
 1686TIP3    H226694   3.159   5.392   4.189  0.2364  0.2518 -0.4512
 1687TIP3   OH226695   6.894   6.663   0.928  0.0435 -0.1434 -0.2879
 1687TIP3    H126696   6.806   6.626   0.941  0.4592 -1.7250 -1.6380
 1687TIP3    H226697   6.878   6.756   0.915 -1.4866 -0.4251 -0.6966
 1688TIP3   OH226698   5.615   6.374   0.861 -0.0248 -0.0952 -0.4305
 1688TIP3    H126699   5.644   6.324   0.937  2.4895  2.0831  0.1848
 1688TIP3    H226700   5.547   6.432   0.894  2.3589  2.1955  0.7568
 1689TIP3   OH226701   4.619   3.953   0.737  0.1037 -0.1781  0.2946
 1689TIP3    H126702   4.572   3.925   0.658 -0.6026 -2.2472  1.3686
 1689TIP3    H226703   4.574   4.032   0.765 -0.2475  0.0440 -0.8243
 1690TIP3   OH226704   1.353   0.139   1.423  0.1146  0.1803 -0.0750
 1690TIP3    H126705   1.271   0.122   1.377 -0.4084  0.7905  0.6096
 1690TIP3    H226706   1.400   0.056   1.419 -0.1802  0.0531 -1.1692
 1691TIP3   OH226707   4.837   3.919   0.530  0.7729  0.0864 -0.1418
 1691TIP3    H126708   4.771   3.918   0.600  0.1226  1.3223 -0.7004
 1691TIP3    H226709   4.814   3.996   0.477  1.7547 -0.3452 -1.2304
 1692TIP3   OH226710   5.040   2.797   1.337  0.7315  0.0015 -0.8349
 1692TIP3    H126711   5.012   2.858   1.405  1.0019 -0.1263 -0.6072
 1692TIP3    H226712   5.120   2.758   1.371 -0.0606 -1.3600 -0.4599
 1693TIP3   OH226713   2.832   4.194   2.992 -0.4957  0.0153  0.0239
 1693TIP3    H126714   2.853   4.236   3.075  1.1057  0.3896 -0.5211
 1693TIP3    H226715   2.899   4.227   2.932 -0.1221 -2.1316 -0.8039
 1694TIP3   OH226716   0.081   4.012   0.826 -0.0500  0.0123 -0.2379
 1694TIP3    H126717   0.026   3.942   0.863  0.5638  0.2447  1.1681
 1694TIP3    H226718   0.148   4.027   0.892  1.4328  0.0856 -1.7104
 1695TIP3   OH226719   5.915   5.155   8.195 -0.0696  0.1922 -0.3745
 1695TIP3    H126720   5.946   5.080   8.246 -1.0235 -0.7550 -1.1653
 1695TIP3    H226721   5.996   5.200   8.168  0.6434 -1.7891 -1.7368
 1696TIP3   OH226722   0.921   5.855   4.211 -0.2601  0.0940 -0.2829
 1696TIP3    H126723   1.008   5.841   4.249 -0.4636  0.1021  0.1988
 1696TIP3    H226724   0.864   5.868   4.287 -0.3716  1.8872 -0.6267
 1697TIP3   OH226725   1.457   3.577   1.835 -0.7253  0.0252  0.1970
 1697TIP3    H126726   1.539   3.535   1.861 -0.4896 -0.7111 -1.5654
 1697TIP3    H226727   1.389   3.513   1.854 -0.7696  0.1946  0.6213
 1698TIP3   OH226728   0.148   1.599   3.867  0.2098 -0.1505  0.0878
 1698TIP3    H126729   0.224   1.636   3.822 -0.4105  0.5175 -0.4342
 1698TIP3    H226730   0.104   1.674   3.907  0.0576 -0.5858  0.7633
 1699TIP3   OH226731   4.531   5.027   2.219  0.9457  0.0597 -0.3333
 1699TIP3    H126732   4.520   4.960   2.286  0.5138  0.1058 -0.3553
 1699TIP3    H226733   4.600   4.993   2.162  1.5326  0.1575  0.3013
 1700TIP3   OH226734   1.713   3.473   1.876  0.0710  0.2953 -0.8760
 1700TIP3    H126735   1.732   3.551   1.824  1.0102 -0.8655 -2.3424
 1700TIP3    H226736   1.794   3.456   1.926  0.6887 -0.9566 -2.2322
 1701TIP3   OH226737   4.935   4.021   7.879  0.0313 -0.0796 -0.0732
 1701TIP3    H126738   4.840   4.027   7.884 -0.0951 -0.1679 -1.7944
 1701TIP3    H226739   4.966   4.111   7.889 -0.2121 -0.0810  0.7166
 1702TIP3   OH226740   1.249   1.595   0.485 -0.3227 -0.1427 -0.1879
 1702TIP3    H126741   1.252   1.500   0.501  0.5572  0.0482  0.9318
 1702TIP3    H226742   1.313   1.631   0.546 -1.8344  1.3521  0.5824
 1703TIP3   OH226743   0.717   1.933   1.229  0.5381 -0.1430 -0.1579
 1703TIP3    H126744   0.648   1.876   1.197  0.9155 -1.3399  1.0928
 1703TIP3    H226745   0.676   2.020   1.233 -0.5470 -0.6205 -0.4896
 1704TIP3   OH226746   4.018   0.221   2.090  0.0850  0.1316 -0.0126
 1704TIP3    H126747   4.002   0.139   2.043  0.1705 -0.4625  0.9657
 1704TIP3    H226748   3.935   0.239   2.134  0.2804  0.1948  0.3324
 1705TIP3   OH226749   5.255   1.201   1.091 -0.2717  0.2440 -0.4571
 1705TIP3    H126750   5.327   1.232   1.036 -0.8247  1.3197 -0.5992
 1705TIP3    H226751   5.258   1.257   1.169 -1.3471  0.7409 -0.7574
 1706TIP3   OH226752   2.496   1.540   2.175 -0.0949 -0.2675 -0.3029
 1706TIP3    H126753   2.524   1.538   2.084  0.0136  1.4383 -0.3457
 1706TIP3    H226754   2.569   1.582   2.221 -0.8219  0.3702  0.2927
 1707TIP3   OH226755   6.073   4.876   2.236 -0.0261  0.4498  0.4515
 1707TIP3    H126756   6.080   4.943   2.167  0.6775 -1.0163 -0.9695
 1707TIP3    H226757   6.044   4.924   2.313 -1.7041  2.0404 -1.0704
 1708TIP3   OH226758   5.858   1.677   1.001  0.1150  0.4166 -0.4100
 1708TIP3    H126759   5.909   1.668   1.081 -0.5100 -0.0597 -0.0502
 1708TIP3    H226760   5.861   1.770   0.980  1.8225  0.2879 -0.8706
 1709TIP3   OH226761   4.047   5.701   0.712  0.5875  0.4861 -0.2988
 1709TIP3    H126762   4.101   5.725   0.637 -0.5147  2.5010 -0.5285
 1709TIP3    H226763   3.963   5.743   0.695  0.2723  0.9269  2.0035
 1710TIP3   OH226764   5.550   2.676   1.911  0.1516  0.6794  1.0374
 1710TIP3    H126765   5.498   2.603   1.944  0.4645  0.0239  0.1383
 1710TIP3    H226766   5.495   2.753   1.924 -1.1220 -0.0197 -0.0206
 1711TIP3   OH226767   1.741   6.378   1.383  0.2047  0.7359  0.6668
 1711TIP3    H126768   1.775   6.333   1.461 -0.9991  1.7436  1.8119
 1711TIP3    H226769   1.648   6.358   1.383  0.3088  0.1373 -0.9712
 1712TIP3   OH226770   0.639   6.048   1.316 -0.1230  0.6794  0.1766
 1712TIP3    H126771   0.590   6.060   1.397  0.7420  0.2881  0.7752
 1712TIP3    H226772   0.729   6.030   1.345  0.3979  1.4517 -0.8881
 1713TIP3   OH226773   6.092   6.037   2.755 -0.2469  0.3054  0.1481
 1713TIP3    H126774   6.089   5.945   2.727  0.0360  0.6418 -1.0395
 1713TIP3    H226775   6.185   6.059   2.755 -0.3517  0.7679 -0.1990
 1714TIP3   OH226776   2.489   6.564   0.353  0.1476  0.0793 -0.5395
 1714TIP3    H126777   2.400   6.529   0.360  0.2297  0.1248  1.1123
 1714TIP3    H226778   2.529   6.514   0.282 -0.5130 -1.5000  0.1563
 1715TIP3   OH226779   5.533   4.227   8.166  0.3101 -0.4760  0.9147
 1715TIP3    H126780   5.590   4.152   8.181  0.5467 -0.7258 -1.0032
 1715TIP3    H226781   5.544   4.248   8.074 -3.0596 -0.8387  0.2899
 1716TIP3   OH226782   2.839   1.464   3.047 -0.0271  0.1897 -0.2713
 1716TIP3    H126783   2.776   1.500   2.985 -1.0133  0.2808  0.7609
 1716TIP3    H226784   2.827   1.369   3.041 -0.8079  0.2378  0.4770
 1717TIP3   OH226785   0.915   5.275   1.377  0.5250 -0.4474  0.3423
 1717TIP3    H126786   0.832   5.287   1.330  0.4427  1.3769  0.8702
 1717TIP3    H226787   0.978   5.256   1.308  0.3492  1.9169 -0.5819
 1718TIP3   OH226788   0.060   4.801   2.351 -0.2113  0.4966 -0.4444
 1718TIP3    H126789  -0.033   4.778   2.340 -0.2333 -0.2976  1.1151
 1718TIP3    H226790   0.088   4.750   2.427  0.8872  2.5771  0.6012
 1719TIP3   OH226791   5.170   4.414   0.331 -0.4546 -0.0781 -0.1132
 1719TIP3    H126792   5.154   4.345   0.267  0.8191  0.9183 -1.6055
 1719TIP3    H226793   5.087   4.460   0.338 -0.3873  0.3964 -1.8706
 1720TIP3   OH226794   6.208   6.155   0.294  0.3139 -0.0194 -0.4250
 1720TIP3    H126795   6.224   6.212   0.369 -1.4234  1.3288 -0.9990
 1720TIP3    H226796   6.123   6.115   0.311  0.4458 -0.6131 -1.1193
 1721TIP3   OH226797   0.539   1.701   0.822 -0.1612  0.2890 -0.0516
 1721TIP3    H126798   0.584   1.773   0.866  1.0412 -1.2486  1.3945
 1721TIP3    H226799   0.583   1.694   0.737 -2.2943  3.0808 -1.5415
 1722TIP3   OH226800   4.109   4.146   3.311 -0.1955 -0.5779  0.0227
 1722TIP3    H126801   4.025   4.191   3.322 -0.0095 -0.2577  0.1513
 1722TIP3    H226802   4.151   4.154   3.396  0.1917 -0.2675 -0.1924
 1723TIP3   OH226803   6.639   1.202   3.966 -0.2581 -0.0623  0.3565
 1723TIP3    H126804   6.587   1.247   4.032  0.9375  0.0236  1.2617
 1723TIP3    H226805   6.721   1.179   4.010 -0.2113 -1.7672 -0.5166
 1724TIP3   OH226806   2.131   3.915   3.271 -0.2747  0.1242  0.4983
 1724TIP3    H126807   2.204   3.875   3.224 -0.0314  0.9401  0.1692
 1724TIP3    H226808   2.097   3.982   3.211 -1.2449 -0.1906  0.6775
 1725TIP3   OH226809   2.974   4.491   4.296  0.2693  0.5033  0.0103
 1725TIP3    H126810   2.944   4.558   4.234 -1.6909 -0.6237 -0.3269
 1725TIP3    H226811   3.023   4.541   4.362  0.1051  2.0792 -0.9949
 1726TIP3   OH226812   1.141   3.084   2.800  0.0657  0.2315 -0.6921
 1726TIP3    H126813   1.098   3.038   2.873 -0.1315  1.8236  0.2458
 1726TIP3    H226814   1.198   3.018   2.760 -0.1699 -0.8106  0.6242
 1727TIP3   OH226815   2.461   6.685   3.866 -0.8003 -0.3637 -0.2190
 1727TIP3    H126816   2.427   6.601   3.896  1.1177 -0.1621  2.9760
 1727TIP3    H226817   2.542   6.663   3.820 -0.3408 -0.2933  0.5452
 1728TIP3   OH226818   3.582   6.293   1.531 -1.0087  0.4442 -0.2352
 1728TIP3    H126819   3.612   6.355   1.464  0.2739  1.2045  0.9812
 1728TIP3    H226820   3.638   6.216   1.520 -1.8511 -0.0753 -1.0206
 1729TIP3   OH226821   6.559   1.219   0.632  0.4712 -0.4366 -0.1482
 1729TIP3    H126822   6.501   1.232   0.557  1.7963  0.0872 -1.1317
 1729TIP3    H226823   6.505   1.238   0.708 -0.2177  1.7334 -1.1028
 1730TIP3   OH226824   0.960   5.306   3.339 -0.2664 -0.4272  0.2464
 1730TIP3    H126825   0.879   5.312   3.391  0.0041 -0.5037  0.6828
 1730TIP3    H226826   0.982   5.397   3.319 -1.1832 -0.4544 -1.0258
 1731TIP3   OH226827   2.972   4.909   1.628  0.0897  0.6749 -0.0276
 1731TIP3    H126828   2.897   4.905   1.688 -0.7898 -0.2724 -1.1221
 1731TIP3    H226829   3.049   4.901   1.684 -0.5063  3.1354  1.2978
 1732TIP3   OH226830   4.395   1.496   2.427 -0.2697  0.1684  0.1102
 1732TIP3    H126831   4.395   1.526   2.518  1.9182  2.9321 -0.6735
 1732TIP3    H226832   4.343   1.562   2.381  0.4668  0.0091 -0.9695
 1733TIP3   OH226833   3.310   1.757   1.081  0.5493 -0.0132 -0.0806
 1733TIP3    H126834   3.392   1.802   1.058 -0.5348 -0.0239 -5.0594
 1733TIP3    H226835   3.243   1.825   1.075 -0.2848 -0.8396 -0.3162
 1734TIP3   OH226836   4.253   6.256   3.933  0.2724  0.1284 -0.4555
 1734TIP3    H126837   4.216   6.170   3.912  2.1696 -1.1799  1.1312
 1734TIP3    H226838   4.181   6.318   3.916 -1.8880 -1.9842  0.3495
 1735TIP3   OH226839   0.535   3.314   8.124  0.5527  0.3529 -0.5124
 1735TIP3    H126840   0.580   3.282   8.202  0.5960  2.2570  0.3071
 1735TIP3    H226841   0.505   3.402   8.148 -0.0377  0.7270 -2.4169
 1736TIP3   OH226842   3.085   5.487   2.130 -0.5542 -0.2185  0.3753
 1736TIP3    H126843   3.115   5.499   2.221  0.8096  2.5179 -0.3123
 1736TIP3    H226844   2.991   5.472   2.138 -0.9614  2.4695  2.2506
 1737TIP3   OH226845   2.686   1.912   0.221 -0.2178 -0.4694 -0.1697
 1737TIP3    H126846   2.711   1.861   0.144 -0.0378  0.5405 -0.7812
 1737TIP3    H226847   2.598   1.880   0.243  0.7576 -2.6635  0.8366
 1738TIP3   OH226848   6.543   0.041   2.183  0.0503  0.3990 -0.3068
 1738TIP3    H126849   6.528   0.008   2.095  1.4792 -2.6242  0.4180
 1738TIP3    H226850   6.522  -0.033   2.240 -0.2622  2.0539  1.8741
 1739TIP3   OH226851   2.571   5.277   0.688 -0.1193 -0.4678  0.4102
 1739TIP3    H126852   2.597   5.187   0.708  2.5359  0.7675  3.6563
 1739TIP3    H226853   2.639   5.310   0.630 -0.1636 -0.1105  0.5549
 1740TIP3   OH226854   1.305   2.689   0.722 -0.2558  0.3676 -0.2377
 1740TIP3    H126855   1.380   2.662   0.670 -0.6747  0.9978 -1.1832
 1740TIP3    H226856   1.339   2.758   0.779  0.3683 -0.7987  0.8657
 1741TIP3   OH226857   2.573   4.986   3.049  0.5095 -0.4873 -0.2670
 1741TIP3    H126858   2.516   4.913   3.024  0.8682 -0.9887  0.3350
 1741TIP3    H226859   2.515   5.062   3.049 -0.1180 -0.9488  0.1128
 1742TIP3   OH226860   0.641   4.023   0.721 -0.0639 -0.0302  0.4018
 1742TIP3    H126861   0.623   3.957   0.787 -1.7302  1.3894  1.4523
 1742TIP3    H226862   0.565   4.021   0.663  0.6889 -0.2190 -0.6123
 1743TIP3   OH226863   4.471   0.154   3.368 -1.0070  0.2441  0.4442
 1743TIP3    H126864   4.486   0.093   3.441 -0.3709  1.0814  1.0393
 1743TIP3    H226865   4.446   0.236   3.411 -0.1561  0.8876 -0.2496
 1744TIP3   OH226866   2.773   1.188   3.072 -0.1493 -0.0935 -0.2264
 1744TIP3    H126867   2.798   1.186   3.164  0.8163  1.1909 -0.4255
 1744TIP3    H226868   2.677   1.186   3.073 -0.2193 -3.6474  0.6205
 1745TIP3   OH226869   6.938   4.415   4.063  0.8297 -0.1518 -0.1230
 1745TIP3    H126870   6.984   4.374   3.990  2.2589  0.4627  0.3978
 1745TIP3    H226871   6.964   4.507   4.058 -0.8593  0.3525 -0.1706
 1746TIP3   OH226872   6.761   0.603   7.904 -0.3805 -0.8778 -0.1790
 1746TIP3    H126873   6.693   0.670   7.913  1.8326  1.5423 -0.2693
 1746TIP3    H226874   6.763   0.559   7.989 -0.2473  0.8662  0.7560
 1747TIP3   OH226875   5.498   6.048   1.028 -0.0739 -0.3464  0.4938
 1747TIP3    H126876   5.432   6.117   1.022 -0.4246 -0.4794  2.2839
 1747TIP3    H226877   5.473   5.997   1.105  2.3255 -0.1358  1.5166
 1748TIP3   OH226878   6.892   4.939   0.539 -0.2530  0.4035  0.1004
 1748TIP3    H126879   6.955   4.974   0.601  1.0299 -0.2429 -0.7832
 1748TIP3    H226880   6.808   4.940   0.586  1.1075 -2.8750  3.0453
 1749TIP3   OH226881   4.527   4.952   8.553 -0.2762 -0.1704  0.5233
 1749TIP3    H126882   4.597   5.005   8.514 -1.5136  1.6558  0.6339
 1749TIP3    H226883   4.455   5.014   8.568 -1.1948 -1.5395  2.3087
 1750TIP3   OH226884   4.398   3.303   2.196  0.3713 -0.2603 -0.2119
 1750TIP3    H126885   4.475   3.347   2.160 -0.4458  0.5370 -1.0245
 1750TIP3    H226886   4.347   3.373   2.236  0.8526 -1.0041  1.8623
 1751TIP3   OH226887   6.104   5.543   2.354 -0.0808  0.3535 -0.2569
 1751TIP3    H126888   6.137   5.632   2.364  0.6775  0.1110 -0.6116
 1751TIP3    H226889   6.066   5.541   2.266 -0.9094  0.5806  0.0846
 1752TIP3   OH226890   4.304   0.639   1.912 -0.6013 -0.4342  0.1931
 1752TIP3    H126891   4.332   0.639   1.821 -0.0084  2.5679  0.2722
 1752TIP3    H226892   4.380   0.607   1.961 -0.5427 -0.9948 -0.2506
 1753TIP3   OH226893   3.869   2.594   3.877 -0.3003 -0.4805 -0.0615
 1753TIP3    H126894   3.870   2.521   3.938  0.7314  0.3161  0.9346
 1753TIP3    H226895   3.879   2.554   3.790  0.5947 -1.5004  0.4921
 1754TIP3   OH226896   1.197   3.102   3.268 -0.1513 -0.0739 -0.1296
 1754TIP3    H126897   1.254   3.178   3.280 -0.8744  0.4183  0.2578
 1754TIP3    H226898   1.203   3.081   3.175  2.9497 -1.8577  0.3408
 1755TIP3   OH226899   3.342   0.681   2.701  0.5356 -0.1463 -0.1921
 1755TIP3    H126900   3.333   0.738   2.777  2.1382  1.3218 -1.0463
 1755TIP3    H226901   3.270   0.707   2.643  0.8988  0.6208 -0.3130
 1756TIP3   OH226902   2.298   5.898   0.061  0.4205 -0.1660 -0.2373
 1756TIP3    H126903   2.338   5.966   0.116  0.7871  0.5185 -1.3174
 1756TIP3    H226904   2.340   5.909  -0.025 -3.1125  1.6908 -1.9837
 1757TIP3   OH226905   0.556   1.924   3.063  0.2633  0.6366  0.0072
 1757TIP3    H126906   0.589   1.953   2.978  1.6895 -1.9948 -0.4611
 1757TIP3    H226907   0.600   1.980   3.127 -0.1523  2.0658 -0.9214
 1758TIP3   OH226908   3.405   3.115   2.529 -0.1868 -0.1824  0.1770
 1758TIP3    H126909   3.373   3.084   2.613 -0.4418  0.9838  0.5357
 1758TIP3    H226910   3.498   3.093   2.528  0.1354  0.9838  1.3707
 1759TIP3   OH226911   0.486   2.986   3.094  0.1616 -0.3205 -0.4947
 1759TIP3    H126912   0.457   2.951   3.179 -0.7412 -0.2397 -0.7621
 1759TIP3    H226913   0.471   3.080   3.101 -0.8571 -0.4286 -1.0989
 1760TIP3   OH226914   1.284   1.327   0.594  0.1457  0.3400 -0.0196
 1760TIP3    H126915   1.203   1.283   0.620 -0.1952  1.6722  1.2904
 1760TIP3    H226916   1.345   1.310   0.666  1.5126 -1.7052 -1.5416
 1761TIP3   OH226917   1.239   6.611   1.134 -0.0220 -0.2304  0.2643
 1761TIP3    H126918   1.271   6.521   1.121 -0.1754 -0.2660  0.1345
 1761TIP3    H226919   1.150   6.610   1.099  0.4933  0.3640 -1.1842
 1762TIP3   OH226920   4.719   3.851   2.896 -0.2906  0.2785  0.5374
 1762TIP3    H126921   4.780   3.797   2.846 -0.7784 -0.4056  0.6573
 1762TIP3    H226922   4.719   3.936   2.851  0.1719  0.0493  0.0942
 1763TIP3   OH226923   0.568   4.457   8.330  0.1198 -0.0498  0.0084
 1763TIP3    H126924   0.614   4.441   8.247  0.3708  2.0299 -0.3093
 1763TIP3    H226925   0.617   4.405   8.394  1.2653 -0.0071 -0.7905
 1764TIP3   OH226926   3.081   5.406   1.282 -0.4430 -0.3559 -0.1478
 1764TIP3    H126927   3.032   5.359   1.214 -0.3181  1.2116 -1.3999
 1764TIP3    H226928   3.021   5.474   1.312 -0.4666 -0.9963  1.3001
 1765TIP3   OH226929   1.555   6.524   0.645 -0.2370  0.1137  0.9012
 1765TIP3    H126930   1.584   6.593   0.706  0.9854 -0.1169  0.6061
 1765TIP3    H226931   1.528   6.571   0.567  1.7180  0.2377  0.2508
 1766TIP3   OH226932   3.591   6.601   1.597 -0.0557  0.1219  0.8288
 1766TIP3    H126933   3.585   6.660   1.522 -0.2989 -0.0139  0.7421
 1766TIP3    H226934   3.586   6.513   1.560 -2.3249  0.0521  1.1616
 1767TIP3   OH226935   0.373   1.722   1.811 -0.2974  0.2111 -0.4412
 1767TIP3    H126936   0.418   1.804   1.791  1.3786 -0.1800  1.3925
 1767TIP3    H226937   0.443   1.660   1.828 -1.5445 -1.2081 -0.2607
 1768TIP3   OH226938   6.891   0.056   2.228  0.1574 -0.2143  0.3200
 1768TIP3    H126939   6.833   0.046   2.153  0.9601  0.5306 -0.4201
 1768TIP3    H226940   6.976   0.025   2.197  0.6829  0.8491  0.6603
 1769TIP3   OH226941   0.894   5.778   3.659  0.1970  0.1163  0.0113
 1769TIP3    H126942   0.972   5.833   3.666 -0.0642  0.5117 -0.1253
 1769TIP3    H226943   0.826   5.837   3.627 -0.1953 -0.1904  0.2697
 1770TIP3   OH226944   4.969   3.715   2.733 -0.0968 -0.3003  0.0206
 1770TIP3    H126945   5.061   3.716   2.705  0.3514 -3.7140  0.9412
 1770TIP3    H226946   4.932   3.638   2.691 -1.9074 -0.2928  1.4891
 1771TIP3   OH226947   4.162   0.439   2.465  0.1660  0.3366  0.1817
 1771TIP3    H126948   4.189   0.381   2.393  0.4700 -0.1072  0.6450
 1771TIP3    H226949   4.150   0.380   2.539  2.0102  1.0200  1.0916
 1772TIP3   OH226950   2.301   1.672   3.807  0.1183 -0.9360 -0.7987
 1772TIP3    H126951   2.214   1.698   3.837  0.4679 -0.4249 -0.1983
 1772TIP3    H226952   2.352   1.660   3.887  0.4324 -1.8600 -1.1179
 1773TIP3   OH226953   6.109   5.890   2.065  0.3176 -0.1135 -0.0772
 1773TIP3    H126954   6.047   5.953   2.028 -0.4836 -1.8319 -1.8866
 1773TIP3    H226955   6.055   5.827   2.112  0.5228 -1.8571 -2.0070
 1774TIP3   OH226956   5.393   3.023   8.375 -0.5654  0.5268  0.4550
 1774TIP3    H126957   5.456   2.973   8.426 -0.0969  0.6179 -0.0340
 1774TIP3    H226958   5.364   2.963   8.306  0.3160  1.0558 -0.3914
 1775TIP3   OH226959   2.569   6.251   0.565  0.2087  0.2295 -0.2264
 1775TIP3    H126960   2.584   6.287   0.478  0.6705  0.5024 -0.0344
 1775TIP3    H226961   2.608   6.315   0.625 -1.0370  0.5936  0.2456
 1776TIP3   OH226962   5.726   4.015   3.386 -0.2940 -0.2978 -0.4683
 1776TIP3    H126963   5.649   3.960   3.396  0.5152 -1.7219 -1.6369
 1776TIP3    H226964   5.798   3.964   3.423  0.3574  0.3025 -0.8623
 1777TIP3   OH226965   6.120   0.341   1.913  0.4974  0.2499  0.5585
 1777TIP3    H126966   6.178   0.379   1.847  0.2904 -1.7231 -0.8499
 1777TIP3    H226967   6.047   0.306   1.862 -1.0126  0.9937  2.1244
 1778TIP3   OH226968   1.126   1.285   3.155  0.1237  0.4175 -0.3533
 1778TIP3    H126969   1.073   1.219   3.110  0.7616 -2.1424  2.4020
 1778TIP3    H226970   1.181   1.236   3.216  1.9178  3.3856  0.6505
 1779TIP3   OH226971   6.831   1.286   1.034 -0.3735  0.3052 -0.3451
 1779TIP3    H126972   6.899   1.235   1.078 -2.7689 -1.7938  1.2216
 1779TIP3    H226973   6.819   1.242   0.950 -1.8796 -1.4046  0.6802
 1780TIP3   OH226974   4.869   3.172   0.319  0.0573  0.1600 -0.5308
 1780TIP3    H126975   4.802   3.132   0.375 -0.0956 -0.3377 -1.0657
 1780TIP3    H226976   4.839   3.262   0.307 -0.9531 -0.2766 -1.4331
 1781TIP3   OH226977   4.867   2.139   3.112 -0.0867 -0.3088  0.2132
 1781TIP3    H126978   4.928   2.079   3.154 -1.6898 -1.5423  0.8481
 1781TIP3    H226979   4.907   2.226   3.124  0.5371 -0.8427  2.4416
 1782TIP3   OH226980   4.124   0.149   3.647  0.2310  0.6618 -0.1452
 1782TIP3    H126981   4.173   0.150   3.729  1.2244  1.5796 -0.7241
 1782TIP3    H226982   4.038   0.114   3.671  0.4056  1.1861  1.3465
 1783TIP3   OH226983   4.442   5.477   1.053  0.0593 -0.4189  0.2020
 1783TIP3    H126984   4.419   5.392   1.092  0.1713 -0.8026 -0.5525
 1783TIP3    H226985   4.397   5.541   1.108 -0.9037 -1.0198  0.1424
 1784TIP3   OH226986   5.297   3.689   1.026 -0.2577  0.1113 -0.0169
 1784TIP3    H126987   5.227   3.625   1.015 -0.1709  0.2164 -1.4081
 1784TIP3    H226988   5.373   3.637   1.052 -0.9655  0.0744  2.1426
 1785TIP3   OH226989   3.017   3.398   2.239  0.1193  0.3439 -0.6601
 1785TIP3    H126990   3.067   3.319   2.258 -0.5906  0.0606  0.0945
 1785TIP3    H226991   3.050   3.428   2.155  0.8530 -0.3892 -0.6427
 1786TIP3   OH226992   6.380   5.489   2.350  0.0081 -0.2112 -0.1989
 1786TIP3    H126993   6.373   5.476   2.256  0.4267  2.2554 -0.6326
 1786TIP3    H226994   6.295   5.459   2.384 -0.3561 -0.6225 -1.4125
 1787TIP3   OH226995   5.137   1.455   2.468 -0.0311 -0.7016 -0.1464
 1787TIP3    H126996   5.226   1.434   2.495  0.6737 -0.2005 -1.9816
 1787TIP3    H226997   5.097   1.493   2.546  2.6600  3.0073 -0.3185
 1788TIP3   OH226998   0.285   2.562   1.793 -0.3459  0.2053  0.1729
 1788TIP3    H126999   0.208   2.587   1.844  1.2488  1.6024  2.0347
 1788TIP3    H227000   0.267   2.595   1.705 -1.5696  1.1361  0.7368
 1789TIP3   OH227001   0.644   5.584   1.374 -0.2979 -0.6229 -0.0424
 1789TIP3    H127002   0.631   5.491   1.357  1.3244 -1.1057  1.1383
 1789TIP3    H227003   0.565   5.612   1.419  0.5083 -2.2857  2.6458
 1790TIP3   OH227004   1.421   2.683   3.464  0.4918  0.3729 -0.3129
 1790TIP3    H127005   1.418   2.613   3.529 -1.2195 -2.0649 -2.7465
 1790TIP3    H227006   1.475   2.751   3.503 -1.1109 -0.4938  3.9579
 1791TIP3   OH227007   2.634   2.566   3.924 -0.2600  0.3420  0.5755
 1791TIP3    H127008   2.595   2.555   3.838  0.3326 -0.2773  0.3744
 1791TIP3    H227009   2.639   2.661   3.936 -0.8968  0.4272  0.1889
 1792TIP3   OH227010   4.444   0.926   8.459 -0.2196  0.6652 -0.4725
 1792TIP3    H127011   4.412   0.836   8.458 -0.8617  0.8825 -0.1228
 1792TIP3    H227012   4.513   0.927   8.393  0.5807 -0.3553  0.3210
 1793TIP3   OH227013   1.324   2.566   1.462 -0.4152 -0.2031  0.3067
 1793TIP3    H127014   1.374   2.530   1.535  2.1039  1.2376 -0.5930
 1793TIP3    H227015   1.310   2.491   1.404  1.6210 -0.4833  0.1204
 1794TIP3   OH227016   1.017   5.179   0.211  0.0540 -0.6277  0.3991
 1794TIP3    H127017   0.934   5.132   0.201 -0.0957 -0.2710 -0.0509
 1794TIP3    H227018   1.085   5.113   0.197 -0.1405 -0.3719 -2.0413
 1795TIP3   OH227019   5.803   0.520   3.496  0.5025  0.7628  0.2224
 1795TIP3    H127020   5.848   0.585   3.551  2.3864 -0.0849 -0.2176
 1795TIP3    H227021   5.862   0.444   3.497 -1.5278 -0.9030  0.5737
 1796TIP3   OH227022   6.086   2.027   2.371  0.5785 -0.6256  0.1861
 1796TIP3    H127023   6.127   2.007   2.287  1.2641  2.8011 -0.4236
 1796TIP3    H227024   6.012   2.083   2.350  0.1411 -0.5291  1.8182
 1797TIP3   OH227025   5.563   6.443   3.193  0.1336 -0.6293  0.4311
 1797TIP3    H127026   5.631   6.399   3.245  0.4535 -0.5320  0.1033
 1797TIP3    H227027   5.536   6.378   3.129  0.6071 -0.3613 -0.0535
 1798TIP3   OH227028   3.191   1.332   0.828  0.0051 -0.1050 -0.2230
 1798TIP3    H127029   3.196   1.401   0.894  1.3404 -1.0579  0.7080
 1798TIP3    H227030   3.214   1.376   0.746 -0.1526  0.7593  0.1829
 1799TIP3   OH227031   5.307   5.148   2.062  0.4204  0.0323  0.2318
 1799TIP3    H127032   5.371   5.204   2.106  0.6181  0.7784 -0.9667
 1799TIP3    H227033   5.354   5.066   2.045  0.4888 -0.0879  0.9499
 1800TIP3   OH227034   1.376   1.685   8.145 -0.0311  0.5169 -0.2659
 1800TIP3    H127035   1.466   1.714   8.132  0.6124 -0.8630  0.8922
 1800TIP3    H227036   1.383   1.608   8.201 -2.0053  1.0367  0.8130
 1801TIP3   OH227037   2.601   2.411   3.623 -0.0761 -0.4974 -0.1593
 1801TIP3    H127038   2.610   2.474   3.551 -0.1129 -0.2797  0.0255
 1801TIP3    H227039   2.689   2.407   3.661  0.0308 -0.8778 -0.4319
 1802TIP3   OH227040   4.209   2.670   2.052 -0.0351  0.0196 -0.4058
 1802TIP3    H127041   4.180   2.591   2.097 -1.9526  1.0657  0.2780
 1802TIP3    H227042   4.296   2.687   2.088  0.5917 -1.9330 -0.8282
 1803TIP3   OH227043   0.153   4.451   1.193  0.4794  0.2712 -0.1032
 1803TIP3    H127044   0.231   4.430   1.142 -0.2855 -0.3103 -1.0575
 1803TIP3    H227045   0.081   4.440   1.132 -0.2687  2.0865  0.3795
 1804TIP3   OH227046   2.717   4.011   2.758 -0.3364 -0.2627  0.0158
 1804TIP3    H127047   2.779   4.067   2.804  0.3960 -0.7736 -0.3316
 1804TIP3    H227048   2.676   4.068   2.693 -0.4499  0.1467  0.4444
 1805TIP3   OH227049   0.545   0.701   3.326 -0.1625  0.5585  0.4703
 1805TIP3    H127050   0.568   0.750   3.405  1.4858  1.5277 -0.5354
 1805TIP3    H227051   0.458   0.733   3.303 -0.2060  1.0685  1.2932
 1806TIP3   OH227052   4.734   3.019   0.119  0.2139 -0.3984  0.7912
 1806TIP3    H127053   4.810   3.057   0.164 -0.8279  1.7755  0.8341
 1806TIP3    H227054   4.764   3.008   0.029  0.9594 -0.7319  1.0679
 1807TIP3   OH227055   1.390   6.017   1.109 -0.0937  0.2142  0.3058
 1807TIP3    H127056   1.419   5.969   1.186 -0.6621  1.5157  1.3678
 1807TIP3    H227057   1.471   6.042   1.064  0.2737  0.2576  0.9891
 1808TIP3   OH227058   3.432   0.446   0.380  0.1433  0.0111 -0.1345
 1808TIP3    H127059   3.412   0.412   0.467 -1.1173  0.8674 -0.0631
 1808TIP3    H227060   3.381   0.392   0.320 -1.1613  1.1269 -0.0900
 1809TIP3   OH227061   5.305   0.914   0.473 -0.1456  0.1054 -0.6750
 1809TIP3    H127062   5.335   0.958   0.394 -0.4787  1.1784 -0.2275
 1809TIP3    H227063   5.227   0.963   0.500  0.3871  0.2338  0.7180
 1810TIP3   OH227064   3.942   0.326   3.534  0.6158 -0.2680 -0.0926
 1810TIP3    H127065   3.923   0.409   3.577  0.7564  0.4589 -1.3925
 1810TIP3    H227066   4.018   0.292   3.580  1.3467  0.9500 -0.3672
 1811TIP3   OH227067   0.962   3.681   0.083  0.1566  0.3091  0.1028
 1811TIP3    H127068   1.001   3.670   0.169 -1.4430 -0.4838  0.7617
 1811TIP3    H227069   0.916   3.598   0.066  2.7205 -0.6966 -2.7662
 1812TIP3   OH227070   0.467   2.370   0.480 -0.9775 -0.3210  0.0862
 1812TIP3    H127071   0.423   2.295   0.439  0.5398 -1.7965  1.0151
 1812TIP3    H227072   0.506   2.418   0.407  0.0654 -1.8190 -0.3969
 1813TIP3   OH227073   5.146   2.522   2.725 -0.5002  0.0525 -0.2782
 1813TIP3    H127074   5.214   2.479   2.777  0.0416  0.0746 -0.9564
 1813TIP3    H227075   5.071   2.528   2.784 -1.1838 -3.3011 -0.6135
 1814TIP3   OH227076   2.676   0.816   2.355 -0.2536 -0.0204 -0.1552
 1814TIP3    H127077   2.740   0.783   2.417  0.0898 -0.4526 -0.7231
 1814TIP3    H227078   2.604   0.753   2.359  0.0786 -0.4550 -0.6958
 1815TIP3   OH227079   5.746   3.702   1.255 -0.2550  0.4291  0.5158
 1815TIP3    H127080   5.782   3.786   1.226  2.3959 -0.6262  0.4837
 1815TIP3    H227081   5.823   3.650   1.279 -1.7658 -2.2205 -0.0394
 1816TIP3   OH227082   0.704   4.251   2.872 -0.4972  0.2138  0.0106
 1816TIP3    H127083   0.791   4.223   2.846  0.6218  1.5472  1.9837
 1816TIP3    H227084   0.702   4.344   2.851 -1.7333  0.0499 -0.6602
 1817TIP3   OH227085   1.575   1.135   3.861  0.5347 -0.1358 -0.3828
 1817TIP3    H127086   1.569   1.165   3.952  0.2564 -1.1139 -0.0650
 1817TIP3    H227087   1.652   1.079   3.859  1.5064  1.1805 -1.1553
 1818TIP3   OH227088   5.787   3.170   1.551  0.7091  0.1556  0.2126
 1818TIP3    H127089   5.709   3.206   1.509  1.2345  0.8906 -0.1380
 1818TIP3    H227090   5.782   3.202   1.641 -0.3214 -1.2720  0.7030
 1819TIP3   OH227091   5.355   4.751   3.399 -0.6877 -0.0585 -0.1008
 1819TIP3    H127092   5.387   4.675   3.448  0.0600  0.8036  0.7768
 1819TIP3    H227093   5.277   4.719   3.354 -0.4453 -1.3208  0.3308
 1820TIP3   OH227094   3.287   6.908   2.926 -0.4141 -0.8138 -0.7450
 1820TIP3    H127095   3.353   6.906   2.996 -0.2751 -0.8295 -0.8752
 1820TIP3    H227096   3.250   6.996   2.930  0.6986 -0.2619 -1.6648
 1821TIP3   OH227097   5.581   4.479   2.464 -0.3163  0.6877  0.5428
 1821TIP3    H127098   5.552   4.567   2.441  2.6001  1.9466  1.2003
 1821TIP3    H227099   5.625   4.447   2.385 -2.1210 -0.6112  0.0085
 1822TIP3   OH227100   5.502   4.424   0.905 -0.2082  0.0747  0.5171
 1822TIP3    H127101   5.432   4.477   0.945  0.4930 -0.1797  2.1485
 1822TIP3    H227102   5.567   4.488   0.877 -1.1083  0.3285 -1.1712
 1823TIP3   OH227103   0.789   2.406   1.884 -0.3545  0.5328  0.2383
 1823TIP3    H127104   0.817   2.476   1.825 -0.8845 -1.0528 -2.0015
 1823TIP3    H227105   0.729   2.352   1.832 -0.4077 -1.2853  2.0428
 1824TIP3   OH227106   4.144   6.407   0.411 -0.0870  0.0646  0.5612
 1824TIP3    H127107   4.081   6.345   0.373 -0.5260  0.8239  0.0249
 1824TIP3    H227108   4.089   6.478   0.445  0.5085  1.2670 -0.8737
 1825TIP3   OH227109   3.882   2.264   0.806  0.1363  0.5345  0.2138
 1825TIP3    H127110   3.911   2.209   0.880  2.0525  1.4765  0.2327
 1825TIP3    H227111   3.788   2.273   0.818  0.0836 -1.0828  1.3402
 1826TIP3   OH227112   4.127   2.678   7.717 -0.2057 -0.1508 -0.1427
 1826TIP3    H127113   4.132   2.675   7.813  0.1113 -0.6808 -0.1655
 1826TIP3    H227114   4.047   2.630   7.696  0.9112 -2.1252 -0.2112
 1827TIP3   OH227115   2.286   4.071   3.786  0.1742 -0.0970  0.1265
 1827TIP3    H127116   2.378   4.077   3.811  0.1291  0.3626  0.1836
 1827TIP3    H227117   2.241   4.051   3.868  0.2116 -0.2268  0.1158
 1828TIP3   OH227118   3.887   5.119   0.316  0.6414 -0.6645  0.2428
 1828TIP3    H127119   3.937   5.166   0.250 -0.1733 -1.0679 -0.6912
 1828TIP3    H227120   3.949   5.056   0.353  0.7102 -1.5612 -1.3131
 1829TIP3   OH227121   0.846   4.501   2.529  0.0966  0.7690 -0.1639
 1829TIP3    H127122   0.795   4.515   2.449 -0.2052 -2.0714 -0.5644
 1829TIP3    H227123   0.782   4.466   2.592  1.1623 -1.3673 -0.1794
 1830TIP3   OH227124   3.235   1.462   2.543 -0.0835  0.2895 -0.1514
 1830TIP3    H127125   3.257   1.397   2.476 -0.9605  0.3149 -0.4738
 1830TIP3    H227126   3.274   1.544   2.511  0.4597  0.0711 -0.0670
 1831TIP3   OH227127   6.937   1.382   4.005  0.5268 -0.3205 -0.2674
 1831TIP3    H127128   6.857   1.433   4.012  1.8682  1.7629  0.8053
 1831TIP3    H227129   6.997   1.437   3.956  2.5414 -0.0660  2.2572
 1832TIP3   OH227130   1.261   5.173   0.990 -0.4915 -0.1389  0.1439
 1832TIP3    H127131   1.168   5.178   0.967 -0.6285  0.0293  0.7147
 1832TIP3    H227132   1.296   5.258   0.966 -0.4855 -0.1987 -0.0621
 1833TIP3   OH227133   0.058   4.263   3.340  0.0756  0.2314  0.2025
 1833TIP3    H127134   0.113   4.255   3.263 -0.4585  1.0415 -0.2818
 1833TIP3    H227135   0.030   4.355   3.340 -1.2707 -0.1519  0.4199
 1834TIP3   OH227136   6.706   3.064   3.263  0.1941 -0.3044  0.4267
 1834TIP3    H127137   6.684   3.063   3.356  0.0055 -0.4293  0.3804
 1834TIP3    H227138   6.708   3.157   3.240  0.2891 -0.2720  0.5659
 1835TIP3   OH227139   3.892   6.325   8.494  0.1017  0.4095  0.4736
 1835TIP3    H127140   3.982   6.353   8.477  0.4001 -0.3798  0.6930
 1835TIP3    H227141   3.842   6.406   8.500  0.9027  0.8828  0.9376
 1836TIP3   OH227142   5.709   0.570   1.283 -0.0484 -0.3261 -0.3337
 1836TIP3    H127143   5.719   0.569   1.188  0.4278 -2.9013 -0.3338
 1836TIP3    H227144   5.615   0.566   1.297 -0.2349  1.7451 -0.6083
 1837TIP3   OH227145   1.837   2.452   2.728  0.4922  0.1067 -0.7259
 1837TIP3    H127146   1.849   2.454   2.633  1.7677  0.4345 -0.5830
 1837TIP3    H227147   1.919   2.414   2.760 -0.0798 -0.3492  0.2278
 1838TIP3   OH227148   2.508   2.638   2.507  0.4695  0.4897  0.1918
 1838TIP3    H127149   2.566   2.563   2.503 -1.4439 -1.1687  1.4567
 1838TIP3    H227150   2.472   2.636   2.595  0.5465  3.0991  0.3562
 1839TIP3   OH227151   3.796   1.604   3.285  0.1299 -0.4907 -0.2127
 1839TIP3    H127152   3.748   1.628   3.364  1.4116 -0.4892  0.5963
 1839TIP3    H227153   3.874   1.661   3.286 -1.2754  1.7400 -3.1000
 1840TIP3   OH227154   6.481   2.106   2.611 -0.3400 -0.1646  0.2125
 1840TIP3    H127155   6.570   2.134   2.631 -0.1223 -1.1702  0.7016
 1840TIP3    H227156   6.465   2.032   2.669 -0.0935 -2.4624 -2.4201
 1841TIP3   OH227157   1.545   1.373   2.192 -0.3139  0.0265 -0.7016
 1841TIP3    H127158   1.609   1.310   2.223 -1.0838  1.0330  3.4746
 1841TIP3    H227159   1.578   1.458   2.222 -2.2521  0.8630 -0.8057
 1842TIP3   OH227160   1.199   6.452   8.470  0.1683 -0.2189  0.4875
 1842TIP3    H127161   1.207   6.370   8.518 -1.4578 -0.0250  1.1261
 1842TIP3    H227162   1.177   6.426   8.381  1.8579 -0.5250  0.1239
 1843TIP3   OH227163   5.206   6.461   0.539  0.0013 -0.1161  0.4994
 1843TIP3    H127164   5.178   6.410   0.463 -1.7369  0.4411  0.7315
 1843TIP3    H227165   5.253   6.398   0.594 -0.2905 -0.9587 -0.1965
 1844TIP3   OH227166   0.711   6.327   1.222  0.3698 -0.0632 -0.0142
 1844TIP3    H127167   0.774   6.262   1.192 -0.3704 -0.3413 -1.0084
 1844TIP3    H227168   0.674   6.289   1.302 -0.1759 -0.9527 -0.6782
 1845TIP3   OH227169   3.724   4.115   3.181 -0.1529  0.0193 -0.2276
 1845TIP3    H127170   3.743   4.189   3.238  3.6651 -1.4728  0.7671
 1845TIP3    H227171   3.749   4.145   3.093  0.5265  0.2271  0.0293
 1846TIP3   OH227172   0.137   2.070   2.239 -0.8385 -0.3991 -0.0806
 1846TIP3    H127173   0.085   2.076   2.159  1.1754 -2.2212 -1.6463
 1846TIP3    H227174   0.189   1.991   2.228  2.6738  1.5062  1.0578
 1847TIP3   OH227175   4.515   0.117   0.739 -0.8837  0.9850 -0.1655
 1847TIP3    H127176   4.487   0.204   0.769  1.3726  2.3794 -1.7821
 1847TIP3    H227177   4.610   0.116   0.754 -0.7488 -0.8890 -0.9076
 1848TIP3   OH227178   6.086   1.140   8.523 -0.1764  0.1054  0.5343
 1848TIP3    H127179   6.159   1.111   8.578 -1.1634  0.3191  2.0045
 1848TIP3    H227180   6.121   1.135   8.434  2.1225  1.5901  1.2497
 1849TIP3   OH227181   1.037   6.691   3.029 -0.1397 -0.0946  0.0790
 1849TIP3    H127182   0.993   6.726   2.951  1.3290 -1.1681 -1.3284
 1849TIP3    H227183   0.975   6.705   3.100 -1.5374  0.9917 -1.2661
 1850TIP3   OH227184   6.179   1.605   3.862  0.2614  0.6334  0.2146
 1850TIP3    H127185   6.269   1.574   3.868  0.0685  0.0959  0.4361
 1850TIP3    H227186   6.128   1.538   3.908 -0.2644  0.8684 -0.0216
 1851TIP3   OH227187   6.540   6.034   3.630  0.2901  0.4487  0.1783
 1851TIP3    H127188   6.476   6.104   3.617 -1.4633 -1.0365  0.5791
 1851TIP3    H227189   6.569   6.012   3.541 -1.5009 -0.4141 -0.2359
 1852TIP3   OH227190   2.831   2.968   3.209  0.4010  0.2695 -0.4326
 1852TIP3    H127191   2.888   2.893   3.191  0.4243  0.2601 -0.3224
 1852TIP3    H227192   2.879   3.020   3.273  0.0269 -0.0518  0.1232
 1853TIP3   OH227193   6.834   6.084   2.715  0.4726 -0.0026  0.1243
 1853TIP3    H127194   6.879   6.043   2.641  1.3657  1.7037 -0.3272
 1853TIP3    H227195   6.763   6.023   2.736 -0.2125 -0.2795 -2.5437
 1854TIP3   OH227196   5.099   2.280   1.110  0.5679  0.0760 -0.0111
 1854TIP3    H127197   5.152   2.289   1.032  1.1172 -0.7603  0.2472
 1854TIP3    H227198   5.115   2.360   1.160 -0.7608  1.1906 -1.3048
 1855TIP3   OH227199   5.648   3.480   8.086 -1.0383 -0.0575  0.2831
 1855TIP3    H127200   5.648   3.406   8.024 -0.8258 -0.3678  0.6511
 1855TIP3    H227201   5.555   3.503   8.096 -1.0919 -0.1657  0.0384
 1856TIP3   OH227202   2.439   3.734   1.888 -0.0903 -0.3359 -0.3477
 1856TIP3    H127203   2.428   3.800   1.820  0.0466  0.6297  0.5366
 1856TIP3    H227204   2.350   3.712   1.915 -0.1905 -1.4542 -1.4852
 1857TIP3   OH227205   4.384   1.632   2.704  0.1456 -0.0015  0.5199
 1857TIP3    H127206   4.316   1.679   2.655 -0.5811 -1.2098  0.3348
 1857TIP3    H227207   4.460   1.690   2.700  0.4440 -0.4389 -2.8568
 1858TIP3   OH227208   5.422   1.964   0.788  0.2470 -0.2841 -0.4788
 1858TIP3    H127209   5.469   1.881   0.789 -1.4625 -1.2869  0.6464
 1858TIP3    H227210   5.397   1.976   0.696 -0.6504 -1.7100 -0.4401
 1859TIP3   OH227211   1.755   3.065   2.055  0.0221 -0.6303  0.1585
 1859TIP3    H127212   1.724   3.026   1.974 -0.7472  0.1871  0.0372
 1859TIP3    H227213   1.678   3.066   2.112 -0.0278  0.7386  0.1180
 1860TIP3   OH227214   6.446   6.287   1.597 -0.0652 -0.5701  0.0142
 1860TIP3    H127215   6.495   6.355   1.644  1.2621 -1.9944  0.7737
 1860TIP3    H227216   6.364   6.279   1.645  0.6144 -0.8957  1.1668
 1861TIP3   OH227217   3.085   5.563   3.376 -0.4655 -0.2955 -0.5590
 1861TIP3    H127218   3.173   5.569   3.339 -0.9743 -0.4314 -1.8401
 1861TIP3    H227219   3.099   5.533   3.466  0.8316  0.4488 -0.4975
 1862TIP3   OH227220   6.426   5.803   2.450  0.3599 -0.0320  0.5321
 1862TIP3    H127221   6.499   5.742   2.461  0.7497  0.3391  0.0394
 1862TIP3    H227222   6.465   5.890   2.458  0.2536  0.2075 -1.1676
 1863TIP3   OH227223   6.441   4.021   2.603 -0.8485 -0.4843  0.4356
 1863TIP3    H127224   6.415   3.961   2.673 -2.2288 -0.9119 -0.4059
 1863TIP3    H227225   6.375   4.009   2.535  0.5515 -0.2334 -1.0411
 1864TIP3   OH227226   2.077   2.916   0.843 -0.1034  0.3377 -0.0383
 1864TIP3    H127227   2.101   2.934   0.934 -2.3430  2.6980  0.2164
 1864TIP3    H227228   2.015   2.986   0.821 -1.1399 -1.2971 -2.7620
 1865TIP3   OH227229   4.146   6.435   3.001 -0.3356  0.1027 -0.5302
 1865TIP3    H127230   4.217   6.467   3.056 -1.7314  1.8175  0.3788
 1865TIP3    H227231   4.105   6.366   3.053 -0.8744  0.8550  0.0600
 1866TIP3   OH227232   0.673   0.890   0.942  0.4924  0.3284  0.0605
 1866TIP3    H127233   0.622   0.899   1.022 -0.4125  1.4246 -0.6021
 1866TIP3    H227234   0.609   0.901   0.872  1.5187  0.9834 -0.8045
 1867TIP3   OH227235   5.749   3.703   8.316  0.1062 -0.8635  0.1373
 1867TIP3    H127236   5.801   3.659   8.249  0.2171  0.7874 -0.9094
 1867TIP3    H227237   5.709   3.777   8.271 -0.0135  0.1561  1.8375
 1868TIP3   OH227238   3.921   2.211   3.148 -0.7874  0.1173  0.0238
 1868TIP3    H127239   3.909   2.280   3.083 -1.4904 -2.2143 -2.5365
 1868TIP3    H227240   4.011   2.222   3.179 -0.8072  1.9796 -0.4702
 1869TIP3   OH227241   6.894   2.000   0.672  0.0417  0.2034 -0.4944
 1869TIP3    H127242   6.840   2.078   0.661 -0.1407  0.0620 -0.6186
 1869TIP3    H227243   6.831   1.929   0.683  0.2042  0.1651  0.2979
 1870TIP3   OH227244   2.625   6.289   2.377  0.2322  0.5289  0.2917
 1870TIP3    H127245   2.538   6.252   2.362  0.7388  0.3439 -2.6923
 1870TIP3    H227246   2.607   6.376   2.414 -1.1396  0.0274  0.9027
 1871TIP3   OH227247   1.912   0.518   2.561 -0.3860 -0.5353  1.0962
 1871TIP3    H127248   1.907   0.424   2.543 -0.1047 -0.5638  1.1702
 1871TIP3    H227249   1.929   0.524   2.655  1.6577 -0.4537  0.7525
 1872TIP3   OH227250   3.495   4.132   2.886 -0.0339 -0.4406  0.0842
 1872TIP3    H127251   3.551   4.184   2.828 -1.7807 -0.4725 -1.7603
 1872TIP3    H227252   3.536   4.045   2.887  0.3344 -0.2853 -0.6822
 1873TIP3   OH227253   4.756   3.235   3.382 -0.5820 -0.7679  0.0125
 1873TIP3    H127254   4.708   3.268   3.306  0.1821  1.4576  0.4195
 1873TIP3    H227255   4.744   3.301   3.450  0.8610 -1.4263  0.9771
 1874TIP3   OH227256   0.255   1.657   8.248 -0.0516  0.1197 -0.0058
 1874TIP3    H127257   0.237   1.685   8.158 -0.8990  0.5801  0.2968
 1874TIP3    H227258   0.257   1.739   8.298 -1.4386 -0.2472  0.7041
 1875TIP3   OH227259   2.180   4.243   0.219 -0.1615  0.3094 -0.2199
 1875TIP3    H127260   2.260   4.257   0.169  0.2348 -0.6240  0.1232
 1875TIP3    H227261   2.140   4.166   0.178  0.5322 -0.9121  1.3198
 1876TIP3   OH227262   2.884   5.928   3.078  0.0750  0.0918 -0.6631
 1876TIP3    H127263   2.888   5.883   2.994 -2.4211 -0.5553 -0.5277
 1876TIP3    H227264   2.947   5.881   3.133 -0.0105 -1.0463 -1.4921
 1877TIP3   OH227265   2.677   3.136   1.913 -0.0957  0.3753  0.1133
 1877TIP3    H127266   2.590   3.119   1.950 -1.2075  0.8231 -2.1141
 1877TIP3    H227267   2.706   3.217   1.955 -0.5764  0.0166  1.1601
 1878TIP3   OH227268   3.543   6.077   1.186 -0.7390  0.0896 -0.4661
 1878TIP3    H127269   3.516   6.066   1.277 -0.4655  0.0285 -0.3901
 1878TIP3    H227270   3.559   5.988   1.154 -1.8856  0.0341 -0.9068
 1879TIP3   OH227271   3.648   5.294   1.135 -0.1166  0.7178  0.1008
 1879TIP3    H127272   3.724   5.306   1.192  1.5295 -1.1126 -1.5538
 1879TIP3    H227273   3.629   5.200   1.138 -0.7549  0.7633 -1.3689
 1880TIP3   OH227274   5.946   5.639   2.140 -0.5940 -0.3240  0.2926
 1880TIP3    H127275   5.898   5.722   2.145  0.5315  0.4995 -1.6689
 1880TIP3    H227276   5.877   5.572   2.139 -1.5456  0.5928  1.2832
 1881TIP3   OH227277   0.802   3.805   3.210  0.5968 -0.2258  0.3453
 1881TIP3    H127278   0.886   3.850   3.220  0.6472  0.5089 -2.4845
 1881TIP3    H227279   0.818   3.717   3.242  3.0050 -0.5981 -1.5732
 1882TIP3   OH227280   4.242   1.976   1.897  0.2591  0.7692  0.7106
 1882TIP3    H127281   4.311   1.939   1.952  0.1392  0.3880  0.6112
 1882TIP3    H227282   4.273   1.962   1.807 -0.3129 -0.1446  0.6433
 1883TIP3   OH227283   2.822   5.967   2.029 -1.0733 -0.2465 -0.0047
 1883TIP3    H127284   2.838   6.034   1.962 -1.2922  0.1429  0.3269
 1883TIP3    H227285   2.742   5.995   2.072 -0.5404 -0.0945  0.9074
 1884TIP3   OH227286   0.561   5.684   7.702 -0.1166  0.4115 -0.3029
 1884TIP3    H127287   0.579   5.707   7.793  0.7741  0.4140 -0.4714
 1884TIP3    H227288   0.592   5.593   7.694 -0.3481  0.3539 -0.5595
 1885TIP3   OH227289   0.798   0.426   1.596 -0.2854 -0.4861 -0.0001
 1885TIP3    H127290   0.811   0.521   1.597 -1.2829 -0.3386  1.6776
 1885TIP3    H227291   0.817   0.401   1.505 -1.1087  1.4819 -0.7832
 1886TIP3   OH227292   6.107   2.991   2.894  0.2377  0.0490  0.0130
 1886TIP3    H127293   6.130   2.990   2.986 -1.1017  0.7472  0.3820
 1886TIP3    H227294   6.097   3.084   2.872 -2.2344 -0.1662 -0.0605
 1887TIP3   OH227295   5.920   5.877   0.776 -0.1399 -0.0631 -0.3865
 1887TIP3    H127296   5.998   5.920   0.812  0.3369 -1.7671  0.6924
 1887TIP3    H227297   5.882   5.943   0.717  2.6307  0.4908 -1.7188
 1888TIP3   OH227298   5.909   6.392   3.077  0.2274 -0.4448  0.2750
 1888TIP3    H127299   5.818   6.376   3.053  0.5338 -0.5700 -0.8511
 1888TIP3    H227300   5.915   6.487   3.086 -0.2387 -0.5034  1.3318
 1889TIP3   OH227301   0.015   0.741   1.999 -0.1358 -0.1330  0.2520
 1889TIP3    H127302   0.025   0.746   1.904  0.1601  0.9776  0.3345
 1889TIP3    H227303  -0.069   0.696   2.012  0.0643 -0.7389 -0.5238
 1890TIP3   OH227304   6.250   2.487   2.885 -0.1836 -0.0103 -0.4436
 1890TIP3    H127305   6.215   2.457   2.969  0.6323  0.4541  0.0692
 1890TIP3    H227306   6.260   2.407   2.834  3.6911 -1.0382  1.5270
 1891TIP3   OH227307   6.711   0.858   4.083 -0.3769  0.0869 -0.6451
 1891TIP3    H127308   6.746   0.946   4.091 -0.8453  0.2178  0.0394
 1891TIP3    H227309   6.786   0.804   4.059  0.4122  0.2878  1.2002
 1892TIP3   OH227310   0.221   6.486   2.279 -0.3286 -0.3520  0.0192
 1892TIP3    H127311   0.144   6.433   2.255  0.2739  0.3119 -4.1843
 1892TIP3    H227312   0.287   6.422   2.304 -1.2039 -1.1931  0.2400
 1893TIP3   OH227313   6.322   2.282   2.459 -0.0384 -0.2021  0.4914
 1893TIP3    H127314   6.313   2.274   2.364 -0.0196 -2.2982  0.6205
 1893TIP3    H227315   6.400   2.231   2.480  1.1408  1.8709  1.4703
 1894TIP3   OH227316   6.929   4.610   2.559  0.3172 -0.0259  0.0390
 1894TIP3    H127317   6.845   4.631   2.517 -0.2522  0.5029  1.4128
 1894TIP3    H227318   6.910   4.533   2.612  0.6335  0.2805  0.5954
 1895TIP3   OH227319   3.252   1.948   1.387 -0.0200 -0.6008  0.0484
 1895TIP3    H127320   3.208   1.864   1.373 -0.7937 -0.4194  1.2630
 1895TIP3    H227321   3.201   2.011   1.335  0.6195 -0.8780 -0.9415
 1896TIP3   OH227322   3.581   2.405   3.871 -0.2359  0.5034  0.2649
 1896TIP3    H127323   3.587   2.491   3.912  1.8333  0.1811  0.7615
 1896TIP3    H227324   3.649   2.353   3.915 -0.5364 -0.9835 -0.9547
 1897TIP3   OH227325   5.442   0.034   3.102 -0.1483 -1.1756 -0.1984
 1897TIP3    H127326   5.394   0.054   3.183  0.8355  0.0801  0.1084
 1897TIP3    H227327   5.446  -0.061   3.100  1.8342 -1.2779  2.5126
 1898TIP3   OH227328   2.324   6.412   0.933  0.0970  0.1533  0.2879
 1898TIP3    H127329   2.361   6.344   0.988 -0.7097 -0.8975 -0.4411
 1898TIP3    H227330   2.296   6.481   0.994  2.1755  0.4826  0.9287
 1899TIP3   OH227331   5.699   5.724   2.449 -0.1297  0.1992  0.5592
 1899TIP3    H127332   5.766   5.656   2.447 -2.4705 -2.2633 -1.2265
 1899TIP3    H227333   5.655   5.711   2.532  0.4643  0.6788  0.9599
 1900TIP3   OH227334   6.316   1.259   3.833  0.1592  0.0839 -0.2558
 1900TIP3    H127335   6.239   1.218   3.872 -0.0040  0.9219  0.3414
 1900TIP3    H227336   6.333   1.335   3.889  1.5166 -0.1767 -0.2972
 1901TIP3   OH227337   5.475   0.546   1.080 -0.5499 -0.3215 -0.3000
 1901TIP3    H127338   5.494   0.638   1.062 -1.4536 -0.0881 -0.1429
 1901TIP3    H227339   5.539   0.498   1.029  1.1012  0.4056  1.0014
 1902TIP3   OH227340   6.556   5.468   1.222  0.1398  0.3177 -0.0704
 1902TIP3    H127341   6.631   5.442   1.169  0.2160 -0.8042  0.5541
 1902TIP3    H227342   6.555   5.405   1.294  0.0275  1.7654  1.2603
 1903TIP3   OH227343   0.748   3.706   1.815 -0.0351 -0.3405  0.3444
 1903TIP3    H127344   0.730   3.773   1.750 -0.1031  0.1141  0.8252
 1903TIP3    H227345   0.804   3.643   1.769 -0.2457 -0.1336 -0.2074
 1904TIP3   OH227346   1.949   5.984   4.313 -0.1365  0.0103  0.4023
 1904TIP3    H127347   1.997   6.043   4.254  0.1068 -1.4610 -0.9159
 1904TIP3    H227348   2.011   5.914   4.334 -1.1366 -0.9980  0.0913
 1905TIP3   OH227349   1.065   0.065   2.896 -0.2265 -0.3668  0.2676
 1905TIP3    H127350   1.018  -0.017   2.881 -1.2697  0.1447  0.6023
 1905TIP3    H227351   1.112   0.082   2.814  0.8262 -1.7971  0.5495
 1906TIP3   OH227352   3.889   4.429   1.062 -0.3904  0.1009 -0.0326
 1906TIP3    H127353   3.962   4.492   1.059 -0.7571  0.6133  1.2191
 1906TIP3    H227354   3.922   4.356   1.114 -0.6563  0.1828  0.2525
 1907TIP3   OH227355   5.233   1.998   4.343 -0.0984  0.5162 -0.0674
 1907TIP3    H127356   5.242   1.903   4.338  0.0978  0.5072  0.4141
 1907TIP3    H227357   5.217   2.026   4.253 -0.3113  0.0119 -0.1837
 1908TIP3   OH227358   1.669   4.669   2.184 -0.1727 -0.0457 -0.0188
 1908TIP3    H127359   1.720   4.591   2.203  1.8477  0.8229 -1.4606
 1908TIP3    H227360   1.676   4.722   2.264 -1.0743 -1.0554  0.7506
 1909TIP3   OH227361   5.062   1.410   0.896 -0.0022  0.1200  0.1501
 1909TIP3    H127362   5.083   1.491   0.943  0.9069 -0.3569  0.5888
 1909TIP3    H227363   4.970   1.421   0.870  0.5469  2.0235 -1.2913
 1910TIP3   OH227364   4.815   4.925   1.421 -0.1855 -0.3103 -0.3515
 1910TIP3    H127365   4.720   4.937   1.419 -0.0205  1.2022 -0.2856
 1910TIP3    H227366   4.834   4.904   1.513 -0.1381  3.1718  0.6153
 1911TIP3   OH227367   3.327   1.939   2.498  0.0628 -0.0415 -0.2884
 1911TIP3    H127368   3.244   1.902   2.467  0.6582 -1.4205 -0.2656
 1911TIP3    H227369   3.303   1.989   2.576 -0.6924 -0.7236 -0.0751
 1912TIP3   OH227370   0.550   0.966   1.198  0.5334  0.0263 -0.5578
 1912TIP3    H127371   0.462   0.940   1.170  0.9192 -0.8866 -0.9852
 1912TIP3    H227372   0.555   1.060   1.178 -0.3312  0.0758 -0.5567
 1913TIP3   OH227373   0.604   5.511   3.416  0.7103 -0.3939  0.0295
 1913TIP3    H127374   0.637   5.436   3.466  0.1241  0.3525  1.5946
 1913TIP3    H227375   0.509   5.503   3.421  0.6436  0.2552 -0.0801
 1914TIP3   OH227376   6.687   2.181   0.741  0.1109  0.3702 -0.5426
 1914TIP3    H127377   6.688   2.196   0.647  0.1312  1.4266 -0.3926
 1914TIP3    H227378   6.594   2.168   0.762 -0.0817  1.6524 -0.5108
 1915TIP3   OH227379   1.625   2.113   8.346  0.8018 -0.3663 -0.3227
 1915TIP3    H127380   1.562   2.059   8.300 -0.4595 -0.0803  0.9681
 1915TIP3    H227381   1.574   2.187   8.379  1.2711 -1.1642  2.5623
 1916TIP3   OH227382   5.073   1.351   2.815 -0.7504 -0.0819 -0.0097
 1916TIP3    H127383   5.154   1.333   2.767 -1.4303 -1.0016 -0.8627
 1916TIP3    H227384   5.095   1.424   2.873 -0.1070  1.7697 -2.3866
 1917TIP3   OH227385   3.444   3.010   2.169  0.1717 -0.5200  0.0757
 1917TIP3    H127386   3.391   3.048   2.099  0.7881  0.4050  0.0873
 1917TIP3    H227387   3.381   2.968   2.227 -0.8534  2.2884  1.1976
 1918TIP3   OH227388   0.561   4.034   1.797 -0.3963  0.5628 -0.1902
 1918TIP3    H127389   0.503   3.980   1.850 -1.1117  0.7251 -0.7850
 1918TIP3    H227390   0.515   4.044   1.713  0.9496 -0.1480 -1.0599
 1919TIP3   OH227391   0.444   2.134   2.403 -0.1282 -1.0062  0.0377
 1919TIP3    H127392   0.468   2.118   2.495 -0.7724  1.3011  0.6714
 1919TIP3    H227393   0.358   2.094   2.394 -0.1579 -1.0610  0.5166
 1920TIP3   OH227394   1.184   3.578   2.404 -0.1299 -1.0190 -0.3066
 1920TIP3    H127395   1.228   3.494   2.416 -0.5100 -1.3039 -0.8944
 1920TIP3    H227396   1.240   3.640   2.451  1.2214 -1.2764 -1.4856
 1921TIP3   OH227397   0.860   6.915   1.654 -1.2098  0.0246 -0.2096
 1921TIP3    H127398   0.947   6.953   1.665 -0.8577 -0.6885 -0.4826
 1921TIP3    H227399   0.830   6.950   1.570  0.2466 -2.3679 -1.8472
 1922TIP3   OH227400   5.065   1.638   2.645  0.5206  0.5216 -0.9495
 1922TIP3    H127401   5.025   1.659   2.560  1.4219  2.1325 -1.0108
 1922TIP3    H227402   5.094   1.722   2.679  1.2474 -0.2550  0.4303
 1923TIP3   OH227403   3.270   3.670   2.062 -0.0141 -0.3811 -0.4779
 1923TIP3    H127404   3.195   3.727   2.044 -0.0647 -0.2027  0.2421
 1923TIP3    H227405   3.284   3.679   2.156  0.3593 -1.0950 -0.4586
 1924TIP3   OH227406   3.815   6.895   0.641 -0.0038  0.4837 -0.3294
 1924TIP3    H127407   3.815   6.899   0.545  0.0938 -0.1555 -0.3596
 1924TIP3    H227408   3.887   6.953   0.667 -1.2071  2.1518 -0.5553
 1925TIP3   OH227409   1.277   5.145   2.309 -0.1570 -0.0546  0.0841
 1925TIP3    H127410   1.367   5.132   2.341 -0.5103 -0.8787  0.7741
 1925TIP3    H227411   1.277   5.234   2.274  0.9931 -0.1181 -0.1381
 1926TIP3   OH227412   5.357   0.544   2.700 -0.2663  0.4142  0.2245
 1926TIP3    H127413   5.393   0.518   2.785 -0.0754 -0.2140 -0.0428
 1926TIP3    H227414   5.360   0.465   2.648  0.8360  1.1056 -0.8005
 1927TIP3   OH227415   4.539   6.435   0.601  0.2106 -0.1208  0.1793
 1927TIP3    H127416   4.593   6.484   0.539  0.6732 -0.3411  0.3984
 1927TIP3    H227417   4.536   6.491   0.679  0.3697 -0.2426  0.2724
 1928TIP3   OH227418   6.184   6.115   0.645 -0.3871  0.0966  0.2044
 1928TIP3    H127419   6.201   6.201   0.606 -0.9231  0.3922  0.5994
 1928TIP3    H227420   6.088   6.110   0.650 -0.3428 -0.1886  0.8960
 1929TIP3   OH227421   3.428   0.748   2.163 -0.3839  0.3652 -0.0442
 1929TIP3    H127422   3.505   0.755   2.219 -1.7570  0.1252  1.9537
 1929TIP3    H227423   3.440   0.816   2.097 -0.2231  3.0152  2.4988
 1930TIP3   OH227424   2.526   2.722   3.682  0.2399  0.3321  0.0373
 1930TIP3    H127425   2.471   2.658   3.637  0.5630 -1.3420  1.8850
 1930TIP3    H227426   2.472   2.753   3.754  1.4543 -0.9959  1.6068
 1931TIP3   OH227427   5.065   2.952   0.347  0.3823  0.0078 -0.2317
 1931TIP3    H127428   5.054   2.958   0.442 -1.3023  0.2949 -0.4047
 1931TIP3    H227429   5.003   3.015   0.312  0.4437 -0.6210 -1.5432
 1932TIP3   OH227430   4.148   1.294   2.102  0.2850 -0.6077  0.1195
 1932TIP3    H127431   4.238   1.311   2.073  0.4467 -0.2687  0.8230
 1932TIP3    H227432   4.154   1.285   2.197 -0.2488 -1.7393  0.0577
 1933TIP3   OH227433   2.028   3.618   7.909 -0.1490  0.0058  0.5257
 1933TIP3    H127434   1.956   3.578   7.958 -0.6003  1.3922  1.0345
 1933TIP3    H227435   2.099   3.554   7.915 -0.1558  0.1356  3.0927
 1934TIP3   OH227436   4.818   4.546   0.157  0.5752 -0.1670 -0.2725
 1934TIP3    H127437   4.854   4.493   0.086 -1.1684 -1.0305 -0.5505
 1934TIP3    H227438   4.771   4.617   0.114 -1.2093 -1.1647 -0.0602
 1935TIP3   OH227439   1.026   2.000   0.785 -0.3340 -0.2187 -0.1587
 1935TIP3    H127440   0.996   2.085   0.817 -2.1277 -1.3303  1.3332
 1935TIP3    H227441   1.019   2.006   0.690  1.6889  1.9944 -0.2686
 1936TIP3   OH227442   2.986   4.570   1.368 -0.2221  0.1720  0.4877
 1936TIP3    H127443   2.994   4.482   1.405 -1.1377 -0.6022 -1.0752
 1936TIP3    H227444   3.076   4.594   1.346 -0.1468 -1.3169 -1.0854
 1937TIP3   OH227445   0.910   2.812   1.441 -0.4823  0.4447 -0.4703
 1937TIP3    H127446   0.943   2.775   1.523  0.5938  1.7023 -0.3006
 1937TIP3    H227447   0.898   2.737   1.384 -0.8531 -0.4159  0.6943
 1938TIP3   OH227448   1.535   2.865   1.586  0.2667 -0.1044 -0.6561
 1938TIP3    H127449   1.560   2.887   1.496 -0.1901 -0.3520 -0.8513
 1938TIP3    H227450   1.439   2.867   1.585  0.2627  0.8186  0.0636
 1939TIP3   OH227451   4.345   3.887   1.978 -0.1576  0.0776 -0.1534
 1939TIP3    H127452   4.318   3.806   1.936 -0.1555  0.8596 -1.7546
 1939TIP3    H227453   4.267   3.915   2.027 -0.4239 -0.4711 -0.2532
 1940TIP3   OH227454   4.930   6.701   4.024 -0.2234 -0.2180  0.2742
 1940TIP3    H127455   4.981   6.656   3.957  0.2292 -2.6072  2.0971
 1940TIP3    H227456   4.867   6.636   4.054 -0.3869  0.7653  2.1961
 1941TIP3   OH227457   2.884   5.133   3.246 -0.1470 -0.2559  0.0565
 1941TIP3    H127458   2.943   5.090   3.307 -0.4119 -0.3211  0.2691
 1941TIP3    H227459   2.797   5.125   3.286 -0.5319 -1.4441 -0.9359
 1942TIP3   OH227460   5.205   2.002   3.689  0.0985  0.1280 -0.4874
 1942TIP3    H127461   5.200   2.096   3.671 -3.9907  0.6556  2.0633
 1942TIP3    H227462   5.277   1.993   3.751 -1.3873  2.2506  1.7146
 1943TIP3   OH227463   3.155   1.409   8.338  0.4864  0.1296 -0.4529
 1943TIP3    H127464   3.070   1.408   8.295  1.7956  1.3051 -3.3628
 1943TIP3    H227465   3.202   1.482   8.297  2.2069  0.9141  2.5761
 1944TIP3   OH227466   3.406   5.774   1.630  0.5493  0.1347 -0.4540
 1944TIP3    H127467   3.341   5.709   1.603  2.0251 -1.4113 -0.4168
 1944TIP3    H227468   3.488   5.743   1.593  1.6362  0.9787  1.1315
 1945TIP3   OH227469   0.749   4.034   8.554 -0.5798 -0.0039  0.2183
 1945TIP3    H127470   0.799   4.035   8.636  1.7154  0.1062 -1.0846
 1945TIP3    H227471   0.777   3.954   8.510 -2.1689 -0.3273 -0.2733
 1946TIP3   OH227472   2.567   4.233   1.447 -0.0527  0.2628 -0.2032
 1946TIP3    H127473   2.608   4.290   1.512  1.2531 -2.0566  1.1169
 1946TIP3    H227474   2.480   4.216   1.482  0.7819 -1.3053  1.2677
 1947TIP3   OH227475   0.141   3.099   3.446 -0.1908 -0.7524 -0.0363
 1947TIP3    H127476   0.214   3.081   3.504  0.0418  0.6120  0.1405
 1947TIP3    H227477   0.170   3.175   3.394 -2.1954  1.1487  1.4266
 1948TIP3   OH227478   1.547   2.632   2.197 -0.2540 -0.2558  0.4632
 1948TIP3    H127479   1.531   2.557   2.255 -0.7661  0.2064  0.9333
 1948TIP3    H227480   1.483   2.698   2.225  0.6639  0.6311  0.5511
 1949TIP3   OH227481   3.695   5.489   2.840 -0.2401  0.2094 -0.3195
 1949TIP3    H127482   3.726   5.545   2.768 -1.9755  0.7927 -0.6475
 1949TIP3    H227483   3.604   5.470   2.819 -0.3264 -0.9402  0.9348
 1950TIP3   OH227484   4.316   4.692   3.908  0.0417 -0.5166  0.3139
 1950TIP3    H127485   4.260   4.654   3.976 -1.1000 -2.2625 -1.4832
 1950TIP3    H227486   4.286   4.782   3.900 -0.5247 -0.5974  1.4060
 1951TIP3   OH227487   4.298   3.034   0.771  0.4392 -0.2156 -0.6084
 1951TIP3    H127488   4.227   2.993   0.722  0.9716 -1.6356 -0.2425
 1951TIP3    H227489   4.376   3.018   0.718  0.5005  1.3941 -1.0445
 1952TIP3   OH227490   1.153   4.121   0.653  0.3040 -0.6343 -0.1296
 1952TIP3    H127491   1.087   4.126   0.723  0.1477 -0.9140 -0.2586
 1952TIP3    H227492   1.228   4.170   0.689  0.3222 -0.9989  0.3442
 1953TIP3   OH227493   2.557   1.479   0.313  0.0627 -0.0032 -0.3841
 1953TIP3    H127494   2.527   1.513   0.228  0.0250  1.4533  0.1766
 1953TIP3    H227495   2.653   1.483   0.308  0.0569  1.4881  0.1395
 1954TIP3   OH227496   1.688   0.565   0.412  0.3861  0.7299 -0.0790
 1954TIP3    H127497   1.760   0.586   0.352  0.0561  0.7864 -0.4559
 1954TIP3    H227498   1.731   0.517   0.484  0.6634 -0.0958 -0.7772
 1955TIP3   OH227499   3.532   2.125   1.132  0.0025 -0.6807 -0.1916
 1955TIP3    H127500   3.610   2.104   1.184  1.6674  0.5627 -1.9967
 1955TIP3    H227501   3.517   2.048   1.078 -0.0693 -0.9674  0.2402
 1956TIP3   OH227502   5.944   6.175   0.988 -0.3917 -0.2584  0.4045
 1956TIP3    H127503   5.994   6.127   1.054 -0.1488  1.3601  1.4492
 1956TIP3    H227504   5.858   6.188   1.028  0.0692  1.5986  0.8592
 1957TIP3   OH227505   3.540   0.978   2.017 -0.2149  0.2307 -0.0798
 1957TIP3    H127506   3.616   1.036   2.022  0.1277 -0.2700  0.7694
 1957TIP3    H227507   3.551   0.932   1.935  0.3276  0.2722 -0.0353
 1958TIP3   OH227508   4.264   3.169   2.624 -0.5431  0.1887  0.3718
 1958TIP3    H127509   4.257   3.114   2.702 -0.2686  0.8496  0.8742
 1958TIP3    H227510   4.345   3.141   2.582 -0.7341 -0.2261  0.2758
 1959TIP3   OH227511   3.516   1.903   1.388 -0.1507 -0.0916 -0.3616
 1959TIP3    H127512   3.427   1.937   1.383  0.4882  2.0177  0.9646
 1959TIP3    H227513   3.533   1.896   1.482  0.7086 -1.5893 -0.6038
 1960TIP3   OH227514   4.615   3.362   3.181  0.0521 -0.2601 -0.4021
 1960TIP3    H127515   4.548   3.294   3.194  0.4784 -0.7788 -0.8477
 1960TIP3    H227516   4.568   3.435   3.140 -0.2423 -0.6258 -0.7240
 1961TIP3   OH227517   3.391   5.895   0.042 -0.1105  0.1273 -0.6836
 1961TIP3    H127518   3.442   5.953   0.099  1.2137 -1.9671  0.3831
 1961TIP3    H227519   3.449   5.878  -0.033 -1.0068  1.1644 -1.6480
 1962TIP3   OH227520   4.727   1.294   8.249 -0.3953 -0.2484 -0.4841
 1962TIP3    H127521   4.774   1.218   8.213  0.2103 -0.5222  0.8092
 1962TIP3    H227522   4.637   1.283   8.219 -0.4252 -1.7416  0.0470
 1963TIP3   OH227523   6.760   0.599   2.793 -0.4694  0.1109 -0.3642
 1963TIP3    H127524   6.716   0.543   2.729  0.8616 -0.5109 -0.7722
 1963TIP3    H227525   6.834   0.637   2.745  0.8567 -0.7650  0.9014
 1964TIP3   OH227526   1.926   5.743   0.911  0.1142 -0.3840  0.1211
 1964TIP3    H127527   1.847   5.700   0.878 -0.8268  0.9669  0.5200
 1964TIP3    H227528   1.899   5.783   0.994  1.1117  0.4460  0.0671
 1965TIP3   OH227529   3.352   1.732   3.494 -0.0852  0.4919 -0.1354
 1965TIP3    H127530   3.447   1.732   3.502  0.0758  1.3999 -1.6245
 1965TIP3    H227531   3.320   1.720   3.584  1.4209  2.2312  0.6834
 1966TIP3   OH227532   2.333   6.177   2.242 -0.0923  0.4475 -0.2264
 1966TIP3    H127533   2.359   6.099   2.194  0.2619 -2.4983  4.2102
 1966TIP3    H227534   2.238   6.177   2.240 -0.1479 -1.0981  1.0095
 1967TIP3   OH227535   5.529   0.446   3.492 -0.7078 -0.0255 -0.8016
 1967TIP3    H127536   5.619   0.477   3.495 -0.8473  0.3371 -0.2017
 1967TIP3    H227537   5.513   0.411   3.580 -1.4707  0.8394 -0.5811
 1968TIP3   OH227538   2.542   1.026   1.027  0.4012 -0.0234  0.1756
 1968TIP3    H127539   2.637   1.028   1.032  0.5793  0.9841 -2.3247
 1968TIP3    H227540   2.522   0.952   0.970 -0.4065 -0.8659  1.5049
 1969TIP3   OH227541   4.210   1.080   3.644 -0.7188 -0.6152 -0.1295
 1969TIP3    H127542   4.275   1.149   3.632 -0.1784 -1.1448 -0.2849
 1969TIP3    H227543   4.243   1.006   3.594 -1.2149 -1.0443  0.1602
 1970TIP3   OH227544   1.458   6.802   0.537  0.6346 -0.4162 -0.5402
 1970TIP3    H127545   1.465   6.861   0.612  1.3691 -0.9001 -0.2242
 1970TIP3    H227546   1.366   6.809   0.510  0.7858  1.1693 -0.7694
 1971TIP3   OH227547   2.489   1.371   1.209  0.1847  0.6153  1.0705
 1971TIP3    H127548   2.565   1.399   1.158 -0.1182  1.2819  0.9781
 1971TIP3    H227549   2.526   1.325   1.284  0.7075  1.6145  1.4415
 1972TIP3   OH227550   2.670   6.501   3.128 -0.0152  0.2194 -0.1206
 1972TIP3    H127551   2.660   6.594   3.107  0.8192  0.1089 -1.0384
 1972TIP3    H227552   2.701   6.461   3.047  1.8084 -0.4809  0.8616
 1973TIP3   OH227553   1.083   5.360   0.411  0.2380 -0.5438 -0.4841
 1973TIP3    H127554   1.040   5.346   0.496  1.4736 -0.2184  0.2281
 1973TIP3    H227555   1.053   5.288   0.356 -2.8641  0.7960 -0.7405
 1974TIP3   OH227556   1.052   6.747   7.696 -0.0022 -0.1925 -0.4850
 1974TIP3    H127557   1.080   6.766   7.785  0.5868 -0.5636 -0.5825
 1974TIP3    H227558   1.097   6.813   7.642 -0.5344  0.1725 -0.4861
 1975TIP3   OH227559   6.743   1.612   0.841 -0.0422  0.0287 -0.3698
 1975TIP3    H127560   6.764   1.550   0.771  4.0743  2.0811 -1.2752
 1975TIP3    H227561   6.697   1.683   0.797 -1.0995 -0.4910 -0.1305
 1976TIP3   OH227562   0.103   1.912   2.640  0.2047 -0.6874 -0.3622
 1976TIP3    H127563   0.018   1.943   2.672  0.2019 -2.0294  1.0821
 1976TIP3    H227564   0.162   1.986   2.650 -0.2914 -0.4288  0.8753
 1977TIP3   OH227565   1.533   1.261   0.728 -0.4877  0.0719 -0.4424
 1977TIP3    H127566   1.596   1.331   0.710 -0.8478  0.5389  0.0740
 1977TIP3    H227567   1.565   1.186   0.677 -0.0773  0.5978 -0.9691
 1978TIP3   OH227568   3.686   2.806   2.932  0.0488 -0.0797  0.1083
 1978TIP3    H127569   3.708   2.897   2.952 -0.6560  0.3161 -0.8798
 1978TIP3    H227570   3.590   2.803   2.937  0.1229 -1.0475  1.2719
 1979TIP3   OH227571   4.435   3.712   1.415 -0.0801 -0.0492  0.1365
 1979TIP3    H127572   4.449   3.734   1.323  0.0163  2.2996  0.6373
 1979TIP3    H227573   4.436   3.616   1.417  0.1314 -0.1727 -2.2505
 1980TIP3   OH227574   4.482   0.994   1.710 -0.0657  0.3292  0.4344
 1980TIP3    H127575   4.443   0.913   1.679 -1.3689  1.4031 -0.8402
 1980TIP3    H227576   4.571   0.993   1.674 -0.2220 -0.3095  0.0525
 1981TIP3   OH227577   2.019   6.527   8.367 -0.3311  0.7073  0.2386
 1981TIP3    H127578   2.103   6.551   8.406  0.3769 -0.4824 -0.5047
 1981TIP3    H227579   2.042   6.471   8.292 -1.8244 -1.0960  1.0444
 1982TIP3   OH227580   4.045   0.777   1.864 -0.8342  0.2533  0.1510
 1982TIP3    H127581   4.095   0.852   1.894  0.0573  0.0299 -0.7259
 1982TIP3    H227582   4.074   0.704   1.919 -0.0611  0.0908 -0.4571
 1983TIP3   OH227583   0.329   3.183   1.904  0.1059  0.0324 -0.1137
 1983TIP3    H127584   0.416   3.220   1.913  0.7818 -1.6951  1.1253
 1983TIP3    H227585   0.290   3.192   1.991 -0.1766 -0.9667 -0.1228
 1984TIP3   OH227586   0.444   3.534   2.376 -0.3720 -0.1728  1.0833
 1984TIP3    H127587   0.418   3.621   2.346  1.2936 -0.6126 -1.9930
 1984TIP3    H227588   0.370   3.503   2.428 -1.6207  2.4688  1.0264
 1985TIP3   OH227589   3.525   3.963   0.381  0.1155 -0.1574 -0.1970
 1985TIP3    H127590   3.602   4.001   0.424  1.0650  0.5319 -2.3490
 1985TIP3    H227591   3.491   4.034   0.326 -0.9011 -1.0401 -0.7436
 1986TIP3   OH227592   3.992   0.645   2.428 -0.0568 -0.4566 -0.0554
 1986TIP3    H127593   4.050   0.590   2.480  1.8900  1.3239 -0.2131
 1986TIP3    H227594   3.971   0.593   2.351 -1.9678 -2.6555  1.7938
 1987TIP3   OH227595   5.744   5.383   7.871 -0.1448  0.7967 -0.2124
 1987TIP3    H127596   5.828   5.339   7.888 -0.7698  0.1818  1.5124
 1987TIP3    H227597   5.692   5.366   7.949 -1.3737  2.4115 -0.6268
 1988TIP3   OH227598   1.547   2.040   1.542 -0.0339 -0.2242  0.3703
 1988TIP3    H127599   1.525   2.057   1.633  1.0916  0.1315  0.5917
 1988TIP3    H227600   1.642   2.052   1.537  0.0970 -1.4282 -0.5821
 1989TIP3   OH227601   2.671   5.794   2.285 -0.3260  0.5385 -0.5198
 1989TIP3    H127602   2.746   5.742   2.313 -1.3341 -0.4890  0.3850
 1989TIP3    H227603   2.690   5.883   2.315 -0.5279 -0.1620  1.9368
 1990TIP3   OH227604   0.531   5.810   3.688  0.9247 -0.5466 -0.0121
 1990TIP3    H127605   0.442   5.807   3.654  1.0499  1.9703 -0.7074
 1990TIP3    H227606   0.587   5.810   3.610  1.4700 -0.6897  0.3736
 1991TIP3   OH227607   6.545   4.839   1.883  0.0962 -0.6132 -0.1686
 1991TIP3    H127608   6.513   4.818   1.971  1.7508  2.1022  1.2071
 1991TIP3    H227609   6.629   4.793   1.877 -0.2940 -1.2892 -0.6123
 1992TIP3   OH227610   5.004   2.506   8.311  0.0604  0.6087 -0.2938
 1992TIP3    H127611   4.989   2.473   8.222 -1.7967  1.7952 -0.4747
 1992TIP3    H227612   4.924   2.483   8.358 -0.0434  2.2323  0.3697
 1993TIP3   OH227613   0.698   4.006   8.263  0.0695 -0.6534 -0.2383
 1993TIP3    H127614   0.766   4.045   8.208 -0.1891 -1.5863 -1.2643
 1993TIP3    H227615   0.746   3.954   8.328  0.3705  0.1858  0.2265
 1994TIP3   OH227616   4.800   5.512   0.188  0.2046  0.0064  0.3395
 1994TIP3    H127617   4.842   5.551   0.265 -2.6057  0.5839  1.7351
 1994TIP3    H227618   4.799   5.582   0.123 -1.6915  1.2561  1.5954
 1995TIP3   OH227619   2.441   4.530   8.360  0.6911 -0.0950  0.2651
 1995TIP3    H127620   2.535   4.545   8.360  0.8858 -1.0033  1.9801
 1995TIP3    H227621   2.404   4.607   8.403  0.6855  0.0882 -0.0666
 1996TIP3   OH227622   2.734   5.961   8.301 -0.5102 -0.0077  0.6027
 1996TIP3    H127623   2.781   5.890   8.345 -0.2717  0.2557  0.7743
 1996TIP3    H227624   2.697   5.920   8.222  1.6614  0.1915 -0.5998
 1997TIP3   OH227625   2.642   4.016   1.687  0.0613  0.0648  0.1624
 1997TIP3    H127626   2.622   3.960   1.612 -0.8359  2.0126 -1.1551
 1997TIP3    H227627   2.726   4.056   1.665 -0.4521  1.0404 -0.1057
 1998TIP3   OH227628   6.934   6.674   3.663  0.5034  0.2646  0.5956
 1998TIP3    H127629   6.954   6.750   3.609  0.4488 -0.0999  0.0430
 1998TIP3    H227630   6.838   6.670   3.663  0.4142 -2.0828 -2.7873
 1999TIP3   OH227631   5.853   2.205   1.446 -0.6543 -0.0224  0.5053
 1999TIP3    H127632   5.933   2.174   1.402 -0.8109  1.0252 -0.5688
 1999TIP3    H227633   5.882   2.278   1.500 -0.8326  0.1325  0.3915
 2000TIP3   OH227634   0.109   1.679   3.428 -0.1036 -0.2089 -0.6630
 2000TIP3    H127635   0.057   1.712   3.502  0.1082  1.0647 -1.0637
 2000TIP3    H227636   0.045   1.636   3.372 -0.2747 -1.1543  0.2225
 2001TIP3   OH227637   1.384   4.589   2.867  0.0887 -0.5984  0.5966
 2001TIP3    H127638   1.415   4.554   2.783 -0.9953 -1.5718  0.5684
 2001TIP3    H227639   1.289   4.593   2.857 -0.0119 -0.2581  1.6047
 2002TIP3   OH227640   1.590   5.898   1.276 -0.5115  0.3313 -0.5473
 2002TIP3    H127641   1.581   5.950   1.355 -0.7008 -1.4105  0.6487
 2002TIP3    H227642   1.513   5.840   1.277 -1.1929  1.1073 -2.6944
 2003TIP3   OH227643   3.461   2.655   0.312 -0.5524  0.0641  0.0997
 2003TIP3    H127644   3.378   2.610   0.327 -0.3522 -0.4690 -0.3626
 2003TIP3    H227645   3.444   2.713   0.238 -0.3295 -0.5556 -0.4460
 2004TIP3   OH227646   6.412   2.979   3.357 -0.1736 -0.0216  0.2686
 2004TIP3    H127647   6.429   3.071   3.374 -0.9494  0.2220 -0.2065
 2004TIP3    H227648   6.448   2.964   3.269 -1.8198  0.3613 -0.5144
 2005TIP3   OH227649   0.483   4.076   4.080 -0.3674  0.5024 -0.0527
 2005TIP3    H127650   0.419   4.118   4.138 -0.5211  0.0456  0.1111
 2005TIP3    H227651   0.442   3.994   4.054  0.5512 -0.2731  0.8581
 2006TIP3   OH227652   1.115   5.697   0.103  0.4625  0.1336 -0.1628
 2006TIP3    H127653   1.203   5.690   0.065  0.7717 -0.4139  0.6090
 2006TIP3    H227654   1.080   5.779   0.069  2.1379  1.4942  1.2386
 2007TIP3   OH227655   2.119   1.821   8.125  0.0215 -0.0803  0.0835
 2007TIP3    H127656   2.158   1.869   8.197  2.1233 -0.5247 -0.7060
 2007TIP3    H227657   2.035   1.864   8.110  0.2750  1.0455  1.7040
 2008TIP3   OH227658   1.829   0.137   2.758  0.3701 -0.2373  0.0403
 2008TIP3    H127659   1.869   0.189   2.688  0.4044 -1.1622 -0.6559
 2008TIP3    H227660   1.796   0.201   2.820  1.2761  0.5878 -0.3050
 2009TIP3   OH227661   0.579   6.927   8.558  0.2520 -0.0949 -0.3249
 2009TIP3    H127662   0.558   7.015   8.529 -1.4315 -0.7020 -1.0629
 2009TIP3    H227663   0.615   6.884   8.480 -1.6066 -0.8723 -0.8131
 2010TIP3   OH227664   4.965   1.569   0.573  0.2056 -0.1712 -0.1251
 2010TIP3    H127665   4.905   1.590   0.645 -0.6545 -1.0406 -0.5566
 2010TIP3    H227666   4.907   1.554   0.498  0.8100 -2.6650 -0.1734
 2011TIP3   OH227667   0.478   6.362   2.086 -0.2167 -0.1841 -0.3092
 2011TIP3    H127668   0.399   6.346   2.036 -1.3710  1.2672  0.9614
 2011TIP3    H227669   0.497   6.455   2.073  1.6909 -0.6372 -1.1238
 2012TIP3   OH227670   5.502   2.974   0.869  0.0324  0.6956 -0.1380
 2012TIP3    H127671   5.538   3.008   0.787  0.7894 -1.6404 -0.8515
 2012TIP3    H227672   5.419   2.934   0.845  0.7360 -0.9206 -0.0067
 2013TIP3   OH227673   0.262   3.445   2.182 -0.7812 -0.4532 -0.1235
 2013TIP3    H127674   0.325   3.434   2.253  0.5738  0.2191 -1.1750
 2013TIP3    H227675   0.185   3.482   2.224  1.1165  3.1413  0.5998
 2014TIP3   OH227676   1.952   1.488   2.536 -0.0368  0.0475 -0.3406
 2014TIP3    H127677   1.903   1.436   2.600 -1.6093  0.9005 -0.8063
 2014TIP3    H227678   1.980   1.424   2.471 -0.0124 -0.5509  0.2467
 2015TIP3   OH227679   4.050   2.513   1.541  0.2978  0.0207 -0.2611
 2015TIP3    H127680   4.069   2.448   1.473  2.5807 -0.2872  0.5873
 2015TIP3    H227681   4.072   2.597   1.500 -1.0626  0.1475 -0.7980
 2016TIP3   OH227682   2.991   5.288   1.735  0.2852 -0.2361  0.2506
 2016TIP3    H127683   2.993   5.267   1.642  0.1475  1.8101 -0.2590
 2016TIP3    H227684   3.076   5.327   1.753  0.1827 -0.3039  0.9150
 2017TIP3   OH227685   5.825   3.188   3.030  0.2932 -0.4888 -0.1284
 2017TIP3    H127686   5.845   3.146   3.114  2.4090 -1.3348 -0.9810
 2017TIP3    H227687   5.833   3.117   2.966  1.0567  0.6010 -1.2947
 2018TIP3   OH227688   6.790   4.711   1.900 -0.6372  0.3680  0.4816
 2018TIP3    H127689   6.816   4.673   1.816 -0.7798  0.0426  0.5873
 2018TIP3    H227690   6.795   4.639   1.962  1.7001  1.0650  1.2374
 2019TIP3   OH227691   2.565   4.482   3.002  0.8989 -0.2489 -0.2011
 2019TIP3    H127692   2.578   4.389   2.983  1.0164 -0.5088  1.0376
 2019TIP3    H227693   2.650   4.522   2.984  1.6834 -0.8711  1.8559
 2020TIP3   OH227694   3.039   3.991   2.285  0.3096  0.0202  0.1303
 2020TIP3    H127695   3.112   3.956   2.336  0.0413  0.8094  1.0936
 2020TIP3    H227696   2.965   3.992   2.346 -0.7702 -1.5525 -1.0592
 2021TIP3   OH227697   0.253   3.426   2.532 -0.1434 -0.3977 -0.4069
 2021TIP3    H127698   0.289   3.338   2.547 -1.2266 -0.8976 -0.6502
 2021TIP3    H227699   0.216   3.451   2.616  1.3449  0.4082  0.0341
 2022TIP3   OH227700   4.620   6.452   2.685  0.6241 -0.2013 -0.0590
 2022TIP3    H127701   4.701   6.440   2.735  0.4065 -1.6459 -0.0254
 2022TIP3    H227702   4.603   6.546   2.690  2.6750  0.2582 -0.6519
 2023TIP3   OH227703   4.395   3.823   1.677 -0.0388  0.2362 -0.6777
 2023TIP3    H127704   4.386   3.887   1.607  0.2231  0.5688 -0.4119
 2023TIP3    H227705   4.325   3.760   1.661 -0.4243  0.6948 -0.8337
 2024TIP3   OH227706   1.333   3.092   0.571 -0.0616  0.0427 -0.4141
 2024TIP3    H127707   1.428   3.089   0.584 -0.1704  0.5467  0.5797
 2024TIP3    H227708   1.297   3.061   0.654 -0.7713  0.8274 -0.4181
 2025TIP3   OH227709   3.371   5.028   1.739  0.2274  0.4099  0.2614
 2025TIP3    H127710   3.460   5.028   1.704 -0.1390  0.7094 -0.7041
 2025TIP3    H227711   3.346   5.120   1.741  0.1037  0.3634  0.9745
 2026TIP3   OH227712   0.493   6.738   1.174 -0.1688 -0.2328  0.0956
 2026TIP3    H127713   0.407   6.770   1.203 -0.2435 -0.4032  0.0675
 2026TIP3    H227714   0.505   6.778   1.088 -1.0167 -1.5636 -0.6909
 2027TIP3   OH227715   6.300   1.401   0.139 -0.3931 -0.8189 -0.7848
 2027TIP3    H127716   6.224   1.414   0.083 -1.5159 -0.2126  0.8269
 2027TIP3    H227717   6.267   1.355   0.216  0.5393  0.7207  0.6051
 2028TIP3   OH227718   3.974   2.303   0.540 -0.6419  0.1541 -0.1275
 2028TIP3    H127719   4.023   2.225   0.511  3.7599  1.3963  2.8575
 2028TIP3    H227720   3.945   2.281   0.629 -2.8433  0.6778 -0.6562
 2029TIP3   OH227721   0.672   3.143   8.328  0.6278  0.1988 -0.3432
 2029TIP3    H127722   0.703   3.178   8.411  0.7222  0.0953 -0.3341
 2029TIP3    H227723   0.750   3.107   8.286  0.3428 -1.1051  0.1917
 2030TIP3   OH227724   0.392   5.590   1.456 -0.0852 -0.0742 -0.0917
 2030TIP3    H127725   0.320   5.610   1.395 -0.9485  0.2188  0.9960
 2030TIP3    H227726   0.365   5.509   1.498  2.1305 -2.2261 -2.5250
 2031TIP3   OH227727   0.975   4.156   2.872  0.2730 -0.0246  0.1431
 2031TIP3    H127728   1.021   4.221   2.925 -0.2894 -1.0551  2.0282
 2031TIP3    H227729   1.044   4.113   2.822  1.1508 -0.3141  1.5397
 2032TIP3   OH227730   3.138   0.771   0.284  0.2070 -0.3193  0.3533
 2032TIP3    H127731   3.065   0.722   0.320 -2.2607  3.6074  1.2149
 2032TIP3    H227732   3.197   0.786   0.358  0.1985 -0.6400  0.4263
 2033TIP3   OH227733   0.315   2.264   1.852  0.4554  0.1964 -0.1747
 2033TIP3    H127734   0.254   2.335   1.871  0.9598  0.4172  0.6682
 2033TIP3    H227735   0.399   2.307   1.839  1.1161 -0.3312  1.9447
 2034TIP3   OH227736   6.565   4.302   4.267  0.2827 -0.2789 -0.0387
 2034TIP3    H127737   6.514   4.272   4.191  2.3594 -1.4448 -1.0552
 2034TIP3    H227738   6.544   4.238   4.335 -0.2261 -0.2796 -0.1907
 2035TIP3   OH227739   2.765   5.093   2.649 -0.1127  0.2563  0.3052
 2035TIP3    H127740   2.811   5.115   2.567 -0.0117  0.6612  0.4680
 2035TIP3    H227741   2.835   5.064   2.707 -0.2338 -0.4021  0.1244
 2036TIP3   OH227742   2.820   0.507   2.879 -0.0897 -0.2339  0.5057
 2036TIP3    H127743   2.818   0.470   2.790 -1.3681  1.1574 -0.0785
 2036TIP3    H227744   2.910   0.540   2.888 -0.2796  0.7055 -0.7573
 2037TIP3   OH227745   5.235   0.970   2.126  0.0451  0.3925  0.0233
 2037TIP3    H127746   5.192   0.972   2.211 -1.1547  2.5480 -0.5459
 2037TIP3    H227747   5.328   0.982   2.145 -0.1451  0.2912  1.0550
 2038TIP3   OH227748   2.417   3.973   8.541  0.1631 -0.3693  0.4290
 2038TIP3    H127749   2.507   3.954   8.518 -0.3733 -0.9851 -1.2904
 2038TIP3    H227750   2.412   4.069   8.543  0.0211 -0.1641 -3.3645
 2039TIP3   OH227751   3.053   6.543   2.321  0.0558  0.0625  0.4055
 2039TIP3    H127752   3.038   6.637   2.333  0.8212  0.3054 -0.4459
 2039TIP3    H227753   3.012   6.523   2.237 -0.8676 -0.5623  0.9853
 2040TIP3   OH227754   1.953   4.057   2.674  0.8448  0.0123 -0.0039
 2040TIP3    H127755   1.859   4.055   2.655  1.3746 -1.1005 -3.1542
 2040TIP3    H227756   1.977   3.965   2.687  1.4709  0.3198  1.1307
 2041TIP3   OH227757   3.861   1.963   3.017 -0.2954 -0.6199  0.3623
 2041TIP3    H127758   3.882   2.049   3.054  0.5012 -0.7963  0.3378
 2041TIP3    H227759   3.821   1.983   2.933 -0.1158 -0.2646  0.3563
 2042TIP3   OH227760   2.418   3.886   2.646  0.5978  0.0287  0.0129
 2042TIP3    H127761   2.427   3.973   2.683 -0.8325 -0.1260  0.7982
 2042TIP3    H227762   2.390   3.901   2.556  0.2117  0.3817  0.1897
 2043TIP3   OH227763   4.407   1.747   0.214 -0.1030 -0.3016  0.3031
 2043TIP3    H127764   4.360   1.807   0.272  1.2281 -0.2963  1.4546
 2043TIP3    H227765   4.435   1.801   0.140 -0.6221  0.0286  0.3493
 2044TIP3   OH227766   0.336   1.903   0.964 -0.4209 -0.0935 -0.6713
 2044TIP3    H127767   0.384   1.844   0.906  0.6509 -0.8094  0.8613
 2044TIP3    H227768   0.276   1.951   0.906  0.2497 -1.1003 -2.2670
 2045TIP3   OH227769   6.388   4.449   0.100  0.4243 -0.2632  0.2562
 2045TIP3    H127770   6.364   4.357   0.112  0.3062 -0.2472  0.1467
 2045TIP3    H227771   6.306   4.491   0.074  0.7245 -0.3480 -0.8718
 2046TIP3   OH227772   1.595   0.730   0.637 -0.1787  0.1055 -0.0465
 2046TIP3    H127773   1.573   0.644   0.603  1.6066 -0.3165 -0.2033
 2046TIP3    H227774   1.674   0.717   0.689 -1.3787  1.1906  2.2230
 2047TIP3   OH227775   2.159   0.613   2.082  0.1083  0.3275  0.6690
 2047TIP3    H127776   2.071   0.635   2.054  0.3929  0.7047  0.0469
 2047TIP3    H227777   2.178   0.674   2.153 -0.6596 -0.7084  1.8016
 2048TIP3   OH227778   4.060   3.164   1.919 -0.0224 -0.1800 -0.1910
 2048TIP3    H127779   4.117   3.241   1.928  0.7199 -0.7863  0.3544
 2048TIP3    H227780   4.028   3.169   1.829  1.1349  0.0141 -0.6056
 2049TIP3   OH227781   1.088   0.256   0.148  0.0553  0.2972  0.0530
 2049TIP3    H127782   1.081   0.199   0.225  1.9948  0.1221  0.1517
 2049TIP3    H227783   1.051   0.204   0.076  1.8722 -1.1916  0.1241
 2050TIP3   OH227784   5.332   3.985   1.418  0.1976  0.0859 -0.0658
 2050TIP3    H127785   5.337   3.997   1.323  0.4037 -1.6842 -0.2980
 2050TIP3    H227786   5.380   3.904   1.435 -0.2215  0.1402  1.5046
 2051TIP3   OH227787   1.570   0.328   2.461  0.2161 -0.0648  0.1871
 2051TIP3    H127788   1.639   0.263   2.449  0.0862 -0.4538  1.4158
 2051TIP3    H227789   1.488   0.278   2.457 -0.1016  0.5168 -2.1840
 2052TIP3   OH227790   2.567   1.981   0.843  0.2327  0.7072  0.0854
 2052TIP3    H127791   2.514   2.046   0.797  1.1709  1.7955  0.4776
 2052TIP3    H227792   2.625   1.945   0.776  0.2604  0.8605  0.0277
 2053TIP3   OH227793   4.065   4.197   1.922  0.1395  0.2082 -0.3521
 2053TIP3    H127794   4.042   4.153   2.004  0.9882  1.3593  0.5293
 2053TIP3    H227795   4.137   4.256   1.945  1.3266 -0.4264 -2.2145
 2054TIP3   OH227796   0.233   4.832   2.623 -0.3464 -0.2393 -0.3764
 2054TIP3    H127797   0.269   4.884   2.550  0.9434 -0.6804 -0.0754
 2054TIP3    H227798   0.153   4.878   2.647 -0.5180  0.2253 -1.7167
 2055TIP3   OH227799   6.886   6.287   3.335  0.0001 -0.7353  0.3339
 2055TIP3    H127800   6.791   6.290   3.323  0.3545 -0.0423 -3.1923
 2055TIP3    H227801   6.901   6.207   3.387 -2.4266 -1.3151  0.2668
 2056TIP3   OH227802   4.707   1.067   2.675 -0.0175  0.2577  0.0678
 2056TIP3    H127803   4.802   1.056   2.681 -0.1740 -0.6630  1.1927
 2056TIP3    H227804   4.682   1.102   2.761 -0.9705 -1.7879  0.6681
 2057TIP3   OH227805   0.482   4.049   0.447 -0.7480 -0.2440 -0.1942
 2057TIP3    H127806   0.430   3.998   0.509 -1.8999 -1.1183 -1.8109
 2057TIP3    H227807   0.418   4.093   0.391  0.2416  0.4039 -0.8580
 2058TIP3   OH227808   0.884   1.667   8.490 -0.3622  0.3222  0.0100
 2058TIP3    H127809   0.798   1.675   8.531 -1.0108  0.4274 -1.3343
 2058TIP3    H227810   0.905   1.755   8.460 -0.0945  0.1706 -0.2540
 2059TIP3   OH227811   2.734   4.466   2.638  0.6237  0.5041 -0.7041
 2059TIP3    H127812   2.752   4.372   2.647 -0.1748  0.4759  1.1577
 2059TIP3    H227813   2.814   4.508   2.670  0.6649  0.4414 -0.7247
 2060TIP3   OH227814   6.803   1.786   1.070  0.1527  0.2966  0.1122
 2060TIP3    H127815   6.813   1.737   0.988 -1.9264  0.0555 -0.0666
 2060TIP3    H227816   6.794   1.719   1.137 -0.6050  0.4394  0.1657
 2061TIP3   OH227817   4.185   3.757   8.267 -0.0926 -0.6209 -0.0929
 2061TIP3    H127818   4.091   3.758   8.248 -0.0808  0.0291 -0.1369
 2061TIP3    H227819   4.221   3.689   8.210 -0.2618  0.3459 -1.3734
 2062TIP3   OH227820   0.909   0.935   0.692  0.3578  0.0450  0.4533
 2062TIP3    H127821   0.995   0.903   0.719  1.1436  0.1434 -1.7632
 2062TIP3    H227822   0.871   0.863   0.642 -1.9430 -0.9407  3.2814
 2063TIP3   OH227823   1.485   1.385   1.938 -0.3415 -0.1320 -0.2221
 2063TIP3    H127824   1.513   1.396   2.029  0.2785 -0.2149 -0.3946
 2063TIP3    H227825   1.390   1.380   1.942 -0.2935 -0.6527  0.4754
 2064TIP3   OH227826   3.239   2.765   2.605  0.2832 -0.0339  0.2860
 2064TIP3    H127827   3.232   2.681   2.651  0.2126  0.3714  1.0382
 2064TIP3    H227828   3.214   2.745   2.515 -3.3191 -0.1676  1.1408
 2065TIP3   OH227829   4.542   1.207   2.899  0.9356 -0.2293  0.1262
 2065TIP3    H127830   4.525   1.302   2.898  0.8174 -0.2299  1.0921
 2065TIP3    H227831   4.456   1.167   2.883  0.8510 -0.1841  0.4728
 2066TIP3   OH227832   5.719   1.781   1.874 -0.4399 -0.3456 -0.3597
 2066TIP3    H127833   5.736   1.765   1.967 -1.4309  0.2652 -0.0659
 2066TIP3    H227834   5.805   1.802   1.837  0.3830 -2.8394 -0.0754
 2067TIP3   OH227835   3.762   0.746   1.832  0.6107 -0.7055 -0.2379
 2067TIP3    H127836   3.720   0.698   1.904 -0.9621  1.1200  0.1430
 2067TIP3    H227837   3.832   0.796   1.874 -1.8657  2.3360  0.6554
 2068TIP3   OH227838   2.078   2.779   1.252 -0.5647 -0.2893  1.0331
 2068TIP3    H127839   2.171   2.769   1.274 -0.0246  0.1437 -0.9050
 2068TIP3    H227840   2.062   2.714   1.184 -1.0071  1.2657 -0.4262
 2069TIP3   OH227841   1.837   5.464   8.409 -0.3759 -0.5420  0.2986
 2069TIP3    H127842   1.766   5.484   8.471 -2.2150 -1.0094 -1.5391
 2069TIP3    H227843   1.808   5.384   8.365  0.6348  0.0080 -1.4672
 2070TIP3   OH227844   6.928   5.693   1.923  0.1763 -0.5729  0.3677
 2070TIP3    H127845   6.884   5.617   1.886 -1.0949 -0.1196  0.8624
 2070TIP3    H227846   6.957   5.665   2.010 -0.0737 -0.5792  0.4513
 2071TIP3   OH227847   1.708   4.962   2.170 -0.1305 -0.7744  0.2380
 2071TIP3    H127848   1.627   4.912   2.185 -0.4003 -0.2116  0.6768
 2071TIP3    H227849   1.773   4.895   2.150 -0.5422 -1.2935  0.5826
 2072TIP3   OH227850   2.257   2.524   3.353 -0.0591  0.2973  0.4238
 2072TIP3    H127851   2.319   2.575   3.300 -1.0840  0.1720 -0.9449
 2072TIP3    H227852   2.248   2.574   3.434  1.6162  0.4532  0.5576
 2073TIP3   OH227853   5.299   0.193   7.676 -0.0642 -0.0130  0.1961
 2073TIP3    H127854   5.355   0.128   7.634 -0.6340 -0.8963  0.7844
 2073TIP3    H227855   5.318   0.185   7.769 -1.2931 -0.4568  0.4294
 2074TIP3   OH227856   3.687   4.692   8.040  0.1962 -0.2262 -0.0742
 2074TIP3    H127857   3.660   4.777   8.075  0.8517  0.5503 -1.3648
 2074TIP3    H227858   3.611   4.636   8.053 -0.9108  1.0487 -0.8053
 2075TIP3   OH227859   5.686   1.736   8.387 -0.3077  0.3624 -0.3651
 2075TIP3    H127860   5.635   1.717   8.309 -0.0629 -0.0630 -0.4256
 2075TIP3    H227861   5.774   1.754   8.354 -0.3996  1.0103 -0.2568
 2076TIP3   OH227862   5.139   0.691   0.455  0.5850 -0.4809 -0.4501
 2076TIP3    H127863   5.107   0.714   0.368 -0.2126  0.9862  0.2028
 2076TIP3    H227864   5.212   0.750   0.471  0.1357 -0.0982  0.2425
 2077TIP3   OH227865   5.082   0.202   2.368 -0.3722  0.3557 -0.2690
 2077TIP3    H127866   5.109   0.290   2.341 -0.0545  0.5351  0.6058
 2077TIP3    H227867   5.025   0.216   2.443 -0.1148 -0.1946  0.0367
 2078TIP3   OH227868   2.225   5.115   1.246 -0.0742  0.1613  0.5826
 2078TIP3    H127869   2.161   5.186   1.242  1.3134  1.4471  0.1763
 2078TIP3    H227870   2.194   5.052   1.180 -0.0718  1.5355 -0.8059
 2079TIP3   OH227871   1.547   3.303   0.522 -0.0027  0.3555  0.2261
 2079TIP3    H127872   1.550   3.366   0.449 -0.4924  0.4855  0.3141
 2079TIP3    H227873   1.581   3.352   0.597 -0.4549  0.5473  0.3122
 2080TIP3   OH227874   0.848   5.500   2.146  0.0530  0.4611  0.0427
 2080TIP3    H127875   0.928   5.479   2.097 -1.0479  0.3843 -1.8493
 2080TIP3    H227876   0.878   5.554   2.219  1.9446 -0.4502  0.0145
 2081TIP3   OH227877   5.437   1.831   1.355 -0.5977 -0.6596 -0.0441
 2081TIP3    H127878   5.533   1.828   1.350 -0.6327 -0.7999 -0.7810
 2081TIP3    H227879   5.416   1.923   1.367 -0.3327 -0.7495  1.2733
 2082TIP3   OH227880   6.813   3.463   0.703 -0.3107  0.0731  0.3049
 2082TIP3    H127881   6.785   3.423   0.785  1.7383 -1.7814  0.1737
 2082TIP3    H227882   6.886   3.520   0.728 -0.1627  0.0795 -0.1340
 2083TIP3   OH227883   2.798   5.693   2.014  0.0475 -0.4335 -0.5169
 2083TIP3    H127884   2.738   5.743   2.070 -0.0625 -1.3114  0.1700
 2083TIP3    H227885   2.854   5.760   1.974  1.6844  0.1770  2.4225
 2084TIP3   OH227886   0.636   1.911   3.711  0.1485 -0.1777  0.0608
 2084TIP3    H127887   0.731   1.906   3.714  0.1425 -0.2225  2.6652
 2084TIP3    H227888   0.616   2.002   3.732 -0.3418 -0.7364  2.3206
 2085TIP3   OH227889   3.880   2.995   2.270  0.2494 -0.2112  0.0025
 2085TIP3    H127890   3.924   3.075   2.299  1.2006  0.4317 -2.9617
 2085TIP3    H227891   3.948   2.946   2.225 -1.5034 -0.1894 -2.8611
 2086TIP3   OH227892   0.135   3.302   4.391 -0.3604 -0.1127 -0.4042
 2086TIP3    H127893   0.063   3.361   4.412  0.7305  1.9094 -2.0072
 2086TIP3    H227894   0.210   3.360   4.378  1.6673 -2.1309  1.3942
 2087TIP3   OH227895   3.991   5.293   0.133  1.0724  0.0278  0.0988
 2087TIP3    H127896   3.992   5.388   0.143 -0.5192  0.0555  0.3191
 2087TIP3    H227897   3.952   5.278   0.047 -0.6046 -0.4161  0.8857
 2088TIP3   OH227898   1.706   5.358   0.279 -0.4841  0.2355  0.2214
 2088TIP3    H127899   1.725   5.289   0.342  0.3210 -0.8555 -1.1635
 2088TIP3    H227900   1.791   5.397   0.259 -0.6427  0.1709 -0.6151
 2089TIP3   OH227901   0.898   6.796   2.816  0.3654  0.0036 -0.5336
 2089TIP3    H127902   0.895   6.826   2.726 -0.3294  0.2261 -0.4378
 2089TIP3    H227903   0.807   6.785   2.841  0.5182 -3.3273 -0.9412
 2090TIP3   OH227904   6.278   5.490   3.394 -0.2448  0.0497 -0.4769
 2090TIP3    H127905   6.219   5.563   3.411 -0.2769  0.4435 -2.1422
 2090TIP3    H227906   6.257   5.426   3.462 -1.1023  1.0495  0.2323
 2091TIP3   OH227907   3.732   4.262   1.850  0.0411 -0.3257 -0.0128
 2091TIP3    H127908   3.657   4.322   1.856 -1.0145 -1.4250 -1.3234
 2091TIP3    H227909   3.753   4.240   1.940  0.5075  2.0392  0.5025
 2092TIP3   OH227910   5.315   4.736   0.776 -0.0901  0.0687  0.5875
 2092TIP3    H127911   5.309   4.661   0.836 -0.6967  1.2433  2.0567
 2092TIP3    H227912   5.239   4.726   0.719  1.2738 -1.8634 -1.0335
 2093TIP3   OH227913   6.394   6.771   2.257  0.1286  0.4694  0.3905
 2093TIP3    H127914   6.313   6.822   2.260 -1.1507 -1.3646 -0.6209
 2093TIP3    H227915   6.396   6.725   2.341 -0.6983 -0.5814 -0.1340
 2094TIP3   OH227916   5.938   2.204   1.111 -1.0495 -0.6400 -0.4122
 2094TIP3    H127917   5.990   2.146   1.167 -3.8897  0.2524  3.5349
 2094TIP3    H227918   5.999   2.273   1.085  0.2184 -0.4364  2.7142
 2095TIP3   OH227919   3.749   4.914   8.398 -0.2295  0.1998 -0.1019
 2095TIP3    H127920   3.827   4.900   8.345  1.6534  1.5716  2.1050
 2095TIP3    H227921   3.740   5.009   8.402 -0.3069  0.1521  1.9262
 2096TIP3   OH227922   3.191   1.544   0.139  0.4923  0.0824 -0.0133
 2096TIP3    H127923   3.105   1.557   0.101  0.0406  0.3527  1.0559
 2096TIP3    H227924   3.241   1.499   0.071 -1.2631 -2.4491  0.2425
 2097TIP3   OH227925   3.239   4.159   3.769  0.5916 -0.0995 -0.6559
 2097TIP3    H127926   3.328   4.178   3.739  0.2932  0.7412 -1.0235
 2097TIP3    H227927   3.235   4.198   3.857  0.3380  0.5797 -0.9613
 2098TIP3   OH227928   5.935   1.027   0.830  0.4907  0.6423  0.0520
 2098TIP3    H127929   5.900   1.099   0.883  2.6728  0.5256  1.7929
 2098TIP3    H227930   5.858   0.975   0.807 -0.8153  1.9709  1.1919
 2099TIP3   OH227931   0.975   0.070   8.541 -0.2939  0.0657  0.0624
 2099TIP3    H127932   0.957  -0.021   8.565 -1.4603  0.4802  0.8718
 2099TIP3    H227933   0.966   0.071   8.445 -1.0064 -0.5371  0.1078
 2100TIP3   OH227934   0.627   3.624   2.813  0.6710  0.4082  0.1589
 2100TIP3    H127935   0.561   3.656   2.751 -0.7641  1.9094  2.3367
 2100TIP3    H227936   0.699   3.686   2.806  0.8859  0.0986 -0.5436
 2101TIP3   OH227937   6.165   2.727   2.056  0.0949 -0.2484 -0.7094
 2101TIP3    H127938   6.146   2.657   2.118  1.1612  0.1876  0.1394
 2101TIP3    H227939   6.255   2.753   2.075  0.0140  0.7652 -1.5909
 2102TIP3   OH227940   0.404   2.010   1.963 -0.0684 -0.4448  0.0081
 2102TIP3    H127941   0.392   2.002   1.868 -1.7509  0.1686  0.1269
 2102TIP3    H227942   0.380   2.100   1.982  1.5979 -0.1538  0.8717
 2103TIP3   OH227943   6.210   5.113   4.250 -0.1155  0.3575  0.1745
 2103TIP3    H127944   6.283   5.075   4.202 -0.1661  0.7764 -0.2360
 2103TIP3    H227945   6.241   5.199   4.278 -0.4443  0.5289  0.0147
 2104TIP3   OH227946   3.642   5.022   0.373 -0.2450  0.0889 -0.0820
 2104TIP3    H127947   3.626   4.950   0.312  0.2500 -0.1131  0.0283
 2104TIP3    H227948   3.731   5.052   0.353 -0.9116  1.5537 -1.0406
 2105TIP3   OH227949   0.086   4.104   2.007  0.3036 -0.1293  0.4481
 2105TIP3    H127950  -0.003   4.121   2.038 -0.0321 -0.0516 -0.5241
 2105TIP3    H227951   0.142   4.142   2.074 -0.4018  0.4161  0.7412
 2106TIP3   OH227952   4.823   4.186   0.396  0.0907  0.2040 -0.1412
 2106TIP3    H127953   4.857   4.194   0.485 -1.4500 -1.1340  0.6200
 2106TIP3    H227954   4.764   4.261   0.386 -1.7853 -1.0538  0.9884
 2107TIP3   OH227955   3.028   0.432   1.499  0.5528 -0.2565 -0.0474
 2107TIP3    H127956   2.959   0.494   1.475  0.7780 -0.6136 -1.7565
 2107TIP3    H227957   3.109   0.476   1.475  0.8635 -0.3164  0.8566
 2108TIP3   OH227958   0.440   4.453   2.373  0.1655 -0.1404 -0.1240
 2108TIP3    H127959   0.466   4.543   2.350 -0.0951 -0.1030 -0.2695
 2108TIP3    H227960   0.345   4.456   2.376  0.1910 -0.0678  1.2588
 2109TIP3   OH227961   6.288   3.051   2.224  0.2439  0.2524  0.1506
 2109TIP3    H127962   6.241   2.975   2.258  1.0153 -0.0288  0.6137
 2109TIP3    H227963   6.285   3.041   2.129 -3.1701  1.7839 -0.0324
 2110TIP3   OH227964   2.227   6.300   8.377  0.5286 -0.4649  0.2375
 2110TIP3    H127965   2.296   6.364   8.358 -0.0669  0.4833  1.1832
 2110TIP3    H227966   2.180   6.291   8.294  1.1147 -0.3009 -0.1226
 2111TIP3   OH227967   1.113   0.335   2.608 -0.1459 -0.4252 -0.4186
 2111TIP3    H127968   1.093   0.421   2.570  1.0236  0.2180  0.3471
 2111TIP3    H227969   1.132   0.354   2.700  0.8681 -1.4002 -0.4127
 2112TIP3   OH227970   1.474   1.684   0.064  0.0205  0.2329  0.1974
 2112TIP3    H127971   1.531   1.608   0.076  1.0041  1.2113  2.0702
 2112TIP3    H227972   1.532   1.754   0.034 -0.3289  0.9883  1.2149
 2113TIP3   OH227973   6.742   2.471   1.730  0.2615 -0.2751 -0.0410
 2113TIP3    H127974   6.652   2.506   1.731  1.1368  2.1992  1.4936
 2113TIP3    H227975   6.738   2.396   1.790 -0.8233 -0.3527 -0.1773
 2114TIP3   OH227976   2.190   0.353   3.250  0.1971 -0.2597  0.2508
 2114TIP3    H127977   2.131   0.410   3.200  0.2184 -0.8466 -0.4682
 2114TIP3    H227978   2.170   0.372   3.341  0.0290  0.7125  0.0305
 2115TIP3   OH227979   5.850   5.872   2.248  0.2423 -0.0173  0.0532
 2115TIP3    H127980   5.798   5.830   2.316  1.2016 -1.8684 -0.2945
 2115TIP3    H227981   5.905   5.935   2.294 -0.5081  0.1566  0.7289
 2116TIP3   OH227982   2.099   1.525   0.938  0.8491 -0.0623 -0.1059
 2116TIP3    H127983   2.066   1.487   0.857  1.6172 -1.2426  0.1074
 2116TIP3    H227984   2.108   1.451   0.998  0.5829  0.7407  0.9699
 2117TIP3   OH227985   1.234   1.078   0.844  0.2845  0.3501  0.6847
 2117TIP3    H127986   1.287   1.002   0.820  2.0873  1.4194  1.0866
 2117TIP3    H227987   1.145   1.044   0.850  1.0654 -1.7837  1.1216
 2118TIP3   OH227988   3.128   1.508   2.010  0.6244  0.6308 -0.0445
 2118TIP3    H127989   3.094   1.552   1.933 -1.8918  0.4222  0.8673
 2118TIP3    H227990   3.155   1.579   2.069 -0.6836  0.9121  0.2411
 2119TIP3   OH227991   5.202   6.626   8.138  0.3483 -0.1627  0.8896
 2119TIP3    H127992   5.258   6.702   8.120  2.4603 -1.6527  0.7641
 2119TIP3    H227993   5.152   6.613   8.057  2.1772 -0.6393 -0.2109
 2120TIP3   OH227994   6.590   0.311   2.539 -0.1677  0.0653  0.4219
 2120TIP3    H127995   6.636   0.392   2.520  1.3860 -0.3800  2.0374
 2120TIP3    H227996   6.497   0.334   2.536  0.1151  1.1528 -2.1923
 2121TIP3   OH227997   4.686   6.607   1.504 -0.0229 -0.2542  0.1333
 2121TIP3    H127998   4.693   6.642   1.593  0.6434 -1.0627  0.4011
 2121TIP3    H227999   4.692   6.512   1.514  1.9079 -0.2964 -0.9311
 2122TIP3   OH228000   2.696   5.978   2.635  0.0984  0.2063  0.0023
 2122TIP3    H128001   2.774   5.977   2.691  0.2420  0.5687 -0.1873
 2122TIP3    H228002   2.725   6.021   2.554 -0.4209  0.8016  0.1210
 2123TIP3   OH228003   4.767   6.456   3.909 -0.1184  0.4566  0.5634
 2123TIP3    H128004   4.815   6.527   3.867 -0.5492  0.2786 -0.2545
 2123TIP3    H228005   4.775   6.382   3.849 -3.9777  1.2531 -1.2944
 2124TIP3   OH228006   1.119   0.344   3.685  0.5224  0.1719  0.2228
 2124TIP3    H128007   1.108   0.275   3.752 -0.4037 -1.8785 -1.8896
 2124TIP3    H228008   1.140   0.422   3.735 -0.6797 -1.1058  2.9833
 2125TIP3   OH228009   1.240   3.333   0.458  0.4877  0.1298 -0.2150
 2125TIP3    H128010   1.309   3.278   0.494  1.3319  0.0834 -1.8263
 2125TIP3    H228011   1.261   3.421   0.489 -1.1252 -0.3706  2.7638
 2126TIP3   OH228012   6.779   3.229   0.508  0.1011 -0.0626  0.0739
 2126TIP3    H128013   6.748   3.274   0.586 -0.0894  1.0351 -0.6050
 2126TIP3    H228014   6.863   3.271   0.488 -0.1376  0.0982 -0.6401
 2127TIP3   OH228015   5.848   6.824   1.643  0.1422  0.3565 -0.1385
 2127TIP3    H128016   5.773   6.872   1.607 -1.1195 -0.5213  1.2038
 2127TIP3    H228017   5.874   6.765   1.572 -0.3680  0.7398 -0.6563
 2128TIP3   OH228018   3.091   2.995   1.698  0.2706 -0.4075 -0.1514
 2128TIP3    H128019   3.002   3.017   1.723  0.3849 -0.2698  0.1437
 2128TIP3    H228020   3.083   2.954   1.612 -0.0986 -0.6366 -0.0070
 2129TIP3   OH228021   4.386   0.691   1.650 -0.1507  0.3277  0.2401
 2129TIP3    H128022   4.301   0.694   1.606 -0.4484 -2.1177  0.5097
 2129TIP3    H228023   4.450   0.699   1.580 -0.5567  1.6983 -0.0154
 2130TIP3   OH228024   3.802   3.121   2.788 -0.1307  0.3346 -0.3759
 2130TIP3    H128025   3.865   3.075   2.732 -0.4477 -0.1515 -0.3401
 2130TIP3    H228026   3.717   3.103   2.747 -0.4732 -0.8613  0.8028
 2131TIP3   OH228027   5.370   5.322   1.339  0.1154 -0.2613 -0.3612
 2131TIP3    H128028   5.282   5.337   1.373  0.5128  0.3096  0.4404
 2131TIP3    H228029   5.416   5.405   1.353  1.4738 -1.2370  1.3870
 2132TIP3   OH228030   0.432   1.323   3.223  0.2367 -0.3158  0.2058
 2132TIP3    H128031   0.403   1.413   3.211 -0.9640 -0.5837  0.9482
 2132TIP3    H228032   0.370   1.285   3.285  0.9985 -1.5226  0.2751
 2133TIP3   OH228033   3.236   2.394   3.120  0.3466 -0.5340 -0.1713
 2133TIP3    H128034   3.331   2.381   3.120  0.5044  0.4019  0.8822
 2133TIP3    H228035   3.200   2.311   3.091  1.4771 -1.1264  0.0687
 2134TIP3   OH228036   4.994   4.383   0.920 -0.6180 -0.2440 -0.1120
 2134TIP3    H128037   4.988   4.451   0.987  0.6040  0.3862 -0.6072
 2134TIP3    H228038   5.055   4.319   0.957  0.5730  0.4232 -0.8377
 2135TIP3   OH228039   5.883   4.375   2.454 -0.2460  0.1959  0.1746
 2135TIP3    H128040   5.830   4.424   2.392 -0.6410 -1.9585 -1.2977
 2135TIP3    H228041   5.955   4.340   2.402 -0.3956 -1.3778  0.9636
 2136TIP3   OH228042   6.154   3.744   1.373 -0.2387  0.0589 -0.0986
 2136TIP3    H128043   6.209   3.758   1.295 -1.5247 -0.1892 -1.0948
 2136TIP3    H228044   6.210   3.694   1.432  1.3429  1.6488 -0.1544
 2137TIP3   OH228045   6.389   1.086   3.390  0.2487  0.3200  0.0621
 2137TIP3    H128046   6.363   1.053   3.305 -0.1444  0.8677 -0.0397
 2137TIP3    H228047   6.470   1.134   3.374  1.8656 -2.1068  0.5231
 2138TIP3   OH228048   3.443   6.527   3.404  0.5030 -0.2044 -0.0157
 2138TIP3    H128049   3.535   6.519   3.377 -0.2518 -1.2244 -2.4782
 2138TIP3    H228050   3.401   6.447   3.373 -1.3256  0.3913  0.7705
 2139TIP3   OH228051   0.253   5.676   0.001  0.1670  0.0480  0.0577
 2139TIP3    H128052   0.169   5.721  -0.013  1.1918  2.9732  2.3046
 2139TIP3    H228053   0.237   5.617   0.074 -0.0608  0.1380  0.0798
 2140TIP3   OH228054   6.890   1.356   2.949  0.1127 -0.3571  0.3716
 2140TIP3    H128055   6.857   1.309   3.025 -0.7985 -2.3656 -1.1822
 2140TIP3    H228056   6.897   1.289   2.880  2.6445  0.9927 -0.8212
 2141TIP3   OH228057   1.319   6.501   2.441 -0.0648  0.2097 -0.6335
 2141TIP3    H128058   1.337   6.412   2.470 -0.5389 -0.4749 -2.3183
 2141TIP3    H228059   1.276   6.491   2.355 -2.2276  1.9597  0.1194
 2142TIP3   OH228060   5.476   6.055   3.769  0.2111  0.0765 -0.2800
 2142TIP3    H128061   5.401   6.014   3.811 -0.5682  0.1167 -1.5835
 2142TIP3    H228062   5.548   6.043   3.831 -0.5541 -1.1350  0.4039
 2143TIP3   OH228063   5.967   3.428   3.058 -0.1493  0.2729  0.5387
 2143TIP3    H128064   5.894   3.486   3.038  0.1619 -0.1383 -2.1032
 2143TIP3    H228065   5.934   3.340   3.039  0.0098 -0.2722  2.5976
 2144TIP3   OH228066   6.464   0.910   2.167  0.2952 -0.1882  0.1935
 2144TIP3    H128067   6.439   0.832   2.217  0.8753 -0.7988 -0.4530
 2144TIP3    H228068   6.389   0.926   2.109 -0.5993  0.8236  1.5733
 2145TIP3   OH228069   5.521   6.156   1.848 -0.2898  0.1197 -0.5111
 2145TIP3    H128070   5.553   6.070   1.874 -2.3733 -0.5882 -0.1051
 2145TIP3    H228071   5.489   6.195   1.930  0.6579  1.3143 -0.6845
 2146TIP3   OH228072   4.367   1.417   3.085  0.6804 -0.5870 -0.6858
 2146TIP3    H128073   4.424   1.447   3.015  0.1102  2.3110 -0.0170
 2146TIP3    H228074   4.424   1.406   3.160  0.6399  0.7111 -0.4494
 2147TIP3   OH228075   5.935   1.497   8.342 -1.0185 -0.2125 -0.2774
 2147TIP3    H128076   5.918   1.590   8.358 -1.1672 -0.3179  0.1890
 2147TIP3    H228077   5.972   1.465   8.424 -0.3538 -0.4183 -0.6517
 2148TIP3   OH228078   6.656   1.446   2.268 -0.6121  0.2139  0.1579
 2148TIP3    H128079   6.749   1.432   2.286 -0.7901 -0.1419  0.8281
 2148TIP3    H228080   6.638   1.389   2.192 -0.3868 -0.0681  0.3134
 2149TIP3   OH228081   6.134   1.979   8.200  0.1385 -0.5562 -0.1360
 2149TIP3    H128082   6.179   2.063   8.206 -2.6170  1.0037  0.3830
 2149TIP3    H228083   6.086   1.983   8.117  1.0965 -2.2834 -0.8350
 2150TIP3   OH228084   4.596   5.994   3.399  0.3585 -0.5169 -0.3345
 2150TIP3    H128085   4.601   6.072   3.455 -0.0572 -0.3302 -0.5501
 2150TIP3    H228086   4.549   6.024   3.321 -1.8518 -1.5057  0.5190
 2151TIP3   OH228087   0.940   1.623   1.165 -0.0541  0.5404 -0.2728
 2151TIP3    H128088   0.982   1.706   1.145  0.7698  0.3728  0.7114
 2151TIP3    H228089   0.859   1.624   1.113  0.0513  1.8475 -0.4315
 2152TIP3   OH228090   5.110   5.652   3.531  0.4545 -0.0875 -0.0609
 2152TIP3    H128091   5.198   5.678   3.505 -0.5233  0.9426 -2.6990
 2152TIP3    H228092   5.105   5.559   3.507  0.4794  0.1446 -1.0003
 2153TIP3   OH228093   5.724   2.874   0.637 -0.3146 -0.0648  0.0003
 2153TIP3    H128094   5.663   2.823   0.584 -0.6388  1.5406 -1.2270
 2153TIP3    H228095   5.700   2.965   0.622 -0.1583  0.5025  2.6226
 2154TIP3   OH228096   5.542   0.349   8.467 -0.0691 -0.3952  0.5720
 2154TIP3    H128097   5.636   0.330   8.460 -0.5681 -2.9454 -0.2200
 2154TIP3    H228098   5.508   0.331   8.379 -1.1679  1.6324  0.5193
 2155TIP3   OH228099   1.245   5.086   2.585 -0.7627 -0.5177  0.0563
 2155TIP3    H128100   1.177   5.064   2.648 -1.1671  0.5534  0.0097
 2155TIP3    H228101   1.201   5.081   2.500 -1.1798  1.4530  0.1015
 2156TIP3   OH228102   2.057   6.775   4.101 -0.1590 -0.1744 -0.0151
 2156TIP3    H128103   2.112   6.848   4.072  0.9404 -1.5716 -1.6050
 2156TIP3    H228104   1.971   6.793   4.063  0.8470 -1.1354 -3.0042
 2157TIP3   OH228105   3.443   0.029   1.616  0.5845  0.2610  0.1325
 2157TIP3    H128106   3.412   0.116   1.641 -0.6226 -0.3016  0.7347
 2157TIP3    H228107   3.507   0.044   1.547  0.1462  1.6109 -0.0036
 2158TIP3   OH228108   5.004   6.606   2.232 -0.2066  0.0616  0.3235
 2158TIP3    H128109   4.947   6.627   2.159 -1.2731  0.8220  1.3484
 2158TIP3    H228110   5.068   6.677   2.234  0.5905 -0.5974 -0.5931
 2159TIP3   OH228111   1.127   0.322   3.324  0.2394 -0.2490  0.4899
 2159TIP3    H128112   1.181   0.344   3.400  0.5920  0.4368  0.0582
 2159TIP3    H228113   1.186   0.275   3.266  0.1779 -0.1345  0.3321
 2160TIP3   OH228114   3.909   3.676   3.586  0.5166 -0.5618  0.0678
 2160TIP3    H128115   3.914   3.584   3.611 -0.1405 -1.0253 -1.3990
 2160TIP3    H228116   3.818   3.701   3.605 -0.2662 -1.1744 -2.4918
 2161TIP3   OH228117   2.018   3.048   8.519 -0.7940  0.1970  0.3753
 2161TIP3    H128118   1.924   3.037   8.528 -0.8761 -0.7655 -1.2788
 2161TIP3    H228119   2.029   3.114   8.450 -0.2672  0.0254  0.2856
 2162TIP3   OH228120   6.655   0.495   0.282 -0.2803  0.4659 -0.5577
 2162TIP3    H128121   6.620   0.532   0.201  0.8220 -0.0143 -1.2700
 2162TIP3    H228122   6.580   0.493   0.341 -0.6929  2.5205 -0.9471
 2163TIP3   OH228123   1.649   0.869   1.643  0.7961  0.3471  0.0800
 2163TIP3    H128124   1.609   0.858   1.729 -2.0647  0.4490 -1.1279
 2163TIP3    H228125   1.726   0.925   1.659 -0.3166  1.3234  2.4076
 2164TIP3   OH228126   0.678   4.127   3.117  0.1848  0.3024 -0.0545
 2164TIP3    H128127   0.707   4.158   3.031 -0.5022  1.4407  0.0939
 2164TIP3    H228128   0.664   4.033   3.106  0.6206  0.3453 -1.0397
 2165TIP3   OH228129   3.943   6.501   1.463 -0.5312  0.2563 -0.0927
 2165TIP3    H128130   3.976   6.563   1.528  0.2570  1.7180 -1.7928
 2165TIP3    H228131   3.851   6.525   1.451 -0.3691  0.7792 -0.3511
 2166TIP3   OH228132   2.681   5.919   0.600  0.2900 -0.5355  0.2271
 2166TIP3    H128133   2.652   5.832   0.626 -1.6138 -0.6106 -1.8690
 2166TIP3    H228134   2.645   5.977   0.667 -0.4436 -1.1408  0.3607
 2167TIP3   OH228135   2.135   0.335   2.331  0.1117 -0.0256 -0.8367
 2167TIP3    H128136   2.173   0.284   2.402 -2.8378 -2.8970 -1.1096
 2167TIP3    H228137   2.203   0.335   2.263  1.7654  0.1096  0.7314
 2168TIP3   OH228138   5.770   3.267   0.236 -0.2415  0.5694  0.5553
 2168TIP3    H128139   5.678   3.292   0.227 -0.8872 -2.2391 -1.8975
 2168TIP3    H228140   5.818   3.334   0.187 -1.2611  0.5902 -0.4558
 2169TIP3   OH228141   0.587   3.898   0.974 -0.2778  0.4628  0.9349
 2169TIP3    H128142   0.508   3.848   0.955  0.6828  0.0409 -2.8755
 2169TIP3    H228143   0.656   3.832   0.981  0.3308  0.9863  0.1051
 2170TIP3   OH228144   1.952   5.918   3.481 -0.1909 -0.0273  0.1406
 2170TIP3    H128145   1.928   5.956   3.565  2.2087 -3.8564  2.8528
 2170TIP3    H228146   2.032   5.965   3.456  0.7157 -0.7179  1.5866
 2171TIP3   OH228147   5.003   0.394   0.636  0.0077 -0.3396 -0.5425
 2171TIP3    H128148   4.991   0.458   0.566 -0.5398  2.6285  2.0452
 2171TIP3    H228149   4.922   0.342   0.635 -0.8802  1.0032 -0.8480
 2172TIP3   OH228150   6.409   5.185   1.734  0.5623 -0.3566  0.3571
 2172TIP3    H128151   6.493   5.148   1.708 -0.0820 -0.1729 -2.2268
 2172TIP3    H228152   6.380   5.235   1.658 -0.2766  2.5565  2.4177
 2173TIP3   OH228153   1.659   4.932   0.324  0.0317 -0.7805 -0.3600
 2173TIP3    H128154   1.746   4.898   0.301  0.8637  1.6126 -0.9857
 2173TIP3    H228155   1.619   4.953   0.240 -0.7156 -0.7897 -0.0129
 2174TIP3   OH228156   3.469   3.639   2.828  0.4985 -0.4791 -0.0705
 2174TIP3    H128157   3.443   3.579   2.758  0.7956 -1.1798  0.4111
 2174TIP3    H228158   3.527   3.702   2.785 -2.2290  1.4363 -1.2938
 2175TIP3   OH228159   0.941   2.631   3.834 -0.0033 -0.7000  0.2248
 2175TIP3    H128160   1.017   2.590   3.874  0.4048  1.6668  2.0654
 2175TIP3    H228161   0.969   2.720   3.814 -2.5440  0.6239  2.0260
 2176TIP3   OH228162   6.857   4.899   2.690 -0.6069 -0.0513  0.1733
 2176TIP3    H128163   6.875   4.808   2.715  0.0416 -0.1067 -0.4451
 2176TIP3    H228164   6.779   4.893   2.635 -0.5621 -0.2392  0.1279
 2177TIP3   OH228165   4.867   0.579   0.968 -0.7735 -0.3179  1.1187
 2177TIP3    H128166   4.926   0.613   1.036 -0.4574 -0.3162  0.8504
 2177TIP3    H228167   4.785   0.627   0.981 -0.3759  0.4618  0.8276
 2178TIP3   OH228168   1.652   5.717   3.133  0.0632 -1.1161 -0.5082
 2178TIP3    H128169   1.730   5.735   3.185  0.5601  0.8285 -1.7953
 2178TIP3    H228170   1.584   5.696   3.197  1.1927 -1.0865  0.7397
 2179TIP3   OH228171   4.187   4.742   3.326  0.2820 -0.6973  0.0939
 2179TIP3    H128172   4.238   4.711   3.401  0.6620 -1.9259 -0.6528
 2179TIP3    H228173   4.229   4.704   3.250  0.5051  1.3459 -0.8726
 2180TIP3   OH228174   1.374   0.362   3.481  0.3765 -0.0672  0.5795
 2180TIP3    H128175   1.349   0.420   3.553  0.0811 -0.3514  0.7080
 2180TIP3    H228176   1.378   0.419   3.404  0.0758  0.1214  0.7012
 2181TIP3   OH228177   3.524   0.748   3.321  0.4053  0.2831 -0.5459
 2181TIP3    H128178   3.591   0.802   3.279 -0.9167  2.7180  0.3004
 2181TIP3    H228179   3.464   0.725   3.251  1.6671 -1.3100 -1.1681
 2182TIP3   OH228180   3.679   3.337   2.346 -0.4918  0.1256 -0.7433
 2182TIP3    H128181   3.664   3.255   2.300 -1.4814  0.2987 -0.7579
 2182TIP3    H228182   3.712   3.311   2.432 -0.8973 -0.2929 -0.7146
 2183TIP3   OH228183   2.943   6.301   1.432  0.6129  0.0742  0.0810
 2183TIP3    H128184   2.978   6.369   1.374  0.3182  1.3442  1.3291
 2183TIP3    H228185   2.913   6.349   1.509  0.4972 -1.5002  1.0557
 2184TIP3   OH228186   2.969   6.643   3.347  0.7178 -0.1034  0.4011
 2184TIP3    H128187   3.016   6.639   3.431  1.3061  1.2806  0.1676
 2184TIP3    H228188   2.877   6.632   3.371  0.8241  0.7605  1.3211
 2185TIP3   OH228189   6.210   1.208   3.559 -0.3173 -0.2954  0.3114
 2185TIP3    H128190   6.262   1.151   3.503  0.9939  1.5504 -0.4531
 2185TIP3    H228191   6.242   1.191   3.648  0.8026 -0.0372 -0.0274
 2186TIP3   OH228192   5.443   2.508   0.528  0.2222 -0.1521  0.3582
 2186TIP3    H128193   5.384   2.519   0.602  0.2768  0.0680  0.3692
 2186TIP3    H228194   5.438   2.415   0.507 -0.4932 -0.0536  0.0621
 2187TIP3   OH228195   3.354   1.968   8.493 -0.6046 -0.4899  0.0999
 2187TIP3    H128196   3.432   1.968   8.549 -0.9771 -0.8258  0.6299
 2187TIP3    H228197   3.368   1.896   8.432 -0.2486 -0.1947 -0.1782
 2188TIP3   OH228198   4.508   3.581   1.739  0.1724  0.6553  0.4768
 2188TIP3    H128199   4.473   3.665   1.710  1.1446  1.5471  1.7566
 2188TIP3    H228200   4.432   3.522   1.738 -0.2731  1.1829 -1.6287
 2189TIP3   OH228201   1.981   4.525   4.031  0.1549  0.2408 -0.1531
 2189TIP3    H128202   1.961   4.520   4.125 -1.7757 -0.1848 -0.5400
 2189TIP3    H228203   1.911   4.475   3.989 -0.0545  1.9574 -1.9663
 2190TIP3   OH228204   2.257   3.218   2.698  0.0492  0.5502 -0.2318
 2190TIP3    H128205   2.278   3.243   2.788  3.7096 -0.2422 -0.6745
 2190TIP3    H228206   2.290   3.290   2.645  0.9975 -0.4133 -1.0160
 2191TIP3   OH228207   1.646   0.340   3.445 -0.4569 -0.0755 -0.7934
 2191TIP3    H128208   1.695   0.336   3.527 -1.0901 -0.0813 -0.4115
 2191TIP3    H228209   1.554   0.344   3.472 -0.6264  0.8294 -1.4781
 2192TIP3   OH228210   0.001   3.150   2.686 -0.3733  0.0277 -0.1012
 2192TIP3    H128211  -0.061   3.220   2.705 -3.8642 -2.7303 -0.2118
 2192TIP3    H228212   0.018   3.109   2.770  0.0161 -0.2026 -0.2905
 2193TIP3   OH228213   1.543   6.826   3.128 -0.2190 -0.1951  0.7736
 2193TIP3    H128214   1.449   6.840   3.113 -0.1548  0.2977  0.8175
 2193TIP3    H228215   1.576   6.796   3.043 -0.6186 -1.5184  1.0517
 2194TIP3   OH228216   1.110   5.975   1.082  0.1531  0.8566  0.3352
 2194TIP3    H128217   1.098   5.905   1.146 -1.6369  2.2222  1.5684
 2194TIP3    H228218   1.205   5.988   1.079  0.3267  0.5139  2.4803
 2195TIP3   OH228219   6.938   1.806   3.638 -0.1645  0.4954 -0.0257
 2195TIP3    H128220   6.885   1.881   3.610  1.6209  0.9212 -2.5965
 2195TIP3    H228221   7.021   1.843   3.666 -0.4841 -0.3083  2.1779
 2196TIP3   OH228222   0.692   3.632   0.377 -0.3115  0.4075  0.8196
 2196TIP3    H128223   0.714   3.561   0.438  0.1579 -0.8905 -0.7695
 2196TIP3    H228224   0.725   3.711   0.419  3.2264 -0.8501  0.7811
 2197TIP3   OH228225   5.258   5.413   2.597 -0.2120  0.1141 -0.6163
 2197TIP3    H128226   5.210   5.494   2.583 -1.5498 -0.6522 -0.5892
 2197TIP3    H228227   5.192   5.344   2.592  0.5484 -0.8484  1.3754
 2198TIP3   OH228228   1.746   3.533   0.957 -0.2073 -0.1891 -0.0192
 2198TIP3    H128229   1.666   3.514   1.006  0.0214 -0.6184  0.1936
 2198TIP3    H228230   1.745   3.628   0.946 -0.6021 -0.1605  0.2284
 2199TIP3   OH228231   6.019   4.373   2.859 -0.3669  0.3098 -0.1786
 2199TIP3    H128232   5.933   4.354   2.823 -1.4755  0.6881  2.1406
 2199TIP3    H228233   6.002   4.411   2.945  2.1543 -1.8866  1.4215
 2200TIP3   OH228234   0.602   2.257   1.726  0.9619  0.6567  0.4477
 2200TIP3    H128235   0.682   2.227   1.683  0.9070 -0.7382  1.2451
 2200TIP3    H228236   0.540   2.185   1.712 -0.7382  2.3746 -1.5930
 2201TIP3   OH228237   2.290   1.054   2.180 -0.3574 -0.2696  0.4211
 2201TIP3    H128238   2.357   1.113   2.215  0.8040 -1.0004 -0.4702
 2201TIP3    H228239   2.267   1.092   2.095 -1.3791  0.1773  0.8780
 2202TIP3   OH228240   4.369   0.738   2.538  0.1038  0.6253 -0.0623
 2202TIP3    H128241   4.449   0.714   2.584  0.7703  2.8654  0.0418
 2202TIP3    H228242   4.336   0.655   2.502  1.1175 -0.7313  1.9534
 2203TIP3   OH228243   5.148   0.644   2.523  0.1205 -0.7386 -0.3659
 2203TIP3    H128244   5.190   0.563   2.491  0.4393 -1.1398  1.0163
 2203TIP3    H228245   5.185   0.657   2.610 -0.2455  0.6881 -0.4089
 2204TIP3   OH228246   2.848   5.320   2.839 -0.3029 -0.4502 -0.2211
 2204TIP3    H128247   2.817   5.357   2.921 -0.2914 -0.1315 -0.3600
 2204TIP3    H228248   2.886   5.236   2.863 -0.2735 -0.3434  0.1031
 2205TIP3   OH228249   0.106   1.560   1.304  0.4835  0.3355  0.0641
 2205TIP3    H128250   0.146   1.643   1.280 -0.2303  0.1792 -1.8369
 2205TIP3    H228251   0.165   1.494   1.270  0.6527  0.0558  0.8761
 2206TIP3   OH228252   0.170   0.089   1.420  0.2934  0.6194 -0.6035
 2206TIP3    H128253   0.120   0.054   1.494  0.7230 -1.3130 -1.1551
 2206TIP3    H228254   0.103   0.122   1.360 -0.1464  0.7949 -0.0332
 2207TIP3   OH228255   2.091   5.756   0.480  0.1496 -0.5210  0.2590
 2207TIP3    H128256   2.110   5.763   0.387  1.7822 -0.1624  0.5776
 2207TIP3    H228257   2.054   5.840   0.505 -0.6194 -0.7424 -0.1303
 2208TIP3   OH228258   3.432   6.868   0.418 -0.1634  0.3221  0.1207
 2208TIP3    H128259   3.439   6.773   0.405 -0.2431  0.3537 -0.1553
 2208TIP3    H228260   3.344   6.890   0.388  0.6730  0.8456 -2.1140
 2209TIP3   OH228261   6.198   0.060   3.196  0.1927  0.0861  0.5392
 2209TIP3    H128262   6.201   0.150   3.161  0.4086  1.0425  2.8528
 2209TIP3    H228263   6.284   0.047   3.235 -0.1472 -0.8157  1.0078
 2210TIP3   OH228264   1.359   0.158   2.722 -0.2138 -0.6568 -0.3840
 2210TIP3    H128265   1.372   0.250   2.743 -1.0208 -0.4651 -0.7277
 2210TIP3    H228266   1.370   0.152   2.627  2.3680 -1.3560 -0.1423
 2211TIP3   OH228267   6.285   0.223   0.110 -0.6056 -0.3554  0.3494
 2211TIP3    H128268   6.380   0.227   0.124 -0.6227  0.9686  0.2815
 2211TIP3    H228269   6.248   0.213   0.198 -0.4346  0.4269  0.5211
 2212TIP3   OH228270   5.633   4.539   1.484 -0.2534 -0.4494  0.1977
 2212TIP3    H128271   5.677   4.567   1.565 -0.5151 -0.8754  0.4905
 2212TIP3    H228272   5.686   4.468   1.451  1.7500  1.7922 -1.7998
 2213TIP3   OH228273   3.726   3.666   1.924  0.5046 -0.4268  0.4660
 2213TIP3    H128274   3.660   3.725   1.958  1.2829  0.0696  1.1558
 2213TIP3    H228275   3.776   3.718   1.862  1.2486 -0.3175  1.1410
 2214TIP3   OH228276   2.406   1.831   0.178 -0.3790  0.4433 -0.3314
 2214TIP3    H128277   2.371   1.906   0.130  0.2012  0.2752 -1.0419
 2214TIP3    H228278   2.344   1.817   0.249 -0.9271  1.0932 -0.6682
 2215TIP3   OH228279   5.069   1.934   4.009  0.1301  0.5736 -0.5998
 2215TIP3    H128280   4.978   1.959   4.029  0.8207  1.6192  1.5323
 2215TIP3    H228281   5.065   1.840   3.996 -1.1097  0.4345  0.5545
 2216TIP3   OH228282   4.805   2.894   3.062 -0.1910  0.4866 -0.8457
 2216TIP3    H128283   4.743   2.870   3.131  1.2366  1.1562  0.7273
 2216TIP3    H228284   4.770   2.851   2.983 -1.5663 -0.7783  0.3796
 2217TIP3   OH228285   2.601   1.220   3.378  0.2696  0.3489 -0.0684
 2217TIP3    H128286   2.604   1.128   3.402  1.2527 -0.1462 -1.8947
 2217TIP3    H228287   2.693   1.248   3.376 -0.0339  1.5075  0.8837
 2218TIP3   OH228288   3.740   1.470   8.573 -0.4706 -0.1265  0.1582
 2218TIP3    H128289   3.650   1.458   8.542 -0.1539 -1.0593 -0.4727
 2218TIP3    H228290   3.793   1.447   8.497  0.3320  4.4482 -0.9111
 2219TIP3   OH228291   6.768   2.139   3.975 -0.8479 -0.2373  0.4378
 2219TIP3    H128292   6.774   2.164   3.883 -1.0966  1.5323  0.8684
 2219TIP3    H228293   6.689   2.182   4.006 -1.3957 -1.7494  1.2271
 2220TIP3   OH228294   5.913   6.224   8.346 -0.0332 -0.1803 -0.1139
 2220TIP3    H128295   5.917   6.133   8.316  1.1185  0.2462 -1.3443
 2220TIP3    H228296   5.826   6.232   8.386 -1.0041 -1.2692 -1.8683
 2221TIP3   OH228297   2.289   3.606   3.201  0.0997  0.2450 -0.0467
 2221TIP3    H128298   2.244   3.619   3.118 -0.8765 -1.9628  0.0447
 2221TIP3    H228299   2.380   3.590   3.178  0.4082  2.3339 -0.4334
 2222TIP3   OH228300   1.063   6.424   2.951  0.7031 -0.0373 -0.2770
 2222TIP3    H128301   0.983   6.396   2.907  1.3722 -0.7888 -1.0596
 2222TIP3    H228302   1.054   6.519   2.960 -0.3476 -0.1329 -0.1700
 2223TIP3   OH228303   1.016   2.182   3.644  0.0389  0.3734  0.6730
 2223TIP3    H128304   0.934   2.226   3.664 -0.3220  0.4960 -0.9631
 2223TIP3    H228305   1.084   2.239   3.680 -0.5372  0.7284  1.2111
 2224TIP3   OH228306   6.178   2.151   1.665  0.1233  0.5149  0.1870
 2224TIP3    H128307   6.209   2.077   1.613  0.8063  0.3153  0.8570
 2224TIP3    H228308   6.183   2.226   1.605  0.4362  0.2048 -0.1774
 2225TIP3   OH228309   0.588   6.381   1.574  0.6689  0.3739  0.5369
 2225TIP3    H128310   0.668   6.375   1.627  0.3741  0.2796  0.9810
 2225TIP3    H228311   0.576   6.475   1.558  1.0218  0.3685  0.2260
 2226TIP3   OH228312   0.743   4.768   0.288  0.1760 -0.6158 -0.5674
 2226TIP3    H128313   0.821   4.760   0.344 -0.1061  1.2040  0.1448
 2226TIP3    H228314   0.755   4.851   0.242 -1.1179 -0.5380 -0.7991
 2227TIP3   OH228315   5.582   1.745   3.758 -0.1363 -0.0858 -0.6130
 2227TIP3    H128316   5.532   1.822   3.731 -0.4565 -0.7603 -2.0660
 2227TIP3    H228317   5.652   1.780   3.813 -1.6985  0.9664  0.8106
 2228TIP3   OH228318   3.249   6.009   1.543 -0.0105 -0.2821  0.2521
 2228TIP3    H128319   3.254   6.079   1.607 -0.9068 -1.5071  1.7085
 2228TIP3    H228320   3.294   5.935   1.584 -0.0532 -0.9198 -0.7945
 2229TIP3   OH228321   5.584   2.931   0.256  0.0915  0.0275 -0.1418
 2229TIP3    H128322   5.508   2.908   0.308 -0.3347 -2.0341 -1.5519
 2229TIP3    H228323   5.658   2.891   0.303 -0.2411 -1.4906 -0.8595
 2230TIP3   OH228324   4.173   6.192   0.109 -0.3585 -0.1192 -0.4449
 2230TIP3    H128325   4.156   6.278   0.071 -2.4952  0.7705  2.2069
 2230TIP3    H228326   4.252   6.203   0.161  0.1553 -0.1821 -1.1938
 2231TIP3   OH228327   0.824   6.052   0.953  0.0289  0.4026 -0.0184
 2231TIP3    H128328   0.865   6.062   1.039 -1.1366 -0.3380  0.6372
 2231TIP3    H228329   0.740   6.097   0.961 -0.7736 -1.0060 -0.2675
 2232TIP3   OH228330   3.728   1.956   1.207 -0.0834 -0.4078 -0.2498
 2232TIP3    H128331   3.792   2.015   1.248 -0.2564 -0.3921  0.0028
 2232TIP3    H228332   3.663   1.941   1.276  0.3030 -1.4247 -0.1021
 2233TIP3   OH228333   0.013   0.800   1.473  0.2823  0.3286  0.0056
 2233TIP3    H128334   0.016   0.896   1.472  1.9313  0.3153  0.3805
 2233TIP3    H228335  -0.024   0.776   1.389  2.0178  1.2797 -1.0964
 2234TIP3   OH228336   3.561   6.033   3.307  0.0078 -0.5060  0.5794
 2234TIP3    H128337   3.601   6.088   3.240 -0.2788 -0.5554  0.3630
 2234TIP3    H228338   3.592   6.069   3.390 -1.0513  0.6988  0.4870
 2235TIP3   OH228339   0.961   6.449   2.414 -0.7061 -0.3939  0.5531
 2235TIP3    H128340   0.878   6.440   2.367  0.0893 -0.9350 -0.8199
 2235TIP3    H228341   1.028   6.446   2.345  0.4628 -0.0893  1.6352
 2236TIP3   OH228342   5.728   4.281   3.720 -0.4280 -0.0081  0.3264
 2236TIP3    H128343   5.801   4.248   3.668 -0.9723  0.7175 -0.9515
 2236TIP3    H228344   5.769   4.322   3.796  0.3667 -1.3641  0.6619
 2237TIP3   OH228345   1.041   2.568   2.445  0.0088  0.3102  0.4469
 2237TIP3    H128346   1.069   2.596   2.532 -0.1981 -1.0560  0.9837
 2237TIP3    H228347   1.106   2.502   2.419  0.2750  0.9694 -0.5972
 2238TIP3   OH228348   4.003   1.797   3.218 -0.0671 -0.0938  0.1248
 2238TIP3    H128349   3.950   1.847   3.156 -1.0729 -0.4822  0.6412
 2238TIP3    H228350   4.012   1.854   3.294  0.4038  0.0360 -0.0269
 2239TIP3   OH228351   2.853   1.107   1.003  0.2186  0.1472  0.3647
 2239TIP3    H128352   2.859   1.141   0.914  0.8363 -1.6262 -0.3070
 2239TIP3    H228353   2.924   1.151   1.050 -0.9960  2.1873  0.4135
 2240TIP3   OH228354   4.097   2.348   2.402 -0.6641 -0.0409 -0.0431
 2240TIP3    H128355   4.126   2.414   2.466 -0.0527 -1.4525  1.2085
 2240TIP3    H228356   4.134   2.377   2.319  1.3261  0.1733  0.8525
 2241TIP3   OH228357   5.267   2.921   1.830  0.6781  1.1109 -0.2338
 2241TIP3    H128358   5.313   2.911   1.746  2.8682 -0.8374  1.0756
 2241TIP3    H228359   5.219   2.839   1.841 -1.1765  2.1213 -0.3911
 2242TIP3   OH228360   0.888   6.104   3.105 -0.1454  0.2397 -0.0291
 2242TIP3    H128361   0.876   6.026   3.050  0.5819 -0.0848  0.2533
 2242TIP3    H228362   0.813   6.103   3.165  0.5761 -1.0551  0.9182
 2243TIP3   OH228363   5.426   5.555   3.980 -0.0480 -0.1497  0.1277
 2243TIP3    H128364   5.455   5.464   3.982 -4.0000 -1.5888  0.4148
 2243TIP3    H228365   5.392   5.572   4.068  1.3173  1.9411  0.3323
 2244TIP3   OH228366   4.869   6.615   3.704 -0.1496  0.4122  0.3873
 2244TIP3    H128367   4.876   6.708   3.685  0.2862  0.1288 -0.9526
 2244TIP3    H228368   4.958   6.581   3.693 -0.2175 -0.0987  1.2906
 2245TIP3   OH228369   3.852   0.080   2.437 -0.7994 -0.0345  0.1352
 2245TIP3    H128370   3.835   0.169   2.468 -1.5886  0.7990 -2.4300
 2245TIP3    H228371   3.766   0.039   2.432 -0.5631 -0.5493  0.1929
 2246TIP3   OH228372   3.504   3.032   0.837  0.5882  0.1404 -0.4064
 2246TIP3    H128373   3.513   3.102   0.773  1.5158 -0.6573 -1.1736
 2246TIP3    H228374   3.430   2.980   0.805  0.1618  0.5128 -0.0556
 2247TIP3   OH228375   2.424   3.739   4.364 -0.3415  0.3601  0.1469
 2247TIP3    H128376   2.480   3.692   4.302  0.2616 -0.2694  1.1301
 2247TIP3    H228377   2.407   3.823   4.323  0.9775  0.3919 -0.3806
 2248TIP3   OH228378   6.933   0.797   3.933  0.0508 -0.8675  0.5635
 2248TIP3    H128379   7.015   0.774   3.977 -0.0730  0.0390  1.3034
 2248TIP3    H228380   6.959   0.859   3.865 -0.1947  0.9491  2.0437
 2249TIP3   OH228381   5.505   5.633   0.538  0.6653  0.0031  0.3639
 2249TIP3    H128382   5.577   5.592   0.585  0.7294 -1.3081 -0.8074
 2249TIP3    H228383   5.427   5.612   0.589  0.6755 -1.7855 -0.2809
 2250TIP3   OH228384   6.302   2.203   0.532 -0.2811  0.3809 -0.5437
 2250TIP3    H128385   6.212   2.230   0.514  0.1660  0.9566 -2.0279
 2250TIP3    H228386   6.347   2.285   0.553 -0.2449  0.0033  1.0124
 2251TIP3   OH228387   4.567   2.163   1.671  0.5914  0.3311  0.2677
 2251TIP3    H128388   4.516   2.083   1.659  0.7645  0.4599 -1.6811
 2251TIP3    H228389   4.596   2.160   1.762 -0.4428 -1.1876  0.5843
 2252TIP3   OH228390   3.187   1.228   1.957 -0.1320  0.1719  0.0480
 2252TIP3    H128391   3.254   1.215   1.890  0.2128  2.8168 -0.2227
 2252TIP3    H228392   3.175   1.322   1.961 -0.0704  0.1765  3.8015
 2253TIP3   OH228393   6.758   3.363   2.810  0.1551  0.1313  0.0176
 2253TIP3    H128394   6.683   3.308   2.833  0.2943  0.0791  0.3440
 2253TIP3    H228395   6.781   3.409   2.891  2.0601 -1.7376  0.6320
 2254TIP3   OH228396   4.765   2.513   8.452 -0.2736  0.1214 -0.1720
 2254TIP3    H128397   4.688   2.464   8.423 -0.7838  0.1447  1.0903
 2254TIP3    H228398   4.738   2.554   8.534  0.5760  1.4450 -0.5231
 2255TIP3   OH228399   2.883   1.091   1.680 -0.0902  0.1048  0.6127
 2255TIP3    H128400   2.933   1.011   1.696  0.3516  0.1806 -0.3357
 2255TIP3    H228401   2.868   1.128   1.767  2.6292  0.7795  0.8815
 2256TIP3   OH228402   6.759   5.461   1.039  0.0862 -0.1889 -0.1148
 2256TIP3    H128403   6.725   5.525   0.977 -0.8565  0.9945  1.5358
 2256TIP3    H228404   6.840   5.501   1.071  1.3823 -1.4840 -1.6090
 2257TIP3   OH228405   6.358   4.791   0.945  0.0158  0.5897  0.0207
 2257TIP3    H128406   6.279   4.812   0.994 -0.9514 -1.0299 -0.7413
 2257TIP3    H228407   6.355   4.848   0.869 -1.2689 -0.4908 -0.7856
 2258TIP3   OH228408   3.633   3.879   2.753 -0.3033  0.3947 -0.4100
 2258TIP3    H128409   3.703   3.888   2.818 -1.0241 -0.8353  0.5831
 2258TIP3    H228410   3.679   3.867   2.670  0.6442  1.2003 -0.0267
 2259TIP3   OH228411   4.810   5.225   1.977 -0.3901  0.0100  0.2995
 2259TIP3    H128412   4.887   5.179   1.944 -0.4079  0.2679 -0.0935
 2259TIP3    H228413   4.792   5.293   1.913 -1.7910 -0.9336 -0.3608
 2260TIP3   OH228414   1.990   0.554   3.734 -0.2557  0.3377 -0.4512
 2260TIP3    H128415   1.946   0.636   3.713  1.9720  1.5060 -0.8076
 2260TIP3    H228416   2.023   0.567   3.823  0.3994 -0.0464 -0.6377
 2261TIP3   OH228417   1.692   3.342   0.040  0.2079  0.8095  0.5239
 2261TIP3    H128418   1.729   3.255   0.023 -1.5015 -0.5454  3.1494
 2261TIP3    H228419   1.752   3.382   0.102 -0.8985 -0.0715  2.2287
 2262TIP3   OH228420   1.886   6.379   1.899  0.6449  0.3849  0.4424
 2262TIP3    H128421   1.918   6.374   1.809  0.4935 -1.2549  0.4434
 2262TIP3    H228422   1.960   6.350   1.953  0.4179  0.3966  0.7662
 2263TIP3   OH228423   1.529   1.200   1.365  0.4342 -0.7663 -0.3605
 2263TIP3    H128424   1.551   1.162   1.279  3.4634 -0.4696  0.1562
 2263TIP3    H228425   1.499   1.126   1.417 -1.3268 -0.9702 -1.5980
 2264TIP3   OH228426   5.080   2.349   4.095 -0.1622 -0.0118  0.3528
 2264TIP3    H128427   5.009   2.370   4.034 -1.1940 -4.0242 -0.0832
 2264TIP3    H228428   5.045   2.372   4.181 -0.5901  1.1827 -0.1146
 2265TIP3   OH228429   2.045   2.605   4.181 -0.5261 -0.1663 -0.1217
 2265TIP3    H128430   2.088   2.583   4.263 -0.2099  0.0816 -0.2191
 2265TIP3    H228431   2.047   2.523   4.131  1.3882  0.2445 -0.8078
 2266TIP3   OH228432   1.324   3.551   0.573 -0.0150 -0.0976 -0.4835
 2266TIP3    H128433   1.276   3.634   0.568  0.7483  0.3505 -0.6633
 2266TIP3    H228434   1.409   3.575   0.609  0.7165 -0.5765 -1.8302
 2267TIP3   OH228435   5.518   6.320   2.584  0.5204 -0.7936 -0.2015
 2267TIP3    H128436   5.483   6.248   2.636 -3.0864  0.7039 -0.2554
 2267TIP3    H228437   5.574   6.369   2.645 -0.4306 -1.2911  1.1163
 2268TIP3   OH228438   4.956   4.501   2.274 -0.0088  0.1870  0.8128
 2268TIP3    H128439   4.969   4.591   2.245  0.5238  0.2918  1.3529
 2268TIP3    H228440   4.917   4.457   2.199  2.2610  0.1895 -0.4391
 2269TIP3   OH228441   0.705   2.708   2.695  0.6543  0.2238  0.1290
 2269TIP3    H128442   0.704   2.659   2.613 -0.4781  1.6178 -0.7318
 2269TIP3    H228443   0.793   2.692   2.731  1.2929 -0.1612 -1.5062
 2270TIP3   OH228444   0.963   4.751   0.445 -0.2138 -0.6590  0.0743
 2270TIP3    H128445   0.989   4.664   0.476 -1.9738 -1.2742 -0.0821
 2270TIP3    H228446   0.989   4.810   0.515 -1.1952 -1.6327  1.2973
 2271TIP3   OH228447   5.481   1.425   0.757  0.3680  0.0819  0.2922
 2271TIP3    H128448   5.478   1.357   0.825  2.3513 -0.4673 -0.1012
 2271TIP3    H228449   5.522   1.500   0.799 -0.6887  0.6404  0.3698
 2272TIP3   OH228450   2.914   3.288   2.733 -0.3237 -0.6925 -0.3267
 2272TIP3    H128451   2.945   3.198   2.743  1.6950 -0.0930 -0.5793
 2272TIP3    H228452   2.954   3.335   2.806 -1.7951 -0.0704  0.1147
 2273TIP3   OH228453   3.716   5.866   0.077 -0.1535  0.7655  0.5333
 2273TIP3    H128454   3.667   5.846  -0.003  0.2031  0.3337  0.4127
 2273TIP3    H228455   3.805   5.836   0.057  0.0521  1.1222  0.9112
 2274TIP3   OH228456   1.626   0.842   2.182 -0.4927  0.0234  0.0808
 2274TIP3    H128457   1.696   0.906   2.193  0.7646 -1.1918 -0.5262
 2274TIP3    H228458   1.657   0.764   2.227 -1.1167 -0.7758 -0.8177
 2275TIP3   OH228459   0.967   0.034   8.266  0.2843  0.4927 -0.2257
 2275TIP3    H128460   0.935   0.102   8.206 -0.8425 -0.8674 -1.2460
 2275TIP3    H228461   1.062   0.041   8.261  0.2156  0.5803 -2.0340
 2276TIP3   OH228462   0.869   1.386   1.014 -0.2774  0.3402  0.2799
 2276TIP3    H128463   0.813   1.464   1.022  0.0326  0.5484  0.4460
 2276TIP3    H228464   0.945   1.417   0.965  0.0238  0.2361  0.6749
 2277TIP3   OH228465   2.097   3.175   3.369  0.1402  0.0358  0.7758
 2277TIP3    H128466   2.006   3.147   3.361 -0.0230 -0.2229  2.9710
 2277TIP3    H228467   2.097   3.233   3.445  1.7079  0.5527  0.4035
 2278TIP3   OH228468   2.082   2.344   2.796  0.2581 -0.0979  0.1101
 2278TIP3    H128469   2.139   2.402   2.847  0.2762  0.7393 -0.8416
 2278TIP3    H228470   2.113   2.256   2.817  1.1036  0.2906  0.5399
 2279TIP3   OH228471   3.583   2.414   0.471  0.4975 -0.3287  0.0691
 2279TIP3    H128472   3.618   2.436   0.557 -3.5617 -2.4530  2.5853
 2279TIP3    H228473   3.558   2.498   0.432  2.3794  0.6599  0.9124
 2280TIP3   OH228474   6.825   3.552   1.755 -0.0040 -0.9913 -0.4199
 2280TIP3    H128475   6.802   3.622   1.694  0.7218 -1.2609 -1.0185
 2280TIP3    H228476   6.746   3.499   1.763 -0.1038 -0.9518 -1.1362
 2281TIP3   OH228477   5.654   5.329   1.911  0.0614 -0.0933  0.1752
 2281TIP3    H128478   5.627   5.393   1.846  0.0901  0.3136  0.5586
 2281TIP3    H228479   5.674   5.250   1.861 -0.6443 -0.0161 -0.2322
 2282TIP3   OH228480   4.753   0.088   8.499  0.1066 -0.0999  0.6830
 2282TIP3    H128481   4.736   0.171   8.542  1.0967  1.0382 -1.0024
 2282TIP3    H228482   4.761   0.110   8.406  0.1414 -2.1204  0.1576
 2283TIP3   OH228483   2.756   4.879   1.845 -0.7010  0.1931  0.2184
 2283TIP3    H128484   2.692   4.891   1.914 -0.4152 -3.6303  1.3654
 2283TIP3    H228485   2.837   4.915   1.880 -1.1883  0.8663  0.6651
 2284TIP3   OH228486   3.777   4.520   3.438 -0.0512  0.0428 -0.0868
 2284TIP3    H128487   3.810   4.609   3.450 -1.0070  0.1190  2.6232
 2284TIP3    H228488   3.683   4.532   3.423 -0.4652 -0.5254  1.8528
 2285TIP3   OH228489   1.906   3.735   2.346 -0.0009  0.5170 -0.8126
 2285TIP3    H128490   1.868   3.822   2.343  2.6425  1.8843  1.1794
 2285TIP3    H228491   1.870   3.695   2.425 -1.7453 -0.5493 -2.0892
 2286TIP3   OH228492   0.456   5.181   3.870  0.2637 -0.0524  0.2979
 2286TIP3    H128493   0.434   5.140   3.953  1.0893  0.3066  0.7097
 2286TIP3    H228494   0.551   5.193   3.874  0.4337 -0.6914 -0.9996
 2287TIP3   OH228495   4.909   4.313   1.299 -0.4278  0.6148 -0.4115
 2287TIP3    H128496   4.885   4.221   1.290 -2.3397  0.9315  0.8985
 2287TIP3    H228497   4.966   4.315   1.376  0.3293  0.4298 -0.9580
 2288TIP3   OH228498   2.121   5.322   3.260 -0.0373  0.0954  0.5356
 2288TIP3    H128499   2.133   5.411   3.291  1.1747 -0.8341  2.9572
 2288TIP3    H228500   2.210   5.292   3.238 -0.5144 -0.3185 -0.9906
 2289TIP3   OH228501   3.717   4.106   1.018 -0.1341 -0.0186  0.0780
 2289TIP3    H128502   3.661   4.180   0.996 -0.9578 -0.6626 -0.0418
 2289TIP3    H228503   3.801   4.126   0.976 -1.1389 -0.3801 -2.2339
 2290TIP3   OH228504   3.676   0.901   3.585 -0.2931  0.1256 -0.9818
 2290TIP3    H128505   3.690   0.992   3.560  1.5148 -0.2715 -1.5697
 2290TIP3    H228506   3.675   0.853   3.503 -3.4114 -0.1985 -0.8534
 2291TIP3   OH228507   2.576   4.608   0.355 -0.2722 -0.0767 -0.0566
 2291TIP3    H128508   2.588   4.634   0.446 -1.7391 -1.1888  0.4772
 2291TIP3    H228509   2.491   4.644   0.330  0.6623  1.3279 -1.4303
 2292TIP3   OH228510   5.947   4.505   2.030 -0.3481 -0.4580 -0.1985
 2292TIP3    H128511   5.897   4.542   1.957  1.2722 -0.4132 -1.3481
 2292TIP3    H228512   5.949   4.575   2.095 -0.1375  0.2684 -0.9623
 2293TIP3   OH228513   4.015   5.731   1.785  0.3467  0.1912 -0.7966
 2293TIP3    H128514   4.039   5.792   1.714  2.1909 -0.5308 -0.8450
 2293TIP3    H228515   4.098   5.708   1.826 -0.3353 -1.9918 -0.5216
 2294TIP3   OH228516   3.790   6.671   0.342  0.0279  0.4020 -0.2713
 2294TIP3    H128517   3.809   6.606   0.274 -1.3250 -0.0415 -0.2578
 2294TIP3    H228518   3.703   6.705   0.319  0.9048  2.6058 -0.5721
 2295TIP3   OH228519   0.006   6.614   0.659  0.3794 -0.4719 -0.2120
 2295TIP3    H128520  -0.004   6.632   0.752  0.8442 -1.1080 -0.0298
 2295TIP3    H228521   0.071   6.677   0.628  0.1261 -0.1735 -0.1362
 2296TIP3   OH228522   6.491   3.990   1.650 -0.2908 -0.1919  0.0538
 2296TIP3    H128523   6.538   3.943   1.719 -0.0459 -1.4379 -0.9232
 2296TIP3    H228524   6.488   4.081   1.680  2.0348 -0.2216  0.5181
 2297TIP3   OH228525   2.808   1.392   0.281 -0.1499  0.1480  0.1054
 2297TIP3    H128526   2.787   1.352   0.197 -1.2682 -1.4954  1.0959
 2297TIP3    H228527   2.904   1.401   0.281 -0.0550 -0.7320 -0.9607
 2298TIP3   OH228528   3.156   6.391   4.074 -0.2816  0.0069 -0.1044
 2298TIP3    H128529   3.124   6.308   4.109  1.4410 -0.9193 -0.6241
 2298TIP3    H228530   3.193   6.437   4.149 -0.6393  0.0226  0.0638
 2299TIP3   OH228531   3.381   1.012   3.622  0.4750  0.0483 -0.2501
 2299TIP3    H128532   3.454   0.951   3.625 -0.4934 -1.1644 -0.5758
 2299TIP3    H228533   3.418   1.092   3.584  1.9773 -0.0017  1.0130
 2300TIP3   OH228534   2.960   1.047   2.922  0.7505  0.1060  0.3111
 2300TIP3    H128535   2.903   0.996   2.864  1.6812  1.5492 -2.0177
 2300TIP3    H228536   2.900   1.105   2.969  0.1526  1.1169 -1.5916
 2301TIP3   OH228537   2.936   1.763   0.274 -0.0644 -0.7073 -0.4106
 2301TIP3    H128538   2.851   1.746   0.233  0.1708  1.0543 -1.7764
 2301TIP3    H228539   2.915   1.787   0.364 -0.8662 -1.8095 -0.2913
 2302TIP3   OH228540   0.107   0.686   3.361 -0.8691 -0.0575  0.0420
 2302TIP3    H128541   0.126   0.774   3.327 -3.0592  1.3331  2.0929
 2302TIP3    H228542   0.157   0.682   3.443 -0.9089 -0.6858  0.0401
 2303TIP3   OH228543   5.116   5.824   1.630 -0.2815  0.0024  0.2839
 2303TIP3    H128544   5.085   5.908   1.596  0.2896 -0.1041 -0.5539
 2303TIP3    H228545   5.154   5.845   1.715 -2.1607  0.2079  1.1060
 2304TIP3   OH228546   0.912   0.288   0.918 -0.4489 -0.3471  0.1230
 2304TIP3    H128547   0.822   0.317   0.902  0.1236  0.7542 -1.3555
 2304TIP3    H228548   0.947   0.270   0.830  1.0479  0.1466  0.5807
 2305TIP3   OH228549   2.837   0.004   3.345  0.0992 -0.6015  0.2054
 2305TIP3    H128550   2.819  -0.056   3.418 -1.1300  1.2755  1.5410
 2305TIP3    H228551   2.752   0.017   3.303  0.5117 -0.4202 -0.5964
 2306TIP3   OH228552   1.849   3.256   3.801 -0.2830 -0.0850  0.5588
 2306TIP3    H128553   1.809   3.240   3.886 -1.9122 -0.3985 -0.2214
 2306TIP3    H228554   1.789   3.215   3.739  0.7521  0.3320 -0.7579
 2307TIP3   OH228555   0.511   4.334   3.234  0.0758  0.0335 -0.2522
 2307TIP3    H128556   0.583   4.287   3.193  0.3208 -0.2879  0.5391
 2307TIP3    H228557   0.445   4.343   3.164  0.6067 -0.2412 -0.7915
 2308TIP3   OH228558   3.188   3.270   0.674 -0.3261 -0.1249  0.4694
 2308TIP3    H128559   3.104   3.278   0.718  0.4344 -0.3529  2.0477
 2308TIP3    H228560   3.241   3.341   0.710 -0.9048  2.5633 -3.3139
 2309TIP3   OH228561   4.244   3.488   2.346 -0.3303  0.7607 -0.1671
 2309TIP3    H128562   4.218   3.488   2.438 -1.8622 -0.0422 -0.5687
 2309TIP3    H228563   4.162   3.479   2.298  0.5065  0.4911 -1.6015
 2310TIP3   OH228564   0.048   2.673   3.281  0.4303 -0.4295  0.1512
 2310TIP3    H128565   0.015   2.616   3.211  2.9838 -1.0809 -0.6261
 2310TIP3    H228566   0.030   2.762   3.249 -1.1672 -0.7509  0.1142
 2311TIP3   OH228567   4.569   3.512   0.534 -0.2496 -0.7670  0.1326
 2311TIP3    H128568   4.553   3.561   0.453 -0.0387  0.1468  0.6304
 2311TIP3    H228569   4.658   3.535   0.559 -0.5342 -0.5031  0.9728
 2312TIP3   OH228570   4.678   0.112   0.247 -0.0579 -1.0186  0.1818
 2312TIP3    H128571   4.768   0.118   0.215  0.5538 -1.7765  1.6799
 2312TIP3    H228572   4.672   0.178   0.315 -2.0362  2.2209 -2.7577
 2313TIP3   OH228573   4.209   4.316   0.767  0.3087  0.0351  0.3015
 2313TIP3    H128574   4.122   4.330   0.729  0.9635 -1.7609 -2.1291
 2313TIP3    H228575   4.270   4.336   0.695  1.7328 -2.0698  0.8379
 2314TIP3   OH228576   6.159   1.549   0.754 -0.2923 -0.3266  0.2999
 2314TIP3    H128577   6.071   1.519   0.774 -0.9791  0.8159 -0.9036
 2314TIP3    H228578   6.190   1.590   0.835 -1.0223 -0.3658  0.5994
 2315TIP3   OH228579   5.088   5.925   3.603 -0.5270  0.2536  0.3742
 2315TIP3    H128580   5.003   5.963   3.622  0.4299  1.5464  2.2945
 2315TIP3    H228581   5.067   5.838   3.567 -2.6281  0.5976  0.6140
 2316TIP3   OH228582   0.743   2.841   3.086 -0.2181  0.2874 -0.0298
 2316TIP3    H128583   0.713   2.750   3.075 -1.4450  0.4443  1.5937
 2316TIP3    H228584   0.663   2.893   3.081  0.6671  1.5613 -2.8581
 2317TIP3   OH228585   4.671   3.433   2.873 -0.1271 -0.5141  0.2534
 2317TIP3    H128586   4.719   3.425   2.955 -1.1099 -0.5850  0.8298
 2317TIP3    H228587   4.670   3.344   2.837 -0.5346 -0.6672  0.6428
 2318TIP3   OH228588   1.268   6.051   2.936  0.4390 -0.5588 -0.2975
 2318TIP3    H128589   1.193   6.063   2.993 -0.5829 -1.2157 -1.4647
 2318TIP3    H228590   1.308   5.969   2.965  1.2224  0.2026  0.8564
 2319TIP3   OH228591   4.788   4.803   2.852  0.0694  0.1342  0.9888
 2319TIP3    H128592   4.806   4.766   2.938  1.2182 -0.9093  0.3315
 2319TIP3    H228593   4.862   4.776   2.798 -0.2615  1.3728 -0.1573
 2320TIP3   OH228594   6.546   5.712   2.083 -0.3433 -0.5580 -0.1273
 2320TIP3    H128595   6.581   5.801   2.083 -0.0108 -0.6547  1.3824
 2320TIP3    H228596   6.623   5.656   2.099 -0.6043 -1.0923 -0.7055
 2321TIP3   OH228597   5.740   2.304   3.143  0.5009 -0.0114 -0.4184
 2321TIP3    H128598   5.722   2.320   3.051 -1.3448  0.1057 -0.0786
 2321TIP3    H228599   5.671   2.353   3.189  3.2598  2.7021  1.1745
 2322TIP3   OH228600   3.595   2.143   8.425 -0.0071  0.4981  0.2483
 2322TIP3    H128601   3.542   2.191   8.490  1.0662 -0.1664  1.6579
 2322TIP3    H228602   3.681   2.185   8.429  0.6364 -0.8253  0.7179
 2323TIP3   OH228603   2.011   2.608   0.715  0.5489 -0.0345 -0.3894
 2323TIP3    H128604   1.971   2.646   0.637 -0.0896  0.1705  0.0349
 2323TIP3    H228605   2.033   2.683   0.770  2.3705 -0.0661 -0.9918
 2324TIP3   OH228606   2.632   6.876   2.690  0.4910  0.1831 -0.5050
 2324TIP3    H128607   2.582   6.894   2.770  0.9220 -1.1240  0.0937
 2324TIP3    H228608   2.700   6.815   2.718  1.1508  0.3339 -1.7246
 2325TIP3   OH228609   3.117   1.389   0.361 -0.1325  0.4724  0.1139
 2325TIP3    H128610   3.182   1.340   0.313 -0.0643  1.1186 -0.4677
 2325TIP3    H228611   3.135   1.481   0.340  0.0209  0.7916  1.5105
 2326TIP3   OH228612   6.351   4.105   0.660 -0.0780 -0.2114  0.2378
 2326TIP3    H128613   6.385   4.173   0.719  1.0119  2.9402 -3.6196
 2326TIP3    H228614   6.427   4.049   0.642 -0.4690 -1.3310  1.7840
 2327TIP3   OH228615   4.322   2.232   1.995 -0.3149 -0.5966  0.0036
 2327TIP3    H128616   4.401   2.252   1.946  1.2549 -1.4286  2.0473
 2327TIP3    H228617   4.305   2.140   1.977 -0.0430 -0.7625  0.5643
 2328TIP3   OH228618   5.806   4.182   0.483  0.0942 -0.6412 -0.2082
 2328TIP3    H128619   5.756   4.182   0.564  0.3133 -0.6659 -0.0737
 2328TIP3    H228620   5.750   4.136   0.420 -0.3477 -0.0727 -0.2385
 2329TIP3   OH228621   2.567   3.636   0.535  0.7544 -0.1290  0.1979
 2329TIP3    H128622   2.531   3.725   0.529 -0.5895 -0.4531  2.4746
 2329TIP3    H228623   2.490   3.579   0.540  1.5534 -1.1396  1.8101
 2330TIP3   OH228624   5.098   5.644   2.522 -0.3736  0.1970 -0.1086
 2330TIP3    H128625   5.112   5.635   2.427  1.0300 -1.9379  0.2178
 2330TIP3    H228626   5.151   5.720   2.546  0.5245 -0.1587 -0.8503
 2331TIP3   OH228627   5.830   5.712   3.401 -0.0929  0.3714 -0.2272
 2331TIP3    H128628   5.790   5.736   3.317 -0.5923 -1.6801 -0.6465
 2331TIP3    H228629   5.769   5.745   3.467 -1.1548 -0.4115 -0.7850
 2332TIP3   OH228630   2.820   4.219   1.315 -0.5577  0.2583 -0.0857
 2332TIP3    H128631   2.730   4.192   1.335 -0.5581 -0.2539 -0.7429
 2332TIP3    H228632   2.844   4.276   1.388 -0.8031 -0.9781  0.9979
 2333TIP3   OH228633   6.574   4.588   2.880  0.6542  0.1720 -0.2473
 2333TIP3    H128634   6.645   4.645   2.911  1.7510 -2.2285  2.1050
 2333TIP3    H228635   6.611   4.545   2.803  0.7677  0.7641 -0.5320
 2334TIP3   OH228636   0.014   4.646   0.507 -0.2338 -0.2951 -0.2701
 2334TIP3    H128637  -0.001   4.740   0.501  0.0383 -0.2805 -0.7975
 2334TIP3    H228638  -0.045   4.617   0.576 -0.3893  0.2468 -0.1690
 2335TIP3   OH228639   5.878   0.399   2.073 -0.0021  0.2894  0.6250
 2335TIP3    H128640   5.973   0.404   2.059 -0.1686 -0.3878 -0.9492
 2335TIP3    H228641   5.866   0.322   2.129  0.2502 -1.1137 -1.1444
 2336TIP3   OH228642   1.708   4.821   2.424 -1.4803  0.3398 -0.3928
 2336TIP3    H128643   1.799   4.795   2.440 -1.2308  1.4130  0.0277
 2336TIP3    H228644   1.662   4.798   2.504 -1.4247  0.4871 -0.3191
 2337TIP3   OH228645   5.663   4.359   3.304 -0.0816  0.6235  0.1515
 2337TIP3    H128646   5.747   4.351   3.259 -0.1496 -0.2838  0.1701
 2337TIP3    H228647   5.625   4.439   3.270  0.5992  0.8153 -0.1780
 2338TIP3   OH228648   0.190   6.387   2.630 -0.0583 -0.1762 -0.2278
 2338TIP3    H128649   0.232   6.331   2.564 -2.3974 -1.6079 -0.6016
 2338TIP3    H228650   0.163   6.327   2.699 -0.9169  0.7775  0.2986
 2339TIP3   OH228651   2.716   3.313   2.341 -0.0847  0.6369 -1.1406
 2339TIP3    H128652   2.804   3.339   2.314  0.5620  0.0268  0.3051
 2339TIP3    H228653   2.722   3.219   2.357 -0.8185  0.7066 -0.3849
 2340TIP3   OH228654   6.346   0.072   1.430 -0.1746  0.2217 -0.0033
 2340TIP3    H128655   6.281   0.049   1.496 -1.1349  2.2996 -0.1585
 2340TIP3    H228656   6.370   0.163   1.451  0.5700  0.4373 -1.6473
 2341TIP3   OH228657   2.187   6.921   4.286 -0.5122 -0.0188 -0.1179
 2341TIP3    H128658   2.153   6.855   4.225 -0.0151 -0.2836 -0.1124
 2341TIP3    H228659   2.117   6.933   4.350  0.2974 -2.4042  1.3524
 2342TIP3   OH228660   5.623   5.436   3.211 -0.1723  0.1765 -0.1610
 2342TIP3    H128661   5.562   5.477   3.272 -1.3096 -3.1542  1.1556
 2342TIP3    H228662   5.694   5.405   3.267  0.4711  0.0145 -1.0518
 2343TIP3   OH228663   2.468   4.768   0.142  0.4789  0.2083 -0.5553
 2343TIP3    H128664   2.542   4.707   0.138 -0.7112 -1.3697  0.1858
 2343TIP3    H228665   2.419   4.751   0.062  0.6400  0.8883 -0.8024
 2344TIP3   OH228666   3.131   6.848   3.533 -0.2181  0.1215  0.0753
 2344TIP3    H128667   3.090   6.934   3.523 -1.0378 -0.3647 -0.9680
 2344TIP3    H228668   3.130   6.832   3.627  1.2402  1.8378  0.4591
 2345TIP3   OH228669   5.208   4.555   4.321  0.3261 -0.5513  0.2239
 2345TIP3    H128670   5.195   4.637   4.369 -0.7002  0.4449 -1.6481
 2345TIP3    H228671   5.299   4.556   4.294 -0.2820  1.3275 -2.0312
 2346TIP3   OH228672   0.855   5.710   1.680 -0.0044  0.2547  0.0170
 2346TIP3    H128673   0.832   5.748   1.765  1.2158  0.2176  0.3819
 2346TIP3    H228674   0.861   5.616   1.697  2.1955  0.4066  0.4112
 2347TIP3   OH228675   2.846   4.257   3.997 -0.1774 -0.5643 -0.0362
 2347TIP3    H128676   2.800   4.209   3.928  0.3523 -0.9968 -0.0978
 2347TIP3    H228677   2.914   4.196   4.027 -0.7022 -0.5705  1.2034
 2348TIP3   OH228678   5.336   1.160   0.326  0.0188  0.5190 -0.1155
 2348TIP3    H128679   5.245   1.174   0.355 -0.3823 -1.6174 -0.1636
 2348TIP3    H228680   5.389   1.196   0.397 -0.9314 -1.2624  1.6242
 2349TIP3   OH228681   0.255   4.204   0.440 -0.3433 -0.4828  0.3109
 2349TIP3    H128682   0.196   4.195   0.365 -0.7258  0.5853  0.4652
 2349TIP3    H228683   0.249   4.297   0.464  0.2393 -0.6846  1.2830
 2350TIP3   OH228684   1.802   3.524   8.053  0.4736 -0.0546 -0.3966
 2350TIP3    H128685   1.827   3.461   8.121  0.6860 -1.7478 -1.9639
 2350TIP3    H228686   1.708   3.508   8.040  0.2576  0.8276  0.0520
 2351TIP3   OH228687   5.154   5.331   1.812  0.3082  0.1207  0.1511
 2351TIP3    H128688   5.090   5.268   1.780 -0.6565  1.3995 -0.4952
 2351TIP3    H228689   5.238   5.299   1.778 -0.3979  0.1925 -1.7702
 2352TIP3   OH228690   1.733   1.133   2.259  0.1162 -0.4616 -0.4353
 2352TIP3    H128691   1.799   1.065   2.271 -1.5054 -2.6253 -2.7865
 2352TIP3    H228692   1.663   1.110   2.321  0.1406 -0.1117 -0.2739
 2353TIP3   OH228693   2.997   5.051   1.936 -0.3470  0.0473 -0.1600
 2353TIP3    H128694   3.005   5.120   1.870 -0.5537  0.2986  0.0791
 2353TIP3    H228695   3.010   5.096   2.020  0.1142 -0.3029 -0.0355
 2354TIP3   OH228696   6.257   4.523   1.192 -0.2502  0.1856  0.4017
 2354TIP3    H128697   6.228   4.522   1.100  0.5439  0.0825  0.1501
 2354TIP3    H228698   6.227   4.608   1.225  1.9952  1.5407 -0.7872
 2355TIP3   OH228699   2.812   3.617   2.534  0.2016  0.5288  0.1049
 2355TIP3    H128700   2.899   3.654   2.523  0.6395 -0.7041 -0.8653
 2355TIP3    H228701   2.817   3.563   2.613  0.5097 -0.0283 -0.2890
 2356TIP3   OH228702   3.132   2.658   2.349 -0.5029  0.4133 -0.0778
 2356TIP3    H128703   3.177   2.738   2.322 -0.6027 -0.0936 -1.8808
 2356TIP3    H228704   3.141   2.599   2.274 -0.5941 -1.2081  1.1302
 2357TIP3   OH228705   4.908   0.893   8.371 -0.5051  0.2449  0.3426
 2357TIP3    H128706   5.001   0.915   8.376 -0.2171 -1.1616  2.7348
 2357TIP3    H228707   4.906   0.803   8.340 -1.1773  0.6272 -0.7999
 2358TIP3   OH228708   4.286   2.608   0.926  0.6166 -0.7275 -0.1636
 2358TIP3    H128709   4.211   2.651   0.887 -0.8731 -2.0642  1.1026
 2358TIP3    H228710   4.361   2.659   0.895 -0.8096  0.9562 -1.0482
 2359TIP3   OH228711   3.207   0.865   0.936 -0.3733  0.3815  0.5795
 2359TIP3    H128712   3.262   0.904   1.004  0.3798  0.2629  0.0509
 2359TIP3    H228713   3.223   0.771   0.944 -0.9883  0.2909  0.8280
 2360TIP3   OH228714   2.157   4.574   2.125  0.4099  0.0199 -0.7016
 2360TIP3    H128715   2.141   4.645   2.062  1.5280  3.1831  2.2422
 2360TIP3    H228716   2.252   4.561   2.122  0.5677  0.6655  0.6680
 2361TIP3   OH228717   3.726   1.958   2.772 -0.5258 -0.1185 -0.0323
 2361TIP3    H128718   3.662   1.888   2.761  1.5599 -1.9059 -1.7237
 2361TIP3    H228719   3.730   2.002   2.687 -0.0392  0.4689  0.2804
 2362TIP3   OH228720   6.180   3.893   3.110  0.7014 -0.2183 -0.8961
 2362TIP3    H128721   6.152   3.827   3.046 -1.1851 -0.0480 -0.3117
 2362TIP3    H228722   6.117   3.965   3.099  1.5206  0.6383 -0.1605
 2363TIP3   OH228723   3.663   5.454   2.089  0.0217  0.0615  0.1845
 2363TIP3    H128724   3.662   5.378   2.147 -0.9589  0.3655  0.5768
 2363TIP3    H228725   3.590   5.440   2.029  0.6218  0.0793 -0.5650
 2364TIP3   OH228726   6.590   4.684   3.312 -0.1614 -0.1438  0.4197
 2364TIP3    H128727   6.666   4.658   3.365  0.1737  1.1009  0.5926
 2364TIP3    H228728   6.605   4.643   3.227  0.3936 -0.4065  0.6383
 2365TIP3   OH228729   3.589   0.963   3.135  0.1898 -0.0239 -0.9191
 2365TIP3    H128730   3.616   0.980   3.045  1.1909  1.5428 -0.3736
 2365TIP3    H228731   3.665   0.985   3.188 -0.1353 -1.6079  0.2957
 2366TIP3   OH228732   4.641   5.685   0.395  0.1700 -0.3615  0.3456
 2366TIP3    H128733   4.553   5.696   0.431 -1.1386  2.4301 -3.1858
 2366TIP3    H228734   4.632   5.616   0.329  0.0082  1.3446 -1.4952
 2367TIP3   OH228735   0.676   2.024   3.289  0.3883 -0.4737 -0.3977
 2367TIP3    H128736   0.690   2.105   3.337  0.0424  0.1988 -1.3991
 2367TIP3    H228737   0.712   1.956   3.346  1.0467  0.4153  0.2800
 2368TIP3   OH228738   4.219   2.852   8.317  0.2081 -0.2418 -0.8092
 2368TIP3    H128739   4.137   2.842   8.365  0.2830 -0.8202 -0.7970
 2368TIP3    H228740   4.222   2.945   8.294  0.2308  0.0738  0.4030
 2369TIP3   OH228741   5.802   4.327   1.497 -0.5956 -0.3183 -0.1244
 2369TIP3    H128742   5.770   4.275   1.423 -2.5929 -0.0634  0.5065
 2369TIP3    H228743   5.823   4.263   1.565 -2.4621 -0.3941  0.4312
 2370TIP3   OH228744   6.638   4.409   2.421 -0.0354 -0.2423  0.0168
 2370TIP3    H128745   6.586   4.445   2.493 -0.7837  0.3925 -0.8164
 2370TIP3    H228746   6.666   4.323   2.452 -0.2250  0.0753  1.1150
 2371TIP3   OH228747   2.913   1.473   1.759 -0.6595  0.1789  0.1915
 2371TIP3    H128748   2.908   1.387   1.801 -0.0576 -0.3577 -0.8024
 2371TIP3    H228749   2.885   1.457   1.668  2.2194  0.4056 -0.8483
 2372TIP3   OH228750   6.676   0.937   1.232 -0.0271 -0.2562 -0.1751
 2372TIP3    H128751   6.732   0.931   1.155  0.9523  0.8460  0.4306
 2372TIP3    H228752   6.687   1.027   1.263 -1.1347 -0.4048  0.7184
 2373TIP3   OH228753   3.144   2.468   8.537  0.2099  0.1318  0.0666
 2373TIP3    H128754   3.156   2.374   8.523  2.7517  0.5141 -0.6872
 2373TIP3    H228755   3.232   2.504   8.536 -0.7939  2.9469 -2.6364
 2374TIP3   OH228756   1.030   6.656   8.557 -0.6130 -0.1958 -0.4606
 2374TIP3    H128757   1.096   6.620   8.498 -0.2452  0.1338 -0.2456
 2374TIP3    H228758   0.956   6.595   8.549 -0.4507 -0.3246 -1.0263
 2375TIP3   OH228759   5.983   0.761   0.636 -0.2220 -0.0246 -0.1015
 2375TIP3    H128760   5.993   0.856   0.641  1.4482 -0.1924  0.5725
 2375TIP3    H228761   5.891   0.747   0.615 -0.3813  1.7534 -0.7710
 2376TIP3   OH228762   0.154   6.168   2.796 -0.0858  0.1509 -0.0146
 2376TIP3    H128763   0.070   6.128   2.819  0.2107  0.0204  0.8828
 2376TIP3    H228764   0.189   6.200   2.879  0.4746  0.7488 -0.4706
 2377TIP3   OH228765   1.266   4.837   0.921 -0.3313 -0.2171  0.3147
 2377TIP3    H128766   1.185   4.887   0.931 -0.3710 -0.0189 -0.8699
 2377TIP3    H228767   1.242   4.747   0.945 -1.5839 -0.6895 -2.3354
 2378TIP3   OH228768   4.595   4.994   3.468 -0.3510 -0.3870  0.3990
 2378TIP3    H128769   4.590   5.078   3.512 -0.7401 -0.0565 -0.2619
 2378TIP3    H228770   4.563   4.931   3.534 -3.8325  0.4328 -0.2742
 2379TIP3   OH228771   2.354   5.923   2.079  0.2260  0.2023  0.0017
 2379TIP3    H128772   2.404   5.908   1.999 -1.1693 -1.7628 -0.5766
 2379TIP3    H228773   2.378   5.849   2.136 -0.8240  0.0925  0.3211
 2380TIP3   OH228774   6.019   3.460   1.908 -0.0764 -0.1050 -0.2203
 2380TIP3    H128775   6.047   3.387   1.964  1.7382  0.9113  0.2813
 2380TIP3    H228776   5.994   3.529   1.969  0.5104  0.5027 -0.6476
 2381TIP3   OH228777   6.782   0.073   2.690 -0.4551  0.4708 -0.1385
 2381TIP3    H128778   6.776   0.074   2.595 -2.3843  0.1170 -0.0523
 2381TIP3    H228779   6.871   0.104   2.709  0.3022 -0.3571 -2.0638
 2382TIP3   OH228780   5.667   6.387   1.945  0.4065  0.2054 -0.1012
 2382TIP3    H128781   5.676   6.308   1.998 -0.2696 -0.4189 -0.9012
 2382TIP3    H228782   5.753   6.400   1.906 -0.2126 -1.9404 -2.4360
 2383TIP3   OH228783   3.087   3.171   3.661 -0.5557  0.5018  0.0146
 2383TIP3    H128784   3.112   3.083   3.689  0.5715  0.9660  0.5099
 2383TIP3    H228785   3.170   3.217   3.647 -1.1072  1.0044 -1.8497
 2384TIP3   OH228786   6.180   6.903   3.853 -0.7264 -0.4052  0.0849
 2384TIP3    H128787   6.227   6.936   3.777 -1.5681  0.1017 -0.2276
 2384TIP3    H228788   6.087   6.910   3.829 -0.9815 -0.9543  0.8616
 2385TIP3   OH228789   0.448   4.661   1.211 -0.1759  0.0688  0.1504
 2385TIP3    H128790   0.464   4.695   1.123 -0.3375  0.4774  0.2766
 2385TIP3    H228791   0.360   4.624   1.207 -0.2939  0.3412  0.2161
 2386TIP3   OH228792   6.650   4.028   3.717 -0.5176 -0.1417 -0.3020
 2386TIP3    H128793   6.597   3.975   3.657  1.9620 -1.5008 -1.4841
 2386TIP3    H228794   6.701   4.086   3.659 -1.6449  2.1171  0.8621
 2387TIP3   OH228795   1.725   2.918   3.688  0.3403  0.4033 -0.3919
 2387TIP3    H128796   1.784   2.844   3.702  0.2110  0.3299 -0.2377
 2387TIP3    H228797   1.640   2.889   3.722 -0.1777 -0.0609 -1.9637
 2388TIP3   OH228798   2.257   1.703   0.366  0.7716  0.5086 -0.9593
 2388TIP3    H128799   2.305   1.687   0.448 -0.3543 -1.0379 -0.5669
 2388TIP3    H228800   2.261   1.620   0.319  0.3306  1.0196 -1.9195
 2389TIP3   OH228801   4.785   3.780   8.380 -0.3454 -0.7349 -0.0591
 2389TIP3    H128802   4.804   3.686   8.376 -1.1318 -1.0849  2.4114
 2389TIP3    H228803   4.791   3.801   8.473 -4.8260  0.5901  0.1549
 2390TIP3   OH228804   5.198   2.081   2.242  0.1009  0.3806 -0.2942
 2390TIP3    H128805   5.248   2.010   2.283 -0.3706 -0.0521 -0.4605
 2390TIP3    H228806   5.181   2.050   2.153  0.0488  0.7814 -0.4259
 2391TIP3   OH228807   2.407   3.756   1.246 -0.3092  0.5253  0.1708
 2391TIP3    H128808   2.321   3.777   1.284  0.3227  2.8538  0.4645
 2391TIP3    H228809   2.423   3.827   1.184  0.5656 -0.9557 -1.3601
 2392TIP3   OH228810   2.453   3.925   0.995 -0.9328  0.7828  0.2996
 2392TIP3    H128811   2.519   3.994   0.995 -0.9200  0.8341  2.3065
 2392TIP3    H228812   2.500   3.848   0.963 -0.2703  1.1341  0.4098
 2393TIP3   OH228813   4.197   2.036   2.959  0.2963  0.4677  0.2021
 2393TIP3    H128814   4.114   2.030   3.007 -0.8349  1.7014 -1.4600
 2393TIP3    H228815   4.207   2.129   2.940  1.5503  0.2058 -0.5099
 2394TIP3   OH228816   2.910   2.006   3.277  0.6445  0.3349 -0.1505
 2394TIP3    H128817   2.835   2.037   3.226  0.4646 -0.8775 -0.6466
 2394TIP3    H228818   2.909   1.911   3.266  2.1287  0.2805  0.0123
 2395TIP3   OH228819   0.458   6.668   1.861  0.3972  0.5048  0.6386
 2395TIP3    H128820   0.502   6.614   1.927 -0.9795 -1.7252 -0.1384
 2395TIP3    H228821   0.416   6.737   1.912  2.0615  0.7812  1.7102
 2396TIP3   OH228822   0.819   6.700   0.571 -0.3441  0.0157  0.6070
 2396TIP3    H128823   0.853   6.648   0.644 -0.6745 -2.4690 -0.8653
 2396TIP3    H228824   0.726   6.712   0.592 -0.7646 -1.8882  0.0328
 2397TIP3   OH228825   3.145   2.584   0.373  0.2741 -0.3484 -0.2752
 2397TIP3    H128826   3.105   2.575   0.286  0.4658  1.8342 -0.6454
 2397TIP3    H228827   3.178   2.497   0.393 -1.0061 -1.2344 -1.7715
 2398TIP3   OH228828   2.712   6.228   8.239  0.2856  0.0491  0.0472
 2398TIP3    H128829   2.751   6.144   8.261 -1.1102 -0.4425  0.8116
 2398TIP3    H228830   2.622   6.221   8.271  0.0154  1.6718 -0.2796
 2399TIP3   OH228831   0.116   3.252   8.576 -0.3368 -0.2945 -0.2535
 2399TIP3    H128832   0.079   3.251   8.665 -0.8469 -1.3154 -0.4604
 2399TIP3    H228833   0.119   3.345   8.552 -0.8414 -0.0565  0.5631
 2400TIP3   OH228834   5.964   3.866   1.522 -0.1819 -0.0350 -0.3465
 2400TIP3    H128835   5.901   3.892   1.455 -0.9045 -1.1770 -0.1338
 2400TIP3    H228836   6.036   3.827   1.473  0.0593  0.6722 -0.5552
 2401TIP3   OH228837   1.807   3.886   0.480 -0.5061 -0.3998  0.0302
 2401TIP3    H128838   1.857   3.922   0.407 -1.3359  0.8148  0.0396
 2401TIP3    H228839   1.716   3.891   0.453 -0.9250  1.1154  1.5565
 2402TIP3   OH228840   6.584   3.027   1.345 -0.3922  0.0570  0.7626
 2402TIP3    H128841   6.491   3.004   1.355 -0.4886 -0.3345 -0.6823
 2402TIP3    H228842   6.606   3.076   1.424 -1.2087 -1.7897  2.2173
 2403TIP3   OH228843   4.709   4.148   2.320 -0.0030  0.7770 -0.7788
 2403TIP3    H128844   4.801   4.121   2.312 -0.2086 -0.5938  1.0203
 2403TIP3    H228845   4.660   4.081   2.273 -0.3558 -0.9835  1.9281
 2404TIP3   OH228846   6.506   1.692   1.128 -0.3712  0.0679  0.0015
 2404TIP3    H128847   6.533   1.780   1.102 -0.7896  0.0811 -0.3943
 2404TIP3    H228848   6.516   1.691   1.224  1.1139  0.0416 -0.1343
 2405TIP3   OH228849   3.331   0.712   3.732  0.4802  0.5515 -0.4101
 2405TIP3    H128850   3.348   0.777   3.800 -0.7145  0.6017 -0.1470
 2405TIP3    H228851   3.354   0.628   3.773 -0.4217  0.5625  0.1247
 2406TIP3   OH228852   0.682   5.085   1.174 -0.0226  0.0006 -0.2045
 2406TIP3    H128853   0.635   5.029   1.112  1.8602 -2.5279  0.4694
 2406TIP3    H228854   0.721   5.024   1.237  0.9522  2.2252  1.4867
 2407TIP3   OH228855   3.043   2.013   2.621  0.2414  0.5246 -0.7030
 2407TIP3    H128856   3.110   1.982   2.682  1.3781  2.6973 -0.7364
 2407TIP3    H228857   2.967   1.959   2.640  1.3442 -0.5803  0.8648
 2408TIP3   OH228858   2.053   3.361   0.855  0.2703 -0.7456  0.0488
 2408TIP3    H128859   1.984   3.296   0.868 -1.2914  0.8698  0.1234
 2408TIP3    H228860   2.040   3.394   0.766  0.5070  0.0534  0.3007
 2409TIP3   OH228861   6.619   2.725   4.073 -0.4949 -0.0468  0.0562
 2409TIP3    H128862   6.631   2.787   4.001  0.3520  0.1946  0.3982
 2409TIP3    H228863   6.680   2.654   4.054 -1.5344 -0.8459 -0.3879
 2410TIP3   OH228864   5.486   4.991   3.325  0.5034 -0.2848 -0.5122
 2410TIP3    H128865   5.431   4.916   3.348  1.4429 -1.2867 -1.4584
 2410TIP3    H228866   5.505   4.980   3.232  0.8551  1.0176 -0.6218
 2411TIP3   OH228867   6.041   0.526   2.553 -0.1830 -0.5116 -0.0649
 2411TIP3    H128868   6.035   0.599   2.615 -1.0018  0.5015 -1.2699
 2411TIP3    H228869   6.041   0.448   2.607 -2.3198  0.2681  1.1748
 2412TIP3   OH228870   5.860   3.725   1.955 -0.5607 -0.0702  0.0820
 2412TIP3    H128871   5.927   3.759   2.014  0.5537  0.1406 -1.2590
 2412TIP3    H228872   5.778   3.761   1.989  0.0685  0.1682  1.3969
 2413TIP3   OH228873   4.315   2.688   0.460  0.0457 -0.2949 -0.8387
 2413TIP3    H128874   4.363   2.647   0.388 -0.5726  0.4002 -1.6672
 2413TIP3    H228875   4.227   2.702   0.425  0.1073  1.2880 -0.4117
 2414TIP3   OH228876   0.104   1.410   8.052 -0.1892 -0.0465 -0.1168
 2414TIP3    H128877   0.191   1.411   8.012 -0.7511  1.5903 -1.4293
 2414TIP3    H228878   0.060   1.333   8.014  1.5210 -2.6089  2.6929
 2415TIP3   OH228879   1.846   2.824   8.373 -0.2302  0.0899  0.2465
 2415TIP3    H128880   1.792   2.770   8.431  0.5938  0.2414  1.1742
 2415TIP3    H228881   1.783   2.884   8.332 -0.5304  2.2201  3.4584
 2416TIP3   OH228882   4.311   3.559   8.162  0.4507 -0.2676 -0.0711
 2416TIP3    H128883   4.252   3.483   8.166  0.2890 -0.1575 -0.3023
 2416TIP3    H228884   4.387   3.527   8.115  0.3829 -0.2885 -0.1678
 2417TIP3   OH228885   4.050   6.653   2.401 -0.0580 -0.1479 -0.5399
 2417TIP3    H128886   3.984   6.592   2.435 -1.8638  2.1620  0.3799
 2417TIP3    H228887   4.117   6.656   2.470  0.0861 -1.1097 -0.6251
 2418TIP3   OH228888   5.078   0.116   3.092  0.8258  0.4388 -0.0138
 2418TIP3    H128889   5.011   0.079   3.035 -0.2887 -0.5126  1.7923
 2418TIP3    H228890   5.115   0.040   3.137  1.7081  1.1463  0.4844
 2419TIP3   OH228891   1.642   2.872   1.335 -0.0072 -0.2674  0.2228
 2419TIP3    H128892   1.643   2.929   1.258  0.0877  4.0784  3.1007
 2419TIP3    H228893   1.734   2.863   1.360 -0.1038 -0.8078  0.4045
 2420TIP3   OH228894   3.950   1.669   2.185  0.0261 -0.0604  0.5441
 2420TIP3    H128895   3.966   1.653   2.278  1.2511 -0.9634  0.1911
 2420TIP3    H228896   4.037   1.681   2.147 -0.4781  0.6338 -0.4383
 2421TIP3   OH228897   5.381   0.129   1.620  0.4097  0.2165  0.7315
 2421TIP3    H128898   5.472   0.111   1.596  0.7538  0.6297  1.6881
 2421TIP3    H228899   5.366   0.219   1.592 -0.4622 -0.5777 -1.5612
 2422TIP3   OH228900   6.150   3.340   0.577  0.2312 -0.3275  0.1380
 2422TIP3    H128901   6.085   3.392   0.625  1.6798 -0.8121  2.8116
 2422TIP3    H228902   6.192   3.402   0.518 -1.1822  0.4393 -0.1251
 2423TIP3   OH228903   0.426   2.993   3.472  0.3076 -0.7821 -0.1619
 2423TIP3    H128904   0.479   3.060   3.429  0.7836 -0.3195  1.1027
 2423TIP3    H228905   0.443   3.005   3.566 -0.6677 -1.7806  0.1661
 2424TIP3   OH228906   2.232   4.654   1.424  0.0911 -0.2677 -0.0763
 2424TIP3    H128907   2.192   4.676   1.340  0.1147  0.9942  0.2180
 2424TIP3    H228908   2.326   4.665   1.410  0.1442 -0.6905 -0.0603
 2425TIP3   OH228909   3.735   3.259   0.291  0.0017  0.2099 -0.0205
 2425TIP3    H128910   3.741   3.256   0.195  1.8852  0.4535  0.0573
 2425TIP3    H228911   3.785   3.183   0.320  0.0416  0.5435  0.7963
 2426TIP3   OH228912   5.945   0.123   1.787 -0.2034  0.5582 -0.1611
 2426TIP3    H128913   5.963   0.040   1.743  2.6095  0.6395  0.6536
 2426TIP3    H228914   5.896   0.098   1.866  2.9995 -0.7962  1.5636
 2427TIP3   OH228915   1.487   2.952   3.486  0.1527 -0.1523 -0.4649
 2427TIP3    H128916   1.496   2.960   3.581  0.4496 -0.0709 -0.4973
 2427TIP3    H228917   1.517   3.036   3.452  0.2811 -0.2681 -0.6416
 2428TIP3   OH228918   2.153   3.225   1.600  0.2549  0.2967 -0.0310
 2428TIP3    H128919   2.205   3.166   1.655 -0.3278 -0.6012 -0.4106
 2428TIP3    H228920   2.138   3.302   1.655 -1.3130 -1.0556  1.5566
 2429TIP3   OH228921   2.322   0.194   0.958  0.0907  0.0187 -0.1502
 2429TIP3    H128922   2.356   0.142   1.030  1.1333 -2.1105 -2.0500
 2429TIP3    H228923   2.234   0.220   0.986  0.8780  0.2833  2.3020
 2430TIP3   OH228924   2.084   4.558   0.123 -0.4934 -0.1757 -0.4015
 2430TIP3    H128925   2.103   4.498   0.051  0.4080  0.4471 -0.7076
 2430TIP3    H228926   2.094   4.645   0.085 -2.3560  0.1996 -0.1149
 2431TIP3   OH228927   6.441   3.761   0.443  0.3995 -0.0416 -0.4961
 2431TIP3    H128928   6.420   3.846   0.403  1.9083  0.1654 -0.9096
 2431TIP3    H228929   6.442   3.779   0.537  0.5589  0.3720 -0.5723
 2432TIP3   OH228930   0.186   0.733   0.737  0.5992 -0.5032 -0.7989
 2432TIP3    H128931   0.138   0.808   0.704 -0.0360 -0.5586 -0.0200
 2432TIP3    H228932   0.275   0.766   0.753  0.4052  0.0025 -0.7504
 2433TIP3   OH228933   4.456   2.818   3.649  0.2161 -0.2351  0.1136
 2433TIP3    H128934   4.493   2.900   3.617 -0.1674 -0.2206 -0.2957
 2433TIP3    H228935   4.428   2.771   3.570 -1.2794  0.0573  0.4475
 2434TIP3   OH228936   6.493   6.177   0.679 -0.3488 -0.0613 -0.1267
 2434TIP3    H128937   6.408   6.134   0.665 -0.3104 -0.0661 -0.3487
 2434TIP3    H228938   6.512   6.220   0.596  0.2726 -0.7636 -0.3582
 2435TIP3   OH228939   1.872   2.833   2.426 -0.0049 -0.0394 -0.0766
 2435TIP3    H128940   1.913   2.920   2.420  0.4728 -0.0196  2.4449
 2435TIP3    H228941   1.937   2.778   2.469 -1.6413 -0.6219  1.8552
 2436TIP3   OH228942   1.474   2.395   2.327  0.1887 -0.5126  0.2644
 2436TIP3    H128943   1.522   2.326   2.373  1.6574  0.4978  0.3292
 2436TIP3    H228944   1.382   2.369   2.334  0.4097 -0.9222  2.9215
 2437TIP3   OH228945   0.340   2.812   3.293 -0.4258 -0.1813 -0.8476
 2437TIP3    H128946   0.245   2.797   3.290 -0.2974 -1.2110 -0.3901
 2437TIP3    H228947   0.352   2.875   3.363 -0.5470 -2.5543  1.4645
 2438TIP3   OH228948   1.340   4.701   0.099  0.5250 -0.0035 -0.1104
 2438TIP3    H128949   1.413   4.644   0.074  0.2894 -1.1100  1.5955
 2438TIP3    H228950   1.368   4.788   0.069  0.7752 -0.9765 -2.9835
 2439TIP3   OH228951   3.029   0.207   3.253  0.0341 -0.1565  0.2126
 2439TIP3    H128952   2.999   0.132   3.304 -0.3561  0.1661  0.4624
 2439TIP3    H228953   2.949   0.251   3.226  0.1146 -1.5196 -2.5435
 2440TIP3   OH228954   1.181   1.108   2.876 -0.5770  0.3847  0.5944
 2440TIP3    H128955   1.149   1.018   2.872  1.5486 -0.4479  0.6510
 2440TIP3    H228956   1.122   1.157   2.819 -0.6837 -1.4370 -0.9699
 2441TIP3   OH228957   3.792   5.025   1.956  0.0475 -0.0003 -0.7828
 2441TIP3    H128958   3.857   5.034   1.886  1.5244  0.5078  0.5923
 2441TIP3    H228959   3.721   5.084   1.930  1.9219  2.5978 -0.4369
 2442TIP3   OH228960   6.355   2.512   0.855 -0.1728  0.0410  0.4755
 2442TIP3    H128961   6.306   2.569   0.795 -2.1854 -2.2758 -0.2179
 2442TIP3    H228962   6.398   2.448   0.798  0.3146 -0.4273  1.3453
 2443TIP3   OH228963   0.130   0.537   3.147  0.0394  0.2891  0.6669
 2443TIP3    H128964   0.168   0.593   3.080 -0.3899 -0.6495 -0.3887
 2443TIP3    H228965   0.128   0.592   3.226  1.8486  0.9571  0.2935
 2444TIP3   OH228966   4.019   4.629   0.301 -0.2004 -0.2618  1.0164
 2444TIP3    H128967   4.045   4.558   0.360 -2.5406 -2.0750  0.0489
 2444TIP3    H228968   3.984   4.583   0.224  0.4783  1.9995 -0.7558
 2445TIP3   OH228969   4.105   0.104   3.094  0.3884 -0.3641  0.2723
 2445TIP3    H128970   4.050   0.027   3.081 -0.9561  0.5406  0.4647
 2445TIP3    H228971   4.119   0.109   3.188 -3.1055  1.9223  0.8757
 2446TIP3   OH228972   0.706   6.896   8.341  0.5359 -0.2697  0.0071
 2446TIP3    H128973   0.685   6.948   8.264 -0.9026 -0.7983  0.0031
 2446TIP3    H228974   0.798   6.872   8.330  0.7120  0.7565 -0.8727
 2447TIP3   OH228975   2.549   1.889   8.026 -0.2681  0.8550  0.1815
 2447TIP3    H128976   2.523   1.973   7.988  1.4461  0.0596 -3.1028
 2447TIP3    H228977   2.520   1.824   7.963  0.2792 -0.8874  1.6411
 2448TIP3   OH228978   2.910   2.838   2.582 -0.2958 -0.5962 -0.3096
 2448TIP3    H128979   2.984   2.787   2.548  0.2939 -0.0821  0.2037
 2448TIP3    H228980   2.879   2.887   2.506  1.4018  1.0155 -0.0328
 2449TIP3   OH228981   4.091   6.091   0.586  0.2418  0.3656  0.7278
 2449TIP3    H128982   4.124   6.004   0.561 -1.2134 -0.3348  1.0967
 2449TIP3    H228983   4.095   6.143   0.506  0.4644 -0.2652  0.3229
 2450TIP3   OH228984   1.938   3.886   0.243 -0.3922 -0.1745 -0.5432
 2450TIP3    H128985   1.885   3.965   0.232  0.5430  0.6788  0.7933
 2450TIP3    H228986   1.942   3.848   0.155  0.6462  2.2557 -1.6492
 2451TIP3   OH228987   3.454   5.145   1.997 -0.3270 -0.5386 -0.2051
 2451TIP3    H128988   3.498   5.209   1.942  0.6877 -0.6934  0.3912
 2451TIP3    H228989   3.444   5.068   1.942  0.4437 -0.6051 -0.2607
 2452TIP3   OH228990   0.897   4.125   0.800 -0.1570 -0.0057 -0.5804
 2452TIP3    H128991   0.811   4.113   0.760 -0.2486  1.3471 -0.8323
 2452TIP3    H228992   0.916   4.041   0.841 -1.4952 -0.4019 -0.7198
 2453TIP3   OH228993   2.358   6.047   0.316  0.6600  0.4659  0.0567
 2453TIP3    H128994   2.397   6.093   0.391  0.7033 -0.5043  0.6393
 2453TIP3    H228995   2.390   5.957   0.324  1.2961  0.5227 -1.5691
 2454TIP3   OH228996   3.120   5.256   3.095 -0.3980  0.2648  0.0995
 2454TIP3    H128997   3.025   5.261   3.095 -0.4307 -0.2676  0.6144
 2454TIP3    H228998   3.145   5.268   3.187  0.0427  0.5771 -0.0556
 2455TIP3   OH228999   2.623   3.595   1.289  0.0823  0.1048  0.0537
 2455TIP3    H129000   2.678   3.673   1.296 -0.7880  1.3035 -3.8819
 2455TIP3    H229001   2.535   3.630   1.272 -0.7373 -1.7524  0.2897
 2456TIP3   OH229002   5.747   2.116   3.737 -0.1864 -0.8321  0.0457
 2456TIP3    H129003   5.775   2.097   3.827 -0.9667 -3.1652 -0.1564
 2456TIP3    H229004   5.814   2.078   3.682 -0.6640 -1.0745 -0.3773
 2457TIP3   OH229005   6.007   5.380   0.586 -0.4950  0.3201  0.4776
 2457TIP3    H129006   6.033   5.410   0.673 -1.0270  0.3613  0.6246
 2457TIP3    H229007   6.062   5.304   0.570 -0.6566  0.0888  1.0083
 2458TIP3   OH229008   2.520   5.267   1.119 -0.3430  0.0572  0.4181
 2458TIP3    H129009   2.524   5.250   1.213 -0.7167 -0.3812  0.3551
 2458TIP3    H229010   2.427   5.266   1.097 -0.3116  1.0738  0.2060
 2459TIP3   OH229011   3.998   5.368   3.776  0.0504  0.3314 -0.4350
 2459TIP3    H129012   4.054   5.445   3.767 -0.1173  0.3743 -1.1381
 2459TIP3    H229013   4.060   5.296   3.792  0.2116  0.5956  0.1381
 2460TIP3   OH229014   0.599   1.960   0.877  0.1745  0.0330 -0.1182
 2460TIP3    H129015   0.674   2.016   0.858 -0.2712 -0.3153 -3.5322
 2460TIP3    H229016   0.524   2.019   0.877  0.2373  0.2220  2.2870
 2461TIP3   OH229017   4.877   1.571   0.138  0.1523  0.2959 -0.3144
 2461TIP3    H129018   4.870   1.658   0.100 -1.2879 -0.1462 -1.1598
 2461TIP3    H229019   4.817   1.518   0.086  0.9469 -1.1916  0.2251
 2462TIP3   OH229020   5.629   0.534   0.256 -0.5532  0.2774 -0.2955
 2462TIP3    H129021   5.654   0.450   0.217  0.8352  0.8176 -0.6555
 2462TIP3    H229022   5.542   0.552   0.220  0.2309  0.2424 -2.3644
 2463TIP3   OH229023   1.235   5.886   0.363 -0.4275  0.4452  0.4266
 2463TIP3    H129024   1.164   5.828   0.390  0.7931 -0.4372  1.9258
 2463TIP3    H229025   1.262   5.930   0.444  3.1109 -1.9859  0.8038
 2464TIP3   OH229026   4.982   6.869   2.031 -0.0226  0.8587  0.7838
 2464TIP3    H129027   5.027   6.791   1.998  0.5122  1.6130 -0.3474
 2464TIP3    H229028   5.016   6.881   2.120 -1.1450 -0.9574  1.5033
 2465TIP3   OH229029   6.175   6.109   2.266 -0.1566  0.2652 -0.2087
 2465TIP3    H129030   6.105   6.067   2.316 -0.6570 -0.0513 -1.1443
 2465TIP3    H229031   6.181   6.197   2.303  0.0890 -0.2401  0.9829
 2466TIP3   OH229032   0.219   0.906   3.153  0.3199  0.1364  0.4739
 2466TIP3    H129033   0.277   0.919   3.228  1.2784  0.9626 -0.3822
 2466TIP3    H229034   0.276   0.873   3.084 -0.2761  0.6832 -0.3019
 2467TIP3   OH229035   0.433   3.255   0.733 -0.0948 -0.1723  0.6174
 2467TIP3    H129036   0.470   3.279   0.818  0.0691 -0.0823  0.5205
 2467TIP3    H229037   0.354   3.205   0.755  1.5771 -2.8695  0.8803
 2468TIP3   OH229038   2.545   1.681   7.836  0.3734 -0.0873  0.3327
 2468TIP3    H129039   2.495   1.625   7.776 -1.3776  1.7807 -0.0665
 2468TIP3    H229040   2.546   1.631   7.918 -0.9381 -0.8266 -0.0603
 2469TIP3   OH229041   2.552   3.153   1.296 -0.1593 -0.0228  0.6980
 2469TIP3    H129042   2.586   3.230   1.342 -0.7546  1.2711 -0.9141
 2469TIP3    H229043   2.611   3.082   1.321  1.7588  1.4344  0.5513
 2470TIP3   OH229044   6.627   6.282   0.388  0.6575  0.0126 -0.0073
 2470TIP3    H129045   6.672   6.289   0.472  1.0530 -0.8612 -0.1338
 2470TIP3    H229046   6.672   6.345   0.332 -0.5493  1.6780  0.8055
 2471TIP3   OH229047   2.294   0.317   2.985  1.1053 -0.0520  0.6769
 2471TIP3    H129048   2.272   0.227   2.960 -2.4754  0.4929  1.3081
 2471TIP3    H229049   2.244   0.333   3.065  0.8714  2.7565  0.0743
 2472TIP3   OH229050   1.043   0.789   2.958 -0.4802  0.2973 -0.2636
 2472TIP3    H129051   1.032   0.704   2.999 -0.2271  1.1905  1.7714
 2472TIP3    H229052   1.116   0.777   2.897 -0.5934 -0.9841 -0.1705
 2473TIP3   OH229053   5.689   1.981   1.210 -0.2005  0.1642  0.3045
 2473TIP3    H129054   5.695   2.069   1.173  2.2294 -0.1923 -0.2812
 2473TIP3    H229055   5.627   1.935   1.153  0.2530  0.8401 -0.7663
 2474TIP3   OH229056   3.325   1.497   0.590  0.2797  0.1411  0.2214
 2474TIP3    H129057   3.372   1.549   0.654  3.2799 -3.1159  0.9423
 2474TIP3    H229058   3.386   1.487   0.517 -0.5775 -1.4895 -0.3292
 2475TIP3   OH229059   4.538   3.411   0.146  0.3805  0.1668  0.4070
 2475TIP3    H129060   4.581   3.405   0.061  0.6804  0.8282  0.5021
 2475TIP3    H229061   4.490   3.329   0.155  0.8137 -0.1531 -0.1447
 2476TIP3   OH229062   1.458   1.165   1.764 -0.5734 -0.0833 -0.9573
 2476TIP3    H129063   1.474   1.245   1.814 -2.0788  0.5147 -1.3937
 2476TIP3    H229064   1.402   1.112   1.820  0.3588 -0.8292 -0.6991
 2477TIP3   OH229065   4.004   5.821   3.127 -0.1504 -0.0475  0.5584
 2477TIP3    H129066   3.914   5.802   3.154 -0.2097 -1.2149 -0.3596
 2477TIP3    H229067   4.006   5.916   3.112 -1.6801 -0.1918 -0.8953
 2478TIP3   OH229068   3.395   5.135   1.438 -0.3094 -0.7010 -0.1535
 2478TIP3    H129069   3.309   5.150   1.399  0.3245 -0.7302 -1.5936
 2478TIP3    H229070   3.453   5.116   1.365  0.5389 -2.6925  0.9630
 2479TIP3   OH229071   6.332   4.974   0.730 -0.1940  0.6417 -0.4323
 2479TIP3    H129072   6.319   4.927   0.647 -0.5123 -0.0673  0.0105
 2479TIP3    H229073   6.283   5.056   0.718  0.8465  1.1461 -1.4257
 2480TIP3   OH229074   1.617   2.312   0.464  0.0205 -0.3215  0.2203
 2480TIP3    H129075   1.575   2.387   0.506 -0.7297  0.0216 -1.0730
 2480TIP3    H229076   1.682   2.351   0.404 -0.2706 -0.6955 -0.3511
 2481TIP3   OH229077   3.454   0.469   8.472 -0.5123  0.1758  0.1923
 2481TIP3    H129078   3.457   0.501   8.382  0.5949  0.0254  0.1681
 2481TIP3    H229079   3.388   0.524   8.514 -0.0460  1.1838 -0.3580
 2482TIP3   OH229080   2.608   3.647   4.150  0.4028 -0.2768  0.3533
 2482TIP3    H129081   2.603   3.572   4.091 -1.2509  0.4266 -0.4658
 2482TIP3    H229082   2.676   3.703   4.113 -1.2155  0.5843 -1.4680
 2483TIP3   OH229083   5.529   1.222   1.573  0.8937 -0.3516 -0.2429
 2483TIP3    H129084   5.598   1.266   1.622  0.1668 -0.3704  0.8393
 2483TIP3    H229085   5.450   1.236   1.625  0.4595 -2.1214 -0.3602
 2484TIP3   OH229086   4.260   2.552   1.763  0.1411  0.1980  0.1600
 2484TIP3    H129087   4.229   2.541   1.853 -0.6325  0.2692 -0.0882
 2484TIP3    H229088   4.203   2.495   1.712 -0.5319  1.4378 -0.5022
 2485TIP3   OH229089   5.236   0.792   0.907 -0.3493 -0.0759  0.0387
 2485TIP3    H129090   5.171   0.846   0.953 -1.4456 -1.3566  0.0775
 2485TIP3    H229091   5.183   0.731   0.856  0.8051 -1.7106  0.7241
 2486TIP3   OH229092   5.180   5.014   3.257  0.5606  0.1814  0.7269
 2486TIP3    H129093   5.152   4.954   3.327  1.2990  0.9932  1.7481
 2486TIP3    H229094   5.270   5.038   3.281  1.4731 -0.8562 -1.4407
 2487TIP3   OH229095   6.759   1.841   2.341 -0.1483  0.0361  0.0344
 2487TIP3    H129096   6.757   1.780   2.415 -0.9187  0.1521  0.1200
 2487TIP3    H229097   6.850   1.869   2.335  0.0173 -0.3675  0.6177
 2488TIP3   OH229098   5.568   3.201   1.382  0.2403 -0.0811 -0.5543
 2488TIP3    H129099   5.574   3.145   1.305  1.1648 -0.8567  0.0532
 2488TIP3    H229100   5.504   3.157   1.438  1.7247 -1.1586  0.3783
 2489TIP3   OH229101   1.154   3.942   1.812 -0.1825 -0.1209  0.0644
 2489TIP3    H129102   1.165   3.897   1.896 -0.7678  0.8815  0.7012
 2489TIP3    H229103   1.091   3.888   1.764 -0.7196 -0.0990  0.7288
 2490TIP3   OH229104   0.929   2.518   2.160 -0.0703  0.4018  0.1042
 2490TIP3    H129105   0.926   2.425   2.137 -2.1822  0.2201  0.9055
 2490TIP3    H229106   0.976   2.519   2.244 -1.4936 -0.1831  0.9449
 2491TIP3   OH229107   0.527   1.239   2.971 -0.1171 -0.3760 -0.1143
 2491TIP3    H129108   0.544   1.316   2.917 -1.5558  0.5658  0.7272
 2491TIP3    H229109   0.501   1.274   3.056 -0.2231 -1.8024  0.4778
 2492TIP3   OH229110   0.119   5.502   4.150 -0.2321 -0.3144 -0.4466
 2492TIP3    H129111   0.046   5.495   4.212  0.9200  1.3786  1.2069
 2492TIP3    H229112   0.165   5.419   4.157 -0.5665 -0.4376  0.4033
 2493TIP3   OH229113   2.540   0.767   0.883 -0.5045 -0.2150 -0.1352
 2493TIP3    H129114   2.610   0.718   0.839  0.0926  0.5210 -0.0075
 2493TIP3    H229115   2.509   0.707   0.951  0.2321 -0.4184  0.0319
 2494TIP3   OH229116   6.640   4.082   0.530 -0.1370 -0.1490  0.0255
 2494TIP3    H129117   6.717   4.117   0.574 -0.5903  2.0156 -0.7704
 2494TIP3    H229118   6.669   3.999   0.492  1.5336  0.2138  0.4435
 2495TIP3   OH229119   6.656   0.815   3.531 -0.0146  0.3475 -0.0446
 2495TIP3    H129120   6.648   0.824   3.626 -0.8963 -1.8997  0.1480
 2495TIP3    H229121   6.583   0.759   3.505  1.0673 -0.3288 -1.8390
 2496TIP3   OH229122   1.645   3.537   3.839  0.1846  0.4464 -0.5355
 2496TIP3    H129123   1.566   3.499   3.876  0.8636  0.9979  1.6062
 2496TIP3    H229124   1.623   3.554   3.747 -1.5687 -1.0008 -0.4224
 2497TIP3   OH229125   0.040   0.280   0.920 -0.3673 -0.4177  0.6640
 2497TIP3    H129126   0.008   0.321   1.000 -1.8345 -0.6659  0.2386
 2497TIP3    H229127   0.016   0.341   0.850  1.9204  0.3525  0.4840
 2498TIP3   OH229128   6.776   2.936   0.118  0.2751 -0.2965  0.0303
 2498TIP3    H129129   6.786   3.003   0.050 -0.2471 -1.5240 -1.3135
 2498TIP3    H229130   6.818   2.858   0.081  2.1731 -0.4012  2.1452
 2499TIP3   OH229131   4.467   4.093   2.911 -0.4889 -0.0531  0.4021
 2499TIP3    H129132   4.409   4.052   2.846 -0.7900 -0.7105  1.0740
 2499TIP3    H229133   4.452   4.187   2.901 -0.1881 -0.1055 -0.7987
 2500TIP3   OH229134   4.865   5.077   2.813  0.0236 -0.0235 -0.0274
 2500TIP3    H129135   4.841   4.988   2.838 -1.5801  0.3994  0.0579
 2500TIP3    H229136   4.807   5.133   2.865 -1.7107  0.9624 -2.8199
 2501TIP3   OH229137   4.790   3.973   2.645 -0.0171 -0.3375 -0.3089
 2501TIP3    H129138   4.837   3.973   2.562  0.5437  0.7151  0.0035
 2501TIP3    H229139   4.807   4.059   2.683 -0.1867 -0.8396  0.9447
 2502TIP3   OH229140   5.194   6.825   2.724  0.1506  0.3412  0.3025
 2502TIP3    H129141   5.116   6.776   2.696  0.5492  0.0960 -0.4168
 2502TIP3    H229142   5.266   6.781   2.679  0.3843  2.3982 -1.4913
 2503TIP3   OH229143   4.814   2.754   0.726 -0.3390  0.1057  0.3671
 2503TIP3    H129144   4.821   2.660   0.711 -1.2751  0.0358  0.3076
 2503TIP3    H229145   4.859   2.768   0.810  0.2833 -0.3052  0.1084
 2504TIP3   OH229146   4.022   6.181   0.325  0.2414  0.3421 -0.4428
 2504TIP3    H129147   4.066   6.158   0.243 -0.2814 -0.6371 -0.4584
 2504TIP3    H229148   3.938   6.135   0.321  1.8217 -3.3334  2.4803
 2505TIP3   OH229149   4.283   4.781   1.600  0.4870 -0.3801  0.3731
 2505TIP3    H129150   4.223   4.724   1.553  1.4976 -0.0346 -1.4146
 2505TIP3    H229151   4.285   4.745   1.689 -1.1713 -1.2962  0.0796
 2506TIP3   OH229152   3.331   6.104   0.992 -0.1835  0.1449  0.2706
 2506TIP3    H129153   3.410   6.108   1.046 -0.7092  0.8634  1.0046
 2506TIP3    H229154   3.264   6.067   1.050 -0.0596 -1.9283 -0.7876
 2507TIP3   OH229155   0.748   1.846   1.505  0.1518  0.1258 -0.1747
 2507TIP3    H129156   0.672   1.884   1.549  0.1654 -0.8113  0.6939
 2507TIP3    H229157   0.731   1.858   1.412 -1.2986 -0.4954 -0.0115
 2508TIP3   OH229158   3.888   0.462   1.433  0.5608  0.0386 -0.6032
 2508TIP3    H129159   3.916   0.551   1.413  0.8042  0.2143  0.4279
 2508TIP3    H229160   3.905   0.453   1.527 -0.1668 -0.8344 -0.5430
 2509TIP3   OH229161   2.912   4.373   0.310 -0.2926 -0.2403 -0.0150
 2509TIP3    H129162   2.895   4.466   0.324  2.5902  0.0803  2.3198
 2509TIP3    H229163   2.855   4.329   0.372  0.3768  0.1660  0.9005
 2510TIP3   OH229164   0.671   3.896   2.285 -0.5440  0.0578 -0.3252
 2510TIP3    H129165   0.699   3.805   2.288  0.2883  0.2663 -1.2740
 2510TIP3    H229166   0.738   3.941   2.233  0.0347  1.5836  1.5941
 2511TIP3   OH229167   4.456   0.768   3.696  0.1112 -0.2533 -0.3865
 2511TIP3    H129168   4.533   0.774   3.753 -1.0491 -1.4688  1.4468
 2511TIP3    H229169   4.463   0.681   3.656 -0.4094 -0.4871  0.0094
 2512TIP3   OH229170   2.107   3.557   2.777 -0.5277 -0.0376  0.5186
 2512TIP3    H129171   2.193   3.596   2.760 -0.7405 -0.5029 -2.0123
 2512TIP3    H229172   2.044   3.619   2.739 -1.4548  0.7112  3.0689
 2513TIP3   OH229173   0.150   6.530   0.231 -0.5279  0.1349  0.1153
 2513TIP3    H129174   0.120   6.590   0.163  1.8208  0.3305 -0.8184
 2513TIP3    H229175   0.180   6.452   0.184  2.0446  0.6567  0.7456
 2514TIP3   OH229176   2.419   2.798   1.334  0.6097 -0.0553  0.1685
 2514TIP3    H129177   2.423   2.821   1.241  0.2123  0.4280  0.2665
 2514TIP3    H229178   2.509   2.806   1.364  0.5484  1.0086  0.1064
 2515TIP3   OH229179   1.581   0.084   3.668 -0.3179  0.5515 -0.2594
 2515TIP3    H129180   1.502   0.108   3.716 -1.1430 -0.2783 -1.1648
 2515TIP3    H229181   1.652   0.129   3.715 -1.3782  1.8231  0.1943
 2516TIP3   OH229182   0.477   1.181   8.509  0.1732 -0.0453  0.4237
 2516TIP3    H129183   0.551   1.220   8.462 -0.0544  0.7011  0.6679
 2516TIP3    H229184   0.418   1.255   8.527 -1.2491 -0.7914 -0.8632
 2517TIP3   OH229185   3.174   5.755   2.784 -0.0887 -0.0168  0.1827
 2517TIP3    H129186   3.259   5.758   2.740  0.0490 -1.8891  0.2527
 2517TIP3    H229187   3.130   5.679   2.748 -1.3124  0.2999  0.9327
 2518TIP3   OH229188   3.513   5.241   2.442 -0.5839  0.0554 -0.1775
 2518TIP3    H129189   3.448   5.281   2.384 -0.5934  1.2958  0.6536
 2518TIP3    H229190   3.587   5.221   2.386 -0.7360  0.9076 -0.6899
 2519TIP3   OH229191   3.623   4.536   2.685 -0.8303 -0.6533 -0.0374
 2519TIP3    H129192   3.658   4.478   2.618  0.0552  1.5435 -1.5855
 2519TIP3    H229193   3.700   4.570   2.731 -0.8653  2.5325 -2.0272
 2520TIP3   OH229194   6.664   1.999   3.688  0.2496 -0.6055  0.1805
 2520TIP3    H129195   6.681   1.966   3.600 -0.7238  1.1703 -0.7337
 2520TIP3    H229196   6.711   2.083   3.692 -1.8849  0.6724  0.3094
 2521TIP3   OH229197   1.532   0.318   4.014 -0.0715 -0.1168 -0.7315
 2521TIP3    H129198   1.489   0.262   3.950 -0.2753 -0.4287 -0.3230
 2521TIP3    H229199   1.609   0.268   4.042  0.3428  0.2680 -1.1629
 2522TIP3   OH229200   5.725   2.724   3.804  0.1194 -0.5896  0.3127
 2522TIP3    H129201   5.677   2.648   3.838  0.7655 -0.8268  0.7088
 2522TIP3    H229202   5.774   2.757   3.879 -0.4281  0.4503  0.2419
 2523TIP3   OH229203   1.944   3.780   2.707  0.3982 -0.4428 -0.7861
 2523TIP3    H129204   1.911   3.732   2.631 -0.9771 -0.1621 -0.3930
 2523TIP3    H229205   1.881   3.761   2.777  1.1682 -0.0017  0.0519
 2524TIP3   OH229206   0.952   2.377   0.627  0.2005  0.4178  0.6331
 2524TIP3    H129207   0.858   2.392   0.637  0.1806  1.0488 -0.3070
 2524TIP3    H229208   0.993   2.446   0.680  0.1751 -0.6746  2.1568
 2525TIP3   OH229209   2.138   6.371   2.010 -0.5417 -0.3449  0.1790
 2525TIP3    H129210   2.186   6.323   1.943  1.8057  0.9220  0.8714
 2525TIP3    H229211   2.191   6.449   2.028 -2.2278  0.4968  1.9066
 2526TIP3   OH229212   2.790   5.632   3.278 -0.5058 -0.3258  0.4467
 2526TIP3    H129213   2.808   5.596   3.191 -0.4445 -1.3746  0.8819
 2526TIP3    H229214   2.866   5.607   3.330 -0.8884 -0.3551  0.9948
 2527TIP3   OH229215   6.284   2.813   0.294 -0.4094  0.0011 -0.0947
 2527TIP3    H129216   6.303   2.892   0.244 -0.7748 -0.5521 -1.1501
 2527TIP3    H229217   6.205   2.833   0.343  0.3058  0.7677  0.7739
 2528TIP3   OH229218   6.223   2.691   1.030 -0.1083  0.1596  0.0083
 2528TIP3    H129219   6.169   2.769   1.017  0.3710  0.6403  0.8317
 2528TIP3    H229220   6.161   2.618   1.022 -1.0828  0.7301  1.7059
 2529TIP3   OH229221   5.932   3.063   3.563  0.4946 -0.4358 -0.0596
 2529TIP3    H129222   5.959   2.980   3.603  0.8403 -0.8280 -1.0917
 2529TIP3    H229223   5.836   3.062   3.570  0.3188 -1.8726 -1.8405
 2530TIP3   OH229224   1.309   5.251   1.357 -0.0008  0.2743  0.2312
 2530TIP3    H129225   1.356   5.248   1.441 -0.6220 -1.6430  0.5593
 2530TIP3    H229226   1.250   5.326   1.366 -0.6690 -0.3864  1.8926
 2531TIP3   OH229227   5.055   5.474   0.948 -0.3619 -0.2727 -0.3296
 2531TIP3    H129228   5.027   5.442   0.862 -1.0143 -1.4215  0.2937
 2531TIP3    H229229   5.145   5.444   0.957 -0.1061  0.3174 -0.8253
 2532TIP3   OH229230   3.023   4.801   2.279 -0.0047  0.4806 -0.0652
 2532TIP3    H129231   3.013   4.744   2.202  0.3306 -1.2102  1.0859
 2532TIP3    H229232   2.962   4.765   2.343  0.5315  1.1554  0.8474
 2533TIP3   OH229233   1.321   3.009   2.334 -0.1634 -0.4858 -0.1321
 2533TIP3    H129234   1.310   3.002   2.428 -0.7048  0.5403 -0.1052
 2533TIP3    H229235   1.232   3.024   2.300  0.3236  1.8672 -0.5241
 2534TIP3   OH229236   4.168   0.104   3.373 -0.1057 -0.2890  0.1480
 2534TIP3    H129237   4.164   0.141   3.462 -0.8415  1.4450 -0.5632
 2534TIP3    H229238   4.186   0.011   3.387 -1.1892 -0.2657  2.1674
 2535TIP3   OH229239   1.253   3.117   8.235  0.2901 -0.0316 -0.0416
 2535TIP3    H129240   1.311   3.192   8.250  1.0246 -0.8512  1.4026
 2535TIP3    H229241   1.277   3.054   8.303 -1.5903 -0.8191 -0.0538
 2536TIP3   OH229242   5.522   2.563   8.195  0.7602 -0.1160 -0.7433
 2536TIP3    H129243   5.501   2.509   8.120  1.4019 -0.4680 -0.6759
 2536TIP3    H229244   5.446   2.555   8.253  0.3251  0.0504 -1.2889
 2537TIP3   OH229245   1.565   3.566   4.156 -0.2947  0.0013 -0.2456
 2537TIP3    H129246   1.518   3.512   4.092  0.0063  0.0567 -0.5197
 2537TIP3    H229247   1.499   3.594   4.219 -0.1986 -1.9239  0.7648
 2538TIP3   OH229248   0.305   1.580   0.733  0.2322 -0.4673 -0.0144
 2538TIP3    H129249   0.274   1.626   0.654 -1.2389  0.8757  1.2836
 2538TIP3    H229250   0.385   1.626   0.757 -0.2186  0.2192  0.2037
 2539TIP3   OH229251   0.818   3.109   1.184  0.0920  0.1874  0.0593
 2539TIP3    H129252   0.896   3.102   1.239 -0.6585 -0.1310  1.1031
 2539TIP3    H229253   0.760   3.040   1.215  0.3424 -1.2071 -2.3241
 2540TIP3   OH229254   4.778   1.572   3.010  0.2716  0.3799 -0.1675
 2540TIP3    H129255   4.726   1.563   3.090  0.3315 -1.9991 -0.3288
 2540TIP3    H229256   4.716   1.563   2.939  0.2839  2.0972 -0.4510
 2541TIP3   OH229257   6.005   1.907   4.034 -0.1958 -0.5998  0.2760
 2541TIP3    H129258   5.969   1.969   4.097 -1.9072 -0.4635 -0.7650
 2541TIP3    H229259   6.033   1.962   3.960 -0.7378 -0.9631 -0.2098
 2542TIP3   OH229260   6.497   6.685   0.795  0.0137  0.1736  0.5239
 2542TIP3    H129261   6.452   6.637   0.864 -0.4007  1.4206  1.1365
 2542TIP3    H229262   6.433   6.748   0.762  0.4602  0.1527 -0.4488
 2543TIP3   OH229263   0.584   2.246   2.070  0.1196  0.1787 -0.1583
 2543TIP3    H129264   0.599   2.272   1.979  2.4643 -0.6358 -0.0537
 2543TIP3    H229265   0.602   2.152   2.072 -2.0007 -0.2818  0.7668
 2544TIP3   OH229266   3.719   5.842   8.170  0.2204  0.1904  0.3790
 2544TIP3    H129267   3.813   5.852   8.177  0.2946  1.3231 -1.3785
 2544TIP3    H229268   3.707   5.764   8.115  0.3391  1.9444 -2.3521
 2545TIP3   OH229269   3.248   2.147   0.859  0.2230  0.2566 -0.2921
 2545TIP3    H129270   3.305   2.209   0.904  0.2802 -0.5644  0.7758
 2545TIP3    H229271   3.224   2.082   0.925 -0.7926 -0.2162 -1.0884
 2546TIP3   OH229272   6.219   6.371   1.155 -0.4294 -0.5130  0.2166
 2546TIP3    H129273   6.228   6.333   1.068  0.7854  2.7957 -1.2384
 2546TIP3    H229274   6.149   6.436   1.146  0.2926  0.4776  1.4671
 2547TIP3   OH229275   6.324   2.297   2.189 -0.0460  0.6231  0.2494
 2547TIP3    H129276   6.304   2.304   2.096  0.5284  0.0340  0.0769
 2547TIP3    H229277   6.345   2.387   2.215 -0.5946  0.8559 -0.0916
 2548TIP3   OH229278   3.447   6.758   3.883 -0.1605 -0.1439  0.4919
 2548TIP3    H129279   3.457   6.849   3.854 -1.6024  0.5484  1.9726
 2548TIP3    H229280   3.437   6.708   3.803  0.9881  0.9510 -0.3691
 2549TIP3   OH229281   6.534   5.075   8.197  0.1805 -0.2708  0.4678
 2549TIP3    H129282   6.579   4.993   8.220 -1.0956 -1.4127 -0.9450
 2549TIP3    H229283   6.450   5.047   8.162 -0.8035  1.7320  1.0924
 2550TIP3   OH229284   1.088   2.672   0.241  0.6567  1.2680 -0.4304
 2550TIP3    H129285   1.025   2.651   0.311  1.2400 -0.0644 -0.2714
 2550TIP3    H229286   1.173   2.664   0.283  0.9834  1.4870 -1.0467
 2551TIP3   OH229287   0.020   5.690   0.286  0.3530 -0.5342  0.4800
 2551TIP3    H129288   0.111   5.663   0.294  0.6302  0.2649  0.1601
 2551TIP3    H229289  -0.020   5.627   0.226  0.7297 -0.7937  0.5031
 2552TIP3   OH229290   3.530   4.282   0.923 -0.2685  0.2081  0.4007
 2552TIP3    H129291   3.449   4.290   0.973 -0.7184  0.2578 -0.3140
 2552TIP3    H229292   3.505   4.233   0.845  0.5296 -0.3249  0.4719
 2553TIP3   OH229293   2.229   2.096   1.496 -0.2754  0.1511  0.0503
 2553TIP3    H129294   2.152   2.153   1.502  0.0059  0.6848 -1.1274
 2553TIP3    H229295   2.271   2.104   1.582 -1.9697 -0.8399  1.0341
 2554TIP3   OH229296   0.060   0.639   0.979  0.4192  0.0865  0.3378
 2554TIP3    H129297   0.104   0.679   0.904  0.5687 -1.4081 -0.4310
 2554TIP3    H229298  -0.033   0.637   0.954  0.6223 -1.5695 -0.4223
 2555TIP3   OH229299   5.848   1.278   1.931  0.1401  0.2063 -0.2074
 2555TIP3    H129300   5.886   1.339   1.868 -0.4707  0.6505 -0.1606
 2555TIP3    H229301   5.899   1.198   1.922  1.1598  0.8206 -0.0563
 2556TIP3   OH229302   3.002   2.693   1.912  0.7478 -0.2510  0.2845
 2556TIP3    H129303   2.922   2.687   1.964  0.7436  0.0748  0.3166
 2556TIP3    H229304   3.067   2.645   1.964  0.7085 -0.0516  0.5203
 2557TIP3   OH229305   5.462   5.873   1.760 -0.2690  0.1864  0.4316
 2557TIP3    H129306   5.554   5.873   1.734 -0.0944 -0.4384  1.0048
 2557TIP3    H229307   5.415   5.899   1.681  0.3453 -0.1841 -0.0731
 2558TIP3   OH229308   1.932   4.703   1.458 -0.0181 -0.2092  0.2281
 2558TIP3    H129309   1.911   4.795   1.444  1.1185  0.1554  0.8139
 2558TIP3    H229310   1.883   4.680   1.537 -0.5768 -0.2160 -0.1127
 2559TIP3   OH229311   2.966   2.781   0.455 -0.4360  0.3107  0.4517
 2559TIP3    H129312   2.900   2.725   0.496  2.2075 -1.0209  3.1978
 2559TIP3    H229313   3.026   2.720   0.412 -1.1004  1.5182 -2.3935
 2560TIP3   OH229314   4.789   2.555   3.592 -0.1699  0.2194  0.3241
 2560TIP3    H129315   4.751   2.575   3.507  0.4987 -0.2963 -0.0979
 2560TIP3    H229316   4.754   2.623   3.650 -1.0472  0.2608 -0.2386
 2561TIP3   OH229317   1.023   5.405   1.951 -0.1100  0.1622  0.4461
 2561TIP3    H129318   1.110   5.365   1.948 -0.6422 -0.9688 -1.0687
 2561TIP3    H229319   0.981   5.378   1.869 -0.5072  3.8792 -0.7511
 2562TIP3   OH229320   4.905   1.450   3.382  0.0330  0.1474  0.5503
 2562TIP3    H129321   4.982   1.407   3.418  0.2947  1.3992  1.5449
 2562TIP3    H229322   4.928   1.543   3.379 -1.0724  0.4233 -0.0963
 2563TIP3   OH229323   1.286   3.962   2.988  0.6618  0.5799  0.6867
 2563TIP3    H129324   1.288   4.028   3.057  0.6776  0.3686  0.8899
 2563TIP3    H229325   1.276   4.012   2.907  0.9540  0.8476  0.8140
 2564TIP3   OH229326   6.544   5.532   1.712 -0.2913  0.3205 -0.3612
 2564TIP3    H129327   6.569   5.599   1.648  0.3122 -0.0701 -0.5364
 2564TIP3    H229328   6.567   5.449   1.671 -0.5696  0.0286  0.0666
 2565TIP3   OH229329   3.461   0.178   0.542 -0.2275  0.1212  0.0366
 2565TIP3    H129330   3.446   0.096   0.493  0.3446 -1.2774  2.0743
 2565TIP3    H229331   3.554   0.175   0.564  0.2272  2.2614 -1.3789
 2566TIP3   OH229332   2.614   4.495   1.139  0.1056 -0.3823 -0.2549
 2566TIP3    H129333   2.708   4.485   1.120 -0.2371 -1.7620 -1.3508
 2566TIP3    H229334   2.606   4.584   1.172  1.8211 -0.2625 -0.0746
 2567TIP3   OH229335   2.213   4.246   1.717 -0.5315  0.2126  0.3882
 2567TIP3    H129336   2.193   4.278   1.805  2.4910  1.3796  0.7609
 2567TIP3    H229337   2.146   4.286   1.662 -0.7042  1.9465  1.7597
 2568TIP3   OH229338   4.099   1.567   1.527 -0.2310 -0.2241 -0.0784
 2568TIP3    H129339   4.140   1.559   1.441  2.7779  0.2466  1.1777
 2568TIP3    H229340   4.072   1.478   1.549 -1.0132 -0.3564 -1.4702
 2569TIP3   OH229341   4.564   2.914   8.445  0.5002 -0.2551  0.6023
 2569TIP3    H129342   4.657   2.901   8.430  0.4628  0.1814 -0.0924
 2569TIP3    H229343   4.546   3.001   8.408 -0.3528 -0.7239 -0.1245
 2570TIP3   OH229344   2.513   4.132   1.962  0.2811  0.2850  0.4154
 2570TIP3    H129345   2.568   4.092   1.894  0.8642  0.5563  0.7255
 2570TIP3    H229346   2.527   4.077   2.039  0.8065  0.8677  0.7419
 2571TIP3   OH229347   4.042   5.809   0.289 -0.4544  0.8464  0.6284
 2571TIP3    H129348   4.087   5.823   0.372 -1.3341  0.4051  1.1916
 2571TIP3    H229349   3.954   5.842   0.304 -1.3751 -1.4182  0.6913
 2572TIP3   OH229350   2.208   4.577   4.533 -0.5263  0.3604  0.1785
 2572TIP3    H129351   2.279   4.530   4.575 -1.4708  0.5269  2.0570
 2572TIP3    H229352   2.148   4.508   4.502  0.2114  0.2363 -1.0299
 2573TIP3   OH229353   1.547   3.533   2.628 -0.5188 -0.4368  0.3432
 2573TIP3    H129354   1.524   3.450   2.587 -0.3392 -0.0116 -0.6424
 2573TIP3    H229355   1.471   3.555   2.682 -0.0828 -1.8205  1.5795
 2574TIP3   OH229356   6.310   3.970   0.349  0.1240  0.1332  0.3745
 2574TIP3    H129357   6.352   4.056   0.351  1.3894 -0.3501 -1.9759
 2574TIP3    H229358   6.219   3.988   0.372  0.8091  1.7545  2.0403
 2575TIP3   OH229359   4.204   1.699   7.965  0.0909 -0.0861  0.4419
 2575TIP3    H129360   4.276   1.722   8.023  0.9822 -1.2103 -0.1965
 2575TIP3    H229361   4.201   1.604   7.967 -0.0925 -0.1293 -1.0759
 2576TIP3   OH229362   1.450   2.034   0.307 -0.4252 -0.1128 -0.4566
 2576TIP3    H129363   1.448   2.126   0.334 -2.1792 -0.2978  0.2009
 2576TIP3    H229364   1.464   2.037   0.212 -0.3499  0.8197 -0.4233
 2577TIP3   OH229365   3.242   6.299   1.199  0.2689  0.5647  0.1728
 2577TIP3    H129366   3.170   6.287   1.137 -1.7602  1.4204  2.2189
 2577TIP3    H229367   3.258   6.212   1.234 -0.6412  0.5279  0.5456
 2578TIP3   OH229368   1.990   3.533   1.102  0.3585 -0.0198 -0.1495
 2578TIP3    H129369   2.048   3.483   1.045  0.2992  2.2875 -2.4557
 2578TIP3    H229370   1.910   3.544   1.050 -0.0014  1.5366  0.6559
 2579TIP3   OH229371   0.356   4.207   0.088  0.1909  0.4894  0.3617
 2579TIP3    H129372   0.316   4.222   0.003  0.5030  0.2951  0.1776
 2579TIP3    H229373   0.287   4.169   0.142 -0.4383  1.9632  0.6453
 2580TIP3   OH229374   0.530   1.153   0.204  0.0601  0.1730  0.1152
 2580TIP3    H129375   0.519   1.135   0.111 -0.3644  2.0364 -0.2323
 2580TIP3    H229376   0.440   1.163   0.237  0.2391  0.8504  0.4205
 2581TIP3   OH229377   6.589   0.084   3.198 -0.0651 -0.2568  0.6309
 2581TIP3    H129378   6.513   0.082   3.255 -0.2578  0.6476  0.4184
 2581TIP3    H229379   6.638   0.004   3.220  0.4188  0.5903  2.7937
 2582TIP3   OH229380   1.616   2.520   1.062  0.1712  0.2764  0.8139
 2582TIP3    H129381   1.609   2.426   1.045  0.3266  0.2935  0.6618
 2582TIP3    H229382   1.657   2.526   1.149  1.5787  0.2185  0.1815
 2583TIP3   OH229383   5.394   3.851   2.317 -0.3861 -0.4582  0.1218
 2583TIP3    H129384   5.397   3.941   2.351 -0.0156 -0.8820  1.2640
 2583TIP3    H229385   5.466   3.806   2.362 -1.2549 -1.6099  0.4225
 2584TIP3   OH229386   0.242   4.109   2.711 -0.1445  0.4818 -0.0035
 2584TIP3    H129387   0.152   4.081   2.721 -0.3523  0.8874 -0.6548
 2584TIP3    H229388   0.274   4.062   2.634  0.2757  0.1726  0.3481
 2585TIP3   OH229389   1.201   3.494   0.823  0.2618  0.3025  0.6123
 2585TIP3    H129390   1.234   3.523   0.739 -1.7645  1.1929  0.0400
 2585TIP3    H229391   1.248   3.413   0.843 -1.5635 -1.9211 -3.0633
 2586TIP3   OH229392   6.875   4.735   4.249 -0.6732 -0.1202 -0.7724
 2586TIP3    H129393   6.868   4.807   4.186  1.4941  3.1858  2.4044
 2586TIP3    H229394   6.955   4.689   4.223 -0.5662  0.3085 -1.2243
 2587TIP3   OH229395   5.821   2.037   8.422  1.0980 -0.1806 -0.0535
 2587TIP3    H129396   5.819   1.974   8.494  1.4149 -0.7257 -0.5063
 2587TIP3    H229397   5.809   1.984   8.343 -0.2050  0.5212 -0.3479
 2588TIP3   OH229398   0.144   4.349   1.438 -0.2312 -0.0640 -0.6565
 2588TIP3    H129399   0.056   4.333   1.470 -0.2007  1.4714  0.3085
 2588TIP3    H229400   0.132   4.399   1.358 -0.2501 -0.9926 -1.2395
 2589TIP3   OH229401   6.916   2.952   2.903  0.3463  0.5390 -0.1830
 2589TIP3    H129402   6.937   2.860   2.885 -1.6543  0.1726 -0.8894
 2589TIP3    H229403   6.973   2.975   2.977  2.2503 -0.6627 -1.1845
 2590TIP3   OH229404   6.192   2.477   3.849 -0.3909  0.0035  0.0795
 2590TIP3    H129405   6.240   2.559   3.868 -1.6359  0.5807  0.8801
 2590TIP3    H229406   6.230   2.413   3.910  0.8392 -0.1395 -0.7950
 2591TIP3   OH229407   1.474   0.418   8.132 -0.3716 -0.6517  0.2135
 2591TIP3    H129408   1.505   0.499   8.092 -2.0271  0.2622  0.7001
 2591TIP3    H229409   1.554   0.370   8.155  0.6359  0.7972 -0.1487
 2592TIP3   OH229410   1.559   4.040   2.277  0.5876 -0.0346  0.3628
 2592TIP3    H129411   1.613   4.115   2.301  0.0473  0.3816  0.2985
 2592TIP3    H229412   1.610   3.964   2.305  0.6940  0.3796  1.3376
 2593TIP3   OH229413   3.291   6.437   1.730  0.5613 -0.1404 -0.3153
 2593TIP3    H129414   3.378   6.438   1.771  0.9405 -1.3422 -1.0187
 2593TIP3    H229415   3.309   6.423   1.637 -0.3865 -0.7709 -0.4152
 2594TIP3   OH229416   4.767   4.190   2.840 -0.2860 -0.0875 -0.5980
 2594TIP3    H129417   4.675   4.167   2.845 -0.3918  0.4957  0.6004
 2594TIP3    H229418   4.768   4.277   2.800 -0.4231  0.6267  0.8517
 2595TIP3   OH229419   5.501   0.809   1.031 -0.3449 -0.2546 -0.5985
 2595TIP3    H129420   5.466   0.849   1.111 -2.5144  1.6972 -2.3974
 2595TIP3    H229421   5.425   0.797   0.975  1.1599 -1.2321 -2.5584
 2596TIP3   OH229422   0.435   0.181   8.374  0.2902 -0.7155 -0.4235
 2596TIP3    H129423   0.362   0.243   8.376  0.6320 -0.3027 -0.4612
 2596TIP3    H229424   0.505   0.228   8.328  1.4226 -0.1547  1.7375
 2597TIP3   OH229425   4.336   3.449   1.312 -0.2568  0.3820 -0.3890
 2597TIP3    H129426   4.267   3.424   1.250 -1.9460  3.4866  0.0542
 2597TIP3    H229427   4.310   3.408   1.395 -1.1430  0.8747 -0.4143
 2598TIP3   OH229428   5.225   0.438   1.135  0.0148  0.3614  0.8559
 2598TIP3    H129429   5.311   0.468   1.105  0.6124 -1.0675  1.0846
 2598TIP3    H229430   5.178   0.417   1.054  0.7884 -1.2235  0.7770
 2599TIP3   OH229431   1.238   4.024   0.421  0.3624  0.4895  0.4998
 2599TIP3    H129432   1.308   4.076   0.382 -0.3316  0.1088 -1.3765
 2599TIP3    H229433   1.208   4.076   0.495  0.4481  2.2309 -0.6343
 2600TIP3   OH229434   5.870   1.464   2.539 -0.0607 -0.1164 -0.1341
 2600TIP3    H129435   5.890   1.515   2.617  1.9211 -0.9384 -0.0415
 2600TIP3    H229436   5.941   1.399   2.534 -0.5925 -0.6167 -2.1494
 2601TIP3   OH229437   4.439   5.543   2.681  0.0192  0.4262 -0.4167
 2601TIP3    H129438   4.518   5.494   2.659 -0.2118  1.2622 -3.6192
 2601TIP3    H229439   4.471   5.621   2.727  0.5252 -1.5306  2.8939
 2602TIP3   OH229440   6.432   3.823   0.718  0.2341  0.4720  0.3094
 2602TIP3    H129441   6.467   3.735   0.734  0.7609  0.8941  1.6386
 2602TIP3    H229442   6.497   3.881   0.757 -0.8482  1.3805  0.8033
 2603TIP3   OH229443   2.934   3.716   8.458 -0.5889  0.4001  0.1598
 2603TIP3    H129444   2.954   3.795   8.408 -0.3272  1.6150  2.0599
 2603TIP3    H229445   2.848   3.688   8.427 -1.2747  2.2004  0.3126
 2604TIP3   OH229446   0.979   2.229   2.549  0.0904  0.5922  0.0687
 2604TIP3    H129447   0.918   2.289   2.593  0.1026  0.6667 -0.0169
 2604TIP3    H229448   1.063   2.275   2.549  0.0082  0.7439 -0.3539
 2605TIP3   OH229449   6.317   6.868   0.733  0.0234 -0.2031 -0.4962
 2605TIP3    H129450   6.222   6.874   0.745 -0.0085  2.9336 -1.5435
 2605TIP3    H229451   6.338   6.937   0.671  3.4311  1.7312  2.4293
 2606TIP3   OH229452   6.335   1.080   2.378 -0.3385 -0.4403  0.0480
 2606TIP3    H129453   6.242   1.067   2.360 -0.3013 -1.8422  0.6688
 2606TIP3    H229454   6.380   1.033   2.308 -0.0733  0.8332 -0.6517
 2607TIP3   OH229455   6.436   0.245   0.437 -0.0820  0.1514 -0.0681
 2607TIP3    H129456   6.363   0.198   0.477 -0.6473  1.2404  0.2184
 2607TIP3    H229457   6.513   0.216   0.485 -0.7260  1.3403  1.7790
 2608TIP3   OH229458   0.214   4.482   0.786  0.1637  0.0581  0.7856
 2608TIP3    H129459   0.303   4.516   0.798  0.7498 -1.0840 -0.1566
 2608TIP3    H229460   0.216   4.439   0.701 -1.3315  0.0973  0.7078
 2609TIP3   OH229461   0.451   5.181   1.902 -0.1794 -0.4475 -0.0385
 2609TIP3    H129462   0.358   5.193   1.881 -0.0895  1.2137  0.3376
 2609TIP3    H229463   0.452   5.173   1.998  0.0139 -1.0447 -0.0910
 2610TIP3   OH229464   1.570   1.595   2.968  0.0960 -0.2237 -0.1583
 2610TIP3    H129465   1.488   1.630   2.934  0.5293 -0.2917 -1.3272
 2610TIP3    H229466   1.598   1.657   3.035 -0.9799 -0.2907  0.3669
 2611TIP3   OH229467   5.861   3.239   1.803  0.4077  0.0022 -0.4643
 2611TIP3    H129468   5.903   3.184   1.868 -0.0941  0.8689  0.6220
 2611TIP3    H229469   5.912   3.321   1.804 -0.9325  0.8580  0.4676
 2612TIP3   OH229470   3.386   4.814   0.870  0.8304 -0.2889 -0.4987
 2612TIP3    H129471   3.348   4.810   0.782 -1.3452  1.2030  0.2813
 2612TIP3    H229472   3.464   4.868   0.861  0.4984  0.0351 -1.4610
 2613TIP3   OH229473   3.438   2.812   3.859 -0.6214  0.5166  0.0754
 2613TIP3    H129474   3.359   2.761   3.877  0.2652 -0.9721 -0.1454
 2613TIP3    H229475   3.486   2.813   3.942 -0.3785  0.5463 -0.0648
 2614TIP3   OH229476   5.054   1.933   3.169 -0.2716 -0.4754 -0.9314
 2614TIP3    H129477   5.050   1.849   3.123 -0.5228 -1.0421  0.1037
 2614TIP3    H229478   5.048   1.910   3.261  1.1181  0.5762 -0.5494
 2615TIP3   OH229479   5.021   5.266   0.331  0.0779 -0.8174  0.0438
 2615TIP3    H129480   5.041   5.358   0.312  0.0978 -0.7349  0.4512
 2615TIP3    H229481   4.997   5.265   0.424 -2.1331 -0.8567 -0.4629
 2616TIP3   OH229482   2.932   6.448   8.343  0.5413  0.2686  0.3749
 2616TIP3    H129483   2.928   6.522   8.403  0.2380  0.5901 -0.0388
 2616TIP3    H229484   3.000   6.391   8.380 -0.9788 -0.5047  2.0935
 2617TIP3   OH229485   1.247   0.623   0.658  0.5231 -0.2694 -0.1926
 2617TIP3    H129486   1.297   0.698   0.692 -0.7857  0.2810  0.6098
 2617TIP3    H229487   1.208   0.655   0.577  0.2484 -0.2052 -0.0338
 2618TIP3   OH229488   1.975   3.051   1.836 -0.7632  0.0486 -0.1034
 2618TIP3    H129489   1.885   3.022   1.821 -0.5829 -0.7462  0.2710
 2618TIP3    H229490   2.027   2.996   1.778 -0.5610  0.9638 -0.8168
 2619TIP3   OH229491   5.913   4.655   2.331 -0.3611  0.0349  0.2534
 2619TIP3    H129492   5.929   4.642   2.424 -0.1914 -0.3048  0.1809
 2619TIP3    H229493   5.987   4.708   2.300  0.1575 -0.7566  0.1025
 2620TIP3   OH229494   0.555   3.602   4.200 -0.3065  0.3110 -0.0723
 2620TIP3    H129495   0.612   3.529   4.225 -1.4000  0.0641  1.9183
 2620TIP3    H229496   0.615   3.675   4.187  0.6528 -0.4816 -0.2168
 2621TIP3   OH229497   1.685   3.973   1.985  0.1529  0.3433  0.9280
 2621TIP3    H129498   1.668   4.047   2.042 -0.6878  0.2692  0.7832
 2621TIP3    H229499   1.604   3.922   1.987  0.2432  0.1435 -0.0275
 2622TIP3   OH229500   5.615   1.122   0.638  0.3094  0.8864 -0.4252
 2622TIP3    H129501   5.541   1.163   0.594 -0.4026 -0.2621 -0.3190
 2622TIP3    H229502   5.596   1.028   0.635 -0.3851  0.7642  3.3556
 2623TIP3   OH229503   6.705   3.393   1.003  0.1550  0.8048 -0.1123
 2623TIP3    H129504   6.751   3.448   1.067  1.1276 -1.0000  0.8509
 2623TIP3    H229505   6.618   3.381   1.040  0.3126  0.7727  0.2540
 2624TIP3   OH229506   3.871   4.782   2.608 -0.1388  0.0532 -0.1492
 2624TIP3    H129507   3.946   4.836   2.586  0.6380 -0.8125  0.3243
 2624TIP3    H229508   3.796   4.827   2.569  0.8923 -0.3280 -2.7267
 2625TIP3   OH229509   4.339   6.528   3.196  0.0976 -0.4547  0.1521
 2625TIP3    H129510   4.394   6.551   3.121  0.2052  1.6455  0.7952
 2625TIP3    H229511   4.399   6.487   3.258  0.3918 -0.5386 -0.1838
 2626TIP3   OH229512   2.350   5.987   1.629  0.0568  0.6397 -0.0754
 2626TIP3    H129513   2.279   5.991   1.564  1.4449  1.1994 -1.6386
 2626TIP3    H229514   2.306   5.964   1.711 -1.6316 -1.5329 -1.4553
 2627TIP3   OH229515   2.180   6.780   3.507 -0.6111 -0.2745  0.3870
 2627TIP3    H129516   2.205   6.850   3.447  1.0201  0.3439  1.7111
 2627TIP3    H229517   2.217   6.806   3.591 -1.5685 -1.8367  1.3454
 2628TIP3   OH229518   4.137   4.807   1.113 -0.2883  0.7460 -0.3525
 2628TIP3    H129519   4.227   4.780   1.096 -0.5188 -0.5856  0.4360
 2628TIP3    H229520   4.127   4.888   1.063  1.0362  0.4007 -1.2365
 2629TIP3   OH229521   0.376   2.729   2.057 -0.0112 -0.2316  0.4925
 2629TIP3    H129522   0.446   2.664   2.064 -0.2984 -0.7128 -0.8587
 2629TIP3    H229523   0.396   2.778   1.978 -1.7311 -1.0386 -0.4971
 2630TIP3   OH229524   0.164   5.851   3.729  0.1570  0.4024  0.0726
 2630TIP3    H129525   0.124   5.815   3.808  1.0832  0.0841  0.4135
 2630TIP3    H229526   0.178   5.944   3.749  2.8544 -0.1878  1.3804
 2631TIP3   OH229527   0.175   6.747   2.379 -0.2301 -0.5204  0.4986
 2631TIP3    H129528   0.200   6.667   2.332 -1.5946 -0.3449 -0.5943
 2631TIP3    H229529   0.146   6.716   2.465  1.8034 -0.9030  1.0822
 2632TIP3   OH229530   3.250   6.160   0.265  0.1485  0.2677  0.2519
 2632TIP3    H129531   3.333   6.134   0.227  0.2652  2.0429 -0.8385
 2632TIP3    H229532   3.265   6.250   0.296 -1.0126  0.1689  1.1757
 2633TIP3   OH229533   4.600   6.663   1.939  0.4664 -0.0598 -0.1739
 2633TIP3    H129534   4.545   6.701   1.870 -0.9603 -0.5674  0.6364
 2633TIP3    H229535   4.568   6.573   1.947 -0.7111  0.4799  2.3823
 2634TIP3   OH229536   0.263   5.581   0.537  0.0104 -0.0100  0.2240
 2634TIP3    H129537   0.247   5.582   0.443 -0.9909 -0.3378  0.3776
 2634TIP3    H229538   0.176   5.589   0.576  0.1735 -1.9382  1.1151
 2635TIP3   OH229539   4.748   0.217   3.143  0.5575 -0.1238 -0.2515
 2635TIP3    H129540   4.712   0.154   3.206  0.1757  0.6206  0.2949
 2635TIP3    H229541   4.795   0.163   3.080 -0.5663 -1.0514 -0.3449
 2636TIP3   OH229542   3.267   2.654   1.586  0.0287  0.0008 -0.3275
 2636TIP3    H129543   3.304   2.567   1.572 -0.5986 -0.0769 -1.6632
 2636TIP3    H229544   3.288   2.675   1.677  0.8985 -1.1966 -0.2339
 2637TIP3   OH229545   5.586   0.144   0.686 -0.3414  0.3549  0.3486
 2637TIP3    H129546   5.676   0.176   0.677 -0.1602  0.4493  2.2087
 2637TIP3    H229547   5.589   0.084   0.760 -1.7403  0.0384  0.1725
 2638TIP3   OH229548   4.105   5.814   1.524 -0.3653  0.4170  0.7394
 2638TIP3    H129549   4.077   5.852   1.440 -0.1480  1.6289  1.1857
 2638TIP3    H229550   4.141   5.729   1.501 -3.0681 -0.6152 -0.0146
 2639TIP3   OH229551   0.641   1.527   0.148 -0.0227  0.5089  0.3926
 2639TIP3    H129552   0.557   1.516   0.192 -1.2323  0.3134 -1.8272
 2639TIP3    H229553   0.618   1.549   0.057  2.2706 -1.7246 -0.8682
 2640TIP3   OH229554   6.028   2.602   2.711 -0.1424 -0.1833  0.0406
 2640TIP3    H129555   5.976   2.522   2.722  0.1208 -0.1533  1.7355
 2640TIP3    H229556   6.119   2.573   2.721 -0.0692  0.3741  1.1029
 2641TIP3   OH229557   4.893   4.571   3.898 -0.1078 -0.2634  0.6213
 2641TIP3    H129558   4.967   4.565   3.959 -0.1411 -1.4749  0.5604
 2641TIP3    H229559   4.830   4.507   3.931 -0.7820  0.1723  0.1955
 2642TIP3   OH229560   2.712   1.530   3.692 -0.2681  0.1865  0.2353
 2642TIP3    H129561   2.700   1.618   3.727 -0.7151 -0.2767  1.2886
 2642TIP3    H229562   2.801   1.506   3.718 -0.0746  0.4003 -0.2253
 2643TIP3   OH229563   6.276   3.536   1.768  0.3130  0.2277  0.5144
 2643TIP3    H129564   6.211   3.545   1.839 -0.7228 -1.6160 -0.1097
 2643TIP3    H229565   6.264   3.614   1.714 -0.1010  0.8065  1.4157
 2644TIP3   OH229566   5.375   3.093   1.561  0.1506  0.0922 -0.1012
 2644TIP3    H129567   5.420   3.016   1.597 -4.5020 -2.0576  1.9166
 2644TIP3    H229568   5.337   3.062   1.479  1.3406  1.5360 -1.2508
 2645TIP3   OH229569   2.588   2.062   3.775  0.0348  0.2460 -0.0718
 2645TIP3    H129570   2.677   2.046   3.808  0.0018 -2.2903 -1.0263
 2645TIP3    H229571   2.602   2.096   3.686  0.0751 -0.7177 -0.4451
 2646TIP3   OH229572   2.932   2.424   3.695  0.1013  0.1928 -0.1691
 2646TIP3    H129573   2.930   2.476   3.776  1.4979  0.3352 -0.2059
 2646TIP3    H229574   2.956   2.336   3.724  3.1065  0.7732 -0.6319
 2647TIP3   OH229575   2.187   3.435   3.523  0.0929  0.4785 -0.5793
 2647TIP3    H129576   2.248   3.418   3.451 -0.6033  2.2774 -1.6798
 2647TIP3    H229577   2.206   3.368   3.588  1.6840 -0.3749 -1.8622
 2648TIP3   OH229578   6.247   0.634   0.620  0.2546  0.0136 -0.3297
 2648TIP3    H129579   6.239   0.618   0.714  2.4064  1.0576  0.1014
 2648TIP3    H229580   6.182   0.702   0.602  1.1264  1.2081  0.8454
 2649TIP3   OH229581   5.649   0.279   2.750  0.1517  0.0211 -0.5028
 2649TIP3    H129582   5.674   0.361   2.794 -0.1998 -0.0866 -0.1002
 2649TIP3    H229583   5.555   0.289   2.733  0.3697  0.2746 -1.6938
 2650TIP3   OH229584   1.442   0.425   2.687 -0.3009  0.1599  0.5463
 2650TIP3    H129585   1.423   0.518   2.698  3.8232  1.1758  0.8829
 2650TIP3    H229586   1.490   0.420   2.604 -2.2209 -2.0997 -0.5446
 2651TIP3   OH229587   4.233   3.413   3.741  0.0356  0.6246 -0.0367
 2651TIP3    H129588   4.192   3.452   3.819 -0.5546 -2.7308  1.5187
 2651TIP3    H229589   4.326   3.413   3.761  0.0523  1.2465 -0.0902
 2652TIP3   OH229590   4.921   3.078   1.095  0.0830 -0.3129 -0.0195
 2652TIP3    H129591   4.935   3.172   1.087  0.6949 -0.4319 -0.4601
 2652TIP3    H229592   4.840   3.069   1.146 -1.0132  0.4629 -1.5427
 2653TIP3   OH229593   0.999   2.999   1.879  0.1285 -0.4440 -0.0617
 2653TIP3    H129594   0.993   2.933   1.810 -0.1038  2.1283 -2.7345
 2653TIP3    H229595   0.908   3.019   1.901  0.1644 -0.3178 -0.0248
 2654TIP3   OH229596   4.204   3.637   1.700 -0.0752  0.9454  0.6732
 2654TIP3    H129597   4.145   3.650   1.626 -0.6890  0.6886  1.1053
 2654TIP3    H229598   4.155   3.581   1.760  0.5709  0.8163  1.0916
 2655TIP3   OH229599   4.390   4.092   0.159 -0.1134  0.4042 -0.3313
 2655TIP3    H129600   4.355   4.103   0.247  0.0936 -2.4283  0.1795
 2655TIP3    H229601   4.418   4.180   0.133 -1.9618  1.6589  1.6246
 2656TIP3   OH229602   3.228   4.520   2.448 -0.4078  0.2678  0.5209
 2656TIP3    H129603   3.193   4.440   2.410 -1.6592  0.2030  1.7676
 2656TIP3    H229604   3.288   4.491   2.517 -1.5336  0.3743  1.5737
 2657TIP3   OH229605   5.568   6.914   1.826 -0.3497  0.3725 -0.0364
 2657TIP3    H129606   5.564   6.823   1.858  1.9384 -0.4161 -1.7075
 2657TIP3    H229607   5.511   6.914   1.748 -1.0699  0.6536  0.4760
 2658TIP3   OH229608   3.364   6.603   3.656 -0.5222 -0.4531  0.3643
 2658TIP3    H129609   3.380   6.534   3.720  1.8673  0.6804  1.1128
 2658TIP3    H229610   3.416   6.578   3.580 -1.1193 -0.3781 -0.0777
 2659TIP3   OH229611   4.362   2.989   0.351  0.4905 -0.0508 -0.4039
 2659TIP3    H129612   4.354   2.928   0.424 -0.3451 -0.3397 -0.7337
 2659TIP3    H229613   4.335   3.074   0.386 -2.5427 -0.6566 -1.0147
 2660TIP3   OH229614   6.007   6.787   4.137 -0.1283 -0.4988  0.3295
 2660TIP3    H129615   5.995   6.882   4.141 -0.7349 -0.5846  0.6001
 2660TIP3    H229616   5.930   6.755   4.090  0.6495 -0.7518 -0.8336
 2661TIP3   OH229617   0.943   2.955   0.224  0.3790 -0.0073 -0.5253
 2661TIP3    H129618   0.955   2.866   0.256  2.1795 -0.6446 -2.7341
 2661TIP3    H229619   1.019   3.003   0.258  1.9692 -0.5399 -3.0342
 2662TIP3   OH229620   0.735   0.915   2.025  0.5172  0.1207 -0.7371
 2662TIP3    H129621   0.665   0.980   2.029  0.0561 -0.4306  1.1609
 2662TIP3    H229622   0.698   0.843   1.974  0.1068  0.2937 -0.6898
 2663TIP3   OH229623   5.905   1.346   0.230  0.2060  0.1177 -0.7578
 2663TIP3    H129624   5.978   1.284   0.228  1.4048  1.3950  0.4692
 2663TIP3    H229625   5.829   1.294   0.254  0.8425 -1.1268 -1.3628
 2664TIP3   OH229626   6.935   3.195   1.884 -0.1444 -0.0942  0.0999
 2664TIP3    H129627   7.027   3.172   1.870 -0.0527  0.1464  0.2872
 2664TIP3    H229628   6.927   3.201   1.980 -0.7660 -1.7535  0.1772
 2665TIP3   OH229629   3.899   3.930   3.840 -0.1604 -0.3991 -0.6710
 2665TIP3    H129630   3.945   3.969   3.766 -0.3183 -1.3448 -1.2763
 2665TIP3    H229631   3.806   3.944   3.823 -0.1440  1.3879  0.4849
 2666TIP3   OH229632   5.990   6.631   1.476  0.0187  0.1337 -0.0869
 2666TIP3    H129633   6.019   6.652   1.387 -1.1483 -0.3812 -0.6095
 2666TIP3    H229634   6.070   6.635   1.528  0.6694  0.8096 -1.0861
 2667TIP3   OH229635   4.132   3.625   3.108  0.7680 -0.0172  0.1113
 2667TIP3    H129636   4.082   3.693   3.153  0.7948 -0.6099  1.0662
 2667TIP3    H229637   4.125   3.549   3.166  2.0149 -0.3774 -0.1995
 2668TIP3   OH229638   2.086   6.169   4.101  0.5658  0.0955 -0.5162
 2668TIP3    H129639   2.112   6.247   4.150  0.5035 -0.4083  0.3461
 2668TIP3    H229640   2.126   6.180   4.015  2.1819  0.1716  0.2093
 2669TIP3   OH229641   3.994   2.904   8.102 -0.3280  0.1746 -0.6265
 2669TIP3    H129642   4.020   2.956   8.178 -1.3356  0.3006 -0.3459
 2669TIP3    H229643   3.982   2.968   8.032 -0.8594  0.2526 -0.4745
 2670TIP3   OH229644   0.270   2.761   0.993  0.1450  0.1607  0.0830
 2670TIP3    H129645   0.176   2.751   0.976  0.2175 -1.7806  0.5368
 2670TIP3    H229646   0.309   2.768   0.906 -0.4080  1.1312 -0.1062
 2671TIP3   OH229647   4.673   4.428   0.356  0.0607 -0.1729 -0.0621
 2671TIP3    H129648   4.638   4.483   0.425  1.1051  0.1282  0.2471
 2671TIP3    H229649   4.739   4.482   0.313 -0.3861 -0.4480 -1.1398
 2672TIP3   OH229650   1.075   3.709   8.428 -0.1624  0.2686 -0.4223
 2672TIP3    H129651   1.043   3.707   8.518  0.3960  0.5153 -0.2156
 2672TIP3    H229652   1.074   3.618   8.400  0.4158  0.0936  0.1081
 2673TIP3   OH229653   0.615   0.647   1.995  0.0156  0.1320 -0.0619
 2673TIP3    H129654   0.590   0.593   2.069  1.3122  0.1456  0.4176
 2673TIP3    H229655   0.697   0.608   1.964 -0.1353  0.5562 -1.0480
 2674TIP3   OH229656   4.451   3.616   0.813 -0.2591 -0.7369 -0.1163
 2674TIP3    H129657   4.478   3.591   0.724 -2.4461 -0.7086 -0.8504
 2674TIP3    H229658   4.432   3.532   0.856 -3.5236 -0.6946 -1.2121
 2675TIP3   OH229659   4.904   2.050   0.126 -0.5048 -0.1463  0.3568
 2675TIP3    H129660   4.908   1.956   0.108 -0.4087  0.1249 -1.1053
 2675TIP3    H229661   4.981   2.067   0.181  0.4078 -0.6441 -0.7356
 2676TIP3   OH229662   4.622   5.558   3.712  0.1187 -0.1146  0.0756
 2676TIP3    H129663   4.555   5.497   3.743 -2.4030  0.9662 -2.8110
 2676TIP3    H229664   4.639   5.532   3.622 -0.4639  2.9027 -0.9919
 2677TIP3   OH229665   5.168   6.569   2.536 -0.1942  0.3564 -0.1641
 2677TIP3    H129666   5.145   6.486   2.494 -0.9056 -0.8642  2.4268
 2677TIP3    H229667   5.085   6.617   2.541 -0.4089 -0.1008  0.9971
 2678TIP3   OH229668   5.902   2.833   1.567 -0.0385  0.1182 -0.0544
 2678TIP3    H129669   5.949   2.798   1.644 -0.1335  0.5213  0.1893
 2678TIP3    H229670   5.829   2.772   1.554  0.5088 -0.4775 -0.3974
 2679TIP3   OH229671   2.558   2.071   2.944  0.2579 -0.2327 -0.0686
 2679TIP3    H129672   2.597   2.054   2.858  1.0441 -0.3100  0.2960
 2679TIP3    H229673   2.498   1.998   2.958  0.3226 -0.3606 -0.4300
 2680TIP3   OH229674   5.232   4.334   3.442  0.6062 -0.1774  0.1980
 2680TIP3    H129675   5.316   4.357   3.481  0.5288  0.0469  0.2365
 2680TIP3    H229676   5.178   4.305   3.516  0.9149 -1.1310  0.0606
 2681TIP3   OH229677   0.946   2.412   8.311 -0.7315 -0.3287  0.3361
 2681TIP3    H129678   0.961   2.451   8.397  2.4571  0.4966 -0.4399
 2681TIP3    H229679   0.966   2.319   8.322 -0.8522 -0.3227  0.6057
 2682TIP3   OH229680   6.902   0.357   0.327 -0.0675 -0.5910 -0.6073
 2682TIP3    H129681   6.810   0.384   0.325 -0.3614 -1.5458 -0.5358
 2682TIP3    H229682   6.950   0.437   0.351 -1.0456 -0.4700  1.1869
 2683TIP3   OH229683   6.011   0.222   0.654  0.6654 -0.4699 -0.4557
 2683TIP3    H129684   5.988   0.305   0.696  1.1078 -0.3754 -0.3891
 2683TIP3    H229685   5.956   0.157   0.697 -0.1284 -0.1283 -0.9298
 2684TIP3   OH229686   0.485   1.083   2.096 -0.1524 -0.0172  0.4153
 2684TIP3    H129687   0.517   1.170   2.119  2.2010 -0.7053 -0.0210
 2684TIP3    H229688   0.409   1.100   2.039  1.1551  1.7974 -0.9085
 2685TIP3   OH229689   0.464   2.055   1.195 -0.5052 -0.1659 -0.6044
 2685TIP3    H129690   0.383   2.048   1.145 -0.5915 -0.2394 -0.4550
 2685TIP3    H229691   0.512   2.127   1.153 -0.5689 -0.2369 -0.8000
 2686TIP3   OH229692   3.443   6.400   1.065 -0.4030 -0.8311 -0.5264
 2686TIP3    H129693   3.425   6.494   1.074 -0.4721 -0.9896  1.6011
 2686TIP3    H229694   3.370   6.358   1.110 -0.2073 -1.9042 -1.1898
 2687TIP3   OH229695   6.117   2.254   8.039  0.6126 -0.0085 -0.6593
 2687TIP3    H129696   6.163   2.302   7.970 -0.9634  1.0425 -1.0288
 2687TIP3    H229697   6.093   2.171   7.999  1.6664 -0.3303 -0.6402
 2688TIP3   OH229698   0.553   6.737   3.836 -0.1214 -0.2915  0.3190
 2688TIP3    H129699   0.645   6.736   3.812 -0.0812  2.8865 -0.1468
 2688TIP3    H229700   0.551   6.778   3.922 -1.0369 -1.6542  0.9798
 2689TIP3   OH229701   6.153   2.510   1.750 -0.0933 -0.5796  0.2114
 2689TIP3    H129702   6.127   2.589   1.796 -0.9351 -1.5252  1.4403
 2689TIP3    H229703   6.089   2.444   1.778  0.1486 -1.5243 -1.3294
 2690TIP3   OH229704   2.444   4.731   3.072 -0.3916  0.0102 -0.1185
 2690TIP3    H129705   2.480   4.655   3.026 -2.0459  0.0356 -1.5939
 2690TIP3    H229706   2.381   4.694   3.134  1.3133  0.0240  1.7051
 2691TIP3   OH229707   5.352   3.484   2.496  0.6406 -0.4497  0.1555
 2691TIP3    H129708   5.328   3.456   2.408  1.7428 -2.9813  0.5999
 2691TIP3    H229709   5.277   3.459   2.551 -0.1090  1.2538 -0.0100
 2692TIP3   OH229710   0.661   2.211   1.107 -0.3034 -0.3010 -0.1675
 2692TIP3    H129711   0.739   2.232   1.057 -1.4152 -0.4449 -2.0318
 2692TIP3    H229712   0.631   2.296   1.140 -0.5005  0.0450 -1.2019
 2693TIP3   OH229713   6.329   1.021   0.354 -0.0524 -0.2870  0.3710
 2693TIP3    H129714   6.408   0.967   0.363  0.2565  0.0619 -0.1530
 2693TIP3    H229715   6.348   1.100   0.404  0.6139  0.5143 -1.0714
 2694TIP3   OH229716   5.980   6.833   2.052  0.4598 -0.5316  0.7635
 2694TIP3    H129717   6.042   6.905   2.043 -0.4948  0.1641 -0.7369
 2694TIP3    H229718   5.895   6.877   2.066 -0.1756 -1.3214 -0.4391
 2695TIP3   OH229719   0.920   0.443   8.167  0.1001  0.5000 -0.2052
 2695TIP3    H129720   0.874   0.376   8.115  1.2024  0.0861 -0.6812
 2695TIP3    H229721   1.012   0.433   8.142  0.7094  0.1677  1.9615
 2696TIP3   OH229722   6.173   2.560   1.436 -0.1916  0.3568  0.1327
 2696TIP3    H129723   6.134   2.575   1.522  0.1786  2.1072  0.0327
 2696TIP3    H229724   6.102   2.524   1.383 -0.4104 -0.7980  1.1562
 2697TIP3   OH229725   3.152   5.574   0.355 -0.0493 -0.1024 -0.4014
 2697TIP3    H129726   3.195   5.645   0.308 -0.2751  0.6548  0.4928
 2697TIP3    H229727   3.061   5.576   0.325  0.1002 -0.4761 -0.8921
 2698TIP3   OH229728   6.595   4.674   3.697 -0.8504 -0.3895  0.0563
 2698TIP3    H129729   6.594   4.591   3.650 -0.7876  0.3960 -1.3773
 2698TIP3    H229730   6.686   4.704   3.690 -0.8762 -0.1871  0.5541
 2699TIP3   OH229731   6.183   1.464   8.052  0.7179  0.2596  0.0965
 2699TIP3    H129732   6.088   1.456   8.053  0.6623  0.8187 -0.3653
 2699TIP3    H229733   6.200   1.550   8.013  1.4035  0.3153  0.4995
 2700TIP3   OH229734   4.713   6.321   1.477  0.5824  0.2294  0.4740
 2700TIP3    H129735   4.750   6.258   1.415 -3.6861 -1.6919 -0.5331
 2700TIP3    H229736   4.736   6.286   1.563  2.2394 -0.0006 -0.0357
 2701TIP3   OH229737   3.322   1.323   0.044  0.2549  0.1966 -0.6995
 2701TIP3    H129738   3.253   1.266   0.011 -0.0201  0.4497 -0.5583
 2701TIP3    H229739   3.403   1.285   0.008  0.4743 -2.1932  1.9060
 2702TIP3   OH229740   1.335   3.750   2.577 -0.3443  0.2124  0.3671
 2702TIP3    H129741   1.378   3.827   2.537  1.3820 -1.5833 -1.4720
 2702TIP3    H229742   1.379   3.740   2.661  2.0109 -0.7403 -0.8725
 2703TIP3   OH229743   0.392   5.927   7.950  0.4704  0.0807 -0.5232
 2703TIP3    H129744   0.413   6.020   7.940  0.3738  0.0391 -1.1489
 2703TIP3    H229745   0.298   5.925   7.967  0.6227  0.1476  0.3583
 2704TIP3   OH229746   6.827   0.939   7.745  0.8863  0.3259 -0.0236
 2704TIP3    H129747   6.833   0.950   7.840  0.1314  1.3590 -0.0818
 2704TIP3    H229748   6.763   0.870   7.733  1.1178  0.0651  0.2240
 2705TIP3   OH229749   0.372   6.521   4.059  0.1770  0.2895 -0.3369
 2705TIP3    H129750   0.384   6.427   4.069  3.9030  0.7555  1.5976
 2705TIP3    H229751   0.388   6.538   3.966  0.8338 -0.8761 -0.4527
 2706TIP3   OH229752   1.033   0.261   0.676 -0.0867 -0.3265  0.2542
 2706TIP3    H129753   1.025   0.166   0.668 -0.2020 -0.3308  0.4192
 2706TIP3    H229754   1.072   0.289   0.593 -1.3844 -0.3526 -0.3934
 2707TIP3   OH229755   2.295   5.219   3.531  0.2530  0.1643  0.1134
 2707TIP3    H129756   2.218   5.239   3.583 -1.3815  0.1697 -2.1500
 2707TIP3    H229757   2.269   5.144   3.477  1.7377  0.3238 -0.8927
 2708TIP3   OH229758   0.312   6.431   3.319 -0.3488  0.4171  0.0767
 2708TIP3    H129759   0.281   6.496   3.382  2.1053  1.5777  0.1890
 2708TIP3    H229760   0.289   6.469   3.234  1.4102  1.7226  0.1241
 2709TIP3   OH229761   6.031   4.876   3.663 -0.0621 -0.2704  0.0435
 2709TIP3    H129762   5.985   4.930   3.599  0.1630 -1.9599 -1.6307
 2709TIP3    H229763   5.971   4.805   3.682 -0.7406  0.9523  2.9441
 2710TIP3   OH229764   5.187   3.339   3.573 -0.2078  0.1505 -0.2578
 2710TIP3    H129765   5.245   3.411   3.546  0.3207  0.0213  0.4999
 2710TIP3    H229766   5.151   3.306   3.492  0.2684  0.6749 -0.6937
 2711TIP3   OH229767   0.469   0.066   3.278 -0.3138 -0.4993 -0.6014
 2711TIP3    H129768   0.490   0.092   3.368 -0.7619 -1.5139 -0.1841
 2711TIP3    H229769   0.429   0.144   3.239  1.5282  0.5350 -0.5129
 2712TIP3   OH229770   6.771   6.693   8.092 -0.1264  0.5149 -0.2159
 2712TIP3    H129771   6.775   6.779   8.132  0.0908  0.0507  0.7803
 2712TIP3    H229772   6.844   6.692   8.029  0.9054  0.4761  0.9544
 2713TIP3   OH229773   6.328   5.236   1.382 -0.4094  0.3565 -0.1267
 2713TIP3    H129774   6.318   5.312   1.439 -0.1926  1.6794 -1.7773
 2713TIP3    H229775   6.264   5.250   1.312 -0.0840 -0.7816 -0.6713
 2714TIP3   OH229776   0.181   6.638   8.239  0.7373  0.0583 -0.0755
 2714TIP3    H129777   0.174   6.578   8.314 -0.2288  1.4101  0.9753
 2714TIP3    H229778   0.151   6.722   8.274 -0.6536  0.5312 -2.2509
 2715TIP3   OH229779   6.591   3.722   2.455  0.1401 -0.2924  0.1365
 2715TIP3    H129780   6.502   3.758   2.455 -0.3565 -1.4644 -0.3980
 2715TIP3    H229781   6.603   3.689   2.366  0.8900 -0.6682  0.3746
 2716TIP3   OH229782   6.639   1.251   1.320 -0.6379 -0.5595  0.1786
 2716TIP3    H129783   6.633   1.282   1.229  0.9029 -0.9075 -0.0734
 2716TIP3    H229784   6.722   1.288   1.352 -0.8390 -0.9921  1.2211
 2717TIP3   OH229785   5.453   5.070   8.326  0.1010 -0.0240 -0.7117
 2717TIP3    H129786   5.524   5.029   8.276 -0.0033 -1.7474  0.4952
 2717TIP3    H229787   5.474   5.164   8.324  1.9074 -0.4009 -1.1596
 2718TIP3   OH229788   2.274   4.551   4.231  0.6161 -0.1566 -0.2626
 2718TIP3    H129789   2.271   4.632   4.282  2.6603 -1.0844  1.4925
 2718TIP3    H229790   2.202   4.498   4.265  0.3521  0.2348 -0.2023
 2719TIP3   OH229791   5.925   5.323   2.463 -0.3022 -0.5257 -0.4416
 2719TIP3    H129792   5.966   5.319   2.550 -0.6736  0.3351 -0.2118
 2719TIP3    H229793   5.831   5.327   2.482 -0.3712 -0.0698 -0.8694
 2720TIP3   OH229794   3.439   3.309   3.229 -0.6413 -0.1632 -0.3747
 2720TIP3    H129795   3.522   3.308   3.276 -1.6827  0.6515  1.6170
 2720TIP3    H229796   3.463   3.299   3.137  1.7318  1.2350  0.0169
 2721TIP3   OH229797   6.687   3.319   3.178  0.1702 -0.4439 -0.3081
 2721TIP3    H129798   6.611   3.377   3.190 -0.8643 -0.9674 -3.3051
 2721TIP3    H229799   6.761   3.370   3.210 -1.2409  0.7181  1.2818
 2722TIP3   OH229800   0.222   2.096   0.797 -0.1956  0.3321 -0.2089
 2722TIP3    H129801   0.275   2.176   0.795 -0.2205  0.3679  0.2675
 2722TIP3    H229802   0.143   2.118   0.747  0.5116  0.0729 -1.4507
 2723TIP3   OH229803   6.896   2.700   0.010  0.2294  0.4021 -0.1303
 2723TIP3    H129804   6.892   2.731  -0.081 -0.5943  1.8763  0.3802
 2723TIP3    H229805   6.942   2.616   0.004 -0.9703 -0.1804 -2.0703
 2724TIP3   OH229806   1.878   3.542   1.414 -0.6163  0.5552  0.5167
 2724TIP3    H129807   1.935   3.473   1.380  0.7986  0.8999  2.0663
 2724TIP3    H229808   1.886   3.613   1.349 -1.3676 -0.3484 -0.6055
 2725TIP3   OH229809   0.412   4.625   0.376 -0.3756 -0.3736  0.0008
 2725TIP3    H129810   0.475   4.669   0.433 -0.4809 -0.1332 -0.0678
 2725TIP3    H229811   0.465   4.565   0.324 -0.2392 -0.3753  0.1398
 2726TIP3   OH229812   6.719   3.720   1.553  0.3065  0.5401 -0.0754
 2726TIP3    H129813   6.700   3.805   1.513 -1.5504  0.6462  0.9197
 2726TIP3    H229814   6.653   3.661   1.517  0.1716  0.0590  0.9289
 2727TIP3   OH229815   6.005   3.663   0.087 -0.1979  0.2287 -0.9452
 2727TIP3    H129816   5.956   3.744   0.070 -0.2401  0.5050  0.4062
 2727TIP3    H229817   6.094   3.692   0.106 -0.0627 -0.0956 -1.0761
 2728TIP3   OH229818   5.638   2.341   3.590  0.4564 -0.4711 -0.1540
 2728TIP3    H129819   5.585   2.348   3.670  1.1886  0.2993  0.2826
 2728TIP3    H229820   5.678   2.254   3.595  0.5675 -0.3947  0.3665
 2729TIP3   OH229821   4.400   4.745   8.408 -0.4020  0.4364 -0.5872
 2729TIP3    H129822   4.442   4.815   8.457  2.6768 -1.4628 -0.2530
 2729TIP3    H229823   4.372   4.683   8.475  2.2460 -1.3350 -0.9696
 2730TIP3   OH229824   4.031   0.083   2.763 -0.1183  0.2288 -0.0267
 2730TIP3    H129825   4.011   0.040   2.846 -0.4899  0.8870  0.2303
 2730TIP3    H229826   3.949   0.123   2.736  0.0243  0.1034 -0.6695
 2731TIP3   OH229827   6.435   5.577   8.148 -0.1944  0.1555 -0.0296
 2731TIP3    H129828   6.464   5.634   8.078  1.4259 -0.2770  0.2380
 2731TIP3    H229829   6.481   5.609   8.226 -0.6575 -0.4000  0.4836
 2732TIP3   OH229830   6.361   5.910   3.317  0.1999 -0.0971 -0.1635
 2732TIP3    H129831   6.319   5.954   3.243 -1.1466  0.2591  0.7691
 2732TIP3    H229832   6.291   5.855   3.354  1.2830 -1.4666 -0.0832
 2733TIP3   OH229833   3.839   4.464   0.089 -0.0607  0.1575  0.3723
 2733TIP3    H129834   3.810   4.373   0.092  1.2696 -0.3526 -0.8814
 2733TIP3    H229835   3.759   4.515   0.075 -0.8463 -0.7778  1.3162
 2734TIP3   OH229836   3.697   6.879   8.465 -0.1117 -0.4644 -0.4757
 2734TIP3    H129837   3.739   6.867   8.550  1.6164 -2.0920 -1.4689
 2734TIP3    H229838   3.638   6.804   8.456 -0.2563 -0.3221 -0.7189
 2735TIP3   OH229839   2.977   5.477   4.234  0.0303  0.4012  0.6514
 2735TIP3    H129840   2.913   5.526   4.182  0.5487  0.6812  0.2665
 2735TIP3    H229841   2.932   5.397   4.259 -0.1494  0.1380 -0.4594
 2736TIP3   OH229842   0.740   6.471   4.058 -0.7774 -0.0119  0.1504
 2736TIP3    H129843   0.812   6.527   4.030  0.8637 -2.0821 -0.0449
 2736TIP3    H229844   0.664   6.529   4.062  0.9415  2.3437  0.6740
 2737TIP3   OH229845   3.169   2.858   4.135  0.1493  0.3136  0.0823
 2737TIP3    H129846   3.215   2.931   4.095  0.6229 -1.0916 -2.0956
 2737TIP3    H229847   3.092   2.845   4.080  0.8536 -1.7351 -0.5005
 2738TIP3   OH229848   6.867   1.116   4.092  0.1298  0.0911 -0.4777
 2738TIP3    H129849   6.883   1.211   4.094 -0.4435  0.1865  0.9612
 2738TIP3    H229850   6.952   1.078   4.073  0.6084  0.8618  0.0364
 2739TIP3   OH229851   5.296   3.003   3.505 -0.0885  0.1660 -0.0447
 2739TIP3    H129852   5.362   3.045   3.561 -0.8091  1.9748 -0.4791
 2739TIP3    H229853   5.236   3.074   3.483  0.1801 -0.4423 -3.1243
 2740TIP3   OH229854   3.800   1.867   0.591  0.1930 -0.0348 -0.0477
 2740TIP3    H129855   3.835   1.798   0.648  1.9433 -0.0322 -1.0601
 2740TIP3    H229856   3.735   1.912   0.646  0.0990 -1.5250  1.1298
 2741TIP3   OH229857   6.164   5.112   1.855  0.7756  0.4187  0.2266
 2741TIP3    H129858   6.224   5.155   1.794  0.4065 -0.9653 -1.1742
 2741TIP3    H229859   6.186   5.019   1.849 -2.1053 -0.2768 -1.0745
 2742TIP3   OH229860   0.520   6.415   0.090 -0.2178 -0.5867 -0.2795
 2742TIP3    H129861   0.490   6.327   0.112 -2.6548 -0.1233 -1.3688
 2742TIP3    H229862   0.452   6.449   0.031  1.9663  1.0667 -2.0160
 2743TIP3   OH229863   2.008   5.211   0.187 -0.4292 -0.7057 -0.3851
 2743TIP3    H129864   2.014   5.144   0.254  1.6727  0.2961  0.4979
 2743TIP3    H229865   2.015   5.163   0.104 -0.4398 -1.7094  0.1870
 2744TIP3   OH229866   2.596   0.549   1.997 -0.1251  0.5441 -0.7292
 2744TIP3    H129867   2.553   0.630   2.027 -3.0566 -1.6854  1.7980
 2744TIP3    H229868   2.647   0.520   2.073 -0.8096 -0.9509 -0.7948
 2745TIP3   OH229869   4.648   6.224   1.745  0.3918  0.5048  0.0192
 2745TIP3    H129870   4.666   6.166   1.819 -1.0209  2.0858  1.6872
 2745TIP3    H229871   4.710   6.296   1.754  3.1799 -1.2463 -2.8966
 2746TIP3   OH229872   2.467   0.305   4.017  0.4799  0.2495 -0.5746
 2746TIP3    H129873   2.507   0.361   3.950  1.3967  1.3442  0.8041
 2746TIP3    H229874   2.521   0.226   4.018 -0.1564 -0.2215 -1.7950
 2747TIP3   OH229875   1.628   0.061   3.400 -0.1381 -0.8013 -0.2429
 2747TIP3    H129876   1.629   0.154   3.381  1.7932 -0.2999  1.8525
 2747TIP3    H229877   1.607   0.056   3.493 -0.3617 -2.4891 -0.3526
 2748TIP3   OH229878   5.742   0.857   1.418 -0.3036 -0.5413 -0.0208
 2748TIP3    H129879   5.739   0.761   1.408  1.0073 -0.5629 -0.4322
 2748TIP3    H229880   5.803   0.886   1.350  0.0756  0.4908  0.7376
 2749TIP3   OH229881   4.646   1.635   1.580 -0.1964 -0.1290  0.3150
 2749TIP3    H129882   4.571   1.611   1.634 -0.1263 -1.8214 -0.2812
 2749TIP3    H229883   4.719   1.585   1.618  0.7380  1.7588  1.1103
 2750TIP3   OH229884   1.779   4.560   3.340  0.0892 -0.6926  0.1202
 2750TIP3    H129885   1.860   4.543   3.294  0.0419  0.5460 -0.4672
 2750TIP3    H229886   1.761   4.653   3.324 -0.6299 -0.5569  1.5179
 2751TIP3   OH229887   3.217   5.087   0.574  0.0046 -0.3367 -0.3993
 2751TIP3    H129888   3.291   5.140   0.603  0.1840  0.2963 -1.9422
 2751TIP3    H229889   3.141   5.144   0.583 -0.2571 -0.8244  0.7132
 2752TIP3   OH229890   2.782   2.019   1.039  0.2068  0.0163  0.1904
 2752TIP3    H129891   2.770   2.113   1.036  1.9780  0.2545 -1.6686
 2752TIP3    H229892   2.722   1.984   0.974 -1.3967 -0.3226  1.7811
 2753TIP3   OH229893   2.463   5.822   1.173 -0.6462  0.2210 -0.1770
 2753TIP3    H129894   2.486   5.878   1.247  1.3482 -1.5994  0.6681
 2753TIP3    H229895   2.367   5.819   1.175 -0.6841  1.0493  1.7049
 2754TIP3   OH229896   5.184   4.886   0.519  0.3443  0.6485  0.1482
 2754TIP3    H129897   5.242   4.816   0.489 -0.3106  0.1157  0.1081
 2754TIP3    H229898   5.185   4.950   0.448  0.5130  0.4260 -0.0522
 2755TIP3   OH229899   2.816   4.480   3.854  0.0409 -0.4519  0.3106
 2755TIP3    H129900   2.842   4.540   3.924  0.2039  1.2470 -1.1361
 2755TIP3    H229901   2.834   4.393   3.889 -0.2078  0.3072  2.4956
 2756TIP3   OH229902   5.874   0.308   3.736  0.4080 -0.2657  0.1479
 2756TIP3    H129903   5.954   0.344   3.774  2.3890 -2.6866 -1.3982
 2756TIP3    H229904   5.881   0.214   3.749 -0.6051 -0.8623 -2.7444
 2757TIP3   OH229905   2.056   4.351   2.013 -0.1260  0.7016  0.7128
 2757TIP3    H129906   2.067   4.423   2.074 -0.9841 -0.6150  2.4966
 2757TIP3    H229907   2.127   4.291   2.033 -0.7807 -0.0374  0.8593
 2758TIP3   OH229908   4.952   3.589   0.851 -0.0954 -0.0448  0.5609
 2758TIP3    H129909   4.867   3.571   0.811 -0.2265  0.0854  0.7843
 2758TIP3    H229910   4.999   3.639   0.784 -1.0229  1.9236  1.2914
 2759TIP3   OH229911   1.372   5.760   0.919  0.3437 -0.3815  0.3378
 2759TIP3    H129912   1.426   5.686   0.947  0.7336 -0.1989  0.0792
 2759TIP3    H229913   1.377   5.822   0.991  2.1667  0.5301 -0.4942
 2760TIP3   OH229914   6.143   0.620   3.442  0.1390  0.1400  0.1188
 2760TIP3    H129915   6.126   0.530   3.415  0.9090  0.2892 -0.9316
 2760TIP3    H229916   6.123   0.621   3.536  1.1403 -1.3957  0.3931
 2761TIP3   OH229917   5.861   4.679   3.719 -0.4808  0.6093 -0.5445
 2761TIP3    H129918   5.784   4.652   3.668 -0.2052 -0.4951 -0.3976
 2761TIP3    H229919   5.832   4.674   3.810  0.0650 -0.8683 -0.4298
 2762TIP3   OH229920   0.343   1.639   3.013  0.4263 -0.2714 -0.4347
 2762TIP3    H129921   0.277   1.578   3.046  0.9783 -0.0991  1.0291
 2762TIP3    H229922   0.385   1.592   2.940 -0.5062 -0.8300 -0.6259
 2763TIP3   OH229923   2.662   3.363   0.477 -0.4766  0.4576 -0.1070
 2763TIP3    H129924   2.636   3.455   0.477 -1.5209  0.1861 -1.1143
 2763TIP3    H229925   2.603   3.321   0.539 -0.4590  0.3430 -0.1668
 2764TIP3   OH229926   4.790   5.509   0.988  0.1084 -0.5396  0.2080
 2764TIP3    H129927   4.743   5.482   1.067  3.1326  1.2202  2.8645
 2764TIP3    H229928   4.872   5.460   0.992  0.9076  0.6525 -1.1031
 2765TIP3   OH229929   0.853   3.995   2.122  0.1332  0.0375 -0.3313
 2765TIP3    H129930   0.838   4.048   2.044  2.7401  0.6695 -0.5061
 2765TIP3    H229931   0.915   4.046   2.174  0.5045 -1.5646  0.8767
 2766TIP3   OH229932   2.751   0.925   2.109 -0.2607  1.2190  0.3333
 2766TIP3    H129933   2.761   0.871   2.030  1.8185  0.9077  0.7553
 2766TIP3    H229934   2.664   0.903   2.141 -0.7591  0.5956 -1.3107
 2767TIP3   OH229935   2.546   4.595   1.507  0.4512 -0.6166 -0.4757
 2767TIP3    H129936   2.631   4.555   1.525  0.7391 -0.1552 -0.7810
 2767TIP3    H229937   2.525   4.569   1.418 -0.0268 -1.2381 -0.1938
 2768TIP3   OH229938   5.140   3.217   8.384 -0.2167 -0.4206  0.3122
 2768TIP3    H129939   5.088   3.167   8.321 -0.8894  0.4690  0.1600
 2768TIP3    H229940   5.076   3.258   8.441  0.2802  1.1895 -0.2542
 2769TIP3   OH229941   1.562   3.927   0.045 -0.4151  0.3432 -0.4259
 2769TIP3    H129942   1.484   3.876   0.023 -0.2219  0.3084 -1.0539
 2769TIP3    H229943   1.605   3.943  -0.039  0.0126  0.7563 -0.1351
 2770TIP3   OH229944   3.362   2.766   1.210  0.4248  0.2697  0.4520
 2770TIP3    H129945   3.370   2.860   1.222  0.7643  0.1459  1.2774
 2770TIP3    H229946   3.271   2.747   1.232  0.3639  0.4050  0.3142
 2771TIP3   OH229947   0.670   1.698   0.597  0.6199 -0.1467  0.5958
 2771TIP3    H129948   0.649   1.762   0.529  0.4871 -2.0099 -1.2214
 2771TIP3    H229949   0.760   1.720   0.623  1.2152 -0.2116 -1.2385
 2772TIP3   OH229950   0.718   3.365   1.152 -0.5185  0.0706 -0.0943
 2772TIP3    H129951   0.732   3.326   1.237 -0.6933 -0.7024 -0.4146
 2772TIP3    H229952   0.790   3.334   1.098  0.8370  2.2865  0.3157
 2773TIP3   OH229953   6.045   5.860   3.859  0.1657  0.0631  0.6667
 2773TIP3    H129954   6.054   5.955   3.848 -0.6181 -0.0423 -1.1324
 2773TIP3    H229955   5.982   5.850   3.930 -0.0275  0.8907  0.6207
 2774TIP3   OH229956   3.997   1.432   1.046  0.4575 -0.0066 -0.5194
 2774TIP3    H129957   3.986   1.397   1.135 -0.1144  0.1443 -0.5289
 2774TIP3    H229958   4.046   1.513   1.059  1.2648 -0.4955 -0.4425
 2775TIP3   OH229959   0.398   6.337   2.939  0.4234  0.5475 -0.6304
 2775TIP3    H129960   0.484   6.317   2.975  1.7389  2.6032 -2.3906
 2775TIP3    H229961   0.362   6.403   2.999 -0.3965 -0.9601  0.6148
 2776TIP3   OH229962   5.739   5.710   0.240  0.2534  0.2747  0.0025
 2776TIP3    H129963   5.753   5.750   0.326 -1.2254  0.3684  0.2308
 2776TIP3    H229964   5.827   5.687   0.210  0.9083  1.3349  1.0017
 2777TIP3   OH229965   6.119   6.598   0.868 -0.3260  0.1818  0.4106
 2777TIP3    H129966   6.091   6.689   0.861  0.6823  0.4146 -1.1710
 2777TIP3    H229967   6.098   6.573   0.958  0.0107  2.1750  1.0887
 2778TIP3   OH229968   1.055   5.361   2.412 -0.5856  1.0585  0.2827
 2778TIP3    H129969   1.107   5.402   2.481  0.5365  0.7555 -0.3561
 2778TIP3    H229970   1.099   5.386   2.331 -0.5615 -0.4005 -0.1923
 2779TIP3   OH229971   4.506   2.838   1.111 -0.4106  0.0874 -0.6487
 2779TIP3    H129972   4.518   2.780   1.036 -1.7608 -0.7661 -0.2378
 2779TIP3    H229973   4.573   2.811   1.174  0.0735  0.1313 -1.1435
 2780TIP3   OH229974   1.659   6.225   0.614 -0.3633  0.0628  0.0903
 2780TIP3    H129975   1.634   6.316   0.627  0.5050  0.4634 -0.8824
 2780TIP3    H229976   1.708   6.225   0.532 -1.4212 -1.4995 -0.5955
 2781TIP3   OH229977   3.257   3.234   2.298 -0.5382 -0.5366  0.0555
 2781TIP3    H129978   3.327   3.170   2.287  0.8863  0.8616  0.6415
 2781TIP3    H229979   3.242   3.237   2.393 -0.8110 -0.2168  0.0040
 2782TIP3   OH229980   3.869   4.236   3.406  0.4194  0.1991 -0.5241
 2782TIP3    H129981   3.804   4.204   3.469 -1.1530 -0.0411 -2.1423
 2782TIP3    H229982   3.862   4.331   3.410  0.7041  0.1967  0.0330
 2783TIP3   OH229983   4.737   6.057   1.401 -0.3099 -0.1962 -0.5276
 2783TIP3    H129984   4.825   6.051   1.363 -0.8277  1.1154 -2.0655
 2783TIP3    H229985   4.685   5.995   1.351 -1.0205  1.6177 -2.1839
 2784TIP3   OH229986   6.027   6.431   0.346  0.0346  0.3893 -0.4787
 2784TIP3    H129987   6.091   6.360   0.350  0.6948  1.0471  1.7611
 2784TIP3    H229988   6.003   6.447   0.437 -0.7312  2.4956 -0.9969
 2785TIP3   OH229989   1.241   4.644   0.577  1.1501  0.0833  0.2620
 2785TIP3    H129990   1.322   4.602   0.548  0.4358 -0.5942 -0.8291
 2785TIP3    H229991   1.204   4.682   0.497 -1.8804 -3.5235 -0.3255
 2786TIP3   OH229992   3.688   1.020   2.569  0.2237 -0.1338 -0.0635
 2786TIP3    H129993   3.688   1.067   2.485  1.5130  0.9586  0.5012
 2786TIP3    H229994   3.723   0.934   2.548  0.0392 -0.0505 -0.7393
 2787TIP3   OH229995   5.888   2.140   2.136 -0.0171  0.0653 -0.1020
 2787TIP3    H129996   5.978   2.134   2.103  0.1949  1.8500  0.0351
 2787TIP3    H229997   5.834   2.153   2.058 -0.2098 -1.1706 -0.2009
 2788TIP3   OH229998   4.943   3.083   7.588 -0.6216 -0.3480  0.1793
 2788TIP3    H129999   5.038   3.075   7.593 -0.5590  1.0960  2.1020
 2788TIP3    H230000   4.927   3.147   7.519 -0.1827 -0.1961  0.2196
 2789TIP3   OH230001   4.718   6.561   0.424  0.0933 -0.3661  0.5884
 2789TIP3    H130002   4.808   6.556   0.457  0.8556 -1.8177 -1.4808
 2789TIP3    H230003   4.728   6.565   0.329 -2.0324  0.5743  0.3606
 2790TIP3   OH230004   1.967   3.337   1.916  0.6915  0.1533  0.4120
 2790TIP3    H130005   1.980   3.247   1.888 -0.6909 -0.0914  0.4952
 2790TIP3    H230006   1.970   3.389   1.836  0.8994 -0.0262  0.3024
 2791TIP3   OH230007   6.706   2.188   2.442 -0.1422  0.1126  0.5741
 2791TIP3    H130008   6.688   2.202   2.349 -1.6343 -0.8454  0.6871
 2791TIP3    H230009   6.788   2.234   2.458  1.0045 -1.0542 -1.5719
 2792TIP3   OH230010   1.134   1.157   3.780 -0.6769  0.8192  0.4639
 2792TIP3    H130011   1.099   1.244   3.760 -1.0826  0.7340  0.7957
 2792TIP3    H230012   1.193   1.172   3.854 -0.4910  0.8633  0.3076
 2793TIP3   OH230013   1.849   1.000   8.332  0.2259 -0.3864  0.2439
 2793TIP3    H130014   1.855   1.088   8.369  0.5516 -0.4025  0.2366
 2793TIP3    H230015   1.785   1.007   8.262 -0.1080 -0.2649  0.5578
 2794TIP3   OH230016   2.928   4.117   1.073  0.1686 -0.2189  0.3600
 2794TIP3    H130017   2.859   4.071   1.026  1.3431 -1.2717 -0.3845
 2794TIP3    H230018   2.890   4.135   1.159 -0.1733 -3.1200  0.9124
 2795TIP3   OH230019   4.494   2.670   2.155 -0.0425 -0.1108 -0.6520
 2795TIP3    H130020   4.556   2.714   2.097 -0.5030 -0.2429 -1.2575
 2795TIP3    H230021   4.545   2.649   2.233  0.6968 -0.2981 -1.1763
 2796TIP3   OH230022   6.473   6.633   8.094 -0.5804 -0.4249  0.0859
 2796TIP3    H130023   6.435   6.686   8.024  0.1046 -1.2940 -0.9830
 2796TIP3    H230024   6.565   6.659   8.097 -0.7559  0.1478  1.2112
 2797TIP3   OH230025   6.710   2.949   1.106 -0.2387  0.0370 -0.0541
 2797TIP3    H130026   6.634   2.903   1.070 -0.4754 -0.2728  0.8058
 2797TIP3    H230027   6.694   2.951   1.201  1.5033 -1.3742  0.3455
 2798TIP3   OH230028   3.248   4.237   2.938  0.7369 -0.2392  0.4255
 2798TIP3    H130029   3.214   4.191   3.015 -0.2160 -0.6130 -0.1972
 2798TIP3    H230030   3.338   4.208   2.930  0.3746 -1.4340  0.4780
 2799TIP3   OH230031   1.302   2.993   1.324 -0.1210 -0.5688 -0.5228
 2799TIP3    H130032   1.375   3.055   1.335  1.7951 -2.7666 -0.1657
 2799TIP3    H230033   1.306   2.937   1.401 -2.0457 -0.9488 -0.6524
 2800TIP3   OH230034   1.557   3.600   3.074 -0.0487 -0.6623  0.5212
 2800TIP3    H130035   1.494   3.649   3.127  2.3661  2.9627  0.3885
 2800TIP3    H230036   1.642   3.617   3.115  1.1207 -4.5629  0.1480
 2801TIP3   OH230037   5.623   2.357   8.450  0.2226 -0.1095 -0.3222
 2801TIP3    H130038   5.551   2.403   8.406  1.8010  1.1635 -1.7175
 2801TIP3    H230039   5.617   2.385   8.541 -0.7051  0.4161 -0.5251
 2802TIP3   OH230040   6.084   4.152   0.708  0.2213 -0.3695 -0.0226
 2802TIP3    H130041   6.176   4.131   0.691  0.1219 -0.7719 -0.0774
 2802TIP3    H230042   6.079   4.160   0.803  0.1433 -1.1912  0.0507
 2803TIP3   OH230043   1.001   1.464   3.516 -0.6432  0.6149  0.5762
 2803TIP3    H130044   1.031   1.537   3.462 -1.5484  0.4687 -0.1504
 2803TIP3    H230045   1.026   1.489   3.605  1.8739  0.3495  0.0083
 2804TIP3   OH230046   6.839   6.263   3.913  0.4227  0.1008  0.4051
 2804TIP3    H130047   6.898   6.298   3.847 -0.6444  1.0062 -0.1037
 2804TIP3    H230048   6.868   6.303   3.995  0.8772  0.0676  0.2649
 2805TIP3   OH230049   4.248   4.899   0.459  0.1477  0.1919  0.0354
 2805TIP3    H130050   4.293   4.978   0.431 -0.7918  1.5979  2.3156
 2805TIP3    H230051   4.297   4.868   0.534  0.1312 -1.0657 -0.4443
 2806TIP3   OH230052   4.371   5.299   2.349 -0.1081 -0.2424 -0.0364
 2806TIP3    H130053   4.365   5.392   2.367 -1.5043 -0.0654 -1.2327
 2806TIP3    H230054   4.429   5.293   2.273 -0.5567 -0.2743 -0.3818
 2807TIP3   OH230055   2.592   0.854   1.656  0.0284  0.1588  0.3731
 2807TIP3    H130056   2.596   0.886   1.566  0.0526 -2.0164 -0.4626
 2807TIP3    H230057   2.504   0.817   1.665  0.5253 -1.0083  0.7057
 2808TIP3   OH230058   3.805   6.228   3.580 -0.8072  0.2099 -0.0931
 2808TIP3    H130059   3.828   6.194   3.667  0.1425  2.4491  0.6042
 2808TIP3    H230060   3.712   6.252   3.588 -0.8058  0.1214  0.2028
 2809TIP3   OH230061   4.807   2.261   3.630 -0.0479 -0.4244 -0.3896
 2809TIP3    H130062   4.723   2.218   3.613  0.0492 -0.6015 -0.4244
 2809TIP3    H230063   4.792   2.353   3.608 -0.5447 -0.2509  0.6233
 2810TIP3   OH230064   2.867   1.203   1.927  0.2775  0.6602 -0.5534
 2810TIP3    H130065   2.901   1.269   1.987 -0.7041  0.7436 -0.0604
 2810TIP3    H230066   2.772   1.208   1.938  0.1475 -0.2075 -1.1849
 2811TIP3   OH230067   0.829   2.574   4.401  0.0836 -0.0218  0.3344
 2811TIP3    H130068   0.784   2.628   4.467  1.0015 -0.4666  1.3603
 2811TIP3    H230069   0.908   2.544   4.445  0.9271 -0.0198 -1.1301
 2812TIP3   OH230070   0.624   0.206   0.910 -0.3232  0.1277 -0.6121
 2812TIP3    H130071   0.548   0.151   0.889 -1.7821  1.7491  0.1163
 2812TIP3    H230072   0.660   0.167   0.990 -0.7324 -0.3462 -0.6499
 2813TIP3   OH230073   6.011   6.324   3.518 -0.2062 -0.2667  0.3579
 2813TIP3    H130074   6.101   6.346   3.545 -0.4282  1.5005 -0.1958
 2813TIP3    H230075   5.967   6.300   3.600  0.5181 -0.1833  0.7841
 2814TIP3   OH230076   6.247   5.137   2.603 -0.2491  0.0683 -0.5645
 2814TIP3    H130077   6.235   5.183   2.519  1.7242  0.4012 -0.7073
 2814TIP3    H230078   6.339   5.151   2.625 -0.7804  0.2420  1.8339
 2815TIP3   OH230079   1.812   6.088   0.811  0.0331 -0.2780  0.0148
 2815TIP3    H130080   1.890   6.052   0.769  1.7603  2.4284  0.6059
 2815TIP3    H230081   1.779   6.152   0.748 -1.3347 -0.8902  0.0792
 2816TIP3   OH230082   0.745   4.084   4.000 -0.0142  0.0517 -0.4214
 2816TIP3    H130083   0.770   4.175   4.013 -0.1575 -0.0292  0.4769
 2816TIP3    H230084   0.657   4.077   4.035 -0.1217 -0.3722 -0.7590
 2817TIP3   OH230085   0.463   0.236   2.093 -0.2437 -0.8537 -0.1236
 2817TIP3    H130086   0.465   0.330   2.112  1.1696 -1.1561  1.4588
 2817TIP3    H230087   0.370   0.213   2.094 -0.5736  0.4111 -0.0125
 2818TIP3   OH230088   3.457   3.212   0.623  0.4910 -0.3861  0.0539
 2818TIP3    H130089   3.368   3.211   0.659  0.4902  0.2630  0.0837
 2818TIP3    H230090   3.473   3.304   0.601  0.6870 -0.6893 -1.1257
 2819TIP3   OH230091   4.079   5.500   8.423 -0.1870  0.3105  0.2730
 2819TIP3    H130092   4.106   5.524   8.511 -1.2420  0.5772  0.5439
 2819TIP3    H230093   4.030   5.418   8.434 -0.6435  0.5387 -0.0023
 2820TIP3   OH230094   5.622   3.630   2.737 -0.2732 -0.3228 -0.2326
 2820TIP3    H130095   5.598   3.722   2.723 -0.1106 -0.4894 -1.7379
 2820TIP3    H230096   5.714   3.634   2.764 -0.9945  0.1009  2.3973
 2821TIP3   OH230097   4.104   0.248   8.463  0.1673  0.2749 -0.1852
 2821TIP3    H130098   4.056   0.327   8.485 -0.7492 -0.5799  1.0319
 2821TIP3    H230099   4.066   0.219   8.380 -2.9094 -1.4322  1.6737
 2822TIP3   OH230100   6.512   6.308   2.951  0.8070 -0.2736 -0.2583
 2822TIP3    H130101   6.586   6.263   2.992 -0.1930 -1.1287  0.6637
 2822TIP3    H230102   6.469   6.241   2.898  0.3405  0.0515 -0.2983
 2823TIP3   OH230103   6.117   6.763   3.300  0.3608 -0.3084  0.1131
 2823TIP3    H130104   6.159   6.833   3.251  1.6161 -1.4068 -0.4377
 2823TIP3    H230105   6.182   6.737   3.365 -0.4427 -0.3567  0.9222
 2824TIP3   OH230106   1.790   2.942   2.954  0.6256  0.0847 -0.3505
 2824TIP3    H130107   1.696   2.956   2.942  0.6238 -0.2290 -0.7222
 2824TIP3    H230108   1.811   2.870   2.895  1.1660  0.3777 -0.5166
 2825TIP3   OH230109   5.679   2.648   1.473 -0.0015 -0.0511 -0.3171
 2825TIP3    H130110   5.607   2.708   1.453 -0.7193 -0.6012  0.5303
 2825TIP3    H230111   5.636   2.571   1.511  0.9702 -0.7771 -0.6679
 2826TIP3   OH230112   4.377   4.729   2.919  0.2147  0.3816 -0.0423
 2826TIP3    H130113   4.371   4.708   2.826 -0.6523 -0.8770  0.2792
 2826TIP3    H230114   4.287   4.728   2.950  0.6364 -1.6245  1.2998
 2827TIP3   OH230115   2.261   5.921   2.461 -0.3716 -0.0507 -0.5246
 2827TIP3    H130116   2.335   5.981   2.453 -0.0361 -0.3243  0.4128
 2827TIP3    H230117   2.213   5.931   2.379  0.8869 -0.1181 -1.3028
 2828TIP3   OH230118   3.305   1.037   3.203 -0.6807  0.0429 -0.2616
 2828TIP3    H130119   3.387   0.999   3.170 -0.8758  0.3000 -1.0655
 2828TIP3    H230120   3.267   1.081   3.127 -2.2887 -1.2924 -0.3019
 2829TIP3   OH230121   2.789   2.383   2.005  0.2358 -0.8853 -0.6761
 2829TIP3    H130122   2.755   2.471   2.024 -0.3855 -1.3381  0.3478
 2829TIP3    H230123   2.793   2.340   2.090  2.5582 -1.1666 -0.8655
 2830TIP3   OH230124   5.898   1.430   8.065 -0.1278 -0.4772 -0.3315
 2830TIP3    H130125   5.878   1.449   8.156 -1.3585  1.0267 -0.8759
 2830TIP3    H230126   5.820   1.459   8.017 -0.4349 -3.2405 -1.6814
 2831TIP3   OH230127   2.777   0.204   0.353 -0.0816 -0.5185 -0.1028
 2831TIP3    H130128   2.756   0.295   0.375 -1.4362 -0.7767 -0.2083
 2831TIP3    H230129   2.744   0.153   0.427 -0.4608 -1.0163 -0.6012
 2832TIP3   OH230130   5.858   5.604   0.877 -0.3309  0.2542 -0.3711
 2832TIP3    H130131   5.915   5.574   0.948 -0.1134  1.7934  0.1485
 2832TIP3    H230132   5.906   5.677   0.838 -0.3512 -0.7103 -2.2728
 2833TIP3   OH230133   4.043   3.327   0.617 -0.4222  0.8414  0.2826
 2833TIP3    H130134   4.077   3.329   0.706 -0.6962 -1.6596  0.5143
 2833TIP3    H230135   3.948   3.336   0.628 -0.3577  1.7223  0.1381
 2834TIP3   OH230136   2.545   5.524   3.723  0.1333 -0.3981  0.1929
 2834TIP3    H130137   2.595   5.453   3.685  0.8533 -0.8129  1.8202
 2834TIP3    H230138   2.471   5.481   3.767  0.5206 -0.1527  1.1090
 2835TIP3   OH230139   0.500   3.235   3.319 -0.2386  0.2961 -0.1739
 2835TIP3    H130140   0.590   3.228   3.286  0.4773 -1.0012  1.9059
 2835TIP3    H230141   0.504   3.304   3.385 -0.6976  0.0638  0.1034
 2836TIP3   OH230142   2.381   1.077   3.606  0.0708 -0.4571  0.0529
 2836TIP3    H130143   2.413   1.164   3.631 -0.6355  0.2756 -1.4789
 2836TIP3    H230144   2.453   1.037   3.558  0.5653 -0.9225  1.1584
 2837TIP3   OH230145   4.880   3.887   1.748  0.4243 -0.4811 -0.1628
 2837TIP3    H130146   4.861   3.885   1.654  1.1099  2.0877 -0.4435
 2837TIP3    H230147   4.971   3.916   1.754  0.0654  0.4693  1.2841
 2838TIP3   OH230148   2.477   6.932   2.916 -0.1262 -0.0071  0.2637
 2838TIP3    H130149   2.445   6.965   3.000 -0.0832 -0.6484  0.5403
 2838TIP3    H230150   2.441   6.844   2.910  2.4689 -1.2200  1.1201
 2839TIP3   OH230151   3.030   6.522   3.862 -0.3401 -0.0075 -0.3158
 2839TIP3    H130152   3.082   6.477   3.929  1.0394  0.3971 -1.0521
 2839TIP3    H230153   2.989   6.596   3.907  0.9452  0.5307  0.0186
 2840TIP3   OH230154   4.312   6.874   2.530  0.3462  0.2123  0.2073
 2840TIP3    H130155   4.296   6.789   2.571  0.1651  0.4765  0.7041
 2840TIP3    H230156   4.225   6.905   2.505  0.6144 -0.8823 -2.3549
 2841TIP3   OH230157   5.737   6.410   8.129  0.0739  0.0593 -0.2440
 2841TIP3    H130158   5.650   6.376   8.150 -0.9657  2.8188  0.2053
 2841TIP3    H230159   5.791   6.382   8.203 -1.2996  1.3150  1.3022
 2842TIP3   OH230160   0.443   3.261   0.279  0.5171 -0.1496 -0.0269
 2842TIP3    H130161   0.417   3.202   0.208 -0.4903 -0.3598  0.4909
 2842TIP3    H230162   0.485   3.205   0.344 -0.7204 -0.3887  0.6071
 2843TIP3   OH230163   2.866   4.088   2.501 -0.3962  0.5640  0.0798
 2843TIP3    H130164   2.800   4.019   2.499  1.5704 -1.3890  0.0617
 2843TIP3    H230165   2.937   4.053   2.554  1.7125  1.5762 -1.8933
 2844TIP3   OH230166   6.044   0.376   3.486  0.2355  0.8269  0.4930
 2844TIP3    H130167   6.041   0.428   3.566 -1.0090  0.8151  0.4655
 2844TIP3    H230168   6.029   0.286   3.514 -2.8964  1.1042  0.0326
 2845TIP3   OH230169   5.991   1.131   2.622  0.5557  0.2533 -0.4177
 2845TIP3    H130170   5.985   1.179   2.705  1.0061  0.1533 -0.3193
 2845TIP3    H230171   5.901   1.123   2.591  0.3238 -0.1936  0.3475
 2846TIP3   OH230172   2.439   0.244   3.389  0.5805 -0.2214 -0.0230
 2846TIP3    H130173   2.372   0.217   3.453  1.1166 -0.7966  0.3079
 2846TIP3    H230174   2.399   0.317   3.342 -0.2438 -0.4935  0.2368
 2847TIP3   OH230175   3.247   4.804   1.498 -0.4512 -1.1138 -0.3723
 2847TIP3    H130176   3.339   4.818   1.522 -1.3779 -0.0851  3.2801
 2847TIP3    H230177   3.250   4.747   1.422  3.2051 -3.3090  1.1750
 2848TIP3   OH230178   1.769   2.605   3.375  0.1248 -0.1555  0.0103
 2848TIP3    H130179   1.831   2.634   3.308  1.3735 -0.2500  1.0727
 2848TIP3    H230180   1.781   2.511   3.380 -0.5327 -0.2531 -0.1712
 2849TIP3   OH230181   6.471   4.518   3.137  0.1909 -0.2342 -0.0200
 2849TIP3    H130182   6.481   4.538   3.044 -1.3590  0.5110 -0.0542
 2849TIP3    H230183   6.404   4.450   3.139 -1.3596  1.2447  0.6427
 2850TIP3   OH230184   1.586   3.039   0.442 -0.4961 -0.1624  0.1049
 2850TIP3    H130185   1.616   3.007   0.357 -1.6682 -1.8462  0.2793
 2850TIP3    H230186   1.582   3.134   0.432 -1.7366 -0.3863 -2.1181
 2851TIP3   OH230187   4.958   2.945   1.549  0.0528 -0.3015 -0.6886
 2851TIP3    H130188   4.864   2.965   1.546  0.2779  0.7210 -1.5498
 2851TIP3    H230189   4.995   3.016   1.601  0.1914 -1.5189  0.9819
 2852TIP3   OH230190   2.514   3.029   3.733 -1.0346  0.4491 -0.2119
 2852TIP3    H130191   2.513   3.122   3.756 -3.0388  0.1694  1.1419
 2852TIP3    H230192   2.447   2.991   3.790 -1.0520 -1.6324 -1.5567
 2853TIP3   OH230193   2.810   2.326   2.268  0.1942  0.2131  0.3824
 2853TIP3    H130194   2.764   2.277   2.337  1.6476 -0.6058  0.8102
 2853TIP3    H230195   2.839   2.406   2.310  2.1867 -0.8430  1.1554
 2854TIP3   OH230196   1.955   2.484   3.603  0.0168 -0.8873  0.0794
 2854TIP3    H130197   1.942   2.577   3.591  1.2226 -0.4530  1.6916
 2854TIP3    H230198   1.899   2.461   3.677 -1.1057 -1.7050 -0.9872
 2855TIP3   OH230199   4.548   3.193   8.265  0.8086 -0.0967 -0.1474
 2855TIP3    H130200   4.624   3.147   8.230 -0.8010 -2.3639 -0.8106
 2855TIP3    H230201   4.483   3.190   8.195  0.1528  2.0961  0.2793
 2856TIP3   OH230202   3.508   4.899   4.317  0.0743 -0.6399 -0.3420
 2856TIP3    H130203   3.602   4.913   4.329  0.1782  0.1770 -1.8512
 2856TIP3    H230204   3.495   4.806   4.335  0.9762 -0.5463  0.9227
 2857TIP3   OH230205   4.903   2.172   1.821  0.4502 -0.6801  0.4256
 2857TIP3    H130206   4.815   2.208   1.830  1.2409  0.8854  3.2209
 2857TIP3    H230207   4.957   2.246   1.795  1.2449 -1.1356  0.7300
 2858TIP3   OH230208   0.016   1.189   2.220 -0.5380  0.4350  0.0886
 2858TIP3    H130209   0.058   1.274   2.209 -3.3389  1.8239 -0.7024
 2858TIP3    H230210  -0.015   1.165   2.133  1.4781 -2.2376 -0.0340
 2859TIP3   OH230211   1.556   2.599   3.187 -0.5213 -0.2135  0.9445
 2859TIP3    H130212   1.635   2.613   3.240  0.8417  0.7660 -1.1850
 2859TIP3    H230213   1.490   2.568   3.249  1.2893 -0.2541  2.9652
 2860TIP3   OH230214   4.686   4.526   3.403  0.3138  0.5444  0.2633
 2860TIP3    H130215   4.617   4.589   3.425  0.2792  0.6884 -0.2504
 2860TIP3    H230216   4.694   4.531   3.308  0.4556 -0.0798  0.2387
 2861TIP3   OH230217   3.985   5.111   2.799 -0.1819 -0.0366  0.1205
 2861TIP3    H130218   3.973   5.058   2.721  3.5984 -1.8555  0.5717
 2861TIP3    H230219   4.054   5.173   2.776  1.1399 -0.7300  1.9978
 2862TIP3   OH230220   2.660   4.687   2.820  0.4452 -0.3892 -0.4705
 2862TIP3    H130221   2.662   4.641   2.736 -2.0605 -1.0166 -0.2575
 2862TIP3    H230222   2.607   4.764   2.803 -2.0430 -1.6715  0.9932
 2863TIP3   OH230223   6.332   2.015   3.122  0.3167 -0.1549 -0.0879
 2863TIP3    H130224   6.339   1.928   3.161  3.0831 -0.0067 -0.0284
 2863TIP3    H230225   6.281   2.066   3.185  0.5289 -1.1721  0.9413
 2864TIP3   OH230226   3.833   2.271   8.421  0.7514 -0.5800 -0.1101
 2864TIP3    H130227   3.868   2.280   8.333 -1.0475  2.1332 -0.6488
 2864TIP3    H230228   3.910   2.281   8.478  1.2966  3.7653 -1.2781
 2865TIP3   OH230229   5.696   1.899   2.256 -0.1441  0.4936  0.1867
 2865TIP3    H130230   5.709   1.864   2.344 -0.7913 -1.5688 -0.4861
 2865TIP3    H230231   5.766   1.859   2.204  0.1518  1.5859 -0.2875
 2866TIP3   OH230232   3.632   6.245   0.730 -0.0120  0.3513 -0.2881
 2866TIP3    H130233   3.691   6.259   0.655 -0.2878 -0.3540 -0.6435
 2866TIP3    H230234   3.683   6.192   0.791 -0.2040 -0.0819 -0.5033
 2867TIP3   OH230235   3.436   0.692   0.269 -0.2290 -0.0654 -0.8051
 2867TIP3    H130236   3.361   0.696   0.210  1.1002 -0.2730 -2.5604
 2867TIP3    H230237   3.422   0.612   0.320  0.1894 -1.6860 -3.0988
 2868TIP3   OH230238   5.443   6.523   8.233 -0.1635 -0.7240 -0.1629
 2868TIP3    H130239   5.425   6.442   8.280 -1.2243 -1.7331 -2.1721
 2868TIP3    H230240   5.356   6.560   8.215  0.0673 -1.0520 -2.3227
 2869TIP3   OH230241   6.889   0.127   1.259 -0.2009  0.0727 -0.5021
 2869TIP3    H130242   6.814   0.162   1.308  0.0090 -0.5067  0.2665
 2869TIP3    H230243   6.861   0.039   1.234  0.5460 -0.4911  0.5781
 2870TIP3   OH230244   3.408   0.353   1.848 -0.4277 -0.0353 -0.1905
 2870TIP3    H130245   3.334   0.375   1.791 -1.7000  1.2691  1.8420
 2870TIP3    H230246   3.479   0.331   1.788 -2.1351 -0.2591 -2.2372
 2871TIP3   OH230247   1.944   6.820   2.902 -0.2572 -0.0403 -0.1258
 2871TIP3    H130248   1.862   6.774   2.920 -1.2443  1.1551 -1.3686
 2871TIP3    H230249   1.922   6.882   2.832  1.6011  0.6297 -0.1670
 2872TIP3   OH230250   5.866   0.891   1.677  0.3734  0.2430  0.0644
 2872TIP3    H130251   5.827   0.898   1.590 -2.4495  1.3016  1.3088
 2872TIP3    H230252   5.877   0.797   1.691 -1.0524 -0.0637 -0.6755
 2873TIP3   OH230253   4.671   5.468   3.178 -0.3424  0.0790 -0.0206
 2873TIP3    H130254   4.751   5.415   3.169 -1.2414 -1.8122  2.3114
 2873TIP3    H230255   4.695   5.536   3.241  0.5587  2.1218 -2.3971
 2874TIP3   OH230256   2.560   6.334   1.194 -0.3893 -0.6357  0.3166
 2874TIP3    H130257   2.603   6.280   1.260 -0.7345 -0.7274  0.4666
 2874TIP3    H230258   2.536   6.272   1.124  1.7684 -0.2590 -0.8473
 2875TIP3   OH230259   4.494   4.070   3.173  0.0215  0.1589  0.5521
 2875TIP3    H130260   4.508   4.073   3.078 -2.9719 -0.4952 -0.0267
 2875TIP3    H230261   4.528   3.985   3.199  0.7046  0.2651  0.0445
 2876TIP3   OH230262   3.329   3.555   3.296  0.0599  0.4847 -0.0990
 2876TIP3    H130263   3.359   3.467   3.271 -0.4862 -0.0766  1.1573
 2876TIP3    H230264   3.382   3.577   3.373  1.5892  2.1066 -1.5245
 2877TIP3   OH230265   1.845   5.925   1.529  0.0414  0.1200 -0.5081
 2877TIP3    H130266   1.847   5.947   1.435 -0.2953 -0.9871 -0.7930
 2877TIP3    H230267   1.890   5.840   1.534 -0.7493 -0.2635  0.2055
 2878TIP3   OH230268   1.034   0.926   1.587  0.2769 -0.3396 -0.1454
 2878TIP3    H130269   1.021   1.017   1.561 -0.1883  0.3896  2.4033
 2878TIP3    H230270   0.987   0.918   1.670 -0.1285 -3.0558 -0.5469
 2879TIP3   OH230271   2.139   1.185   0.764 -0.9723  0.1283 -0.0049
 2879TIP3    H130272   2.155   1.093   0.746 -1.4545 -0.0197  0.3028
 2879TIP3    H230273   2.148   1.193   0.859 -0.6250  0.4596 -0.0636
 2880TIP3   OH230274   3.946   1.095   2.302 -0.7876  0.0823 -0.1495
 2880TIP3    H130275   4.033   1.129   2.321 -0.5774 -0.0087 -0.9116
 2880TIP3    H230276   3.955   1.000   2.310 -0.4328 -0.0379 -1.6508
 2881TIP3   OH230277   5.995   3.962   1.037  0.1377  0.2908  0.3604
 2881TIP3    H130278   6.071   4.015   1.059  0.5602  0.7918 -1.9876
 2881TIP3    H230279   6.024   3.906   0.966 -1.2149 -0.7837  0.6079
 2882TIP3   OH230280   4.248   6.881   0.754  0.1713 -0.4562 -0.0802
 2882TIP3    H130281   4.320   6.867   0.815 -1.2911 -0.3160  1.7943
 2882TIP3    H230282   4.234   6.976   0.755  0.2773 -0.4236 -0.8417
 2883TIP3   OH230283   4.313   5.366   8.175  0.3335 -0.3201  0.2959
 2883TIP3    H130284   4.229   5.342   8.212  0.5068 -1.7223 -0.1482
 2883TIP3    H230285   4.374   5.364   8.249  0.2274 -0.6879  0.3748
 2884TIP3   OH230286   0.607   6.688   4.139 -0.2470 -0.8300  0.4927
 2884TIP3    H130287   0.659   6.761   4.173 -0.9490 -0.5546  1.0031
 2884TIP3    H230288   0.566   6.649   4.216 -0.8281 -1.0126  0.1012
 2885TIP3   OH230289   4.153   5.522   0.385  0.3971 -0.3188  0.7253
 2885TIP3    H130290   4.057   5.533   0.381  0.5155  0.8451 -2.9320
 2885TIP3    H230291   4.169   5.437   0.345  0.9273 -0.6040  1.5176
 2886TIP3   OH230292   5.415   1.931   0.521 -0.5920 -0.0617 -0.2350
 2886TIP3    H130293   5.401   1.843   0.485  1.3294 -1.1023  1.3861
 2886TIP3    H230294   5.507   1.951   0.500 -0.5974  0.9619  0.6420
 2887TIP3   OH230295   0.996   1.774   3.283  0.0327  0.5640 -0.4809
 2887TIP3    H130296   1.081   1.731   3.287 -0.0085  0.4925 -0.3602
 2887TIP3    H230297   0.996   1.836   3.357 -1.1448 -1.5192  1.4160
 2888TIP3   OH230298   5.456   1.119   8.347 -0.0215 -0.3266 -0.1503
 2888TIP3    H130299   5.429   1.039   8.304  1.7483 -2.0943  1.7793
 2888TIP3    H230300   5.511   1.164   8.282  0.4542 -1.5967 -0.6569
 2889TIP3   OH230301   0.751   5.545   0.891 -0.1968  0.3930  0.2538
 2889TIP3    H130302   0.685   5.607   0.924 -0.7370 -0.4821  0.8846
 2889TIP3    H230303   0.701   5.481   0.841  0.2030 -0.1114  0.4818
 2890TIP3   OH230304   6.131   2.883   4.014 -0.5148 -0.0701  0.3396
 2890TIP3    H130305   6.220   2.862   4.045 -0.5827  1.0777  1.4328
 2890TIP3    H230306   6.131   2.979   4.007 -1.1512 -0.1696 -1.3314
 2891TIP3   OH230307   2.971   5.213   1.461  0.0159  0.3894 -0.4228
 2891TIP3    H130308   3.015   5.127   1.456  0.5718  0.6188  0.3420
 2891TIP3    H230309   3.026   5.271   1.409  0.8949  0.7745  0.8833
 2892TIP3   OH230310   4.288   3.048   2.294 -0.6997 -0.2885 -0.7314
 2892TIP3    H130311   4.263   2.982   2.229  1.1334  0.0993 -1.9044
 2892TIP3    H230312   4.318   3.123   2.242  0.3043  0.2358  0.5493
 2893TIP3   OH230313   6.455   5.950   2.169  0.0142  0.5981  0.3602
 2893TIP3    H130314   6.455   5.914   2.257 -1.1513  1.0153  0.5493
 2893TIP3    H230315   6.537   5.999   2.162 -0.4613  1.6433  1.6799
 2894TIP3   OH230316   4.729   5.764   2.464  0.2470 -0.1798  0.2897
 2894TIP3    H130317   4.734   5.714   2.382  0.0743 -0.2234  0.3038
 2894TIP3    H230318   4.773   5.846   2.444 -0.0201 -0.0850  0.0699
 2895TIP3   OH230319   2.741   1.225   2.222 -0.1038  0.1480  0.3509
 2895TIP3    H130320   2.817   1.283   2.215  1.2961 -1.3473  2.0310
 2895TIP3    H230321   2.678   1.260   2.159  1.6103  1.9965 -0.4546
 2896TIP3   OH230322   1.498   5.010   0.969  0.4201  0.1671 -0.0891
 2896TIP3    H130323   1.429   5.076   0.975  1.1526  1.0576 -1.0705
 2896TIP3    H230324   1.452   4.927   0.971 -0.5142  0.6940  1.3331
 2897TIP3   OH230325   5.686   4.266   1.015 -0.6203  0.0706 -0.1553
 2897TIP3    H130326   5.733   4.248   0.934 -1.1286  0.8731 -0.6463
 2897TIP3    H230327   5.632   4.343   0.995  0.0045  0.9152  1.2431
 2898TIP3   OH230328   2.103   3.043   1.127  0.3560 -0.0040  0.1278
 2898TIP3    H130329   2.098   2.988   1.205  0.4784 -1.0821 -0.6026
 2898TIP3    H230330   2.196   3.060   1.115  0.2267  1.5931  1.1672
 2899TIP3   OH230331   5.084   0.675   0.720  0.3388 -0.2789 -0.2011
 2899TIP3    H130332   5.092   0.678   0.625  0.2291  1.2905 -0.1965
 2899TIP3    H230333   4.990   0.686   0.736  0.2417 -1.4008  0.0902
 2900TIP3   OH230334   5.528   1.701   4.257  0.2536 -0.0767  0.1226
 2900TIP3    H130335   5.473   1.689   4.179 -2.1559 -1.7226  1.9030
 2900TIP3    H230336   5.473   1.671   4.330  3.1906 -0.7924  2.2371
 2901TIP3   OH230337   1.134   1.338   2.185 -0.7516 -0.4039 -0.2473
 2901TIP3    H130338   1.130   1.243   2.191 -1.7780 -0.4688 -1.4812
 2901TIP3    H230339   1.223   1.360   2.211 -0.4177 -1.7251 -0.1888
 2902TIP3   OH230340   4.832   1.560   8.192  0.9926  0.5346 -0.0460
 2902TIP3    H130341   4.768   1.630   8.193  1.6138  1.1083  0.6386
 2902TIP3    H230342   4.798   1.495   8.253  3.3806  3.0477  4.4832
 2903TIP3   OH230343   4.074   5.539   2.554  0.4123 -0.0402  0.2055
 2903TIP3    H130344   4.091   5.609   2.491 -0.0631  0.1440  0.2821
 2903TIP3    H230345   4.160   5.518   2.590  0.5791  0.3766  0.0497
 2904TIP3   OH230346   6.422   2.816   2.100  0.2710  0.3853 -0.3922
 2904TIP3    H130347   6.435   2.750   2.168  1.2415 -0.3157 -1.2192
 2904TIP3    H230348   6.486   2.794   2.033 -0.2890  1.3905 -1.2932
 2905TIP3   OH230349   6.283   2.291   8.268  0.2912  0.1394 -0.7351
 2905TIP3    H130350   6.311   2.381   8.280  1.7199 -0.0398 -2.3844
 2905TIP3    H230351   6.220   2.295   8.197 -0.5457 -0.0411 -0.0232
 2906TIP3   OH230352   1.149   1.296   8.250  0.1576 -0.5024 -0.7000
 2906TIP3    H130353   1.103   1.226   8.204 -0.6844 -0.7416  0.4640
 2906TIP3    H230354   1.208   1.251   8.310  0.5282 -0.2038 -0.8395
 2907TIP3   OH230355   4.952   6.823   8.503 -0.5455  0.1809  0.1092
 2907TIP3    H130356   4.918   6.771   8.575  1.0922  1.5702  1.9999
 2907TIP3    H230357   4.893   6.898   8.497 -0.8881 -0.1108 -0.2762
 2908TIP3   OH230358   2.615   0.944   2.910 -0.1869  0.6719  0.1987
 2908TIP3    H130359   2.582   0.875   2.968 -0.5777  2.0489  1.7075
 2908TIP3    H230360   2.598   1.025   2.958  2.3097  1.6933 -0.4899
 2909TIP3   OH230361   5.093   4.717   3.373  0.1154 -0.3948 -0.7546
 2909TIP3    H130362   5.038   4.742   3.447  1.4052 -1.1574  0.4950
 2909TIP3    H230363   5.064   4.629   3.349  1.5856 -1.3334  0.7437
 2910TIP3   OH230364   1.189   4.601   0.300  0.1469 -0.3966  0.0161
 2910TIP3    H130365   1.229   4.642   0.223  0.1916  0.9862  0.7308
 2910TIP3    H230366   1.206   4.508   0.289 -0.8357 -0.3871 -2.2012
 2911TIP3   OH230367   4.717   6.722   7.956  0.2470  0.0977  0.2739
 2911TIP3    H130368   4.777   6.761   7.892  0.5669  0.8729  1.0365
 2911TIP3    H230369   4.633   6.766   7.941 -0.2222 -1.1104 -0.9118
 2912TIP3   OH230370   2.907   2.140   8.550  0.7175 -0.2749 -0.0877
 2912TIP3    H130371   2.919   2.163   8.458  0.5490  1.3553  0.2723
 2912TIP3    H230372   2.967   2.067   8.565 -0.0791 -1.3475 -1.7626
 2913TIP3   OH230373   3.349   0.445   2.828  0.2943  0.5295  0.6102
 2913TIP3    H130374   3.328   0.523   2.776 -0.7655 -0.2663 -0.2048
 2913TIP3    H230375   3.444   0.446   2.835  0.5345  0.4017 -1.8156
 2914TIP3   OH230376   3.824   1.354   3.907 -0.0450  0.2799 -0.2176
 2914TIP3    H130377   3.880   1.284   3.872 -1.7175 -2.1356  1.5614
 2914TIP3    H230378   3.742   1.346   3.858 -0.3214  0.8902  0.1308
 2915TIP3   OH230379   0.172   2.496   1.147  0.7403 -0.2331 -0.6715
 2915TIP3    H130380   0.077   2.510   1.139  0.6277 -0.8747 -0.5125
 2915TIP3    H230381   0.198   2.464   1.060  0.5081 -1.6624 -0.2547
 2916TIP3   OH230382   0.731   5.812   0.801  0.6089  0.1825  0.6026
 2916TIP3    H130383   0.818   5.782   0.774 -0.2822 -0.4095 -1.8568
 2916TIP3    H230384   0.746   5.899   0.838  2.2667  0.0335  0.3550
 2917TIP3   OH230385   6.302   3.236   3.312  0.1312 -0.2525 -0.2978
 2917TIP3    H130386   6.371   3.280   3.361  0.6607 -1.0998 -0.2781
 2917TIP3    H230387   6.243   3.202   3.379 -0.1398  0.1877 -0.3071
 2918TIP3   OH230388   6.830   5.254   0.176 -0.4421  0.3036  0.1581
 2918TIP3    H130389   6.748   5.300   0.197 -0.7289 -0.0960 -0.0545
 2918TIP3    H230390   6.801   5.166   0.153  0.2776 -0.7204  2.8232
 2919TIP3   OH230391   2.248   1.273   7.920  0.3260 -0.4309  0.3642
 2919TIP3    H130392   2.304   1.224   7.980  0.5690 -0.8685 -0.2056
 2919TIP3    H230393   2.299   1.350   7.896  0.4063 -0.4847  0.3649
 2920TIP3   OH230394   6.394   0.310   0.937  0.2796  0.0396  0.0969
 2920TIP3    H130395   6.475   0.299   0.988  0.1114  0.1484  0.3892
 2920TIP3    H230396   6.410   0.388   0.884  0.7701 -0.5404 -0.6310
 2921TIP3   OH230397   5.450   0.289   8.224  0.0819 -0.0202 -0.0492
 2921TIP3    H130398   5.432   0.346   8.149  2.4265  1.1472  0.1654
 2921TIP3    H230399   5.477   0.206   8.185  1.8155  0.7509 -0.5675
 2922TIP3   OH230400   1.976   5.657   2.129 -0.1142  0.8295  0.1886
 2922TIP3    H130401   2.028   5.711   2.070  1.0687  1.2458  1.5546
 2922TIP3    H230402   1.934   5.719   2.189  2.9003  0.3209  3.1169
 2923TIP3   OH230403   3.022   3.026   2.763 -1.0007  0.2983  0.1043
 2923TIP3    H130404   3.028   3.044   2.857 -0.0226 -0.3143  0.1797
 2923TIP3    H230405   2.969   2.947   2.756  0.3077 -0.6233  0.2850
 2924TIP3   OH230406   3.083   4.287   2.442 -0.1999 -0.0045 -0.1981
 2924TIP3    H130407   3.075   4.208   2.388  0.7580  0.3893 -0.9561
 2924TIP3    H230408   3.005   4.286   2.498  0.0214 -1.7206  0.1349
 2925TIP3   OH230409   1.534   1.555   3.587  0.2303 -0.3621  0.3363
 2925TIP3    H130410   1.570   1.467   3.599  1.0583 -0.1106 -0.1960
 2925TIP3    H230411   1.577   1.608   3.654 -0.4285 -0.3931  0.7968
 2926TIP3   OH230412   2.532   2.271   0.569 -0.1461 -0.4737 -0.0950
 2926TIP3    H130413   2.499   2.196   0.519 -1.1225 -0.4606  0.5095
 2926TIP3    H230414   2.627   2.267   0.558 -0.2409 -1.3408 -0.7091
 2927TIP3   OH230415   6.319   1.864   0.815  0.1426 -0.6238 -0.4863
 2927TIP3    H130416   6.405   1.861   0.856 -0.8310  0.4603  1.8490
 2927TIP3    H230417   6.273   1.788   0.851 -1.0593  0.9005  1.4424
 2928TIP3   OH230418   3.350   4.162   1.891 -0.3981 -0.2647  0.4978
 2928TIP3    H130419   3.404   4.097   1.846  0.6892  0.7949  0.2027
 2928TIP3    H230420   3.407   4.239   1.899 -0.9548 -0.0065  2.6440
 2929TIP3   OH230421   0.605   6.495   1.024 -0.6934  0.3964 -0.1306
 2929TIP3    H130422   0.648   6.446   1.094  2.3102 -0.1589 -2.1655
 2929TIP3    H230423   0.522   6.450   1.010  0.0509 -1.4278  0.9426
 2930TIP3   OH230424   2.125   2.511   0.152 -0.1312  0.9977 -0.3882
 2930TIP3    H130425   2.185   2.586   0.148  0.0769  0.8484 -0.1239
 2930TIP3    H230426   2.041   2.550   0.176 -0.4044  1.3451 -1.8271
 2931TIP3   OH230427   5.418   0.597   0.791 -0.3014 -0.1921 -0.3893
 2931TIP3    H130428   5.422   0.633   0.702  1.8385  0.4173 -0.1125
 2931TIP3    H230429   5.328   0.610   0.818 -0.7510  0.5690 -2.0875
 2932TIP3   OH230430   5.277   2.082   7.866 -0.6831 -0.0145 -0.1243
 2932TIP3    H130431   5.367   2.112   7.876 -0.4838 -0.4600 -0.5665
 2932TIP3    H230432   5.226   2.142   7.921  0.2184 -1.7620  2.8178
 2933TIP3   OH230433   2.116   3.208   3.702  1.4016 -0.0727  0.2784
 2933TIP3    H130434   2.030   3.224   3.742  0.5487  1.7923 -2.0220
 2933TIP3    H230435   2.131   3.115   3.714 -0.2701 -0.1806  1.9999
 2934TIP3   OH230436   6.273   6.741   4.125 -0.0893  0.0903  0.4614
 2934TIP3    H130437   6.183   6.772   4.119  0.0940  0.3295 -1.5823
 2934TIP3    H230438   6.326   6.819   4.113  0.3699 -0.3765 -0.6713
 2935TIP3   OH230439   0.219   3.020   4.018  0.7497  0.4809  0.2742
 2935TIP3    H130440   0.128   3.045   4.035  0.8365  0.6789  0.4577
 2935TIP3    H230441   0.214   2.961   3.943  0.3683 -0.2941  0.8993
 2936TIP3   OH230442   0.436   0.847   1.895  0.3732 -0.5925 -0.7411
 2936TIP3    H130443   0.443   0.854   1.800  0.4206  0.8293 -0.6399
 2936TIP3    H230444   0.516   0.801   1.921  0.7892 -0.2069 -1.3063
 2937TIP3   OH230445   0.248   6.377   1.562  0.5229  0.2773  0.0622
 2937TIP3    H130446   0.218   6.459   1.523  0.3047  0.0617 -0.2266
 2937TIP3    H230447   0.335   6.397   1.596  0.7916  0.4196 -0.7006
 2938TIP3   OH230448   3.584   6.831   2.755  0.2536  0.0837  0.1359
 2938TIP3    H130449   3.575   6.737   2.768  1.4205 -0.1953 -0.8938
 2938TIP3    H230450   3.497   6.866   2.774  0.2913 -0.9341  2.5306
 2939TIP3   OH230451   5.305   6.745   2.951 -0.1214 -0.2002 -0.5449
 2939TIP3    H130452   5.390   6.753   2.906 -0.2031 -0.7793 -0.7986
 2939TIP3    H230453   5.241   6.768   2.885 -0.1704  0.1959 -0.3639
 2940TIP3   OH230454   6.807   6.314   2.378  0.4776  0.3058 -0.3936
 2940TIP3    H130455   6.872   6.252   2.409 -1.7798 -1.0503  2.0346
 2940TIP3    H230456   6.805   6.383   2.445 -0.3330  0.4909 -0.5877
 2941TIP3   OH230457   5.664   6.043   1.278 -0.1930 -0.3230  0.0329
 2941TIP3    H130458   5.714   6.022   1.199 -0.0706 -1.1929  0.3321
 2941TIP3    H230459   5.731   6.051   1.346 -0.3768 -0.4759  0.2313
 2942TIP3   OH230460   1.086   0.826   0.866 -0.0403  0.0651  0.5981
 2942TIP3    H130461   1.128   0.831   0.952 -1.3716  1.7064  1.2125
 2942TIP3    H230462   1.121   0.746   0.827  2.1851  0.3733  1.7989
 2943TIP3   OH230463   6.606   0.417   3.187  0.1725 -0.0616  0.8165
 2943TIP3    H130464   6.532   0.417   3.127  1.4987 -0.2516 -0.8836
 2943TIP3    H230465   6.620   0.509   3.208  1.6113  0.3904 -1.7210
 2944TIP3   OH230466   1.682   4.013   2.647  0.4281  0.7074 -0.1675
 2944TIP3    H130467   1.610   4.061   2.687 -0.4143 -0.7997  0.2021
 2944TIP3    H230468   1.645   3.976   2.567  0.3017 -1.3462  0.7910
 2945TIP3   OH230469   3.523   3.562   3.496 -0.0365 -0.0264  0.1131
 2945TIP3    H130470   3.529   3.482   3.549 -2.1583  1.5800  3.0558
 2945TIP3    H230471   3.575   3.626   3.545 -0.5016  1.0645 -0.7999
 2946TIP3   OH230472   4.757   1.338   2.462  0.2656  0.1993  0.3522
 2946TIP3    H130473   4.779   1.363   2.551  1.4076  1.3830 -0.2327
 2946TIP3    H230474   4.677   1.286   2.471 -0.4450  1.4791  1.9352
 2947TIP3   OH230475   4.681   4.425   4.026  0.4817 -0.4347  0.1061
 2947TIP3    H130476   4.650   4.373   3.951  0.2927  0.5424 -0.5218
 2947TIP3    H230477   4.634   4.508   4.017 -0.7460 -0.8283  2.2109
 2948TIP3   OH230478   2.146   4.751   3.349  0.1429 -0.0871 -0.5700
 2948TIP3    H130479   2.167   4.844   3.345  1.1393 -0.2103  0.9438
 2948TIP3    H230480   2.230   4.707   3.338  0.1468 -0.7077  1.4259
 2949TIP3   OH230481   0.570   1.274   1.548  0.3045  0.1136  0.0994
 2949TIP3    H130482   0.617   1.279   1.465  0.0049  0.9007 -0.0346
 2949TIP3    H230483   0.572   1.364   1.582 -0.5612  0.0332  0.3914
 2950TIP3   OH230484   6.099   2.058   1.300 -0.0036  0.5568 -0.0518
 2950TIP3    H130485   6.168   2.120   1.318 -0.7993  1.3623  0.3060
 2950TIP3    H230486   6.111   1.989   1.366  0.5725  0.5790 -0.1294
 2951TIP3   OH230487   0.799   3.966   2.895 -0.0921 -0.6787 -0.7135
 2951TIP3    H130488   0.844   4.049   2.888 -1.2260  0.2558  1.9356
 2951TIP3    H230489   0.838   3.911   2.826  2.4653  1.1742 -0.8590
 2952TIP3   OH230490   5.721   2.228   1.933 -0.0997 -0.0147 -0.1412
 2952TIP3    H130491   5.687   2.182   1.857 -2.7689 -0.2181  1.0602
 2952TIP3    H230492   5.663   2.304   1.944  1.0152  0.7400  0.9521
 2953TIP3   OH230493   4.125   6.051   1.644  0.7125 -0.4508  0.3542
 2953TIP3    H130494   4.214   6.083   1.628  0.9381 -1.4679 -0.5502
 2953TIP3    H230495   4.124   5.963   1.607 -0.6975 -0.4375  0.3000
 2954TIP3   OH230496   0.682   1.028   3.051  0.3037 -0.1387 -0.0616
 2954TIP3    H130497   0.624   1.104   3.047  1.2074  0.8192  2.4247
 2954TIP3    H230498   0.770   1.066   3.058  0.8433 -1.4187  0.4172
 2955TIP3   OH230499   5.700   2.705   0.832 -0.4647  0.1325 -0.2670
 2955TIP3    H130500   5.703   2.761   0.755  3.4214  1.4220  0.6293
 2955TIP3    H230501   5.638   2.749   0.891 -2.1387  0.0551 -1.8807
 2956TIP3   OH230502   4.855   0.636   1.733 -0.1153 -0.1867  0.2739
 2956TIP3    H130503   4.854   0.617   1.827 -1.4684  0.6205  0.4493
 2956TIP3    H230504   4.849   0.551   1.690 -2.4607 -0.4339  0.9797
 2957TIP3   OH230505   2.910   3.984   1.537 -0.1494 -0.1198 -0.0912
 2957TIP3    H130506   2.973   3.960   1.605 -0.6398 -0.9993  0.0681
 2957TIP3    H230507   2.916   4.079   1.531 -1.0948  0.1646  2.2039
 2958TIP3   OH230508   1.646   4.356   2.068  0.0443  0.1509  0.1946
 2958TIP3    H130509   1.740   4.347   2.052  0.2888  1.6522  0.6232
 2958TIP3    H230510   1.606   4.346   1.982  0.6039 -0.2835 -0.0243
 2959TIP3   OH230511   2.621   3.380   1.100 -0.5049  0.0082 -0.0253
 2959TIP3    H130512   2.547   3.343   1.148 -0.6642 -0.1705 -0.4021
 2959TIP3    H230513   2.642   3.461   1.147 -1.0264  0.1275  0.0140
 2960TIP3   OH230514   2.871   1.595   2.744 -0.6002  0.1244  0.3402
 2960TIP3    H130515   2.810   1.526   2.772 -0.6891  0.4304  0.9352
 2960TIP3    H230516   2.955   1.550   2.735 -0.5989 -0.0265  0.9838
 2961TIP3   OH230517   4.455   3.655   2.797 -0.1581  0.2135 -0.1728
 2961TIP3    H130518   4.502   3.571   2.797  0.1811  0.3589  1.5475
 2961TIP3    H230519   4.503   3.709   2.734 -0.3077 -0.8217 -1.2138
 2962TIP3   OH230520   0.867   1.733   1.751  0.6811 -0.3575 -0.1059
 2962TIP3    H130521   0.859   1.761   1.660 -1.9830 -1.0495 -0.1811
 2962TIP3    H230522   0.837   1.809   1.802  0.6706 -0.5053  0.1092
 2963TIP3   OH230523   0.485   0.454   1.358  0.8965 -0.0912 -0.3753
 2963TIP3    H130524   0.476   0.359   1.349  0.6795 -0.0786 -0.2862
 2963TIP3    H230525   0.541   0.480   1.284  1.3899 -0.3574 -0.1001
 2964TIP3   OH230526   4.907   5.297   3.185 -0.8772  0.0004  0.1999
 2964TIP3    H130527   4.850   5.238   3.235  0.4220  0.6690  2.5826
 2964TIP3    H230528   4.990   5.297   3.232  0.3270  1.0101 -1.7684
 2965TIP3   OH230529   1.275   2.995   3.032 -0.2475  0.1805  0.8791
 2965TIP3    H130530   1.239   2.936   2.966  0.1157  0.2264  0.6308
 2965TIP3    H230531   1.306   2.938   3.102  2.2353 -0.1500 -0.3839
 2966TIP3   OH230532   5.690   4.880   8.413 -0.1369 -0.2011  0.1168
 2966TIP3    H130533   5.626   4.810   8.422 -0.3908  0.2694  2.8536
 2966TIP3    H230534   5.677   4.935   8.490  0.7004  2.3571 -1.4399
 2967TIP3   OH230535   1.434   0.948   2.998  0.0121  0.0364  0.1947
 2967TIP3    H130536   1.453   0.873   2.941 -0.4937  0.9267 -1.1930
 2967TIP3    H230537   1.372   1.001   2.947  0.5532  1.5230  1.0499
 2968TIP3   OH230538   4.154   6.941   0.410 -0.1635 -0.4189 -0.1227
 2968TIP3    H130539   4.066   6.942   0.374  0.2702  0.8873 -1.2409
 2968TIP3    H230540   4.162   7.023   0.459  0.2442 -0.7903  0.4532
 2969TIP3   OH230541   4.370   1.254   0.284 -0.2850 -0.3281  0.6705
 2969TIP3    H130542   4.444   1.287   0.232  1.0926 -0.9439  2.1569
 2969TIP3    H230543   4.336   1.331   0.330 -0.7495 -0.0024 -0.1831
 2970TIP3   OH230544   4.831   4.859   3.338  0.2953  0.0303  0.6809
 2970TIP3    H130545   4.754   4.854   3.395  0.3008  0.5717  0.7495
 2970TIP3    H230546   4.904   4.876   3.398  0.6909 -1.7363  0.7576
 2971TIP3   OH230547   5.500   2.707   1.044  0.0156 -0.1860  0.1309
 2971TIP3    H130548   5.502   2.613   1.026  0.1611  0.0186 -0.9411
 2971TIP3    H230549   5.426   2.740   0.994  1.0395  0.5498 -0.9445
 2972TIP3   OH230550   4.549   0.440   1.789  0.3695  0.3400  0.3661
 2972TIP3    H130551   4.584   0.479   1.869 -0.7044 -0.4805  1.2678
 2972TIP3    H230552   4.511   0.514   1.742  1.8106  0.9816  0.1365
 2973TIP3   OH230553   0.991   2.031   1.284 -0.5265  0.3162  0.2533
 2973TIP3    H130554   0.920   1.967   1.278  0.5034 -1.1355  2.3920
 2973TIP3    H230555   1.047   2.013   1.208 -0.1079 -1.5761  0.9627
 2974TIP3   OH230556   2.970   0.413   0.415  0.2837 -0.5812  0.3824
 2974TIP3    H130557   2.917   0.368   0.481  0.3140 -0.9455  0.1586
 2974TIP3    H230558   2.907   0.445   0.351  0.3478 -1.1521  0.0336
 2975TIP3   OH230559   6.865   0.301   8.553  0.5780  0.2943 -0.1342
 2975TIP3    H130560   6.885   0.248   8.476  1.5417 -0.1614  0.4215
 2975TIP3    H230561   6.928   0.274   8.619 -0.3764  0.5128  0.9102
 2976TIP3   OH230562   5.449   0.446   1.837 -0.2336  0.1197  0.8253
 2976TIP3    H130563   5.468   0.535   1.867  0.7865 -0.3130  1.5116
 2976TIP3    H230564   5.356   0.448   1.814 -0.0244  1.6275 -0.1173
 2977TIP3   OH230565   6.122   5.993   1.570  0.0816 -0.4462  0.1427
 2977TIP3    H130566   6.160   6.008   1.484  2.3702 -0.3409  1.1144
 2977TIP3    H230567   6.157   6.063   1.625 -0.7340 -0.9470  1.3436
 2978TIP3   OH230568   5.943   3.523   1.302  0.1434  0.0275  0.5913
 2978TIP3    H130569   5.941   3.482   1.388 -0.5091  0.0178  0.5784
 2978TIP3    H230570   6.001   3.598   1.312  0.2952 -0.1376  0.9653
 2979TIP3   OH230571   4.821   0.147   1.388 -0.1735 -0.3917 -1.0526
 2979TIP3    H130572   4.903   0.195   1.395 -0.0511 -0.7651  0.4863
 2979TIP3    H230573   4.847   0.061   1.355  0.2824 -0.9559  0.6563
 2980TIP3   OH230574   5.288   4.681   2.143  0.1622 -0.0001 -0.1311
 2980TIP3    H130575   5.311   4.690   2.235 -0.0710 -0.6530 -0.0060
 2980TIP3    H230576   5.315   4.593   2.119  0.5541  0.2902 -0.7900
 2981TIP3   OH230577   0.238   3.704   0.691 -0.3076 -0.1489 -0.2835
 2981TIP3    H130578   0.237   3.794   0.659  1.5895 -0.7170 -2.1419
 2981TIP3    H230579   0.239   3.650   0.612  0.4226 -1.7634  0.7764
 2982TIP3   OH230580   1.246   5.384   8.023  0.4156  0.3615  0.3430
 2982TIP3    H130581   1.274   5.314   7.964  1.3215  1.1632 -0.1912
 2982TIP3    H230582   1.301   5.459   8.001 -0.1847  1.1026  1.2588
 2983TIP3   OH230583   2.118   1.773   1.463  1.1394  0.0967  0.1031
 2983TIP3    H130584   2.063   1.851   1.456  1.4586  0.4590  1.3195
 2983TIP3    H230585   2.065   1.703   1.426  0.6288  0.7854 -0.5074
 2984TIP3   OH230586   1.774   3.062   0.645 -0.0665 -0.1614 -0.2589
 2984TIP3    H130587   1.705   3.056   0.579 -0.0936  0.2345 -0.2682
 2984TIP3    H230588   1.856   3.056   0.596 -0.0678 -2.2697 -0.1067
 2985TIP3   OH230589   4.902   3.976   8.245  0.0757  0.1954  0.5767
 2985TIP3    H130590   4.902   4.061   8.289 -1.8425  0.1454  0.7653
 2985TIP3    H230591   4.876   3.914   8.314 -1.7767 -0.0450 -0.2729
 2986TIP3   OH230592   1.851   3.199   3.121 -0.1932  0.2311 -0.2191
 2986TIP3    H130593   1.768   3.154   3.102 -0.5403  0.5378  0.5272
 2986TIP3    H230594   1.876   3.238   3.037  0.2427 -1.5145 -0.9563
 2987TIP3   OH230595   6.514   1.618   3.776  0.5938 -0.1235  0.3997
 2987TIP3    H130596   6.595   1.567   3.773 -0.4834 -1.8747 -1.0923
 2987TIP3    H230597   6.463   1.576   3.846 -0.0169 -0.6714 -0.3621
 2988TIP3   OH230598   5.823   0.283   1.411 -0.0310 -0.4284 -0.8514
 2988TIP3    H130599   5.782   0.212   1.361 -0.0761  0.2454 -1.8083
 2988TIP3    H230600   5.800   0.363   1.362 -0.4183  0.3062  0.4864
 2989TIP3   OH230601   4.806   6.718   1.285 -0.1206  0.2827  0.5802
 2989TIP3    H130602   4.748   6.662   1.336 -0.5432  0.1260 -0.0627
 2989TIP3    H230603   4.894   6.694   1.313 -0.2747 -1.0253 -0.0191
 2990TIP3   OH230604   1.119   4.911   0.210  0.1821  0.2083  0.7426
 2990TIP3    H130605   1.049   4.894   0.273  0.3724  1.0767  1.1961
 2990TIP3    H230606   1.154   4.824   0.189 -0.9133 -0.2148  0.6387
 2991TIP3   OH230607   0.080   3.868   1.901 -0.5884  1.5440 -0.2146
 2991TIP3    H130608   0.066   3.959   1.930  0.7394  1.8792 -0.5430
 2991TIP3    H230609   0.175   3.855   1.909 -0.7641  0.1601 -0.1320
 2992TIP3   OH230610   2.333   4.889   2.042  0.2831  0.2953 -0.0258
 2992TIP3    H130611   2.282   4.900   2.122  0.1170  1.5758 -0.2824
 2992TIP3    H230612   2.411   4.943   2.056  0.2722  0.4962 -0.6986
 2993TIP3   OH230613   5.693   1.931   8.141 -0.0274  0.4695  0.6348
 2993TIP3    H130614   5.777   1.923   8.097 -0.7891 -0.8176 -0.6597
 2993TIP3    H230615   5.647   2.000   8.093  0.3649  1.3966  1.5391
 2994TIP3   OH230616   1.190   1.516   2.642 -0.3572  0.3536  0.1013
 2994TIP3    H130617   1.162   1.593   2.692 -1.5270 -0.4392  0.7254
 2994TIP3    H230618   1.110   1.465   2.630  0.0715  0.0434 -1.7729
 2995TIP3   OH230619   0.131   6.451   0.863 -0.5310 -0.3062 -0.1975
 2995TIP3    H130620   0.077   6.512   0.913  1.3218  2.3407 -1.2050
 2995TIP3    H230621   0.093   6.451   0.776 -0.7727 -0.9580 -0.0968
 2996TIP3   OH230622   0.776   4.636   1.801  0.4806 -0.0748  0.0631
 2996TIP3    H130623   0.850   4.619   1.860  0.6448 -1.6229 -0.5198
 2996TIP3    H230624   0.768   4.555   1.750  0.2004  1.1092 -1.8848
 2997TIP3   OH230625   1.305   6.730   2.093 -0.1507  0.0942  0.0961
 2997TIP3    H130626   1.391   6.717   2.134 -0.9109 -0.7524  1.5201
 2997TIP3    H230627   1.266   6.802   2.142 -0.6100 -0.1325  0.0638
 2998TIP3   OH230628   6.456   2.033   0.389  0.6279 -0.1614 -0.5651
 2998TIP3    H130629   6.375   2.049   0.439  0.3800  1.1134 -1.3384
 2998TIP3    H230630   6.450   1.941   0.364  0.3609 -0.6166  1.0267
 2999TIP3   OH230631   4.235   6.213   2.758  0.3468 -0.5265 -0.4560
 2999TIP3    H130632   4.155   6.244   2.716  0.1465 -0.0890  0.2390
 2999TIP3    H230633   4.213   6.125   2.789  0.0190 -0.2752  0.0374
 3000TIP3   OH230634   1.335   2.919   2.661 -0.3251  0.4997  0.4513
 3000TIP3    H130635   1.422   2.911   2.622 -0.9527  0.2430 -0.9548
 3000TIP3    H230636   1.307   2.829   2.677 -0.6931  0.5380  0.0473
 3001TIP3   OH230637   6.434   5.436   2.866  0.3162  0.3487 -0.1622
 3001TIP3    H130638   6.476   5.496   2.805  3.1003 -0.1747  1.0843
 3001TIP3    H230639   6.438   5.350   2.823  0.4402  0.3100 -0.0725
 3002TIP3   OH230640   3.512   5.496   1.036  0.1505 -0.0445 -0.3691
 3002TIP3    H130641   3.562   5.420   1.066 -0.2234 -0.1015  0.1071
 3002TIP3    H230642   3.570   5.539   0.972  1.0185  0.1822  0.5500
 3003TIP3   OH230643   4.399   4.748   2.158  0.1346  0.0795 -0.3566
 3003TIP3    H130644   4.415   4.709   2.072  1.4162  0.6109 -0.3845
 3003TIP3    H230645   4.323   4.804   2.145 -0.9084 -1.3340 -0.6435
 3004TIP3   OH230646   4.985   5.487   0.665 -0.2300  0.2026 -0.6122
 3004TIP3    H130647   5.021   5.424   0.604  0.0641  0.6062 -0.8566
 3004TIP3    H230648   4.977   5.568   0.615 -1.0287  0.2486 -0.4305
 3005TIP3   OH230649   0.772   0.621   8.006  0.1172 -0.2611  0.1467
 3005TIP3    H130650   0.803   0.559   8.072 -2.2710 -0.4693  1.1840
 3005TIP3    H230651   0.753   0.567   7.929  0.4287 -0.4093  0.1717
 3006TIP3   OH230652   4.823   0.631   8.278 -0.0165 -0.0044 -0.4753
 3006TIP3    H130653   4.741   0.632   8.328  0.2725 -0.0235 -0.0024
 3006TIP3    H230654   4.838   0.538   8.259  0.4553 -0.1102  0.3671
 3007TIP3   OH230655   6.635   6.816   0.237 -0.1549 -0.4950 -0.2991
 3007TIP3    H130656   6.622   6.899   0.193 -0.7869 -1.2560 -1.6103
 3007TIP3    H230657   6.557   6.805   0.292 -0.4082 -0.5464 -0.6689
 3008TIP3   OH230658   2.426   4.530   2.093 -0.1400 -0.5300 -0.1388
 3008TIP3    H130659   2.455   4.548   2.183 -2.7062  1.5214  0.4161
 3008TIP3    H230660   2.489   4.576   2.038 -1.3556  2.7878  0.9455
 3009TIP3   OH230661   4.287   5.221   1.659 -0.0324  0.3715 -0.0224
 3009TIP3    H130662   4.252   5.287   1.718  1.4297  1.0279  0.1407
 3009TIP3    H230663   4.227   5.147   1.668 -0.7056  1.0244  1.1087
 3010TIP3   OH230664   3.443   0.427   8.198  0.0880 -0.3041  0.0510
 3010TIP3    H130665   3.453   0.396   8.108 -0.4660  0.3824 -0.2534
 3010TIP3    H230666   3.394   0.358   8.242  0.5399 -0.7367 -0.1133
 3011TIP3   OH230667   3.209   6.736   0.077 -0.0644  0.2811  0.7535
 3011TIP3    H130668   3.239   6.772  -0.006  1.6900 -0.7934  0.8649
 3011TIP3    H230669   3.240   6.645   0.076 -0.8580 -0.0378  2.1854
 3012TIP3   OH230670   4.839   4.811   8.512 -0.1474 -0.3453 -0.5409
 3012TIP3    H130671   4.765   4.750   8.503 -1.1540  0.8453 -0.5231
 3012TIP3    H230672   4.798   4.896   8.525  1.2384  0.1884  0.5487
 3013TIP3   OH230673   1.192   5.691   2.568  0.7279  0.4992  0.1450
 3013TIP3    H130674   1.224   5.713   2.480 -1.4441 -0.1645 -0.8830
 3013TIP3    H230675   1.175   5.776   2.609  1.7752  0.8148 -0.0532
 3014TIP3   OH230676   4.586   2.760   4.016 -0.6955  0.0166  0.4246
 3014TIP3    H130677   4.500   2.751   4.057 -1.6075 -0.7438 -1.5331
 3014TIP3    H230678   4.636   2.815   4.077 -2.3452 -0.0302  1.9054
 3015TIP3   OH230679   1.714   1.179   1.989 -0.2854  0.5623 -0.0169
 3015TIP3    H130680   1.634   1.143   1.950  1.0269 -0.2366 -2.1422
 3015TIP3    H230681   1.708   1.156   2.082 -2.1765 -0.0833 -0.2601
 3016TIP3   OH230682   0.388   5.630   0.849  0.0341 -0.0614 -0.3076
 3016TIP3    H130683   0.307   5.579   0.844 -0.1377  0.1178  0.4570
 3016TIP3    H230684   0.359   5.719   0.869  0.3696  0.2130 -1.0081
 3017TIP3   OH230685   2.721   6.153   1.373 -0.5826 -0.0047  0.2500
 3017TIP3    H130686   2.790   6.211   1.405 -0.9766  0.7932 -0.2945
 3017TIP3    H230687   2.752   6.126   1.286 -0.9230  0.3216  0.0228
 3018TIP3   OH230688   6.360   1.920   4.416  0.3871 -0.2627 -0.1466
 3018TIP3    H130689   6.380   2.012   4.396 -0.0098 -0.1419 -0.0066
 3018TIP3    H230690   6.439   1.872   4.390  1.0933  0.2635  0.9305
 3019TIP3   OH230691   1.347   3.356   2.447 -0.2665 -0.2054  0.0039
 3019TIP3    H130692   1.416   3.303   2.406  0.4077 -0.3812  1.3043
 3019TIP3    H230693   1.287   3.292   2.484 -0.6338 -0.0470 -0.3139
 3020TIP3   OH230694   4.479   2.958   7.668  0.1775 -0.5581  0.0621
 3020TIP3    H130695   4.440   2.883   7.622 -0.0178 -0.0042 -0.7097
 3020TIP3    H230696   4.436   3.034   7.629  2.8745  0.1875 -1.7460
 3021TIP3   OH230697   6.289   2.755   8.240 -0.1647  0.0284 -0.5193
 3021TIP3    H130698   6.211   2.809   8.244  0.1637  0.4999 -0.4089
 3021TIP3    H230699   6.356   2.805   8.287 -0.2435 -1.1330  0.9212
 3022TIP3   OH230700   5.462   0.369   0.560  0.0689  0.2067 -0.4526
 3022TIP3    H130701   5.399   0.313   0.604 -0.4069 -0.0092 -1.3732
 3022TIP3    H230702   5.547   0.339   0.591 -0.1009 -1.8017 -1.7498
 3023TIP3   OH230703   1.384   2.197   3.103 -0.1983 -0.2344  0.4406
 3023TIP3    H130704   1.425   2.116   3.133 -1.1088 -0.6258  0.6657
 3023TIP3    H230705   1.306   2.207   3.159 -1.3287 -0.3970 -1.0448
 3024TIP3   OH230706   6.598   4.161   3.407  0.1196 -0.2552 -0.2233
 3024TIP3    H130707   6.662   4.223   3.371  1.8182 -1.5223  0.4738
 3024TIP3    H230708   6.637   4.075   3.392 -1.1338 -1.0514  0.8213
 3025TIP3   OH230709   6.792   5.441   2.635 -0.0583 -0.1084  0.4783
 3025TIP3    H130710   6.743   5.522   2.621 -0.9728 -0.5502  1.0358
 3025TIP3    H230711   6.773   5.388   2.557 -0.3905 -0.2408  0.6488
 3026TIP3   OH230712   1.020   4.213   1.231  0.2367 -0.1599  0.0199
 3026TIP3    H130713   1.101   4.260   1.208  1.1486 -0.9562  1.4659
 3026TIP3    H230714   1.028   4.196   1.325 -0.4453 -2.4378 -0.2653
 3027TIP3   OH230715   2.229   3.439   7.948  0.1457  0.0367  0.0263
 3027TIP3    H130716   2.310   3.393   7.926  0.0936 -0.7370  1.3753
 3027TIP3    H230717   2.214   3.420   8.041 -0.4605  1.9098  0.3529
 3028TIP3   OH230718   1.214   5.867   1.765 -0.1279  0.5196 -0.2738
 3028TIP3    H130719   1.277   5.875   1.694 -0.2121  0.5909 -0.3403
 3028TIP3    H230720   1.217   5.774   1.790  2.2663  1.0359  1.8039
 3029TIP3   OH230721   3.768   6.572   8.447  0.3322 -0.2146 -0.5203
 3029TIP3    H130722   3.676   6.587   8.470  0.0486 -0.6532 -1.3543
 3029TIP3    H230723   3.779   6.615   8.362  0.3725 -1.8015 -1.3488
 3030TIP3   OH230724   1.154   5.532   0.851  0.1732  0.1123  0.3099
 3030TIP3    H130725   1.158   5.615   0.804  1.0599 -0.4198 -0.6071
 3030TIP3    H230726   1.245   5.501   0.851 -0.0294 -0.5190  1.2665
 3031TIP3   OH230727   5.110   4.306   3.947  0.6913 -0.4998  0.0610
 3031TIP3    H130728   5.098   4.398   3.972  0.6721  0.2123 -2.2758
 3031TIP3    H230729   5.071   4.256   4.019  0.5583  1.3123  1.3132
 3032TIP3   OH230730   1.387   0.147   3.877 -0.6828  0.6321  0.5650
 3032TIP3    H130731   1.293   0.148   3.897 -1.4009  0.8883 -2.3832
 3032TIP3    H230732   1.411   0.054   3.879 -1.6388  0.3152 -1.0723
 3033TIP3   OH230733   4.236   3.988   3.139  0.7201  0.3068  0.4943
 3033TIP3    H130734   4.183   4.022   3.211 -0.4912  0.3090 -0.3847
 3033TIP3    H230735   4.326   4.006   3.166  0.2037  2.4751  0.9634
 3034TIP3   OH230736   6.714   3.742   3.093  0.2742 -0.2996  0.3915
 3034TIP3    H130737   6.757   3.817   3.134 -2.1607  1.0882  0.6640
 3034TIP3    H230738   6.642   3.721   3.153 -0.7707 -1.0496 -1.0563
 3035TIP3   OH230739   3.647   0.038   0.960  0.3395  0.0863  0.0050
 3035TIP3    H130740   3.645  -0.028   0.890  0.4788 -1.2496  1.2334
 3035TIP3    H230741   3.598  -0.001   1.032 -0.7839  1.9133  0.2874
 3036TIP3   OH230742   1.904   4.447   0.300  0.5941  0.0464 -0.3154
 3036TIP3    H130743   1.925   4.437   0.393  0.2189  0.5201 -0.1739
 3036TIP3    H230744   1.988   4.467   0.258  0.4055  2.3510  0.3060
 3037TIP3   OH230745   3.992   2.149   2.569  0.2619 -0.2416 -0.1389
 3037TIP3    H130746   4.007   2.184   2.657  0.1955 -1.5911  0.4303
 3037TIP3    H230747   4.048   2.202   2.513  0.8840  0.1511  0.8202
 3038TIP3   OH230748   6.292   6.807   0.113  0.3881 -0.2629 -0.4715
 3038TIP3    H130749   6.201   6.796   0.083  0.3052 -1.5587  0.1556
 3038TIP3    H230750   6.287   6.796   0.208  1.2806 -1.0164 -0.4954
 3039TIP3   OH230751   0.273   3.559   1.918 -0.2802 -0.5918 -0.2276
 3039TIP3    H130752   0.238   3.512   1.993  0.4684  1.1866  1.3036
 3039TIP3    H230753   0.366   3.572   1.938  0.2242 -1.0531 -2.0119
 3040TIP3   OH230754   1.297   6.277   1.107 -0.0099 -0.4620 -0.1611
 3040TIP3    H130755   1.332   6.189   1.096 -0.3957 -0.5058 -1.0964
 3040TIP3    H230756   1.319   6.323   1.026 -0.4124  0.0959  0.0328
 3041TIP3   OH230757   6.537   3.713   1.125 -0.1257 -0.0438 -0.3900
 3041TIP3    H130758   6.499   3.799   1.145  1.7567  0.5328  1.0305
 3041TIP3    H230759   6.462   3.655   1.115 -1.4207  1.3271  0.8332
 3042TIP3   OH230760   4.954   4.279   0.614 -0.2585  0.7258  0.2829
 3042TIP3    H130761   4.928   4.244   0.699  1.5375  1.8941  1.3821
 3042TIP3    H230762   5.048   4.259   0.607 -0.2793  1.0324 -1.2209
 3043TIP3   OH230763   2.518   0.580   8.499 -0.0658 -0.5070  0.6964
 3043TIP3    H130764   2.444   0.523   8.520 -0.2860 -0.4518  0.0899
 3043TIP3    H230765   2.580   0.522   8.453  0.4028 -0.6236  1.4564
 3044TIP3   OH230766   2.145   2.373   8.465  0.5765  0.4372 -0.2795
 3044TIP3    H130767   2.135   2.422   8.384  1.0256 -0.2820 -0.7783
 3044TIP3    H230768   2.225   2.408   8.505 -0.0160  1.2704  0.2070
 3045TIP3   OH230769   3.457   0.526   0.944  0.0016  0.1155 -0.2902
 3045TIP3    H130770   3.459   0.430   0.945 -0.3461  0.0719 -1.5236
 3045TIP3    H230771   3.415   0.547   0.861 -0.3839  1.3412  0.2009
 3046TIP3   OH230772   6.084   2.894   3.345 -0.1571  0.1880 -0.1477
 3046TIP3    H130773   6.146   2.929   3.408  0.5803 -1.2477 -0.0251
 3046TIP3    H230774   6.007   2.872   3.397 -0.2541  0.7011 -0.0689
 3047TIP3   OH230775   4.637   0.328   0.398  0.1413 -0.3494  0.4691
 3047TIP3    H130776   4.563   0.389   0.396  0.1276 -0.3817 -0.2782
 3047TIP3    H230777   4.714   0.385   0.403  0.0748 -0.3079  0.9948
 3048TIP3   OH230778   6.823   2.552   1.161 -0.2801  0.2410  0.2177
 3048TIP3    H130779   6.774   2.565   1.080  0.8765 -0.7660 -0.6666
 3048TIP3    H230780   6.780   2.610   1.224 -2.2194 -0.1609 -0.6690
 3049TIP3   OH230781   4.045   4.109   8.587 -0.5361 -0.5403  0.4600
 3049TIP3    H130782   4.121   4.054   8.566  0.5857  1.0808  0.0594
 3049TIP3    H230783   3.992   4.106   8.507  0.1145 -0.1141 -0.0030
 3050TIP3   OH230784   1.699   6.176   8.567 -0.0551 -0.1717  0.5260
 3050TIP3    H130785   1.715   6.261   8.525  0.4772  0.0839  1.2343
 3050TIP3    H230786   1.633   6.194   8.634 -1.0743 -0.6246 -0.3116
 3051TIP3   OH230787   5.824   2.760   3.298  0.8970  0.2776  0.9774
 3051TIP3    H130788   5.832   2.712   3.216 -1.2880  1.3250  0.0415
 3051TIP3    H230789   5.857   2.701   3.365  0.2983 -1.6581 -0.3618
 3052TIP3   OH230790   3.959   5.753   8.505 -0.4755  0.0580 -0.7812
 3052TIP3    H130791   4.034   5.806   8.533 -1.6366  1.8817 -0.9415
 3052TIP3    H230792   3.956   5.765   8.410 -0.7016 -0.3712 -0.8282
 3053TIP3   OH230793   2.372   0.097   0.564 -0.1144 -0.4551 -0.1412
 3053TIP3    H130794   2.402   0.188   0.560  0.4502 -0.2516  3.9122
 3053TIP3    H230795   2.279   0.103   0.541 -0.1015  1.1699  0.0540
 3054TIP3   OH230796   4.643   1.679   3.317 -0.1556 -0.3876  0.0386
 3054TIP3    H130797   4.691   1.683   3.400 -0.3487 -0.2811  0.1465
 3054TIP3    H230798   4.680   1.750   3.265  0.3586 -0.8121 -0.1790
 3055TIP3   OH230799   0.474   3.250   2.734 -0.1527 -0.5082  0.4408
 3055TIP3    H130800   0.562   3.272   2.702 -0.5077 -1.1630 -1.0620
 3055TIP3    H230801   0.428   3.219   2.657 -1.4556 -0.9794  1.3844
 3056TIP3   OH230802   3.965   1.223   3.151  0.1437 -0.3634  0.3120
 3056TIP3    H130803   3.923   1.291   3.100  0.0213 -0.8297 -0.2143
 3056TIP3    H230804   4.036   1.268   3.198  1.1693 -0.1727 -1.3456
 3057TIP3   OH230805   4.179   2.314   3.084  1.2546  0.0633 -0.5619
 3057TIP3    H130806   4.245   2.384   3.085  0.0641  1.2172  0.0829
 3057TIP3    H230807   4.205   2.257   3.156  1.2572  0.7957  0.0292
 3058TIP3   OH230808   6.124   1.937   2.638  0.0121 -0.0250  0.1078
 3058TIP3    H130809   6.119   1.977   2.551 -0.2722 -0.4188 -0.0611
 3058TIP3    H230810   6.185   1.993   2.687  0.6444 -0.1352 -0.5344
 3059TIP3   OH230811   5.829   1.300   0.630 -0.3619  0.2627 -0.0917
 3059TIP3    H130812   5.856   1.317   0.721  0.2227 -1.4633  0.0933
 3059TIP3    H230813   5.750   1.247   0.638  0.6028 -1.2998 -0.5315
 3060TIP3   OH230814   0.523   1.195   3.547  0.0519 -0.5168 -0.1228
 3060TIP3    H130815   0.574   1.171   3.469 -0.6267 -1.8860 -0.1835
 3060TIP3    H230816   0.449   1.244   3.513  1.2219  1.4067 -0.0427
 3061TIP3   OH230817   5.077   0.104   1.080 -0.2160 -0.2056 -0.0572
 3061TIP3    H130818   5.020   0.179   1.062 -0.9239 -0.6386  0.3226
 3061TIP3    H230819   5.050   0.037   1.017 -1.4507 -1.0757  1.3025
 3062TIP3   OH230820   0.418   4.260   2.946 -0.1318 -0.0781 -0.7929
 3062TIP3    H130821   0.360   4.187   2.923 -0.1075 -0.9178  1.5354
 3062TIP3    H230822   0.506   4.226   2.933 -0.1304 -0.1487 -0.6026
 3063TIP3   OH230823   6.364   1.457   1.688  0.0877  0.7413  0.1679
 3063TIP3    H130824   6.362   1.477   1.594 -1.9353 -0.8624 -0.1870
 3063TIP3    H230825   6.430   1.388   1.696 -2.3631 -1.8828 -0.7716
 3064TIP3   OH230826   0.422   2.646   8.064  0.1038  0.1413  0.2176
 3064TIP3    H130827   0.360   2.708   8.103  0.1733 -0.0093  0.5778
 3064TIP3    H230828   0.383   2.620   7.981  0.3015  1.0439 -0.1716
 3065TIP3   OH230829   2.991   6.226   8.066 -0.0789 -0.0226 -0.0365
 3065TIP3    H130830   2.993   6.138   8.029  0.4028  0.5993 -1.5393
 3065TIP3    H230831   3.083   6.246   8.083 -0.3506 -0.9074  3.1331
 3066TIP3   OH230832   0.069   2.295   2.931 -0.0298  0.6273  0.5300
 3066TIP3    H130833   0.143   2.329   2.981  0.4524  1.7995 -0.9467
 3066TIP3    H230834   0.071   2.200   2.947  1.3306  0.7390  1.0913
 3067TIP3   OH230835   0.686   1.779   3.458 -0.7015  0.3470 -0.0910
 3067TIP3    H130836   0.744   1.708   3.482 -0.0497  0.8742 -0.0729
 3067TIP3    H230837   0.645   1.806   3.540 -0.0083  0.8088  0.1125
 3068TIP3   OH230838   5.453   4.309   2.623  0.1088 -0.5718 -0.2500
 3068TIP3    H130839   5.415   4.377   2.678  0.4786 -1.7691  1.6003
 3068TIP3    H230840   5.508   4.356   2.560  1.1386  0.8269  1.5994
 3069TIP3   OH230841   3.192   2.102   0.575  0.6577 -0.3498 -0.2614
 3069TIP3    H130842   3.218   2.010   0.566 -0.8359 -0.7836 -0.3836
 3069TIP3    H230843   3.201   2.120   0.669 -0.0658 -0.9539 -0.0660
 3070TIP3   OH230844   1.491   4.211   2.716 -0.5170  0.3997 -0.5850
 3070TIP3    H130845   1.535   4.194   2.799  0.1040 -2.0613 -1.3080
 3070TIP3    H230846   1.542   4.281   2.675 -1.1333  2.0061  1.2583
 3071TIP3   OH230847   3.271   0.338   4.145 -0.0848  0.2660 -0.7153
 3071TIP3    H130848   3.312   0.262   4.188 -1.4917 -0.2054 -0.1518
 3071TIP3    H230849   3.282   0.321   4.052 -1.6156 -1.3801 -0.6455
 3072TIP3   OH230850   4.219   5.538   3.771 -0.0530  0.2906  0.7108
 3072TIP3    H130851   4.235   5.557   3.679  0.3024  0.1383  0.7376
 3072TIP3    H230852   4.305   5.511   3.805 -0.2948 -0.1948  0.9499
 3073TIP3   OH230853   3.517   4.789   2.662 -0.9124  0.7700 -0.2097
 3073TIP3    H130854   3.569   4.710   2.649 -1.6521  0.0467  1.1104
 3073TIP3    H230855   3.538   4.844   2.585 -0.0581 -0.4956 -0.9165
 3074TIP3   OH230856   0.142   0.938   2.290 -0.0690  0.1421 -0.1188
 3074TIP3    H130857   0.071   0.928   2.227  4.1050  0.4491 -5.7190
 3074TIP3    H230858   0.186   0.853   2.290  0.9337  0.6283  1.3062
 3075TIP3   OH230859   0.864   5.830   0.101  0.7136 -0.4057 -0.2598
 3075TIP3    H130860   0.852   5.742   0.137  1.0253 -1.0800 -1.7668
 3075TIP3    H230861   0.781   5.850   0.057  1.1155 -0.5037 -1.0728
 3076TIP3   OH230862   6.864   1.504   0.569 -0.5581  0.6136  0.1271
 3076TIP3    H130863   6.902   1.513   0.482  0.5613  0.0324  0.5440
 3076TIP3    H230864   6.888   1.586   0.614  1.9299 -0.5125  1.0101
 3077TIP3   OH230865   3.716   2.166   2.548  0.2536  0.4465 -0.2369
 3077TIP3    H130866   3.810   2.153   2.563  0.4231  0.6387 -1.0768
 3077TIP3    H230867   3.708   2.258   2.525  0.1486  0.0182 -2.1069
 3078TIP3   OH230868   6.393   0.100   3.394  0.6481  0.3475 -0.0074
 3078TIP3    H130869   6.390   0.029   3.458  1.1574  0.2533 -0.0837
 3078TIP3    H230870   6.343   0.171   3.435 -0.8623 -0.4320 -0.4196
 3079TIP3   OH230871   4.461   5.691   1.494  0.0088 -0.5392 -0.2566
 3079TIP3    H130872   4.393   5.659   1.553 -1.8115  1.8388 -0.8872
 3079TIP3    H230873   4.487   5.775   1.531  0.5616 -0.1245 -1.5405
 3080TIP3   OH230874   5.444   2.832   8.012  0.0642 -0.3461 -0.3605
 3080TIP3    H130875   5.439   2.925   7.989  1.5059 -0.2257 -0.2214
 3080TIP3    H230876   5.422   2.787   7.930  1.0161  0.1092 -0.8781
 3081TIP3   OH230877   5.492   5.235   0.390  0.6540  0.1568  0.2963
 3081TIP3    H130878   5.431   5.309   0.393  1.4087  0.7674  0.9018
 3081TIP3    H230879   5.529   5.231   0.478  1.4256 -0.2583 -0.0394
 3082TIP3   OH230880   5.208   2.155   3.118 -0.2251 -0.3008  0.2121
 3082TIP3    H130881   5.152   2.080   3.137 -1.0312  0.5438  1.2779
 3082TIP3    H230882   5.276   2.152   3.186 -1.0377  0.6722  1.1035
 3083TIP3   OH230883   4.025   0.989   1.125 -0.8750 -0.0082 -0.4800
 3083TIP3    H130884   4.061   0.940   1.052 -0.4427 -0.1973 -0.1512
 3083TIP3    H230885   3.941   0.949   1.143  0.4825 -2.2745  1.3358
 3084TIP3   OH230886   0.226   6.137   0.803  0.1597 -0.0829 -0.4103
 3084TIP3    H130887   0.203   6.191   0.727  1.0376  0.4810 -0.2930
 3084TIP3    H230888   0.255   6.201   0.869  0.7689 -0.6658 -0.1051
 3085TIP3   OH230889   2.299   5.387   1.701  0.1929  0.5355  0.0063
 3085TIP3    H130890   2.345   5.326   1.757 -1.0586 -1.5782 -1.1298
 3085TIP3    H230891   2.208   5.359   1.704  0.0763  0.1385 -3.1617
 3086TIP3   OH230892   1.683   4.364   1.339 -0.0169 -0.0906 -0.4387
 3086TIP3    H130893   1.626   4.297   1.300 -0.2048  1.3810 -2.8972
 3086TIP3    H230894   1.761   4.364   1.284  1.9295 -1.1549  2.1102
 3087TIP3   OH230895   5.058   0.195   2.006  0.1287  0.4450  0.6231
 3087TIP3    H130896   4.997   0.122   1.995 -1.8760  2.0710  0.3745
 3087TIP3    H230897   5.145   0.154   2.005 -0.8986 -1.8789  0.1878
 3088TIP3   OH230898   6.402   6.352   3.208  0.1414  0.0264  0.2819
 3088TIP3    H130899   6.310   6.371   3.222 -0.4153 -1.7334 -0.6897
 3088TIP3    H230900   6.413   6.350   3.113  1.1875  0.2026  0.3803
 3089TIP3   OH230901   6.485   0.168   7.925 -0.0678 -0.1592 -0.0684
 3089TIP3    H130902   6.544   0.237   7.955  0.7423  0.6459 -3.0794
 3089TIP3    H230903   6.406   0.215   7.897 -0.0464 -0.5820 -0.8747
 3090TIP3   OH230904   1.885   5.666   2.850 -0.0790  0.2822 -0.0322
 3090TIP3    H130905   1.945   5.666   2.776 -0.3929 -0.4457 -0.3045
 3090TIP3    H230906   1.925   5.724   2.914  0.6760  0.1717 -0.3913
 3091TIP3   OH230907   3.456   2.552   0.019 -0.2060 -0.1957 -0.2131
 3091TIP3    H130908   3.513   2.553  -0.058  0.7161  0.3035  0.4585
 3091TIP3    H230909   3.392   2.621   0.002 -2.2760 -2.3631 -2.1250
 3092TIP3   OH230910   3.967   5.614   3.580  0.3958  0.0265  0.0146
 3092TIP3    H130911   3.993   5.696   3.623  0.5457  0.9753 -1.7716
 3092TIP3    H230912   4.049   5.579   3.545  0.0422  0.3452 -1.2041
 3093TIP3   OH230913   6.673   5.259   2.440 -0.1172  0.1234  0.3109
 3093TIP3    H130914   6.630   5.184   2.399 -0.9039  1.1329 -0.7699
 3093TIP3    H230915   6.667   5.329   2.375 -0.0873  1.3593  1.5883
 3094TIP3   OH230916   0.134   6.090   7.704  0.5183  0.0445 -0.4369
 3094TIP3    H130917   0.154   6.166   7.759 -0.6277  1.0076 -1.2843
 3094TIP3    H230918   0.198   6.095   7.633 -0.8220  1.5116 -1.6408
 3095TIP3   OH230919   1.433   5.550   2.994  0.1759  0.0422  0.4200
 3095TIP3    H130920   1.442   5.525   3.086  0.9971 -2.2388 -0.2278
 3095TIP3    H230921   1.350   5.509   2.967 -1.4574  2.8728  0.7337
 3096TIP3   OH230922   2.259   4.499   3.090  0.1176 -0.1299  0.2897
 3096TIP3    H130923   2.317   4.444   3.037  0.8654  0.2353  0.7115
 3096TIP3    H230924   2.243   4.577   3.036  1.1261  0.3797  0.7102
 3097TIP3   OH230925   2.365   6.240   2.822 -0.1731 -0.1567  0.0344
 3097TIP3    H130926   2.428   6.184   2.867 -0.2919  0.8132  1.4751
 3097TIP3    H230927   2.344   6.309   2.885 -1.9399  0.1034 -0.7558
 3098TIP3   OH230928   5.301   5.832   0.582 -0.5515  0.0802  0.2271
 3098TIP3    H130929   5.255   5.749   0.576 -1.7815  0.7338  0.2579
 3098TIP3    H230930   5.389   5.814   0.547 -1.3991 -0.7814 -1.5658
 3099TIP3   OH230931   3.937   6.240   2.244 -0.8025 -0.7714 -0.2423
 3099TIP3    H130932   3.868   6.183   2.278 -0.5157 -0.5391  0.7551
 3099TIP3    H230933   3.971   6.193   2.168 -2.0728 -0.8723 -0.7807
 3100TIP3   OH230934   1.023   3.057   1.327  0.0620  0.8937 -0.0582
 3100TIP3    H130935   1.113   3.083   1.348 -0.0354  0.7658  0.5486
 3100TIP3    H230936   1.013   2.971   1.368  0.0604  0.3336 -1.1972
 3101TIP3   OH230937   1.230   6.330   0.577 -0.2061 -0.7928 -0.0797
 3101TIP3    H130938   1.268   6.378   0.504 -0.5460  0.8352  0.7610
 3101TIP3    H230939   1.221   6.241   0.545 -0.5382 -0.0881 -2.0866
 3102TIP3   OH230940   2.945   6.577   0.279  0.0609 -0.6113  0.5803
 3102TIP3    H130941   2.923   6.659   0.323 -0.7093 -0.7403  0.4525
 3102TIP3    H230942   2.970   6.518   0.350 -0.4048 -0.5790  0.7749
 3103TIP3   OH230943   5.833   1.965   2.851 -0.0777  0.4936  0.2251
 3103TIP3    H130944   5.759   1.964   2.790  0.2572  1.6106 -0.2203
 3103TIP3    H230945   5.848   2.057   2.869  0.4494  0.2175  1.2620
 3104TIP3   OH230946   3.508   5.149   2.790  0.4402 -0.0144  0.0561
 3104TIP3    H130947   3.522   5.149   2.695  2.2346 -0.1908  0.2869
 3104TIP3    H230948   3.581   5.200   2.825  0.0145 -0.2736  1.3757
 3105TIP3   OH230949   6.865   6.486   1.965 -0.1862  0.4701 -0.6297
 3105TIP3    H130950   6.819   6.520   2.042  0.4223 -1.1751  0.5275
 3105TIP3    H230951   6.954   6.521   1.974 -0.4890  1.4724 -1.4096
 3106TIP3   OH230952   3.013   6.369   3.299 -0.2728 -0.0128  0.4067
 3106TIP3    H130953   3.060   6.344   3.378 -0.5563 -0.7335  0.3575
 3106TIP3    H230954   3.012   6.464   3.300  0.8046  0.0064  0.6270
 3107TIP3   OH230955   1.292   4.914   0.425 -0.0790 -0.5617 -0.4591
 3107TIP3    H130956   1.241   4.930   0.346 -0.2669 -0.1953 -0.2669
 3107TIP3    H230957   1.228   4.914   0.496  0.1209 -0.6152 -0.2770
 3108TIP3   OH230958   3.293   4.444   0.433 -0.1927 -0.0326 -0.2789
 3108TIP3    H130959   3.384   4.412   0.435 -0.8698 -2.0767  0.6760
 3108TIP3    H230960   3.246   4.381   0.380 -1.3537  0.1287  0.5157
 3109TIP3   OH230961   3.578   4.211   2.222  0.0473 -0.0787  0.0347
 3109TIP3    H130962   3.499   4.162   2.198 -0.6056 -0.5256  2.8149
 3109TIP3    H230963   3.649   4.150   2.202 -0.4341 -0.4629 -0.5924
 3110TIP3   OH230964   4.269   1.770   2.504  0.0766  0.2513 -1.4675
 3110TIP3    H130965   4.215   1.841   2.538  1.7040  0.4706  0.9550
 3110TIP3    H230966   4.299   1.801   2.418 -1.9047  0.9880 -1.9334
 3111TIP3   OH230967   3.545   1.439   8.351 -0.3233  0.9707  0.5285
 3111TIP3    H130968   3.534   1.356   8.399  0.1671  0.4483 -0.2397
 3111TIP3    H230969   3.638   1.442   8.330 -0.5810  1.0474 -0.6437
 3112TIP3   OH230970   4.271   3.939   0.715 -0.3872  0.3203  0.3589
 3112TIP3    H130971   4.259   3.878   0.788 -0.1805  0.3923  0.4537
 3112TIP3    H230972   4.328   3.892   0.654  0.2345  0.6323  0.6907
 3113TIP3   OH230973   5.372   3.319   8.275 -0.0588 -0.6754 -0.1947
 3113TIP3    H130974   5.307   3.260   8.311 -0.4040 -1.6786 -2.3421
 3113TIP3    H230975   5.392   3.284   8.188  0.4650  1.7873 -1.1537
 3114TIP3   OH230976   5.380   2.450   1.219 -0.1810  0.0686  0.0008
 3114TIP3    H130977   5.425   2.449   1.134 -0.6915 -0.8157 -0.2787
 3114TIP3    H230978   5.422   2.381   1.269  0.5179  0.9832  0.7046
 3115TIP3   OH230979   0.896   5.419   1.656  0.5847 -0.2620 -0.0146
 3115TIP3    H130980   0.901   5.384   1.567 -0.5818  1.2203 -0.7256
 3115TIP3    H230981   0.810   5.391   1.688  0.6583 -0.0968  0.3315
 3116TIP3   OH230982   2.016   5.851   3.058  0.0366  0.4434 -0.1181
 3116TIP3    H130983   2.016   5.945   3.040 -0.5704  1.4980  4.2966
 3116TIP3    H230984   2.109   5.826   3.056  0.2980  1.3926 -0.1810
 3117TIP3   OH230985   3.190   5.500   8.077 -0.0442 -0.7064  0.2970
 3117TIP3    H130986   3.285   5.510   8.082 -0.0511 -1.0782  1.7056
 3117TIP3    H230987   3.156   5.583   8.110 -0.1949 -0.8566  0.5213
 3118TIP3   OH230988   1.804   0.039   8.112 -0.5075  0.3180 -0.6819
 3118TIP3    H130989   1.882  -0.013   8.129 -0.2666  1.6029  3.2161
 3118TIP3    H230990   1.731  -0.021   8.129 -0.2953  0.2275 -0.0763
 3119TIP3   OH230991   3.044   3.382   0.442 -0.0798 -0.2290  0.1959
 3119TIP3    H130992   3.013   3.420   0.525 -0.8185 -0.5920  0.0981
 3119TIP3    H230993   3.125   3.336   0.465 -0.6190 -0.8705  0.8560
 3120TIP3   OH230994   5.241   0.112   0.222  0.1636 -0.6082  0.3917
 3120TIP3    H130995   5.206   0.071   0.301  1.7816 -0.1814  1.3725
 3120TIP3    H230996   5.223   0.049   0.152 -0.4185 -1.4399  1.2689
 3121TIP3   OH230997   1.863   6.258   1.171 -0.3274 -0.4079 -0.0714
 3121TIP3    H130998   1.803   6.286   1.239  0.4423  0.5094  0.2510
 3121TIP3    H230999   1.891   6.339   1.128 -0.2239 -0.9080 -0.9820
 3122TIP3   OH231000   0.040   1.187   7.923 -0.3031  0.1669  0.1236
 3122TIP3    H131001   0.002   1.101   7.942 -0.1733  0.2271  0.6511
 3122TIP3    H231002   0.021   1.201   7.830 -1.1751 -0.0070  0.2680
 3123TIP3   OH231003   2.460   5.545   2.704 -0.3734 -0.4372  0.1180
 3123TIP3    H131004   2.498   5.471   2.656 -3.0641 -1.6513 -0.3132
 3123TIP3    H231005   2.403   5.588   2.641 -1.2395  0.1194  1.2496
 3124TIP3   OH231006   4.892   3.297   8.550 -0.3623  0.0634 -0.3023
 3124TIP3    H131007   4.902   3.204   8.529  1.1980  0.5313 -1.8416
 3124TIP3    H231008   4.800   3.316   8.533  0.0279 -0.4321 -3.5087
 3125TIP3   OH231009   6.708   4.893   4.451 -0.0014  0.0359  0.2168
 3125TIP3    H131010   6.752   4.937   4.523 -0.3882 -0.0744  0.5254
 3125TIP3    H231011   6.730   4.945   4.374  0.0225  0.4313  0.4880
 3126TIP3   OH231012   1.911   1.755   0.922 -0.0872 -0.0122  0.2586
 3126TIP3    H131013   1.831   1.724   0.964 -0.6701  1.8558  0.6191
 3126TIP3    H231014   1.979   1.697   0.955 -0.8601  0.1075  2.2274
 3127TIP3   OH231015   1.032   1.196   1.152 -0.8324 -0.0360 -0.7214
 3127TIP3    H131016   0.988   1.118   1.119 -1.5703 -0.0084  0.1825
 3127TIP3    H231017   1.005   1.266   1.092  0.2214 -0.5465 -1.8279
 3128TIP3   OH231018   6.405   4.473   1.668 -0.1125 -0.0598 -0.2436
 3128TIP3    H131019   6.431   4.565   1.666  0.6865 -0.2857 -0.6369
 3128TIP3    H231020   6.311   4.475   1.650  0.1638  0.5888 -1.8793
 3129TIP3   OH231021   2.270   5.487   1.241  0.0587  0.9484 -0.7732
 3129TIP3    H131022   2.326   5.420   1.202 -0.3088  0.1075  0.1141
 3129TIP3    H231023   2.185   5.443   1.253  0.5112  0.7180  2.1832
 3130TIP3   OH231024   1.826   6.772   1.420  0.1224 -0.0855 -0.1403
 3130TIP3    H131025   1.795   6.853   1.461 -2.7483 -1.6994  1.1680
 3130TIP3    H231026   1.917   6.763   1.451  0.3875  2.3505  0.0171
 3131TIP3   OH231027   6.258   3.177   3.053  0.1331  0.0450 -0.2432
 3131TIP3    H131028   6.322   3.107   3.070  1.2573  0.8696 -0.9631
 3131TIP3    H231029   6.258   3.229   3.133 -0.3796 -0.4995  0.1262
 3132TIP3   OH231030   2.826   4.164   2.116  0.3646  0.0590  0.1913
 3132TIP3    H131031   2.867   4.117   2.189 -0.2027 -0.9830 -0.1329
 3132TIP3    H231032   2.746   4.200   2.153 -0.9339 -2.1192 -0.3249
 3133TIP3   OH231033   4.084   4.351   0.378 -0.0666  1.2072  0.4089
 3133TIP3    H131034   4.080   4.288   0.450  0.9566 -1.7431 -1.9042
 3133TIP3    H231035   4.024   4.317   0.312  3.2568  0.3281 -2.4904
 3134TIP3   OH231036   1.423   1.015   1.520  0.0990 -0.4728  0.8631
 3134TIP3    H131037   1.426   1.044   1.611 -0.1395 -1.2890  1.1427
 3134TIP3    H231038   1.364   0.939   1.521 -2.1387  1.1016 -0.4173
 3135TIP3   OH231039   3.284   2.770   0.096  0.0145 -0.0873 -0.0860
 3135TIP3    H131040   3.189   2.759   0.085 -0.1501 -1.4588  2.2027
 3135TIP3    H231041   3.305   2.847   0.043 -2.0834 -0.6671 -1.9288
 3136TIP3   OH231042   5.758   5.246   1.424  0.5418  0.3868 -0.2164
 3136TIP3    H131043   5.823   5.181   1.451 -1.1097 -1.8977 -1.4197
 3136TIP3    H231044   5.780   5.265   1.333  1.0389  1.5979  0.1412
 3137TIP3   OH231045   4.164   5.597   0.111 -0.4493  0.4495  0.2717
 3137TIP3    H131046   4.212   5.588   0.193 -2.2456 -1.7592  1.1713
 3137TIP3    H231047   4.133   5.688   0.111  0.7522  0.8860  1.3195
 3138TIP3   OH231048   6.896   3.462   3.256  0.0683 -0.0064 -0.0637
 3138TIP3    H131049   6.936   3.532   3.308 -0.9151  2.1515 -2.0388
 3138TIP3    H231050   6.966   3.399   3.242  1.1938  0.9023  1.2066
 3139TIP3   OH231051   5.104   1.585   1.966 -0.2408  0.4778  0.2667
 3139TIP3    H131052   5.143   1.672   1.968 -0.8024  0.7556 -0.6298
 3139TIP3    H231053   5.014   1.599   1.939 -0.0104 -0.4817 -1.0801
 3140TIP3   OH231054   2.127   2.567   8.254  0.1372  0.1802 -0.3168
 3140TIP3    H131055   2.108   2.637   8.190  1.8995  0.1765 -0.8957
 3140TIP3    H231056   2.178   2.503   8.205 -0.3870 -0.9363  0.5445
 3141TIP3   OH231057   3.718   3.628   2.223 -0.3495 -0.3048 -0.2094
 3141TIP3    H131058   3.695   3.621   2.131  1.2238 -0.2315 -0.6432
 3141TIP3    H231059   3.738   3.721   2.236 -0.8985 -0.2473  0.3084
 3142TIP3   OH231060   2.415   5.209   7.860 -0.1750 -0.4085  0.0094
 3142TIP3    H131061   2.435   5.115   7.859  0.3339 -0.3008 -0.1463
 3142TIP3    H231062   2.442   5.240   7.774 -1.7989 -0.4030 -0.5350
 3143TIP3   OH231063   5.737   5.484   1.587 -0.4654  0.0182 -0.1985
 3143TIP3    H131064   5.750   5.419   1.518  2.1814  0.1087  0.0894
 3143TIP3    H231065   5.658   5.455   1.633 -1.3306 -0.9827 -2.1954
 3144TIP3   OH231066   4.762   0.140   2.170  0.3148  0.3901  0.0074
 3144TIP3    H131067   4.854   0.147   2.195  0.6568 -1.5104 -0.5407
 3144TIP3    H231068   4.750   0.047   2.151 -0.7608  1.1375 -3.5609
 3145TIP3   OH231069   4.843   3.487   2.639 -0.2521 -0.5900 -0.3807
 3145TIP3    H131070   4.794   3.440   2.572  1.9440 -2.5276 -0.7444
 3145TIP3    H231071   4.788   3.481   2.718 -0.9773 -1.9636 -0.9644
 3146TIP3   OH231072   0.231   1.244   1.652 -0.1922  0.1064  0.2000
 3146TIP3    H131073   0.249   1.338   1.648 -0.7623  0.1993 -0.4639
 3146TIP3    H231074   0.228   1.224   1.745 -0.1379  0.7672  0.3500
 3147TIP3   OH231075   1.801   6.818   1.854 -0.6586 -0.0632  0.1720
 3147TIP3    H131076   1.770   6.857   1.773  0.7886  0.4222 -0.1785
 3147TIP3    H231077   1.869   6.757   1.827  0.0262  0.2993  1.0270
 3148TIP3   OH231078   1.037   6.061   1.747  0.3923  0.4756 -0.9036
 3148TIP3    H131079   0.975   6.063   1.820  0.7309  0.2871 -0.6067
 3148TIP3    H231080   1.090   5.983   1.763 -0.1566 -0.1155 -1.8815
 3149TIP3   OH231081   2.149   1.579   2.732  0.2512  0.7024 -0.3868
 3149TIP3    H131082   2.087   1.520   2.775 -0.0252  1.3750  0.1609
 3149TIP3    H231083   2.108   1.600   2.647 -0.2538  1.0953 -0.0525
 3150TIP3   OH231084   0.924   2.196   0.269  0.6243 -0.0514  0.2935
 3150TIP3    H131085   0.991   2.211   0.202 -1.7221 -0.2688 -2.2940
 3150TIP3    H231086   0.902   2.284   0.300  1.3280  0.1000  0.3997
 3151TIP3   OH231087   4.370   1.667   0.553  0.5908 -0.3418  0.4347
 3151TIP3    H131088   4.326   1.749   0.576  1.6546  0.0702  1.0781
 3151TIP3    H231089   4.317   1.599   0.595  0.4075  0.1174  0.9680
 3152TIP3   OH231090   4.205   2.630   3.062 -0.2255  0.1204 -0.4013
 3152TIP3    H131091   4.246   2.715   3.078 -2.0706  1.1838 -1.0750
 3152TIP3    H231092   4.127   2.630   3.116 -0.3929 -1.0613 -0.6129
 3153TIP3   OH231093   3.906   5.960   2.357 -0.5131 -0.9745  0.1955
 3153TIP3    H131094   3.974   5.939   2.421  0.6812 -0.8197 -0.9790
 3153TIP3    H231095   3.934   5.917   2.276  0.0018  1.7852 -1.2340
 3154TIP3   OH231096   0.648   2.608   2.061  0.5550  0.2158  0.1568
 3154TIP3    H131097   0.734   2.573   2.084  1.3401  0.2684 -2.3462
 3154TIP3    H231098   0.631   2.574   1.973 -1.6781  0.8044  0.2956
 3155TIP3   OH231099   0.397   3.422   0.518 -0.2663  0.7326 -0.5517
 3155TIP3    H131100   0.443   3.380   0.591 -1.2995 -0.3705 -0.5125
 3155TIP3    H231101   0.438   3.387   0.439  0.1903  1.1752 -0.5168
 3156TIP3   OH231102   1.406   1.450   3.214  0.6259  0.1583 -0.2823
 3156TIP3    H131103   1.497   1.469   3.192  1.1494 -0.4227  1.2173
 3156TIP3    H231104   1.377   1.388   3.147  0.9707  1.1428 -1.3837
 3157TIP3   OH231105   1.261   5.270   1.859  0.4987  0.2093  0.3672
 3157TIP3    H131106   1.223   5.183   1.874  0.1665 -0.0475 -1.7225
 3157TIP3    H231107   1.335   5.253   1.801  0.1997  1.3740 -0.3628
 3158TIP3   OH231108   6.449   4.809   2.156  0.1749 -0.7540 -0.0207
 3158TIP3    H131109   6.363   4.776   2.184  0.0980 -1.0917 -0.6465
 3158TIP3    H231110   6.512   4.747   2.192  0.0636 -1.2936 -0.7397
 3159TIP3   OH231111   0.277   1.074   1.909 -0.9287 -0.8138 -0.8022
 3159TIP3    H131112   0.329   1.006   1.868 -3.4678 -2.1885 -1.9559
 3159TIP3    H231113   0.193   1.032   1.928 -2.2214  1.6950 -0.5440
 3160TIP3   OH231114   3.018   2.518   1.469 -0.3685 -0.0371  0.5413
 3160TIP3    H131115   2.948   2.567   1.425  1.0300  1.0454 -0.5616
 3160TIP3    H231116   3.076   2.586   1.504  1.6796 -0.8156 -1.1158
 3161TIP3   OH231117   6.702   2.291   3.186 -0.0737  0.5095  0.5182
 3161TIP3    H131118   6.633   2.257   3.243  0.4091 -1.3678  0.0586
 3161TIP3    H231119   6.691   2.242   3.104  2.3102 -0.5058  0.7327
 3162TIP3   OH231120   1.470   1.096   3.244 -0.2989  0.1979 -0.3425
 3162TIP3    H131121   1.550   1.145   3.260 -1.0623  1.4851 -0.3129
 3162TIP3    H231122   1.468   1.082   3.150 -0.6238  1.2493 -0.5063
 3163TIP3   OH231123   3.077   5.197   7.778  0.6811 -0.2854  0.4179
 3163TIP3    H131124   3.151   5.168   7.830 -0.3244 -0.6718  1.6980
 3163TIP3    H231125   3.028   5.255   7.836 -0.1281 -0.2182 -0.3116
 3164TIP3   OH231126   4.371   1.091   7.794  0.5635  0.0944  0.1222
 3164TIP3    H131127   4.419   1.103   7.876 -0.8406  0.0458  1.0017
 3164TIP3    H231128   4.296   1.036   7.819 -0.7922  1.4264 -0.8236
 3165TIP3   OH231129   3.811   5.387   3.086 -0.5301 -0.2059  0.0001
 3165TIP3    H131130   3.904   5.393   3.106 -0.7013 -0.1897  0.7955
 3165TIP3    H231131   3.800   5.439   3.006 -0.0318  0.5919  0.4513
 3166TIP3   OH231132   3.592   5.914   0.721 -0.0137 -0.2691  0.1975
 3166TIP3    H131133   3.584   5.993   0.667 -1.5203 -0.9599 -0.6480
 3166TIP3    H231134   3.503   5.897   0.751  0.1538 -2.0727 -0.2537
 3167TIP3   OH231135   1.893   3.483   3.581 -0.2130  0.3714 -0.2146
 3167TIP3    H131136   1.915   3.413   3.643 -2.1104 -2.9764 -2.9826
 3167TIP3    H231137   1.972   3.495   3.529 -0.0648 -0.1691 -0.1196
 3168TIP3   OH231138   5.635   5.369   0.907  0.3636 -0.3721  0.4360
 3168TIP3    H131139   5.566   5.322   0.955 -1.6516  1.1474 -0.7695
 3168TIP3    H231140   5.647   5.450   0.957  0.1608  0.0266 -0.1407
 3169TIP3   OH231141   4.362   5.534   7.967  0.4001  0.5627  0.7638
 3169TIP3    H131142   4.344   5.456   8.020  0.2003  0.2693  0.2747
 3169TIP3    H231143   4.443   5.514   7.921 -1.3701 -0.8439 -2.0279
 3170TIP3   OH231144   6.800   5.271   3.336  0.0682  0.2117  0.8371
 3170TIP3    H131145   6.711   5.264   3.302  0.6232 -2.0410 -0.3739
 3170TIP3    H231146   6.797   5.228   3.421 -0.1391  0.7312  1.0916
 3171TIP3   OH231147   2.252   4.759   2.561 -0.1615  0.4832  0.2633
 3171TIP3    H131148   2.315   4.687   2.552  0.5095  0.6546  2.8580
 3171TIP3    H231149   2.303   4.832   2.596 -1.3737  1.3620  0.2693
 3172TIP3   OH231150   1.939   2.804   4.013  0.4322  0.6146  0.4296
 3172TIP3    H131151   1.947   2.879   4.072 -2.2357 -0.7868  2.7767
 3172TIP3    H231152   1.964   2.729   4.065  2.1839 -0.3253 -1.6161
 3173TIP3   OH231153   0.444   4.183   3.483  0.1816  0.0720 -0.1039
 3173TIP3    H131154   0.493   4.102   3.470  1.7143  0.9725 -0.1585
 3173TIP3    H231155   0.479   4.243   3.417 -2.6825  0.0877 -1.8072
 3174TIP3   OH231156   0.737   6.205   0.226 -0.5086  0.0214  0.1594
 3174TIP3    H131157   0.654   6.169   0.195 -0.3845 -1.3306  1.2848
 3174TIP3    H231158   0.716   6.294   0.255 -1.5612 -0.2868  0.3722
 3175TIP3   OH231159   1.091   4.387   2.950  0.6139  0.1461  0.0014
 3175TIP3    H131160   1.036   4.454   2.990 -2.2141 -0.5526 -2.3246
 3175TIP3    H231161   1.146   4.434   2.888  0.3278  0.5440  0.0495
 3176TIP3   OH231162   3.144   6.806   3.822  0.5366  0.3224 -0.1813
 3176TIP3    H131163   3.145   6.878   3.885  1.9569 -0.0149  0.2185
 3176TIP3    H231164   3.218   6.751   3.847 -1.3838 -2.1212  0.4539
 3177TIP3   OH231165   5.746   5.024   2.240 -0.0695  0.3713 -0.1859
 3177TIP3    H131166   5.686   5.068   2.181 -1.1569 -2.5223 -1.4498
 3177TIP3    H231167   5.798   4.966   2.184 -0.0250 -1.3092  1.4727
 3178TIP3   OH231168   1.471   0.632   1.757  0.1588 -0.3816 -0.4337
 3178TIP3    H131169   1.411   0.703   1.733  0.5246  0.5689  1.2852
 3178TIP3    H231170   1.473   0.634   1.853  2.4854 -0.7593 -0.4184
 3179TIP3   OH231171   6.877   2.047   1.614 -0.3790 -0.1972  0.4698
 3179TIP3    H131172   6.961   2.076   1.577  0.1130 -0.8901  1.0199
 3179TIP3    H231173   6.883   1.951   1.613 -0.1447 -0.2583  2.7677
 3180TIP3   OH231174   3.324   4.083   8.093  0.1193 -0.4465 -0.3576
 3180TIP3    H131175   3.263   4.155   8.109  0.9803  0.0524  0.8320
 3180TIP3    H231176   3.410   4.123   8.098  0.6016 -1.4388 -0.4195
 3181TIP3   OH231177   4.075   1.102   1.880  0.4881  0.0882  0.2294
 3181TIP3    H131178   4.087   1.161   1.955 -0.5179  0.6080 -0.0007
 3181TIP3    H231179   4.157   1.110   1.830  1.7933 -1.3926  2.0051
 3182TIP3   OH231180   2.355   6.808   1.781 -0.3456 -0.2188  0.1148
 3182TIP3    H131181   2.330   6.800   1.689  0.4207 -1.8035  0.0199
 3182TIP3    H231182   2.449   6.823   1.780 -0.4942  0.9265  0.6377
 3183TIP3   OH231183   3.544   4.484   2.148 -0.3841  0.3190 -0.0518
 3183TIP3    H131184   3.477   4.547   2.171 -0.4298 -0.1246  1.1005
 3183TIP3    H231185   3.517   4.403   2.192 -0.1782 -0.4282 -1.2553
 3184TIP3   OH231186   2.737   6.685   3.766 -0.3145  0.0838 -0.4045
 3184TIP3    H131187   2.764   6.598   3.738 -0.7339 -0.5683  1.1013
 3184TIP3    H231188   2.798   6.708   3.836  0.0169  1.1594 -1.0342
 3185TIP3   OH231189   0.511   6.708   3.527 -0.4401 -0.3703  0.1455
 3185TIP3    H131190   0.483   6.765   3.598 -1.0316 -1.9915  1.2518
 3185TIP3    H231191   0.503   6.619   3.562  0.6248 -1.1464 -1.4634
 3186TIP3   OH231192   0.223   4.317   3.598 -0.2396  0.1877 -0.2714
 3186TIP3    H131193   0.280   4.389   3.572 -0.6430  0.0520 -1.6459
 3186TIP3    H231194   0.267   4.239   3.565 -1.0913  0.0630 -1.1497
 3187TIP3   OH231195   3.544   6.628   0.211  0.1910  0.4783  0.3699
 3187TIP3    H131196   3.574   6.540   0.188  0.4253  0.4363  0.8234
 3187TIP3    H231197   3.504   6.617   0.297 -0.4366  0.6818  0.1065
 3188TIP3   OH231198   4.799   6.058   0.388  0.0306 -0.2164 -0.1993
 3188TIP3    H131199   4.789   5.996   0.316  2.9415 -0.2079 -0.7440
 3188TIP3    H231200   4.794   6.003   0.467 -3.4308 -0.1919 -0.2312
 3189TIP3   OH231201   2.613   1.874   0.599 -0.0982 -0.8823 -0.2302
 3189TIP3    H131202   2.574   1.890   0.514 -1.8783 -1.0793  0.5065
 3189TIP3    H231203   2.575   1.792   0.629  0.4679 -0.8095  0.7644
 3190TIP3   OH231204   5.714   3.612   3.389 -0.2032 -0.5869  0.1268
 3190TIP3    H131205   5.786   3.636   3.447 -1.6420 -0.9433  2.1543
 3190TIP3    H231206   5.672   3.695   3.367  0.0830 -0.4888 -0.0519
 3191TIP3   OH231207   3.691   1.587   2.186  0.7446 -0.6418  0.7078
 3191TIP3    H131208   3.650   1.634   2.114  0.8854  0.3178  1.2418
 3191TIP3    H231209   3.785   1.598   2.172  0.7686 -0.1747  1.2143
 3192TIP3   OH231210   2.015   1.843   0.698  0.4845  0.7142  0.8608
 3192TIP3    H131211   1.980   1.784   0.631  2.1385  0.2998  0.3012
 3192TIP3    H231212   1.974   1.815   0.780  0.3813 -0.4802  0.4149
 3193TIP3   OH231213   4.602   2.399   2.169  0.0481  0.0887 -0.6688
 3193TIP3    H131214   4.570   2.484   2.138  0.5792  0.2560 -0.7726
 3193TIP3    H231215   4.660   2.421   2.243  1.1407 -0.0801 -1.4414
 3194TIP3   OH231216   5.184   4.917   1.401 -0.2545 -0.2055 -0.4880
 3194TIP3    H131217   5.140   4.833   1.412 -0.2804 -0.1496 -0.1582
 3194TIP3    H231218   5.162   4.966   1.480 -1.4104  0.6423 -1.3026
 3195TIP3   OH231219   1.117   2.597   1.031  0.0884  0.0465 -0.5940
 3195TIP3    H131220   1.175   2.661   1.072  0.1585 -0.4304  0.0748
 3195TIP3    H231221   1.171   2.518   1.023  0.0384  0.0944 -1.5124
 3196TIP3   OH231222   3.829   6.152   1.502 -0.1989  0.2331 -0.1117
 3196TIP3    H131223   3.818   6.057   1.515  1.2739 -0.3573 -2.5632
 3196TIP3    H231224   3.877   6.181   1.580 -1.2201 -0.8843  0.9800
 3197TIP3   OH231225   6.836   5.699   3.616 -0.0971 -0.5552 -0.2916
 3197TIP3    H131226   6.741   5.689   3.618 -0.4859  0.2745 -4.4077
 3197TIP3    H231227   6.852   5.786   3.652 -1.0428 -0.2319 -0.6100
 3198TIP3   OH231228   5.363   4.527   2.765 -0.7871 -1.1583  0.4313
 3198TIP3    H131229   5.384   4.572   2.683 -2.0241 -2.2833 -0.5447
 3198TIP3    H231230   5.373   4.594   2.833  1.7287 -0.5799 -0.4172
 3199TIP3   OH231231   6.160   6.473   3.250  0.4352 -0.1839 -0.0221
 3199TIP3    H131232   6.079   6.499   3.206 -0.4174 -3.5789 -0.6964
 3199TIP3    H231233   6.137   6.469   3.343 -0.1443 -1.0215 -0.1999
 3200TIP3   OH231234   4.538   4.748   1.099  0.0174 -0.0345  0.2789
 3200TIP3    H131235   4.509   4.660   1.126  0.9808 -0.3265  0.3969
 3200TIP3    H231236   4.477   4.772   1.029  0.1584 -1.1031 -0.2396
 3201TIP3   OH231237   1.674   5.957   1.743 -0.1410 -0.4631 -0.2356
 3201TIP3    H131238   1.720   5.931   1.663  0.6747  0.4221 -0.0713
 3201TIP3    H231239   1.581   5.953   1.719  0.0744 -0.5853 -1.1096
 3202TIP3   OH231240   3.102   3.201   2.541  0.0202 -0.2394  0.2438
 3202TIP3    H131241   3.055   3.156   2.470 -0.6166  0.3229  0.3033
 3202TIP3    H231242   3.041   3.199   2.615 -1.1416  2.9645 -0.4680
 3203TIP3   OH231243   3.101   5.636   3.029  0.0772  0.4044 -0.2663
 3203TIP3    H131244   3.138   5.675   3.108  3.5447 -0.3092 -1.3576
 3203TIP3    H231245   3.156   5.668   2.958 -1.0197 -1.3255 -2.0076
 3204TIP3   OH231246   0.999   5.363   1.033  0.2497 -0.5762  0.5269
 3204TIP3    H131247   1.050   5.417   0.973 -1.9914  0.4730 -0.5738
 3204TIP3    H231248   0.933   5.423   1.069 -0.8818 -2.0615  1.0375
 3205TIP3   OH231249   1.076   4.202   3.596 -0.2960 -0.1638 -0.6565
 3205TIP3    H131250   1.086   4.286   3.641  1.0090 -1.4859  1.7089
 3205TIP3    H231251   1.141   4.204   3.526 -0.0234  0.6636 -0.3901
 3206TIP3   OH231252   5.475   5.384   2.763 -0.2596  0.0478 -0.0614
 3206TIP3    H131253   5.513   5.470   2.746 -1.2350  1.0642  2.4131
 3206TIP3    H231254   5.396   5.381   2.709 -1.7560  1.9597  1.8404
 3207TIP3   OH231255   1.900   3.374   2.906 -0.3631  0.3518 -0.5457
 3207TIP3    H131256   1.829   3.437   2.894 -1.8036 -0.9187  0.9383
 3207TIP3    H231257   1.977   3.428   2.926 -1.5587  1.6533  0.7438
 3208TIP3   OH231258   2.074   4.805   1.923 -0.1516  0.2161 -0.0207
 3208TIP3    H131259   2.122   4.888   1.921  1.2927 -0.5864 -0.1556
 3208TIP3    H231260   2.086   4.768   1.836 -0.0095 -0.5400  0.3072
 3209TIP3   OH231261   5.868   4.000   0.209  0.1457 -0.2309  0.1027
 3209TIP3    H131262   5.913   4.077   0.174 -0.2620 -0.1746 -0.3084
 3209TIP3    H231263   5.849   3.947   0.132 -2.3399  0.7125 -0.0065
 3210TIP3   OH231264   6.645   4.749   0.128 -0.5752  0.4475  0.7688
 3210TIP3    H131265   6.584   4.710   0.190 -1.8855  3.0943  1.2635
 3210TIP3    H231266   6.630   4.701   0.047 -1.1645 -0.9039  1.6404
 3211TIP3   OH231267   3.097   4.110   3.168  0.3564 -0.7755  0.4943
 3211TIP3    H131268   3.046   4.166   3.227  1.3611 -0.5019  1.1198
 3211TIP3    H231269   3.047   4.028   3.165 -0.6746 -0.1666  0.2467
 3212TIP3   OH231270   5.635   1.699   2.712  0.2682 -0.0132 -0.5399
 3212TIP3    H131271   5.646   1.744   2.796  2.4655  1.0847 -1.3309
 3212TIP3    H231272   5.595   1.615   2.735  1.9699 -0.2987  1.7931
 3213TIP3   OH231273   4.506   4.036   1.839 -0.0423  0.3745  0.3356
 3213TIP3    H131274   4.466   3.952   1.862  2.3376 -1.1343 -0.6875
 3213TIP3    H231275   4.464   4.060   1.757 -0.9226  0.3400  0.7621
 3214TIP3   OH231276   6.020   6.383   0.074  0.7694 -0.4862 -0.1418
 3214TIP3    H131277   5.996   6.407   0.164  0.4348  0.3601 -0.4434
 3214TIP3    H231278   6.002   6.289   0.069  1.2428 -0.6431  0.8135
 3215TIP3   OH231279   2.445   1.260   2.289  0.2669 -0.0884 -0.3184
 3215TIP3    H131280   2.399   1.335   2.251 -0.4463  0.3083  1.2639
 3215TIP3    H231281   2.535   1.290   2.299 -0.2143  0.9785  1.2450
 3216TIP3   OH231282   2.221   4.853   0.773 -0.1799  0.5140 -0.4406
 3216TIP3    H131283   2.182   4.767   0.789 -0.1611  0.6527  0.4214
 3216TIP3    H231284   2.246   4.852   0.680  3.0183 -1.7489  0.2762
 3217TIP3   OH231285   1.618   6.661   0.339  0.3803  0.0918  0.0175
 3217TIP3    H131286   1.556   6.589   0.325  0.2802 -0.1569  1.5884
 3217TIP3    H231287   1.575   6.717   0.404  0.4672  1.5778 -1.1469
 3218TIP3   OH231288   2.479   1.069   0.001 -0.2555 -0.3508  0.7528
 3218TIP3    H131289   2.483   0.984  -0.043 -0.2827  0.3923 -0.7521
 3218TIP3    H231290   2.542   1.123  -0.046 -1.5192  0.9695  0.4916
 3219TIP3   OH231291   1.432   4.615   1.863 -0.3472  0.1688  0.0159
 3219TIP3    H131292   1.453   4.550   1.930 -0.2009 -3.1554 -2.9308
 3219TIP3    H231293   1.398   4.689   1.911 -2.8763 -2.9610  3.6609
 3220TIP3   OH231294   6.317   5.531   0.395 -0.4129  0.4842  0.0450
 3220TIP3    H131295   6.304   5.468   0.323 -1.9454  2.1580 -1.2541
 3220TIP3    H231296   6.410   5.555   0.389 -0.1369 -0.6083 -0.3255
 3221TIP3   OH231297   3.144   5.132   2.495  0.6984 -0.2050 -0.1840
 3221TIP3    H131298   3.163   5.109   2.404 -0.7879  1.6315 -1.0203
 3221TIP3    H231299   3.219   5.184   2.523  1.7039 -1.7178  0.0754
 3222TIP3   OH231300   1.169   0.763   0.446  0.6053  0.6036 -0.1282
 3222TIP3    H131301   1.159   0.857   0.436 -2.2778  0.2406 -1.5474
 3222TIP3    H231302   1.198   0.732   0.360  0.4611  0.0890  0.0035
 3223TIP3   OH231303   4.980   2.214   3.432 -0.3553  0.3502  0.3911
 3223TIP3    H131304   4.918   2.167   3.487  0.4905  0.5660  1.5583
 3223TIP3    H231305   5.040   2.256   3.493 -0.2944  1.8710 -0.6624
 3224TIP3   OH231306   2.023   3.007   2.105  0.6853  0.1273  0.0187
 3224TIP3    H131307   1.932   3.019   2.132  0.8195  0.8708  0.1529
 3224TIP3    H231308   2.027   3.044   2.017  1.1709  1.3669  0.5465
 3225TIP3   OH231309   4.710   3.465   3.543 -0.6596  0.5619  0.3124
 3225TIP3    H131310   4.697   3.523   3.468 -1.7427  0.2858  0.2685
 3225TIP3    H231311   4.727   3.523   3.616 -0.1603  0.8625 -0.0417
 3226TIP3   OH231312   1.507   4.530   2.592  0.0844 -0.0967 -0.8179
 3226TIP3    H131313   1.540   4.453   2.546 -0.7669 -2.1047  1.6938
 3226TIP3    H231314   1.586   4.582   2.610  1.2298 -2.0807  0.2942
 3227TIP3   OH231315   1.555   4.116   1.289  0.0533 -0.0507 -0.0157
 3227TIP3    H131316   1.524   4.028   1.266 -0.7044 -0.0582  0.9307
 3227TIP3    H231317   1.503   4.140   1.366 -0.2801  1.5283 -0.6888
 3228TIP3   OH231318   4.268   3.776   0.978 -0.1126 -0.1433  0.2967
 3228TIP3    H131319   4.330   3.808   1.044  1.4283  1.5419 -1.8110
 3228TIP3    H231320   4.311   3.700   0.939 -0.5474 -0.5022  0.5041
 3229TIP3   OH231321   4.776   2.683   4.301 -0.5706  0.1574 -0.7393
 3229TIP3    H131322   4.786   2.770   4.339 -0.1955  0.5163 -1.6324
 3229TIP3    H231323   4.797   2.695   4.209 -0.2530 -0.9381 -0.8182
 3230TIP3   OH231324   0.981   2.842   8.433 -0.5835  0.6006 -0.4513
 3230TIP3    H131325   1.072   2.845   8.463 -0.4876 -1.7830 -0.3205
 3230TIP3    H231326   0.980   2.774   8.366 -2.3100  0.4223 -0.2929
 3231TIP3   OH231327   1.217   6.819   1.503 -0.0409 -0.3848 -0.3550
 3231TIP3    H131328   1.190   6.870   1.427 -1.2672 -1.1175 -0.4468
 3231TIP3    H231329   1.199   6.876   1.578 -0.0163 -0.1315 -0.5438
 3232TIP3   OH231330   1.187   4.930   7.989  0.5132  0.1596 -0.5569
 3232TIP3    H131331   1.209   5.015   7.951  2.0774  0.3657  0.7259
 3232TIP3    H231332   1.127   4.950   8.060  2.2409  0.4506  0.9025
 3233TIP3   OH231333   4.926   5.258   1.336  0.2878 -0.1077  0.1827
 3233TIP3    H131334   4.894   5.172   1.365  0.3059 -0.1405  0.1054
 3233TIP3    H231335   4.849   5.301   1.300  0.2165  0.0201  0.4838
 3234TIP3   OH231336   3.802   6.218   3.323  0.3083  0.3897 -0.0269
 3234TIP3    H131337   3.760   6.302   3.304  0.2941  0.3381 -0.2238
 3234TIP3    H231338   3.813   6.218   3.418 -2.5922 -0.7584  0.4157
 3235TIP3   OH231339   2.500   0.414   0.282 -0.0269 -0.0251  0.1150
 3235TIP3    H131340   2.412   0.421   0.318 -0.2717  1.7432 -0.7500
 3235TIP3    H231341   2.513   0.320   0.270 -2.4564 -0.2604 -1.3333
 3236TIP3   OH231342   3.962   3.418   7.488 -0.2270  0.3927 -0.5532
 3236TIP3    H131343   3.927   3.452   7.571 -1.4531  0.4147 -1.0680
 3236TIP3    H231344   3.911   3.462   7.420 -0.3502 -0.8474 -1.2837
 3237TIP3   OH231345   4.956   4.547   0.398 -1.0085  0.2737 -0.3435
 3237TIP3    H131346   4.917   4.544   0.311 -0.7307 -1.6364 -0.4636
 3237TIP3    H231347   4.944   4.637   0.428 -1.7198  0.7831 -2.0695
 3238TIP3   OH231348   6.225   5.299   2.124 -0.4066 -0.3511  0.4574
 3238TIP3    H131349   6.257   5.214   2.095  0.1834 -0.1496  0.5030
 3238TIP3    H231350   6.251   5.359   2.054 -0.1469 -0.0811  0.7840
 3239TIP3   OH231351   2.532   2.246   1.502 -0.3901  0.3270  0.1492
 3239TIP3    H131352   2.576   2.213   1.424 -1.9728  1.0291 -1.0901
 3239TIP3    H231353   2.598   2.301   1.545 -0.0045  1.3009 -1.6153
 3240TIP3   OH231354   3.520   3.381   1.986  0.0801 -1.0545  0.6760
 3240TIP3    H131355   3.611   3.351   1.988  0.4141 -0.2936 -1.3165
 3240TIP3    H231356   3.513   3.434   1.907 -1.2754  1.6859  2.4652
 3241TIP3   OH231357   2.038   4.527   2.804 -0.1791  0.3860  0.1487
 3241TIP3    H131358   1.983   4.516   2.882  1.3013 -1.5217  1.0168
 3241TIP3    H231359   2.093   4.603   2.824 -0.8149  0.8057  0.3247
 3242TIP3   OH231360   3.757   1.548   0.273 -0.2552  0.3442 -0.0273
 3242TIP3    H131361   3.719   1.520   0.189 -0.0448  0.6084 -0.2155
 3242TIP3    H231362   3.817   1.619   0.249  1.3388 -0.9146  0.1189
 3243TIP3   OH231363   4.738   1.875   1.480 -0.0823  0.4828 -0.2026
 3243TIP3    H131364   4.796   1.922   1.539 -1.8092  0.3137  1.7251
 3243TIP3    H231365   4.715   1.795   1.527 -0.3788 -0.3952 -1.7447
 3244TIP3   OH231366   2.064   1.324   1.117 -0.2701 -0.1526  0.2628
 3244TIP3    H131367   2.080   1.333   1.211  0.5984 -0.1431  0.1247
 3244TIP3    H231368   2.024   1.237   1.108 -0.2727 -0.1935  0.6299
 3245TIP3   OH231369   0.186   0.326   2.103  0.6936  0.2277  0.0668
 3245TIP3    H131370   0.180   0.420   2.091 -3.0707  0.0926 -0.3344
 3245TIP3    H231371   0.190   0.314   2.198 -1.4060  0.8296  0.2813
 3246TIP3   OH231372   3.236   5.773   1.166  0.1080 -0.0548 -0.1710
 3246TIP3    H131373   3.231   5.721   1.246 -1.5589  1.1109  0.5603
 3246TIP3    H231374   3.149   5.764   1.126  0.8729 -0.5451 -1.8518
 3247TIP3   OH231375   1.595   3.167   3.370  0.2904  0.2040  0.4341
 3247TIP3    H131376   1.675   3.118   3.389  1.6806  0.6106 -3.4817
 3247TIP3    H231377   1.611   3.254   3.408  1.9965  0.4394 -0.7144
 3248TIP3   OH231378   3.822   0.270   3.269 -0.3631 -0.1213  0.2989
 3248TIP3    H131379   3.873   0.281   3.349  0.7651  1.5441 -0.5844
 3248TIP3    H231380   3.744   0.323   3.283 -1.3175 -1.6837  1.1632
 3249TIP3   OH231381   2.263   4.401   0.763  0.1274 -0.2874 -0.5465
 3249TIP3    H131382   2.352   4.425   0.738  0.0736  1.4252  0.7766
 3249TIP3    H231383   2.258   4.307   0.747  1.7159 -0.1708 -1.9409
 3250TIP3   OH231384   5.729   0.828   0.812  0.2258 -0.0687  0.0908
 3250TIP3    H131385   5.653   0.789   0.854  0.3516 -0.7148 -0.2604
 3250TIP3    H231386   5.712   0.819   0.718  1.2872 -1.3719 -0.0080
 3251TIP3   OH231387   5.319   4.238   8.554  0.3564 -0.0847  0.0292
 3251TIP3    H131388   5.281   4.233   8.466 -0.1209 -0.2944  0.2478
 3251TIP3    H231389   5.365   4.322   8.555  1.6385 -0.7375 -0.9278
 3252TIP3   OH231390   2.076   6.296   3.236  0.6968 -0.0242  0.0670
 3252TIP3    H131391   1.994   6.311   3.189 -0.2446 -0.2304  1.5692
 3252TIP3    H231392   2.099   6.382   3.271 -1.4293 -0.6707  3.5263
 3253TIP3   OH231393   6.897   0.983   8.474 -0.5135 -0.4936  0.2461
 3253TIP3    H131394   6.805   0.978   8.501 -0.2234 -0.3740  1.2773
 3253TIP3    H231395   6.942   1.020   8.549  0.5918 -1.8300  0.2680
 3254TIP3   OH231396   3.980   6.353   2.614 -0.4515 -0.0324 -0.2456
 3254TIP3    H131397   3.953   6.418   2.678  0.5803  0.5158 -0.3526
 3254TIP3    H231398   3.899   6.307   2.591 -1.1171  0.9230  0.1387
 3255TIP3   OH231399   1.616   3.574   1.463  0.1745  0.0937 -0.2042
 3255TIP3    H131400   1.627   3.668   1.454  1.8055 -0.2344 -2.7379
 3255TIP3    H231401   1.703   3.538   1.447 -0.6034 -1.8786 -0.2772
 3256TIP3   OH231402   4.802   6.243   3.162  0.5753 -0.1689  0.0018
 3256TIP3    H131403   4.754   6.180   3.108 -0.2725  0.7455 -0.3493
 3256TIP3    H231404   4.737   6.311   3.183  1.6689  1.0132 -0.3204
 3257TIP3   OH231405   2.105   1.932   1.917  0.4536  0.3474 -0.0292
 3257TIP3    H131406   2.172   1.995   1.889  1.1358  0.5857  1.9655
 3257TIP3    H231407   2.022   1.972   1.893  0.9685  0.0065 -2.6460
 3258TIP3   OH231408   4.795   1.463   1.240  0.3785 -0.4109  0.6310
 3258TIP3    H131409   4.813   1.419   1.156 -0.6792 -2.9865  1.6259
 3258TIP3    H231410   4.736   1.402   1.285  1.1717  0.7484  3.3823
 3259TIP3   OH231411   0.403   3.162   8.385 -0.0168  0.2575 -0.1797
 3259TIP3    H131412   0.340   3.110   8.335  0.7643  0.7732 -1.7536
 3259TIP3    H231413   0.487   3.143   8.344  0.8482 -0.2360  1.7329
 3260TIP3   OH231414   2.072   2.341   1.537 -0.3640 -0.2448  0.7232
 3260TIP3    H131415   2.144   2.331   1.599 -0.6682 -0.5429  1.0297
 3260TIP3    H231416   2.062   2.436   1.528  0.3701 -0.1902  0.3144
 3261TIP3   OH231417   1.699   5.339   1.345 -0.2746 -0.2973 -0.0776
 3261TIP3    H131418   1.755   5.385   1.282 -1.0807  1.7951  0.6495
 3261TIP3    H231419   1.610   5.352   1.312 -0.7009  0.7279  1.3660
 3262TIP3   OH231420   6.656   1.254   2.065  0.0920 -0.1533  0.1217
 3262TIP3    H131421   6.581   1.245   2.007 -0.8534  1.3939  1.0245
 3262TIP3    H231422   6.729   1.279   2.008 -0.5342  0.1815 -0.5442
 3263TIP3   OH231423   0.005   1.015   1.777  0.5654  0.0380  0.1469
 3263TIP3    H131424  -0.073   1.001   1.724  0.1209 -0.0617  0.8213
 3263TIP3    H231425   0.044   0.928   1.786  1.6103  0.2843 -1.4512
 3264TIP3   OH231426   3.393   1.092   0.321 -0.2942 -0.4567  0.4763
 3264TIP3    H131427   3.451   1.024   0.356 -0.9573 -0.7445  1.0539
 3264TIP3    H231428   3.444   1.172   0.326 -0.4120 -0.4511  2.3105
 3265TIP3   OH231429   4.785   1.537   2.701 -0.6222  0.4602  0.1032
 3265TIP3    H131430   4.762   1.627   2.678 -0.0574  0.6362  0.1962
 3265TIP3    H231431   4.877   1.542   2.727 -0.1906 -0.3683 -1.1515
 3266TIP3   OH231432   4.757   2.444   1.267 -0.0419  0.1849  0.4349
 3266TIP3    H131433   4.769   2.376   1.334  0.5725 -0.2877 -0.1423
 3266TIP3    H231434   4.665   2.437   1.243  0.2764 -1.2536 -0.4532
 3267TIP3   OH231435   6.126   1.728   0.365  0.3050 -0.4164  0.8395
 3267TIP3    H131436   6.125   1.805   0.423 -2.6540  2.6979 -2.8109
 3267TIP3    H231437   6.212   1.731   0.323  1.5489 -1.3238  3.1174
 3268TIP3   OH231438   6.866   4.136   3.546  0.2709  0.5711  0.0029
 3268TIP3    H131439   6.924   4.189   3.492  0.2700  2.2191  1.5173
 3268TIP3    H231440   6.925   4.079   3.596  0.4554  1.0133  0.2861
 3269TIP3   OH231441   4.431   3.726   2.286  0.2648  0.2448 -0.0646
 3269TIP3    H131442   4.372   3.768   2.348  0.3757  1.4883 -0.7655
 3269TIP3    H231443   4.399   3.636   2.279 -0.3323  0.3630  1.0439
 3270TIP3   OH231444   3.648   4.970   3.077  0.6673  0.1971 -0.0815
 3270TIP3    H131445   3.686   5.050   3.043 -0.3621  1.1257  0.8760
 3270TIP3    H231446   3.592   4.938   3.006  1.5213 -0.0105 -0.6780
 3271TIP3   OH231447   0.931   1.207   3.433  0.2158 -0.5768 -0.4009
 3271TIP3    H131448   0.972   1.288   3.465 -1.4110  0.8284 -1.7252
 3271TIP3    H231449   0.959   1.201   3.342 -0.8667 -0.6990 -0.7300
 3272TIP3   OH231450   5.585   4.721   0.639  0.1288 -0.2389  0.0352
 3272TIP3    H131451   5.578   4.635   0.597 -0.8740 -0.2746  0.2571
 3272TIP3    H231452   5.495   4.750   0.650  0.4696  1.1771 -0.7084
 3273TIP3   OH231453   0.446   2.038   2.645  0.0867 -0.1383  0.4298
 3273TIP3    H131454   0.435   1.947   2.673 -1.3212  0.2419  1.1790
 3273TIP3    H231455   0.364   2.081   2.670  0.8649  1.4163  0.4107
 3274TIP3   OH231456   6.091   4.842   1.687 -0.6934 -0.5408 -0.0786
 3274TIP3    H131457   6.179   4.806   1.690 -0.9997 -1.2622  1.3675
 3274TIP3    H231458   6.034   4.765   1.689 -1.3512 -0.0554  0.0798
 3275TIP3   OH231459   2.334   2.899   1.640  0.6978  0.5747  0.0513
 3275TIP3    H131460   2.369   2.965   1.700  0.0079  0.7998  0.2255
 3275TIP3    H231461   2.410   2.847   1.613  1.1750  1.1439  0.2841
 3276TIP3   OH231462   0.402   5.495   2.564  0.7524  0.4510  0.2372
 3276TIP3    H131463   0.313   5.483   2.597  0.8121  0.7820  0.5264
 3276TIP3    H231464   0.400   5.460   2.475  0.9786 -1.8908  1.0993
 3277TIP3   OH231465   0.431   3.045   1.176  0.0363  0.3003 -0.8915
 3277TIP3    H131466   0.372   2.972   1.197 -1.0171  1.4947  0.5123
 3277TIP3    H231467   0.512   3.024   1.222 -0.4495  0.2589 -0.0342
 3278TIP3   OH231468   3.410   6.647   2.564 -0.0417 -0.2320  0.5901
 3278TIP3    H131469   3.424   6.649   2.470  0.8787  1.8586  0.7119
 3278TIP3    H231470   3.486   6.602   2.599  0.2564  0.1384  0.4191
 3279TIP3   OH231471   6.053   4.706   3.124 -0.2017  0.1937 -0.3276
 3279TIP3    H131472   6.134   4.706   3.175  0.1022 -0.6774 -0.7925
 3279TIP3    H231473   5.986   4.733   3.186  0.2707 -0.1575  0.3507
 3280TIP3   OH231474   4.541   5.766   2.789  0.3482  0.9532  0.4014
 3280TIP3    H131475   4.590   5.737   2.866  1.9149  0.3906 -0.7598
 3280TIP3    H231476   4.603   5.818   2.738 -0.1386  0.0146 -1.2496
 3281TIP3   OH231477   0.666   1.585   1.062  0.1810  0.2777  0.0327
 3281TIP3    H131478   0.585   1.620   1.027 -1.2934 -1.6614  1.2974
 3281TIP3    H231479   0.649   1.574   1.156  1.7252 -0.6345  0.2444
 3282TIP3   OH231480   6.090   2.371   0.500 -0.0374  0.2906 -0.4871
 3282TIP3    H131481   6.165   2.414   0.459  2.1953  1.0642  3.8239
 3282TIP3    H231482   6.042   2.442   0.543 -0.5406 -0.7265  0.6865
 3283TIP3   OH231483   1.047   0.721   8.577 -0.6317 -0.7088 -0.0182
 3283TIP3    H131484   0.964   0.693   8.540 -0.6102  0.2694 -0.8369
 3283TIP3    H231485   1.073   0.798   8.525  1.6243 -1.9816 -0.9304
 3284TIP3   OH231486   0.114   5.683   2.978  0.6165 -0.7096 -0.2685
 3284TIP3    H131487   0.032   5.633   2.981  0.4625 -0.4025  1.2081
 3284TIP3    H231488   0.176   5.625   2.934 -0.6242 -0.5653 -2.3457
 3285TIP3   OH231489   1.989   6.474   1.016 -0.7688 -0.1568  0.4873
 3285TIP3    H131490   2.072   6.518   1.027 -1.1623  0.6598  0.2556
 3285TIP3    H231491   1.923   6.542   1.029 -1.4127 -0.8435  0.9331
 3286TIP3   OH231492   0.541   1.841   0.383  0.2208 -0.0203  0.4157
 3286TIP3    H131493   0.595   1.917   0.404  0.1774  0.1258  0.0103
 3286TIP3    H231494   0.532   1.843   0.288 -1.5252  0.6708  0.5506
 3287TIP3   OH231495   3.115   0.827   2.758 -0.0976  0.4894  0.8274
 3287TIP3    H131496   3.130   0.820   2.664  0.4920 -3.3312  1.0377
 3287TIP3    H231497   3.020   0.837   2.766 -0.5199 -1.9728 -0.2299
 3288TIP3   OH231498   6.259   2.254   2.727 -0.0150 -0.0593  0.5225
 3288TIP3    H131499   6.352   2.241   2.748  0.1809  0.6267  0.1162
 3288TIP3    H231500   6.253   2.234   2.634  0.0050  1.2162  0.2317
 3289TIP3   OH231501   4.121   0.901   0.878 -0.1895  0.0558 -0.0737
 3289TIP3    H131502   4.177   0.829   0.848  0.4033 -0.1587  1.4318
 3289TIP3    H231503   4.143   0.974   0.820  0.8979 -0.3329 -0.1855
 3290TIP3   OH231504   3.813   2.465   8.171  0.5033  0.4610  0.0207
 3290TIP3    H131505   3.872   2.390   8.174 -0.7826 -0.6643 -1.3104
 3290TIP3    H231506   3.725   2.427   8.172 -0.1819  1.8387 -2.0856
 3291TIP3   OH231507   2.367   3.440   2.266 -0.4802 -0.1461 -1.2679
 3291TIP3    H131508   2.435   3.374   2.253 -0.8519 -0.5591 -1.1500
 3291TIP3    H231509   2.288   3.389   2.283 -0.7256  0.3357 -0.9610
 3292TIP3   OH231510   2.530   5.729   1.618  0.0893 -0.0901  0.7502
 3292TIP3    H131511   2.493   5.678   1.546  0.1927  1.7813 -0.7058
 3292TIP3    H231512   2.464   5.796   1.636 -0.1095 -0.7423  2.7079
 3293TIP3   OH231513   2.824   5.993   1.025 -0.8719 -0.2781 -0.6296
 3293TIP3    H131514   2.826   5.906   1.064  0.8343 -1.7775 -3.6814
 3293TIP3    H231515   2.743   5.994   0.973 -1.1953  0.2265 -0.1308
 3294TIP3   OH231516   0.362   2.576   0.638 -0.0007  0.1040 -0.5804
 3294TIP3    H131517   0.454   2.578   0.665 -0.3835  0.5044  0.7597
 3294TIP3    H231518   0.361   2.516   0.563  1.5688  1.1443 -1.5028
 3295TIP3   OH231519   1.737   1.346   2.719  0.4474 -0.9654  0.0792
 3295TIP3    H131520   1.752   1.394   2.801  1.3847  2.4572 -1.9311
 3295TIP3    H231521   1.785   1.263   2.731  1.8452  0.0816  2.4071
 3296TIP3   OH231522   2.047   3.700   8.585 -0.4137  0.2600 -0.0518
 3296TIP3    H131523   2.065   3.609   8.562  1.5541  0.5826  0.0276
 3296TIP3    H231524   2.133   3.738   8.603 -1.3568  1.6016  1.9849
 3297TIP3   OH231525   5.669   5.288   8.116  0.0735  0.5875  0.6826
 3297TIP3    H131526   5.748   5.248   8.153 -0.9920 -0.3074  2.0904
 3297TIP3    H231527   5.623   5.324   8.192 -0.9060  1.0345 -0.1085
 3298TIP3   OH231528   6.338   3.340   2.075  0.1968  0.5110 -0.6214
 3298TIP3    H131529   6.304   3.415   2.124  0.8060 -0.5370  1.5470
 3298TIP3    H231530   6.368   3.376   1.992 -0.5152  2.4604 -0.0767
 3299TIP3   OH231531   1.578   6.931   2.766  0.1879 -0.1785  0.1816
 3299TIP3    H131532   1.647   6.990   2.797 -0.0838 -0.1261  0.6845
 3299TIP3    H231533   1.499   6.984   2.766  0.0946 -0.3153 -0.1384
 3300TIP3   OH231534   2.176   0.036   1.217 -0.4534  0.0888 -0.1410
 3300TIP3    H131535   2.188  -0.054   1.186  0.2194 -0.1722  0.8376
 3300TIP3    H231536   2.084   0.039   1.245 -0.5197 -0.2499 -0.3145
 3301TIP3   OH231537   5.392   3.985   3.087 -0.2781  0.6931  0.3499
 3301TIP3    H131538   5.387   4.072   3.047  0.9539  0.7075  0.1919
 3301TIP3    H231539   5.324   3.985   3.154  0.8402  2.4206  1.5570
 3302TIP3   OH231540   3.174   3.063   1.012 -0.1337 -0.1204 -0.4873
 3302TIP3    H131541   3.086   3.025   1.016 -0.4725  0.7494  2.0024
 3302TIP3    H231542   3.223   3.004   0.955 -1.6602 -2.1234  0.1664
 3303TIP3   OH231543   3.923   6.132   1.788 -0.1816  0.0973 -0.2296
 3303TIP3    H131544   3.946   6.117   1.880  0.6926 -2.5120 -0.7887
 3303TIP3    H231545   4.001   6.105   1.739 -1.0634  0.2558 -1.7961
 3304TIP3   OH231546   2.432   2.835   3.928  0.1693  0.3339 -0.6500
 3304TIP3    H131547   2.526   2.845   3.942  0.0667 -0.3459  0.5857
 3304TIP3    H231548   2.416   2.741   3.930 -0.6627  0.4734 -0.0245
 3305TIP3   OH231549   4.454   0.215   3.689 -0.4561 -0.0471  0.6132
 3305TIP3    H131550   4.397   0.197   3.764 -1.3020  1.0905  0.2778
 3305TIP3    H231551   4.477   0.129   3.655 -0.9093 -0.5583  1.5491
 3306TIP3   OH231552   2.154   3.339   3.134 -0.2829  0.0269  0.5397
 3306TIP3    H131553   2.193   3.368   3.217 -2.6398  1.5893  1.2133
 3306TIP3    H231554   2.108   3.259   3.157 -0.5787  0.2283  0.6616
 3307TIP3   OH231555   0.809   3.207   0.916  0.1959  0.0472 -0.1030
 3307TIP3    H131556   0.831   3.156   0.993  0.6712 -0.5287 -0.6101
 3307TIP3    H231557   0.879   3.189   0.854  0.2034  1.0623 -0.4169
 3308TIP3   OH231558   3.561   5.559   1.777  0.5815 -0.2289  0.2060
 3308TIP3    H131559   3.579   5.652   1.787  0.3853 -0.4150  3.2262
 3308TIP3    H231560   3.567   5.543   1.683  1.8226  2.5646 -0.2835
 3309TIP3   OH231561   0.725   5.939   3.512 -0.4104 -0.0503 -0.3539
 3309TIP3    H131562   0.718   5.887   3.432 -1.7208 -0.4492 -0.0028
 3309TIP3    H231563   0.680   6.021   3.490 -1.3093 -0.3988  0.1552
 3310TIP3   OH231564   3.239   5.197   2.878 -0.5370 -0.4543  0.3628
 3310TIP3    H131565   3.205   5.226   2.962 -0.1067  1.6107 -0.1060
 3310TIP3    H231566   3.329   5.171   2.896 -0.8808 -1.3828  0.7750
 3311TIP3   OH231567   1.070   4.588   3.463  0.5999  0.5409 -0.1580
 3311TIP3    H131568   1.026   4.665   3.498 -0.7104  0.0664 -0.6643
 3311TIP3    H231569   1.081   4.530   3.538 -0.7725  0.1751 -0.2023
 3312TIP3   OH231570   3.361   3.769   1.817 -0.5576  0.0716 -0.3020
 3312TIP3    H131571   3.323   3.734   1.898  0.0228  0.1264  0.0012
 3312TIP3    H231572   3.419   3.699   1.786  0.7905  0.8248  0.4311
 3313TIP3   OH231573   1.283   1.544   1.417  0.4925 -0.7412 -0.4784
 3313TIP3    H131574   1.277   1.458   1.459  0.2685  0.1123  1.3550
 3313TIP3    H231575   1.194   1.578   1.419  1.0417  0.8195  1.8288
 3314TIP3   OH231576   4.738   3.847   8.073 -0.4737  0.9293 -0.9411
 3314TIP3    H131577   4.756   3.754   8.085 -2.0905  0.7917  0.8776
 3314TIP3    H231578   4.809   3.891   8.121 -0.9040  0.5622  0.0616
 3315TIP3   OH231579   2.041   6.194   2.202 -0.5491 -0.6993  0.7131
 3315TIP3    H131580   2.089   6.260   2.152  1.0823 -3.5158 -1.8337
 3315TIP3    H231581   1.960   6.181   2.152 -2.0497  0.9107  2.5506
 3316TIP3   OH231582   4.634   3.773   3.490  0.0522  0.0953 -0.5389
 3316TIP3    H131583   4.606   3.757   3.581  1.1311  0.4262 -0.1322
 3316TIP3    H231584   4.576   3.842   3.459  0.2734  0.6553  0.2354
 3317TIP3   OH231585   4.374   6.377   2.254  0.1169  0.0972  0.1305
 3317TIP3    H131586   4.294   6.372   2.307  0.1809  0.9188  0.3119
 3317TIP3    H231587   4.441   6.410   2.314  0.6406 -0.7275  0.0210
 3318TIP3   OH231588   1.718   0.210   1.878 -0.2100  0.0660  0.2122
 3318TIP3    H131589   1.732   0.119   1.908 -0.5343  0.1711  0.6993
 3318TIP3    H231590   1.653   0.202   1.808 -0.3831 -0.0614  0.3843
 3319TIP3   OH231591   4.429   6.679   1.156 -0.8266  0.4626  0.6247
 3319TIP3    H131592   4.357   6.638   1.107 -0.5363  0.8269 -0.1248
 3319TIP3    H231593   4.479   6.727   1.090  0.1239  0.1992  1.1312
 3320TIP3   OH231594   5.940   5.310   2.162  0.1153 -0.2000  0.1584
 3320TIP3    H131595   5.924   5.350   2.247  0.8390 -1.2502  0.8131
 3320TIP3    H231596   6.034   5.294   2.159 -0.0309 -1.0925 -0.4014
 3321TIP3   OH231597   1.820   6.833   2.615 -0.4242  0.4434  0.2476
 3321TIP3    H131598   1.791   6.920   2.644 -0.3212  0.4470  0.3429
 3321TIP3    H231599   1.905   6.849   2.573 -1.0562  0.5858 -1.0132
 3322TIP3   OH231600   0.905   1.530   3.170  0.1589 -0.2387  0.2329
 3322TIP3    H131601   0.952   1.607   3.202 -0.0233 -0.5384  1.2406
 3322TIP3    H231602   0.974   1.465   3.153  0.3719  0.3174 -1.1872
 3323TIP3   OH231603   0.418   0.663   2.766 -0.2565 -0.1392 -0.8317
 3323TIP3    H131604   0.492   0.605   2.749  0.9680 -0.3141  3.7577
 3323TIP3    H231605   0.427   0.733   2.702  1.7221 -1.9676 -2.6958
 3324TIP3   OH231606   3.867   4.601   2.812  0.4587  0.6871 -0.3803
 3324TIP3    H131607   3.874   4.642   2.898 -1.4140  1.9012 -0.7621
 3324TIP3    H231608   3.860   4.674   2.751 -1.4924 -0.1311 -1.2221
 3325TIP3   OH231609   5.439   5.939   2.453  0.4416 -0.0251 -0.0952
 3325TIP3    H131610   5.508   5.956   2.517 -0.6786  0.7280  0.9596
 3325TIP3    H231611   5.408   6.026   2.428 -0.2344 -0.3529 -0.4356
 3326TIP3   OH231612   3.101   3.657   3.446  0.0600  0.1504 -0.7351
 3326TIP3    H131613   3.089   3.673   3.540 -0.5644  1.7170 -1.0491
 3326TIP3    H231614   3.173   3.594   3.441 -0.2685 -0.3876  0.8094
 3327TIP3   OH231615   0.071   3.558   3.485  0.3509  0.7326  0.2353
 3327TIP3    H131616   0.166   3.574   3.485  0.3771  0.5648 -0.4382
 3327TIP3    H231617   0.059   3.485   3.546  0.6861  0.5574  0.0930
 3328TIP3   OH231618   0.055   6.358   3.712 -0.4743 -0.2084 -0.5856
 3328TIP3    H131619   0.092   6.356   3.623  0.1528  1.0615 -0.3837
 3328TIP3    H231620   0.030   6.450   3.725 -0.9019 -0.4543  0.4152
 3329TIP3   OH231621   4.500   1.980   2.497  0.3302 -0.0493  0.6408
 3329TIP3    H131622   4.453   1.952   2.576 -0.7883 -1.8039 -0.5770
 3329TIP3    H231623   4.435   2.031   2.448  0.7321  0.2554  0.4233
 3330TIP3   OH231624   0.586   6.793   2.843  0.0560  0.8386 -0.1636
 3330TIP3    H131625   0.604   6.846   2.766  0.5140 -2.0567 -2.2484
 3330TIP3    H231626   0.491   6.783   2.844  0.1131  0.0012 -1.0900
 3331TIP3   OH231627   1.470   1.744   1.497 -0.1197  0.2354  0.5047
 3331TIP3    H131628   1.426   1.666   1.462  0.4666 -0.0039  0.2865
 3331TIP3    H231629   1.430   1.817   1.450  0.7700 -0.0892 -0.8159
 3332TIP3   OH231630   5.155   5.982   0.348 -0.1855 -0.3578 -0.0883
 3332TIP3    H131631   5.230   5.936   0.387 -1.8346 -2.5233  0.7181
 3332TIP3    H231632   5.162   5.963   0.255 -0.6845 -2.1134  0.1982
 3333TIP3   OH231633   6.379   0.424   2.044  0.7651  0.2119  0.3376
 3333TIP3    H131634   6.438   0.469   1.983  2.2445 -1.5888  0.3691
 3333TIP3    H231635   6.309   0.389   1.988  1.1103  0.1592 -0.0654
 3334TIP3   OH231636   5.841   3.129   0.459  0.0141 -0.0912 -0.1253
 3334TIP3    H131637   5.874   3.045   0.427  0.2189  0.3980 -1.2547
 3334TIP3    H231638   5.805   3.172   0.381  0.2572  1.0279  0.3583
 3335TIP3   OH231639   1.050   3.042   2.172 -0.4244  0.5173  0.6446
 3335TIP3    H131640   1.045   3.058   2.078 -0.5137  1.5420  0.8077
 3335TIP3    H231641   1.001   2.961   2.186  1.1480 -0.6745 -0.4184
 3336TIP3   OH231642   1.480   3.875   1.358  0.6251 -0.0627  0.4177
 3336TIP3    H131643   1.453   3.855   1.447 -2.0125  2.1973  0.2550
 3336TIP3    H231644   1.407   3.846   1.303  1.5216 -0.0118 -0.8495
 3337TIP3   OH231645   2.876   3.367   3.625  0.1828  0.2223  0.1018
 3337TIP3    H131646   2.860   3.453   3.663  0.6975  1.2381 -1.8747
 3337TIP3    H231647   2.963   3.342   3.658 -0.3403 -0.0073  1.3997
 3338TIP3   OH231648   1.558   2.028   2.084 -0.0907  0.2307 -0.4998
 3338TIP3    H131649   1.547   2.033   2.179  0.1264  0.8346 -0.4979
 3338TIP3    H231650   1.653   2.033   2.071 -0.1046 -0.1344 -0.7331
 3339TIP3   OH231651   1.393   0.856   0.791  0.4336  0.0728  0.0088
 3339TIP3    H131652   1.467   0.841   0.732  0.2259  1.4142 -0.6239
 3339TIP3    H231653   1.428   0.838   0.879  1.1681 -0.4532 -0.3823
 3340TIP3   OH231654   5.223   2.406   8.137 -0.6609  0.2349 -1.0390
 3340TIP3    H131655   5.298   2.401   8.077  1.5734  2.4581  1.2853
 3340TIP3    H231656   5.228   2.495   8.174 -3.1226 -0.3121  0.9016
 3341TIP3   OH231657   6.358   5.396   7.971  0.2084  0.0431  0.1950
 3341TIP3    H131658   6.441   5.349   7.969  0.2285  0.0926 -0.6519
 3341TIP3    H231659   6.379   5.480   8.012  0.9780  0.7459 -1.5418
 3342TIP3   OH231660   2.822   3.586   0.661 -0.4220  0.1465  0.4339
 3342TIP3    H131661   2.750   3.605   0.600 -0.5205  0.4903  0.6489
 3342TIP3    H231662   2.797   3.504   0.702 -1.0478  0.6124  1.0122
 3343TIP3   OH231663   6.306   5.417   8.475 -0.2327  0.4167 -0.0578
 3343TIP3    H131664   6.338   5.406   8.564  0.4805  0.1037 -0.3439
 3343TIP3    H231665   6.365   5.363   8.422 -0.3705  0.9572 -0.7700
 3344TIP3   OH231666   0.754   4.254   2.330  0.1444 -0.9675  0.3299
 3344TIP3    H131667   0.680   4.213   2.284  0.1016 -0.1415 -0.3618
 3344TIP3    H231668   0.713   4.299   2.405 -0.3072  0.7567 -0.8736
 3345TIP3   OH231669   2.274   2.593   3.652 -0.1746  0.4431 -0.2908
 3345TIP3    H131670   2.236   2.510   3.624  0.6444  0.0467 -0.2582
 3345TIP3    H231671   2.211   2.628   3.716 -0.1851 -0.4983  0.2356
 3346TIP3   OH231672   0.986   0.602   1.071 -0.3773  0.6352 -0.2018
 3346TIP3    H131673   0.986   0.610   0.976 -0.1684  1.5409 -0.1307
 3346TIP3    H231674   0.896   0.576   1.092 -0.6429  1.2139 -0.5879
 3347TIP3   OH231675   5.542   3.516   0.700 -0.5263  0.3346  0.1937
 3347TIP3    H131676   5.453   3.546   0.683 -0.0865  0.9657 -1.2278
 3347TIP3    H231677   5.577   3.495   0.613  0.1489 -1.5995  0.8705
 3348TIP3   OH231678   3.785   2.741   8.180 -0.4647  0.3847 -0.1752
 3348TIP3    H131679   3.792   2.649   8.153 -0.4732  0.7601 -1.5320
 3348TIP3    H231680   3.870   2.778   8.160 -0.0224  0.3935  1.5929
 3349TIP3   OH231681   2.087   5.874   2.046  0.0091 -0.0036 -0.6638
 3349TIP3    H131682   2.176   5.881   2.081  0.9522 -1.0722 -2.6717
 3349TIP3    H231683   2.065   5.963   2.019  0.2364  0.3676  0.3182
 3350TIP3   OH231684   6.924   2.212   2.019 -0.2285 -0.1090 -0.1676
 3350TIP3    H131685   6.952   2.210   1.928 -0.4036  0.1448 -0.2309
 3350TIP3    H231686   6.909   2.120   2.042  0.9986 -0.2857 -0.0125
 3351TIP3   OH231687   2.784   2.788   0.864  0.3517  0.0131 -0.2686
 3351TIP3    H131688   2.718   2.727   0.830  1.3044 -0.6988 -0.8900
 3351TIP3    H231689   2.841   2.805   0.789  1.5047 -0.2358  0.5250
 3352TIP3   OH231690   2.092   6.217   0.368 -0.2648  0.0530 -0.2946
 3352TIP3    H131691   2.013   6.270   0.370 -0.1968  0.1498 -0.0506
 3352TIP3    H231692   2.157   6.273   0.326 -0.7315 -0.6110 -1.9670
 3353TIP3   OH231693   0.800   0.232   1.846 -0.2889  0.5976 -0.4815
 3353TIP3    H131694   0.749   0.154   1.822 -0.5056  0.5963 -0.0225
 3353TIP3    H231695   0.809   0.281   1.764  0.6816 -0.3801 -1.0011
 3354TIP3   OH231696   4.184   2.869   2.593  0.5793  0.5025  0.0512
 3354TIP3    H131697   4.208   2.904   2.679  0.4646  2.6801 -0.7269
 3354TIP3    H231698   4.267   2.866   2.545  0.3154  1.6912 -0.5214
 3355TIP3   OH231699   0.369   0.925   3.415  0.4714  0.1274  0.1971
 3355TIP3    H131700   0.424   0.893   3.487 -3.4974 -0.3921  3.3649
 3355TIP3    H231701   0.383   1.020   3.414  2.6121 -0.1591 -0.2853
 3356TIP3   OH231702   3.152   5.835   3.197  0.1710  0.0803 -0.4148
 3356TIP3    H131703   3.247   5.825   3.191  0.1050 -0.5312 -0.4440
 3356TIP3    H231704   3.133   5.839   3.291  0.1086 -0.9378 -0.3819
 3357TIP3   OH231705   5.363   5.644   1.892 -1.0656 -0.4314  0.2285
 3357TIP3    H131706   5.418   5.568   1.873 -0.6502  0.0681 -0.5715
 3357TIP3    H231707   5.396   5.713   1.835 -3.2878 -0.4509 -1.2109
 3358TIP3   OH231708   6.205   0.669   0.902  0.2774 -0.2755 -0.3923
 3358TIP3    H131709   6.287   0.706   0.936  0.0470  0.1270 -0.2611
 3358TIP3    H231710   6.136   0.714   0.952  0.0085 -1.6423  0.5395
 3359TIP3   OH231711   0.832   2.536   1.380 -0.1950  0.3485  0.2057
 3359TIP3    H131712   0.755   2.510   1.431  0.5075 -0.4430  0.8744
 3359TIP3    H231713   0.861   2.456   1.337 -0.3302  0.8533 -0.8557
 3360TIP3   OH231714   4.158   2.939   2.068  0.6479  0.0799 -0.0725
 3360TIP3    H131715   4.138   2.855   2.026 -2.6746  1.3159 -1.2382
 3360TIP3    H231716   4.126   3.005   2.007  2.3164  2.2254  1.2372
 3361TIP3   OH231717   4.974   6.479   3.211  0.3775 -0.3224 -0.4782
 3361TIP3    H131718   4.892   6.504   3.253 -0.1826 -1.7870 -0.6663
 3361TIP3    H231719   4.948   6.430   3.133  1.4252 -0.7438 -0.5862
 3362TIP3   OH231720   4.849   6.804   8.180 -0.7776  0.2566  0.3646
 3362TIP3    H131721   4.802   6.752   8.115 -0.0429 -1.2724  1.0075
 3362TIP3    H231722   4.814   6.893   8.171  0.0845  0.3725 -2.8792
 3363TIP3   OH231723   4.336   2.731   7.566  0.0609 -0.5341  0.2701
 3363TIP3    H131724   4.405   2.664   7.569 -0.1683 -0.8566 -0.9964
 3363TIP3    H231725   4.267   2.697   7.623 -1.3949 -3.0099 -2.6708
 3364TIP3   OH231726   0.740   2.380   8.170  0.4509 -0.4250  0.2087
 3364TIP3    H131727   0.773   2.357   8.084 -0.1420  1.1608 -0.4838
 3364TIP3    H231728   0.818   2.385   8.225  1.1500  1.0073 -0.8505
 3365TIP3   OH231729   1.393   5.691   1.270  0.1866 -0.8651  0.5013
 3365TIP3    H131730   1.312   5.665   1.227  0.4482 -2.8271  1.0983
 3365TIP3    H231731   1.460   5.635   1.230  1.1324  0.1603  0.5902
 3366TIP3   OH231732   2.977   2.491   8.323 -0.3437  0.3064  0.0665
 3366TIP3    H131733   2.963   2.399   8.300 -1.5476  0.0733  1.5574
 3366TIP3    H231734   3.050   2.490   8.384  1.1888  0.6432 -1.6829
 3367TIP3   OH231735   3.712   3.102   1.599  0.5060 -0.1693  0.2713
 3367TIP3    H131736   3.729   3.011   1.624 -0.4658 -0.5666 -0.4325
 3367TIP3    H231737   3.641   3.130   1.658 -0.7397 -0.6161 -0.9648
 3368TIP3   OH231738   6.518   6.083   2.491  0.3946  0.1842  0.0849
 3368TIP3    H131739   6.527   6.165   2.442  2.5054 -1.2964 -2.2628
 3368TIP3    H231740   6.596   6.033   2.468 -0.9261 -2.5991  1.2386
 3369TIP3   OH231741   5.955   5.909   8.549 -0.1558  0.5490 -0.0872
 3369TIP3    H131742   5.960   5.835   8.611 -0.6582  1.3293  0.9164
 3369TIP3    H231743   5.964   5.868   8.463  1.3677 -0.4966  0.5098
 3370TIP3   OH231744   6.338   5.397   1.064  0.2682  0.2723 -0.2993
 3370TIP3    H131745   6.321   5.303   1.063 -0.5321  0.3839  0.8046
 3370TIP3    H231746   6.433   5.404   1.075  0.4646 -0.3903 -1.4614
 3371TIP3   OH231747   2.413   5.269   3.283 -0.1815  0.2692 -0.5229
 3371TIP3    H131748   2.497   5.297   3.319 -0.6987  0.8156  0.2932
 3371TIP3    H231749   2.360   5.246   3.360 -0.4761 -0.9568 -1.0743
 3372TIP3   OH231750   6.137   4.071   8.194  0.1044 -0.1071  0.7804
 3372TIP3    H131751   6.130   4.160   8.159 -2.6523  0.3121  2.1434
 3372TIP3    H231752   6.201   4.028   8.137 -0.7032  1.8509 -1.8039
 3373TIP3   OH231753   6.286   3.674   8.360  0.7955  0.0843 -0.4008
 3373TIP3    H131754   6.216   3.722   8.406 -0.1932  1.0197 -2.7351
 3373TIP3    H231755   6.366   3.698   8.407 -0.1927  0.5381  1.1445
 3374TIP3   OH231756   3.149   3.289   1.748 -0.0162  0.0775  0.4358
 3374TIP3    H131757   3.152   3.195   1.731  1.6042  0.2164 -0.2920
 3374TIP3    H231758   3.186   3.328   1.669  0.4137  1.2542  1.1916
 3375TIP3   OH231759   6.873   4.372   2.722  0.4474 -0.1858  0.5954
 3375TIP3    H131760   6.967   4.360   2.711  0.4535 -0.4091  0.8692
 3375TIP3    H231761   6.841   4.286   2.752  0.2478  0.0519  1.0717
 3376TIP3   OH231762   1.962   0.101   3.600 -0.1218 -0.4443 -0.0208
 3376TIP3    H131763   1.911   0.180   3.619  0.3032 -0.6089  1.9383
 3376TIP3    H231764   2.052   0.125   3.622  0.3953 -0.7729 -1.6314
 3377TIP3   OH231765   4.646   2.116   0.015  0.5700 -0.1090 -1.0159
 3377TIP3    H131766   4.577   2.050   0.018 -0.7750  1.2359  2.1102
 3377TIP3    H231767   4.725   2.070   0.044 -0.0791 -0.6368 -0.0548
 3378TIP3   OH231768   3.994   2.152   2.099  0.3222  0.2924  0.2154
 3378TIP3    H131769   4.040   2.154   2.183  1.5676 -1.0294 -0.3920
 3378TIP3    H231770   3.943   2.071   2.101  0.2345  0.3326 -0.2264
 3379TIP3   OH231771   1.893   2.087   8.423  0.3261  0.3945 -0.3532
 3379TIP3    H131772   1.870   2.100   8.515  0.0477 -1.6295 -0.0757
 3379TIP3    H231773   1.810   2.093   8.375 -0.1169 -1.7967  0.0021
 3380TIP3   OH231774   4.171   4.942   2.198  0.1297  0.0252 -0.1008
 3380TIP3    H131775   4.108   4.878   2.230 -0.1178  0.0423 -0.5524
 3380TIP3    H231776   4.216   4.972   2.277 -0.7643  0.3786  0.2881
 3381TIP3   OH231777   5.578   4.397   0.198 -0.1692  0.1456 -0.1214
 3381TIP3    H131778   5.546   4.456   0.130 -0.1796 -0.3710 -0.5675
 3381TIP3    H231779   5.523   4.319   0.190 -1.0387  0.5715  1.3285
 3382TIP3   OH231780   1.865   1.306   3.834 -0.1850 -0.2387 -0.5705
 3382TIP3    H131781   1.871   1.400   3.853 -2.1185 -0.3331  0.7364
 3382TIP3    H231782   1.907   1.264   3.909 -0.0538 -0.4470 -0.7601
 3383TIP3   OH231783   0.114   6.237   2.171  0.3434 -0.7204 -0.5326
 3383TIP3    H131784   0.147   6.165   2.224  1.3924 -0.6121 -1.0207
 3383TIP3    H231785   0.158   6.227   2.087  0.4492  0.4591 -0.6274
 3384TIP3   OH231786   0.751   2.169   0.741  0.1919 -0.1439 -0.1594
 3384TIP3    H131787   0.807   2.242   0.717  0.0647 -0.0784 -0.2603
 3384TIP3    H231788   0.773   2.100   0.680  0.1815 -0.1274 -0.1819
 3385TIP3   OH231789   1.672   1.767   3.161 -0.1106  0.1459 -0.1622
 3385TIP3    H131790   1.634   1.798   3.243  3.7846 -0.6732  2.2196
 3385TIP3    H231791   1.722   1.841   3.127  0.3449 -0.2633 -0.4008
 3386TIP3   OH231792   0.539   2.195   1.452  0.7023 -0.0598  0.3219
 3386TIP3    H131793   0.485   2.171   1.378  1.6598  0.3861 -0.5462
 3386TIP3    H231794   0.520   2.129   1.519 -1.4540  0.5208  0.3500
 3387TIP3   OH231795   3.470   2.800   2.415  0.0127 -0.1900  0.1015
 3387TIP3    H131796   3.393   2.852   2.439  0.0966 -0.6621  1.4953
 3387TIP3    H231797   3.518   2.790   2.497 -0.0829 -2.5853 -0.0451
 3388TIP3   OH231798   6.522   4.977   3.012  0.1690 -0.4772 -0.2614
 3388TIP3    H131799   6.548   4.889   3.039  0.4939 -0.1817  0.4139
 3388TIP3    H231800   6.470   5.010   3.085  1.0942  0.3580  0.0344
 3389TIP3   OH231801   5.101   5.735   0.905 -0.0626 -0.4749 -0.4473
 3389TIP3    H131802   5.021   5.771   0.943  0.1248  0.3656 -0.8104
 3389TIP3    H231803   5.095   5.641   0.919 -1.6732 -0.5648 -1.5034
 3390TIP3   OH231804   0.667   3.307   7.793  0.4418  0.8854 -0.0690
 3390TIP3    H131805   0.663   3.395   7.831 -0.5558  0.4742  0.8221
 3390TIP3    H231806   0.760   3.285   7.796  0.8023  2.1361 -0.8938
 3391TIP3   OH231807   3.625   5.722   1.213  0.1495  0.2644  0.1348
 3391TIP3    H131808   3.667   5.698   1.131  0.5810  1.1240  0.1007
 3391TIP3    H231809   3.541   5.676   1.211  0.7754 -0.9061 -0.1083
 3392TIP3   OH231810   6.417   2.130   0.794 -0.3086 -0.0418 -0.4518
 3392TIP3    H131811   6.357   2.140   0.868 -0.7579  0.0551 -0.8216
 3392TIP3    H231812   6.363   2.091   0.725  0.2178 -0.5488 -0.5844
 3393TIP3   OH231813   4.993   0.479   2.805  0.2619 -0.1832  0.6034
 3393TIP3    H131814   5.036   0.564   2.795  0.9381 -0.6208 -0.3897
 3393TIP3    H231815   4.910   0.499   2.849  0.1252  1.0765 -0.1708
 3394TIP3   OH231816   1.654   4.522   7.927 -0.3673  0.2214  0.0436
 3394TIP3    H131817   1.630   4.504   8.018 -0.4005  1.1102  0.2152
 3394TIP3    H231818   1.708   4.447   7.902  0.2412  0.3145  1.0303
 3395TIP3   OH231819   1.098   0.846   3.902  0.1318  0.7141 -0.1385
 3395TIP3    H131820   1.143   0.881   3.825 -4.9821  1.1182 -3.3993
 3395TIP3    H231821   1.029   0.910   3.921 -1.4553 -1.4404  2.0251
 3396TIP3   OH231822   4.646   0.019   1.188 -0.1228  0.7393 -0.9500
 3396TIP3    H131823   4.617   0.056   1.272  0.0553  0.8029 -0.9181
 3396TIP3    H231824   4.699  -0.057   1.213  0.2532  0.9860 -0.9982
 3397TIP3   OH231825   5.012   5.738   0.597 -0.2903 -0.3280  0.3501
 3397TIP3    H131826   4.970   5.741   0.682 -0.9418  0.9217  0.0016
 3397TIP3    H231827   5.068   5.816   0.594 -0.4210 -0.2533 -0.4316
 3398TIP3   OH231828   4.832   1.778   1.946  0.0512 -0.1132 -0.0031
 3398TIP3    H131829   4.830   1.862   1.991  0.4279 -0.2139  0.2128
 3398TIP3    H231830   4.773   1.723   1.997 -0.8684  0.2621 -0.6530
 3399TIP3   OH231831   6.879   1.686   7.943  0.6657 -0.0662  0.3930
 3399TIP3    H131832   6.868   1.603   7.896  1.3806  0.2853 -0.4048
 3399TIP3    H231833   6.790   1.708   7.972  0.0713  0.0580 -1.4039
 3400TIP3   OH231834   2.454   4.517   2.582 -0.5913  0.5500 -1.2533
 3400TIP3    H131835   2.462   4.483   2.493 -0.0235 -2.3227 -0.1958
 3400TIP3    H231836   2.540   4.501   2.622 -1.2278  0.5657  0.1908
 3401TIP3   OH231837   1.192   4.612   2.115 -0.2453 -0.0037  0.6910
 3401TIP3    H131838   1.266   4.551   2.119  0.6766  1.0380 -0.0102
 3401TIP3    H231839   1.227   4.695   2.148 -1.1074  0.5036  0.3661
 3402TIP3   OH231840   5.154   5.935   2.335 -0.4615 -0.0808 -0.0516
 3402TIP3    H131841   5.223   5.997   2.358 -0.2303  0.0589 -1.1079
 3402TIP3    H231842   5.192   5.849   2.351  0.3848 -0.0472 -1.7296
 3403TIP3   OH231843   1.751   1.831   1.236 -0.1009  0.2224 -0.3565
 3403TIP3    H131844   1.764   1.747   1.191  0.2633  1.0167 -1.8051
 3403TIP3    H231845   1.656   1.839   1.244 -0.2763  0.7205 -2.3867
 3404TIP3   OH231846   2.456   6.114   2.550  0.8717  0.5793 -0.3616
 3404TIP3    H131847   2.492   6.171   2.618  0.7035 -0.5664  0.7178
 3404TIP3    H231848   2.508   6.034   2.556 -2.5681 -1.7509  2.2335
 3405TIP3   OH231849   2.557   0.648   3.084 -0.6482 -0.3271  0.2118
 3405TIP3    H131850   2.575   0.565   3.040  0.6796 -0.3908  0.8286
 3405TIP3    H231851   2.582   0.633   3.175  1.5115  1.2843 -0.0232
 3406TIP3   OH231852   3.351   3.925   2.713  0.0375  0.5903  0.8902
 3406TIP3    H131853   3.442   3.898   2.727 -0.2283 -0.7431  0.1376
 3406TIP3    H231854   3.358   4.012   2.674  1.0764 -0.3839 -1.2180
 3407TIP3   OH231855   4.348   5.906   3.304  0.1833  0.1416  0.2514
 3407TIP3    H131856   4.266   5.924   3.349  0.1591 -1.5257  0.9232
 3407TIP3    H231857   4.374   5.991   3.268 -1.7295  0.7348  0.1531
 3408TIP3   OH231858   1.999   6.629   1.811  0.2008  0.5172  0.5436
 3408TIP3    H131859   1.945   6.565   1.765  0.3134  0.2951  0.7133
 3408TIP3    H231860   2.085   6.587   1.817 -0.4646 -0.7335  3.4510
 3409TIP3   OH231861   0.729   4.559   1.172 -0.1200 -0.0707  0.2715
 3409TIP3    H131862   0.690   4.492   1.116 -3.3670  2.2745 -0.5926
 3409TIP3    H231863   0.655   4.594   1.222  1.5977  2.1810  1.4157
 3410TIP3   OH231864   4.999   1.296   2.263  0.1177 -0.1478  0.1351
 3410TIP3    H131865   5.062   1.358   2.300 -1.2253  1.1309  0.4074
 3410TIP3    H231866   4.921   1.308   2.317 -0.4002 -1.5975 -0.2652
 3411TIP3   OH231867   3.047   1.592   0.581 -0.2814 -0.0696 -0.7050
 3411TIP3    H131868   3.119   1.539   0.548 -0.7558 -0.7508 -0.6593
 3411TIP3    H231869   3.090   1.660   0.633  0.2615 -1.5034  0.8019
 3412TIP3   OH231870   5.360   6.877   1.405 -0.3023  0.1801 -0.3960
 3412TIP3    H131871   5.366   6.904   1.497 -0.4370 -0.1633 -0.2830
 3412TIP3    H231872   5.288   6.930   1.369  0.1314  0.7354 -0.4588
 3413TIP3   OH231873   0.595   0.747   8.263 -0.2297  0.5207 -0.2201
 3413TIP3    H131874   0.563   0.813   8.324  1.1312  0.7413  0.2907
 3413TIP3    H231875   0.537   0.672   8.276 -1.1943  1.2667 -0.1149
 3414TIP3   OH231876   2.880   1.113   1.413  0.0397 -0.1466 -0.1110
 3414TIP3    H131877   2.933   1.035   1.396  0.1175  0.0697 -0.8830
 3414TIP3    H231878   2.886   1.125   1.508 -0.7411 -1.6244  0.1563
 3415TIP3   OH231879   6.683   5.024   0.683 -0.3598  0.2965 -0.6860
 3415TIP3    H131880   6.651   5.047   0.595 -0.0162  1.5777 -0.5052
 3415TIP3    H231881   6.619   5.062   0.742 -1.3595 -1.7912 -0.3624
 3416TIP3   OH231882   5.410   6.122   1.333  0.0705  0.1534  0.0649
 3416TIP3    H131883   5.398   6.189   1.265 -1.1097 -0.1797 -0.0881
 3416TIP3    H231884   5.501   6.095   1.324 -0.0098  0.2387 -1.2865
 3417TIP3   OH231885   3.730   2.810   3.906 -0.1949 -0.1041  0.0816
 3417TIP3    H131886   3.790   2.735   3.902 -0.1758 -0.2309  1.9534
 3417TIP3    H231887   3.787   2.886   3.897  0.0455 -0.2688  0.1829
 3418TIP3   OH231888   2.216   6.052   1.381 -0.0713 -0.3131  0.3294
 3418TIP3    H131889   2.267   5.982   1.339 -0.8437  0.6061 -2.3142
 3418TIP3    H231890   2.261   6.133   1.355 -1.0068  0.3351  0.6975
 3419TIP3   OH231891   6.713   4.977   3.240  0.2589 -0.3979 -0.3974
 3419TIP3    H131892   6.724   4.996   3.147 -0.1035 -0.1753 -0.3985
 3419TIP3    H231893   6.795   4.935   3.266  1.1029  1.1963 -0.3882
 3420TIP3   OH231894   1.334   0.276   2.014  0.0212  0.4187 -0.2432
 3420TIP3    H131895   1.261   0.237   2.063  0.0059  0.1659 -0.4628
 3420TIP3    H231896   1.362   0.207   1.954  0.4113  0.5321 -0.1966
 3421TIP3   OH231897   5.745   5.501   2.950 -0.4463  0.5202  0.3305
 3421TIP3    H131898   5.699   5.467   3.027 -0.7177 -2.0832 -0.8569
 3421TIP3    H231899   5.834   5.518   2.981  0.0955 -2.6167  0.8504
 3422TIP3   OH231900   5.937   1.434   0.869 -0.2803 -0.1392 -0.1756
 3422TIP3    H131901   5.979   1.364   0.917  1.3692  0.9241  0.0025
 3422TIP3    H231902   5.908   1.496   0.937 -0.9870 -0.2316 -0.3781
 3423TIP3   OH231903   0.766   4.725   3.319 -0.6561 -0.3959  0.0552
 3423TIP3    H131904   0.779   4.638   3.358  2.5199 -0.5323 -1.0050
 3423TIP3    H231905   0.781   4.786   3.391  0.9530 -0.7130  0.0280
 3424TIP3   OH231906   6.687   1.805   1.541  0.5768 -0.1764  0.1222
 3424TIP3    H131907   6.782   1.797   1.547  0.6006 -0.2201 -0.2677
 3424TIP3    H231908   6.673   1.867   1.469  0.3422  1.4712  1.5255
 3425TIP3   OH231909   2.519   5.232   2.736 -0.2535 -0.9095 -0.1466
 3425TIP3    H131910   2.594   5.178   2.713  1.7065  1.5009  0.1342
 3425TIP3    H231911   2.527   5.246   2.830  1.4270  2.5501 -0.6202
 3426TIP3   OH231912   6.519   5.142   8.541 -0.1155  0.0359 -0.2490
 3426TIP3    H131913   6.506   5.206   8.471 -0.7325  2.0465  1.6160
 3426TIP3    H231914   6.452   5.075   8.525 -0.0183  0.2673 -1.7490
 3427TIP3   OH231915   3.963   0.554   0.097 -0.3923 -0.0656  0.2033
 3427TIP3    H131916   4.032   0.607   0.056 -0.6619  0.4120  0.3535
 3427TIP3    H231917   3.920   0.510   0.024  0.9692 -1.4959  0.2069
 3428TIP3   OH231918   6.784   6.065   0.258  0.7073  0.3523 -0.2265
 3428TIP3    H131919   6.731   5.988   0.240  1.7495 -0.7474  1.1880
 3428TIP3    H231920   6.734   6.116   0.321  0.9650 -0.2882  0.5069
 3429TIP3   OH231921   3.165   5.235   2.088  0.0859  0.4160  0.1117
 3429TIP3    H131922   3.252   5.223   2.052  0.6708 -2.0141  2.0171
 3429TIP3    H231923   3.157   5.329   2.104  2.5190  0.6500  0.2614
 3430TIP3   OH231924   3.484   1.710   0.176 -0.2022 -0.1200  0.1504
 3430TIP3    H131925   3.427   1.689   0.103 -0.1231 -0.5744  0.2183
 3430TIP3    H231926   3.504   1.803   0.165 -0.1951 -0.1841 -0.3999
 3431TIP3   OH231927   5.919   4.805   2.891  0.5170 -0.1446  0.5296
 3431TIP3    H131928   5.986   4.868   2.866  1.4637 -1.3556 -0.0751
 3431TIP3    H231929   5.953   4.762   2.969  1.3660 -2.0508 -0.8106
 3432TIP3   OH231930   2.731   6.037   0.374 -0.1306  0.2591  0.2681
 3432TIP3    H131931   2.723   6.001   0.463  0.6393  0.5703  0.4744
 3432TIP3    H231932   2.770   6.123   0.387  1.4100 -0.2926 -0.4732
 3433TIP3   OH231933   2.066   2.220   0.086 -0.5159 -0.1546 -0.5142
 3433TIP3    H131934   2.091   2.300   0.133  0.9624 -0.2428 -1.1215
 3433TIP3    H231935   2.073   2.244  -0.007  0.2921 -1.0801 -0.7071
 3434TIP3   OH231936   4.061   5.610   2.902 -0.8336  0.4523  0.7272
 3434TIP3    H131937   4.003   5.661   2.959 -0.2293 -1.2031  2.9246
 3434TIP3    H231938   4.068   5.663   2.823 -3.0417  2.0631  1.5073
 3435TIP3   OH231939   3.574   1.560   0.526 -0.5377  0.1175  0.3967
 3435TIP3    H131940   3.624   1.500   0.581 -0.5194  0.6526  0.9743
 3435TIP3    H231941   3.630   1.575   0.450 -0.7569 -0.9843  0.0002
 3436TIP3   OH231942   4.418   3.104   1.040 -0.2402  0.7713 -0.9442
 3436TIP3    H131943   4.369   3.062   0.970  0.0097 -1.0585 -0.0698
 3436TIP3    H231944   4.465   3.033   1.084  0.3322  1.9767  0.5143
 3437TIP3   OH231945   4.405   5.154   0.707 -0.0800  0.0208 -0.0909
 3437TIP3    H131946   4.359   5.229   0.670  0.7812  0.9454  0.6457
 3437TIP3    H231947   4.445   5.111   0.631  1.4370  1.7280 -0.3353
 3438TIP3   OH231948   5.643   2.203   4.413 -0.3997 -0.4415  0.6119
 3438TIP3    H131949   5.587   2.135   4.451 -0.1475 -1.6168 -0.9919
 3438TIP3    H231950   5.732   2.178   4.438 -0.2658 -1.0071 -0.3558
 3439TIP3   OH231951   3.235   3.452   2.497  0.3489  0.4019  0.0532
 3439TIP3    H131952   3.159   3.394   2.495  0.4663  0.2273  0.5776
 3439TIP3    H231953   3.210   3.526   2.442 -0.7428  1.0135  1.3272
 3440TIP3   OH231954   0.348   2.456   2.238 -0.6624 -0.0872  0.3289
 3440TIP3    H131955   0.382   2.524   2.296  0.5523  0.6458 -1.1654
 3440TIP3    H231956   0.424   2.401   2.219 -0.6250  0.6119 -1.7657
 3441TIP3   OH231957   1.217   4.129   2.082 -0.6158  0.7663 -0.0661
 3441TIP3    H131958   1.208   4.034   2.082 -2.0836  0.8806 -1.0494
 3441TIP3    H231959   1.244   4.150   2.172  1.8164 -0.7036 -0.3611
 3442TIP3   OH231960   4.258   2.391   0.046 -0.5531 -0.1413  0.0737
 3442TIP3    H131961   4.266   2.485   0.062 -0.6408 -0.0195 -0.5705
 3442TIP3    H231962   4.348   2.359   0.045 -0.5428 -0.1663  0.8328
 3443TIP3   OH231963   5.803   4.182   0.781 -0.1831  0.0159  0.1391
 3443TIP3    H131964   5.815   4.089   0.801  0.5754 -0.0488 -0.5732
 3443TIP3    H231965   5.882   4.207   0.734 -0.3362  1.0563  0.4081
 3444TIP3   OH231966   1.501   4.050   8.026 -0.0809 -0.7026  0.2725
 3444TIP3    H131967   1.461   4.133   7.999 -0.2725 -0.7507  0.4044
 3444TIP3    H231968   1.574   4.037   7.965 -1.7393 -1.8475 -1.5773
 3445TIP3   OH231969   5.042   3.603   1.566 -0.3645  0.4268  0.3347
 3445TIP3    H131970   4.988   3.660   1.620  1.1468  2.4389 -0.1514
 3445TIP3    H231971   5.000   3.605   1.480 -0.7592  0.1747  0.5229
 3446TIP3   OH231972   1.358   3.785   8.530 -0.1853 -0.4528  0.3891
 3446TIP3    H131973   1.344   3.707   8.478 -1.7089  1.3858 -2.1605
 3446TIP3    H231974   1.271   3.822   8.544  0.4275  0.4822  2.0789
 3447TIP3   OH231975   6.879   1.166   3.758 -0.6997 -0.1613  0.0336
 3447TIP3    H131976   6.884   1.262   3.760 -1.6158 -0.1004  0.2641
 3447TIP3    H231977   6.826   1.144   3.835  3.0936 -1.1824  2.6356
 3448TIP3   OH231978   2.990   6.921   0.017 -0.4430  0.0432  0.1529
 3448TIP3    H131979   2.986   6.827   0.003 -2.1104  0.1512 -0.2595
 3448TIP3    H231980   3.063   6.950  -0.039  0.2964 -1.0209  0.5382
 3449TIP3   OH231981   2.333   0.463   2.639 -0.3922 -0.1590 -0.0977
 3449TIP3    H131982   2.261   0.522   2.664 -0.6577 -0.9534  1.1108
 3449TIP3    H231983   2.409   0.499   2.684 -0.7142 -1.1494  1.3034
 3450TIP3   OH231984   1.937   2.635   1.046  0.3682 -0.0471 -0.6439
 3450TIP3    H131985   1.865   2.686   1.009  1.3984  1.1489 -1.0565
 3450TIP3    H231986   1.896   2.579   1.111 -0.9079  0.7445 -0.7371
 3451TIP3   OH231987   0.229   5.224   4.115  0.0539 -0.6811  0.3988
 3451TIP3    H131988   0.269   5.139   4.096 -0.4110 -1.3633  2.2160
 3451TIP3    H231989   0.135   5.206   4.117 -0.0122 -0.2993  1.4913
 3452TIP3   OH231990   1.983   0.141   0.775  0.3395  0.2001 -0.1676
 3452TIP3    H131991   1.983   0.211   0.840 -0.2329  0.8461 -0.8399
 3452TIP3    H231992   2.052   0.081   0.804 -0.3062  0.1548  1.3472
 3453TIP3   OH231993   4.467   1.487   1.015  0.5697 -0.4851  0.6145
 3453TIP3    H131994   4.541   1.468   1.073 -1.2183 -0.6458  2.9680
 3453TIP3    H231995   4.397   1.516   1.073 -2.0789 -2.7170 -1.1940
 3454TIP3   OH231996   3.954   3.485   1.001 -0.0546 -0.4241 -0.2029
 3454TIP3    H131997   4.020   3.428   0.962  2.2762  0.5479  2.0021
 3454TIP3    H231998   3.939   3.553   0.935  1.1907 -0.6550 -0.7476
 3455TIP3   OH231999   4.313   6.452   1.746 -0.1030 -0.0459 -0.3624
 3455TIP3    H132000   4.274   6.395   1.812 -1.7848  0.3022 -1.0231
 3455TIP3    H232001   4.274   6.537   1.761 -0.0142  0.1912 -1.3958
 3456TIP3   OH232002   2.037   0.631   1.493 -1.1903  0.5862  0.6698
 3456TIP3    H132003   2.070   0.634   1.582  0.3655 -0.6048  0.1728
 3456TIP3    H232004   2.068   0.713   1.453 -1.2716  0.7869  1.0195
 3457TIP3   OH232005   1.441   5.305   2.538  0.5524  0.1381 -0.3802
 3457TIP3    H132006   1.402   5.226   2.574  2.2928  0.3947  2.3527
 3457TIP3    H232007   1.378   5.375   2.558  0.1929 -0.1477 -0.5026
 3458TIP3   OH232008   6.889   1.342   1.408 -0.4694 -0.2632  0.1463
 3458TIP3    H132009   6.902   1.355   1.502 -0.9501  0.7161  0.0858
 3458TIP3    H232010   6.932   1.417   1.367 -0.2435 -0.6991 -0.4256
 3459TIP3   OH232011   0.058   6.325   0.386  0.1886  0.2936 -0.4740
 3459TIP3    H132012   0.091   6.402   0.340 -0.8257  0.9345 -0.1601
 3459TIP3    H232013  -0.006   6.286   0.325 -2.3373  2.0314  0.9143
 3460TIP3   OH232014   5.127   4.250   3.673 -0.1274 -0.7457  0.4797
 3460TIP3    H132015   5.132   4.317   3.741 -1.4267 -0.7118  0.5711
 3460TIP3    H232016   5.095   4.171   3.718 -0.1947 -0.9567  0.0730
 3461TIP3   OH232017   1.256   5.834   2.318 -0.0873  0.0339  0.2244
 3461TIP3    H132018   1.328   5.802   2.265  1.1201  2.4612  0.2512
 3461TIP3    H232019   1.239   5.922   2.285 -2.0352  0.0966  1.2330
 3462TIP3   OH232020   4.991   5.745   3.790 -0.2139  0.2992  0.8373
 3462TIP3    H132021   5.055   5.682   3.756 -0.2577  0.2567  0.8325
 3462TIP3    H232022   5.040   5.826   3.801 -0.0040  0.1001  1.4257
 3463TIP3   OH232023   0.982   3.557   1.168 -0.5475 -0.2170  0.3252
 3463TIP3    H132024   1.033   3.478   1.150 -0.2482 -0.1164  0.7202
 3463TIP3    H232025   0.922   3.564   1.094  1.9651  1.2720 -1.7615
 3464TIP3   OH232026   5.797   5.900   1.064 -0.0261 -0.4173  0.1884
 3464TIP3    H132027   5.883   5.914   1.026 -0.0405  1.5512  0.7761
 3464TIP3    H232028   5.744   5.865   0.992  0.4863  1.2649 -1.0639
 3465TIP3   OH232029   6.365   5.122   1.117  0.0466  0.2681  0.5282
 3465TIP3    H132030   6.413   5.055   1.166 -0.8569  0.3100  1.5001
 3465TIP3    H232031   6.274   5.095   1.122 -0.1792  0.8569 -0.2266
 3466TIP3   OH232032   4.081   5.451   1.306  0.4308 -0.2132  0.4120
 3466TIP3    H132033   4.047   5.493   1.386  0.8545 -0.4960  0.7435
 3466TIP3    H232034   4.175   5.470   1.308  0.3018  0.5842 -0.5132
 3467TIP3   OH232035   5.015   6.245   1.186  0.1861  0.1465  0.6668
 3467TIP3    H132036   4.926   6.257   1.151  0.3230 -1.0168 -0.1392
 3467TIP3    H232037   5.064   6.208   1.113  1.0258 -0.3955  1.4959
 3468TIP3   OH232038   5.703   3.569   3.060 -0.1084 -0.5406  0.4418
 3468TIP3    H132039   5.635   3.548   2.997  0.2757 -0.5040  0.0057
 3468TIP3    H232040   5.669   3.644   3.109 -0.4601 -0.6484  0.3640
 3469TIP3   OH232041   4.999   1.230   3.191  0.2442 -0.1528  0.1968
 3469TIP3    H132042   4.948   1.164   3.145 -0.6906 -0.0146  1.0033
 3469TIP3    H232043   4.944   1.309   3.188  0.5199  0.0695  0.8517
 3470TIP3   OH232044   0.598   5.415   2.720 -0.6372 -0.0933 -0.3304
 3470TIP3    H132045   0.537   5.445   2.652  0.0095 -2.3190 -2.0142
 3470TIP3    H232046   0.685   5.437   2.686 -0.3316 -0.7627 -0.0084
 3471TIP3   OH232047   1.881   6.785   3.455 -0.1813 -0.4868 -0.3028
 3471TIP3    H132048   1.859   6.806   3.545  1.1723  1.0288 -0.2815
 3471TIP3    H232049   1.975   6.803   3.448 -0.1632 -1.0318 -1.8865
 3472TIP3   OH232050   4.730   3.373   2.407 -0.6008 -0.1174 -0.0821
 3472TIP3    H132051   4.730   3.456   2.359 -0.3792  0.4819  0.9134
 3472TIP3    H232052   4.737   3.306   2.340 -0.3926  0.6906 -0.8868
 3473TIP3   OH232053   1.217   0.503   0.209 -0.1380 -0.0930  0.5472
 3473TIP3    H132054   1.295   0.461   0.246  0.5005  1.3068  0.8590
 3473TIP3    H232055   1.165   0.431   0.174 -0.4061 -1.4380  3.4416
 3474TIP3   OH232056   4.486   0.411   3.155  0.3209  0.1584 -0.7128
 3474TIP3    H132057   4.413   0.404   3.215  1.4841  1.9540  1.0201
 3474TIP3    H232058   4.548   0.344   3.184  0.5932  0.5802 -0.2999
 3475TIP3   OH232059   4.297   6.911   8.342  0.0844 -0.1134  0.4777
 3475TIP3    H132060   4.280   6.824   8.379  1.1619 -0.4189  0.3003
 3475TIP3    H232061   4.211   6.947   8.324 -0.3820 -1.1080  0.6565
 3476TIP3   OH232062   5.991   2.666   3.529 -0.3249  0.0563  0.5045
 3476TIP3    H132063   5.943   2.606   3.586 -2.3305  0.7889 -0.3285
 3476TIP3    H232064   6.024   2.734   3.587 -1.8215  0.4703  0.9081
 3477TIP3   OH232065   3.648   4.405   0.629  0.6421 -0.6644 -0.2718
 3477TIP3    H132066   3.652   4.313   0.655 -2.0896 -0.5795  0.7310
 3477TIP3    H232067   3.684   4.453   0.704  1.2679 -0.8335 -0.4519
 3478TIP3   OH232068   6.860   2.662   2.849 -0.0799  0.4835 -0.4612
 3478TIP3    H132069   6.824   2.574   2.864 -0.5814  1.1097  2.6223
 3478TIP3    H232070   6.945   2.660   2.892 -0.6437  1.8628  0.7575
 3479TIP3   OH232071   0.036   4.091   8.293  0.1113  0.1551  0.0394
 3479TIP3    H132072  -0.030   4.161   8.296 -0.3797 -0.2486 -1.0482
 3479TIP3    H232073   0.114   4.134   8.258 -0.3580  0.0480 -1.1781
 3480TIP3   OH232074   5.343   3.377   4.138 -0.6557 -0.2397 -0.0292
 3480TIP3    H132075   5.398   3.455   4.130  0.4671 -1.0898 -0.8882
 3480TIP3    H232076   5.268   3.395   4.080 -2.3373  1.7072  2.5444
 3481TIP3   OH232077   2.914   1.601   1.095  0.0010  0.3134 -0.1666
 3481TIP3    H132078   2.820   1.587   1.108  0.0571  1.0764  1.2698
 3481TIP3    H232079   2.951   1.597   1.183  1.4409 -0.7136 -0.7734
 3482TIP3   OH232080   5.655   6.557   0.434  0.3777 -0.1772  0.6708
 3482TIP3    H132081   5.604   6.608   0.497 -1.2335 -1.3560  0.3981
 3482TIP3    H232082   5.598   6.483   0.412  2.1763 -1.4926  0.2142
 3483TIP3   OH232083   1.018   4.976   3.430  0.9230  0.5808 -0.3995
 3483TIP3    H132084   0.973   5.023   3.360 -0.4230  1.3176  0.8914
 3483TIP3    H232085   1.111   4.990   3.413  0.5839  2.4884 -0.9062
 3484TIP3   OH232086   1.256   2.457   1.894 -0.3848 -0.8838 -0.3224
 3484TIP3    H132087   1.348   2.481   1.902 -0.7676  0.8459 -0.7677
 3484TIP3    H232088   1.253   2.364   1.918  1.0289 -0.2600  2.8262
 3485TIP3   OH232089   6.539   2.240   1.067 -0.7956  0.9017 -0.3753
 3485TIP3    H132090   6.609   2.241   1.132 -1.1933  0.3368  0.0767
 3485TIP3    H232091   6.532   2.331   1.038 -0.5586  1.1518  0.3203
 3486TIP3   OH232092   1.957   0.829   3.063  0.0197  0.0860 -0.4593
 3486TIP3    H132093   1.875   0.876   3.052 -0.2020 -0.7242 -2.7668
 3486TIP3    H232094   2.023   0.897   3.072 -0.8995  0.7604  2.3461
 3487TIP3   OH232095   4.761   2.200   2.831 -0.1341  0.9139  0.1228
 3487TIP3    H132096   4.705   2.134   2.790  0.9572  1.7278 -2.8881
 3487TIP3    H232097   4.743   2.191   2.925 -1.7904 -1.9919 -0.3510
 3488TIP3   OH232098   4.848   2.023   2.084  0.6273 -0.1713 -0.0547
 3488TIP3    H132099   4.759   2.022   2.120  1.0238 -2.0044  0.9816
 3488TIP3    H232100   4.857   2.110   2.045 -1.2372  0.4498  0.7926
 3489TIP3   OH232101   5.250   6.737   1.995 -0.3937 -0.5131 -0.1476
 3489TIP3    H132102   5.318   6.684   2.036 -1.1858 -1.7073 -0.3386
 3489TIP3    H232103   5.270   6.827   2.022  1.3691 -0.8149 -0.3939
 3490TIP3   OH232104   2.823   6.409   0.973 -0.1077 -0.5808 -0.6313
 3490TIP3    H132105   2.763   6.464   1.024 -1.1001  0.1405 -2.4886
 3490TIP3    H232106   2.870   6.470   0.916  1.0415 -1.3529 -0.5384
 3491TIP3   OH232107   6.408   2.289   3.037  0.5360  0.6768 -0.2264
 3491TIP3    H132108   6.421   2.197   3.060  0.6238  0.5179 -0.8843
 3491TIP3    H232109   6.318   2.309   3.063  0.3696  0.2768 -0.4963
 3492TIP3   OH232110   2.488   1.724   3.553  0.1668 -0.2290  0.1071
 3492TIP3    H132111   2.396   1.699   3.559  0.2446 -0.5660 -0.0592
 3492TIP3    H232112   2.520   1.721   3.643 -0.3494  1.3344  0.3666
 3493TIP3   OH232113   4.732   3.331   7.680  0.1095  0.4600  0.4620
 3493TIP3    H132114   4.726   3.427   7.675 -0.5718  0.3538 -1.4626
 3493TIP3    H232115   4.747   3.304   7.590  0.8386 -1.2397  1.0597
 3494TIP3   OH232116   1.099   3.515   2.046  0.1294  0.8205 -0.4183
 3494TIP3    H132117   1.023   3.570   2.029 -0.8573  0.3346  2.1071
 3494TIP3    H232118   1.070   3.451   2.111  2.1248 -0.7229 -0.9159
 3495TIP3   OH232119   5.558   3.616   1.084  0.4326 -0.3501  0.7439
 3495TIP3    H132120   5.577   3.624   0.990  0.1413  4.1471  0.8661
 3495TIP3    H232121   5.638   3.647   1.127  0.0010 -0.8660  1.9631
 3496TIP3   OH232122   5.016   0.102   2.741 -0.4336  0.3159 -0.4030
 3496TIP3    H132123   5.073   0.173   2.770 -0.2185 -0.2897  0.7108
 3496TIP3    H232124   5.075   0.036   2.707 -0.6032  0.4350 -0.9448
 3497TIP3   OH232125   3.206   5.008   2.254  0.2353  0.4443  0.9452
 3497TIP3    H132126   3.150   4.930   2.252  0.0981  0.5456 -0.4938
 3497TIP3    H232127   3.173   5.062   2.182  0.7502  1.5350  1.5156
 3498TIP3   OH232128   2.096   6.793   1.507 -0.6885  0.6053 -0.2847
 3498TIP3    H132129   2.092   6.724   1.573 -1.0162 -0.2823 -1.2104
 3498TIP3    H232130   2.161   6.763   1.444 -0.1179  1.6133 -0.2067
 3499TIP3   OH232131   6.438   0.987   3.968  0.5774 -0.3700 -0.3178
 3499TIP3    H132132   6.471   0.920   3.908 -0.8952  0.9736 -2.8027
 3499TIP3    H232133   6.502   1.057   3.963  1.3069 -0.9031  1.0575
 3500TIP3   OH232134   0.459   6.346   2.366  0.0351 -0.2836 -0.3297
 3500TIP3    H132135   0.516   6.277   2.401 -0.4687 -0.5703 -0.0552
 3500TIP3    H232136   0.473   6.343   2.272  2.0367  1.0507 -0.1282
 3501TIP3   OH232137   2.382   3.566   1.004  0.1538  0.0766 -0.0015
 3501TIP3    H132138   2.323   3.490   1.012 -2.5183  1.7979 -1.5920
 3501TIP3    H232139   2.363   3.619   1.082  0.6825 -0.0246  0.1986
 3502TIP3   OH232140   4.142   6.774   1.291  0.2422  0.1003  0.2175
 3502TIP3    H132141   4.200   6.731   1.354  0.6162 -0.2946 -0.3934
 3502TIP3    H232142   4.153   6.725   1.210 -0.9092  0.0500  0.0695
 3503TIP3   OH232143   2.770   2.062   1.627 -0.1597  0.3963  0.0468
 3503TIP3    H132144   2.764   2.157   1.635  0.4844  0.3299  1.5652
 3503TIP3    H232145   2.815   2.049   1.543 -0.1515  1.4263 -0.1276
 3504TIP3   OH232146   1.263   6.864   3.065  0.1045  0.1122  0.5883
 3504TIP3    H132147   1.246   6.925   2.993  0.1254  0.7788  1.1388
 3504TIP3    H232148   1.194   6.799   3.058  0.1534  0.1254 -0.0871
 3505TIP3   OH232149   5.201   0.964   2.672  0.8306  0.1866  0.2034
 3505TIP3    H132150   5.284   0.924   2.646 -0.0437 -1.0397 -0.8202
 3505TIP3    H232151   5.161   0.990   2.589  0.1490  0.6932  0.6862
 3506TIP3   OH232152   1.759   3.808   0.908 -0.3033 -0.1171 -0.3484
 3506TIP3    H132153   1.828   3.857   0.953 -0.1760 -0.2813 -0.3649
 3506TIP3    H232154   1.682   3.864   0.915 -0.6448 -0.7210  1.2715
 3507TIP3   OH232155   3.950   4.900   4.127 -0.2319  0.0324  0.4563
 3507TIP3    H132156   4.024   4.896   4.187 -0.9999  0.2409  1.4415
 3507TIP3    H232157   3.989   4.921   4.042  0.9593 -1.0990  0.6982
 3508TIP3   OH232158   3.094   5.458   0.905  0.2899  0.3890 -0.2196
 3508TIP3    H132159   3.156   5.390   0.930 -0.7313  0.1315  1.8691
 3508TIP3    H232160   3.071   5.438   0.814 -1.9506 -3.7660  1.0087
 3509TIP3   OH232161   3.442   5.142   8.374  0.0392  0.3675  0.1551
 3509TIP3    H132162   3.535   5.155   8.354  0.0094  0.4267  0.0552
 3509TIP3    H232163   3.406   5.231   8.381  0.1437  0.3552  0.9202
 3510TIP3   OH232164   3.521   1.896   0.982  0.4658 -0.1101 -0.7707
 3510TIP3    H132165   3.602   1.845   0.979  1.4289  1.2416  0.7674
 3510TIP3    H232166   3.524   1.949   0.903  1.0704 -0.1035 -0.7529
 3511TIP3   OH232167   3.874   6.502   0.830 -0.1954  0.1927 -0.2333
 3511TIP3    H132168   3.938   6.573   0.827  0.4606 -0.4125 -1.6950
 3511TIP3    H232169   3.797   6.538   0.786 -0.6954  0.7364  1.0419
 3512TIP3   OH232170   1.179   4.944   1.868  0.5723  0.2468  0.4731
 3512TIP3    H132171   1.165   4.925   1.776  0.0407  0.7883  0.4329
 3512TIP3    H232172   1.096   4.920   1.910  0.4045  1.0730  0.6335
 3513TIP3   OH232173   5.414   1.566   1.522  0.4010  0.3105 -0.1033
 3513TIP3    H132174   5.444   1.645   1.567  0.9722  0.1766 -0.2428
 3513TIP3    H232175   5.374   1.513   1.591  0.5622  0.4560  0.1038
 3514TIP3   OH232176   5.246   0.201   0.621 -0.0041 -0.0602 -0.6049
 3514TIP3    H132177   5.253   0.109   0.595 -0.8247 -1.4520  3.3528
 3514TIP3    H232178   5.152   0.218   0.622  0.1727  1.4803 -2.9212
 3515TIP3   OH232179   0.011   3.244   0.252 -0.6326  0.0665 -0.0830
 3515TIP3    H132180   0.048   3.291   0.326 -1.4362 -0.1160  0.4501
 3515TIP3    H232181  -0.082   3.234   0.274 -0.7673 -0.4773 -0.8573
 3516TIP3   OH232182   5.590   1.161   8.138 -0.0621 -0.3482 -0.0854
 3516TIP3    H132183   5.583   1.088   8.077 -0.2067  0.2596 -0.8069
 3516TIP3    H232184   5.678   1.155   8.173 -0.3183 -1.3161  0.4427
 3517TIP3   OH232185   0.149   5.435   2.661  0.0624  0.2680 -0.3194
 3517TIP3    H132186   0.192   5.463   2.742  0.7505 -0.2494 -0.5002
 3517TIP3    H232187   0.058   5.463   2.672  0.2020  0.4238  0.5253
 3518TIP3   OH232188   2.204   4.362   3.961  0.4691 -0.1903  0.2962
 3518TIP3    H132189   2.137   4.422   3.993  0.3555 -0.8310  1.3383
 3518TIP3    H232190   2.198   4.287   4.020  0.6843 -1.1815 -0.9005
 3519TIP3   OH232191   6.585   4.676   4.139 -0.5386  0.8403  0.0338
 3519TIP3    H132192   6.501   4.685   4.094  0.3423  2.4709 -1.3545
 3519TIP3    H232193   6.635   4.616   4.085 -0.3320  0.9103  0.1465
 3520TIP3   OH232194   6.507   1.551   1.980 -0.6717 -0.5372 -0.0627
 3520TIP3    H132195   6.529   1.627   2.034 -1.6681  0.5663 -1.1303
 3520TIP3    H232196   6.535   1.576   1.892 -1.4837 -1.1919 -0.5189
 3521TIP3   OH232197   1.935   5.718   1.656 -0.0475  0.1400  0.1632
 3521TIP3    H132198   1.872   5.646   1.667 -3.1231  2.6313  0.1805
 3521TIP3    H232199   1.954   5.747   1.745  2.8303 -1.7762  0.3055
 3522TIP3   OH232200   5.055   0.256   1.386 -0.4340 -0.2740  0.0133
 3522TIP3    H132201   5.140   0.249   1.429  0.0408 -1.0343 -1.0032
 3522TIP3    H232202   5.073   0.302   1.304 -1.1873  0.4547  0.2407
 3523TIP3   OH232203   5.386   1.885   2.950  0.1332 -0.5859  0.2095
 3523TIP3    H132204   5.345   1.925   3.027 -0.8917 -0.6081 -0.2992
 3523TIP3    H232205   5.480   1.901   2.961 -0.1877  1.6026  0.2536
 3524TIP3   OH232206   6.304   1.466   3.561  0.3453  0.0573 -0.6203
 3524TIP3    H132207   6.269   1.377   3.571  0.4503  0.1117  0.2194
 3524TIP3    H232208   6.395   1.459   3.589 -0.1890  0.8630  1.4216
 3525TIP3   OH232209   5.536   5.284   0.033 -0.0197  0.1139 -0.5453
 3525TIP3    H132210   5.630   5.268   0.035 -0.2733 -1.3803  0.8262
 3525TIP3    H232211   5.523   5.361   0.089  0.2017 -0.8479  0.8660
 3526TIP3   OH232212   0.120   4.370   8.187  0.4759  0.8926 -0.1820
 3526TIP3    H132213   0.152   4.458   8.208 -1.7201  1.6228  0.3723
 3526TIP3    H232214   0.025   4.375   8.199  0.3724 -1.8515  0.9392
 3527TIP3   OH232215   1.747   2.262   1.090  0.1490 -0.2195 -0.6387
 3527TIP3    H132216   1.834   2.235   1.120  0.0166 -0.8966 -0.8419
 3527TIP3    H232217   1.689   2.193   1.121 -0.6160  1.1254  1.0738
 3528TIP3   OH232218   0.865   5.574   1.177 -0.0711  0.0314  0.4979
 3528TIP3    H132219   0.848   5.641   1.111  0.1887 -1.3960 -1.1200
 3528TIP3    H232220   0.781   5.561   1.221 -0.1900  1.1850  0.6323
 3529TIP3   OH232221   4.538   6.553   2.365  0.4010 -0.0911 -0.2277
 3529TIP3    H132222   4.554   6.647   2.375 -0.0085 -0.1082  0.7322
 3529TIP3    H232223   4.624   6.513   2.377  0.2048  0.0098  2.0248
 3530TIP3   OH232224   0.748   3.372   3.655 -0.1136 -0.0151 -0.4553
 3530TIP3    H132225   0.797   3.445   3.694 -0.1939  0.1730 -0.7012
 3530TIP3    H232226   0.714   3.323   3.730  1.1348 -0.6291 -0.2620
 3531TIP3   OH232227   6.803   0.719   0.111  0.0027  0.4468  0.1570
 3531TIP3    H132228   6.724   0.713   0.057  0.0140  1.9305 -0.0765
 3531TIP3    H232229   6.874   0.689   0.053 -0.1612  0.7995 -0.2333
 3532TIP3   OH232230   4.607   4.687   0.026  0.0956 -0.0457  0.6679
 3532TIP3    H132231   4.538   4.621   0.025  0.1871 -0.1606 -0.7934
 3532TIP3    H232232   4.561   4.770   0.010  0.1476  0.0399  0.9698
 3533TIP3   OH232233   0.496   0.501   2.216 -0.0124 -0.2507 -0.2207
 3533TIP3    H132234   0.546   0.554   2.278 -1.0630  0.0891  0.3597
 3533TIP3    H232235   0.460   0.430   2.269 -0.8135 -0.0321 -0.4617
 3534TIP3   OH232236   0.859   6.512   0.788  0.4036  0.4791 -0.3408
 3534TIP3    H132237   0.774   6.481   0.817  0.5681 -0.3801 -0.7303
 3534TIP3    H232238   0.900   6.435   0.749  2.0988  0.3699  1.4848
 3535TIP3   OH232239   1.866   3.270   2.169  0.1713 -0.6855  0.0539
 3535TIP3    H132240   1.924   3.292   2.096  0.9050 -0.3925  0.7132
 3535TIP3    H232241   1.830   3.184   2.146  0.9039 -0.8926 -0.3491
 3536TIP3   OH232242   3.738   3.044   3.060  0.8710 -0.2302  0.3990
 3536TIP3    H132243   3.760   3.106   2.991 -0.8921  1.8843  1.5826
 3536TIP3    H232244   3.773   3.084   3.140  0.0418 -0.9486  1.1499
 3537TIP3   OH232245   1.852   6.387   3.057 -0.4550  0.5089 -0.1451
 3537TIP3    H132246   1.787   6.323   3.028  0.4444 -0.6182  0.2246
 3537TIP3    H232247   1.889   6.422   2.976  0.2917 -0.7916 -0.4102
 3538TIP3   OH232248   2.455   5.505   1.444  0.5251  0.0486 -0.0536
 3538TIP3    H132249   2.412   5.537   1.365  1.2311 -1.7428 -1.2442
 3538TIP3    H232250   2.386   5.463   1.494  0.3089 -0.0689 -0.4418
 3539TIP3   OH232251   2.745   1.088   2.515  0.6886  0.1944  0.2011
 3539TIP3    H132252   2.731   1.173   2.557 -0.8912  0.3361 -0.5409
 3539TIP3    H232253   2.702   1.025   2.573  1.9134 -0.1398  0.7835
 3540TIP3   OH232254   5.648   0.303   0.156  0.0231  0.4489  0.2775
 3540TIP3    H132255   5.636   0.223   0.207  2.1751 -1.2465 -1.6648
 3540TIP3    H232256   5.597   0.288   0.076  0.3007  1.1032 -0.0296
 3541TIP3   OH232257   0.517   6.125   4.352  0.0171 -0.9180  0.2713
 3541TIP3    H132258   0.562   6.177   4.285 -1.4335  1.5264  1.1008
 3541TIP3    H232259   0.474   6.055   4.302 -0.2610  0.2837 -1.2641
 3542TIP3   OH232260   0.032   1.743   0.713  0.1800  0.4703 -0.1101
 3542TIP3    H132261   0.034   1.838   0.723 -0.6070  0.7009 -1.7861
 3542TIP3    H232262   0.076   1.709   0.791 -0.4781  2.1607  1.0451
 3543TIP3   OH232263   0.949   2.261   2.079  0.2997  0.2739 -0.5488
 3543TIP3    H132264   1.007   2.199   2.034 -0.8746 -1.5082  0.2782
 3543TIP3    H232265   0.892   2.295   2.010 -0.9345 -1.7879 -0.6001
 3544TIP3   OH232266   1.720   6.240   0.364 -0.4746 -0.2834  0.3403
 3544TIP3    H132267   1.780   6.291   0.310 -2.2059  1.3282 -0.1683
 3544TIP3    H232268   1.642   6.230   0.309 -0.8835 -1.8993  1.1524
 3545TIP3   OH232269   6.380   5.227   0.598  0.0344  0.0019 -0.4936
 3545TIP3    H132270   6.294   5.220   0.557 -1.3723 -1.5159  2.4391
 3545TIP3    H232271   6.442   5.218   0.525 -2.2542  0.2281 -2.5849
 3546TIP3   OH232272   6.315   4.959   8.487 -0.0869  0.4924  0.1986
 3546TIP3    H132273   6.347   4.872   8.464  1.7731  1.9739 -3.5785
 3546TIP3    H232274   6.223   4.958   8.460 -0.4719 -0.6314  1.4378
 3547TIP3   OH232275   3.598   6.365   8.288 -0.7062  0.0432 -0.1608
 3547TIP3    H132276   3.523   6.424   8.280 -1.0437 -0.5594 -1.6900
 3547TIP3    H232277   3.674   6.422   8.274 -0.8648  0.5703  0.9668
 3548TIP3   OH232278   1.660   4.796   1.874 -0.8574 -0.0452 -0.1365
 3548TIP3    H132279   1.571   4.777   1.904 -0.6268 -0.3497  0.3605
 3548TIP3    H232280   1.717   4.760   1.942 -0.2618 -2.1789 -1.6244
 3549TIP3   OH232281   2.538   5.167   8.143  0.1637 -0.0963  0.2905
 3549TIP3    H132282   2.443   5.181   8.147  0.0387 -0.9048  0.4064
 3549TIP3    H232283   2.573   5.250   8.113 -0.4146  0.8142  2.0009
 3550TIP3   OH232284   6.327   0.281   3.611  0.0305  0.4588  0.0207
 3550TIP3    H132285   6.420   0.259   3.620  0.4480  0.9153 -2.5146
 3550TIP3    H232286   6.309   0.339   3.685  1.7438  0.3648  0.5648
 3551TIP3   OH232287   6.639   6.400   2.663  0.6951  0.3361 -0.0155
 3551TIP3    H132288   6.554   6.401   2.707  0.8748 -0.2268  0.3507
 3551TIP3    H232289   6.702   6.398   2.734  1.0057  0.1416 -0.2987
 3552TIP3   OH232290   2.993   5.393   7.937  0.2161  0.1067  0.2273
 3552TIP3    H132291   3.061   5.446   7.978 -0.4761  0.1239  1.4123
 3552TIP3    H232292   2.932   5.373   8.009 -0.0852 -1.4131 -0.4135
 3553TIP3   OH232293   2.175   4.831   1.661 -0.1325 -0.0213 -0.0650
 3553TIP3    H132294   2.133   4.899   1.608 -3.4419 -0.8797  1.1721
 3553TIP3    H232295   2.188   4.758   1.601 -0.1247  0.3782 -0.5576
 3554TIP3   OH232296   5.220   0.999   1.582  0.2763  0.7238  0.0531
 3554TIP3    H132297   5.316   0.996   1.574  0.3562  0.3941  0.9836
 3554TIP3    H232298   5.205   1.015   1.676 -0.5982 -0.3659  0.1084
 3555TIP3   OH232299   2.261   0.210   2.541 -0.2766  0.0405  0.2612
 3555TIP3    H132300   2.321   0.147   2.502  0.6286  1.7277 -1.2161
 3555TIP3    H232301   2.318   0.271   2.588 -1.2034 -0.7306  2.5116
 3556TIP3   OH232302   6.386   4.077   3.109  0.1137 -0.1304 -0.0882
 3556TIP3    H132303   6.316   4.012   3.101  0.4353 -0.3181 -1.6725
 3556TIP3    H232304   6.346   4.159   3.079 -0.6873  0.7925  3.1106
 3557TIP3   OH232305   2.289   1.873   0.644  0.0672 -0.0567 -0.3811
 3557TIP3    H132306   2.334   1.830   0.716  1.9939 -0.0163 -1.5068
 3557TIP3    H232307   2.196   1.852   0.658  0.4708 -0.7460  1.6001
 3558TIP3   OH232308   3.912   4.192   3.983  0.1907 -0.1329  0.5898
 3558TIP3    H132309   3.829   4.237   3.968  0.7528  0.4506 -0.9233
 3558TIP3    H232310   3.898   4.103   3.952 -0.3004 -0.4589  1.7054
 3559TIP3   OH232311   4.388   6.848   3.215 -0.0578  0.5453 -0.3494
 3559TIP3    H132312   4.338   6.785   3.267 -0.5812  1.2963  0.0813
 3559TIP3    H232313   4.402   6.922   3.274  1.3856  0.4460 -0.5409
 3560TIP3   OH232314   4.190   1.456   2.626 -0.1834  0.1405 -0.0334
 3560TIP3    H132315   4.262   1.496   2.676 -0.3327  0.4468 -0.0635
 3560TIP3    H232316   4.113   1.466   2.681 -0.0033 -1.2072  0.5078
 3561TIP3   OH232317   5.065   0.571   1.390 -0.2598  0.2842  0.4134
 3561TIP3    H132318   5.121   0.582   1.312 -0.9138 -0.2038 -0.1372
 3561TIP3    H232319   5.085   0.648   1.444  1.2759 -0.0980  0.4470
 3562TIP3   OH232320   2.299   0.276   1.924  0.2902 -0.3331 -0.3426
 3562TIP3    H132321   2.313   0.343   1.991 -1.1319  4.1009 -3.8918
 3562TIP3    H232322   2.361   0.299   1.854 -1.1253 -1.9462 -2.2579
 3563TIP3   OH232323   3.026   0.641   1.096 -0.2911  0.0703  0.0100
 3563TIP3    H132324   2.960   0.707   1.115  0.1791  0.5320  0.0816
 3563TIP3    H232325   3.087   0.647   1.170 -0.2126 -0.4058 -0.0109
 3564TIP3   OH232326   1.890   1.900   1.482 -0.2127 -0.3453 -0.5376
 3564TIP3    H132327   1.862   1.873   1.394 -1.1198 -1.4312  0.0513
 3564TIP3    H232328   1.847   1.838   1.540 -0.2505  0.8327  0.7363
 3565TIP3   OH232329   2.162   3.228   2.254 -0.6584  0.0361 -0.6498
 3565TIP3    H132330   2.190   3.218   2.345 -0.6405  0.1275 -0.6457
 3565TIP3    H232331   2.123   3.143   2.232  0.3708 -0.3832 -0.9196
 3566TIP3   OH232332   1.686   5.914   2.866 -0.4214 -0.3824  0.1322
 3566TIP3    H132333   1.755   5.922   2.801 -0.2086 -0.1770  0.3797
 3566TIP3    H232334   1.731   5.927   2.950 -0.9512  0.9557  0.2310
 3567TIP3   OH232335   5.497   0.032   0.105 -0.4192 -0.3809  0.3320
 3567TIP3    H132336   5.415   0.053   0.060 -1.1132 -1.1688  1.1981
 3567TIP3    H232337   5.482   0.056   0.196  0.6322  0.2829  0.3447
 3568TIP3   OH232338   3.712   0.787   2.210  0.1591  0.2188 -0.2270
 3568TIP3    H132339   3.673   0.866   2.172  1.7260  1.5910  0.8584
 3568TIP3    H232340   3.806   0.800   2.201  0.5251 -0.4441  2.0221
 3569TIP3   OH232341   1.766   0.656   1.811 -0.0475 -0.3834  0.5372
 3569TIP3    H132342   1.698   0.721   1.831 -1.2434 -1.1638 -0.7778
 3569TIP3    H232343   1.746   0.582   1.869 -1.7902 -1.5208 -1.3801
 3570TIP3   OH232344   5.328   3.648   3.924 -0.1750 -0.3496 -0.3800
 3570TIP3    H132345   5.237   3.678   3.923  0.2007  0.8201 -0.9001
 3570TIP3    H232346   5.354   3.658   4.016  0.2169  1.9013 -0.6693
 3571TIP3   OH232347   3.930   2.904   1.226  0.0142 -0.0771 -0.2983
 3571TIP3    H132348   3.980   2.985   1.236 -0.4742  0.0752  1.0962
 3571TIP3    H232349   3.970   2.844   1.289  0.1294 -0.8152 -1.0582
 3572TIP3   OH232350   3.277   2.887   1.845 -0.3481 -0.6755  0.7436
 3572TIP3    H132351   3.217   2.905   1.773 -0.9898 -0.4590  1.3186
 3572TIP3    H232352   3.272   2.965   1.901  2.4756  0.5573 -0.5121
 3573TIP3   OH232353   4.260   1.588   0.799 -0.0217  0.4341 -0.3645
 3573TIP3    H132354   4.246   1.582   0.893  0.0650  1.0077 -0.3100
 3573TIP3    H232355   4.318   1.663   0.788 -0.0966  0.4228 -0.8801
 3574TIP3   OH232356   0.763   0.202   2.885 -0.2406 -0.2012  0.3951
 3574TIP3    H132357   0.836   0.202   2.948 -0.5179  2.2922  0.7990
 3574TIP3    H232358   0.766   0.115   2.846  1.9022 -0.7536  1.6148
 3575TIP3   OH232359   6.480   1.158   1.890 -0.0773  0.2711  0.1750
 3575TIP3    H132360   6.465   1.064   1.901 -0.0244  0.4672  2.5844
 3575TIP3    H232361   6.489   1.170   1.796 -0.1439 -2.1203 -0.2092
 3576TIP3   OH232362   5.349   6.682   0.384 -0.0892  0.4238 -0.1031
 3576TIP3    H132363   5.320   6.601   0.424  0.7221  0.0516 -0.2498
 3576TIP3    H232364   5.285   6.699   0.314 -0.2003 -0.1466 -0.1423
 3577TIP3   OH232365   1.427   4.497   2.143  0.4424 -0.3670 -0.6675
 3577TIP3    H132366   1.476   4.561   2.195  0.5070 -0.3638 -0.7317
 3577TIP3    H232367   1.493   4.437   2.111  0.1145 -2.0793  1.6223
 3578TIP3   OH232368   0.274   2.444   2.755 -0.2957  0.0916 -0.2312
 3578TIP3    H132369   0.236   2.480   2.835 -0.3172  0.8485 -0.5730
 3578TIP3    H232370   0.276   2.518   2.694  2.0164  0.1897 -0.1357
 3579TIP3   OH232371   3.162   5.007   8.082 -0.0808 -0.6729  0.2160
 3579TIP3    H132372   3.163   4.936   8.018  1.3658  0.5006 -1.1197
 3579TIP3    H232373   3.073   5.042   8.077  0.1696 -0.2086 -1.6421
 3580TIP3   OH232374   0.754   1.984   0.549  0.2172  0.3394  0.2393
 3580TIP3    H132375   0.849   1.984   0.543  0.1280 -0.1293 -2.7732
 3580TIP3    H232376   0.725   2.023   0.466 -2.2299  0.1565  0.9282
 3581TIP3   OH232377   5.456   3.230   8.026  0.4601 -0.3686 -0.1267
 3581TIP3    H132378   5.381   3.268   7.980  0.6271 -0.9706 -0.9123
 3581TIP3    H232379   5.533   3.262   7.978  0.7224  0.2069  0.6431
 3582TIP3   OH232380   0.370   6.252   4.013 -0.7494  0.4741  0.3013
 3582TIP3    H132381   0.310   6.209   4.073  0.1947 -2.4280 -0.6792
 3582TIP3    H232382   0.342   6.224   3.926  1.1507  0.1599 -0.2577
 3583TIP3   OH232383   2.880   6.521   1.619  0.4842 -0.3453 -0.0395
 3583TIP3    H132384   2.949   6.566   1.668  0.2364  0.3719 -0.3413
 3583TIP3    H232385   2.878   6.565   1.535  0.1130 -0.8121 -0.2768
 3584TIP3   OH232386   3.104   4.430   3.360  0.0318 -0.6123  0.0319
 3584TIP3    H132387   3.084   4.431   3.454 -0.9379 -0.4932 -0.1690
 3584TIP3    H232388   3.132   4.519   3.340  1.7666 -0.9981  0.4995
 3585TIP3   OH232389   1.202   5.602   0.577  0.0467  0.1552  0.2378
 3585TIP3    H132390   1.231   5.688   0.608 -0.7342  0.7602 -0.6333
 3585TIP3    H232391   1.143   5.622   0.504 -0.4199 -1.1194  0.2424
 3586TIP3   OH232392   3.464   2.985   0.232 -0.0095 -0.4076 -0.7054
 3586TIP3    H132393   3.506   2.971   0.147 -0.2316  1.0979 -1.0882
 3586TIP3    H232394   3.373   2.961   0.218 -0.1520  0.3138 -1.0373
 3587TIP3   OH232395   5.528   6.523   3.519  0.0991  0.1958 -0.1616
 3587TIP3    H132396   5.435   6.502   3.511  0.0243  0.3835  0.2001
 3587TIP3    H232397   5.558   6.470   3.593  0.1508  0.5709  0.0838
 3588TIP3   OH232398   1.103   5.850   3.831  0.2767  0.2448 -0.0445
 3588TIP3    H132399   1.064   5.934   3.857  1.3324  1.4820 -2.1540
 3588TIP3    H232400   1.135   5.812   3.912 -0.8387  1.5407  1.0603
 3589TIP3   OH232401   2.996   6.410   2.605  0.3465 -0.0917  0.1985
 3589TIP3    H132402   3.071   6.368   2.564 -0.9324 -1.2573 -1.0893
 3589TIP3    H232403   2.981   6.489   2.553 -0.3666 -0.7973 -0.7219
 3590TIP3   OH232404   0.314   5.231   1.367  0.3572  0.7930 -0.6327
 3590TIP3    H132405   0.232   5.273   1.394  0.2287  0.4897 -0.5557
 3590TIP3    H232406   0.292   5.139   1.355  1.1576  0.2351  1.5555
 3591TIP3   OH232407   5.653   1.091   3.394  0.6584  0.0401 -0.2084
 3591TIP3    H132408   5.734   1.062   3.436  1.2482  0.7099 -0.8522
 3591TIP3    H232409   5.665   1.185   3.381 -0.0202  0.0608 -0.7654
 3592TIP3   OH232410   2.163   2.567   1.814  0.5310 -0.1812 -0.2640
 3592TIP3    H132411   2.186   2.578   1.906 -0.5466 -1.1076  0.1355
 3592TIP3    H232412   2.225   2.503   1.781 -0.2444 -1.2725  0.3286
 3593TIP3   OH232413   5.498   3.091   2.930  0.1337 -0.1351 -0.3443
 3593TIP3    H132414   5.539   3.173   2.954  1.2187 -0.3977 -1.1992
 3593TIP3    H232415   5.561   3.024   2.955 -0.3789 -0.6479 -0.3977
 3594TIP3   OH232416   3.070   3.103   3.034 -0.3996  0.5035  0.1909
 3594TIP3    H132417   3.147   3.112   3.090  0.6766  2.0492 -1.4401
 3594TIP3    H232418   3.049   3.009   3.037  1.2644  0.1204  1.0199
 3595TIP3   OH232419   4.562   1.542   0.182  0.4447 -0.3301 -0.4330
 3595TIP3    H132420   4.556   1.551   0.087  1.7973  0.5335 -0.4570
 3595TIP3    H232421   4.532   1.627   0.216  2.1677  0.2191 -0.1991
 3596TIP3   OH232422   3.057   3.282   1.104  0.2893  0.0172  0.7777
 3596TIP3    H132423   3.090   3.372   1.098  0.2705  0.0186  0.6944
 3596TIP3    H232424   3.132   3.227   1.080  0.6641 -0.0435  2.0298
 3597TIP3   OH232425   3.864   6.276   0.595  0.1460  0.5811 -0.4291
 3597TIP3    H132426   3.939   6.225   0.624  0.7445  1.6079 -0.1147
 3597TIP3    H232427   3.891   6.367   0.607 -1.1760  0.9682 -0.2511
 3598TIP3   OH232428   1.578   2.012   3.313 -0.4330 -0.1403  0.5238
 3598TIP3    H132429   1.587   2.082   3.377  0.5780 -0.4374  0.7179
 3598TIP3    H232430   1.489   1.978   3.326  0.1064 -0.9015  2.4938
 3599TIP3   OH232431   0.437   2.930   2.605 -0.4326  0.3484 -0.7681
 3599TIP3    H132432   0.364   2.881   2.566 -1.6309  1.1023  0.4477
 3599TIP3    H232433   0.506   2.865   2.616 -1.4965 -0.7610 -0.4596
 3600TIP3   OH232434   1.710   3.390   1.196 -0.3183 -0.4467 -0.4023
 3600TIP3    H132435   1.696   3.476   1.236 -0.6133 -0.8868  0.4745
 3600TIP3    H232436   1.801   3.368   1.216 -0.9659 -1.4945  1.7740
 3601TIP3   OH232437   1.721   2.952   4.217 -0.2300  0.0340  0.0316
 3601TIP3    H132438   1.706   3.043   4.191  0.9910  0.3704  0.4133
 3601TIP3    H232439   1.811   2.934   4.188  0.2699 -0.3861  1.7478
 3602TIP3   OH232440   4.704   2.565   3.036  0.0523  0.8063  0.0033
 3602TIP3    H132441   4.628   2.518   3.070  0.9689  0.4130  1.6517
 3602TIP3    H232442   4.667   2.636   2.984 -1.5350  1.6355  2.0824
 3603TIP3   OH232443   4.152   1.059   0.180 -0.4258 -0.3234 -0.1708
 3603TIP3    H132444   4.168   1.120   0.108 -0.8776 -1.6420 -1.4241
 3603TIP3    H232445   4.213   1.087   0.248 -0.4600  1.3778 -0.7711
 3604TIP3   OH232446   1.642   3.305   2.457  0.5915  0.3550 -0.3672
 3604TIP3    H132447   1.627   3.242   2.527 -1.7906  0.8321 -0.3952
 3604TIP3    H232448   1.735   3.327   2.465  0.7046 -0.6305  1.7410
 3605TIP3   OH232449   3.294   1.079   2.166 -0.2092  0.1179  0.1913
 3605TIP3    H132450   3.365   1.044   2.113 -1.0405 -0.9491 -0.2701
 3605TIP3    H232451   3.234   1.120   2.103 -1.0487 -0.8922  0.2860
 3606TIP3   OH232452   5.840   2.595   2.994 -0.5235 -0.5004  0.5245
 3606TIP3    H132453   5.836   2.541   2.915 -1.3258 -0.4831  0.5484
 3606TIP3    H232454   5.932   2.623   2.999 -0.8580  1.3428 -1.6602
 3607TIP3   OH232455   0.651   5.161   3.227 -0.2890  0.2013  0.7459
 3607TIP3    H132456   0.558   5.167   3.247 -0.3791 -0.4944  0.5757
 3607TIP3    H232457   0.695   5.195   3.305 -0.5513 -4.1785  3.1177
 3608TIP3   OH232458   4.478   1.877   8.558  0.6514 -0.5723 -0.2262
 3608TIP3    H132459   4.521   1.798   8.526  1.8162  0.2608 -0.7904
 3608TIP3    H232460   4.406   1.891   8.498 -1.8368 -3.1101  1.8780
 3609TIP3   OH232461   4.585   4.995   1.288  0.1506 -0.0406  0.3361
 3609TIP3    H132462   4.583   4.976   1.194 -2.1823 -0.5938  0.4393
 3609TIP3    H232463   4.520   5.063   1.301  0.9593  0.5547  1.4742
 3610TIP3   OH232464   1.917   0.253   2.504 -0.8697 -0.0809  0.1104
 3610TIP3    H132465   1.992   0.273   2.449 -0.8110  1.2878  0.6614
 3610TIP3    H232466   1.868   0.188   2.454 -0.2623  0.3247 -1.0608
 3611TIP3   OH232467   4.873   2.941   3.667  0.0588  0.2683 -0.6809
 3611TIP3    H132468   4.926   2.943   3.748 -0.4083  1.1656 -0.3829
 3611TIP3    H232469   4.806   2.875   3.684 -0.0142  0.4257 -0.3556
 3612TIP3   OH232470   2.722   0.067   0.613  0.4483 -0.2613  0.5201
 3612TIP3    H132471   2.735  -0.012   0.664  1.3386 -0.4197  0.0685
 3612TIP3    H232472   2.651   0.113   0.657  1.9076  0.1607  2.5701
 3613TIP3   OH232473   3.590   5.906   2.372 -0.1455  0.2906  0.4501
 3613TIP3    H132474   3.604   5.811   2.382  2.3084  0.6098  0.5753
 3613TIP3    H232475   3.678   5.942   2.364 -1.0901  2.4692 -0.7686
 3614TIP3   OH232476   0.996   4.964   0.890 -0.2762 -0.1117  0.6442
 3614TIP3    H132477   0.944   5.044   0.886  1.4695  1.0239 -0.4093
 3614TIP3    H232478   0.941   4.902   0.939 -1.4992  1.8338  1.8595
 3615TIP3   OH232479   1.224   3.778   2.065 -0.4266 -0.1714 -0.2028
 3615TIP3    H132480   1.177   3.815   2.139 -1.4605  0.6024 -1.2088
 3615TIP3    H232481   1.182   3.693   2.050 -0.9807  0.1692 -0.6012
 3616TIP3   OH232482   2.692   1.784   3.779  0.1213 -0.5055  0.1638
 3616TIP3    H132483   2.784   1.806   3.771  0.1057 -0.4015  0.2671
 3616TIP3    H232484   2.646   1.867   3.769  0.2029  0.0503  3.4735
 3617TIP3   OH232485   4.824   2.033   7.702  0.0893 -0.2136 -0.5045
 3617TIP3    H132486   4.781   1.952   7.674 -1.7168  0.6198 -0.2292
 3617TIP3    H232487   4.918   2.012   7.697 -0.3162 -2.2801 -0.5561
 3618TIP3   OH232488   0.184   5.307   3.550  0.5321 -0.0531  0.2016
 3618TIP3    H132489   0.279   5.301   3.554  0.4911 -1.4851 -0.5053
 3618TIP3    H232490   0.167   5.396   3.518  1.7601 -0.8538 -2.9896
 3619TIP3   OH232491   3.728   4.125   0.442  0.0322  0.7397  0.3057
 3619TIP3    H132492   3.765   4.128   0.530 -1.8976  0.9896  1.1536
 3619TIP3    H232493   3.795   4.166   0.387  1.7048 -0.3307  1.4593
 3620TIP3   OH232494   5.379   0.967   0.762  0.0880  0.0418 -0.4134
 3620TIP3    H132495   5.352   0.961   0.671 -3.0567  1.4985  0.3068
 3620TIP3    H232496   5.333   0.895   0.806 -0.5229  0.9247  0.4286
 3621TIP3   OH232497   2.217   6.817   2.272 -0.1641 -0.1386  0.6537
 3621TIP3    H132498   2.274   6.754   2.317 -0.2893 -1.0540 -0.4357
 3621TIP3    H232499   2.270   6.848   2.198 -0.4882  0.2741  0.5910
 3622TIP3   OH232500   2.312   2.572   2.311  0.0176  0.2610 -0.2132
 3622TIP3    H132501   2.375   2.589   2.380 -0.7396  1.0658  0.2956
 3622TIP3    H232502   2.299   2.477   2.312  0.0823  0.2612  0.6799
 3623TIP3   OH232503   6.594   5.818   1.220 -0.1346  0.4929 -0.0986
 3623TIP3    H132504   6.622   5.885   1.157 -0.1382  0.2577 -0.3506
 3623TIP3    H232505   6.627   5.849   1.304  2.5766 -0.7104 -0.6317
 3624TIP3   OH232506   1.516   2.081   0.673  0.0379  0.4546 -0.0798
 3624TIP3    H132507   1.563   2.060   0.753 -0.1658  0.5762  0.0715
 3624TIP3    H232508   1.559   2.027   0.606 -1.1929 -1.3411  0.4917
 3625TIP3   OH232509   1.144   4.155   4.069  0.3159 -0.4374 -0.1003
 3625TIP3    H132510   1.141   4.251   4.062 -2.5371 -0.3556  0.8244
 3625TIP3    H232511   1.236   4.135   4.083  0.8954  2.2576  0.5699
 3626TIP3   OH232512   3.665   2.883   2.134 -0.0108 -0.1504  0.5491
 3626TIP3    H132513   3.727   2.944   2.175 -0.8101  1.5093 -0.5895
 3626TIP3    H232514   3.579   2.920   2.156 -0.5157 -0.9633 -0.0381
 3627TIP3   OH232515   0.384   0.266   0.320 -0.4387  0.4662  0.6869
 3627TIP3    H132516   0.427   0.288   0.238  2.0187  1.3829  2.1027
 3627TIP3    H232517   0.366   0.172   0.313  2.0854 -0.0388  0.0578
 3628TIP3   OH232518   0.232   4.473   0.512 -0.4966  0.6218 -0.1114
 3628TIP3    H132519   0.298   4.541   0.505  0.8024 -0.2317  2.5419
 3628TIP3    H232520   0.151   4.520   0.531  0.3902  1.4910  1.7587
 3629TIP3   OH232521   1.198   4.621   1.460  0.1171  0.4909  0.2354
 3629TIP3    H132522   1.134   4.587   1.398  0.2192 -0.8209  0.8201
 3629TIP3    H232523   1.214   4.549   1.521  1.5960  1.0377  0.5448
 3630TIP3   OH232524   1.153   6.567   4.332 -0.5684  0.0399  0.0523
 3630TIP3    H132525   1.106   6.541   4.412 -0.3342  0.2272  0.2539
 3630TIP3    H232526   1.085   6.603   4.275 -0.7873 -0.3890  0.0388
 3631TIP3   OH232527   0.045   3.532   2.380 -0.8294  0.6142  0.1543
 3631TIP3    H132528   0.117   3.494   2.431  0.7227 -0.2164 -2.4544
 3631TIP3    H232529  -0.024   3.465   2.382 -0.4690  0.2460  0.4651
 3632TIP3   OH232530   2.650   0.557   3.322  0.4645 -0.4337  0.2726
 3632TIP3    H132531   2.639   0.480   3.379 -3.9446 -0.1812  0.1057
 3632TIP3    H232532   2.677   0.627   3.382  0.4418 -1.1824  1.1883
 3633TIP3   OH232533   1.892   6.437   2.789  0.1101 -0.2139  0.1427
 3633TIP3    H132534   1.923   6.410   2.703 -2.7931 -0.4422 -0.9278
 3633TIP3    H232535   1.796   6.433   2.783 -0.5125  4.8047  1.6277
 3634TIP3   OH232536   2.838   4.267   0.059  0.1347 -0.0973  0.4025
 3634TIP3    H132537   2.843   4.293   0.150 -0.9341 -0.2981  0.5271
 3634TIP3    H232538   2.921   4.297   0.021  0.0268  1.1775  1.1161
 3635TIP3   OH232539   1.265   1.602   3.586  0.0338 -0.0509  0.1088
 3635TIP3    H132540   1.355   1.571   3.592 -0.2701 -0.8095  0.9126
 3635TIP3    H232541   1.238   1.617   3.677 -0.2993  1.2330 -0.1781
 3636TIP3   OH232542   5.233   2.068   1.244  0.5992  0.4520  0.4424
 3636TIP3    H132543   5.190   2.002   1.297  1.8525 -0.3213  0.5209
 3636TIP3    H232544   5.164   2.132   1.226 -0.5103 -0.6049  0.7823
 3637TIP3   OH232545   6.089   3.317   0.304 -0.1659 -0.7877  0.0017
 3637TIP3    H132546   6.030   3.392   0.301 -1.2798 -1.6447 -0.0491
 3637TIP3    H232547   6.062   3.267   0.381 -0.3602 -1.8640 -0.7443
 3638TIP3   OH232548   5.923   5.360   1.202 -0.6808  0.2627 -0.3697
 3638TIP3    H132549   5.891   5.439   1.245  1.5327  1.7289 -1.2267
 3638TIP3    H232550   5.964   5.392   1.122 -0.4236 -1.8637 -1.1359
 3639TIP3   OH232551   5.758   6.631   2.449  0.4325 -0.2170 -0.7097
 3639TIP3    H132552   5.733   6.722   2.430 -1.7246 -0.4261  0.6942
 3639TIP3    H232553   5.768   6.629   2.544 -2.2747 -1.9702 -0.3513
 3640TIP3   OH232554   6.386   6.016   4.068 -0.3082 -0.2872  0.1557
 3640TIP3    H132555   6.448   6.058   4.127 -0.8859  0.5199  0.2140
 3640TIP3    H232556   6.308   6.002   4.122 -0.4578 -0.5595 -0.1271
 3641TIP3   OH232557   0.295   5.883   0.854  0.0542 -0.2110  0.1713
 3641TIP3    H132558   0.325   5.897   0.764 -1.2469  1.1753 -0.0993
 3641TIP3    H232559   0.244   5.962   0.874  0.0608 -0.6434  2.0162
 3642TIP3   OH232560   5.162   0.994   8.579  0.3359 -0.6669 -0.8666
 3642TIP3    H132561   5.159   0.964   8.488  0.7806 -0.8161 -0.8335
 3642TIP3    H232562   5.232   1.059   8.581  1.8848 -2.2720 -0.1719
 3643TIP3   OH232563   5.943   0.728   2.337  0.0098 -0.2101 -0.5396
 3643TIP3    H132564   6.020   0.683   2.373  0.6542  0.3134 -1.2285
 3643TIP3    H232565   5.968   0.820   2.335  0.6464 -0.3298 -3.7321
 3644TIP3   OH232566   6.791   4.283   8.338 -0.6559  0.3992  0.0381
 3644TIP3    H132567   6.750   4.292   8.424 -1.7902 -0.8229 -0.3271
 3644TIP3    H232568   6.751   4.353   8.285  0.0546  1.1615  0.4920
 3645TIP3   OH232569   2.505   1.163   3.079 -0.0168 -0.5546 -0.3932
 3645TIP3    H132570   2.440   1.151   3.149  0.7842  0.6359  0.5759
 3645TIP3    H232571   2.492   1.253   3.050  1.0200 -0.3844 -0.3611
 3646TIP3   OH232572   1.881   2.144   1.620  0.0542 -0.2613  0.6983
 3646TIP3    H132573   1.926   2.215   1.574 -0.9427  0.2476  0.4815
 3646TIP3    H232574   1.921   2.064   1.586  1.0575  0.1821  0.8015
 3647TIP3   OH232575   4.300   3.798   0.121 -0.5472  0.4136 -0.4852
 3647TIP3    H132576   4.339   3.884   0.105  1.2524 -0.9358 -4.8718
 3647TIP3    H232577   4.220   3.798   0.069 -0.3409 -0.6276 -0.8189
 3648TIP3   OH232578   0.744   5.304   3.794  0.0859 -0.0986  0.3197
 3648TIP3    H132579   0.790   5.221   3.788  1.3820  0.5690  0.6697
 3648TIP3    H232580   0.774   5.354   3.717 -0.2588  0.2508  0.4066
 3649TIP3   OH232581   0.123   0.400   1.758  0.7615  0.3340  0.4227
 3649TIP3    H132582   0.173   0.319   1.746  0.8241 -0.1370  3.1723
 3649TIP3    H232583   0.189   0.469   1.753  1.0071  0.0694 -0.1019
 3650TIP3   OH232584   5.540   5.368   8.351  0.1194  0.0754 -0.1211
 3650TIP3    H132585   5.544   5.338   8.442  2.4077  3.1358  0.9592
 3650TIP3    H232586   5.491   5.451   8.356 -2.0969 -1.0166 -2.1910
 3651TIP3   OH232587   4.747   3.641   3.280 -0.6453  0.2336 -0.3214
 3651TIP3    H132588   4.706   3.697   3.214 -0.6868  1.7310  0.9193
 3651TIP3    H232589   4.728   3.685   3.363  1.1313 -0.5100  0.5155
 3652TIP3   OH232590   0.139   2.616   2.141 -0.0108  0.6351  0.6397
 3652TIP3    H132591   0.220   2.645   2.098  0.3018  1.3387  1.6723
 3652TIP3    H232592   0.162   2.532   2.182 -0.1043  0.3273  0.0761
 3653TIP3   OH232593   3.758   0.391   2.055 -0.1807 -0.1523  0.5020
 3653TIP3    H132594   3.763   0.423   2.145 -0.7064  0.5024  0.3076
 3653TIP3    H232595   3.692   0.447   2.013  0.8969  0.3383 -0.6110
 3654TIP3   OH232596   3.502   0.201   2.706  0.0822  0.0659 -0.2585
 3654TIP3    H132597   3.461   0.130   2.656 -2.2235 -0.0422  1.5888
 3654TIP3    H232598   3.431   0.264   2.719  0.0923 -0.5180  3.8907
 3655TIP3   OH232599   5.770   1.781   3.215 -0.0233 -0.3893 -0.3758
 3655TIP3    H132600   5.778   1.805   3.307  0.2249 -2.8036  0.2977
 3655TIP3    H232601   5.849   1.817   3.174 -0.0180  0.4940  0.3829
 3656TIP3   OH232602   0.802   6.050   1.540  0.5720 -0.3655  0.6376
 3656TIP3    H132603   0.797   5.958   1.563 -0.7105 -0.3978  0.3248
 3656TIP3    H232604   0.835   6.093   1.619  0.3671 -0.9963  1.0748
 3657TIP3   OH232605   2.956   1.812   3.547  0.3413 -0.2100  0.2597
 3657TIP3    H132606   2.917   1.878   3.489 -0.5690  1.0616  2.2303
 3657TIP3    H232607   3.021   1.861   3.598  0.1019 -0.9857  1.3247
 3658TIP3   OH232608   6.175   5.562   1.993 -0.4034 -0.0337 -0.4971
 3658TIP3    H132609   6.094   5.583   2.042  0.2347  1.1724  0.0980
 3658TIP3    H232610   6.146   5.504   1.923 -1.3225 -2.0937  1.4723
 3659TIP3   OH232611   4.612   4.237   2.032  0.0594  0.5827 -0.8150
 3659TIP3    H132612   4.616   4.223   2.127 -0.5110  0.6833 -0.7740
 3659TIP3    H232613   4.578   4.155   1.997  2.3011 -0.2671 -1.1617
 3660TIP3   OH232614   4.003   6.624   1.717  0.3807 -0.0425 -0.3298
 3660TIP3    H132615   4.042   6.582   1.794  0.0520  0.6874  0.2424
 3660TIP3    H232616   3.927   6.670   1.751  1.3002  1.8801 -0.7586
 3661TIP3   OH232617   2.131   1.671   1.970  0.2764 -0.1156  0.1445
 3661TIP3    H132618   2.117   1.764   1.952 -1.0133 -0.0791  1.1348
 3661TIP3    H232619   2.196   1.643   1.905  3.6245  2.2951  2.1325
 3662TIP3   OH232620   0.562   5.823   1.588 -0.0406 -0.2813  0.1033
 3662TIP3    H132621   0.637   5.799   1.534 -1.3407 -0.8208 -1.5432
 3662TIP3    H232622   0.501   5.751   1.577 -1.1552  0.5458  0.7126
 3663TIP3   OH232623   1.172   6.927   1.266  0.7536  0.1367 -0.3201
 3663TIP3    H132624   1.212   6.929   1.179 -1.6582  1.4345 -1.4921
 3663TIP3    H232625   1.090   6.880   1.254  1.3909 -1.7129  1.8267
 3664TIP3   OH232626   5.978   2.769   1.835 -0.3964 -0.5468  0.4506
 3664TIP3    H132627   5.958   2.863   1.830  1.5810 -0.1554 -2.1988
 3664TIP3    H232628   6.031   2.761   1.915 -0.6015  0.5884  0.7260
 3665TIP3   OH232629   3.678   0.808   1.580  0.0278 -0.4358 -0.5751
 3665TIP3    H132630   3.722   0.791   1.664 -1.0943  1.7435  0.5476
 3665TIP3    H232631   3.593   0.765   1.589 -0.7556  1.1521  0.1659
 3666TIP3   OH232632   5.184   2.974   0.622  0.2911  0.7304 -0.2347
 3666TIP3    H132633   5.202   3.037   0.692  0.4591  1.8234 -1.2294
 3666TIP3    H232634   5.090   2.960   0.625  0.5363 -0.9108  1.5759
 3667TIP3   OH232635   3.058   5.813   3.780  0.0582 -0.4545  0.0566
 3667TIP3    H132636   3.116   5.864   3.837  0.1559 -1.3081  0.7364
 3667TIP3    H232637   2.972   5.853   3.793  0.1698 -0.3225  0.4196
 3668TIP3   OH232638   1.538   4.479   1.566 -0.1170 -0.4523 -0.0786
 3668TIP3    H132639   1.614   4.465   1.509  1.7204  0.4951  1.9875
 3668TIP3    H232640   1.516   4.571   1.555 -3.4579 -1.3795 -3.3729
 3669TIP3   OH232641   5.509   3.380   8.499 -0.0608 -0.1724  0.9668
 3669TIP3    H132642   5.551   3.466   8.492  0.2259 -0.3649  0.0892
 3669TIP3    H232643   5.483   3.360   8.409  0.4421 -1.2764  1.0564
 3670TIP3   OH232644   3.269   1.917   3.155 -0.0685 -0.0334  0.1030
 3670TIP3    H132645   3.360   1.931   3.180 -0.1574 -0.0251  0.4364
 3670TIP3    H232646   3.273   1.874   3.069  0.2536 -0.1833  0.1923
 3671TIP3   OH232647   6.310   2.960   1.344  0.4713 -0.2366 -0.7005
 3671TIP3    H132648   6.250   2.982   1.415  1.8335  2.8126 -0.3368
 3671TIP3    H232649   6.255   2.919   1.277 -1.3621 -0.5280  0.9151
 3672TIP3   OH232650   2.417   6.173   1.033 -0.1544 -0.2073  0.3517
 3672TIP3    H132651   2.363   6.097   1.012  0.2993 -0.8795  1.5465
 3672TIP3    H232652   2.489   6.169   0.970 -0.0550 -0.8476  0.5069
 3673TIP3   OH232653   2.837   6.893   1.227 -0.0952 -0.3011 -0.2688
 3673TIP3    H132654   2.878   6.906   1.313 -1.1051  0.6965  0.0812
 3673TIP3    H232655   2.906   6.853   1.174  0.9659  0.2659  0.6303
 3674TIP3   OH232656   2.883   1.018   0.140 -0.0712 -0.6476  0.4334
 3674TIP3    H132657   2.954   1.024   0.205  1.5735 -2.2930 -1.0731
 3674TIP3    H232658   2.804   1.008   0.192  1.2862 -3.0276  2.2731
 3675TIP3   OH232659   3.520   5.049   1.158  0.3142 -0.4201  0.0084
 3675TIP3    H132660   3.456   5.033   1.088 -0.0905 -0.7904  0.4452
 3675TIP3    H232661   3.575   4.970   1.159  0.0251 -0.6245  0.4004
 3676TIP3   OH232662   3.532   6.439   2.994  0.3904 -0.4020  0.0902
 3676TIP3    H132663   3.466   6.389   3.042 -0.8054  0.6695 -0.3871
 3676TIP3    H232664   3.592   6.471   3.062 -0.2432 -0.4058  0.6584
 3677TIP3   OH232665   6.050   6.939   7.883 -0.7419 -0.1253 -0.2010
 3677TIP3    H132666   5.992   6.995   7.832  0.7571  1.8570  0.1414
 3677TIP3    H232667   6.084   6.996   7.952  0.8120 -1.4777  0.2170
 3678TIP3   OH232668   3.768   3.875   2.512 -0.6483  0.2758 -0.1089
 3678TIP3    H132669   3.839   3.932   2.541  0.6437 -1.7996  1.0858
 3678TIP3    H232670   3.783   3.865   2.418  0.8312 -0.3051  0.1587
 3679TIP3   OH232671   5.468   2.101   1.038 -0.4648  0.5243 -0.1341
 3679TIP3    H132672   5.446   2.051   0.960 -0.0351 -0.9420  0.6425
 3679TIP3    H232673   5.390   2.093   1.094 -0.5069  0.9935 -0.1154
 3680TIP3   OH232674   4.830   2.828   0.987 -0.1019  0.5932 -0.1579
 3680TIP3    H132675   4.818   2.914   1.027 -1.1349  0.1231  0.6075
 3680TIP3    H232676   4.845   2.769   1.062  1.0111  0.1609 -0.6941
 3681TIP3   OH232677   0.693   4.591   0.092  0.3587  0.2571  0.4482
 3681TIP3    H132678   0.715   4.638   0.172 -1.4564  0.0275  1.1162
 3681TIP3    H232679   0.628   4.646   0.049  0.4140 -0.2193 -0.2600
 3682TIP3   OH232680   0.687   5.856   2.547  0.1852  0.3542 -0.2178
 3682TIP3    H132681   0.669   5.785   2.485 -0.9386  0.9366 -0.5759
 3682TIP3    H232682   0.782   5.865   2.546  0.3378 -1.0492 -0.2673
 3683TIP3   OH232683   5.563   2.662   8.516  0.0696  0.0400 -0.4805
 3683TIP3    H132684   5.496   2.596   8.536 -0.1932  0.6621  0.7995
 3683TIP3    H232685   5.644   2.612   8.505 -0.5738 -0.7317 -2.0831
 3684TIP3   OH232686   1.685   6.183   2.997 -0.3054 -0.8262 -0.3857
 3684TIP3    H132687   1.613   6.170   3.059  0.3921  0.1636  0.6769
 3684TIP3    H232688   1.656   6.139   2.917 -1.4633 -1.6771  0.4694
 3685TIP3   OH232689   0.417   1.438   8.274 -0.2641  0.0252 -0.6694
 3685TIP3    H132690   0.368   1.514   8.241 -1.0661 -0.1787 -0.0033
 3685TIP3    H232691   0.419   1.377   8.200  0.3190  0.6532 -1.1865
 3686TIP3   OH232692   5.386   2.113   7.571  0.0125 -0.1222 -0.3715
 3686TIP3    H132693   5.425   2.155   7.495 -0.0749 -0.4709 -0.6134
 3686TIP3    H232694   5.292   2.133   7.564  0.1850  1.0291  0.4109
 3687TIP3   OH232695   4.588   3.408   2.027  0.1388  0.3780  0.3055
 3687TIP3    H132696   4.608   3.345   1.957  0.2962  0.8992 -0.1257
 3687TIP3    H232697   4.656   3.475   2.018  1.3851 -0.5358  2.2200
 3688TIP3   OH232698   0.114   5.288   0.638  0.0105  0.0586  0.1657
 3688TIP3    H132699   0.021   5.274   0.652  0.0691 -2.1646 -1.1438
 3688TIP3    H232700   0.123   5.305   0.544  1.0573 -2.0781 -0.1927
 3689TIP3   OH232701   6.800   4.429   4.298 -0.4341  0.4236  0.1745
 3689TIP3    H132702   6.721   4.390   4.262 -0.8305  0.9926  0.4194
 3689TIP3    H232703   6.861   4.432   4.224 -0.3102 -0.8344  0.1903
 3690TIP3   OH232704   2.869   3.283   8.566 -0.0963  0.1133  0.5425
 3690TIP3    H132705   2.835   3.268   8.654 -1.3398  2.8849  0.6080
 3690TIP3    H232706   2.817   3.355   8.531  2.5868  1.3546 -1.2114
 3691TIP3   OH232707   6.720   6.524   0.272  0.2591 -1.1321 -0.5694
 3691TIP3    H132708   6.681   6.611   0.277  2.4514 -0.1748  2.5139
 3691TIP3    H232709   6.777   6.528   0.195  0.8669  0.4607 -0.0845
 3692TIP3   OH232710   5.348   3.318   1.077  0.0971  0.2912  1.1005
 3692TIP3    H132711   5.359   3.360   1.163  0.0049  1.8266  0.3895
 3692TIP3    H232712   5.254   3.317   1.063  0.1457  0.6674  0.7290
 3693TIP3   OH232713   0.370   1.082   1.457 -0.5599 -0.2867 -0.3642
 3693TIP3    H132714   0.325   1.122   1.532 -0.5347  0.7451 -0.8765
 3693TIP3    H232715   0.447   1.138   1.443 -1.2349  0.3254 -1.9400
 3694TIP3   OH232716   2.793   4.780   1.476 -0.7569  0.2723 -0.0459
 3694TIP3    H132717   2.869   4.833   1.500 -0.7129  0.3958 -0.4424
 3694TIP3    H232718   2.829   4.706   1.427 -0.9997  1.2619 -1.8272
 3695TIP3   OH232719   5.367   3.665   0.547  0.0193 -0.4482 -0.3585
 3695TIP3    H132720   5.357   3.742   0.602  0.3522  1.0385 -2.2757
 3695TIP3    H232721   5.450   3.679   0.501  0.2659 -2.1338 -0.4890
 3696TIP3   OH232722   6.363   0.404   3.341  0.0131 -0.4007 -0.5214
 3696TIP3    H132723   6.334   0.388   3.431  1.4357  1.0794  0.2548
 3696TIP3    H232724   6.452   0.368   3.338  1.2892  2.5002 -0.2566
 3697TIP3   OH232725   1.791   5.345   1.613  0.1121 -0.1267 -0.1407
 3697TIP3    H132726   1.823   5.255   1.605 -0.7010 -0.5088  0.7366
 3697TIP3    H232727   1.751   5.363   1.528  0.8970 -0.3302 -0.5710
 3698TIP3   OH232728   5.702   1.965   0.411  0.6412 -0.0744  0.7993
 3698TIP3    H132729   5.714   1.870   0.410  1.1226 -0.0309 -0.8185
 3698TIP3    H232730   5.703   1.990   0.318 -1.6011  1.2657  1.0797
 3699TIP3   OH232731   6.854   2.972   3.821  0.0110  0.3210 -1.1128
 3699TIP3    H132732   6.764   2.946   3.842  0.0107  0.4105 -1.0062
 3699TIP3    H232733   6.861   2.959   3.726  0.4096 -1.3196 -0.8865
 3700TIP3   OH232734   0.087   2.008   2.911 -0.0855  0.1171  0.8800
 3700TIP3    H132735   0.080   1.939   2.845 -1.1557 -0.2783  1.3920
 3700TIP3    H232736   0.074   1.963   2.994 -0.5541  0.9040  1.2428
 3701TIP3   OH232737   3.837   3.902   0.216  0.2561 -0.7405  0.1850
 3701TIP3    H132738   3.891   3.840   0.265  1.3443  1.6262  2.2096
 3701TIP3    H232739   3.747   3.877   0.238  0.6138 -2.1217  0.2101
 3702TIP3   OH232740   1.287   5.848   0.676  0.2746 -0.0418 -0.5828
 3702TIP3    H132741   1.347   5.910   0.634  0.6065  0.0064 -0.0403
 3702TIP3    H232742   1.330   5.824   0.758  0.3318 -1.2772 -0.9494
 3703TIP3   OH232743   4.787   1.832   0.932  0.3196 -0.2086  0.0320
 3703TIP3    H132744   4.836   1.913   0.920  0.4658 -0.0648  1.5185
 3703TIP3    H232745   4.772   1.826   1.026 -2.1778 -0.4418 -0.2947
 3704TIP3   OH232746   0.420   6.680   0.252 -0.2190  0.3696  0.1456
 3704TIP3    H132747   0.493   6.656   0.194  0.3066 -0.2137  1.0211
 3704TIP3    H232748   0.349   6.621   0.226  0.1007 -0.0770  0.2689
 3705TIP3   OH232749   6.663   2.163   0.483 -0.1990  0.0891 -0.3262
 3705TIP3    H132750   6.574   2.140   0.455 -0.4568 -0.2246  0.7160
 3705TIP3    H232751   6.719   2.126   0.414 -0.8021 -0.8758 -0.3300
 3706TIP3   OH232752   0.998   2.046   0.486 -0.0637  0.0288  0.5680
 3706TIP3    H132753   1.088   2.072   0.505  0.6843 -3.1107  1.9315
 3706TIP3    H232754   0.975   2.096   0.407  2.2244  2.1714  1.1218
 3707TIP3   OH232755   4.969   6.929   3.584  0.1054  0.1573  0.2573
 3707TIP3    H132756   5.049   6.982   3.590 -0.3619  1.5123 -3.3230
 3707TIP3    H232757   4.909   6.970   3.647 -0.3023  4.2630 -2.4416
 3708TIP3   OH232758   5.180   5.654   2.264 -0.0372 -0.2088 -0.5907
 3708TIP3    H132759   5.159   5.603   2.185  0.2228 -0.6547 -0.3773
 3708TIP3    H232760   5.276   5.652   2.269 -0.0759 -0.6764  0.0544
 3709TIP3   OH232761   5.458   1.197   0.896  0.2004 -0.5424  0.8358
 3709TIP3    H132762   5.542   1.178   0.937  0.2414 -1.5375  0.3197
 3709TIP3    H232763   5.434   1.116   0.852 -0.9669 -0.2285  0.8593
 3710TIP3   OH232764   6.911   6.198   1.822 -0.4673 -0.0657 -0.0708
 3710TIP3    H132765   6.972   6.218   1.751 -1.1397 -0.1446 -0.6878
 3710TIP3    H232766   6.939   6.114   1.856  0.1097  0.1658  0.0244
 3711TIP3   OH232767   3.529   1.964   3.274 -0.8789 -0.5280 -0.1452
 3711TIP3    H132768   3.552   2.056   3.267 -0.3695 -0.7169 -1.0488
 3711TIP3    H232769   3.563   1.937   3.360 -1.1947  0.1578  0.2056
 3712TIP3   OH232770   6.706   6.936   2.425 -0.1550 -0.1649 -0.1679
 3712TIP3    H132771   6.671   7.016   2.385 -0.6137 -0.1849  0.1891
 3712TIP3    H232772   6.796   6.930   2.392 -0.6330 -0.3675 -1.4748
 3713TIP3   OH232773   3.966   1.950   0.999  0.1990 -0.3320  0.0973
 3713TIP3    H132774   3.953   2.044   0.994  1.3844 -0.2167 -1.4520
 3713TIP3    H232775   4.061   1.938   1.002  0.0827 -1.4878 -0.2400
 3714TIP3   OH232776   0.101   4.184   0.203 -0.0197  0.5314 -0.2778
 3714TIP3    H132777   0.049   4.163   0.126 -1.3632  4.7707 -0.8083
 3714TIP3    H232778   0.038   4.222   0.265  1.7570  1.9378  0.7799
 3715TIP3   OH232779   2.547   0.265   0.805  0.0933  0.1396  0.1159
 3715TIP3    H132780   2.479   0.226   0.859  0.8233 -0.1714  0.8359
 3715TIP3    H232781   2.615   0.293   0.867  1.8834 -2.0269 -0.7080
 3716TIP3   OH232782   3.619   0.469   2.888  0.2452  0.1326 -0.2350
 3716TIP3    H132783   3.709   0.497   2.870  0.0926  1.2651  0.6445
 3716TIP3    H232784   3.628   0.388   2.937  0.7910  0.1709 -0.2661
 3717TIP3   OH232785   3.092   4.914   1.029  0.3257  0.2467 -0.4364
 3717TIP3    H132786   3.029   4.922   0.958 -0.9561  0.2699  0.6591
 3717TIP3    H232787   3.124   4.824   1.024  1.5012  0.7188 -2.0278
 3718TIP3   OH232788   1.906   1.258   0.087 -0.3334  0.5066  0.6018
 3718TIP3    H132789   1.814   1.231   0.100 -0.3500 -0.1365 -0.6869
 3718TIP3    H232790   1.912   1.276  -0.006  1.3386 -1.4383  0.2740
 3719TIP3   OH232791   2.198   3.359   1.084 -0.2438 -0.1542 -0.4314
 3719TIP3    H132792   2.163   3.318   1.005 -0.0008 -0.9027 -0.1645
 3719TIP3    H232793   2.260   3.294   1.119  1.8239  1.3098 -1.1805
 3720TIP3   OH232794   2.259   2.098   1.200  0.1939  0.0695 -0.0682
 3720TIP3    H132795   2.265   2.113   1.295 -0.4910  0.9782 -0.1545
 3720TIP3    H232796   2.172   2.063   1.187  0.0160  0.6281 -0.4336
 3721TIP3   OH232797   2.355   3.357   1.932  0.2040  0.0380 -0.3891
 3721TIP3    H132798   2.425   3.393   1.987 -1.4931  0.3556  1.6472
 3721TIP3    H232799   2.281   3.416   1.946 -0.7872 -0.8328 -1.7619
 3722TIP3   OH232800   6.458   3.242   1.117  0.1221  0.4564  0.1726
 3722TIP3    H132801   6.505   3.201   1.190 -0.8702 -0.1867  0.4770
 3722TIP3    H232802   6.371   3.202   1.119 -0.3281  1.3489 -0.6002
 3723TIP3   OH232803   0.205   6.119   3.789 -0.2710 -0.2086 -0.0079
 3723TIP3    H132804   0.277   6.149   3.734  0.0816  0.1813  0.6581
 3723TIP3    H232805   0.142   6.192   3.786 -0.3574 -0.2855 -0.0774
 3724TIP3   OH232806   6.781   2.545   7.895 -0.9754  0.5338  0.4908
 3724TIP3    H132807   6.837   2.617   7.924 -1.1074  0.2801  1.3966
 3724TIP3    H232808   6.778   2.485   7.970 -0.7484 -0.4879 -0.2948
 3725TIP3   OH232809   4.250   0.140   1.487 -0.6964 -0.1220  0.1269
 3725TIP3    H132810   4.213   0.188   1.561 -0.6774  1.3839 -0.7982
 3725TIP3    H232811   4.202   0.058   1.486 -0.5616 -0.2761  1.9129
 3726TIP3   OH232812   2.468   2.748   1.925  0.0753 -0.3518 -0.4153
 3726TIP3    H132813   2.424   2.675   1.970  0.3574 -0.6131 -0.5616
 3726TIP3    H232814   2.401   2.816   1.919 -0.4588 -0.9087 -1.0294
 3727TIP3   OH232815   3.904   3.536   7.744  0.0832 -0.3932 -0.0023
 3727TIP3    H132816   3.935   3.622   7.772 -0.2073 -0.2166 -0.2152
 3727TIP3    H232817   3.822   3.523   7.791  0.7504 -1.1119  1.0027
 3728TIP3   OH232818   4.976   2.524   0.451  0.1366  0.1466  0.1559
 3728TIP3    H132819   4.963   2.478   0.368  1.7429 -1.6313  0.8022
 3728TIP3    H232820   4.897   2.506   0.502  0.1187 -0.6991 -0.1580
 3729TIP3   OH232821   0.641   0.400   2.737  0.5587  0.7079 -0.5724
 3729TIP3    H132822   0.692   0.331   2.780  1.1811  1.2636 -0.4051
 3729TIP3    H232823   0.653   0.477   2.793 -0.3527  0.8842 -0.6085
 3730TIP3   OH232824   3.099   0.940   1.496  0.0244  0.5508  0.1311
 3730TIP3    H132825   3.151   0.920   1.573 -1.4002 -1.1314  0.7320
 3730TIP3    H232826   3.103   0.860   1.443 -2.2005  0.1747  0.4083
 3731TIP3   OH232827   0.153   3.854   0.137 -0.2975 -0.0820 -0.0907
 3731TIP3    H132828   0.168   3.779   0.079 -2.2979 -1.2206  0.7704
 3731TIP3    H232829   0.107   3.917   0.082 -0.6125 -0.4149 -0.2087
 3732TIP3   OH232830   2.611   6.940   1.521  0.2373  0.7277  0.1050
 3732TIP3    H132831   2.599   6.970   1.431 -1.5572 -0.0924  0.0210
 3732TIP3    H232832   2.573   7.009   1.575 -1.2004 -0.0004  0.0631
 3733TIP3   OH232833   2.145   4.681   1.168 -0.4884  0.9767 -0.4209
 3733TIP3    H132834   2.066   4.658   1.217 -1.1258  1.0351 -1.3815
 3733TIP3    H232835   2.179   4.597   1.137 -0.6892  1.0278 -0.7769
 3734TIP3   OH232836   3.205   4.273   1.282  0.1596 -0.0133  0.6751
 3734TIP3    H132837   3.178   4.291   1.192 -0.0996  0.5534  0.8586
 3734TIP3    H232838   3.257   4.193   1.276  0.6466  0.3451 -0.0643
 3735TIP3   OH232839   4.422   0.048   2.762 -0.6067  0.0474 -0.0626
 3735TIP3    H132840   4.452  -0.020   2.822  1.5417  0.3266 -0.7461
 3735TIP3    H232841   4.407   0.003   2.679  1.5052  0.4327 -0.7179
 3736TIP3   OH232842   5.384   3.509   1.276  0.0214  0.1401 -0.2401
 3736TIP3    H132843   5.465   3.548   1.243  0.0687 -0.5887 -1.0266
 3736TIP3    H232844   5.348   3.575   1.335  0.2439  1.2513 -1.3031
 3737TIP3   OH232845   5.534   3.894   2.704  0.1868 -0.0664  0.0796
 3737TIP3    H132846   5.595   3.932   2.640 -0.6790 -0.6764 -1.1480
 3737TIP3    H232847   5.515   3.966   2.764  0.8554  0.5946 -0.4816
 3738TIP3   OH232848   6.754   3.593   4.465 -0.0780 -0.0714  0.3924
 3738TIP3    H132849   6.748   3.521   4.402 -2.4947  1.2431 -0.9956
 3738TIP3    H232850   6.822   3.650   4.429 -1.7466  0.9071 -1.4232
 3739TIP3   OH232851   5.279   4.089   1.712 -0.1359  0.2635 -0.5836
 3739TIP3    H132852   5.308   4.068   1.624 -1.7906  1.1019 -1.3840
 3739TIP3    H232853   5.247   4.006   1.748  1.2359 -0.2328 -0.4529
 3740TIP3   OH232854   1.268   4.257   3.100 -0.0827 -0.2674  0.0194
 3740TIP3    H132855   1.212   4.306   3.041  1.1098  0.5497 -0.4741
 3740TIP3    H232856   1.357   4.288   3.080  0.2837  1.0628  3.1556
 3741TIP3   OH232857   1.213   0.785   0.187  0.0592  0.4072  0.8391
 3741TIP3    H132858   1.233   0.692   0.201  0.0859  0.3283  0.3049
 3741TIP3    H232859   1.161   0.786   0.107  0.4193  0.8888  0.6066
 3742TIP3   OH232860   2.807   4.453   0.864  0.3771  0.6665 -0.9330
 3742TIP3    H132861   2.866   4.377   0.858 -0.1517  0.0260  1.0551
 3742TIP3    H232862   2.832   4.496   0.945 -2.2316  0.0045  0.3537
 3743TIP3   OH232863   4.576   4.344   2.727  0.1090 -0.0074  0.2130
 3743TIP3    H132864   4.640   4.374   2.662  0.3991  1.0082  0.9327
 3743TIP3    H232865   4.533   4.424   2.756  0.4165 -0.3625  1.7069
 3744TIP3   OH232866   2.202   4.823   0.456 -0.3204  0.0833 -0.3111
 3744TIP3    H132867   2.219   4.753   0.393 -1.6859 -0.1741 -0.4216
 3744TIP3    H232868   2.282   4.875   0.456  0.7287 -1.4528 -0.2439
 3745TIP3   OH232869   3.939   2.608   0.101  0.1136  0.0226  0.0831
 3745TIP3    H132870   3.960   2.534   0.159  0.4361  0.1139  0.0885
 3745TIP3    H232871   3.857   2.644   0.136  0.3768  0.1624  0.5740
 3746TIP3   OH232872   2.297   2.096   0.199 -0.0882 -0.5763  0.0951
 3746TIP3    H132873   2.341   2.145   0.130  0.0404  0.7214  1.0679
 3746TIP3    H232874   2.205   2.119   0.191  0.2283  1.7424  1.9621
 3747TIP3   OH232875   5.980   3.719   2.397  0.1018  0.1915 -0.4644
 3747TIP3    H132876   6.072   3.717   2.421 -0.0237  1.0086  0.1136
 3747TIP3    H232877   5.935   3.675   2.470 -0.0334  0.4340 -0.4005
 3748TIP3   OH232878   2.323   2.185   0.824  0.3566  0.3948  0.2746
 3748TIP3    H132879   2.273   2.258   0.860 -0.0723  0.1797  0.1192
 3748TIP3    H232880   2.277   2.107   0.855  0.6618  0.1897  0.2215
 3749TIP3   OH232881   1.400   1.333   2.963  0.1704 -0.1766  0.1362
 3749TIP3    H132882   1.343   1.257   2.950 -1.4663  0.8899  0.7604
 3749TIP3    H232883   1.392   1.384   2.883 -1.7031  1.1534  1.0803
 3750TIP3   OH232884   1.813   1.401   2.079  0.0126 -0.0602 -0.0883
 3750TIP3    H132885   1.775   1.331   2.026  0.3354 -0.8740  0.7355
 3750TIP3    H232886   1.872   1.356   2.140  3.2312  1.2217 -2.0208
 3751TIP3   OH232887   2.754   3.087   0.503  0.4510 -0.6085  0.0184
 3751TIP3    H132888   2.749   3.181   0.522 -0.5643 -0.6243 -0.1275
 3751TIP3    H232889   2.663   3.059   0.496  0.7588 -1.3546 -1.2415
 3752TIP3   OH232890   6.001   6.502   8.347  0.3384 -0.0616 -0.1982
 3752TIP3    H132891   6.066   6.485   8.279  0.0073  1.7937 -1.0303
 3752TIP3    H232892   5.974   6.415   8.376 -0.1056 -0.9674 -3.0151
 3753TIP3   OH232893   0.932   5.477   0.696  0.3631  0.5411 -0.7991
 3753TIP3    H132894   0.875   5.503   0.768 -0.6343 -0.3841 -1.2151
 3753TIP3    H232895   1.020   5.498   0.726 -0.1773  1.9178 -0.0958
 3754TIP3   OH232896   3.402   3.039   1.253  0.0902  0.0567  0.5180
 3754TIP3    H132897   3.498   3.033   1.247 -0.0467 -1.1125 -1.2859
 3754TIP3    H232898   3.377   3.094   1.180 -0.6911 -0.6913  0.2123
 3755TIP3   OH232899   5.931   2.319   8.442  0.1952 -0.7539 -0.1496
 3755TIP3    H132900   5.921   2.227   8.417  2.1054 -1.0745  0.1402
 3755TIP3    H232901   5.917   2.319   8.537  0.5584 -0.8243 -0.0928
 3756TIP3   OH232902   3.554   2.325   8.149  0.0893  0.1430 -0.3888
 3756TIP3    H132903   3.526   2.245   8.193 -2.0866  0.1742 -1.5764
 3756TIP3    H232904   3.600   2.295   8.070 -2.0548 -0.0591 -1.6534
 3757TIP3   OH232905   5.751   2.587   1.755 -0.0490  0.3464  0.0652
 3757TIP3    H132906   5.677   2.589   1.815  0.2683  0.5177  0.4584
 3757TIP3    H232907   5.819   2.637   1.800  0.0712  0.7875 -0.6000
 3758TIP3   OH232908   3.537   4.088   1.345 -0.0285  0.0589  0.7463
 3758TIP3    H132909   3.482   4.062   1.419  0.1635 -1.0144  0.5306
 3758TIP3    H232910   3.485   4.067   1.267  0.5575 -0.7042  0.5479
 3759TIP3   OH232911   3.368   4.408   2.670 -0.2555 -0.2758 -0.4970
 3759TIP3    H132912   3.370   4.322   2.713  1.2117  0.1693  0.4096
 3759TIP3    H232913   3.454   4.445   2.688 -0.8880  1.4215 -0.8258
 3760TIP3   OH232914   1.119   4.582   2.755  0.5281 -0.3502 -0.3733
 3760TIP3    H132915   1.143   4.606   2.666 -0.2743 -0.3132 -0.5872
 3760TIP3    H232916   1.024   4.595   2.759  0.7501  1.3866  0.9931
 3761TIP3   OH232917   2.323   0.804   1.638  0.3198 -0.5225  0.4359
 3761TIP3    H132918   2.251   0.804   1.701 -0.3439 -0.3919 -0.3031
 3761TIP3    H232919   2.337   0.897   1.617 -1.9915 -0.6562 -2.3627
 3762TIP3   OH232920   1.979   3.548   2.130 -0.0628  0.3021 -0.2471
 3762TIP3    H132921   1.943   3.463   2.157 -0.2189 -0.0793 -1.5857
 3762TIP3    H232922   1.965   3.605   2.206 -0.8267 -0.6133  0.3241
 3763TIP3   OH232923   1.513   3.951   3.356  0.3849  0.1153 -0.1226
 3763TIP3    H132924   1.533   3.966   3.449 -0.4444 -0.4728  0.1603
 3763TIP3    H232925   1.524   4.037   3.316  0.1504  0.5141  0.6397
 3764TIP3   OH232926   1.382   3.014   1.027  0.0369 -0.2628  0.0387
 3764TIP3    H132927   1.449   2.951   1.000 -0.5200 -0.7928 -0.1254
 3764TIP3    H232928   1.343   2.976   1.105 -1.7689 -1.2035 -1.2665
 3765TIP3   OH232929   2.014   1.965   1.170 -0.1195 -0.0124  0.5189
 3765TIP3    H132930   1.927   1.952   1.207  0.4131  1.2201  2.3315
 3765TIP3    H232931   2.047   1.877   1.153 -1.9662 -0.4789 -0.8641
 3766TIP3   OH232932   5.227   3.370   0.057 -0.3165  0.0922 -0.3420
 3766TIP3    H132933   5.134   3.371   0.077 -0.6605 -0.5621 -1.7596
 3766TIP3    H232934   5.265   3.437   0.114 -1.6909  0.6004  0.0147
 3767TIP3   OH232935   0.647   1.743   2.743 -0.2096  0.2254  0.4162
 3767TIP3    H132936   0.557   1.719   2.765 -0.2561 -0.8719 -0.8698
 3767TIP3    H232937   0.680   1.669   2.693  0.7210  1.4815 -0.9167
 3768TIP3   OH232938   2.650   4.263   4.464  0.3466  0.3210  0.6086
 3768TIP3    H132939   2.623   4.193   4.523 -2.1167  0.2936 -0.4319
 3768TIP3    H232940   2.710   4.316   4.516  1.5393 -1.9740  1.7454
 3769TIP3   OH232941   0.722   3.689   2.534 -0.1581 -0.5213  0.3538
 3769TIP3    H132942   0.770   3.692   2.617  0.9045  0.7956 -0.2798
 3769TIP3    H232943   0.788   3.671   2.468 -1.0606 -2.0264 -0.2164
 3770TIP3   OH232944   0.931   1.830   3.758 -0.2510 -0.3338 -0.0019
 3770TIP3    H132945   0.955   1.913   3.799  0.3249 -0.3496 -0.3073
 3770TIP3    H232946   0.979   1.763   3.807  0.9256 -0.2976 -1.0787
 3771TIP3   OH232947   0.730   5.223   3.481 -0.1130  0.0549 -0.5834
 3771TIP3    H132948   0.685   5.139   3.483  0.7989 -0.4268  0.6430
 3771TIP3    H232949   0.798   5.216   3.548 -1.2148  2.4305  0.9208
 3772TIP3   OH232950   3.456   1.248   0.708  0.2899 -0.6902  0.0476
 3772TIP3    H132951   3.444   1.334   0.668  2.2596  0.8792  2.5354
 3772TIP3    H232952   3.372   1.230   0.752 -0.0689  0.0420 -0.3219
 3773TIP3   OH232953   4.931   2.021   1.579  0.4111  0.4163 -0.9815
 3773TIP3    H132954   4.993   1.952   1.601  0.2434  0.5467 -0.0944
 3773TIP3    H232955   4.926   2.076   1.657 -1.2049  0.1203 -0.8449
 3774TIP3   OH232956   5.761   5.529   0.624  0.2479  0.1176 -0.5459
 3774TIP3    H132957   5.783   5.559   0.712 -2.2176  0.5258  0.0058
 3774TIP3    H232958   5.838   5.479   0.596  1.5033  0.8294  1.4146
 3775TIP3   OH232959   4.234   6.595   2.800  0.2097 -0.8244 -0.2291
 3775TIP3    H132960   4.216   6.513   2.847  2.5170 -1.4073 -0.2302
 3775TIP3    H232961   4.189   6.662   2.851  1.1739 -1.6742  1.8635
 3776TIP3   OH232962   1.318   4.775   2.501  0.2760  0.1558 -0.7226
 3776TIP3    H132963   1.347   4.697   2.548  0.2786 -0.3007 -1.4746
 3776TIP3    H232964   1.227   4.786   2.528  0.4420  0.2356 -0.1706
 3777TIP3   OH232965   5.999   2.793   0.672 -0.0164 -0.1114 -0.3701
 3777TIP3    H132966   5.906   2.815   0.662 -0.6982 -1.8923  1.3994
 3777TIP3    H232967   6.045   2.860   0.622 -2.2315  1.0886 -0.9268
 3778TIP3   OH232968   1.539   1.527   1.702  0.8979 -0.1905 -0.2058
 3778TIP3    H132969   1.532   1.477   1.783 -1.0551  0.2698 -0.0237
 3778TIP3    H232970   1.478   1.600   1.713  0.6012 -0.0908 -2.0598
 3779TIP3   OH232971   0.100   3.859   0.420 -0.0684  0.4397  0.0872
 3779TIP3    H132972   0.107   3.885   0.328 -0.2184  1.6413  0.3940
 3779TIP3    H232973   0.142   3.774   0.424  1.1654  0.9769 -0.8444
 3780TIP3   OH232974   1.208   5.388   2.917 -0.5138 -0.2770 -0.1188
 3780TIP3    H132975   1.245   5.300   2.917 -1.6263 -0.7665  1.0787
 3780TIP3    H232976   1.125   5.380   2.965  0.3600  1.7972  1.9567
 3781TIP3   OH232977   5.451   2.338   3.799  0.2316 -0.0417 -0.3500
 3781TIP3    H132978   5.367   2.328   3.753 -0.4700  1.2861  0.5796
 3781TIP3    H232979   5.427   2.342   3.892  1.2491  0.9643 -0.1072
 3782TIP3   OH232980   3.256   6.424   0.312  0.4263 -0.1243  0.4713
 3782TIP3    H132981   3.236   6.503   0.362  1.7690  1.2572 -1.0084
 3782TIP3    H232982   3.239   6.449   0.221  1.3032 -1.3911 -0.0732
 3783TIP3   OH232983   3.966   3.047   8.550  0.6681  0.4174  0.4499
 3783TIP3    H132984   3.971   2.978   8.484 -0.6660 -0.0110  0.7452
 3783TIP3    H232985   4.034   3.024   8.614 -1.1963 -2.0378  1.7504
 3784TIP3   OH232986   1.136   4.448   3.679 -0.5287 -0.3779 -0.6133
 3784TIP3    H132987   1.082   4.517   3.718 -0.9643 -0.9348 -0.2199
 3784TIP3    H232988   1.223   4.461   3.717 -1.1488 -1.4862  1.3275
 3785TIP3   OH232989   6.806   4.004   1.410  0.2276  0.1681 -0.4139
 3785TIP3    H132990   6.719   3.964   1.419  0.4461 -0.1056  0.5445
 3785TIP3    H232991   6.826   4.040   1.496  0.7887  0.8244 -0.8021
 3786TIP3   OH232992   1.265   1.649   2.046  0.3738  0.2154 -0.4259
 3786TIP3    H132993   1.354   1.672   2.073  0.3962 -1.0164  0.6599
 3786TIP3    H232994   1.276   1.578   1.983  0.1802  0.3578 -0.6202
 3787TIP3   OH232995   2.848   2.744   1.643 -0.2655  0.9098 -0.1711
 3787TIP3    H132996   2.893   2.743   1.727  0.5309 -1.2493 -0.5515
 3787TIP3    H232997   2.911   2.783   1.582  0.6742 -0.9311 -0.4483
 3788TIP3   OH232998   5.276   3.966   3.407 -0.2239 -0.1002 -0.2263
 3788TIP3    H132999   5.323   4.043   3.438  0.8424 -1.2411  1.1446
 3788TIP3    H233000   5.211   4.000   3.346  0.0594  1.8941  0.5168
 3789TIP3   OH233001   5.058   3.846   1.185  0.5257  0.7199 -0.2387
 3789TIP3    H133002   5.084   3.759   1.154 -1.0920  0.8920 -2.2346
 3789TIP3    H233003   5.128   3.904   1.156  0.7474  0.3423 -0.4661
 3790TIP3   OH233004   4.021   2.746   0.405 -0.2455 -0.5804  0.7224
 3790TIP3    H133005   3.959   2.701   0.463 -1.0745  0.9140  1.0463
 3790TIP3    H233006   3.977   2.746   0.320 -1.4774  1.7995  1.2653
 3791TIP3   OH233007   1.018   1.375   1.380 -0.1274 -0.4588 -0.3980
 3791TIP3    H133008   1.031   1.301   1.321  0.9331 -0.5815 -0.0376
 3791TIP3    H233009   1.037   1.452   1.326  0.4528 -0.5499 -0.3297
 3792TIP3   OH233010   5.314   3.589   1.536  0.7817  1.3442 -0.2921
 3792TIP3    H133011   5.224   3.558   1.550  0.4569  2.0663 -0.7448
 3792TIP3    H233012   5.368   3.510   1.545  0.3088  1.2027  1.8556
 3793TIP3   OH233013   2.730   4.338   8.290 -0.9533 -0.4646  0.8295
 3793TIP3    H133014   2.821   4.310   8.301 -0.6584 -0.1752 -0.6098
 3793TIP3    H233015   2.732   4.433   8.303 -0.7607 -0.2488 -0.5885
 3794TIP3   OH233016   3.526   3.131   1.786 -0.2918  0.0131  0.1833
 3794TIP3    H133017   3.440   3.090   1.799 -1.5843  2.6959  0.8614
 3794TIP3    H233018   3.565   3.133   1.873 -0.3656  0.4585  0.2072
 3795TIP3   OH233019   3.393   2.331   1.017 -0.2169  0.0458 -0.2377
 3795TIP3    H133020   3.435   2.293   1.094 -0.2320 -0.0368 -0.2706
 3795TIP3    H233021   3.427   2.420   1.013 -1.5368  0.6322  0.8651
 3796TIP3   OH233022   2.051   2.876   1.629 -0.3332 -0.0661 -0.1042
 3796TIP3    H133023   2.146   2.889   1.626 -0.5336  1.4878 -0.3067
 3796TIP3    H233024   2.018   2.920   1.551 -1.0541 -2.5628 -1.3198
 3797TIP3   OH233025   2.313   3.632   1.563 -0.4756  0.4220 -0.5504
 3797TIP3    H133026   2.377   3.564   1.583 -1.3212 -0.3313 -0.3171
 3797TIP3    H233027   2.273   3.604   1.481 -0.2320  1.0979 -0.9086
 3798TIP3   OH233028   5.023   6.897   2.290  0.4012  0.0035  0.0838
 3798TIP3    H133029   4.988   6.866   2.374  1.4593 -1.8300 -0.0945
 3798TIP3    H233030   5.068   6.978   2.311 -1.3220  0.8164  0.8421
 3799TIP3   OH233031   5.084   4.597   0.729 -0.2386  0.7244 -0.5639
 3799TIP3    H133032   5.042   4.532   0.786  0.3236  0.3932 -0.5191
 3799TIP3    H233033   5.079   4.558   0.641  1.3470 -0.0637 -0.3535
 3800TIP3   OH233034   1.881   5.966   2.701  0.4668 -0.2645 -0.2561
 3800TIP3    H133035   1.976   5.963   2.712  0.3589  0.0613  0.8460
 3800TIP3    H233036   1.868   6.025   2.626  1.0768  1.2804  0.7989
 3801TIP3   OH233037   6.656   4.838   8.262  0.2488 -0.4706 -0.6396
 3801TIP3    H133038   6.730   4.806   8.212  2.4296  1.3172  1.1838
 3801TIP3    H233039   6.637   4.768   8.325  2.3204  0.0895  0.7049
 3802TIP3   OH233040   2.638   4.988   3.311  0.2661  0.0624 -0.4783
 3802TIP3    H133041   2.606   4.975   3.222 -2.1931 -2.4658  0.6258
 3802TIP3    H233042   2.638   4.900   3.350  1.2812  1.0679  2.0108
 3803TIP3   OH233043   5.258   5.981   0.855 -0.2646 -0.9031  0.0333
 3803TIP3    H133044   5.241   5.919   0.784  0.2064 -1.6506  0.5590
 3803TIP3    H233045   5.346   5.959   0.886 -0.9452 -1.4241  1.6709
 3804TIP3   OH233046   0.737   6.609   1.279  0.3681  0.3607  0.5115
 3804TIP3    H133047   0.665   6.627   1.219  0.7617  1.4349  0.3475
 3804TIP3    H233048   0.750   6.514   1.272  0.5722  0.4843 -1.2951
 3805TIP3   OH233049   4.731   2.258   0.465  0.1396  0.1394 -0.8496
 3805TIP3    H133050   4.778   2.268   0.383 -0.4360 -1.5505 -1.4330
 3805TIP3    H233051   4.762   2.175   0.500  0.1343  0.6786  0.5001
 3806TIP3   OH233052   1.592   4.033   0.882  0.2422  0.1041  0.4469
 3806TIP3    H133053   1.559   4.088   0.952 -0.4254 -0.8117  0.8732
 3806TIP3    H233054   1.626   4.095   0.816  1.2199  0.9658  1.7135
 3807TIP3   OH233055   0.644   6.216   4.107  0.4198 -0.2466 -0.8784
 3807TIP3    H133056   0.672   6.307   4.117  0.6706 -0.3606 -0.5360
 3807TIP3    H233057   0.560   6.222   4.061 -0.1564  0.2284  0.1896
 3808TIP3   OH233058   1.983   5.316   0.908  0.6029  0.3550 -0.2661
 3808TIP3    H133059   1.982   5.272   0.823  0.4960  0.5546 -0.3676
 3808TIP3    H233060   1.938   5.255   0.967  0.3172  0.3973 -0.4394
 3809TIP3   OH233061   2.074   3.000   3.026 -0.4064 -0.0989  0.2827
 3809TIP3    H133062   2.067   3.058   3.102 -2.5333  2.9042 -1.9970
 3809TIP3    H233063   1.984   2.986   2.998  0.0985 -3.6128 -0.1120
 3810TIP3   OH233064   3.870   6.479   2.901 -0.0193  0.1631 -0.1993
 3810TIP3    H133065   3.832   6.555   2.945 -0.6172  0.4192 -1.1268
 3810TIP3    H233066   3.955   6.466   2.944  0.1246  1.4025 -0.0702
 3811TIP3   OH233067   6.315   3.542   1.104  0.8904  0.2439  0.4894
 3811TIP3    H133068   6.327   3.477   1.035  3.0760  1.0982 -0.0429
 3811TIP3    H233069   6.226   3.574   1.091 -0.5826 -3.1072  1.2828
 3812TIP3   OH233070   3.466   3.322   1.542 -0.0827  0.3656 -0.3255
 3812TIP3    H133071   3.422   3.261   1.483 -0.3860  1.0636 -0.8251
 3812TIP3    H233072   3.442   3.291   1.630 -0.6468  0.0765 -0.5793
 3813TIP3   OH233073   4.058   3.797   1.160  0.0838  0.2226  0.3250
 3813TIP3    H133074   4.138   3.809   1.108  1.6772  0.9905  2.8024
 3813TIP3    H233075   3.988   3.832   1.105  1.8984  2.5121 -0.6918
 3814TIP3   OH233076   3.582   6.799   0.755  0.0289 -0.4529  0.0054
 3814TIP3    H133077   3.668   6.811   0.715 -0.3193 -1.9767 -1.3103
 3814TIP3    H233078   3.575   6.705   0.768 -1.0191 -0.2391  1.1131
 3815TIP3   OH233079   0.949   2.691   2.826 -0.0258 -0.0106  0.3749
 3815TIP3    H133080   0.984   2.769   2.870  3.4364 -0.4425 -1.3002
 3815TIP3    H233081   1.026   2.637   2.810 -1.7190 -1.8295 -2.3243
 3816TIP3   OH233082   2.276   4.593   0.333 -0.7751 -0.0624 -0.0879
 3816TIP3    H133083   2.231   4.617   0.252 -1.1456  1.1986  0.4610
 3816TIP3    H233084   2.269   4.498   0.337 -0.9841 -0.1227 -1.3960
 3817TIP3   OH233085   1.083   3.797   3.236  0.1442  0.1124 -0.0465
 3817TIP3    H133086   1.072   3.702   3.247 -0.5546  0.3599  1.8002
 3817TIP3    H233087   1.095   3.809   3.142 -1.6279 -1.6408 -0.5695
 3818TIP3   OH233088   4.663   1.148   0.811  0.1313  0.3206  0.3393
 3818TIP3    H133089   4.590   1.209   0.801 -0.4237 -0.0687  1.7774
 3818TIP3    H233090   4.626   1.073   0.858  1.4652  0.1387  1.1620
 3819TIP3   OH233091   4.535   3.159   2.492 -0.6309  0.1417  0.4645
 3819TIP3    H133092   4.583   3.241   2.495  0.6640 -0.5963  0.6023
 3819TIP3    H233093   4.501   3.153   2.403  0.0451  0.3940  0.1885
 3820TIP3   OH233094   2.018   5.929   0.685 -0.0632 -0.2549  0.2371
 3820TIP3    H133095   2.110   5.952   0.690 -0.2727  0.6796 -0.0694
 3820TIP3    H233096   2.000   5.883   0.767  0.8844 -1.2774 -0.0951
 3821TIP3   OH233097   6.713   6.652   2.850  0.3088  0.0965  0.3890
 3821TIP3    H133098   6.742   6.561   2.854 -1.4091 -0.7226 -2.5264
 3821TIP3    H233099   6.622   6.650   2.879 -0.3665  0.4465 -1.5597
 3822TIP3   OH233100   3.653   2.583   8.394  0.6265  0.4287  0.5411
 3822TIP3    H133101   3.705   2.634   8.331 -0.8581 -1.6321 -2.6407
 3822TIP3    H233102   3.704   2.504   8.409 -1.1661 -1.4794 -2.3844
 3823TIP3   OH233103   1.478   0.212   1.141  0.4496 -0.1679 -0.0103
 3823TIP3    H133104   1.449   0.302   1.125  0.8627 -0.0040  0.1603
 3823TIP3    H233105   1.478   0.203   1.236  2.0045  0.1852  0.0429
 3824TIP3   OH233106   2.374   5.440   2.299 -0.4116  0.0548  0.0540
 3824TIP3    H133107   2.289   5.430   2.342 -1.3860  1.4478 -1.4631
 3824TIP3    H233108   2.354   5.444   2.206  1.2442  1.1358 -0.2981
 3825TIP3   OH233109   3.707   0.583   0.448 -0.0406 -0.3385  0.0000
 3825TIP3    H133110   3.664   0.550   0.369  0.9555 -3.2318  0.5580
 3825TIP3    H233111   3.799   0.595   0.423  0.0410 -0.0626  0.4074
 3826TIP3   OH233112   2.356   1.481   7.743  0.2204 -0.3053 -0.0111
 3826TIP3    H133113   2.270   1.501   7.705 -0.9116 -1.7250  1.6780
 3826TIP3    H233114   2.369   1.388   7.726  0.4497 -0.5813  1.5502
 3827TIP3   OH233115   6.524   3.226   3.490  0.1859 -0.5194  0.0793
 3827TIP3    H133116   6.599   3.176   3.523  1.3319  2.2005  1.9227
 3827TIP3    H233117   6.491   3.272   3.567 -2.1953 -0.1211 -1.0982
 3828TIP3   OH233118   6.064   0.108   3.572  0.2742 -0.2224  0.3581
 3828TIP3    H133119   6.030   0.084   3.658  1.1619 -0.6565  0.5971
 3828TIP3    H233120   6.157   0.087   3.576  0.3571 -0.0991 -0.6591
 3829TIP3   OH233121   0.478   2.733   1.182 -0.3330  0.4346 -0.5878
 3829TIP3    H133122   0.413   2.723   1.112 -0.6489  0.6140 -0.3267
 3829TIP3    H233123   0.451   2.670   1.248 -0.4734  0.7884 -0.3065
 3830TIP3   OH233124   2.256   2.915   2.851 -0.8183  0.5555 -0.4081
 3830TIP3    H133125   2.335   2.960   2.880 -0.6972  0.5940 -0.7962
 3830TIP3    H233126   2.189   2.940   2.915  0.2795 -2.3229  2.0791
 3831TIP3   OH233127   2.695   5.315   7.842  0.1294  0.2008 -0.2781
 3831TIP3    H133128   2.674   5.337   7.933 -0.9993  1.7145 -0.8529
 3831TIP3    H233129   2.786   5.342   7.831  0.5003 -0.6322  0.5626
 3832TIP3   OH233130   0.723   1.322   3.227  0.3441 -0.1769  0.4158
 3832TIP3    H133131   0.630   1.343   3.223  0.0969 -1.3871 -0.8559
 3832TIP3    H233132   0.767   1.404   3.208 -0.4529  0.3632  0.8356
 3833TIP3   OH233133   4.490   6.169   0.681  0.0497 -0.0647 -0.2406
 3833TIP3    H133134   4.511   6.120   0.601 -0.4174 -1.3104  0.3775
 3833TIP3    H233135   4.519   6.259   0.662 -0.1910 -0.2966 -1.8561
 3834TIP3   OH233136   1.990   5.127   3.123 -0.0401  0.4891  0.2099
 3834TIP3    H133137   2.036   5.206   3.151  1.4859  0.0491 -0.9312
 3834TIP3    H233138   1.897   5.148   3.133  0.3495  2.3034  0.2436
 3835TIP3   OH233139   2.142   0.461   3.528  0.8195  0.6860  0.4178
 3835TIP3    H133140   2.088   0.496   3.599  0.7318 -0.3445  0.8793
 3835TIP3    H233141   2.230   0.458   3.564  0.2539 -3.5976  2.0950
 3836TIP3   OH233142   4.522   4.480   0.765  0.0812  0.0001 -0.5895
 3836TIP3    H133143   4.600   4.499   0.713  0.7687 -1.0184  0.0375
 3836TIP3    H233144   4.555   4.468   0.854 -0.6908 -1.1207 -0.4370
 3837TIP3   OH233145   3.960   1.315   1.279  0.2984  0.8541 -0.2333
 3837TIP3    H133146   3.985   1.307   1.371  0.6261 -0.3977 -0.4155
 3837TIP3    H233147   3.902   1.241   1.264  1.8908 -0.2017 -1.5469
 3838TIP3   OH233148   4.402   2.231   2.780 -0.1488  0.3119 -0.4307
 3838TIP3    H133149   4.369   2.316   2.811 -0.4854  0.1197 -0.2541
 3838TIP3    H233150   4.447   2.251   2.698 -1.2920  0.4904 -1.0425
 3839TIP3   OH233151   2.218   6.494   0.338  0.0417  0.4583 -0.0296
 3839TIP3    H133152   2.198   6.574   0.291  0.2770  1.0890  0.9233
 3839TIP3    H233153   2.167   6.499   0.419 -1.6066 -1.3452 -0.8630
 3840TIP3   OH233154   4.314   5.589   3.518  0.2080 -0.2353  0.6111
 3840TIP3    H133155   4.279   5.612   3.432 -1.0128 -0.4426  1.0282
 3840TIP3    H233156   4.382   5.524   3.500  0.5771  0.3731 -0.2501
 3841TIP3   OH233157   3.197   5.871   3.464 -0.2714 -0.4674 -0.0662
 3841TIP3    H133158   3.141   5.850   3.538 -0.1350 -1.7720 -0.2913
 3841TIP3    H233159   3.283   5.837   3.489 -0.8512 -3.8718 -1.9691
 3842TIP3   OH233160   3.639   1.424   2.387 -0.0189  0.5785  0.0185
 3842TIP3    H133161   3.680   1.460   2.465 -1.1579  1.6278  0.1594
 3842TIP3    H233162   3.658   1.487   2.318  1.5877 -0.6861 -0.7749
 3843TIP3   OH233163   2.356   6.470   0.048  0.7283 -0.2725 -0.1610
 3843TIP3    H133164   2.322   6.496  -0.038 -1.9153 -2.8470 -0.0507
 3843TIP3    H233165   2.294   6.506   0.111  0.9827 -0.8557  0.4425
 3844TIP3   OH233166   6.777   6.584   8.539 -0.1900  0.2083  0.0040
 3844TIP3    H133167   6.807   6.561   8.451  0.1455  0.3767  0.0685
 3844TIP3    H233168   6.682   6.584   8.534 -0.2262 -1.7651  0.1601
 3845TIP3   OH233169   0.912   6.310   1.770  0.0570  0.6636  0.5234
 3845TIP3    H133170   0.908   6.356   1.686 -0.9387 -0.2543  0.0388
 3845TIP3    H233171   0.982   6.246   1.758 -0.3226  0.2914  0.2480
 3846TIP3   OH233172   2.974   6.866   0.750 -0.1484 -0.3101  0.0648
 3846TIP3    H133173   2.903   6.862   0.815  1.2325 -2.5784  1.5477
 3846TIP3    H233174   3.028   6.940   0.778  0.1510 -0.9544  1.2334
 3847TIP3   OH233175   2.775   3.632   2.805 -0.7647  0.0286 -0.4150
 3847TIP3    H133176   2.718   3.704   2.831  0.7515  1.1943 -0.2116
 3847TIP3    H233177   2.785   3.579   2.884  0.2925  1.1342  0.2228
 3848TIP3   OH233178   6.815   6.376   0.587 -0.6458 -0.5386  0.0157
 3848TIP3    H133179   6.878   6.352   0.519 -1.3482 -1.6312 -0.2794
 3848TIP3    H233180   6.846   6.460   0.620  0.3584 -0.5440 -0.8574
 3849TIP3   OH233181   4.708   1.912   3.168 -0.4949  0.2026 -0.2188
 3849TIP3    H133182   4.780   1.968   3.138 -1.5120  0.5169 -2.2865
 3849TIP3    H233183   4.630   1.965   3.152 -1.2267  0.1599  2.6395
 3850TIP3   OH233184   0.102   5.960   0.498 -1.0682 -0.1385 -0.1190
 3850TIP3    H133185   0.086   5.960   0.404 -1.8174  1.8980 -0.0422
 3850TIP3    H233186   0.015   5.957   0.538 -0.7461 -1.6155  0.5693
 3851TIP3   OH233187   1.569   2.607   0.592 -0.0759 -0.2550  0.2352
 3851TIP3    H133188   1.625   2.649   0.526 -0.1416 -1.2599 -0.4830
 3851TIP3    H233189   1.630   2.581   0.661  0.2640 -0.7543 -0.2406
 3852TIP3   OH233190   0.851   1.971   2.597  0.4768  0.5926  0.6601
 3852TIP3    H133191   0.839   1.950   2.690 -0.8837  2.0978  0.8517
 3852TIP3    H233192   0.903   2.051   2.597 -0.8008  1.4465  0.1881
 3853TIP3   OH233193   2.258   4.327   2.681  0.2916  0.4685 -0.1405
 3853TIP3    H133194   2.321   4.385   2.638 -0.1334 -0.7139 -2.5351
 3853TIP3    H233195   2.185   4.384   2.705  0.5700  1.2095 -0.9808
 3854TIP3   OH233196   3.051   4.319   3.652  0.3371  0.3580  0.4424
 3854TIP3    H133197   3.003   4.364   3.722  1.4471  0.6833  1.0215
 3854TIP3    H233198   3.109   4.258   3.698  0.5255  0.0205 -0.2354
 3855TIP3   OH233199   0.378   0.081   2.689 -0.1043 -0.4763  0.2521
 3855TIP3    H133200   0.435   0.151   2.659 -0.7873  0.1611  0.4157
 3855TIP3    H233201   0.342   0.043   2.609  0.0936 -0.4960  0.1723
 3856TIP3   OH233202   2.700   1.569   2.401  0.1848 -0.2439  0.0790
 3856TIP3    H133203   2.686   1.657   2.368  0.0738  0.4792  1.9353
 3856TIP3    H233204   2.795   1.561   2.409  0.1464  1.0707  3.1686
 3857TIP3   OH233205   4.914   1.718   2.436 -0.5682 -0.2071  0.2349
 3857TIP3    H133206   4.939   1.797   2.388  1.0690 -1.8021 -1.7022
 3857TIP3    H233207   4.894   1.653   2.368 -0.0583 -2.0170  1.7205
 3858TIP3   OH233208   2.103   6.509   0.572 -0.4938 -0.2140  0.3144
 3858TIP3    H133209   2.082   6.454   0.648 -0.1420 -2.3866 -1.0529
 3858TIP3    H233210   2.018   6.543   0.544 -0.7796 -0.3515  0.9827
 3859TIP3   OH233211   3.775   3.863   3.054 -0.0597 -0.3344 -0.5565
 3859TIP3    H133212   3.837   3.813   3.108 -2.3998 -0.6664  2.0657
 3859TIP3    H233213   3.767   3.947   3.100 -0.0741  0.4660 -1.9833
 3860TIP3   OH233214   4.227   2.131   1.279  0.1695 -0.0371 -0.1910
 3860TIP3    H133215   4.249   2.102   1.190 -1.6387 -0.1285 -0.6565
 3860TIP3    H233216   4.308   2.120   1.329  1.0108 -0.7248 -1.6417
 3861TIP3   OH233217   1.722   3.935   3.867  0.5605  0.0846 -0.6085
 3861TIP3    H133218   1.809   3.972   3.885  1.1001 -0.4638 -1.9624
 3861TIP3    H233219   1.669   4.011   3.842  1.6000  0.0658 -3.1617
 3862TIP3   OH233220   1.134   2.374   0.412  0.2420 -0.1255 -0.2270
 3862TIP3    H133221   1.092   2.436   0.353  1.5034  1.3327  0.3482
 3862TIP3    H233222   1.071   2.360   0.482 -0.2047  0.1920 -0.5590
 3863TIP3   OH233223   1.369   6.255   2.406 -0.0021  0.1340 -0.1336
 3863TIP3    H133224   1.290   6.233   2.455  1.2621  0.1306  2.0304
 3863TIP3    H233225   1.428   6.182   2.422  0.3897  0.0272 -1.9080
 3864TIP3   OH233226   6.656   1.138   0.303 -0.5811  0.6702  0.4158
 3864TIP3    H133227   6.626   1.060   0.256  0.8713  0.2893  0.0726
 3864TIP3    H233228   6.642   1.210   0.241  3.5729 -0.1152 -1.7879
 3865TIP3   OH233229   2.922   1.120   0.443 -0.0521  0.3991  0.1203
 3865TIP3    H133230   3.004   1.093   0.401 -0.9667 -0.6829 -1.0584
 3865TIP3    H233231   2.923   1.216   0.438  1.4052  0.4317  0.6876
 3866TIP3   OH233232   4.492   1.750   3.575 -0.4388  0.2833  0.3243
 3866TIP3    H133233   4.461   1.829   3.618 -0.7653 -0.0936  0.7929
 3866TIP3    H233234   4.483   1.768   3.482  0.0141  1.0053  0.4175
 3867TIP3   OH233235   4.480   3.970   3.739  0.0667 -0.8344 -0.3989
 3867TIP3    H133236   4.437   4.056   3.739 -1.5559 -1.4684  3.1983
 3867TIP3    H233237   4.573   3.990   3.732 -0.3129  1.1779 -0.3247
 3868TIP3   OH233238   2.348   1.128   0.230 -0.3038 -0.0768 -0.2859
 3868TIP3    H133239   2.419   1.130   0.294 -0.6334  0.3156  0.0732
 3868TIP3    H233240   2.391   1.133   0.145  0.1427 -0.6674 -0.0969
 3869TIP3   OH233241   0.291   5.490   2.876  0.4563 -0.1927 -0.1612
 3869TIP3    H133242   0.309   5.435   2.952 -0.2219 -1.6623 -1.0138
 3869TIP3    H233243   0.377   5.512   2.842  0.7843  0.8347  1.2460
 3870TIP3   OH233244   2.672   5.164   1.413 -0.1822  0.2998 -0.4508
 3870TIP3    H133245   2.766   5.166   1.393 -0.3393  2.1891 -1.1381
 3870TIP3    H233246   2.660   5.230   1.481 -0.9206 -0.4779  0.2044
 3871TIP3   OH233247   1.960   3.187   2.696  0.5268 -0.5142  0.0165
 3871TIP3    H133248   1.897   3.173   2.767  0.1254 -1.8861 -0.5956
 3871TIP3    H233249   2.039   3.217   2.741  0.1105 -0.8245  0.9944
 3872TIP3   OH233250   2.570   0.029   1.915  0.8122 -0.5503  0.1688
 3872TIP3    H133251   2.607   0.117   1.918  0.1274 -0.1987 -0.7480
 3872TIP3    H233252   2.643  -0.029   1.932  1.6473  0.1440 -0.8706
 3873TIP3   OH233253   4.461   6.345   2.936 -0.1550 -0.1160  0.0771
 3873TIP3    H133254   4.371   6.320   2.918 -0.2458 -0.1771  0.5779
 3873TIP3    H233255   4.508   6.328   2.855 -0.5475 -0.3181 -0.1098
 3874TIP3   OH233256   2.188   5.986   2.729  0.0956  0.8002 -0.0206
 3874TIP3    H133257   2.224   6.066   2.768 -0.1421 -0.0258  1.9856
 3874TIP3    H233258   2.186   6.005   2.635  0.1941  3.0800  0.3760
 3875TIP3   OH233259   0.794   5.869   2.176 -0.1998 -0.4461  0.2875
 3875TIP3    H133260   0.753   5.783   2.180 -0.4254 -0.2930  1.9409
 3875TIP3    H233261   0.886   5.853   2.198 -0.4887 -0.1335  1.8018
 3876TIP3   OH233262   0.015   6.917   3.549 -0.2361  0.2129 -0.5182
 3876TIP3    H133263   0.098   6.965   3.542  0.8719 -1.0057  2.4667
 3876TIP3    H233264  -0.039   6.972   3.606 -0.3473 -0.3497 -0.0736
 3877TIP3   OH233265   0.203   2.627   2.566  0.0709  0.1909  0.1983
 3877TIP3    H133266   0.233   2.667   2.485 -0.2359 -1.3750 -0.7262
 3877TIP3    H233267   0.108   2.622   2.557 -0.0488  0.7467  1.0250
 3878TIP3   OH233268   0.187   2.817   3.813 -0.5209  0.0081  0.3014
 3878TIP3    H133269   0.103   2.830   3.855 -0.7826 -2.0238  0.5338
 3878TIP3    H233270   0.172   2.745   3.751  1.0173 -0.3782  0.3284
 3879TIP3   OH233271   2.279   0.787   2.277 -0.4965  0.1537 -0.2023
 3879TIP3    H133272   2.272   0.877   2.308  0.0873  0.1445 -0.0266
 3879TIP3    H233273   2.193   0.749   2.294 -0.5694  0.5146  0.2525
 3880TIP3   OH233274   6.017   6.497   0.634  0.0143  0.4078 -0.5930
 3880TIP3    H133275   5.932   6.456   0.651 -0.2793  0.9137 -0.7936
 3880TIP3    H233276   6.037   6.545   0.714  0.2587  0.0385 -0.4332
 3881TIP3   OH233277   5.906   2.575   2.157 -0.0090 -0.3734  0.4286
 3881TIP3    H133278   5.895   2.628   2.078 -0.0249  0.3018  0.8775
 3881TIP3    H233279   5.836   2.510   2.152 -0.4968  0.1570  0.2777
 3882TIP3   OH233280   1.495   5.134   2.090  0.4277  0.2559  0.5561
 3882TIP3    H133281   1.424   5.090   2.137  2.8885 -1.2501  3.2007
 3882TIP3    H233282   1.574   5.093   2.123  2.5571  0.4071 -3.7240
 3883TIP3   OH233283   1.795   2.337   3.384  0.4996 -0.2379 -0.1046
 3883TIP3    H133284   1.713   2.288   3.386 -0.6757  1.6421 -0.0025
 3883TIP3    H233285   1.823   2.340   3.476  0.7489 -0.9567 -0.1504
 3884TIP3   OH233286   0.461   4.832   2.790 -0.1358  0.0016  0.4576
 3884TIP3    H133287   0.380   4.831   2.738 -0.8758  1.3358  1.5089
 3884TIP3    H233288   0.448   4.904   2.852  1.1439 -0.8813  1.8076
 3885TIP3   OH233289   6.369   1.748   0.209 -0.3243  0.4863 -0.2909
 3885TIP3    H133290   6.464   1.753   0.199 -0.3750  0.3125 -0.8764
 3885TIP3    H233291   6.335   1.776   0.125 -0.7806 -0.0543 -0.2902
 3886TIP3   OH233292   5.250   2.659   1.427  0.8860  0.0266 -0.1122
 3886TIP3    H133293   5.266   2.578   1.378  1.1613 -0.1325  0.2304
 3886TIP3    H233294   5.279   2.638   1.516 -0.6610 -0.0748  0.4092
 3887TIP3   OH233295   5.593   1.073   0.040  0.0398  0.0983  0.1730
 3887TIP3    H133296   5.609   1.166   0.028 -2.4337  0.6073  0.2950
 3887TIP3    H233297   5.648   1.030  -0.025 -1.6909  1.9032 -2.6624
 3888TIP3   OH233298   0.278   3.991   0.621  0.2660 -0.5493  0.5988
 3888TIP3    H133299   0.270   4.054   0.550 -1.2007 -0.7987  0.5097
 3888TIP3    H233300   0.205   4.011   0.680 -0.0075 -1.9004  0.7571
 3889TIP3   OH233301   6.832   6.581   3.287 -0.4079 -0.4754 -0.1114
 3889TIP3    H133302   6.847   6.487   3.279  0.4956 -0.3183 -0.4002
 3889TIP3    H233303   6.905   6.621   3.240 -1.4769  0.3625 -1.1047
 3890TIP3   OH233304   2.225   1.174   1.952  0.1619  0.6554 -0.2707
 3890TIP3    H133305   2.246   1.239   1.885 -2.1729  1.5327 -0.2305
 3890TIP3    H233306   2.193   1.098   1.904  1.5415  0.0308 -0.2498
 3891TIP3   OH233307   1.787   0.590   2.212  0.4188  0.0464 -0.5749
 3891TIP3    H133308   1.848   0.610   2.283 -0.1383 -0.4131  0.0430
 3891TIP3    H233309   1.797   0.496   2.197  0.1360  0.0387 -0.7324
 3892TIP3   OH233310   2.765   4.798   0.790  0.4041 -0.1220  0.6408
 3892TIP3    H133311   2.851   4.840   0.785  0.2829  0.0608 -0.0444
 3892TIP3    H233312   2.707   4.865   0.825  0.4423 -0.0885  0.6398
 3893TIP3   OH233313   3.786   6.127   0.091  0.0818  0.4357  0.1938
 3893TIP3    H133314   3.795   6.170   0.007 -0.3595  0.5132  0.1878
 3893TIP3    H233315   3.752   6.040   0.071 -2.2739  1.2336  0.4454
 3894TIP3   OH233316   4.867   5.922   3.375  0.3022  0.1893 -0.0035
 3894TIP3    H133317   4.856   5.949   3.466 -0.5529 -2.8890  0.9033
 3894TIP3    H233318   4.778   5.923   3.338  0.6176  1.2243 -0.8054
 3895TIP3   OH233319   6.087   5.120   1.109 -0.1150  0.6335  0.1368
 3895TIP3    H133320   6.010   5.147   1.159 -0.0376  0.8537  0.1377
 3895TIP3    H233321   6.082   5.171   1.029  0.8599  1.8113  0.7932
 3896TIP3   OH233322   5.968   6.642   3.116 -0.5253 -0.1116 -0.4961
 3896TIP3    H133323   6.029   6.698   3.164 -1.1177 -1.2724  1.7343
 3896TIP3    H233324   5.903   6.702   3.081  0.5252  0.8882 -0.7768
 3897TIP3   OH233325   0.225   6.295   7.868 -0.5102 -0.3696  0.4972
 3897TIP3    H133326   0.303   6.271   7.918 -1.0447  1.3763  2.3059
 3897TIP3    H233327   0.200   6.381   7.903 -3.5220 -1.0837  0.3447
 3898TIP3   OH233328   6.150   4.847   1.120 -0.2852  0.1845 -0.3094
 3898TIP3    H133329   6.107   4.932   1.115 -0.8253  0.0477  1.2246
 3898TIP3    H233330   6.078   4.784   1.122  0.0556 -0.2057 -0.0636
 3899TIP3   OH233331   6.446   4.721   2.556 -0.4706  0.0477  0.5600
 3899TIP3    H133332   6.458   4.636   2.599 -0.8363  0.3758  1.3247
 3899TIP3    H233333   6.430   4.782   2.628 -2.0919  0.4451 -0.0930
 3900TIP3   OH233334   3.136   2.224   2.460  0.0035  0.0365  0.1052
 3900TIP3    H133335   3.083   2.147   2.482 -2.7634  1.5271 -0.7301
 3900TIP3    H233336   3.168   2.206   2.372  0.9211 -0.8854  0.6110
 3901TIP3   OH233337   6.937   6.272   0.098 -0.0819 -0.0117 -0.1080
 3901TIP3    H133338   7.027   6.239   0.105  0.5214  1.1287 -1.9008
 3901TIP3    H233339   6.889   6.200   0.057 -0.0703 -0.6973  1.0221
 3902TIP3   OH233340   1.331   3.251   0.883  0.2513  0.4427 -0.0753
 3902TIP3    H133341   1.338   3.171   0.935 -1.3324  0.1444 -0.2482
 3902TIP3    H233342   1.417   3.263   0.844  0.5956 -1.0295  0.1772
 3903TIP3   OH233343   0.835   3.201   1.670 -0.2023  0.2406  0.1265
 3903TIP3    H133344   0.803   3.195   1.760  0.3720  0.3388  0.3372
 3903TIP3    H233345   0.930   3.206   1.678 -0.1287 -0.0658 -0.5041
 3904TIP3   OH233346   3.105   0.685   1.997  0.2879  0.2183  0.2441
 3904TIP3    H133347   3.101   0.772   1.957 -0.8881  0.1304  0.1351
 3904TIP3    H233348   3.056   0.628   1.937 -0.5870 -0.1272  1.2437
 3905TIP3   OH233349   2.565   1.207   0.663  0.0232  0.3227  0.1206
 3905TIP3    H133350   2.558   1.266   0.739 -1.1501  2.3645 -1.4479
 3905TIP3    H233351   2.523   1.256   0.592  1.9388 -1.0760 -2.0992
 3906TIP3   OH233352   1.954   3.375   0.581  0.7254 -0.7079 -0.6439
 3906TIP3    H133353   1.919   3.323   0.509  0.2704 -0.0185 -0.9290
 3906TIP3    H233354   1.877   3.417   0.619  1.1248  0.0216 -0.6289
 3907TIP3   OH233355   6.855   4.257   0.394  0.1105  0.0406  0.0496
 3907TIP3    H133356   6.762   4.236   0.401  0.5770 -2.1911  0.5828
 3907TIP3    H233357   6.886   4.258   0.484  0.7736 -0.1715 -0.1678
 3908TIP3   OH233358   3.730   6.803   3.125 -0.5300 -0.1088 -0.3427
 3908TIP3    H133359   3.752   6.719   3.166 -0.6097  0.2886  0.5263
 3908TIP3    H233360   3.668   6.843   3.185  0.8978  1.3948  0.1917
 3909TIP3   OH233361   4.878   0.393   1.618 -0.3904  0.6092  0.0583
 3909TIP3    H133362   4.823   0.369   1.543 -0.8754 -1.1510  0.9337
 3909TIP3    H233363   4.968   0.386   1.585 -0.6126  0.5944 -0.5560
 3910TIP3   OH233364   0.681   2.876   8.196 -0.6349  0.5053  0.4472
 3910TIP3    H133365   0.700   2.870   8.290  1.6079  0.4214  0.0284
 3910TIP3    H233366   0.668   2.785   8.168  2.3266  0.1014  0.0535
 3911TIP3   OH233367   6.057   4.125   0.422 -0.5622 -0.4397 -0.5450
 3911TIP3    H133368   5.966   4.138   0.450 -0.1317  0.2015  0.6046
 3911TIP3    H233369   6.109   4.138   0.501  0.5516 -0.6653 -1.2173
 3912TIP3   OH233370   4.042   5.419   3.203 -0.0613 -0.5396  0.2286
 3912TIP3    H133371   4.083   5.370   3.131 -0.0142 -0.6988  0.3640
 3912TIP3    H233372   4.068   5.510   3.187  0.3044 -0.6325  0.2848
 3913TIP3   OH233373   3.809   5.893   1.631  0.4557 -0.4311  0.3275
 3913TIP3    H133374   3.740   5.879   1.696  0.6711 -2.4215  0.2039
 3913TIP3    H233375   3.885   5.919   1.683  0.5599 -1.7621  0.8886
 3914TIP3   OH233376   0.112   0.488   1.416 -0.0213 -0.5427  0.0078
 3914TIP3    H133377   0.178   0.550   1.447  0.2987 -0.0939 -1.4694
 3914TIP3    H233378   0.131   0.477   1.323 -0.9350 -1.8007 -0.0659
 3915TIP3   OH233379   0.546   0.019   2.278  0.8780  0.5557  0.5321
 3915TIP3    H133380   0.561   0.108   2.244 -2.0595  0.5826 -1.0732
 3915TIP3    H233381   0.624  -0.030   2.252  2.9292  2.7500  2.1012
 3916TIP3   OH233382   6.064   4.252   3.997  0.3174 -0.1820  0.0191
 3916TIP3    H133383   6.089   4.243   4.088  0.6585  0.1042 -0.0460
 3916TIP3    H233384   5.980   4.298   4.000 -0.1412 -1.0069  0.2261
 3917TIP3   OH233385   2.397   2.697   2.791 -0.9864 -0.7029  0.2857
 3917TIP3    H133386   2.357   2.778   2.822 -0.1767 -0.1683 -0.0256
 3917TIP3    H233387   2.491   2.715   2.794 -0.8522 -0.9792 -1.5337
 3918TIP3   OH233388   2.830   0.823   2.764 -0.1502 -0.0553  0.0415
 3918TIP3    H133389   2.740   0.855   2.758  0.3329  1.2221 -0.8374
 3918TIP3    H233390   2.843   0.772   2.684 -0.0536 -0.1847  0.1373
 3919TIP3   OH233391   1.592   4.457   8.200 -0.0438  0.2092  0.0924
 3919TIP3    H133392   1.572   4.539   8.244  0.7490  1.1002 -1.1396
 3919TIP3    H233393   1.510   4.408   8.203 -0.6130  1.1519  0.6036
 3920TIP3   OH233394   3.228   2.678   0.634 -0.0915 -0.0795 -0.0711
 3920TIP3    H133395   3.176   2.617   0.687  1.0258 -0.2614  0.8546
 3920TIP3    H233396   3.211   2.652   0.544  0.3628 -1.7905  0.3030
 3921TIP3   OH233397   4.240   1.712   2.162  0.4938 -0.5377 -0.1640
 3921TIP3    H133398   4.326   1.710   2.204  0.3353 -0.8188  0.1440
 3921TIP3    H233399   4.250   1.656   2.085  1.7562  2.4384 -2.3974
 3922TIP3   OH233400   2.572   2.977   0.920 -0.0583  0.3997 -0.6454
 3922TIP3    H133401   2.603   2.903   0.869 -0.1729  0.4733 -0.8226
 3922TIP3    H233402   2.651   3.028   0.938  0.1057 -0.0435 -0.0600
 3923TIP3   OH233403   5.863   3.975   1.284 -0.2798 -0.9721  0.7140
 3923TIP3    H133404   5.807   4.052   1.285 -1.5448 -1.8399  2.4119
 3923TIP3    H233405   5.908   3.978   1.200 -0.4831  1.4552  0.6451
 3924TIP3   OH233406   5.680   5.000   0.312  0.0514  0.0889 -0.1846
 3924TIP3    H133407   5.600   5.049   0.331 -0.7957 -0.3561 -2.2595
 3924TIP3    H233408   5.655   4.908   0.324  0.4369 -0.0168 -0.1886
 3925TIP3   OH233409   0.651   6.878   3.098  0.1340 -0.2473 -0.0471
 3925TIP3    H133410   0.603   6.960   3.112 -0.2333 -0.5022  0.1887
 3925TIP3    H233411   0.631   6.854   3.008  0.2709 -0.0612 -0.1286
 3926TIP3   OH233412   1.263   5.571   3.244  0.0546  0.4681  0.1008
 3926TIP3    H133413   1.290   5.663   3.233 -0.1503  0.3704 -1.4618
 3926TIP3    H233414   1.173   5.569   3.213  0.4744 -0.5021 -1.1353
 3927TIP3   OH233415   1.126   1.940   1.051  0.0384 -0.2053  0.1174
 3927TIP3    H133416   1.100   1.982   0.969 -0.9425  0.9776  0.9977
 3927TIP3    H233417   1.221   1.931   1.045  0.0082  0.1665 -1.0056
 3928TIP3   OH233418   5.614   0.933   0.288 -0.1601  0.2960 -0.7999
 3928TIP3    H133419   5.623   0.951   0.194 -0.5951  0.5671 -0.7918
 3928TIP3    H233420   5.639   1.016   0.330  1.5855 -0.2885 -0.6006
 3929TIP3   OH233421   6.262   3.838   3.844 -0.3609 -0.6255 -0.4675
 3929TIP3    H133422   6.217   3.761   3.880 -0.7025 -0.0303  0.4022
 3929TIP3    H233423   6.264   3.822   3.750 -0.7124 -1.5517 -0.3301
 3930TIP3   OH233424   0.599   5.002   3.510 -0.7584  0.2929 -0.0437
 3930TIP3    H133425   0.557   4.967   3.432 -1.0130  1.0482 -0.2524
 3930TIP3    H233426   0.529   5.010   3.575 -0.1276 -2.7869  1.1960
 3931TIP3   OH233427   6.118   0.329   2.726 -0.2553  0.0647  0.1670
 3931TIP3    H133428   6.203   0.317   2.769 -0.5107 -2.6273  0.1011
 3931TIP3    H233429   6.053   0.315   2.795 -0.7118  2.1634  0.2277
 3932TIP3   OH233430   4.675   3.093   0.487 -0.7136  0.2325  0.0611
 3932TIP3    H133431   4.648   3.173   0.533 -0.1709 -0.6119  1.9260
 3932TIP3    H233432   4.610   3.028   0.513 -0.1929 -0.3484 -0.0865
 3933TIP3   OH233433   4.637   1.274   0.023 -0.1886  0.1565  0.3989
 3933TIP3    H133434   4.681   1.327  -0.044 -0.2174  1.7303  1.5756
 3933TIP3    H233435   4.683   1.190   0.021  2.0363  1.3002  0.6879
 3934TIP3   OH233436   1.451   0.028   2.275 -0.6061  0.2723  0.3538
 3934TIP3    H133437   1.486  -0.032   2.341 -0.3987  0.7173  0.6593
 3934TIP3    H233438   1.526   0.050   2.220 -0.5893  0.5729  0.4952
 3935TIP3   OH233439   3.081   6.926   1.771 -0.0588  0.0046 -0.3444
 3935TIP3    H133440   3.099   6.833   1.753  1.9124  0.2810 -0.0730
 3935TIP3    H233441   3.145   6.973   1.718 -0.0349  1.1522  0.6776
 3936TIP3   OH233442   1.461   5.293   0.351 -0.4398  0.2981  0.2688
 3936TIP3    H133443   1.545   5.333   0.327 -0.1697  1.0057  2.1730
 3936TIP3    H233444   1.485   5.211   0.394 -0.8182 -0.2756 -0.6081
 3937TIP3   OH233445   1.152   6.490   2.189  0.0798  0.1436 -0.2469
 3937TIP3    H133446   1.128   6.426   2.122  1.5597 -0.3821 -0.3222
 3937TIP3    H233447   1.152   6.574   2.143  0.3439 -0.1133 -0.7225
 3938TIP3   OH233448   4.560   5.263   2.093 -0.2301  0.0741  0.0259
 3938TIP3    H133449   4.644   5.234   2.057  1.1808  3.3995  0.2121
 3938TIP3    H233450   4.522   5.185   2.131  2.1981 -1.8404 -1.1558
 3939TIP3   OH233451   0.090   2.469   0.508 -0.3793  0.2290 -0.1993
 3939TIP3    H133452   0.115   2.546   0.456 -0.9205 -0.5341 -1.6659
 3939TIP3    H233453   0.031   2.503   0.575  1.8048  1.5463  1.1861
 3940TIP3   OH233454   2.634   6.236   0.884 -0.4653 -0.3789  0.3291
 3940TIP3    H133455   2.687   6.290   0.942 -0.9627  0.0163  0.4262
 3940TIP3    H233456   2.696   6.201   0.820 -0.0531 -0.1115  0.5777
 3941TIP3   OH233457   6.550   0.183   0.180  0.2141 -0.0155 -0.2214
 3941TIP3    H133458   6.583   0.251   0.122 -0.0188  0.2075 -0.0981
 3941TIP3    H233459   6.525   0.230   0.260  0.8812 -0.3711  0.1994
 3942TIP3   OH233460   5.163   5.698   2.959 -0.5753 -0.1714  0.0246
 3942TIP3    H133461   5.246   5.682   3.003 -1.1493 -1.0403  0.8493
 3942TIP3    H233462   5.107   5.626   2.989 -1.3177 -0.1641 -1.2866
 3943TIP3   OH233463   3.097   2.408   2.204 -0.0707 -0.4205 -0.5542
 3943TIP3    H133464   3.158   2.334   2.196  0.6319  0.0787  0.0314
 3943TIP3    H233465   3.021   2.372   2.249  0.6698 -0.5831  0.6162
 3944TIP3   OH233466   3.440   2.589   8.197  0.2524 -0.1257  0.5233
 3944TIP3    H133467   3.510   2.585   8.262  0.0401 -0.1922  0.7475
 3944TIP3    H233468   3.442   2.504   8.154  0.0764 -0.2555  0.7721
 3945TIP3   OH233469   2.478   4.707   1.235 -0.0464  0.2584 -0.4871
 3945TIP3    H133470   2.479   4.799   1.260 -1.0792  0.0666  0.3843
 3945TIP3    H233471   2.478   4.707   1.140  2.2573  1.0836 -0.5402
 3946TIP3   OH233472   0.889   4.748   1.544  0.1655  0.4735  0.1687
 3946TIP3    H133473   0.802   4.736   1.507  0.2598 -0.0009  0.1067
 3946TIP3    H233474   0.893   4.688   1.618 -0.2888  1.9109  1.4227
 3947TIP3   OH233475   2.599   0.061   1.271  0.3898  0.1552  0.4175
 3947TIP3    H133476   2.551   0.022   1.198  0.4017 -0.3540  0.6761
 3947TIP3    H233477   2.690   0.036   1.255  0.8041  2.1625 -0.7556
 3948TIP3   OH233478   3.592   1.977   2.360 -0.0266 -0.3972  0.3407
 3948TIP3    H133479   3.501   1.970   2.388 -0.3642  1.2889 -0.2120
 3948TIP3    H233480   3.637   2.019   2.433  0.7051 -2.6423  1.2731
 3949TIP3   OH233481   5.689   2.377   1.294  0.6917  0.6543  0.0870
 3949TIP3    H133482   5.733   2.461   1.277  1.1621  0.4622  0.3433
 3949TIP3    H233483   5.754   2.325   1.341 -0.1109  0.6869  1.2716
 3950TIP3   OH233484   2.618   4.203   1.076 -0.1018  0.5497 -0.5992
 3950TIP3    H133485   2.632   4.288   1.117 -0.1908  0.1243  0.3495
 3950TIP3    H233486   2.597   4.223   0.985  2.2905  1.4294 -1.0332
 3951TIP3   OH233487   2.609   4.829   2.451 -0.2181 -0.2021 -0.2229
 3951TIP3    H133488   2.611   4.903   2.390  0.0571  0.3663  0.4683
 3951TIP3    H233489   2.578   4.867   2.533  0.6357 -0.7038  0.3392
 3952TIP3   OH233490   5.119   5.840   3.260 -0.1872  0.1457  0.2637
 3952TIP3    H133491   5.103   5.877   3.173  0.0928 -1.7563 -0.6503
 3952TIP3    H233492   5.035   5.847   3.304 -0.1995  1.6318  0.0789
 3953TIP3   OH233493   0.991   6.658   1.029  0.1045  0.1482  0.5488
 3953TIP3    H133494   0.933   6.602   0.977 -0.0761  0.9935 -0.1852
 3953TIP3    H233495   0.963   6.747   1.009 -1.1213  0.4938  3.4582
 3954TIP3   OH233496   6.312   4.094   3.791 -0.0048  0.2342 -0.1575
 3954TIP3    H133497   6.222   4.123   3.805  0.3161  0.4587  1.8733
 3954TIP3    H233498   6.311   4.000   3.808  0.1544  0.2514 -0.0458
 3955TIP3   OH233499   0.435   6.615   1.564  0.3793 -0.4380 -0.2391
 3955TIP3    H133500   0.479   6.699   1.557  0.5587 -0.6268 -1.5503
 3955TIP3    H233501   0.421   6.603   1.658  0.0298  1.2155 -0.0490
 3956TIP3   OH233502   2.098   5.262   3.695 -0.2514 -0.3035 -0.3402
 3956TIP3    H133503   2.113   5.240   3.787  0.4276 -1.1438 -0.6378
 3956TIP3    H233504   2.003   5.257   3.684 -0.3007 -0.6603  0.2004
 3957TIP3   OH233505   2.731   1.352   1.064  0.0482 -0.2109  0.4846
 3957TIP3    H133506   2.785   1.403   1.005  0.5323 -0.5899  0.5973
 3957TIP3    H233507   2.762   1.262   1.054  0.1168 -0.2842  1.2901
 3958TIP3   OH233508   0.419   6.155   3.201 -0.5377  0.3403  0.1831
 3958TIP3    H133509   0.497   6.195   3.164 -0.5403  0.9832  0.8405
 3958TIP3    H233510   0.369   6.229   3.236 -0.2914 -0.2545  1.9072
 3959TIP3   OH233511   2.075   0.997   2.499  0.5613 -0.2695  0.0040
 3959TIP3    H133512   2.050   0.971   2.588  0.1660 -0.2746 -0.1074
 3959TIP3    H233513   2.161   1.039   2.510  0.7287 -0.6802  0.3273
 3960TIP3   OH233514   5.195   1.219   0.790 -0.1559  0.3913 -0.0596
 3960TIP3    H133515   5.271   1.221   0.848 -1.5988  1.8204  1.9190
 3960TIP3    H233516   5.140   1.292   0.820 -2.4383 -0.7571 -1.2100
 3961TIP3   OH233517   6.389   6.163   2.726 -0.4903  0.1960 -0.4076
 3961TIP3    H133518   6.358   6.248   2.692 -1.6524 -0.0399  0.0051
 3961TIP3    H233519   6.412   6.114   2.647  1.2961  1.2653 -0.6129
 3962TIP3   OH233520   1.348   3.821   0.251  0.3329  0.2625  0.2343
 3962TIP3    H133521   1.348   3.850   0.159 -2.1947  0.2231  0.1582
 3962TIP3    H233522   1.294   3.886   0.296 -1.9367 -1.9178  0.8696
 3963TIP3   OH233523   0.427   5.207   0.372  0.8204  0.6126  0.0302
 3963TIP3    H133524   0.369   5.136   0.345 -1.9009  1.9951  1.7876
 3963TIP3    H233525   0.473   5.232   0.292  0.1137 -1.5468 -1.1281
 3964TIP3   OH233526   3.439   3.474   1.337  0.6618 -0.1247  0.2619
 3964TIP3    H133527   3.455   3.404   1.399  0.9703  0.4816  0.8758
 3964TIP3    H233528   3.525   3.513   1.321  0.6145 -0.3732 -0.6753
 3965TIP3   OH233529   6.375   1.749   3.555 -0.1324 -0.2138 -0.2297
 3965TIP3    H133530   6.426   1.765   3.476 -0.4517  1.3094 -0.1592
 3965TIP3    H233531   6.353   1.655   3.551  2.1953 -0.8009 -0.4987
 3966TIP3   OH233532   4.290   1.995   2.679  0.4309  0.5051 -0.4434
 3966TIP3    H133533   4.261   1.945   2.755  2.4998  0.4878  0.3787
 3966TIP3    H233534   4.275   2.086   2.702  2.4210  0.5923  0.6331
 3967TIP3   OH233535   0.876   4.837   3.099 -0.3935  0.4096 -0.1331
 3967TIP3    H133536   0.836   4.796   3.176 -0.8369  1.2825  0.1136
 3967TIP3    H233537   0.815   4.905   3.074 -1.7457 -1.6539 -3.0412
 3968TIP3   OH233538   0.117   2.330   2.328 -0.0793  0.1637  0.3414
 3968TIP3    H133539   0.121   2.239   2.298 -0.2135  0.7746 -1.6748
 3968TIP3    H233540   0.194   2.372   2.291 -0.0069  0.8862  1.2603
 3969TIP3   OH233541   6.615   3.185   0.835  0.0498 -0.5781  0.0915
 3969TIP3    H133542   6.533   3.157   0.876  0.0977 -1.2033 -0.2165
 3969TIP3    H233543   6.648   3.255   0.892 -0.7988 -0.1746  0.1006
 3970TIP3   OH233544   5.772   1.592   4.260  0.1255  0.4088  0.0535
 3970TIP3    H133545   5.770   1.534   4.336  0.5337  0.3363  0.0128
 3970TIP3    H233546   5.690   1.642   4.265 -0.4874 -0.5398 -0.2077
 3971TIP3   OH233547   4.653   0.631   3.185 -0.5479 -0.3683  0.3940
 3971TIP3    H133548   4.571   0.584   3.201 -1.3609  1.1822  1.0363
 3971TIP3    H233549   4.635   0.683   3.106  1.3620 -3.3000 -2.1927
 3972TIP3   OH233550   6.844   4.035   1.709 -0.0339 -0.0980  0.4412
 3972TIP3    H133551   6.900   3.958   1.724 -1.1981 -1.5137 -1.9298
 3972TIP3    H233552   6.772   4.023   1.770 -0.0792 -0.7677  0.2652
 3973TIP3   OH233553   4.487   4.880   3.708 -0.5717 -0.5520 -0.1995
 3973TIP3    H133554   4.560   4.912   3.761 -1.8684  3.1823 -0.3260
 3973TIP3    H233555   4.410   4.893   3.763 -1.3621 -2.6489 -0.7400
 3974TIP3   OH233556   4.644   0.870   1.514 -0.6987 -0.1965  0.2074
 3974TIP3    H133557   4.620   0.777   1.506 -0.7850 -0.2928  1.4371
 3974TIP3    H233558   4.720   0.870   1.572 -1.3835  0.5723  1.1391
 3975TIP3   OH233559   2.734   2.441   1.611  0.1867  0.2342 -0.3320
 3975TIP3    H133560   2.778   2.401   1.536  1.0448 -2.3989  1.4233
 3975TIP3    H233561   2.770   2.529   1.617  0.6134  0.2500 -2.5674
 3976TIP3   OH233562   3.916   3.125   0.983  0.2874 -0.1337  0.2077
 3976TIP3    H133563   3.859   3.107   0.908  0.0641 -0.5700  0.4780
 3976TIP3    H233564   3.913   3.045   1.035  0.4396  0.1663  0.6840
 3977TIP3   OH233565   2.386   3.135   1.080 -0.2491 -0.6748 -0.5598
 3977TIP3    H133566   2.447   3.096   1.017 -1.0215  0.8088 -2.3043
 3977TIP3    H233567   2.439   3.147   1.159  1.5959  0.0690 -1.8385
 3978TIP3   OH233568   6.714   1.753   0.059  0.6000 -0.6941 -0.3823
 3978TIP3    H133569   6.708   1.667   0.018  1.2331 -1.9373  2.0163
 3978TIP3    H233570   6.806   1.777   0.050  0.4479 -0.2851 -0.9395
 3979TIP3   OH233571   6.740   3.999   3.240  0.0373  0.2631 -0.1930
 3979TIP3    H133572   6.648   4.006   3.214  0.5131  2.8468 -1.5279
 3979TIP3    H233573   6.788   4.047   3.173  2.0820  1.4378  1.9407
 3980TIP3   OH233574   5.285   2.734   8.242 -0.3712  0.0998  0.1390
 3980TIP3    H133575   5.197   2.754   8.208 -0.4463  1.2217  0.9529
 3980TIP3    H233576   5.344   2.753   8.169 -0.5508  2.2906  0.4987
 3981TIP3   OH233577   4.841   1.874   8.326  0.4948 -0.1229 -1.2241
 3981TIP3    H133578   4.758   1.837   8.296 -0.1752  1.7030 -1.7509
 3981TIP3    H233579   4.843   1.963   8.290  1.2104  1.0252  1.3977
 3982TIP3   OH233580   5.986   1.846   1.804  0.4058 -0.0253 -0.5974
 3982TIP3    H133581   6.014   1.923   1.855 -0.0888  0.6136 -1.2641
 3982TIP3    H233582   6.062   1.788   1.806  0.7344  0.4056  0.0582
 3983TIP3   OH233583   4.092   6.217   3.471  0.2189  0.0507  0.2304
 3983TIP3    H133584   4.092   6.127   3.439  2.2023 -0.9977  2.8275
 3983TIP3    H233585   4.017   6.220   3.530  1.5068 -0.7285  1.9932
 3984TIP3   OH233586   3.713   3.568   1.373  0.3722 -0.4625 -0.4141
 3984TIP3    H133587   3.801   3.577   1.336  0.3218  0.0181 -0.4253
 3984TIP3    H233588   3.681   3.658   1.381  0.5499 -0.5052  1.2156
 3985TIP3   OH233589   6.573   1.755   4.323  0.3748 -0.3386  0.2676
 3985TIP3    H133590   6.582   1.677   4.269  0.2534 -0.7774  0.8710
 3985TIP3    H233591   6.657   1.800   4.315  0.0973  0.0160 -0.8972
 3986TIP3   OH233592   5.523   5.217   2.262  0.0016 -0.4860  0.3835
 3986TIP3    H133593   5.514   5.164   2.341 -1.4033 -2.6086 -1.0954
 3986TIP3    H233594   5.498   5.305   2.289 -0.5886 -1.1879  2.2477
 3987TIP3   OH233595   0.020   5.466   0.080  0.3907  0.2925  0.2067
 3987TIP3    H133596   0.089   5.449   0.016  0.6115  0.2407  0.4563
 3987TIP3    H233597  -0.024   5.382   0.090  0.3538  0.3014  0.1192
 3988TIP3   OH233598   6.176   6.271   0.887 -0.4154  0.5278  0.4639
 3988TIP3    H133599   6.160   6.202   0.823 -2.2527  1.3891 -0.0900
 3988TIP3    H233600   6.096   6.273   0.940  0.6757  0.4921  2.1794
 3989TIP3   OH233601   4.475   4.892   4.295  0.1257  0.4653 -0.1200
 3989TIP3    H133602   4.479   4.904   4.200 -1.8746 -2.9517 -0.8223
 3989TIP3    H233603   4.533   4.818   4.312  1.0349  1.4934  1.5203
 3990TIP3   OH233604   0.304   0.425   0.830 -0.1565 -0.3357  0.3893
 3990TIP3    H133605   0.321   0.367   0.904  0.9859 -1.3678 -0.6289
 3990TIP3    H233606   0.214   0.405   0.804 -0.3189 -0.4787  1.0481
 3991TIP3   OH233607   0.613   3.437   0.168  0.5499 -0.6807  0.1325
 3991TIP3    H133608   0.549   3.370   0.190  0.9224 -1.1920 -0.3228
 3991TIP3    H233609   0.667   3.446   0.247  0.1568 -0.5113  0.3866
 3992TIP3   OH233610   3.071   2.408   1.926  0.0171 -0.5380 -0.5797
 3992TIP3    H133611   3.086   2.408   2.021 -1.5317 -1.4454 -0.2807
 3992TIP3    H233612   2.979   2.435   1.917  0.5245  0.8621 -1.9301
 3993TIP3   OH233613   2.158   2.320   1.001 -0.2866 -0.5929 -0.6898
 3993TIP3    H133614   2.102   2.247   0.975  1.6141 -1.9817 -1.0424
 3993TIP3    H233615   2.116   2.355   1.080 -2.2595 -0.8129 -1.5665
 3994TIP3   OH233616   2.482   4.375   3.801 -0.1137  0.0810  0.0996
 3994TIP3    H133617   2.404   4.378   3.745  0.8721  0.8632 -1.2786
 3994TIP3    H233618   2.530   4.298   3.772  0.3776  0.4605 -0.1197
 3995TIP3   OH233619   3.532   6.688   8.518 -0.4671 -0.4578  0.0204
 3995TIP3    H133620   3.531   6.685   8.613  0.2112 -0.8490  0.0230
 3995TIP3    H233621   3.443   6.665   8.492 -0.4564 -1.1030  0.5396
 3996TIP3   OH233622   3.784   0.126   8.252 -0.2783  0.1886 -0.0922
 3996TIP3    H133623   3.747   0.214   8.262 -0.6486 -0.1796  2.3501
 3996TIP3    H233624   3.742   0.075   8.321  3.4780 -0.6910  1.7978
 3997TIP3   OH233625   1.515   2.032   2.359 -0.7410  1.2630  0.2116
 3997TIP3    H133626   1.534   1.950   2.406  0.2275  1.4043  0.0948
 3997TIP3    H233627   1.555   2.100   2.413 -0.5586  1.5410 -0.2731
 3998TIP3   OH233628   4.826   0.909   0.731  0.0313 -0.0461 -0.1161
 3998TIP3    H133629   4.808   0.963   0.808 -0.2966  0.3473 -0.4661
 3998TIP3    H233630   4.857   0.971   0.665 -2.4104  0.0881 -1.2533
 3999TIP3   OH233631   3.039   3.888   8.262 -0.3039  0.0340  0.3222
 3999TIP3    H133632   3.063   3.978   8.285 -0.3364  0.2120 -0.3363
 3999TIP3    H233633   3.094   3.867   8.186 -0.0030 -0.6465  0.7119
 4000TIP3   OH233634   6.514   2.202   3.374 -0.2817  0.2888 -0.2989
 4000TIP3    H133635   6.521   2.107   3.374  2.1336  0.3378  2.3305
 4000TIP3    H233636   6.421   2.220   3.384 -0.7632 -1.7786 -0.6321
 4001TIP3   OH233637   4.537   5.187   2.694 -0.0550  0.0274 -0.3479
 4001TIP3    H133638   4.609   5.145   2.741 -0.1187 -1.5383 -1.5986
 4001TIP3    H233639   4.573   5.272   2.667  0.7207  0.0012  0.5286
 4002TIP3   OH233640   5.216   0.356   3.626 -0.7215 -0.1547 -0.2714
 4002TIP3    H133641   5.173   0.433   3.589  1.2087  1.5923  0.8808
 4002TIP3    H233642   5.251   0.386   3.710 -0.8472 -2.6260  0.7625
 4003TIP3   OH233643   1.469   4.164   0.351  0.0424 -1.0346 -0.8245
 4003TIP3    H133644   1.560   4.184   0.374 -0.8755 -0.1606  2.5198
 4003TIP3    H233645   1.452   4.220   0.275  1.3615  1.3744  0.5317
 4004TIP3   OH233646   0.647   2.714   3.588  0.3564 -0.1014  0.1084
 4004TIP3    H133647   0.722   2.654   3.588  0.2440 -0.2506  1.1197
 4004TIP3    H233648   0.593   2.684   3.515  0.8952 -0.4809 -0.1388
 4005TIP3   OH233649   1.320   0.273   2.450  0.1764  0.0558 -0.3726
 4005TIP3    H133650   1.256   0.300   2.515  0.4014  1.0563 -0.5598
 4005TIP3    H233651   1.339   0.352   2.400  1.3278 -0.2959 -0.5214
 4006TIP3   OH233652   6.866   4.163   0.643 -0.2472  0.2373 -0.0283
 4006TIP3    H133653   6.841   4.230   0.707  0.1418 -0.0702  0.4594
 4006TIP3    H233654   6.933   4.111   0.688  0.5722  0.4639 -0.9540
 4007TIP3   OH233655   1.446   5.121   3.822  0.0120 -0.3833 -0.2278
 4007TIP3    H133656   1.521   5.175   3.847  0.4213 -0.6065 -0.9439
 4007TIP3    H233657   1.405   5.096   3.905  1.9431 -1.9863  0.3071
 4008TIP3   OH233658   1.915   6.292   0.159 -0.6240 -0.2579 -0.2731
 4008TIP3    H133659   2.000   6.296   0.115  0.3392  0.5683  1.5452
 4008TIP3    H233660   1.894   6.199   0.161 -0.5702 -0.3487 -2.1616
 4009TIP3   OH233661   2.849   5.311   0.241  0.3763 -0.5019 -0.4418
 4009TIP3    H133662   2.879   5.401   0.256 -0.0399 -0.5523  0.8065
 4009TIP3    H233663   2.824   5.309   0.149  1.0959  0.4452 -0.6752
 4010TIP3   OH233664   2.879   1.267   3.336 -0.2217  0.4615 -0.4175
 4010TIP3    H133665   2.924   1.183   3.350 -1.1011  0.1217  0.5388
 4010TIP3    H233666   2.949   1.332   3.341  0.2519 -0.0889  0.4722
 4011TIP3   OH233667   6.517   4.918   2.742  0.2772 -0.0334  0.0975
 4011TIP3    H133668   6.491   5.000   2.700 -2.4021 -0.0578  1.5141
 4011TIP3    H233669   6.542   4.943   2.831  1.4332 -0.5492 -0.0552
 4012TIP3   OH233670   5.348   0.124   3.329 -0.1950  0.0234  0.5695
 4012TIP3    H133671   5.311   0.094   3.412  0.7386 -1.1459  0.5890
 4012TIP3    H233672   5.345   0.220   3.335 -3.1059  0.0166  0.5696
 4013TIP3   OH233673   3.501   4.625   3.408  0.7855 -0.2780 -0.0414
 4013TIP3    H133674   3.555   4.672   3.344 -1.6641  2.3948 -0.3358
 4013TIP3    H233675   3.413   4.658   3.393 -0.5792 -2.7402  1.9653
 4014TIP3   OH233676   5.603   5.125   3.557  0.2176  0.4986  0.0170
 4014TIP3    H133677   5.575   5.042   3.596 -2.4300  1.8463  1.2433
 4014TIP3    H233678   5.571   5.122   3.467 -0.1612  0.3366  0.1584
 4015TIP3   OH233679   1.828   4.416   0.820 -0.4369  0.3889 -0.0495
 4015TIP3    H133680   1.838   4.461   0.904 -0.9646 -2.2180  1.5427
 4015TIP3    H233681   1.902   4.355   0.817  0.4368  1.4358 -2.2645
 4016TIP3   OH233682   2.217   2.589   0.991  0.2609 -0.0246 -0.0116
 4016TIP3    H133683   2.126   2.618   0.987 -0.3098 -1.6117  0.5404
 4016TIP3    H233684   2.214   2.498   0.961  1.4913 -0.4549  1.0893
 4017TIP3   OH233685   0.402   6.284   8.428 -0.1708 -0.2140  0.4412
 4017TIP3    H133686   0.375   6.219   8.363  0.7957  0.5061 -0.7160
 4017TIP3    H233687   0.395   6.368   8.383  0.7348  0.2860  1.1956
 4018TIP3   OH233688   0.892   4.370   0.091  0.0622 -0.1842 -0.1180
 4018TIP3    H133689   0.865   4.460   0.075  1.9793  0.2979 -0.9673
 4018TIP3    H233690   0.828   4.317   0.043  0.4450  0.8843 -1.9236
 4019TIP3   OH233691   6.242   6.179   1.361  0.3090  0.3917 -1.0962
 4019TIP3    H133692   6.286   6.220   1.436 -2.1140  0.4337  0.4191
 4019TIP3    H233693   6.255   6.241   1.289 -1.1086  2.6585  0.4780
 4020TIP3   OH233694   6.313   1.912   1.125 -0.0739  0.1608 -0.6152
 4020TIP3    H133695   6.217   1.916   1.130 -0.0112  1.4298 -0.0218
 4020TIP3    H233696   6.334   1.953   1.041  0.0308  2.3601  0.4049
 4021TIP3   OH233697   2.473   4.167   7.933 -0.0520  0.3040 -0.0000
 4021TIP3    H133698   2.518   4.093   7.891 -0.1855 -0.6047  1.3540
 4021TIP3    H233699   2.380   4.144   7.928 -0.2265  1.1731 -0.9684
 4022TIP3   OH233700   5.641   5.601   2.723 -0.1883 -0.8182  0.0723
 4022TIP3    H133701   5.606   5.674   2.773  0.4294 -0.8675  0.5912
 4022TIP3    H233702   5.694   5.552   2.786  1.5843 -0.2315 -0.9030
 4023TIP3   OH233703   5.354   2.723   3.409  0.2722 -0.0169  0.0905
 4023TIP3    H133704   5.316   2.810   3.427 -1.2158 -0.6379  0.1062
 4023TIP3    H233705   5.278   2.666   3.400  1.2414 -1.4759  0.7980
 4024TIP3   OH233706   0.901   1.723   0.742 -0.4952 -0.2399  0.2661
 4024TIP3    H133707   0.941   1.645   0.779  0.3831  0.7246  1.4436
 4024TIP3    H233708   0.863   1.768   0.818 -1.5520  0.1531 -0.4837
 4025TIP3   OH233709   4.879   1.088   8.105 -0.2069 -0.2095  0.4552
 4025TIP3    H133710   4.837   1.024   8.048 -2.2803 -0.6618  2.3522
 4025TIP3    H233711   4.970   1.060   8.111 -0.2711 -0.9235 -1.4881
 4026TIP3   OH233712   4.129   5.556   2.247 -0.2029  0.8036 -0.6026
 4026TIP3    H133713   4.075   5.483   2.279  0.3611  0.8900  0.6279
 4026TIP3    H233714   4.206   5.556   2.305  0.9416  0.9250 -2.0684
 4027TIP3   OH233715   1.052   0.407   1.945 -0.5344  0.1928 -0.3021
 4027TIP3    H133716   1.142   0.381   1.925 -0.3596  0.7255 -0.2499
 4027TIP3    H233717   0.999   0.359   1.882 -0.0914  0.8963 -1.2586
 4028TIP3   OH233718   3.914   3.869   1.864 -0.3865 -0.0095 -0.0841
 4028TIP3    H133719   3.941   3.881   1.956 -1.3891 -0.1143  0.2358
 4028TIP3    H233720   3.986   3.907   1.813  0.6699 -0.8894  0.7132
 4029TIP3   OH233721   0.775   6.778   3.491 -0.8777  0.1037 -0.2712
 4029TIP3    H133722   0.686   6.746   3.479 -0.9101  0.8897 -2.7605
 4029TIP3    H233723   0.808   6.731   3.568 -2.7586 -1.6701 -0.4765
 4030TIP3   OH233724   3.756   5.929   1.997 -0.2911 -0.3254 -0.1643
 4030TIP3    H133725   3.701   5.938   1.920  1.0377  2.7389 -0.9051
 4030TIP3    H233726   3.781   5.837   1.999 -1.5292 -0.7606 -2.5558
 4031TIP3   OH233727   4.619   5.330   0.099  0.0834 -0.1068 -0.0678
 4031TIP3    H133728   4.650   5.325   0.009 -0.4706 -0.9286 -0.2307
 4031TIP3    H233729   4.681   5.388   0.143  0.6520 -0.1016 -0.8511
 4032TIP3   OH233730   3.565   5.435   0.527 -0.5447  0.6191 -0.1067
 4032TIP3    H133731   3.502   5.502   0.500 -0.8809  0.0789 -0.6890
 4032TIP3    H233732   3.645   5.484   0.544 -0.5192  1.0834 -1.3936
 4033TIP3   OH233733   1.456   6.762   1.129  0.4615 -0.6923  0.3888
 4033TIP3    H133734   1.373   6.720   1.152  0.1884 -0.5293 -0.2920
 4033TIP3    H233735   1.521   6.717   1.183 -0.1333 -0.4722  1.3116
 4034TIP3   OH233736   1.280   0.207   0.495  0.1521 -0.2209  0.2503
 4034TIP3    H133737   1.353   0.200   0.434  0.0818  1.4816 -0.0759
 4034TIP3    H233738   1.208   0.160   0.452  0.5420 -0.3800 -0.2365
 4035TIP3   OH233739   3.651   0.503   3.308 -0.5226 -0.2678 -0.0993
 4035TIP3    H133740   3.688   0.514   3.220  0.2171 -0.2504  0.2062
 4035TIP3    H233741   3.650   0.592   3.344  0.7566 -0.4797  0.5204
 4036TIP3   OH233742   1.585   3.149   2.667  0.0577  0.7089  0.0788
 4036TIP3    H133743   1.593   3.061   2.630  1.1424  1.0468 -0.5241
 4036TIP3    H233744   1.587   3.135   2.762 -2.6118 -0.1491  0.1053
 4037TIP3   OH233745   0.082   1.119   1.147 -0.0225 -0.5234  0.2631
 4037TIP3    H133746   0.114   1.108   1.237 -0.5080 -0.7347  0.4096
 4037TIP3    H233747   0.150   1.077   1.093  0.5289  0.0579  0.4849
 4038TIP3   OH233748   5.294   4.206   8.283  0.1156  0.2116 -0.0201
 4038TIP3    H133749   5.370   4.230   8.231  0.3907  1.2480  0.8256
 4038TIP3    H233750   5.258   4.129   8.240  0.4328  0.9407 -1.6351
 4039TIP3   OH233751   5.467   3.125   0.106 -0.4570  0.0799  0.3267
 4039TIP3    H133752   5.487   3.209   0.147 -1.3922  0.5195 -0.0655
 4039TIP3    H233753   5.495   3.059   0.169 -0.6476  0.7114  1.0876
 4040TIP3   OH233754   6.228   2.180   3.399 -0.5030  0.3992 -0.0340
 4040TIP3    H133755   6.227   2.234   3.478  1.0939  1.7933 -0.8918
 4040TIP3    H233756   6.136   2.165   3.379 -0.9480 -0.1381  2.1506
 4041TIP3   OH233757   1.794   3.794   4.371 -0.1850  0.2297  0.2354
 4041TIP3    H133758   1.854   3.743   4.425 -0.1382  0.0805  0.0445
 4041TIP3    H233759   1.823   3.777   4.281 -1.3755 -0.9364  0.0588
 4042TIP3   OH233760   2.691   0.350   3.488 -0.0555 -0.0832  0.3162
 4042TIP3    H133761   2.615   0.315   3.440 -2.2343  3.6388  0.5933
 4042TIP3    H233762   2.699   0.295   3.565 -1.1115 -1.8590 -0.7720
 4043TIP3   OH233763   5.131   3.492   8.245 -0.2058  0.1371  0.6395
 4043TIP3    H133764   5.114   3.447   8.162 -1.6541 -0.4667  1.2350
 4043TIP3    H233765   5.190   3.434   8.293  2.1118  1.2995 -0.6191
 4044TIP3   OH233766   6.322   1.264   0.478  0.1014 -0.2773 -0.1965
 4044TIP3    H133767   6.313   1.358   0.462 -1.5356 -0.5406 -0.9463
 4044TIP3    H233768   6.245   1.241   0.531 -0.2283 -1.4336 -1.1479
 4045TIP3   OH233769   4.660   5.411   1.226 -0.9634 -0.6141 -0.1901
 4045TIP3    H133770   4.699   5.498   1.235  2.9998 -2.1981 -0.2318
 4045TIP3    H233771   4.589   5.423   1.163 -1.0529  2.6791  0.3609
 4046TIP3   OH233772   4.852   5.850   2.131  0.0811 -0.3991 -0.1019
 4046TIP3    H133773   4.913   5.824   2.061 -0.0249 -1.6184  0.2222
 4046TIP3    H233774   4.811   5.768   2.157 -0.4992  0.1717  0.8174
 4047TIP3   OH233775   5.955   3.042   2.495 -0.1666  0.3504  0.1693
 4047TIP3    H133776   5.908   3.125   2.485 -1.2144  0.3696  3.7789
 4047TIP3    H233777   5.901   2.992   2.557  0.5745 -2.9597 -1.6464
 4048TIP3   OH233778   5.355   3.751   4.230  0.6702  0.2710 -0.2641
 4048TIP3    H133779   5.348   3.836   4.272  0.3555 -0.5693  1.4939
 4048TIP3    H233780   5.278   3.703   4.261 -0.1240 -0.0915 -2.6413
 4049TIP3   OH233781   0.516   0.386   1.637  0.1173 -0.1449  0.1104
 4049TIP3    H133782   0.611   0.395   1.645  0.3864 -1.0441 -1.6080
 4049TIP3    H233783   0.494   0.437   1.559 -0.7105 -0.4725  0.1240
 4050TIP3   OH233784   1.663   1.285   3.657 -0.2032  0.2737  0.0062
 4050TIP3    H133785   1.738   1.305   3.713  1.0096 -0.2765 -1.3624
 4050TIP3    H233786   1.623   1.208   3.697 -0.7504  1.2404  1.3899
 4051TIP3   OH233787   5.456   5.714   2.287 -0.2761 -0.3339 -0.5079
 4051TIP3    H133788   5.456   5.780   2.357 -0.3334 -2.1798  1.3615
 4051TIP3    H233789   5.484   5.761   2.209  2.0860  1.4226  1.2388
 4052TIP3   OH233790   1.550   2.505   2.740 -0.2417  0.5580  0.6209
 4052TIP3    H133791   1.503   2.493   2.822 -1.7860  1.0179 -0.1581
 4052TIP3    H233792   1.639   2.474   2.758  0.6839  4.2959  3.6662
 4053TIP3   OH233793   2.741   5.801   0.241 -0.1012 -0.1360  0.2234
 4053TIP3    H133794   2.750   5.750   0.322  2.1330  0.2667  0.2687
 4053TIP3    H233795   2.735   5.891   0.270 -0.7049 -0.0896 -0.0217
 4054TIP3   OH233796   4.204   3.478   0.393 -0.3719  0.0018  0.3496
 4054TIP3    H133797   4.284   3.521   0.423  0.3369  0.2157 -1.6556
 4054TIP3    H233798   4.179   3.421   0.465  0.4190  1.4548  1.8475
 4055TIP3   OH233799   6.106   6.007   3.405  0.1863  0.2363  0.4992
 4055TIP3    H133800   6.045   6.080   3.391  0.1779  1.0483  3.8119
 4055TIP3    H233801   6.190   6.050   3.422  0.8526 -0.7080 -0.3394
 4056TIP3   OH233802   5.156   0.374   0.884 -0.1418 -0.3021 -0.5010
 4056TIP3    H133803   5.092   0.441   0.862  0.6823  0.6909  0.0509
 4056TIP3    H233804   5.207   0.361   0.804  1.5473  1.8445  0.1235
 4057TIP3   OH233805   6.696   4.100   0.198 -0.4120  0.0912 -0.3364
 4057TIP3    H133806   6.749   4.032   0.238  1.3244  0.4706 -1.8597
 4057TIP3    H233807   6.689   4.074   0.106 -0.5913  1.4170 -0.7178
 4058TIP3   OH233808   4.002   3.478   3.932  0.3197  0.3621 -0.1903
 4058TIP3    H133809   3.968   3.430   3.856  1.8352 -0.5009 -0.3547
 4058TIP3    H233810   3.977   3.424   4.007 -0.5174  0.8236 -0.1363
 4059TIP3   OH233811   2.014   2.885   3.363  0.3624 -0.6644  0.0964
 4059TIP3    H133812   2.070   2.958   3.338 -0.1545 -0.2667  0.0735
 4059TIP3    H233813   1.993   2.841   3.281 -1.7393  0.9340 -0.3075
 4060TIP3   OH233814   6.556   0.971   2.506 -0.3728 -0.1747  0.1287
 4060TIP3    H133815   6.569   1.040   2.441  0.4513 -0.7572 -0.3508
 4060TIP3    H233816   6.618   0.902   2.481  0.0414 -0.3730  1.5942
 4061TIP3   OH233817   4.286   2.592   1.227  0.2417 -0.1376 -0.1728
 4061TIP3    H133818   4.290   2.622   1.136  1.8254  0.0220 -0.0782
 4061TIP3    H233819   4.351   2.521   1.232 -0.8933 -1.1744  0.4800
 4062TIP3   OH233820   4.477   4.787   0.624  0.0543 -0.0920  0.6823
 4062TIP3    H133821   4.480   4.725   0.551 -2.1890 -0.0050  0.4523
 4062TIP3    H233822   4.566   4.822   0.629  0.9454 -2.0255 -0.2950
 4063TIP3   OH233823   0.305   6.404   1.860 -0.0116 -0.2165 -0.0376
 4063TIP3    H133824   0.238   6.444   1.804 -0.9089  0.4151  1.4300
 4063TIP3    H233825   0.293   6.310   1.848 -0.5778 -0.0950 -0.4824
 4064TIP3   OH233826   4.743   6.305   2.062 -0.1044 -0.0104 -0.7790
 4064TIP3    H133827   4.690   6.365   2.010 -0.0645  0.8663  0.1726
 4064TIP3    H233828   4.724   6.219   2.025 -0.3527  0.5461 -2.0034
 4065TIP3   OH233829   1.126   4.540   2.417  0.3100  0.0770 -0.1198
 4065TIP3    H133830   1.033   4.540   2.439  0.4248 -0.0588  0.3819
 4065TIP3    H233831   1.139   4.622   2.368  0.4998  1.6312  2.3462
 4066TIP3   OH233832   3.944   4.386   0.628 -0.1728  0.3334  0.7208
 4066TIP3    H133833   3.854   4.419   0.622 -0.6921 -1.1737 -0.3333
 4066TIP3    H233834   3.998   4.456   0.592 -0.8790  1.3410  1.5385
 4067TIP3   OH233835   4.579   4.738   1.396  0.6562  0.5266  0.5578
 4067TIP3    H133836   4.608   4.813   1.345 -0.9170  1.0432  0.3962
 4067TIP3    H233837   4.497   4.711   1.356  0.9046 -0.9387  0.9655
 4068TIP3   OH233838   0.566   5.506   8.251  0.2058  0.1351  0.0779
 4068TIP3    H133839   0.540   5.423   8.292 -1.4283  1.5496  2.1164
 4068TIP3    H233840   0.572   5.568   8.324  0.9923  1.9256 -1.4296
 4069TIP3   OH233841   6.088   2.113   4.265 -0.4536  0.0404  0.2725
 4069TIP3    H133842   6.070   2.195   4.219  1.0307  0.6428  0.7326
 4069TIP3    H233843   6.182   2.099   4.254 -0.4899 -1.0088  1.1727
 4070TIP3   OH233844   6.267   3.777   0.128 -0.7289 -0.1258 -0.5195
 4070TIP3    H133845   6.299   3.796   0.215  0.5594 -3.3359 -0.1505
 4070TIP3    H233846   6.321   3.830   0.069  1.8794 -1.5770  0.4198
 4071TIP3   OH233847   6.579   0.911   0.456  0.1307  0.0960 -0.4325
 4071TIP3    H133848   6.662   0.870   0.431 -0.2129 -0.7552 -0.2222
 4071TIP3    H233849   6.602   1.002   0.474  1.1513 -0.2676  0.2411
 4072TIP3   OH233850   4.217   4.864   4.204  0.4669  0.1900 -0.4654
 4072TIP3    H133851   4.236   4.937   4.146  0.3875  2.0134  1.6849
 4072TIP3    H233852   4.283   4.870   4.273 -0.9255 -0.3573  0.9704
 4073TIP3   OH233853   4.797   5.712   8.576 -0.8279 -0.1600  0.1091
 4073TIP3    H133854   4.744   5.678   8.503 -0.1737  2.2039 -1.5807
 4073TIP3    H233855   4.880   5.736   8.535 -0.2485  0.7414  1.7657
 4074TIP3   OH233856   2.014   2.811   2.747  0.0574  0.5047 -0.1975
 4074TIP3    H133857   2.041   2.778   2.661 -1.5230 -2.6731  0.3986
 4074TIP3    H233858   2.093   2.853   2.782  1.3808 -0.1349 -2.2480
 4075TIP3   OH233859   5.011   4.088   2.432 -0.0850  0.1541 -0.5298
 4075TIP3    H133860   5.078   4.047   2.376 -0.9565 -0.0869 -1.4287
 4075TIP3    H233861   5.048   4.173   2.455  2.5108 -1.6054  2.7012
 4076TIP3   OH233862   6.611   5.624   2.784 -0.5448  0.5524  0.0425
 4076TIP3    H133863   6.557   5.667   2.850  0.7992  2.1903  0.1490
 4076TIP3    H233864   6.698   5.619   2.824 -0.0742  0.1383 -1.0018
 4077TIP3   OH233865   2.988   6.177   2.777  0.1994  0.1975 -0.2685
 4077TIP3    H133866   2.981   6.235   2.853  1.7014  0.8220 -0.5628
 4077TIP3    H233867   3.003   6.236   2.703 -1.6256 -0.3710 -1.1475
 4078TIP3   OH233868   3.397   5.816   0.931  0.2847  0.1865 -0.5613
 4078TIP3    H133869   3.393   5.907   0.960  4.2363  0.0359  1.1260
 4078TIP3    H233870   3.371   5.764   1.008 -2.0409 -0.1968 -1.5399
 4079TIP3   OH233871   5.135   4.802   1.031 -0.2190  0.6682 -0.1257
 4079TIP3    H133872   5.087   4.785   0.950 -0.9421  1.1734  0.1858
 4079TIP3    H233873   5.069   4.835   1.092  0.2800  0.1253  0.7342
 4080TIP3   OH233874   0.378   2.992   3.730  0.3109 -0.2344  0.0959
 4080TIP3    H133875   0.432   2.994   3.810  0.8870  0.7935 -0.2936
 4080TIP3    H233876   0.320   2.918   3.742  1.0660 -0.6984  1.0387
 4081TIP3   OH233877   6.757   1.441   7.833  0.4551  0.3414 -0.3164
 4081TIP3    H133878   6.692   1.461   7.766 -1.0255 -1.8023  0.3782
 4081TIP3    H233879   6.812   1.372   7.795  1.0031  0.6550 -0.1133
 4082TIP3   OH233880   1.821   3.624   0.270  0.1793 -0.4791 -0.2505
 4082TIP3    H133881   1.886   3.597   0.205 -0.0521 -0.2165 -0.5929
 4082TIP3    H233882   1.846   3.713   0.294 -0.5705 -0.0189 -1.0698
 4083TIP3   OH233883   1.420   3.295   3.209  0.3747 -0.3001  0.4301
 4083TIP3    H133884   1.463   3.342   3.138  1.0407  0.2982  1.2079
 4083TIP3    H233885   1.487   3.235   3.243  0.3730  0.1001  1.1658
 4084TIP3   OH233886   0.748   3.284   2.179 -0.1870  0.3394 -0.6188
 4084TIP3    H133887   0.843   3.296   2.188  0.0257 -2.0720  1.6639
 4084TIP3    H233888   0.710   3.338   2.248 -0.1965 -0.8756  0.3751
 4085TIP3   OH233889   3.836   6.578   3.765 -0.4324 -0.3571 -0.4308
 4085TIP3    H133890   3.892   6.506   3.792  2.2613  1.4785 -0.7427
 4085TIP3    H233891   3.860   6.594   3.674 -0.7640  1.0855 -0.2873
 4086TIP3   OH233892   2.540   0.681   0.184  0.3494  0.0261  0.7896
 4086TIP3    H133893   2.550   0.667   0.090  1.6344  0.4888  0.8401
 4086TIP3    H233894   2.510   0.596   0.217  1.5446 -0.6589  0.1853
 4087TIP3   OH233895   3.988   0.157   0.774  0.0964  0.5486 -0.6709
 4087TIP3    H133896   3.916   0.218   0.789 -0.1480  0.3113 -0.8816
 4087TIP3    H233897   4.006   0.118   0.860 -0.1163  0.5078 -0.6459
 4088TIP3   OH233898   3.955   2.982   2.590 -0.3191  0.5886  0.2602
 4088TIP3    H133899   4.035   2.931   2.604 -0.5905  0.3520  1.0142
 4088TIP3    H233900   3.985   3.064   2.552  0.3230  0.6075  0.7889
 4089TIP3   OH233901   6.401   3.189   4.343 -0.2036  0.2034 -0.8905
 4089TIP3    H133902   6.439   3.156   4.261  3.2879  0.7440  0.3201
 4089TIP3    H233903   6.428   3.124   4.408  1.9174  2.4571  0.6243
 4090TIP3   OH233904   6.397   4.213   4.054  0.7788 -0.2025  0.0615
 4090TIP3    H133905   6.309   4.176   4.058 -0.3783  2.1099 -1.5768
 4090TIP3    H233906   6.424   4.202   3.963  1.2140  1.0884  0.0058
 4091TIP3   OH233907   0.643   4.848   1.915 -0.0799  0.0351 -0.3513
 4091TIP3    H133908   0.677   4.865   2.002 -2.4543  0.9307  0.4766
 4091TIP3    H233909   0.681   4.764   1.890 -0.1528 -0.7519  1.9846
 4092TIP3   OH233910   1.133   3.904   2.308 -0.5648  0.1535  0.0355
 4092TIP3    H133911   1.208   3.945   2.350 -0.2874 -1.2608  1.0119
 4092TIP3    H233912   1.075   3.976   2.285  1.4896  1.3924 -1.6647
 4093TIP3   OH233913   6.268   5.692   0.601  0.0185 -1.0980  0.1525
 4093TIP3    H133914   6.277   5.636   0.523 -1.7002 -1.3243  0.0772
 4093TIP3    H233915   6.218   5.638   0.663 -2.1549  0.4767 -0.1108
 4094TIP3   OH233916   2.391   0.317   2.212  0.8634 -0.0382 -0.1703
 4094TIP3    H133917   2.470   0.309   2.159  1.4885 -0.1270  0.7481
 4094TIP3    H233918   2.412   0.384   2.277  0.0227  0.2507 -0.1831
 4095TIP3   OH233919   1.052   6.071   0.777 -0.2286 -0.0386  0.1844
 4095TIP3    H133920   0.986   6.060   0.845  0.7848  0.5391  1.3106
 4095TIP3    H233921   1.134   6.045   0.819  0.3313 -0.3481 -1.0459
 4096TIP3   OH233922   3.768   6.196   2.567 -0.5906  0.3361  0.4020
 4096TIP3    H133923   3.765   6.102   2.584  0.2875  0.1583 -0.3390
 4096TIP3    H233924   3.678   6.226   2.582 -1.6803 -1.1787 -2.3485
 4097TIP3   OH233925   1.457   4.731   4.363  0.4389 -0.0770  0.4812
 4097TIP3    H133926   1.485   4.819   4.338  0.1310 -0.1911 -0.2895
 4097TIP3    H233927   1.535   4.692   4.403  1.2061 -0.1662 -1.0392
 4098TIP3   OH233928   4.245   3.007   2.865  0.1509  0.2457  0.7635
 4098TIP3    H133929   4.236   2.922   2.909 -1.4120 -0.2991 -0.4941
 4098TIP3    H233930   4.185   3.065   2.913 -1.0410 -0.1727 -0.1696
 4099TIP3   OH233931   3.344   6.466   1.426  0.3521 -0.1381 -0.0779
 4099TIP3    H133932   3.364   6.388   1.374 -1.5940 -0.8883  0.2307
 4099TIP3    H233933   3.306   6.528   1.363  1.0674  0.2471 -0.1475
 4100TIP3   OH233934   3.509   4.688   0.403 -0.2367 -0.0739  0.1258
 4100TIP3    H133935   3.448   4.748   0.446  0.0074  1.2195 -1.2472
 4100TIP3    H233936   3.534   4.626   0.471 -0.8327  1.1354  1.4963
 4101TIP3   OH233937   0.716   0.557   2.386 -0.5490  0.0209  0.0330
 4101TIP3    H133938   0.734   0.478   2.436 -0.5958 -0.1537 -0.2235
 4101TIP3    H233939   0.788   0.563   2.324 -0.7180  0.0004 -0.1657
 4102TIP3   OH233940   0.286   4.964   1.292 -0.2520 -0.0496  0.3051
 4102TIP3    H133941   0.315   4.875   1.313 -0.8335 -0.4353 -0.5103
 4102TIP3    H233942   0.223   4.953   1.221 -0.5749  0.9905  0.4193
 4103TIP3   OH233943   5.257   2.275   0.896 -0.3552 -0.3181  0.7018
 4103TIP3    H133944   5.331   2.308   0.947 -2.1523  2.2184  1.8752
 4103TIP3    H233945   5.252   2.333   0.820 -0.5540 -1.0991  0.1082
 4104TIP3   OH233946   1.065   0.572   3.200 -0.0365  0.3732 -0.5743
 4104TIP3    H133947   1.068   0.480   3.228 -0.5276  0.6073  0.2621
 4104TIP3    H233948   0.972   0.590   3.186  0.0395  0.8138 -0.5171
 4105TIP3   OH233949   6.320   3.732   3.601  0.0292 -0.4750  0.4338
 4105TIP3    H133950   6.402   3.683   3.596  0.3660  0.1711 -2.0513
 4105TIP3    H233951   6.277   3.713   3.517 -0.9131  1.5860  0.4030
 4106TIP3   OH233952   3.318   3.485   3.011  0.2971  0.6887 -0.1396
 4106TIP3    H133953   3.314   3.510   3.104  0.0006  1.7967 -0.4310
 4106TIP3    H233954   3.380   3.546   2.972 -0.9322  1.4303 -1.0069
 4107TIP3   OH233955   3.052   4.986   2.717 -0.0701  0.5089  0.1501
 4107TIP3    H133956   3.091   4.989   2.630  0.8323 -0.9522  0.4648
 4107TIP3    H233957   3.109   5.040   2.771 -0.0854  0.6486  0.0257
 4108TIP3   OH233958   6.278   6.416   8.547 -0.4334  0.1462 -0.8592
 4108TIP3    H133959   6.199   6.429   8.599 -0.1915 -0.0132 -0.4412
 4108TIP3    H233960   6.255   6.447   8.460 -1.7074 -1.9940 -1.3707
 4109TIP3   OH233961   4.269   2.861   1.328 -0.4788  0.4435 -0.3439
 4109TIP3    H133962   4.325   2.907   1.267  1.7513  0.9321  1.9092
 4109TIP3    H233963   4.284   2.768   1.309 -0.9921  0.5849 -1.4944
 4110TIP3   OH233964   3.906   6.713   2.169  0.6319  0.2024  0.1340
 4110TIP3    H133965   3.961   6.687   2.243 -0.3584 -1.3228  0.3928
 4110TIP3    H233966   3.893   6.632   2.120 -2.0062  0.2838  0.5353
 4111TIP3   OH233967   6.869   0.711   8.324 -0.1556 -0.3677  0.0521
 4111TIP3    H133968   6.821   0.775   8.271 -1.9427 -1.9874 -0.3915
 4111TIP3    H233969   6.926   0.666   8.261  1.5798  1.1077  0.4684
 4112TIP3   OH233970   1.120   0.240   2.232  0.2016  0.0219  0.1143
 4112TIP3    H133971   1.192   0.231   2.295 -1.3495  0.4893  2.0562
 4112TIP3    H233972   1.113   0.335   2.218  0.4388 -0.0693 -0.6919
 4113TIP3   OH233973   1.590   4.097   3.594 -0.1626 -0.1596  1.1021
 4113TIP3    H133974   1.683   4.084   3.576 -0.3328  1.1789 -1.2872
 4113TIP3    H233975   1.588   4.163   3.664  0.7024  0.2518  0.7524
 4114TIP3   OH233976   6.715   2.067   1.841  0.2668 -0.0639  0.4845
 4114TIP3    H133977   6.631   2.105   1.817 -0.4374 -0.8223  1.6994
 4114TIP3    H233978   6.770   2.081   1.763 -0.4522  1.9079  0.2721
 4115TIP3   OH233979   2.349   1.651   1.333  0.2099 -0.1140 -0.1311
 4115TIP3    H133980   2.424   1.605   1.295  0.0359 -1.7072  1.3222
 4115TIP3    H233981   2.376   1.672   1.422 -0.9804 -0.5074  0.3416
 4116TIP3   OH233982   5.982   5.540   1.430 -0.5860 -0.0183  0.1780
 4116TIP3    H133983   5.921   5.574   1.496 -1.7652 -1.0560 -0.3303
 4116TIP3    H233984   6.000   5.451   1.459  1.2257  0.4773  0.6603
 4117TIP3   OH233985   0.730   0.909   2.328 -0.3568 -0.2325  0.4952
 4117TIP3    H133986   0.816   0.918   2.368 -0.5478  1.1997  0.6527
 4117TIP3    H233987   0.748   0.876   2.240  0.1941 -1.6409  1.1089
 4118TIP3   OH233988   3.346   5.147   3.665 -0.3265  0.2556 -0.2801
 4118TIP3    H133989   3.263   5.163   3.620 -0.5457 -0.1954 -0.0432
 4118TIP3    H233990   3.320   5.124   3.755 -0.1079 -2.3897 -0.8094
 4119TIP3   OH233991   4.293   5.647   0.898 -0.4251  0.0139  0.4195
 4119TIP3    H133992   4.226   5.693   0.848  0.8508  0.6754 -0.7611
 4119TIP3    H233993   4.269   5.555   0.891 -0.2873  0.0804 -1.4688
 4120TIP3   OH233994   1.413   4.828   0.693  0.0585  0.2133  0.2719
 4120TIP3    H133995   1.382   4.874   0.771 -1.2892 -0.4963  0.1835
 4120TIP3    H233996   1.342   4.769   0.670  1.3267 -1.1819 -0.2228
 4121TIP3   OH233997   5.240   0.653   2.065  0.5547 -0.1357  0.1818
 4121TIP3    H133998   5.331   0.654   2.094 -0.2706 -0.9297  3.1536
 4121TIP3    H233999   5.228   0.737   2.020  2.4860  0.4133  0.6100
 4122TIP3   OH234000   6.259   5.237   3.284  0.1347 -0.5807 -0.2591
 4122TIP3    H134001   6.253   5.332   3.292  0.9346 -0.4957 -0.6416
 4122TIP3    H234002   6.181   5.212   3.234  0.7822  0.0582 -1.6290
 4123TIP3   OH234003   5.340   2.771   2.349 -0.2324 -0.2332  0.0237
 4123TIP3    H134004   5.370   2.681   2.355  1.2826  0.1802 -0.9414
 4123TIP3    H234005   5.345   2.793   2.256 -0.4813  0.8828  0.2508
 4124TIP3   OH234006   0.310   3.645   1.195  0.4174  0.3356  0.0314
 4124TIP3    H134007   0.344   3.719   1.245 -0.4505  1.6598 -1.2775
 4124TIP3    H234008   0.357   3.569   1.230  2.7985  1.7418  0.0573
 4125TIP3   OH234009   4.748   5.227   0.665  0.0283  0.4618  0.4982
 4125TIP3    H134010   4.815   5.290   0.691 -0.6214  1.3271  0.1364
 4125TIP3    H234011   4.670   5.254   0.712 -0.0566 -0.5990  0.9964
 4126TIP3   OH234012   3.889   5.275   1.297  0.3576  0.1332 -0.4551
 4126TIP3    H134013   3.958   5.341   1.293 -0.3179  0.8850 -0.1668
 4126TIP3    H234014   3.900   5.234   1.382 -0.3124  1.1390  0.1413
 4127TIP3   OH234015   1.956   0.298   3.073 -0.5670  0.0889 -0.3793
 4127TIP3    H134016   1.866   0.275   3.096 -0.9120  0.5743 -1.1931
 4127TIP3    H234017   1.989   0.221   3.028  1.0121 -1.9797  3.8061
 4128TIP3   OH234018   2.866   2.752   3.640  0.8077 -0.5246  0.3988
 4128TIP3    H134019   2.867   2.659   3.617  0.0030 -0.1985 -1.0705
 4128TIP3    H234020   2.934   2.791   3.585 -0.3839  0.0997 -0.6630
 4129TIP3   OH234021   4.290   6.583   2.515  0.4570 -0.2168  0.0293
 4129TIP3    H134022   4.386   6.582   2.512  0.5412 -2.2966  1.0980
 4129TIP3    H234023   4.269   6.563   2.606 -1.0174  0.6459 -0.0941
 4130TIP3   OH234024   0.239   0.281   3.218 -0.0460  0.6233  0.0273
 4130TIP3    H134025   0.200   0.368   3.205 -2.4517 -0.1608  1.3198
 4130TIP3    H234026   0.237   0.268   3.312  1.8102 -0.2174 -0.0278
 4131TIP3   OH234027   6.533   4.945   3.467  0.5051  0.0453 -0.2307
 4131TIP3    H134028   6.443   4.927   3.494  0.7454  0.4564  0.8948
 4131TIP3    H234029   6.549   4.884   3.395  0.2594 -2.0400  1.3937
 4132TIP3   OH234030   6.881   1.181   0.509  0.0232  0.1746 -0.0889
 4132TIP3    H134031   6.821   1.171   0.435 -2.0553  0.0794  1.5093
 4132TIP3    H234032   6.885   1.276   0.524  0.5541  0.2039 -0.3731
 4133TIP3   OH234033   0.011   0.559   8.526  0.3764 -0.2451  0.2586
 4133TIP3    H134034  -0.014   0.467   8.530  0.1395 -0.1704  0.4986
 4133TIP3    H234035  -0.028   0.591   8.445 -0.1103 -0.1873  0.5129
 4134TIP3   OH234036   1.790   5.773   1.955 -0.2745  0.3972 -0.3722
 4134TIP3    H134037   1.745   5.837   1.900 -0.5710 -0.1118 -0.7257
 4134TIP3    H234038   1.808   5.699   1.897 -2.2824 -0.9749  0.6202
 4135TIP3   OH234039   3.963   4.429   2.467  0.1439  0.5333  0.3745
 4135TIP3    H134040   3.967   4.371   2.391 -0.2473  0.0049  0.7486
 4135TIP3    H234041   4.035   4.490   2.455  1.4484 -0.8942  0.6848
 4136TIP3   OH234042   5.278   2.770   0.908 -0.2710  0.4608 -0.0328
 4136TIP3    H134043   5.242   2.842   0.961  1.8428  0.6790  1.2105
 4136TIP3    H234044   5.207   2.705   0.905 -1.0768  1.1935  1.6159
 4137TIP3   OH234045   6.616   1.639   1.742  0.0598  0.1021 -0.6623
 4137TIP3    H134046   6.667   1.558   1.736 -1.0470 -0.7676  1.0136
 4137TIP3    H234047   6.607   1.668   1.651 -0.1059 -2.0541 -1.3917
 4138TIP3   OH234048   4.157   4.147   2.479  0.6347  0.1538 -0.4869
 4138TIP3    H134049   4.120   4.235   2.484  2.6140  1.1811 -2.1706
 4138TIP3    H234050   4.251   4.162   2.475  1.0738 -2.1372  0.3050
 4139TIP3   OH234051   1.576   3.788   2.424  0.4527 -0.0093  0.0550
 4139TIP3    H134052   1.598   3.738   2.503 -0.8711  0.2637  0.6336
 4139TIP3    H234053   1.574   3.723   2.354  1.4966 -0.2851  0.2670
 4140TIP3   OH234054   3.530   2.968   0.495 -0.5798 -0.5768 -0.2258
 4140TIP3    H134055   3.515   2.974   0.400 -0.1610 -1.1617 -0.3326
 4140TIP3    H234056   3.501   3.052   0.529  1.5801  0.6133 -1.1807
 4141TIP3   OH234057   0.480   0.043   0.716  0.2052  0.3329 -0.0828
 4141TIP3    H134058   0.507  -0.048   0.729 -1.0440 -0.1629 -0.7393
 4141TIP3    H234059   0.387   0.037   0.694  0.3316  1.6804 -1.1339
 4142TIP3   OH234060   6.223   5.427   3.681  0.4141 -0.6558 -0.4076
 4142TIP3    H134061   6.295   5.444   3.742 -0.5031  1.4169  0.1897
 4142TIP3    H234062   6.173   5.508   3.680 -3.3048 -2.7172  1.0195
 4143TIP3   OH234063   5.879   6.898   1.187  0.2455  0.7052 -0.4909
 4143TIP3    H134064   5.859   6.950   1.108  0.7561  0.9838 -0.4414
 4143TIP3    H234065   5.915   6.962   1.248 -0.4532  0.5478  0.0943
 4144TIP3   OH234066   4.898   1.933   3.743 -0.4204  0.5183 -0.4798
 4144TIP3    H134067   4.846   1.964   3.818  0.9849 -2.3728  1.9055
 4144TIP3    H234068   4.983   1.976   3.754 -0.2283  0.1286 -0.4093
 4145TIP3   OH234069   5.477   5.757   0.297  0.5685  0.4460  0.2570
 4145TIP3    H134070   5.543   5.706   0.251 -0.1013  0.1347 -0.3893
 4145TIP3    H234071   5.498   5.746   0.390  1.1513 -0.0096  0.0783
 4146TIP3   OH234072   0.896   5.967   7.682 -0.3626  0.1845  0.3132
 4146TIP3    H134073   0.821   5.921   7.643 -2.1798  0.9502  2.7228
 4146TIP3    H234074   0.880   6.059   7.665  0.0343  0.3641  0.8818
 4147TIP3   OH234075   5.791   4.206   1.989 -0.3390 -0.5874 -0.3360
 4147TIP3    H134076   5.696   4.197   1.987 -0.2178 -1.9555 -0.7723
 4147TIP3    H234077   5.819   4.150   2.062  0.1110  0.0948  0.0252
 4148TIP3   OH234078   5.006   6.121   2.183 -0.1467 -0.0786 -0.7539
 4148TIP3    H134079   5.066   6.051   2.210  0.4719  0.2299 -1.3124
 4148TIP3    H234080   4.920   6.092   2.216  0.3943 -0.2224  0.6232
 4149TIP3   OH234081   5.350   2.160   0.206 -0.1760 -0.1503  0.0116
 4149TIP3    H134082   5.306   2.183   0.125 -0.9963  0.0681  0.5102
 4149TIP3    H234083   5.411   2.090   0.181  0.7629  1.0131 -1.0898
 4150TIP3   OH234084   3.428   5.808   3.237 -0.5346  0.1778  0.1113
 4150TIP3    H134085   3.441   5.757   3.318 -0.7450 -0.4438 -0.2442
 4150TIP3    H234086   3.463   5.895   3.258  2.3523 -0.8263 -0.1130
 4151TIP3   OH234087   3.561   1.991   3.543 -0.8715  0.4186  0.3282
 4151TIP3    H134088   3.630   1.935   3.578 -1.9354  0.5317  2.8820
 4151TIP3    H234089   3.582   2.078   3.575 -3.2281  0.1120  3.1670
 4152TIP3   OH234090   5.504   1.588   1.920  0.5562  0.0087 -0.0586
 4152TIP3    H134091   5.534   1.506   1.957 -1.3945 -0.8410 -0.2336
 4152TIP3    H234092   5.560   1.603   1.844  0.5951 -1.4580 -0.3441
 4153TIP3   OH234093   1.123   6.904   2.230  0.4723 -0.4726  0.2219
 4153TIP3    H134094   1.126   6.891   2.324 -2.1332 -0.5042  0.3744
 4153TIP3    H234095   1.111   6.999   2.219 -1.5259 -0.7002  0.0813
 4154TIP3   OH234096   5.494   0.966   1.495  0.6989  0.1714  0.3013
 4154TIP3    H134097   5.576   0.927   1.464  0.6665  1.0401 -0.9501
 4154TIP3    H234098   5.510   1.060   1.493 -0.4665  0.3700 -0.3932
 4155TIP3   OH234099   4.852   4.718   3.100  0.7187 -0.0801  0.5604
 4155TIP3    H134100   4.866   4.764   3.183  2.3572  1.2030 -0.3704
 4155TIP3    H234101   4.769   4.671   3.113 -0.7967  2.6750  1.7724
 4156TIP3   OH234102   3.108   4.904   0.368 -0.0721 -0.1564 -0.2257
 4156TIP3    H134103   3.181   4.965   0.369  0.8487 -1.2233  1.2268
 4156TIP3    H234104   3.139   4.830   0.317 -1.1312  0.4523 -1.8495
 4157TIP3   OH234105   1.847   1.962   3.038 -0.4778  0.1989  0.0494
 4157TIP3    H134106   1.929   1.996   3.074 -0.5900 -0.6278  1.1444
 4157TIP3    H234107   1.806   2.038   2.995  0.8394  0.6221 -0.5106
 4158TIP3   OH234108   2.378   0.556   1.026 -0.2591 -0.1935  0.3580
 4158TIP3    H134109   2.436   0.531   1.098  1.9767  1.2224 -0.8268
 4158TIP3    H234110   2.397   0.493   0.956  0.5190  0.7374 -0.3111
 4159TIP3   OH234111   5.071   1.306   1.925 -0.0144  0.3010  0.3535
 4159TIP3    H134112   5.011   1.279   1.995  0.5535  1.7758  1.4510
 4159TIP3    H234113   5.101   1.393   1.951  0.8902  0.5211 -1.3027
 4160TIP3   OH234114   3.077   3.966   2.660 -0.0599 -0.1384 -0.4730
 4160TIP3    H134115   3.172   3.955   2.665  0.2350  2.1915 -0.0057
 4160TIP3    H234116   3.042   3.880   2.684  1.9050 -1.1671 -1.0724
 4161TIP3   OH234117   3.060   3.540   1.096 -0.4958 -0.2795 -0.5053
 4161TIP3    H134118   3.059   3.548   1.191 -1.4109  0.3735 -0.5571
 4161TIP3    H234119   3.092   3.624   1.065 -1.1330 -0.1398 -0.7988
 4162TIP3   OH234120   4.499   6.407   1.969 -0.2519 -0.0368 -0.4201
 4162TIP3    H134121   4.465   6.382   2.055 -1.6605 -0.8932 -1.1862
 4162TIP3    H234122   4.424   6.400   1.910  1.2024 -1.9065 -2.1952
 4163TIP3   OH234123   0.825   3.211   3.451  0.2202  0.0498 -0.1446
 4163TIP3    H134124   0.793   3.129   3.489  0.6721 -0.6036 -1.1500
 4163TIP3    H234125   0.790   3.279   3.510 -2.1856 -0.6735 -0.6201
 4164TIP3   OH234126   2.003   3.276   4.149 -0.2637  0.1834  0.0263
 4164TIP3    H134127   1.919   3.310   4.121 -0.8894 -0.4208  1.0984
 4164TIP3    H234128   2.014   3.308   4.239  0.6221  0.2188 -0.0863
 4165TIP3   OH234129   5.881   4.547   0.495 -0.0148  0.2332  0.0466
 4165TIP3    H134130   5.916   4.587   0.416  1.9791  1.4833  1.4749
 4165TIP3    H234131   5.811   4.490   0.464  1.3819 -0.1405 -2.7158
 4166TIP3   OH234132   5.077   2.014   0.561  0.1007 -0.0342 -0.2736
 4166TIP3    H134133   4.983   2.023   0.575  0.2301  1.2496 -0.0593
 4166TIP3    H234134   5.102   1.936   0.610 -0.6954  0.1834  0.4905
 4167TIP3   OH234135   1.744   3.768   2.877  0.5055 -0.1488  0.4261
 4167TIP3    H134136   1.654   3.784   2.852  0.7172  2.8160  1.1831
 4167TIP3    H234137   1.740   3.746   2.970  0.6670  2.9582  1.2649
 4168TIP3   OH234138   6.490   5.937   0.821  0.2202  0.0618 -0.3556
 4168TIP3    H134139   6.510   6.006   0.757 -0.5972 -0.2302 -0.9465
 4168TIP3    H234140   6.541   5.960   0.898 -0.0699  1.3597 -0.5263
 4169TIP3   OH234141   5.564   6.391   1.276  0.3881 -0.4976  0.5597
 4169TIP3    H134142   5.643   6.388   1.331  0.3528 -1.5289  0.5658
 4169TIP3    H234143   5.527   6.477   1.293  0.6749 -0.5875  1.7350
 4170TIP3   OH234144   1.424   4.101   8.442 -0.0425  0.5417  0.1293
 4170TIP3    H134145   1.394   4.096   8.533  2.1629 -0.8950  0.8375
 4170TIP3    H234146   1.403   4.191   8.416 -0.9419  0.9183  1.9665
 4171TIP3   OH234147   6.594   5.200   0.453  0.8778 -0.3148 -0.4733
 4171TIP3    H134148   6.651   5.272   0.480  0.1935 -0.1672  0.6507
 4171TIP3    H234149   6.619   5.182   0.362  2.8449 -0.4036  0.0383
 4172TIP3   OH234150   0.925   4.906   1.985  0.1466  0.1523 -0.8240
 4172TIP3    H134151   0.866   4.904   2.060 -0.1601 -0.1796 -1.0691
 4172TIP3    H234152   0.875   4.948   1.915  0.4284  0.4572 -0.8427
 4173TIP3   OH234153   3.900   0.523   8.416  0.2475  0.0134  0.2637
 4173TIP3    H134154   3.847   0.602   8.407  1.1685  0.7184  0.7609
 4173TIP3    H234155   3.991   0.555   8.414  0.6903 -1.2179 -1.2895
 4174TIP3   OH234156   0.837   5.803   1.411 -0.2207 -0.6905 -0.3596
 4174TIP3    H134157   0.762   5.751   1.380  0.2686 -0.9073 -1.2023
 4174TIP3    H234158   0.855   5.768   1.499 -0.3001 -1.5180 -0.6607
 4175TIP3   OH234159   0.871   0.716   0.503  0.2322  0.3287  0.3099
 4175TIP3    H134160   0.964   0.724   0.482 -0.1473 -0.2167 -1.7891
 4175TIP3    H234161   0.841   0.641   0.452 -0.6092 -1.9543  3.8239
 4176TIP3   OH234162   0.130   3.444   1.698 -0.0874 -0.0721 -0.3811
 4176TIP3    H134163   0.169   3.479   1.778  1.6581 -0.1742 -1.1487
 4176TIP3    H234164   0.039   3.474   1.701  0.3009  1.0793  0.9629
 4177TIP3   OH234165   1.920   3.707   0.646  0.1907 -0.5713 -0.2584
 4177TIP3    H134166   1.860   3.712   0.721  0.9450  1.5192  0.2716
 4177TIP3    H234167   1.882   3.767   0.582  1.3792  0.3127 -0.1530
 4178TIP3   OH234168   2.117   0.865   1.324 -0.0781  0.0198  0.3251
 4178TIP3    H134169   2.118   0.911   1.240  0.5519  0.1240  0.3798
 4178TIP3    H234170   2.106   0.935   1.389  4.3679  0.7114  0.6942
 4179TIP3   OH234171   2.436   5.775   0.360 -0.0920 -0.2905  0.0322
 4179TIP3    H134172   2.428   5.722   0.440 -0.5358  0.9114  0.8150
 4179TIP3    H234173   2.471   5.715   0.295 -0.6255 -1.5617  0.8772
 4180TIP3   OH234174   5.727   6.492   2.775  0.4342 -0.5258  0.7075
 4180TIP3    H134175   5.769   6.415   2.814 -0.5331 -0.9988  0.8451
 4180TIP3    H234176   5.799   6.551   2.755  1.2598 -1.7218  0.0288
 4181TIP3   OH234177   0.411   1.907   0.103  0.0812 -0.1335 -0.0411
 4181TIP3    H134178   0.406   2.001   0.121 -0.9677 -0.2899  0.5252
 4181TIP3    H234179   0.329   1.871   0.137  0.8485 -1.3966  0.5566
 4182TIP3   OH234180   2.674   6.639   1.803  0.2484 -0.2605  0.2203
 4182TIP3    H134181   2.609   6.590   1.853 -1.2734  0.7677 -0.6669
 4182TIP3    H234182   2.735   6.572   1.771  0.0427 -1.1686  1.6294
 4183TIP3   OH234183   1.711   4.881   0.638 -0.8322  0.2196  0.4031
 4183TIP3    H134184   1.719   4.975   0.655 -2.8812  0.9455 -1.9732
 4183TIP3    H234185   1.800   4.847   0.647  0.2837  2.7300 -0.3880
 4184TIP3   OH234186   0.637   1.601   3.076 -0.0360  0.3676 -0.1951
 4184TIP3    H134187   0.621   1.662   3.004 -0.2576 -0.9018 -1.2562
 4184TIP3    H234188   0.733   1.595   3.082  0.0320 -1.1689 -1.8909
 4185TIP3   OH234189   3.417   3.446   2.242 -0.0029  0.3613 -0.1950
 4185TIP3    H134190   3.449   3.425   2.155 -0.3336  0.5971 -0.3740
 4185TIP3    H234191   3.342   3.389   2.256 -0.5656  1.0266 -0.4672
 4186TIP3   OH234192   2.635   0.702   0.501  0.0803  0.0872  0.0018
 4186TIP3    H134193   2.557   0.709   0.447 -0.8339  0.5563  1.3459
 4186TIP3    H234194   2.645   0.788   0.540  1.1293 -0.0437  0.0536
 4187TIP3   OH234195   1.187   2.845   0.040 -0.0450  0.6617 -0.2315
 4187TIP3    H134196   1.152   2.916   0.093  0.1302  1.2111 -0.8439
 4187TIP3    H234197   1.181   2.768   0.096 -0.5837  1.0868  0.3040
 4188TIP3   OH234198   3.965   5.566   1.523  0.5850  0.8808 -0.0646
 4188TIP3    H134199   3.990   5.591   1.612  0.2975  1.4084 -0.1232
 4188TIP3    H234200   3.872   5.543   1.531  0.7486  0.1801 -0.0888
 4189TIP3   OH234201   5.162   6.929   0.464  0.1436 -0.3473  0.2625
 4189TIP3    H134202   5.079   6.883   0.476  0.5373 -1.2943 -0.4442
 4189TIP3    H234203   5.224   6.882   0.520  0.3220  0.0120  0.3688
 4190TIP3   OH234204   1.303   1.955   2.034 -0.9380 -0.7649 -0.8900
 4190TIP3    H134205   1.397   1.948   2.049 -0.8439  0.0115 -1.1238
 4190TIP3    H234206   1.282   1.880   1.977 -0.3001 -0.4053 -1.6095
 4191TIP3   OH234207   2.578   2.654   0.777  0.4148 -0.3076 -0.3249
 4191TIP3    H134208   2.521   2.646   0.701 -0.3737 -1.3741  0.3495
 4191TIP3    H234209   2.587   2.564   0.810  2.1427 -0.1179 -0.1554
 4192TIP3   OH234210   6.224   0.862   4.300  0.1944 -0.3465 -0.3741
 4192TIP3    H134211   6.294   0.821   4.249 -0.9096 -4.2066  0.8711
 4192TIP3    H234212   6.263   0.877   4.386  0.5036  1.1036 -0.7393
 4193TIP3   OH234213   4.179   3.066   3.453  0.1296  0.0323 -0.1434
 4193TIP3    H134214   4.147   3.145   3.497 -2.1790 -1.4124  0.9786
 4193TIP3    H234215   4.236   3.098   3.384 -0.7312  2.6787  0.2698
 4194TIP3   OH234216   5.984   6.019   2.454 -0.0460  0.4362 -0.3313
 4194TIP3    H134217   5.932   5.977   2.522 -0.2138  0.0998 -0.6648
 4194TIP3    H234218   6.023   6.095   2.497  2.4744 -1.4909  1.0941
 4195TIP3   OH234219   0.648   0.327   0.444  0.3310 -0.1306  0.2707
 4195TIP3    H134220   0.553   0.336   0.433  0.0656 -0.6800  1.8075
 4195TIP3    H234221   0.674   0.261   0.380  0.0460  1.4277 -1.5569
 4196TIP3   OH234222   2.536   4.411   2.358  0.3234 -0.4469  0.0270
 4196TIP3    H134223   2.511   4.333   2.308  0.7240 -0.6195  0.0839
 4196TIP3    H234224   2.628   4.425   2.334  0.4796 -0.4510  0.6064
 4197TIP3   OH234225   6.738   1.582   3.992 -0.2627  0.5255 -0.7581
 4197TIP3    H134226   6.670   1.590   4.059 -1.5856  1.8489 -2.1842
 4197TIP3    H234227   6.782   1.667   3.993 -0.0325  0.4160 -1.3028
 4198TIP3   OH234228   5.758   1.070   2.506  0.4419  0.3339  0.3590
 4198TIP3    H134229   5.775   1.056   2.413  2.0412  0.3281  0.6242
 4198TIP3    H234230   5.693   1.140   2.508 -1.0586 -0.9297 -0.7827
 4199TIP3   OH234231   5.980   1.065   1.893 -0.2343 -0.3534  0.1534
 4199TIP3    H134232   6.003   1.034   1.805  0.4733 -0.0751  0.2381
 4199TIP3    H234233   5.962   0.985   1.942 -0.5167 -0.5173 -0.2072
 4200TIP3   OH234234   2.696   5.015   0.614 -0.2158 -0.0892  0.2205
 4200TIP3    H134235   2.757   5.049   0.548 -0.0926  0.0870  0.4248
 4200TIP3    H234236   2.751   4.967   0.676 -0.4074 -0.8022 -0.1523
 4201TIP3   OH234237   2.166   1.017   3.123 -0.0583 -0.0705  0.0538
 4201TIP3    H134238   2.210   1.042   3.204 -0.5206  0.0202  0.2822
 4201TIP3    H234239   2.204   1.073   3.055 -1.8066  2.0693  0.7099
 4202TIP3   OH234240   3.495   1.664   1.997 -0.3933 -0.1038  0.2680
 4202TIP3    H134241   3.459   1.727   1.934  1.8130 -1.0118 -2.0967
 4202TIP3    H234242   3.467   1.578   1.964 -0.7851 -0.5376  1.6627
 4203TIP3   OH234243   4.257   1.444   1.303 -0.5827  0.3923  0.8064
 4203TIP3    H134244   4.246   1.518   1.243  2.8343  0.9662  0.6633
 4203TIP3    H234245   4.238   1.366   1.249 -0.9154  1.0255 -0.0093
 4204TIP3   OH234246   0.298   3.713   2.825  0.1521  0.3235  0.0129
 4204TIP3    H134247   0.226   3.689   2.765  1.5220 -0.4255 -1.4099
 4204TIP3    H234248   0.362   3.757   2.769  0.2812  2.1300  1.5013
 4205TIP3   OH234249   6.724   1.737   2.596 -0.1097 -0.2719 -0.1568
 4205TIP3    H134250   6.781   1.662   2.614  1.0076  0.1156 -1.8641
 4205TIP3    H234251   6.640   1.698   2.571  0.5326 -1.0022 -1.2882
 4206TIP3   OH234252   6.843   6.337   1.531  0.4805  0.8523 -0.1063
 4206TIP3    H134253   6.830   6.318   1.438 -2.1647  1.0369  0.1366
 4206TIP3    H234254   6.906   6.271   1.560  2.4005  1.6102 -2.2589
 4207TIP3   OH234255   5.835   3.028   2.201 -0.0768  0.1328  0.4234
 4207TIP3    H134256   5.757   2.978   2.225  0.2197 -0.5237  0.0493
 4207TIP3    H234257   5.901   3.002   2.265  0.0592  0.1124  0.2743
 4208TIP3   OH234258   2.248   5.994   0.958 -0.2420 -0.1582  0.1409
 4208TIP3    H134259   2.189   6.047   0.903  0.3307  0.1743 -0.1589
 4208TIP3    H234260   2.251   5.909   0.915  0.5434  0.2299 -0.5979
 4209TIP3   OH234261   5.514   3.371   0.278 -0.0598  0.8572 -0.8907
 4209TIP3    H134262   5.429   3.415   0.276 -1.1733 -0.9548  1.3244
 4209TIP3    H234263   5.553   3.399   0.361  0.3788 -0.2355 -0.7155
 4210TIP3   OH234264   3.031   2.846   3.456 -0.0588  0.1627  0.2368
 4210TIP3    H134265   3.005   2.937   3.445  0.3936  0.2430 -0.1520
 4210TIP3    H234266   3.125   2.845   3.443 -0.0846 -0.3937  0.0344
 4211TIP3   OH234267   1.619   6.519   1.875 -0.1661 -0.1710 -0.1132
 4211TIP3    H134268   1.699   6.476   1.907  0.0669 -0.8217 -1.4972
 4211TIP3    H234269   1.561   6.521   1.951  1.2436  0.5621  1.0170
 4212TIP3   OH234270   6.857   1.227   3.193  0.4304 -0.0306  1.3923
 4212TIP3    H134271   6.846   1.133   3.178 -0.8664  0.2989  0.0654
 4212TIP3    H234272   6.775   1.256   3.231  0.7952  0.5843  1.7290
 4213TIP3   OH234273   0.238   5.531   0.257 -0.2129  0.5386  0.5606
 4213TIP3    H134274   0.190   5.455   0.292 -0.4366  0.0360 -0.7647
 4213TIP3    H234275   0.328   5.500   0.247  0.2473  1.2257  2.2663
 4214TIP3   OH234276   0.975   5.075   2.315  0.0391 -0.6637  0.7035
 4214TIP3    H134277   0.925   5.120   2.248 -2.2371 -2.3679  1.1504
 4214TIP3    H234278   1.048   5.134   2.334 -2.2302  2.4103  0.6219
 4215TIP3   OH234279   0.084   0.956   0.238 -0.5376  0.0856  0.4873
 4215TIP3    H134280   0.013   0.895   0.218 -1.2436  1.8839 -3.4846
 4215TIP3    H234281   0.053   1.040   0.204  2.8062  1.3164  0.0899
 4216TIP3   OH234282   3.555   2.559   2.314  0.5501 -0.2255 -0.0711
 4216TIP3    H134283   3.479   2.502   2.327  1.4832 -0.9187  3.4678
 4216TIP3    H234284   3.523   2.647   2.334  0.6563 -0.5770  1.9287
 4217TIP3   OH234285   4.441   5.876   2.433  0.0930  0.3992  0.0570
 4217TIP3    H134286   4.524   5.837   2.459  0.0146  1.0530  1.3859
 4217TIP3    H234287   4.464   5.962   2.399 -0.0733  0.9164  1.1884
 4218TIP3   OH234288   1.480   3.378   2.922 -0.1034 -0.1009 -0.6345
 4218TIP3    H134289   1.419   3.371   2.847 -0.3599 -0.4621 -0.3958
 4218TIP3    H234290   1.469   3.468   2.953 -0.5354 -0.1654 -0.5841
 4219TIP3   OH234291   2.286   5.833   3.292 -0.4206  0.1098 -0.4619
 4219TIP3    H134292   2.262   5.916   3.333 -1.0091  0.5941 -1.7149
 4219TIP3    H234293   2.330   5.859   3.211 -3.2837 -0.6757 -2.4610
 4220TIP3   OH234294   5.953   3.472   0.741 -0.2504  0.3041  0.3091
 4220TIP3    H134295   5.876   3.506   0.787 -1.4683  1.0488 -2.0954
 4220TIP3    H234296   5.924   3.389   0.705 -0.0452  0.7277 -0.8692
 4221TIP3   OH234297   3.225   4.690   3.344 -0.3020  0.7490  0.0129
 4221TIP3    H134298   3.138   4.724   3.365 -1.1104 -0.6897 -0.8648
 4221TIP3    H234299   3.247   4.729   3.260 -1.0365 -0.5083 -0.7810
 4222TIP3   OH234300   3.311   6.747   1.701  0.2558 -0.0029  0.3241
 4222TIP3    H134301   3.369   6.823   1.692  0.0115  0.1284 -0.1761
 4222TIP3    H234302   3.361   6.673   1.667  0.6999 -0.1772  1.3125
 4223TIP3   OH234303   0.452   3.898   3.721  1.0134  0.1657  0.2740
 4223TIP3    H134304   0.401   3.916   3.643  0.2976 -0.9164  0.4752
 4223TIP3    H234305   0.483   3.808   3.709  2.3987  0.5895  0.4281
 4224TIP3   OH234306   4.468   1.052   0.421  0.7599 -0.3430  0.0670
 4224TIP3    H134307   4.536   1.041   0.355  0.7952  2.2719 -0.4382
 4224TIP3    H234308   4.431   1.139   0.403 -1.8959 -1.1766  1.0866
 4225TIP3   OH234309   4.823   0.539   0.456 -0.0152  0.2712  0.0500
 4225TIP3    H134310   4.792   0.576   0.538 -0.2338  0.9607 -0.3393
 4225TIP3    H234311   4.826   0.613   0.395  1.7422  0.1179 -0.1134
 4226TIP3   OH234312   5.993   6.087   3.022 -0.5517 -0.5176 -0.3257
 4226TIP3    H134313   6.024   6.135   3.098 -2.1006 -0.9553  0.6307
 4226TIP3    H234314   6.064   6.094   2.958  1.3623 -1.2209  1.6042
 4227TIP3   OH234315   3.996   1.739   0.800 -0.0876 -0.3461  0.0171
 4227TIP3    H134316   4.058   1.679   0.840  0.9748 -0.2361 -1.3737
 4227TIP3    H234317   3.978   1.805   0.866  1.8951  0.0491  0.1939
 4228TIP3   OH234318   4.474   1.972   1.411  0.5063  0.1878  0.2664
 4228TIP3    H134319   4.529   1.979   1.333 -0.4887 -1.0205 -0.5745
 4228TIP3    H234320   4.531   1.933   1.477  0.9617 -0.0818 -0.2756
 4229TIP3   OH234321   5.770   1.794   2.498  0.0413  0.1099 -0.1221
 4229TIP3    H134322   5.723   1.778   2.580 -0.5968 -2.5864 -0.9059
 4229TIP3    H234323   5.856   1.755   2.513 -0.4302 -1.3696 -1.0092
 4230TIP3   OH234324   1.478   1.766   2.180  0.6511 -0.4020 -0.1971
 4230TIP3    H134325   1.537   1.708   2.228  0.6952  0.3256  0.6506
 4230TIP3    H234326   1.536   1.822   2.129  0.6960  0.1385  0.4346
 4231TIP3   OH234327   5.977   4.120   3.777 -0.3138  0.2967  0.1173
 4231TIP3    H134328   6.011   4.174   3.848 -0.3500  0.5531 -0.0579
 4231TIP3    H234329   5.920   4.056   3.820 -0.8712  0.8784  0.2551
 4232TIP3   OH234330   5.389   2.443   2.800 -0.2262  0.0272  0.6197
 4232TIP3    H134331   5.400   2.359   2.845 -0.4500 -0.4820 -0.2588
 4232TIP3    H234332   5.413   2.426   2.710 -3.2596  0.0828 -0.3208
 4233TIP3   OH234333   5.832   1.529   1.683 -0.6131  0.4310 -0.2532
 4233TIP3    H134334   5.829   1.607   1.738  0.9020  0.6716 -0.4736
 4233TIP3    H234335   5.912   1.483   1.710 -0.6228 -0.1976 -1.2314
 4234TIP3   OH234336   5.642   3.672   0.096 -0.2874 -0.1812 -0.3852
 4234TIP3    H134337   5.573   3.670   0.029  0.7257  4.3563 -1.9731
 4234TIP3    H234338   5.720   3.641   0.050  0.1143  1.5850 -0.9649
 4235TIP3   OH234339   0.878   4.433   1.621 -0.2255  0.2767  0.1026
 4235TIP3    H134340   0.915   4.471   1.541  1.0571  0.2305  0.6466
 4235TIP3    H234341   0.937   4.360   1.642 -0.0930  0.7618  1.5015
 4236TIP3   OH234342   4.798   0.782   0.325 -0.2153 -0.9083  0.1405
 4236TIP3    H134343   4.765   0.796   0.414  1.6861 -3.7587  1.4343
 4236TIP3    H234344   4.837   0.866   0.301 -1.1802  0.0747  1.7940
 4237TIP3   OH234345   5.156   0.492   1.826 -0.0777 -0.5729  0.7520
 4237TIP3    H134346   5.113   0.418   1.869 -2.1427 -0.2709 -0.6558
 4237TIP3    H234347   5.174   0.554   1.896  0.9359 -2.0148  1.8338
 4238TIP3   OH234348   6.038   2.579   2.416  0.2101  0.7513  0.1784
 4238TIP3    H134349   5.973   2.607   2.481 -2.1892  1.3991 -2.3267
 4238TIP3    H234350   5.991   2.582   2.333  3.1405 -0.0358 -1.6257
 4239TIP3   OH234351   5.649   0.989   2.893 -0.1465  0.5972  0.0577
 4239TIP3    H134352   5.637   0.958   2.983 -0.8538 -2.5071 -1.0063
 4239TIP3    H234353   5.592   1.066   2.887 -1.8925 -0.4865  1.6311
 4240TIP3   OH234354   3.440   5.467   2.985 -0.2968  0.0260  0.0826
 4240TIP3    H134355   3.354   5.463   3.028 -0.5209  1.1010 -0.2425
 4240TIP3    H234356   3.499   5.424   3.047 -1.1726 -1.3694  0.0089
 4241TIP3   OH234357   2.423   5.087   2.304  0.7371 -0.1578  0.4735
 4241TIP3    H134358   2.375   5.108   2.384  1.8840  0.1902  1.0916
 4241TIP3    H234359   2.436   5.171   2.261  1.3144 -0.1670  0.6206
 4242TIP3   OH234360   0.258   0.915   1.247 -0.5142  0.1991  0.7621
 4242TIP3    H134361   0.177   0.894   1.294  1.6624 -2.5488  3.7080
 4242TIP3    H234362   0.304   0.976   1.305  0.3288  0.3149 -0.0080
 4243TIP3   OH234363   5.588   3.707   0.379  0.6133  0.8406  0.2127
 4243TIP3    H134364   5.609   3.682   0.289  0.7164  2.6313 -0.3037
 4243TIP3    H234365   5.669   3.746   0.413  1.3924 -2.0330  1.9949
 4244TIP3   OH234366   2.495   0.243   1.610 -0.2470 -0.3546  0.0886
 4244TIP3    H134367   2.452   0.324   1.582 -2.5066 -1.5023 -0.0671
 4244TIP3    H234368   2.552   0.269   1.682 -1.4797  1.2747  0.5351
 4245TIP3   OH234369   3.810   5.586   2.624 -0.0235  0.0709 -0.3424
 4245TIP3    H134370   3.899   5.553   2.619  0.8224  1.2293  3.6438
 4245TIP3    H234371   3.808   5.660   2.562  1.6059 -0.2650 -0.8313
 4246TIP3   OH234372   2.067   5.413   1.960  0.2768  0.1610 -0.5020
 4246TIP3    H134373   2.054   5.501   1.996  2.7570  0.2870  0.2568
 4246TIP3    H234374   2.162   5.404   1.953  0.0355 -1.9700 -1.8598
 4247TIP3   OH234375   0.547   5.643   0.569  0.1205 -0.0585  0.0640
 4247TIP3    H134376   0.466   5.604   0.538  0.6926  0.2907 -1.9903
 4247TIP3    H234377   0.525   5.680   0.655 -2.5020  1.9358 -1.3510
 4248TIP3   OH234378   1.951   3.943   2.037 -0.1001 -0.0545 -0.0168
 4248TIP3    H134379   1.863   3.925   2.002 -0.2180  3.0028 -1.6799
 4248TIP3    H234380   2.009   3.931   1.962  0.5010  0.6927  0.3183
 4249TIP3   OH234381   0.480   2.405   1.061 -0.3972  0.1604  0.5178
 4249TIP3    H134382   0.449   2.314   1.066 -1.8710  0.5417 -0.7520
 4249TIP3    H234383   0.454   2.434   0.974  1.6143  1.2844  0.2344
 4250TIP3   OH234384   5.392   6.091   0.527  0.4116 -0.1059  0.2724
 4250TIP3    H134385   5.335   6.025   0.565 -1.9866  1.4112 -0.4511
 4250TIP3    H234386   5.406   6.155   0.596  0.7185 -0.1573  0.2599
 4251TIP3   OH234387   5.115   6.578   3.858  0.5581  0.1814  0.7265
 4251TIP3    H134388   5.149   6.493   3.833 -0.5165  0.5518 -2.4748
 4251TIP3    H234389   5.185   6.640   3.836  0.6105  0.2871  1.1882
 4252TIP3   OH234390   4.184   6.734   3.057 -0.0404  0.1072 -0.2063
 4252TIP3    H134391   4.254   6.799   3.059  1.3538 -1.1042 -3.1256
 4252TIP3    H234392   4.211   6.668   3.121 -1.0840  1.8787  2.2106
 4253TIP3   OH234393   6.298   6.415   2.664 -0.5574  0.0480 -0.6500
 4253TIP3    H134394   6.212   6.424   2.706  0.8197  0.4996  2.3435
 4253TIP3    H234395   6.320   6.503   2.635 -0.1403  0.4048  0.7061
 4254TIP3   OH234396   3.559   1.831   1.646 -0.2250  0.4908  0.3479
 4254TIP3    H134397   3.546   1.740   1.622  1.6642  0.2822 -0.0025
 4254TIP3    H234398   3.609   1.828   1.728  0.4523  1.1813 -0.0233
 4255TIP3   OH234399   6.916   4.020   8.557 -0.1486  0.4225 -0.7648
 4255TIP3    H134400   6.961   4.030   8.473 -0.1067  2.6800 -0.5443
 4255TIP3    H234401   6.823   4.023   8.535 -0.1542 -0.0019 -0.8120
 4256TIP3   OH234402   2.615   2.328   4.014 -0.1197 -0.6730  0.7049
 4256TIP3    H134403   2.710   2.318   4.024  0.1094 -2.0549 -1.9830
 4256TIP3    H234404   2.602   2.421   3.997  0.7375 -0.4485  1.2369
 4257TIP3   OH234405   6.698   4.369   3.245  0.2218  0.0243  0.5579
 4257TIP3    H134406   6.617   4.410   3.213  0.1472  0.3376  1.1265
 4257TIP3    H234407   6.749   4.442   3.281  0.6389 -0.2097  0.4473
 4258TIP3   OH234408   3.783   3.190   1.341 -0.1980 -0.8269  0.0557
 4258TIP3    H134409   3.724   3.258   1.309 -0.4753 -1.6101 -1.1538
 4258TIP3    H234410   3.753   3.171   1.430 -2.2087 -1.6752 -0.7534
 4259TIP3   OH234411   2.916   2.942   0.670  0.2679 -0.0164 -0.1524
 4259TIP3    H134412   2.956   2.896   0.596 -1.1403 -3.4900  1.0503
 4259TIP3    H234413   2.842   2.990   0.632 -0.9815 -2.4512 -0.9659
 4260TIP3   OH234414   6.568   0.477   1.853  0.2045 -0.3525  0.5753
 4260TIP3    H134415   6.647   0.430   1.880 -1.0710 -2.1597  1.3365
 4260TIP3    H234416   6.596   0.528   1.777  2.0081 -1.2638  0.5687
 4261TIP3   OH234417   5.329   4.715   3.955 -0.1740 -0.0147  0.3391
 4261TIP3    H134418   5.322   4.764   3.873 -0.0583 -1.8562 -0.8421
 4261TIP3    H234419   5.376   4.774   4.014  1.8866  0.5207 -1.6737
 4262TIP3   OH234420   6.458   3.371   0.689 -0.8787 -0.8683 -0.1596
 4262TIP3    H134421   6.461   3.390   0.595 -2.9452  0.7654  0.0532
 4262TIP3    H234422   6.513   3.292   0.699 -0.2505 -0.8180 -2.6364
 4263TIP3   OH234423   6.615   5.403   0.242 -0.3957  0.2293 -0.0896
 4263TIP3    H134424   6.616   5.435   0.152 -0.0112  1.5903  0.3581
 4263TIP3    H234425   6.617   5.483   0.295  0.8271 -0.5498  1.1217
 4264TIP3   OH234426   1.578   3.461   0.314  0.0985  0.3007  0.7020
 4264TIP3    H134427   1.619   3.545   0.293 -1.8988  1.8689  2.5814
 4264TIP3    H234428   1.484   3.479   0.312 -0.4196 -2.0653  0.6253
 4265TIP3   OH234429   1.923   0.727   2.028  0.6782  0.2750  0.2977
 4265TIP3    H134430   1.896   0.704   1.939  1.0550 -1.7686  0.6831
 4265TIP3    H234431   1.862   0.679   2.085  0.9729  0.8923  1.1581
 4266TIP3   OH234432   0.822   2.469   0.314 -0.1349  0.1007 -0.3358
 4266TIP3    H134433   0.768   2.473   0.234 -0.2658  0.6469 -0.2260
 4266TIP3    H234434   0.800   2.549   0.361 -0.5622 -0.5497  0.5801
 4267TIP3   OH234435   5.363   4.743   2.388  0.1373  0.8498  0.4773
 4267TIP3    H134436   5.357   4.768   2.480  0.8735  1.2043  0.4402
 4267TIP3    H234437   5.452   4.768   2.363  0.1241  0.2643 -0.1827
 4268TIP3   OH234438   5.354   2.230   0.489  0.4710  0.1062  0.1066
 4268TIP3    H134439   5.297   2.161   0.524  2.2402 -1.5325 -0.0423
 4268TIP3    H234440   5.352   2.217   0.394  1.8699 -0.6829  0.1591
 4269TIP3   OH234441   0.525   5.908   1.899 -0.0558 -0.8577 -0.4844
 4269TIP3    H134442   0.544   5.875   1.811  0.8893  0.3787 -0.7861
 4269TIP3    H234443   0.567   5.994   1.901  0.8455 -1.2745  1.5207
 4270TIP3   OH234444   2.101   1.044   1.090 -0.0671 -0.5097 -0.0589
 4270TIP3    H134445   2.178   1.097   1.067 -0.2042  0.2017  1.0218
 4270TIP3    H234446   2.120   0.957   1.057  1.7333 -0.6386  1.1808
 4271TIP3   OH234447   2.126   5.388   4.107 -0.7136 -0.1654  0.4736
 4271TIP3    H134448   2.217   5.385   4.138 -0.5475  1.3318  0.2236
 4271TIP3    H234449   2.124   5.327   4.034 -0.0780 -0.7166  0.9005
 4272TIP3   OH234450   2.182   4.723   2.931 -0.1504 -0.2566  0.1822
 4272TIP3    H134451   2.254   4.781   2.908 -0.2662 -1.2277 -3.1177
 4272TIP3    H234452   2.109   4.782   2.950  0.8547  0.6901  1.2334
 4273TIP3   OH234453   5.682   0.484   0.702  0.1734 -0.2009 -0.2936
 4273TIP3    H134454   5.707   0.505   0.612 -1.2966 -1.7789 -1.1183
 4273TIP3    H234455   5.591   0.512   0.708  0.5782  0.9209  1.0992
 4274TIP3   OH234456   2.504   5.915   1.852  0.6911 -0.2139 -0.1669
 4274TIP3    H134457   2.547   5.970   1.917  2.5147 -1.3344 -0.3553
 4274TIP3    H234458   2.558   5.923   1.773  0.9709 -2.1424 -0.2348
 4275TIP3   OH234459   1.916   6.126   2.437 -0.0531 -0.8944  0.2549
 4275TIP3    H134460   1.884   6.215   2.452  0.8257 -0.6245  0.6145
 4275TIP3    H234461   1.968   6.133   2.356 -0.2944 -1.1659  0.0746
 4276TIP3   OH234462   0.318   6.770   2.825 -0.8849  0.3249  0.6614
 4276TIP3    H134463   0.228   6.737   2.821 -0.8683  0.0989  1.8159
 4276TIP3    H234464   0.316   6.851   2.775 -1.6050  0.0492  0.2265
 4277TIP3   OH234465   2.193   1.773   2.240  0.0415  0.2127 -0.1970
 4277TIP3    H134466   2.158   1.749   2.154  0.1131  0.3598 -0.2676
 4277TIP3    H234467   2.265   1.833   2.221  0.5909 -0.3952 -0.0709
 4278TIP3   OH234468   5.489   5.443   1.697 -0.0194 -0.2286 -0.5031
 4278TIP3    H134469   5.413   5.492   1.664 -1.7759 -1.2656  1.7862
 4278TIP3    H234470   5.455   5.356   1.715  2.3165 -1.4319 -1.5222
 4279TIP3   OH234471   4.864   6.859   0.359  0.1487  0.4374 -0.6474
 4279TIP3    H134472   4.822   6.793   0.304 -1.6792  1.2814 -0.3369
 4279TIP3    H234473   4.813   6.860   0.439  0.0092  2.3377 -0.7150
 4280TIP3   OH234474   6.304   2.822   2.715  0.6765  0.3573 -0.1933
 4280TIP3    H134475   6.323   2.893   2.654  1.9726 -1.2522 -1.7769
 4280TIP3    H234476   6.219   2.843   2.752  0.3353  1.9404 -1.7812
 4281TIP3   OH234477   6.889   5.948   1.617  0.0477  0.0102 -0.2859
 4281TIP3    H134478   6.965   6.006   1.613 -0.0481  0.3213  1.6212
 4281TIP3    H234479   6.874   5.922   1.526  2.5514 -0.2223 -0.7065
 4282TIP3   OH234480   2.672   0.154   2.280  0.1325  0.1536 -0.2275
 4282TIP3    H134481   2.580   0.177   2.281  0.1007  0.0069  1.0057
 4282TIP3    H234482   2.675   0.070   2.234 -0.1325  0.9440 -1.7435
 4283TIP3   OH234483   3.849   4.249   2.929  0.1159 -0.2505 -0.5778
 4283TIP3    H134484   3.860   4.306   3.004  1.7144  1.1855 -1.8381
 4283TIP3    H234485   3.915   4.180   2.940 -2.2911 -2.4660  1.3278
 4284TIP3   OH234486   6.787   0.963   3.313  0.5149  0.7231  0.0634
 4284TIP3    H134487   6.732   0.961   3.391 -1.1767  0.0925 -1.0876
 4284TIP3    H234488   6.828   0.877   3.310 -1.6187 -0.3420 -1.1686
 4285TIP3   OH234489   1.124   6.153   0.375  0.4492  0.0471 -0.0839
 4285TIP3    H134490   1.074   6.072   0.371 -0.5076  0.5132  1.4067
 4285TIP3    H234491   1.072   6.216   0.325  1.0496 -0.1773 -1.0043
 4286TIP3   OH234492   0.272   1.633   0.059 -0.1495  0.1735  0.5051
 4286TIP3    H134493   0.318   1.698   0.006 -0.8534  0.1315 -0.1761
 4286TIP3    H234494   0.206   1.684   0.107 -0.7342 -0.0390 -0.0669
 4287TIP3   OH234495   5.365   2.730   2.660 -0.2169  0.4180  0.3361
 4287TIP3    H134496   5.332   2.775   2.582 -0.2953  0.4896  0.4103
 4287TIP3    H234497   5.322   2.644   2.658  1.1700 -0.2766 -0.6794
 4288TIP3   OH234498   3.469   0.333   7.957  0.3823 -0.4601 -0.9119
 4288TIP3    H134499   3.452   0.399   7.890 -2.9632 -0.0372  0.1480
 4288TIP3    H234500   3.485   0.252   7.909 -0.7036  0.0795 -2.2505
 4289TIP3   OH234501   0.617   5.893   8.539 -0.5460  0.1218 -0.1679
 4289TIP3    H134502   0.561   5.869   8.612 -1.2998  0.4387 -0.6288
 4289TIP3    H234503   0.576   5.850   8.463 -0.3211  0.5795 -0.5512
 4290TIP3   OH234504   3.692   6.334   1.134  0.0957  0.4658  0.2892
 4290TIP3    H134505   3.680   6.246   1.169  2.1341  0.0048 -0.0606
 4290TIP3    H234506   3.610   6.353   1.089  0.3591 -2.1645 -1.5305
 4291TIP3   OH234507   0.462   4.708   2.194  0.1266  0.1612  0.5722
 4291TIP3    H134508   0.410   4.684   2.118  1.6864 -0.0482 -0.4646
 4291TIP3    H234509   0.541   4.655   2.188  1.5598  2.1317  0.7736
 4292TIP3   OH234510   3.374   5.795   2.209 -0.3989 -0.0955  0.1306
 4292TIP3    H134511   3.431   5.780   2.284  0.1503  0.5121 -0.1617
 4292TIP3    H234512   3.317   5.867   2.235 -0.3788 -0.0536  0.0597
 4293TIP3   OH234513   4.329   6.036   8.223  0.0343  0.7863 -0.4815
 4293TIP3    H134514   4.395   5.994   8.167  0.5319  1.0744 -0.1158
 4293TIP3    H234515   4.246   6.018   8.179  0.2663 -0.3099 -0.4975
 4294TIP3   OH234516   0.418   5.893   1.242  0.5358  0.2187 -0.0394
 4294TIP3    H134517   0.500   5.936   1.267  0.3187 -0.0827  1.2650
 4294TIP3    H234518   0.439   5.844   1.163  1.4573  0.6317 -0.0603
 4295TIP3   OH234519   1.800   0.708   8.181  0.4282  0.0677 -0.2961
 4295TIP3    H134520   1.884   0.671   8.154  0.2811 -0.6282  0.1675
 4295TIP3    H234521   1.735   0.662   8.127  0.2442 -0.3883  0.2887
 4296TIP3   OH234522   2.061   2.843   8.175 -0.2787 -0.7391  0.5563
 4296TIP3    H134523   2.047   2.898   8.098  1.0011  0.0714  0.8813
 4296TIP3    H234524   1.981   2.853   8.227 -0.2682  0.4056  0.3628
 4297TIP3   OH234525   2.502   6.230   8.432 -0.0524 -0.1294  0.1750
 4297TIP3    H134526   2.513   6.157   8.492 -0.3044 -0.5540 -0.2928
 4297TIP3    H234527   2.430   6.281   8.469 -1.6542 -1.5240 -0.8384
 4298TIP3   OH234528   2.382   5.767   4.268  0.1496 -0.0244 -0.1352
 4298TIP3    H134529   2.472   5.739   4.250  0.4130 -0.2642  1.3721
 4298TIP3    H234530   2.390   5.862   4.282  0.1950 -0.0569  0.0721
 4299TIP3   OH234531   5.687   0.966   1.891 -0.3211 -0.1403  0.4266
 4299TIP3    H134532   5.765   0.989   1.942  0.3343  3.2724 -1.8176
 4299TIP3    H234533   5.718   0.959   1.801 -2.0943 -2.3188 -0.1314
 4300TIP3   OH234534   6.162   4.885   2.685 -0.3160 -0.1711  0.8309
 4300TIP3    H134535   6.164   4.973   2.648 -2.4194  0.0579  1.1649
 4300TIP3    H234536   6.196   4.895   2.774 -1.2906  0.4717  1.1431
 4301TIP3   OH234537   1.325   4.041   2.428 -0.3335 -0.7439 -0.1713
 4301TIP3    H134538   1.398   4.020   2.369  1.4972  0.3355  1.6037
 4301TIP3    H234539   1.329   4.136   2.438 -0.5345 -0.9032  1.7520
 4302TIP3   OH234540   4.396   2.807   2.438 -0.0433 -0.0759 -0.0036
 4302TIP3    H134541   4.372   2.893   2.403 -1.1664  0.1630  1.2627
 4302TIP3    H234542   4.421   2.756   2.361  0.3087  1.2694 -0.8160
 4303TIP3   OH234543   6.819   2.018   3.473  0.2983  0.2744 -0.4909
 4303TIP3    H134544   6.871   2.094   3.499 -0.3948  0.5457  0.1354
 4303TIP3    H234545   6.830   2.013   3.378  1.0881  0.6029 -0.4194
 4304TIP3   OH234546   0.208   3.307   1.041 -0.1408  0.2316 -0.0411
 4304TIP3    H134547   0.209   3.327   1.134  0.8180  2.0927 -0.3952
 4304TIP3    H234548   0.299   3.321   1.013 -0.3911 -0.3842 -1.2448
 4305TIP3   OH234549   5.877   1.441   2.139 -0.1623  0.1424  0.3046
 4305TIP3    H134550   5.960   1.410   2.175  0.7297  0.9658 -0.9561
 4305TIP3    H234551   5.853   1.375   2.073 -0.8634 -0.4327  1.1184
 4306TIP3   OH234552   1.347   3.259   2.721 -0.5342  0.1351  0.2428
 4306TIP3    H134553   1.420   3.207   2.689 -0.5335  0.0193  0.4290
 4306TIP3    H234554   1.278   3.196   2.738 -0.8812  0.3111 -0.4886
 4307TIP3   OH234555   1.972   4.206   3.800  0.0726 -0.2687  0.0574
 4307TIP3    H134556   1.906   4.262   3.840 -0.1999  0.0835 -0.8689
 4307TIP3    H234557   2.030   4.266   3.752 -0.0020 -0.7346 -0.6359
 4308TIP3   OH234558   3.096   0.165   2.273  0.1536 -0.4536 -0.1457
 4308TIP3    H134559   3.045   0.205   2.202  2.0352  1.1798 -0.6747
 4308TIP3    H234560   3.176   0.135   2.230  0.0645 -2.2041  0.8079
 4309TIP3   OH234561   0.879   1.755   4.259  0.2588 -0.0395  0.0354
 4309TIP3    H134562   0.799   1.800   4.231 -0.5778 -0.0143  2.2107
 4309TIP3    H234563   0.948   1.821   4.251 -0.1684  0.3359 -0.6714
 4310TIP3   OH234564   5.145   6.509   1.021 -0.2874  0.6658  0.4307
 4310TIP3    H134565   5.139   6.508   1.116 -0.9312  0.4835  0.3927
 4310TIP3    H234566   5.065   6.466   0.991  0.5956 -0.5975 -0.1771
 4311TIP3   OH234567   0.880   2.244   1.580  0.0304  0.1037  0.0336
 4311TIP3    H134568   0.896   2.230   1.487  1.5589  0.2074  0.2664
 4311TIP3    H234569   0.932   2.321   1.602  0.2533 -0.3455  1.1314
 4312TIP3   OH234570   5.721   6.330   3.418  0.1928  0.2329  0.0072
 4312TIP3    H134571   5.738   6.288   3.503 -0.7800 -0.5968 -0.1834
 4312TIP3    H234572   5.660   6.401   3.438 -1.1889 -0.8597 -0.1537
 4313TIP3   OH234573   5.411   0.394   7.966  0.3745  0.0094 -0.3576
 4313TIP3    H134574   5.411   0.425   7.875 -0.7436 -0.0698 -0.4046
 4313TIP3    H234575   5.403   0.299   7.959  0.4775 -0.0132 -0.1777
 4314TIP3   OH234576   0.198   0.794   8.495  0.1693 -0.2215  0.5077
 4314TIP3    H134577   0.162   0.706   8.501  1.2239 -0.8860 -1.8629
 4314TIP3    H234578   0.124   0.848   8.466 -0.0671 -0.6662  0.2716
 4315TIP3   OH234579   0.137   4.922   3.743  0.2110 -0.1263 -0.0200
 4315TIP3    H134580   0.044   4.919   3.720 -0.1609 -0.8417  1.4401
 4315TIP3    H234581   0.139   4.896   3.835  1.9797 -1.2658 -0.3487
 4316TIP3   OH234582   2.761   2.490   0.248  0.0186 -0.0581 -0.1762
 4316TIP3    H134583   2.776   2.401   0.279  1.1461  0.2026  0.0648
 4316TIP3    H234584   2.848   2.522   0.223 -0.3855  0.9372 -0.3588
 4317TIP3   OH234585   0.532   5.550   0.320 -0.4085  0.2159 -0.2929
 4317TIP3    H134586   0.563   5.581   0.404  0.8065 -1.3399 -0.1232
 4317TIP3    H234587   0.594   5.481   0.295 -2.4939 -1.5471 -0.9634
 4318TIP3   OH234588   0.049   6.708   2.855 -0.2532 -0.3742 -0.0130
 4318TIP3    H134589   0.077   6.740   2.941 -1.0755  3.4969 -0.9798
 4318TIP3    H234590  -0.046   6.697   2.864 -0.2316 -0.7692 -0.2351
 4319TIP3   OH234591   2.872   0.699   2.511  0.0181  0.4631 -0.1046
 4319TIP3    H134592   2.914   0.702   2.424 -0.8267  0.7462 -0.5145
 4319TIP3    H234593   2.881   0.608   2.538 -0.6940  0.1019 -1.0016
 4320TIP3   OH234594   4.345   3.322   1.886  0.6663  0.2879 -0.4183
 4320TIP3    H134595   4.369   3.231   1.907  0.1992 -0.0563 -1.3601
 4320TIP3    H234596   4.383   3.373   1.958  0.2791 -0.7234  0.5448
 4321TIP3   OH234597   2.555   4.145   3.041 -0.5603 -0.0515 -0.2946
 4321TIP3    H134598   2.649   4.137   3.022 -1.0299 -3.2152 -1.8808
 4321TIP3    H234599   2.549   4.128   3.135  0.4621  0.5595 -0.0982
 4322TIP3   OH234600   6.765   6.233   3.052 -0.6733  0.0110  0.4943
 4322TIP3    H134601   6.832   6.165   3.046  0.2777  0.9953 -0.8157
 4322TIP3    H234602   6.792   6.287   3.127 -0.5164 -0.1356  0.5427
 4323TIP3   OH234603   2.228   0.532   0.625  0.7675 -0.5873 -0.0907
 4323TIP3    H134604   2.230   0.616   0.578  2.2554  0.8413  2.3084
 4323TIP3    H234605   2.139   0.527   0.660  0.4182 -0.4579 -0.9228
 4324TIP3   OH234606   2.375   3.944   1.733  0.6529 -0.1686 -0.4243
 4324TIP3    H134607   2.398   4.036   1.744  1.0512 -0.4750  1.5268
 4324TIP3    H234608   2.426   3.916   1.657  2.6983  0.5298  0.6148
 4325TIP3   OH234609   3.095   3.562   1.387  0.3638 -1.2181  0.1725
 4325TIP3    H134610   3.130   3.473   1.392 -0.4679 -1.5979 -0.3991
 4325TIP3    H234611   3.033   3.567   1.460  2.2170 -0.2273  1.7825
 4326TIP3   OH234612   0.347   2.835   2.916 -0.3100  0.0637 -0.0996
 4326TIP3    H134613   0.379   2.874   2.997  0.4452 -0.7948  0.0333
 4326TIP3    H234614   0.348   2.906   2.852 -0.0096  0.5211  0.4042
 4327TIP3   OH234615   6.837   3.771   3.436  0.2250 -0.3844 -0.4759
 4327TIP3    H134616   6.889   3.847   3.410 -0.6918  0.5758  0.4174
 4327TIP3    H234617   6.900   3.699   3.439  1.2591  0.4828 -0.6304
 4328TIP3   OH234618   6.383   2.706   3.377  0.2920  0.3606  0.2491
 4328TIP3    H134619   6.476   2.693   3.358 -0.0396 -0.2730 -1.0662
 4328TIP3    H234620   6.369   2.801   3.367  0.4484  0.2438 -1.3807
 4329TIP3   OH234621   5.308   5.308   0.845  0.2806 -0.8392 -0.0905
 4329TIP3    H134622   5.319   5.226   0.797  3.5110 -1.0884  0.8205
 4329TIP3    H234623   5.320   5.284   0.937 -2.0595  0.2116  0.5670
 4330TIP3   OH234624   0.751   6.176   3.337 -0.5711 -0.2561  0.7726
 4330TIP3    H134625   0.806   6.183   3.416  1.7148 -0.2130 -0.7261
 4330TIP3    H234626   0.704   6.260   3.334  0.1208  0.1811  1.5264
 4331TIP3   OH234627   0.397   6.838   2.057  0.1247  0.1592 -0.4725
 4331TIP3    H134628   0.330   6.898   2.024 -0.0171 -0.1076 -0.6767
 4331TIP3    H234629   0.461   6.895   2.099  0.3319  0.5100 -1.2436
 4332TIP3   OH234630   0.984   4.809   2.279  0.4321  0.7088 -0.3008
 4332TIP3    H134631   0.976   4.904   2.286  2.1765  1.0248 -1.8539
 4332TIP3    H234632   1.022   4.794   2.192  0.3508 -1.3946 -0.0256
 4333TIP3   OH234633   6.719   3.865   2.860  0.0439  0.1760  0.3280
 4333TIP3    H134634   6.697   3.815   2.938 -1.9362  2.0311  1.0490
 4333TIP3    H234635   6.733   3.798   2.792 -0.7538 -1.3917  1.6276
 4334TIP3   OH234636   2.186   3.596   1.945 -0.0095  0.3029 -0.7453
 4334TIP3    H134637   2.156   3.576   1.856  0.0007  0.0540 -0.6928
 4334TIP3    H234638   2.111   3.577   2.001  0.6267 -1.6153 -0.4569
 4335TIP3   OH234639   4.664   2.725   1.358  0.0491 -0.0322 -0.1805
 4335TIP3    H134640   4.698   2.636   1.353  0.5625  0.2132 -1.2836
 4335TIP3    H234641   4.606   2.724   1.434  0.5264 -1.1380  0.1857
 4336TIP3   OH234642   0.245   6.813   3.282  0.1491 -0.0943 -0.1701
 4336TIP3    H134643   0.230   6.768   3.365  1.5842 -0.4144 -0.0668
 4336TIP3    H234644   0.312   6.878   3.301  0.4464 -0.1292 -1.0612
 4337TIP3   OH234645   2.235   5.656   8.328  0.4958 -0.7110 -0.2581
 4337TIP3    H134646   2.237   5.677   8.235 -0.3753  0.2769 -0.0759
 4337TIP3    H234647   2.168   5.714   8.364  3.1566  1.4750  1.5964
 4338TIP3   OH234648   2.312   5.365   0.714 -0.7721  0.5766  0.4150
 4338TIP3    H134649   2.400   5.335   0.693 -1.2307 -0.6169  0.1454
 4338TIP3    H234650   2.322   5.412   0.797  0.2353  1.1486  0.0002
 4339TIP3   OH234651   3.978   3.539   2.064  0.0093 -0.4496 -0.2845
 4339TIP3    H134652   4.032   3.537   2.143  1.1737  0.6402 -1.0085
 4339TIP3    H234653   3.905   3.596   2.086 -0.3973 -1.2148  0.4162
 4340TIP3   OH234654   0.656   3.607   2.230  0.3279 -0.2309 -0.2388
 4340TIP3    H134655   0.748   3.585   2.219  0.2926 -0.6765  0.3378
 4340TIP3    H234656   0.628   3.559   2.308 -0.5614 -0.6295 -0.7835
 4341TIP3   OH234657   2.764   4.552   1.727 -0.5429 -0.3981 -0.3546
 4341TIP3    H134658   2.846   4.512   1.753  0.2180  0.6047 -1.1396
 4341TIP3    H234659   2.697   4.499   1.770  0.4555 -1.9024 -0.5832
 4342TIP3   OH234660   4.868   0.910   1.681  0.1212  0.4149 -0.2263
 4342TIP3    H134661   4.872   0.814   1.683 -0.4710  0.3889  1.6678
 4342TIP3    H234662   4.957   0.937   1.659 -0.5710 -0.5384 -5.2556
 4343TIP3   OH234663   2.414   6.850   3.655 -0.1656 -0.1062 -0.5262
 4343TIP3    H134664   2.506   6.856   3.632 -0.6152  1.0269 -2.2588
 4343TIP3    H234665   2.411   6.787   3.727  1.9642  0.0233 -0.2603
 4344TIP3   OH234666   5.586   5.935   0.759  0.5521 -0.6428  0.0882
 4344TIP3    H134667   5.570   5.848   0.797  2.0146 -0.4589  1.2353
 4344TIP3    H234668   5.580   5.995   0.834 -0.4488  0.2625 -0.6968
 4345TIP3   OH234669   2.383   5.434   7.550 -0.6985 -0.3523 -0.4406
 4345TIP3    H134670   2.307   5.424   7.493  0.0412  0.1117 -1.5356
 4345TIP3    H234671   2.440   5.361   7.527 -0.5858 -0.4155  0.0258
 4346TIP3   OH234672   0.811   5.874   2.984 -0.2044 -0.1652 -0.0578
 4346TIP3    H134673   0.835   5.781   2.982 -1.5053 -0.5011 -0.8675
 4346TIP3    H234674   0.750   5.885   2.911  0.6276  1.5328 -0.5459
 4347TIP3   OH234675   3.262   5.381   1.723  0.4991 -0.3527  0.2311
 4347TIP3    H134676   3.201   5.451   1.699  0.1504 -0.2833  1.2585
 4347TIP3    H234677   3.339   5.397   1.668 -0.4506 -0.5418 -1.2130
 4348TIP3   OH234678   0.509   5.128   2.660  0.2680  0.9042 -0.2095
 4348TIP3    H134679   0.513   5.070   2.736 -0.9540  0.7047 -0.2823
 4348TIP3    H234680   0.544   5.211   2.692 -0.0269  0.7598  0.5134
 4349TIP3   OH234681   0.742   4.644   2.245  0.7468 -0.1300  0.1992
 4349TIP3    H134682   0.803   4.714   2.269 -0.4007  0.8039  0.4740
 4349TIP3    H234683   0.762   4.625   2.153 -0.9071  2.7096 -0.8552
 4350TIP3   OH234684   5.351   3.438   3.078  0.0149 -0.5694 -0.5120
 4350TIP3    H134685   5.353   3.466   2.987  1.2688 -0.3534 -0.4317
 4350TIP3    H234686   5.349   3.342   3.074  0.7576 -0.5772 -0.7665
 4351TIP3   OH234687   0.581   4.736   3.597 -0.0843  0.3405  0.3540
 4351TIP3    H134688   0.625   4.820   3.589 -0.0018  0.3102  0.4761
 4351TIP3    H234689   0.641   4.673   3.556  0.1056  0.2618  0.7463
 4352TIP3   OH234690   0.331   6.718   0.695  0.1909  0.7471 -0.2359
 4352TIP3    H134691   0.299   6.793   0.645  0.6984  0.8977 -0.3373
 4352TIP3    H234692   0.275   6.715   0.773 -2.2802 -0.9932 -1.9645
 4353TIP3   OH234693   0.703   0.393   8.422 -0.5057 -0.1954  0.3411
 4353TIP3    H134694   0.680   0.406   8.330  0.3262  0.7473  0.2472
 4353TIP3    H234695   0.723   0.300   8.429 -1.0187 -0.3660 -0.3196
 4354TIP3   OH234696   6.016   2.319   4.112 -0.2321  0.5019 -0.0696
 4354TIP3    H134697   6.087   2.344   4.054 -1.2300  0.2466 -1.4649
 4354TIP3    H234698   5.976   2.401   4.139 -0.1352  0.5999 -0.2255
 4355TIP3   OH234699   6.545   2.408   2.795  0.5352  0.1873 -0.9438
 4355TIP3    H134700   6.627   2.376   2.759  0.3460 -0.9345 -0.4122
 4355TIP3    H234701   6.554   2.397   2.889 -0.1178  0.3008 -0.8616
 4356TIP3   OH234702   2.710   6.677   8.461 -0.2334  0.3330 -0.5446
 4356TIP3    H134703   2.663   6.760   8.458 -1.6568 -0.4456 -0.4728
 4356TIP3    H234704   2.797   6.698   8.425 -0.2313  2.0349  0.3489
 4357TIP3   OH234705   5.083   1.716   3.614 -0.3106  0.4702  0.3289
 4357TIP3    H134706   5.022   1.653   3.651  0.8630  0.0442  1.6175
 4357TIP3    H234707   5.051   1.801   3.643 -2.0753  0.5728 -1.6640
 4358TIP3   OH234708   2.070   2.289   3.350 -0.5203 -0.6614  0.5129
 4358TIP3    H134709   2.124   2.368   3.355  0.5540 -1.4102  3.7715
 4358TIP3    H234710   1.980   2.320   3.362 -0.2279  0.1742  0.6155
 4359TIP3   OH234711   1.048   4.376   0.890  0.0496 -0.0648 -0.0207
 4359TIP3    H134712   0.965   4.328   0.893 -1.5605  2.4971 -0.3268
 4359TIP3    H234713   1.073   4.376   0.798  1.0587 -1.7619  0.2010
 4360TIP3   OH234714   4.034   3.144   3.068 -0.3387 -0.3254  0.0627
 4360TIP3    H134715   4.109   3.175   3.119  0.3032 -1.6469 -0.0293
 4360TIP3    H234716   4.005   3.065   3.113  1.1915 -2.4220 -2.3226
 4361TIP3   OH234717   1.392   6.223   3.952  0.0517 -0.0103  0.0874
 4361TIP3    H134718   1.420   6.296   3.896 -0.8672  0.5939  0.3909
 4361TIP3    H234719   1.299   6.240   3.969 -0.1148 -1.1292  0.3660
 4362TIP3   OH234720   3.941   3.961   1.435 -0.3310  0.0215  0.3664
 4362TIP3    H134721   3.883   3.901   1.390  0.1663 -0.8661  0.8784
 4362TIP3    H234722   3.890   3.995   1.508 -0.8445  0.7822 -0.3282
 4363TIP3   OH234723   3.723   5.196   2.202 -0.3387 -0.4105 -0.1058
 4363TIP3    H134724   3.815   5.173   2.214  0.0804  0.3922 -1.5698
 4363TIP3    H234725   3.700   5.158   2.117 -0.4263  2.0061 -1.2479
 4364TIP3   OH234726   0.060   3.782   1.593 -0.1264  0.1219  0.1535
 4364TIP3    H134727   0.078   3.757   1.684 -0.3678 -2.9390 -0.5129
 4364TIP3    H234728  -0.027   3.745   1.576  0.5639 -0.6976 -1.7463
 4365TIP3   OH234729   0.124   2.891   1.924  0.6394 -0.1378  0.3545
 4365TIP3    H134730   0.136   2.955   1.994 -2.3647  0.2243  0.6801
 4365TIP3    H234731   0.098   2.811   1.969  0.8151 -0.5504 -0.2593
 4366TIP3   OH234732   3.487   4.412   1.893 -0.5853 -0.0721 -0.1825
 4366TIP3    H134733   3.516   4.442   1.979  3.2225 -0.1157 -1.2728
 4366TIP3    H234734   3.461   4.492   1.847  1.3413  0.5425 -0.2765
 4367TIP3   OH234735   0.574   1.318   3.778 -0.3031 -0.0269 -0.5967
 4367TIP3    H134736   0.534   1.266   3.709 -0.1831  1.6154 -1.9512
 4367TIP3    H234737   0.662   1.282   3.787  0.2153  0.7072 -2.4058
 4368TIP3   OH234738   6.000   0.628   1.339 -0.0576  0.3608 -0.5531
 4368TIP3    H134739   6.032   0.623   1.429  0.1503 -0.5760 -0.6610
 4368TIP3    H234740   5.907   0.648   1.347  0.3960  2.5989 -0.2190
 4369TIP3   OH234741   2.645   3.031   0.075  0.6753 -0.4954  0.2471
 4369TIP3    H134742   2.562   3.019   0.121  0.1602 -1.4095 -0.8689
 4369TIP3    H234743   2.677   2.942   0.059  1.0789 -0.1980 -0.7200
 4370TIP3   OH234744   5.470   4.747   2.966  1.1534  0.5390  0.0958
 4370TIP3    H134745   5.452   4.832   3.008  2.6072 -0.5999  3.3538
 4370TIP3    H234746   5.551   4.762   2.917  0.2287  1.5186 -1.2276
 4371TIP3   OH234747   1.729   5.002   2.675  0.3859 -0.4278  0.0403
 4371TIP3    H134748   1.657   5.059   2.702  0.2224  0.4919 -2.1163
 4371TIP3    H234749   1.808   5.052   2.696  0.2483  0.5756 -1.6022
 4372TIP3   OH234750   6.365   5.966   0.548 -0.1040 -0.6129 -0.1443
 4372TIP3    H134751   6.376   5.874   0.574  0.1574 -0.1252  1.6257
 4372TIP3    H234752   6.290   5.996   0.598  0.9580  0.6308  0.7529
 4373TIP3   OH234753   4.610   5.834   1.277 -0.0348  0.0216 -0.2687
 4373TIP3    H134754   4.543   5.900   1.295 -0.9663 -1.2790  1.3008
 4373TIP3    H234755   4.593   5.808   1.187  0.6938  2.2298 -1.1300
 4374TIP3   OH234756   6.778   5.189   1.080 -0.3731 -0.8604  0.3589
 4374TIP3    H134757   6.774   5.282   1.057  1.4250 -0.8127  0.0838
 4374TIP3    H234758   6.739   5.145   1.005  1.2288 -0.4417 -0.7718
 4375TIP3   OH234759   6.622   6.206   3.324 -0.4949  0.1701 -0.3079
 4375TIP3    H134760   6.576   6.247   3.251 -1.3067  0.3349  0.2900
 4375TIP3    H234761   6.596   6.256   3.401 -1.2913 -1.2751  0.3951
 4376TIP3   OH234762   6.330   4.111   2.322  0.3217 -0.2933 -0.0395
 4376TIP3    H134763   6.281   4.120   2.403  0.1363 -1.6925  0.0354
 4376TIP3    H234764   6.370   4.196   2.308 -0.8547  0.4106  0.7290
 4377TIP3   OH234765   3.465   3.222   8.365  0.1496 -0.2739 -0.5238
 4377TIP3    H134766   3.421   3.307   8.358 -0.3597 -0.6478 -2.4973
 4377TIP3    H234767   3.428   3.170   8.294 -1.0601 -2.8958  1.8812
 4378TIP3   OH234768   5.891   0.974   3.502  0.2613 -0.4041 -0.0772
 4378TIP3    H134769   5.886   0.896   3.557  1.3738 -0.0597  0.5213
 4378TIP3    H234770   5.984   0.984   3.482  0.2656  1.3047  0.6392
 4379TIP3   OH234771   1.743   6.431   8.341  0.6334  0.1176 -0.8953
 4379TIP3    H134772   1.710   6.480   8.417 -0.7280 -2.5890  0.4042
 4379TIP3    H234773   1.838   6.430   8.353  0.4160 -1.1761  1.5150
 4380TIP3   OH234774   3.824   1.035   2.047 -0.8639  0.9128  0.1730
 4380TIP3    H134775   3.867   1.076   1.972 -0.3846  1.8699  0.9644
 4380TIP3    H234776   3.875   1.062   2.123  0.2777 -2.1812  0.6551
 4381TIP3   OH234777   1.337   5.810   3.040 -0.6685  0.2101 -0.6882
 4381TIP3    H134778   1.395   5.746   2.997 -0.2838 -0.1351  0.3060
 4381TIP3    H234779   1.356   5.799   3.133 -0.8967  1.5069 -0.4808
 4382TIP3   OH234780   6.591   6.159   3.859  0.0850  0.0306 -0.7189
 4382TIP3    H134781   6.676   6.202   3.864  0.4789 -0.5226 -2.2776
 4382TIP3    H234782   6.535   6.221   3.813  0.0186 -0.1742 -0.9142
 4383TIP3   OH234783   1.386   4.842   1.975 -0.5698 -0.0947  0.7254
 4383TIP3    H134784   1.312   4.869   1.921 -2.9921 -1.5062  3.0820
 4383TIP3    H234785   1.369   4.880   2.061  1.0483 -1.0993  1.5518
 4384TIP3   OH234786   1.723   2.981   1.801 -0.0457 -0.5143 -0.3852
 4384TIP3    H134787   1.765   2.901   1.770  2.3009  0.6257 -0.3990
 4384TIP3    H234788   1.675   3.013   1.725 -0.1229 -1.3518 -0.7009
 4385TIP3   OH234789   5.778   0.049   1.980 -0.2922 -0.7504  0.2699
 4385TIP3    H134790   5.705   0.007   1.935  0.1300  0.1750 -1.3920
 4385TIP3    H234791   5.739   0.125   2.023 -0.5011 -0.9417  0.4207
 4386TIP3   OH234792   0.541   1.666   2.220 -0.0969  0.0909  0.2995
 4386TIP3    H134793   0.581   1.717   2.289 -0.5010  2.5424 -1.1535
 4386TIP3    H234794   0.449   1.659   2.245  0.0869 -0.5111  0.8190
 4387TIP3   OH234795   3.986   1.461   0.760  0.2747 -0.2334  0.0537
 4387TIP3    H134796   3.997   1.551   0.729  1.2385 -0.4568 -0.2668
 4387TIP3    H234797   3.988   1.468   0.855  2.7514 -0.1614  0.0565
 4388TIP3   OH234798   0.074   1.662   0.349  0.0015  0.3112  0.5144
 4388TIP3    H134799   0.101   1.722   0.419  3.9389  0.4892 -0.9226
 4388TIP3    H234800   0.065   1.718   0.272  1.0658 -0.5382 -0.2570
 4389TIP3   OH234801   2.894   0.310   1.718  0.6699 -0.3272  0.1869
 4389TIP3    H134802   2.900   0.303   1.623 -0.3129 -1.6660  0.2070
 4389TIP3    H234803   2.956   0.380   1.740  0.2733  0.6247 -1.5018
 4390TIP3   OH234804   0.278   6.585   3.092 -0.3438 -0.3726 -0.2637
 4390TIP3    H134805   0.315   6.639   3.022 -0.3551 -0.6492 -0.4826
 4390TIP3    H234806   0.245   6.649   3.156  2.2312 -0.0892  0.8962
 4391TIP3   OH234807   3.787   4.074   1.629 -0.2361 -0.0969  0.2325
 4391TIP3    H134808   3.696   4.070   1.659 -0.1194  0.0483  0.6033
 4391TIP3    H234809   3.835   4.111   1.702 -0.1826  1.6171 -0.6361
 4392TIP3   OH234810   6.222   6.694   2.799  0.1253 -0.1225  0.5979
 4392TIP3    H134811   6.187   6.723   2.714  0.9870 -0.4906  0.1074
 4392TIP3    H234812   6.209   6.770   2.856 -0.9728 -0.0629  0.2958
 4393TIP3   OH234813   4.283   1.944   0.376 -0.2756  0.3246 -0.3126
 4393TIP3    H134814   4.353   2.010   0.373 -0.6273  0.8782  1.9549
 4393TIP3    H234815   4.202   1.995   0.378 -0.5175 -0.0337  2.6618
 4394TIP3   OH234816   1.064   4.424   0.617  0.0358 -0.5030  0.3199
 4394TIP3    H134817   1.117   4.503   0.619 -0.3600 -0.2372  0.4839
 4394TIP3    H234818   1.029   4.419   0.528  0.2811 -0.6464  0.2293
 4395TIP3   OH234819   6.608   5.151   1.312  0.3681  0.1397 -0.0603
 4395TIP3    H134820   6.616   5.084   1.244  1.8425  0.9503 -0.7201
 4395TIP3    H234821   6.517   5.180   1.306  1.0569  2.1121 -3.6076
 4396TIP3   OH234822   2.082   2.110   0.635  0.3059 -0.5799  0.0716
 4396TIP3    H134823   2.056   2.022   0.664 -1.8546 -0.0971 -0.2591
 4396TIP3    H234824   2.003   2.147   0.596  1.2759  1.3939 -0.1413
 4397TIP3   OH234825   2.871   3.812   0.238 -0.6948 -0.6459 -0.0016
 4397TIP3    H134826   2.804   3.879   0.253 -0.7493 -0.2355 -1.8017
 4397TIP3    H234827   2.906   3.832   0.151  0.8306 -1.6666  0.3230
 4398TIP3   OH234828   0.533   4.103   1.479  0.3191 -0.1689 -0.0052
 4398TIP3    H134829   0.569   4.188   1.504  1.1961 -0.5653  0.1175
 4398TIP3    H234830   0.539   4.102   1.383  0.7429 -0.2777  0.0218
 4399TIP3   OH234831   2.639   2.212   2.447  0.6779  0.3838  0.4605
 4399TIP3    H134832   2.549   2.218   2.481  0.3379  2.6984 -0.6899
 4399TIP3    H234833   2.693   2.209   2.526 -0.3673 -1.5690  1.1929
 4400TIP3   OH234834   4.681   6.881   0.556 -0.3883 -0.3470  0.2563
 4400TIP3    H134835   4.624   6.916   0.625 -0.5599  0.3264 -0.2216
 4400TIP3    H234836   4.621   6.863   0.483  0.0478  0.7133 -0.3851
 4401TIP3   OH234837   5.777   2.374   0.323  0.3961 -0.1642  0.0538
 4401TIP3    H134838   5.722   2.315   0.375  1.3828 -1.0782  0.0917
 4401TIP3    H234839   5.830   2.420   0.387  0.9136 -0.5725 -0.0735
 4402TIP3   OH234840   5.276   0.395   1.556 -0.4246  0.1914  0.8452
 4402TIP3    H134841   5.332   0.438   1.492 -1.0192 -1.1035 -0.6018
 4402TIP3    H234842   5.244   0.467   1.612 -1.0284  1.6012 -1.1929
 4403TIP3   OH234843   3.506   0.445   1.541  0.3346 -0.0351 -0.0106
 4403TIP3    H134844   3.508   0.539   1.555  1.1172 -0.3184  2.2103
 4403TIP3    H234845   3.461   0.434   1.457  2.9860  2.4456 -1.9471
 4404TIP3   OH234846   1.852   6.942   3.184 -0.2541  0.2879 -0.0732
 4404TIP3    H134847   1.936   6.967   3.224  0.0874  1.2891 -1.3500
 4404TIP3    H234848   1.876   6.879   3.115 -0.6004  0.2152 -0.1288
 4405TIP3   OH234849   1.563   3.667   3.596  0.2415 -0.3467 -0.1828
 4405TIP3    H134850   1.488   3.651   3.538  0.4468 -1.0624 -0.2615
 4405TIP3    H234851   1.630   3.705   3.539 -0.7789  2.4164  0.3010
 4406TIP3   OH234852   1.846   4.408   1.856 -0.4975 -0.2138  0.3839
 4406TIP3    H134853   1.797   4.332   1.825 -0.0542 -0.3711  0.0599
 4406TIP3    H234854   1.927   4.372   1.892 -0.4194  0.0785  0.5041
 4407TIP3   OH234855   5.545   1.675   8.159  0.1960  0.1252  0.2669
 4407TIP3    H134856   5.554   1.601   8.098 -1.2540 -0.5135  0.7791
 4407TIP3    H234857   5.572   1.751   8.108 -0.3091 -0.4849 -0.9621
 4408TIP3   OH234858   0.721   1.509   3.578 -0.5770  0.3428 -0.2360
 4408TIP3    H134859   0.806   1.484   3.542 -0.9999 -0.6578 -0.5594
 4408TIP3    H234860   0.666   1.431   3.569 -1.1022  0.4769  1.3359
 4409TIP3   OH234861   0.881   3.270   0.642  0.0276  0.0754  0.3014
 4409TIP3    H134862   0.880   3.353   0.689  1.3598 -0.4671  1.3354
 4409TIP3    H234863   0.960   3.226   0.672  0.3948 -0.7446 -1.6913
 4410TIP3   OH234864   6.096   1.376   1.732  0.0844  0.0053 -0.1991
 4410TIP3    H134865   6.185   1.410   1.737 -0.3708  1.0630  1.3655
 4410TIP3    H234866   6.107   1.281   1.723  1.3558  0.1715 -0.5767
 4411TIP3   OH234867   3.464   5.228   0.384 -0.1109  1.0646 -0.7803
 4411TIP3    H134868   3.523   5.154   0.372 -0.9800  0.3603 -0.8860
 4411TIP3    H234869   3.507   5.284   0.448  0.0265 -0.1244  0.2093
 4412TIP3   OH234870   1.291   4.310   2.325  0.1480  0.1175 -1.0695
 4412TIP3    H134871   1.226   4.352   2.381 -0.9180 -1.1528 -1.3105
 4412TIP3    H234872   1.322   4.380   2.268  1.1194  1.4104  0.9163
 4413TIP3   OH234873   4.379   3.306   1.605 -0.6302  0.4621  0.4911
 4413TIP3    H134874   4.356   3.326   1.696 -1.2328 -3.4026  1.3591
 4413TIP3    H234875   4.297   3.280   1.564 -0.1813  1.0787 -0.8781
 4414TIP3   OH234876   0.557   5.029   2.392  0.1653  0.0807 -0.0750
 4414TIP3    H134877   0.558   5.068   2.479 -0.0148 -1.0901  0.4689
 4414TIP3    H234878   0.469   4.993   2.382  0.0745  0.4941 -0.8840
 4415TIP3   OH234879   1.798   2.404   3.016 -0.1240  0.5668  0.1285
 4415TIP3    H134880   1.892   2.405   3.037  0.0974 -0.4243 -0.7578
 4415TIP3    H234881   1.779   2.494   2.989  0.2853  1.0832  1.4735
 4416TIP3   OH234882   3.914   6.554   0.103  0.3931 -0.3101  0.3397
 4416TIP3    H134883   4.005   6.561   0.075  0.2076 -3.5510 -1.4896
 4416TIP3    H234884   3.863   6.576   0.025 -0.3901 -0.0037  0.9215
 4417TIP3   OH234885   3.385   3.717   1.185  0.0329  0.4226  0.5962
 4417TIP3    H134886   3.356   3.686   1.099  2.2357 -0.8251  0.2433
 4417TIP3    H234887   3.380   3.640   1.241  1.8519  0.3458  0.7053
 4418TIP3   OH234888   2.647   2.168   1.936  0.3194 -0.1216  0.2303
 4418TIP3    H134889   2.569   2.208   1.973 -0.8077 -1.0958 -0.9912
 4418TIP3    H234890   2.706   2.242   1.919 -2.2293  1.3674 -3.3076
 4419TIP3   OH234891   0.290   0.610   3.585  0.5082 -0.4490 -0.2550
 4419TIP3    H134892   0.284   0.519   3.615 -1.7194 -0.0357  0.7189
 4419TIP3    H234893   0.370   0.643   3.626  1.7254 -2.0832 -1.1370
 4420TIP3   OH234894   0.836   0.388   0.089  0.0872 -0.8095 -0.3888
 4420TIP3    H134895   0.921   0.422   0.116 -1.4733  1.9277  1.6396
 4420TIP3    H234896   0.844   0.378  -0.006  2.2488  0.6643 -0.4421
 4421TIP3   OH234897   0.168   4.489   2.368  0.1655 -0.0855  0.2475
 4421TIP3    H134898   0.095   4.429   2.349 -0.6079  1.2111 -1.1202
 4421TIP3    H234899   0.139   4.537   2.446  0.4282 -0.8716  0.8519
 4422TIP3   OH234900   0.403   4.659   8.359 -0.3433  0.3285  0.3579
 4422TIP3    H134901   0.333   4.669   8.294  0.1060  1.1173 -0.0191
 4422TIP3    H234902   0.444   4.575   8.338 -2.4242 -1.1647  1.8316
 4423TIP3   OH234903   6.382   0.954   1.295  0.0888  0.0959 -0.5671
 4423TIP3    H134904   6.477   0.947   1.300  0.3600  1.0778 -2.9517
 4423TIP3    H234905   6.351   0.864   1.290  0.8152 -0.2523  0.7872
 4424TIP3   OH234906   3.731   3.834   0.788  0.1235  0.2689  0.6471
 4424TIP3    H134907   3.761   3.771   0.723  1.2409  1.8600 -0.4473
 4424TIP3    H234908   3.775   3.808   0.869  0.7414 -0.2221  0.1588
 4425TIP3   OH234909   0.275   6.305   0.089  0.7171  0.0660  0.6196
 4425TIP3    H134910   0.307   6.322   0.001 -0.3322  0.0082  0.2052
 4425TIP3    H234911   0.312   6.220   0.113 -0.9051 -1.1138 -0.7620
 4426TIP3   OH234912   1.186   5.440   2.634 -0.3919  0.2794  0.1116
 4426TIP3    H134913   1.180   5.433   2.730  0.0932 -0.7549  0.0808
 4426TIP3    H234914   1.196   5.534   2.618  0.1651  0.4107  1.1177
 4427TIP3   OH234915   2.320   3.120   1.794 -0.5529  0.2306  0.4010
 4427TIP3    H134916   2.337   3.215   1.793  1.6514 -0.1023  0.1831
 4427TIP3    H234917   2.364   3.089   1.873 -1.3934 -0.5966  0.5514
 4428TIP3   OH234918   6.624   0.230   2.880 -0.2387  0.4663 -0.0763
 4428TIP3    H134919   6.589   0.141   2.885  2.9973 -0.9330  0.6477
 4428TIP3    H234920   6.658   0.238   2.791  0.6909  0.4450  0.2705
 4429TIP3   OH234921   6.345   5.738   1.809  0.0873  0.3396  0.4241
 4429TIP3    H134922   6.283   5.726   1.738 -1.0893 -1.3979  1.6749
 4429TIP3    H234923   6.421   5.684   1.785  1.0540  2.1990 -0.9385
 4430TIP3   OH234924   0.901   3.913   3.542 -0.9273 -0.4866  0.0226
 4430TIP3    H134925   0.984   3.945   3.506 -2.4445  2.9880 -0.7867
 4430TIP3    H234926   0.907   3.932   3.636 -0.0798 -2.1736  0.3483
 4431TIP3   OH234927   5.735   0.490   0.985 -0.4253 -0.1043 -0.0190
 4431TIP3    H134928   5.719   0.398   1.005 -2.1136  0.0339 -0.6255
 4431TIP3    H234929   5.708   0.500   0.894 -0.7625  1.0958  0.1964
 4432TIP3   OH234930   6.456   0.361   8.128 -0.3271 -0.7957 -0.0923
 4432TIP3    H134931   6.412   0.281   8.100  0.1458 -0.1332 -3.0105
 4432TIP3    H234932   6.385   0.420   8.155 -0.8660 -1.3528 -0.2697
 4433TIP3   OH234933   0.469   0.860   3.056 -0.0406  0.1993 -0.6317
 4433TIP3    H134934   0.551   0.909   3.057 -0.1434  0.3748 -0.8050
 4433TIP3    H234935   0.481   0.794   2.988 -0.2421  0.5708 -1.0357
 4434TIP3   OH234936   4.770   4.550   0.616  0.2961  0.2340  0.1813
 4434TIP3    H134937   4.811   4.634   0.594  1.2349 -0.2806 -0.0653
 4434TIP3    H234938   4.835   4.484   0.593 -0.5573 -0.5946  0.0658
 4435TIP3   OH234939   4.252   6.467   0.702 -0.4488  0.6015 -0.0344
 4435TIP3    H134940   4.314   6.455   0.630 -0.1167  0.6607  0.2393
 4435TIP3    H234941   4.228   6.379   0.728 -0.4028  0.5760 -0.0776
 4436TIP3   OH234942   6.807   0.361   1.890 -0.3639 -0.6575  0.1769
 4436TIP3    H134943   6.898   0.357   1.862 -0.3436 -2.5337  0.3572
 4436TIP3    H234944   6.810   0.344   1.985 -0.8522 -0.0601  0.3079
 4437TIP3   OH234945   4.590   3.827   3.125  0.7344 -0.3254  0.6959
 4437TIP3    H134946   4.649   3.853   3.053  0.6559  1.2282  1.1641
 4437TIP3    H234947   4.555   3.742   3.097  0.4880  0.3684 -1.2337
 4438TIP3   OH234948   6.686   3.191   0.258 -0.1740 -0.3508 -0.1573
 4438TIP3    H134949   6.672   3.168   0.350 -2.2021  0.3184 -0.2405
 4438TIP3    H234950   6.711   3.108   0.217  3.7796 -0.1609  1.4041
 4439TIP3   OH234951   4.397   1.138   3.424  0.1491  0.2122 -0.3149
 4439TIP3    H134952   4.490   1.162   3.432  0.5003 -1.1454 -0.0844
 4439TIP3    H234953   4.397   1.042   3.419 -1.3213  0.1183  0.8023
 4440TIP3   OH234954   3.260   4.560   3.755 -0.3785  0.7000 -0.3657
 4440TIP3    H134955   3.261   4.467   3.733  3.1166  0.6369 -0.4344
 4440TIP3    H234956   3.207   4.564   3.835 -0.7302 -1.3140 -0.4350
 4441TIP3   OH234957   3.178   6.631   4.231 -0.4425  0.5208  0.0875
 4441TIP3    H134958   3.163   6.673   4.147 -0.7256 -0.4429 -0.3563
 4441TIP3    H234959   3.271   6.648   4.250 -0.3080  0.5219 -0.5392
 4442TIP3   OH234960   6.761   4.243   3.884  0.2902 -0.7996 -0.1267
 4442TIP3    H134961   6.729   4.158   3.854 -1.1613 -0.2074 -0.3118
 4442TIP3    H234962   6.816   4.222   3.960  0.0726 -1.9071 -0.2488
 4443TIP3   OH234963   6.073   4.550   0.267 -0.1809  0.1220  0.3371
 4443TIP3    H134964   6.014   4.622   0.245 -2.1832 -1.0763  1.5132
 4443TIP3    H234965   6.122   4.534   0.186 -3.6247 -0.7914 -1.8195
 4444TIP3   OH234966   3.529   3.552   1.768  0.0693  0.5980  0.2081
 4444TIP3    H134967   3.535   3.495   1.691 -1.6447  1.2212 -0.4294
 4444TIP3    H234968   3.620   3.575   1.787  0.6002 -0.2423 -1.1188
 4445TIP3   OH234969   2.175   3.482   0.316  0.1426  0.1538  0.1222
 4445TIP3    H134970   2.123   3.483   0.396 -1.9538  1.5587 -1.1412
 4445TIP3    H234971   2.241   3.550   0.328 -2.0243  2.5029 -0.3649
 4446TIP3   OH234972   0.110   5.428   1.381  0.5486  0.1750 -0.2876
 4446TIP3    H134973   0.119   5.470   1.296  5.0457 -1.7939 -1.0793
 4446TIP3    H234974   0.050   5.355   1.365  0.7049  0.2983 -1.5803
 4447TIP3   OH234975   6.837   1.947   4.174 -0.0153 -0.0017  0.0320
 4447TIP3    H134976   6.823   2.015   4.107  0.3092  1.8535  1.7451
 4447TIP3    H234977   6.804   1.987   4.255  0.3479 -1.8594  1.1438
 4448TIP3   OH234978   0.844   1.454   7.965 -0.3195 -0.1431  0.2661
 4448TIP3    H134979   0.903   1.513   8.011  0.1720 -0.7716  0.4549
 4448TIP3    H234980   0.865   1.367   7.999  0.3521 -0.6835 -1.4277
 4449TIP3   OH234981   0.677   5.410   3.079  0.1120 -0.6449  0.7336
 4449TIP3    H134982   0.664   5.340   3.143 -1.3889  0.9084  2.2321
 4449TIP3    H234983   0.591   5.423   3.040  0.1741  0.8753  1.0583
 4450TIP3   OH234984   0.730   6.558   8.248  0.0480 -0.2293 -0.3559
 4450TIP3    H134985   0.697   6.472   8.224  0.5146 -0.5355  0.0741
 4450TIP3    H234986   0.812   6.567   8.200  0.1645 -0.1624 -0.1478
 4451TIP3   OH234987   1.982   1.881   2.735  0.0542  0.3548 -0.2622
 4451TIP3    H134988   1.892   1.848   2.739  0.3568 -0.4203  0.3336
 4451TIP3    H234989   2.031   1.813   2.689  0.7902 -0.3356  1.4490
 4452TIP3   OH234990   5.736   6.847   0.021 -0.2448 -0.1311  0.8487
 4452TIP3    H134991   5.656   6.877   0.064  0.4519  0.5870  1.6877
 4452TIP3    H234992   5.744   6.755   0.045 -0.4872 -0.0374  1.2912
 4453TIP3   OH234993   5.137   4.565   3.704  0.2327  0.8105  0.4574
 4453TIP3    H134994   5.106   4.629   3.768  0.6654  1.7771 -0.2764
 4453TIP3    H234995   5.058   4.534   3.660  0.0337  0.9301  0.7299
 4454TIP3   OH234996   3.165   6.273   3.550  0.5108  0.4766 -0.2416
 4454TIP3    H134997   3.218   6.247   3.626 -2.7323  0.9795  2.4542
 4454TIP3    H234998   3.141   6.364   3.567 -1.1033  0.2977 -1.2957
 4455TIP3   OH234999   6.126   4.408   1.604 -0.3242 -0.1510  0.6295
 4455TIP3    H135000   6.084   4.448   1.680  0.7070  0.2212  1.0211
 4455TIP3    H235001   6.077   4.444   1.529 -0.4503  0.5865  1.0487
 4456TIP3   OH235002   2.252   5.654   1.616  0.2442  0.4950  0.6086
 4456TIP3    H135003   2.157   5.652   1.625  0.2493  2.0154  1.4186
 4456TIP3    H235004   2.279   5.563   1.622 -1.0740  0.1335  1.6120
 4457TIP3   OH235005   2.667   0.324   8.178 -0.5430 -0.0754 -0.0574
 4457TIP3    H135006   2.747   0.286   8.141 -0.6207 -0.7326  0.4314
 4457TIP3    H235007   2.689   0.342   8.269 -0.7392  0.3830 -0.0993
 4458TIP3   OH235008   0.368   2.822   0.312 -0.0119 -0.3991  0.2878
 4458TIP3    H135009   0.336   2.891   0.254  2.3094  0.4655 -0.1014
 4458TIP3    H235010   0.314   2.828   0.391 -2.3433 -0.7006 -1.1954
 4459TIP3   OH235011   3.395   0.066   2.252 -0.3306 -0.1253  0.4824
 4459TIP3    H135012   3.395   0.127   2.178  1.4123 -0.5005  0.1247
 4459TIP3    H235013   3.480   0.079   2.294 -0.8205 -0.7646  1.7170
 4460TIP3   OH235014   3.874   5.572   0.099  0.4458  0.0249  0.3563
 4460TIP3    H135015   3.929   5.623   0.040  1.8452 -2.3430 -0.5441
 4460TIP3    H235016   3.803   5.539   0.044 -0.7664  1.3843  1.0520
 4461TIP3   OH235017   3.973   4.897   0.462  0.6921 -0.6983 -0.6943
 4461TIP3    H135018   3.956   4.804   0.449  1.1768 -0.8265 -0.4280
 4461TIP3    H235019   4.067   4.907   0.449  0.6471 -0.2463 -0.7107
 4462TIP3   OH235020   1.228   4.198   3.365  0.6849 -0.8067  0.3237
 4462TIP3    H135021   1.222   4.197   3.270  0.2024 -1.2056  0.3557
 4462TIP3    H235022   1.293   4.265   3.384  0.1347 -0.0949 -0.2550
 4463TIP3   OH235023   1.780   2.683   2.827 -0.3625 -0.2422 -0.3850
 4463TIP3    H135024   1.865   2.708   2.791 -0.3918  0.5553  0.0714
 4463TIP3    H235025   1.759   2.600   2.784  0.8177 -0.6431 -0.2166
 4464TIP3   OH235026   5.737   2.283   2.536 -0.3033 -0.8581 -0.0858
 4464TIP3    H135027   5.764   2.193   2.552  0.4797 -0.7063 -0.5571
 4464TIP3    H235028   5.722   2.288   2.442 -1.6327 -0.8379  0.1036
 4465TIP3   OH235029   6.057   2.330   2.531  0.1374 -0.3734  0.0835
 4465TIP3    H135030   6.021   2.388   2.463  1.1687  0.9942  0.6720
 4465TIP3    H235031   6.133   2.289   2.489 -0.3994 -1.0679 -0.2255
 4466TIP3   OH235032   4.412   4.316   0.570  0.2566  0.2662 -1.0337
 4466TIP3    H135033   4.416   4.340   0.477 -0.9146  1.6798 -0.7521
 4466TIP3    H235034   4.451   4.390   0.616 -1.7328  0.8965 -0.2493
 4467TIP3   OH235035   5.076   1.037   0.977  0.0355  0.4057  0.1470
 4467TIP3    H135036   5.095   1.087   1.057 -1.3922  0.4175  0.5034
 4467TIP3    H235037   5.129   1.079   0.909  1.9535 -0.1291  1.2250
 4468TIP3   OH235038   6.324   0.804   2.541  0.2092  0.3026 -0.1571
 4468TIP3    H135039   6.337   0.803   2.636  0.4620 -2.3049 -0.1580
 4468TIP3    H235040   6.390   0.866   2.509 -0.7150  2.2045  1.4143
 4469TIP3   OH235041   1.012   4.127   8.524 -0.1013 -0.4489  0.0607
 4469TIP3    H135042   0.923   4.140   8.491 -0.3307  0.2779  0.9168
 4469TIP3    H235043   1.068   4.145   8.448 -0.5875  1.8793  0.1562
 4470TIP3   OH235044   2.126   0.151   0.243 -0.6666  0.6110 -0.0829
 4470TIP3    H135045   2.076   0.218   0.290 -0.5735  0.2305  0.5645
 4470TIP3    H235046   2.217   0.178   0.253 -0.7013  1.0596 -0.8838
 4471TIP3   OH235047   3.206   6.020   2.278 -0.4405 -0.7154  0.1551
 4471TIP3    H135048   3.138   6.087   2.287 -0.0334 -0.4502  1.6627
 4471TIP3    H235049   3.264   6.036   2.352 -0.8131 -3.2863  1.1228
 4472TIP3   OH235050   5.366   6.719   3.413 -0.0993  0.2101 -0.2175
 4472TIP3    H135051   5.403   6.711   3.325 -0.2193 -0.0432 -0.2464
 4472TIP3    H235052   5.427   6.670   3.469  0.2396  0.7766 -0.0824
 4473TIP3   OH235053   5.944   4.918   8.346  0.3112  0.3010  0.6885
 4473TIP3    H135054   5.993   4.837   8.362 -1.3564 -1.0275 -0.5371
 4473TIP3    H235055   5.858   4.902   8.385  0.0898  1.6694  0.7930
 4474TIP3   OH235056   1.171   6.680   0.725 -0.1141  0.3292  0.4560
 4474TIP3    H135057   1.088   6.631   0.733 -0.3894  0.8824  1.1790
 4474TIP3    H235058   1.234   6.628   0.775 -0.0381 -0.0511 -0.0277
 4475TIP3   OH235059   3.620   2.910   8.310 -0.0306 -0.4187 -0.5222
 4475TIP3    H135060   3.668   2.858   8.246  2.3549  2.0756 -0.9340
 4475TIP3    H235061   3.539   2.935   8.266 -0.1699 -1.8601 -1.1120
 4476TIP3   OH235062   5.854   5.277   8.497  0.2906  0.0526 -0.1240
 4476TIP3    H135063   5.910   5.237   8.431  1.1456  1.1442 -0.0840
 4476TIP3    H235064   5.830   5.204   8.556  4.1705 -0.0049  1.6471
 4477TIP3   OH235065   1.194   3.792   0.567 -0.0804  0.4528  0.1167
 4477TIP3    H135066   1.208   3.865   0.507 -0.0712  0.6325  0.3336
 4477TIP3    H235067   1.219   3.827   0.653 -1.0889  0.5296  0.3883
 4478TIP3   OH235068   5.419   4.774   2.657 -0.2074  0.5212  0.0277
 4478TIP3    H135069   5.397   4.865   2.636  0.6665  0.5430 -0.8203
 4478TIP3    H235070   5.496   4.780   2.713  0.7903  0.2648 -1.2788
 4479TIP3   OH235071   4.697   1.703   0.404  0.2817 -0.1088  0.4110
 4479TIP3    H135072   4.653   1.670   0.326 -0.2069  1.1409  0.1269
 4479TIP3    H235073   4.668   1.645   0.475  0.9217 -1.4036 -0.3556
 4480TIP3   OH235074   1.580   4.441   3.018  0.0496  0.9692 -0.1368
 4480TIP3    H135075   1.519   4.486   2.958  0.9583  2.5502  0.0736
 4480TIP3    H235076   1.616   4.369   2.965 -2.0637 -0.1230 -0.2174
 4481TIP3   OH235077   3.486   2.127   1.767  0.7593 -0.4157  0.7004
 4481TIP3    H135078   3.479   2.200   1.828  0.8258  0.4664 -0.3081
 4481TIP3    H235079   3.515   2.053   1.820 -1.4537 -0.3102  2.1844
 4482TIP3   OH235080   4.201   0.936   7.956  0.0907  0.1651 -0.0845
 4482TIP3    H135081   4.256   0.865   7.989 -0.9036  0.0677  1.4848
 4482TIP3    H235082   4.130   0.892   7.909  0.2576  0.1845 -0.3522
 4483TIP3   OH235083   1.814   4.508   3.637  0.7106  0.0264 -0.1757
 4483TIP3    H135084   1.769   4.428   3.663 -1.3456  1.1293 -0.1376
 4483TIP3    H235085   1.793   4.519   3.545 -2.6631  2.5801  0.6687
 4484TIP3   OH235086   1.246   4.446   1.674  0.1748  0.0446 -0.2303
 4484TIP3    H135087   1.194   4.427   1.752  0.6248 -1.2622 -0.2135
 4484TIP3    H235088   1.327   4.485   1.708  1.1266 -2.1047  0.1752
 4485TIP3   OH235089   3.334   3.005   8.554  0.5042 -0.1012 -0.1624
 4485TIP3    H135090   3.405   2.989   8.492  0.3127  0.2953 -0.4918
 4485TIP3    H235091   3.255   2.992   8.503  0.3080  2.4691 -0.6743
 4486TIP3   OH235092   4.741   6.630   1.006 -0.1569  0.1613 -0.3598
 4486TIP3    H135093   4.768   6.641   1.097 -0.9546  0.7500 -0.1727
 4486TIP3    H235094   4.803   6.568   0.969  0.9192  0.8401  0.2536
 4487TIP3   OH235095   2.833   3.366   1.920 -0.4952 -0.6914  0.1899
 4487TIP3    H135096   2.774   3.437   1.943 -0.7555 -1.1879  1.0961
 4487TIP3    H235097   2.920   3.398   1.945 -0.5677 -0.5444  0.2546
 4488TIP3   OH235098   1.629   0.410   1.403 -0.5449 -0.0154 -0.0611
 4488TIP3    H135099   1.619   0.427   1.309  0.5026  0.2217 -0.1460
 4488TIP3    H235100   1.721   0.429   1.421 -0.7657  0.0787  1.0510
 4489TIP3   OH235101   5.809   3.514   4.112 -0.6811 -0.5143 -0.3927
 4489TIP3    H135102   5.881   3.527   4.172  0.7470  2.9709 -2.5614
 4489TIP3    H235103   5.850   3.492   4.028 -2.3648 -1.6571 -0.9896
 4490TIP3   OH235104   2.355   6.661   1.434 -0.3622  0.4994 -0.3204
 4490TIP3    H135105   2.442   6.693   1.409  0.5410 -1.1265  0.6055
 4490TIP3    H235106   2.307   6.654   1.351  0.8303  0.1816 -0.9958
 4491TIP3   OH235107   1.492   4.747   1.622 -0.0988 -0.4094  0.8196
 4491TIP3    H135108   1.501   4.717   1.713  1.3766  0.4084  0.9666
 4491TIP3    H235109   1.409   4.795   1.621  0.3238  0.3945  1.9955
 4492TIP3   OH235110   0.009   6.339   4.135  0.3734  0.1223  0.0039
 4492TIP3    H135111   0.082   6.285   4.165  1.6101  0.8761 -1.5051
 4492TIP3    H235112  -0.018   6.389   4.212  1.8553  0.2804  0.4359
 4493TIP3   OH235113   3.872   6.217   0.922  0.0424 -0.5152 -0.5197
 4493TIP3    H135114   3.815   6.223   0.999  1.8879  0.6673  0.8486
 4493TIP3    H235115   3.873   6.305   0.886  1.8488 -0.1970  0.1883
 4494TIP3   OH235116   0.042   0.468   7.742  0.7309  0.1940 -0.1167
 4494TIP3    H135117   0.026   0.374   7.737  2.2788 -0.0780 -4.6241
 4494TIP3    H235118  -0.028   0.501   7.798 -0.7817 -3.4514  0.4242
 4495TIP3   OH235119   0.146   6.236   1.082 -0.5289  0.7915 -0.1377
 4495TIP3    H135120   0.215   6.219   1.146  0.5008  0.6692 -1.2438
 4495TIP3    H235121   0.108   6.319   1.109  1.3712  1.8632 -0.6005
 4496TIP3   OH235122   0.860   5.470   0.258 -0.2385  0.3523 -0.3725
 4496TIP3    H135123   0.954   5.455   0.270 -0.2514 -0.2873 -0.9880
 4496TIP3    H235124   0.829   5.496   0.344  0.7260  1.8576 -0.4274
 4497TIP3   OH235125   1.688   0.463   1.084 -0.2419  0.3796 -0.4560
 4497TIP3    H135126   1.737   0.545   1.083 -0.5658  0.5966  0.2982
 4497TIP3    H235127   1.635   0.466   1.004  0.5711  0.3870 -1.0007
 4498TIP3   OH235128   2.174   2.812   0.187 -0.0436  0.2086  0.6193
 4498TIP3    H135129   2.175   2.819   0.092 -1.1875 -0.5933  0.5175
 4498TIP3    H235130   2.256   2.852   0.216 -0.9393  3.0273 -0.4893
 4499TIP3   OH235131   3.310   6.472   2.261  0.1111  0.3344  0.2874
 4499TIP3    H135132   3.216   6.484   2.247  0.2094  0.2423 -0.5126
 4499TIP3    H235133   3.352   6.528   2.195  0.6110 -0.1433  0.1889
 4500TIP3   OH235134   2.395   3.359   3.345  0.9259 -0.2532 -0.1944
 4500TIP3    H135135   2.470   3.318   3.389  1.3984 -0.7783 -1.4490
 4500TIP3    H235136   2.431   3.440   3.308  0.1549  1.0313  1.6885
 4501TIP3   OH235137   0.419   0.900   0.831  0.5251 -0.1731 -0.6504
 4501TIP3    H135138   0.474   0.924   0.756 -0.8977  1.9848 -1.0699
 4501TIP3    H235139   0.362   0.975   0.845  2.0786  0.4878  3.9619
 4502TIP3   OH235140   2.990   3.067   2.326 -0.6082  0.3466 -0.2950
 4502TIP3    H135141   2.903   3.064   2.365 -0.7380  1.5177 -0.4508
 4502TIP3    H235142   2.974   3.091   2.234 -0.1668 -0.3231 -0.5589
 4503TIP3   OH235143   2.572   1.693   1.569  0.4212  0.6944 -0.1928
 4503TIP3    H135144   2.547   1.783   1.589 -1.3565  0.3190 -0.5760
 4503TIP3    H235145   2.624   1.700   1.489 -0.8292  1.2931 -1.0003
 4504TIP3   OH235146   0.891   0.028   3.325  0.0726 -0.1443  0.0690
 4504TIP3    H135147   0.835   0.019   3.249 -2.5090  0.5947  1.7705
 4504TIP3    H235148   0.857  -0.036   3.388  0.4989  0.9816  1.5042
 4505TIP3   OH235149   3.325   3.722   0.911 -0.1620  0.0166  0.5585
 4505TIP3    H135150   3.243   3.771   0.921 -0.0728  0.5439 -1.0441
 4505TIP3    H235151   3.392   3.789   0.897 -0.1046 -0.4867 -2.1071
 4506TIP3   OH235152   2.330   1.682   8.381 -0.1093  0.2311 -0.3475
 4506TIP3    H135153   2.377   1.765   8.392  0.8169 -0.4341  0.9750
 4506TIP3    H235154   2.305   1.681   8.288  0.7534  1.5190 -0.6202
 4507TIP3   OH235155   2.025   5.483   0.245 -0.4598 -0.1704 -1.0225
 4507TIP3    H135156   2.063   5.526   0.168  2.2507 -1.4366 -0.5000
 4507TIP3    H235157   2.021   5.391   0.221  0.1906 -0.5451  0.2485
 4508TIP3   OH235158   0.389   3.782   1.447 -0.2565 -0.0412 -0.0140
 4508TIP3    H135159   0.325   3.725   1.489 -0.3282 -0.2341 -0.3808
 4508TIP3    H235160   0.377   3.867   1.490 -0.5861 -0.1362  0.0889
 4509TIP3   OH235161   6.169   5.766   2.683  0.1881 -0.3369  0.5876
 4509TIP3    H135162   6.236   5.775   2.615  0.7477 -1.6544  0.9469
 4509TIP3    H235163   6.203   5.699   2.741 -1.1807 -0.5878  1.1172
 4510TIP3   OH235164   3.291   3.277   0.094  0.3584  0.5019  0.1096
 4510TIP3    H135165   3.296   3.200   0.038 -2.3411  0.1826  0.1998
 4510TIP3    H235166   3.367   3.270   0.151  1.1044 -1.1645 -1.0161
 4511TIP3   OH235167   0.485   2.281   3.478  0.0257 -0.1062 -0.2342
 4511TIP3    H135168   0.569   2.289   3.432  0.7726  0.5562  1.1452
 4511TIP3    H235169   0.510   2.270   3.570 -1.3702  2.6662  0.5940
 4512TIP3   OH235170   3.028   6.114   0.414 -1.0081  0.0623 -0.0204
 4512TIP3    H135171   3.042   6.021   0.433  1.1741  0.1592 -0.8765
 4512TIP3    H235172   3.084   6.132   0.338 -1.5361  2.0416 -0.0037
 4513TIP3   OH235173   1.843   5.015   1.736 -0.3027  0.1164 -0.1466
 4513TIP3    H135174   1.862   4.963   1.815 -0.1799  1.3699  0.6865
 4513TIP3    H235175   1.757   5.052   1.752 -0.0667  0.7727 -0.3838
 4514TIP3   OH235176   5.061   2.606   0.912 -0.0164 -0.1477  0.2448
 4514TIP3    H135177   4.982   2.580   0.865  0.4666 -0.4468 -0.4092
 4514TIP3    H235178   5.033   2.612   1.004 -1.3339  1.9147 -0.2253
 4515TIP3   OH235179   2.836   1.401   0.591  0.6627 -0.2748 -0.5570
 4515TIP3    H135180   2.799   1.370   0.509  2.1591  0.7011 -1.6506
 4515TIP3    H235181   2.895   1.472   0.566  1.8536 -0.5473  1.2518
 4516TIP3   OH235182   5.224   6.703   1.686  0.0117 -0.1903  0.5124
 4516TIP3    H135183   5.219   6.733   1.777  0.2381 -1.9724  1.1558
 4516TIP3    H235184   5.161   6.758   1.639 -0.1197  0.7518  1.7387
 4517TIP3   OH235185   5.277   3.175   2.805 -0.2927 -0.2859 -0.0047
 4517TIP3    H135186   5.282   3.270   2.806 -1.1372 -0.2307 -0.3486
 4517TIP3    H235187   5.356   3.146   2.850 -0.4236  0.5965  0.8189
 4518TIP3   OH235188   1.103   2.815   3.145 -0.5622 -0.2347 -0.5684
 4518TIP3    H135189   1.114   2.841   3.236 -0.2952 -0.1275 -0.6281
 4518TIP3    H235190   1.133   2.724   3.142 -1.8536 -0.6931 -0.2841
 4519TIP3   OH235191   2.265   4.211   2.041  0.0122  0.2214 -0.8652
 4519TIP3    H135192   2.343   4.202   1.986  0.2904 -0.0016 -0.4401
 4519TIP3    H235193   2.261   4.128   2.090  0.0254  0.5912 -0.2245
 4520TIP3   OH235194   1.168   2.226   0.128 -0.0533  0.0043 -0.5944
 4520TIP3    H135195   1.252   2.226   0.174 -0.3036  2.7979  0.0602
 4520TIP3    H235196   1.188   2.193   0.040  0.8256 -3.4588  0.7673
 4521TIP3   OH235197   0.159   3.037   2.327 -0.0220  0.0350  0.2874
 4521TIP3    H135198   0.070   3.036   2.363  0.4606 -0.3389  1.5130
 4521TIP3    H235199   0.186   2.945   2.329 -0.1500 -0.0814 -1.5346
 4522TIP3   OH235200   3.266   6.872   0.981 -0.2088 -0.4833 -0.3829
 4522TIP3    H135201   3.327   6.856   0.909 -0.7713  1.9516 -1.5190
 4522TIP3    H235202   3.230   6.959   0.963 -1.9365 -0.6608  1.7547
 4523TIP3   OH235203   5.562   4.116   0.308  0.4509 -0.0359  0.1072
 4523TIP3    H135204   5.598   4.062   0.238 -0.1244  0.3151 -0.4631
 4523TIP3    H235205   5.487   4.066   0.340  0.7813 -0.2511  0.5586
 4524TIP3   OH235206   0.470   3.792   3.297  0.0467 -0.2436  0.2569
 4524TIP3    H135207   0.437   3.840   3.221  2.0029  0.5907 -0.1106
 4524TIP3    H235208   0.561   3.773   3.276 -0.0227 -2.1012  1.4096
 4525TIP3   OH235209   4.621   4.644   2.703 -0.6983 -0.7305  0.1669
 4525TIP3    H135210   4.679   4.707   2.746  0.0452 -2.3457  1.6331
 4525TIP3    H235211   4.553   4.698   2.662  1.1304  1.1498 -0.5656
 4526TIP3   OH235212   5.801   1.908   4.207 -0.4266 -0.0353 -0.3203
 4526TIP3    H135213   5.836   1.914   4.296  0.7520 -1.4814 -0.6510
 4526TIP3    H235214   5.711   1.940   4.215 -0.1945  0.3348  1.2808
 4527TIP3   OH235215   2.525   5.440   4.042 -0.2109  0.1457 -0.4153
 4527TIP3    H135216   2.464   5.438   4.115 -2.2232 -0.6040 -2.0055
 4527TIP3    H235217   2.476   5.400   3.969  2.4480 -1.2292 -1.5941
 4528TIP3   OH235218   2.182   2.048   2.388  0.3921  0.5502 -0.5667
 4528TIP3    H135219   2.110   2.004   2.434  0.9330  0.2366 -0.0021
 4528TIP3    H235220   2.151   2.058   2.298  0.2617 -0.9912 -0.7072
 4529TIP3   OH235221   2.638   2.808   2.869 -0.2834  0.1726  0.1014
 4529TIP3    H135222   2.632   2.883   2.928  1.7257  0.9368 -0.5754
 4529TIP3    H235223   2.653   2.733   2.927  1.3620  0.8648  0.6437
 4530TIP3   OH235224   4.879   0.328   1.129 -0.0902  0.6034  0.4316
 4530TIP3    H135225   4.853   0.379   1.205 -0.7094  0.9622 -0.0071
 4530TIP3    H235226   4.892   0.393   1.060  0.8153  0.3188  0.3217
 4531TIP3   OH235227   5.952   6.394   1.785 -0.6648  0.1664 -0.1790
 4531TIP3    H135228   5.922   6.478   1.819 -1.3867 -1.0215  2.3902
 4531TIP3    H235229   5.883   6.367   1.723  0.3213  2.0673 -2.2236
 4532TIP3   OH235230   0.335   5.545   3.299 -0.1856  0.1562 -0.1683
 4532TIP3    H135231   0.240   5.531   3.300  0.0164 -1.3182  0.8451
 4532TIP3    H235232   0.346   5.634   3.334 -1.2194  0.6779 -1.1139
 4533TIP3   OH235233   5.237   3.926   3.693  0.6549  0.2594  0.1440
 4533TIP3    H135234   5.219   3.920   3.599 -0.7133  0.9195  0.3361
 4533TIP3    H235235   5.156   3.961   3.731  0.6704 -1.3153  1.7629
 4534TIP3   OH235236   0.761   2.261   3.418  0.2408  0.0908  0.1220
 4534TIP3    H135237   0.785   2.276   3.509 -2.4069  1.0473  0.7735
 4534TIP3    H235238   0.824   2.313   3.367  0.8974  0.6888  1.4947
 4535TIP3   OH235239   1.276   2.349   1.269  0.0434 -0.1144 -0.0610
 4535TIP3    H135240   1.181   2.343   1.264 -0.0357  0.6569  0.2457
 4535TIP3    H235241   1.307   2.321   1.183 -0.4789 -0.0716 -0.2649
 4536TIP3   OH235242   3.555   6.369   2.280  0.0729 -0.3985 -0.3697
 4536TIP3    H135243   3.459   6.374   2.286  0.0823 -0.1216 -0.4709
 4536TIP3    H235244   3.571   6.290   2.228 -0.0964 -0.5164 -0.2481
 4537TIP3   OH235245   2.370   3.481   0.706  0.1134  0.3801 -0.4414
 4537TIP3    H135246   2.378   3.544   0.778 -2.5662 -1.9535  2.1623
 4537TIP3    H235247   2.301   3.517   0.650  0.4380  0.9695 -0.4731
 4538TIP3   OH235248   6.561   0.752   1.406 -0.0050  0.9193 -0.1716
 4538TIP3    H135249   6.485   0.718   1.358 -2.0523  3.9611  0.5952
 4538TIP3    H235250   6.614   0.795   1.339  0.1553  0.2691 -0.4699
 4539TIP3   OH235251   0.937   1.195   2.786  0.7681 -0.7172 -0.2879
 4539TIP3    H135252   0.932   1.183   2.691  0.8501  0.1592 -0.4097
 4539TIP3    H235253   0.933   1.290   2.798  1.8142 -0.7639  0.5245
 4540TIP3   OH235254   4.780   2.807   2.785 -0.0919 -0.1202 -0.4476
 4540TIP3    H135255   4.765   2.834   2.694 -0.5338  0.4031 -0.2203
 4540TIP3    H235256   4.869   2.772   2.784 -0.5702 -1.3928 -1.3748
 4541TIP3   OH235257   5.181   2.970   1.052 -0.0490  0.8719 -0.2127
 4541TIP3    H135258   5.092   2.995   1.075  0.5378  1.3059  1.8379
 4541TIP3    H235259   5.209   3.035   0.987 -1.0047  1.0928 -0.4140
 4542TIP3   OH235260   6.576   5.053   2.294 -0.1812  0.4297 -0.1910
 4542TIP3    H135261   6.629   5.037   2.217 -0.3491  0.1308 -0.2465
 4542TIP3    H235262   6.499   4.997   2.282  0.2145 -0.3125  0.6261
 4543TIP3   OH235263   1.275   3.707   1.215 -0.4510  0.1775  0.2533
 4543TIP3    H135264   1.186   3.693   1.248 -1.1903  1.1856 -1.1846
 4543TIP3    H235265   1.263   3.765   1.139  1.5534  1.3378  0.7597
 4544TIP3   OH235266   4.866   4.835   1.674 -0.0481 -0.3624 -0.5590
 4544TIP3    H135267   4.830   4.914   1.715 -2.0513 -0.9069 -1.1650
 4544TIP3    H235268   4.940   4.812   1.730 -1.4652  0.0541  1.6512
 4545TIP3   OH235269   3.500   2.413   3.157  0.0034  0.3258  0.5418
 4545TIP3    H135270   3.485   2.456   3.241 -1.6062  0.1190  0.3924
 4545TIP3    H235271   3.540   2.329   3.180  2.1082  1.3641  0.9005
 4546TIP3   OH235272   6.301   6.124   2.990  1.0534  0.2251 -0.5100
 4546TIP3    H135273   6.307   6.030   3.007  1.2808  0.3479  0.0957
 4546TIP3    H235274   6.291   6.130   2.895 -1.2646 -0.5253 -0.3802
 4547TIP3   OH235275   6.735   5.943   2.384  0.1399 -0.2900  0.4846
 4547TIP3    H135276   6.818   5.942   2.431  0.8982  0.7100 -0.7876
 4547TIP3    H235277   6.758   5.930   2.292 -1.1192 -0.1186  0.1165
 4548TIP3   OH235278   0.664   6.057   3.808 -0.0649  0.4813  0.1548
 4548TIP3    H135279   0.733   6.040   3.873 -0.7918  0.9450  1.0649
 4548TIP3    H235280   0.645   5.972   3.770  1.2360  0.3891 -0.3516
 4549TIP3   OH235281   0.437   4.186   0.909  0.5808  0.1974  0.2674
 4549TIP3    H135282   0.509   4.138   0.867  0.5642 -0.1237  0.5973
 4549TIP3    H235283   0.376   4.118   0.936  1.0307  0.3135  1.6426
 4550TIP3   OH235284   1.875   6.104   3.968 -0.2638 -0.3426 -0.2722
 4550TIP3    H135285   1.806   6.138   4.026 -0.6887  2.5491 -2.2628
 4550TIP3    H235286   1.955   6.111   4.019 -1.1088 -1.8423  1.3702
 4551TIP3   OH235287   6.454   0.721   4.176  0.3504 -0.2066  0.1874
 4551TIP3    H135288   6.522   0.786   4.161 -0.8189  1.9669  3.4761
 4551TIP3    H235289   6.480   0.647   4.120  4.0382  1.3974 -0.5189
 4552TIP3   OH235290   2.180   6.264   0.049 -0.3151  0.5788  0.1835
 4552TIP3    H135291   2.255   6.319   0.070 -0.2558 -0.3833  2.8331
 4552TIP3    H235292   2.183   6.255  -0.046  2.8014  0.7303  0.1725
 4553TIP3   OH235293   0.480   3.431   8.395  0.6059  0.2510  0.1504
 4553TIP3    H135294   0.467   3.337   8.410  2.0000 -0.7723 -3.7321
 4553TIP3    H235295   0.392   3.465   8.378  0.0401 -0.1900  1.9684
 4554TIP3   OH235296   1.101   6.089   7.993  0.1576  0.3433  0.9313
 4554TIP3    H135297   1.152   6.143   8.053 -0.2977 -1.4611  3.0605
 4554TIP3    H235298   1.147   6.005   7.990 -1.4629 -0.5949  1.1828
 4555TIP3   OH235299   0.526   5.851   2.803 -0.4666 -0.0197 -0.0837
 4555TIP3    H135300   0.592   5.830   2.738  0.6037  1.7444  0.3561
 4555TIP3    H235301   0.527   5.947   2.808 -1.6283 -0.0461  1.3832
 4556TIP3   OH235302   6.231   3.573   2.193  0.3738  0.0130  0.2402
 4556TIP3    H135303   6.170   3.646   2.185  1.7243  1.2452  0.7303
 4556TIP3    H235304   6.194   3.519   2.263 -0.7908  0.0638 -0.3190
 4557TIP3   OH235305   0.906   3.751   2.764  0.6240 -0.0170 -0.1096
 4557TIP3    H135306   0.974   3.734   2.829  0.6703 -1.5370 -0.5115
 4557TIP3    H235307   0.953   3.792   2.691  0.7174  0.9098  0.4614
 4558TIP3   OH235308   6.066   1.117   2.300  0.5455 -0.0765  0.3819
 4558TIP3    H135309   6.062   1.050   2.368 -2.0867 -0.3616  0.0618
 4558TIP3    H235310   5.974   1.134   2.277  1.2351  1.8038 -1.3543
 4559TIP3   OH235311   3.357   4.143   2.548  0.2406  0.3224  0.3841
 4559TIP3    H135312   3.432   4.197   2.524  0.4631 -0.3312 -0.4483
 4559TIP3    H235313   3.281   4.197   2.528  0.4602  0.3089 -0.5164
 4560TIP3   OH235314   1.553   6.657   3.398  0.4238  0.1101 -0.9492
 4560TIP3    H135315   1.476   6.615   3.359 -0.4061  0.6572  0.0486
 4560TIP3    H235316   1.552   6.628   3.490  2.4368 -1.3029 -1.3053
 4561TIP3   OH235317   3.293   4.591   1.342 -0.6671 -0.1793  0.0340
 4561TIP3    H135318   3.297   4.607   1.248 -2.3089  0.4834  0.0559
 4561TIP3    H235319   3.351   4.516   1.356 -1.8474 -1.5028 -1.7917
 4562TIP3   OH235320   0.814   6.868   0.338  0.6922 -0.3710  0.0600
 4562TIP3    H135321   0.731   6.914   0.326  0.4626 -0.0003  2.5957
 4562TIP3    H235322   0.799   6.810   0.413  2.7063 -0.2835  0.5911
 4563TIP3   OH235323   2.885   0.420   2.615  0.4591 -0.2764 -0.1717
 4563TIP3    H135324   2.863   0.333   2.583  2.2214 -0.2434 -1.6407
 4563TIP3    H235325   2.981   0.425   2.607  0.4092  1.7534 -0.0559
 4564TIP3   OH235326   0.606   4.707   0.547  0.0195  0.5134 -0.4007
 4564TIP3    H135327   0.657   4.748   0.478  0.6543  0.3700 -0.0284
 4564TIP3    H235328   0.659   4.719   0.626 -0.7272  0.7424  0.0746
 4565TIP3   OH235329   0.465   2.457   8.249 -0.5454 -0.1893  0.4292
 4565TIP3    H135330   0.447   2.496   8.163 -2.1052 -0.0635  0.7748
 4565TIP3    H235331   0.532   2.390   8.232 -0.7661 -0.1056 -0.8632
 4566TIP3   OH235332   4.561   1.427   0.549  0.5304 -0.1763 -0.2921
 4566TIP3    H135333   4.523   1.372   0.618 -0.2226  0.4997 -0.1540
 4566TIP3    H235334   4.506   1.505   0.548  1.1790  0.2817 -0.9482
 4567TIP3   OH235335   4.900   6.137   2.811  0.6357  0.0268 -0.0183
 4567TIP3    H135336   4.926   6.045   2.814 -2.0487 -0.8521 -1.0061
 4567TIP3    H235337   4.921   6.164   2.721 -0.2429 -0.2073 -0.3079
 4568TIP3   OH235338   6.863   3.543   2.987 -0.8902  0.2433  0.2738
 4568TIP3    H135339   6.876   3.498   3.071 -0.4978 -0.4414 -0.1506
 4568TIP3    H235340   6.827   3.628   3.012  1.3553  0.9777  1.3034
 4569TIP3   OH235341   3.147   6.910   0.312 -0.0950  0.0042  0.7557
 4569TIP3    H135342   3.063   6.896   0.356 -1.0370  0.2093 -0.8670
 4569TIP3    H235343   3.138   6.863   0.229  0.9421  1.0267  0.0386
 4570TIP3   OH235344   5.445   3.051   4.042 -0.1591 -0.0641 -0.3613
 4570TIP3    H135345   5.449   3.142   4.071 -1.0981  0.6079 -2.1422
 4570TIP3    H235346   5.354   3.025   4.056 -0.1967 -0.2992 -0.9834
 4571TIP3   OH235347   3.104   0.087   2.720  0.1909 -0.1379 -0.1294
 4571TIP3    H135348   3.119   0.157   2.784  1.5245 -0.7448  0.2400
 4571TIP3    H235349   3.181   0.090   2.663 -0.3817 -0.4446 -0.9423
 4572TIP3   OH235350   4.402   2.724   8.557  0.7486 -0.5628 -0.1919
 4572TIP3    H135351   4.478   2.775   8.529  0.3368 -0.5260 -1.2833
 4572TIP3    H235352   4.337   2.739   8.489  0.2135 -1.6361  0.0706
 4573TIP3   OH235353   2.155   4.855   2.291  0.3745 -0.0600 -0.0243
 4573TIP3    H135354   2.198   4.795   2.352  0.4993  0.5103  0.4488
 4573TIP3    H235355   2.137   4.933   2.342  1.2522  0.7643 -0.9191
 4574TIP3   OH235356   3.595   1.136   1.360 -0.4560  0.0186  0.3386
 4574TIP3    H135357   3.515   1.088   1.345 -0.5558  0.1191  0.5498
 4574TIP3    H235358   3.633   1.148   1.272  0.2847 -1.6441  0.3936
 4575TIP3   OH235359   5.171   3.472   3.289  0.0397  0.2423 -0.7220
 4575TIP3    H135360   5.098   3.416   3.261 -0.1273  0.5365 -0.8862
 4575TIP3    H235361   5.238   3.459   3.222  1.1872 -2.0005  0.7502
 4576TIP3   OH235362   4.351   2.487   2.855 -0.0196  1.1842 -0.5208
 4576TIP3    H135363   4.366   2.497   2.949 -0.6937  1.4889 -0.4382
 4576TIP3    H235364   4.395   2.561   2.815  0.5028  0.9036 -0.4710
 4577TIP3   OH235365   5.405   3.861   2.048  0.4188  0.0716 -0.0153
 4577TIP3    H135366   5.389   3.838   2.139 -0.4707  0.7086 -0.0055
 4577TIP3    H235367   5.337   3.924   2.026  0.4538 -0.2690 -1.1998
 4578TIP3   OH235368   2.884   0.686   0.373 -0.0356  0.5128  0.4069
 4578TIP3    H135369   2.810   0.690   0.433  0.1029 -0.0209  0.6178
 4578TIP3    H235370   2.859   0.623   0.306  0.5812 -0.3760  0.9862
 4579TIP3   OH235371   5.909   5.024   0.502 -0.1199  0.4349  0.0888
 4579TIP3    H135372   5.884   4.948   0.555  0.6198 -0.7242 -1.1616
 4579TIP3    H235373   5.826   5.064   0.477 -0.4963  0.9656  1.9913
 4580TIP3   OH235374   6.488   1.931   1.326 -0.0312  0.4567 -0.5817
 4580TIP3    H135375   6.478   2.026   1.331  0.5474  0.5518 -1.0375
 4580TIP3    H235376   6.438   1.907   1.248  0.0355  0.4275 -0.6159
 4581TIP3   OH235377   5.657   1.780   2.966  0.3539 -0.0082  0.2453
 4581TIP3    H135378   5.679   1.765   3.058  1.3052  0.8193  0.1738
 4581TIP3    H235379   5.739   1.807   2.925 -0.2697  0.6852 -0.6113
 4582TIP3   OH235380   1.476   5.295   3.133 -0.7790 -0.0903  0.1042
 4582TIP3    H135381   1.487   5.278   3.227  1.6470 -1.7370 -0.3787
 4582TIP3    H235382   1.382   5.290   3.118 -1.1038 -1.2812  2.1923
 4583TIP3   OH235383   1.678   5.649   3.433 -0.2954  0.0752 -0.3166
 4583TIP3    H135384   1.764   5.632   3.396  0.4927  0.7135  1.1280
 4583TIP3    H235385   1.658   5.571   3.484  0.4293  0.7827  1.1003
 4584TIP3   OH235386   3.371   1.278   2.397 -0.8117 -0.0495 -0.2463
 4584TIP3    H135387   3.461   1.310   2.389 -1.3120  1.1284 -1.4444
 4584TIP3    H235388   3.353   1.238   2.312 -1.0633 -1.3157  0.3743
 4585TIP3   OH235389   4.397   3.424   3.476 -0.0832  0.0931  0.0085
 4585TIP3    H135390   4.348   3.342   3.487  0.7852 -0.4112  0.2253
 4585TIP3    H235391   4.372   3.454   3.389  0.1669 -0.8068 -0.3875
 4586TIP3   OH235392   6.292   6.415   2.066  0.3893 -0.2461 -0.1744
 4586TIP3    H135393   6.269   6.413   2.159 -1.7060 -0.0659 -0.6532
 4586TIP3    H235394   6.257   6.334   2.030  1.7790 -0.6414 -0.7194
 4587TIP3   OH235395   3.775   0.748   8.334 -0.2160  0.2722  0.2715
 4587TIP3    H135396   3.738   0.813   8.394 -0.0379  0.5177  0.1190
 4587TIP3    H235397   3.717   0.750   8.258 -0.1190  0.3663  0.2008
 4588TIP3   OH235398   0.750   6.168   0.520  0.2518  0.1754  0.3248
 4588TIP3    H135399   0.842   6.188   0.538  0.7263 -0.2799 -1.3845
 4588TIP3    H235400   0.740   6.188   0.426 -1.7777  1.5729  0.7808
 4589TIP3   OH235401   6.007   3.326   1.489 -0.0219 -0.0281  0.8392
 4589TIP3    H135402   5.934   3.264   1.482  0.1867 -0.2755  0.8570
 4589TIP3    H235403   6.080   3.283   1.445  0.1180  0.2160  0.8295
 4590TIP3   OH235404   6.821   6.071   8.530 -0.0016  0.4217  0.2203
 4590TIP3    H135405   6.897   6.020   8.558 -0.1387  0.2706  0.3169
 4590TIP3    H235406   6.750   6.007   8.524 -0.3813  0.7340  1.1506
 4591TIP3   OH235407   0.518   2.402   0.033 -0.6983 -0.4345 -0.4403
 4591TIP3    H135408   0.579   2.470   0.060 -2.0099  0.1489  1.2492
 4591TIP3    H235409   0.572   2.325   0.018  0.5517  0.3231  0.0706
 4592TIP3   OH235410   4.221   4.824   8.197 -0.0932  0.1556  0.2821
 4592TIP3    H135411   4.265   4.783   8.122 -0.4630  0.6519 -0.2085
 4592TIP3    H235412   4.280   4.807   8.271 -0.3232 -1.4410  0.1441
 4593TIP3   OH235413   5.865   0.716   0.136  0.0594  0.0467 -0.1385
 4593TIP3    H135414   5.921   0.705   0.214 -0.4916  1.6514  0.5126
 4593TIP3    H235415   5.776   0.710   0.170 -0.1905  1.0722 -0.5853
 4594TIP3   OH235416   5.904   3.040   0.918 -0.4477 -0.2767 -0.3190
 4594TIP3    H135417   5.844   2.969   0.942  0.3894 -1.0562 -0.4602
 4594TIP3    H235418   5.991   3.007   0.943 -0.2617  1.8750  2.3319
 4595TIP3   OH235419   5.739   3.042   4.086  0.2055 -0.1970 -0.3947
 4595TIP3    H135420   5.650   3.012   4.071 -0.2336 -0.6676  2.4598
 4595TIP3    H235421   5.729   3.133   4.116  0.7273 -0.0636 -0.6160
 4596TIP3   OH235422   5.086   6.055   3.047  0.2829 -0.4328 -0.1818
 4596TIP3    H135423   5.174   6.086   3.027 -0.0202 -0.6443 -2.0672
 4596TIP3    H235424   5.033   6.085   2.973 -1.4467  0.5079  1.3522
 4597TIP3   OH235425   4.181   3.821   2.386  0.0206 -0.2072 -0.5275
 4597TIP3    H135426   4.139   3.762   2.448  2.6321 -1.5617  0.1092
 4597TIP3    H235427   4.201   3.900   2.438 -1.3110  0.2982 -0.7442
 4598TIP3   OH235428   2.095   6.123   2.987  0.0362  0.0913  0.6529
 4598TIP3    H135429   2.116   6.189   3.053  0.9159  0.3695  0.1131
 4598TIP3    H235430   2.010   6.151   2.952  1.1406  1.9178 -0.7366
 4599TIP3   OH235431   5.086   5.383   3.485  0.4962  0.1890  0.5174
 4599TIP3    H135432   5.156   5.332   3.446  0.5551 -0.3927  1.3438
 4599TIP3    H235433   5.007   5.331   3.469  0.3333  0.5702  0.0715
 4600TIP3   OH235434   6.807   5.704   0.512 -0.0669  0.0867 -0.0408
 4600TIP3    H135435   6.872   5.695   0.583 -0.0888  0.7400  0.0621
 4600TIP3    H235436   6.859   5.722   0.434  0.3115 -4.1107 -0.9998
 4601TIP3   OH235437   1.881   1.651   0.432 -0.0739  0.1427  0.0062
 4601TIP3    H135438   1.824   1.718   0.468  1.3073  2.1111 -1.2891
 4601TIP3    H235439   1.838   1.622   0.352  0.3465  1.0686 -0.5654
 4602TIP3   OH235440   0.047   0.452   0.716 -0.0755  0.5617  0.9498
 4602TIP3    H135441   0.089   0.400   0.647 -0.5015 -0.7026  1.6014
 4602TIP3    H235442   0.076   0.541   0.700 -0.0464  0.2806 -0.7765
 4603TIP3   OH235443   1.899   1.280   1.640 -0.2223  0.0577 -0.0317
 4603TIP3    H135444   1.814   1.307   1.606 -0.6228 -2.0750 -0.9106
 4603TIP3    H235445   1.919   1.343   1.709 -2.9213  0.1377  0.7889
 4604TIP3   OH235446   2.349   3.657   2.777 -0.0418 -0.0577  0.4192
 4604TIP3    H135447   2.383   3.746   2.771  1.2292 -0.4594  1.3567
 4604TIP3    H235448   2.402   3.615   2.844 -0.7057 -1.4959  0.0849
 4605TIP3   OH235449   4.158   6.733   3.348 -0.0839  0.0427  0.1646
 4605TIP3    H135450   4.189   6.644   3.329 -1.0083  0.1147 -1.9428
 4605TIP3    H235451   4.077   6.720   3.398  0.1951 -0.2504  0.5556
 4606TIP3   OH235452   5.413   4.898   1.966 -0.3024  0.6005  0.2097
 4606TIP3    H135453   5.369   4.850   2.036  0.7766 -0.6395  0.0734
 4606TIP3    H235454   5.443   4.831   1.905 -0.5967  1.6105 -1.0927
 4607TIP3   OH235455   1.910   4.264   3.373 -0.4538 -0.1020 -0.8367
 4607TIP3    H135456   1.919   4.352   3.335 -0.9348  0.0163 -0.6845
 4607TIP3    H235457   1.846   4.221   3.317 -0.0852 -0.4222 -1.0184
 4608TIP3   OH235458   0.857   6.853   0.925  0.2539  0.0627 -0.0199
 4608TIP3    H135459   0.858   6.920   0.856  0.7739  3.9661  3.3979
 4608TIP3    H235460   0.769   6.815   0.919 -0.0152  0.8641 -2.2366
 4609TIP3   OH235461   6.123   1.352   2.209 -0.1923 -0.2739 -0.4331
 4609TIP3    H135462   6.110   1.266   2.250  1.0329  0.0244  0.6496
 4609TIP3    H235463   6.200   1.341   2.153 -1.3745 -0.4563 -2.0971
 4610TIP3   OH235464   5.488   0.157   3.973  0.7349  0.1450  0.0825
 4610TIP3    H135465   5.581   0.158   3.951  0.3827 -0.1401 -1.5288
 4610TIP3    H235466   5.480   0.087   4.038  1.5927 -0.0195  0.0232
 4611TIP3   OH235467   4.538   1.178   2.206  0.0715  0.0679  0.3146
 4611TIP3    H135468   4.538   1.190   2.301 -0.4792 -0.8354  0.4393
 4611TIP3    H235469   4.516   1.086   2.194  0.5235  0.0839 -0.6858
 4612TIP3   OH235470   2.594   5.262   7.575 -0.0635 -0.3568 -0.7428
 4612TIP3    H135471   2.629   5.317   7.645 -1.9230 -0.7591  0.5958
 4612TIP3    H235472   2.671   5.219   7.537  0.9820 -0.6880  1.5645
 4613TIP3   OH235473   2.917   4.643   0.363 -0.7090 -0.0119  0.5306
 4613TIP3    H135474   2.940   4.662   0.454 -1.2688  0.7523  0.5213
 4613TIP3    H235475   2.869   4.720   0.334 -0.9862 -0.4715 -0.2546
 4614TIP3   OH235476   0.356   4.926   0.732  0.2425 -0.0150  0.2214
 4614TIP3    H135477   0.352   4.902   0.639 -0.1862 -0.7907  0.4299
 4614TIP3    H235478   0.448   4.947   0.747  1.0273 -3.0271  0.3456
 4615TIP3   OH235479   4.414   6.344   0.934 -0.2165 -0.4384  0.1790
 4615TIP3    H135480   4.402   6.424   0.882 -0.1555 -0.0419  0.7721
 4615TIP3    H235481   4.328   6.302   0.934 -0.1206 -0.6507 -0.5807
 4616TIP3   OH235482   0.760   3.856   1.226  0.2824 -0.6371  0.1542
 4616TIP3    H135483   0.726   3.776   1.266  0.2420 -1.2384 -1.0263
 4616TIP3    H235484   0.697   3.924   1.251  0.8262 -0.7493  1.9657
 4617TIP3   OH235485   4.502   2.133   1.128  0.0162  0.8435  0.1130
 4617TIP3    H135486   4.513   2.038   1.118 -1.1668  0.6610  0.4822
 4617TIP3    H235487   4.544   2.170   1.050  0.7719  0.0415  0.1253
 4618TIP3   OH235488   5.864   4.725   0.183 -0.9597 -0.4048 -0.2582
 4618TIP3    H135489   5.770   4.739   0.191 -0.9798 -0.0538 -1.0607
 4618TIP3    H235490   5.883   4.736   0.090  0.3426  2.7055  0.2526
 4619TIP3   OH235491   5.158   6.700   0.799  0.1781  0.9111 -0.2993
 4619TIP3    H135492   5.188   6.663   0.716  1.7473  1.6175 -0.0787
 4619TIP3    H235493   5.156   6.625   0.859 -2.1573  0.1366 -1.1959
 4620TIP3   OH235494   2.094   2.421   1.236 -0.1351  0.2553 -0.3669
 4620TIP3    H135495   2.159   2.487   1.214 -0.1871  0.1477 -0.8586
 4620TIP3    H235496   2.103   2.409   1.331 -1.1811  2.1176  0.0296
 4621TIP3   OH235497   2.325   6.923   2.036 -0.9458  0.0081  0.3777
 4621TIP3    H135498   2.410   6.922   1.991 -1.7059  0.3797 -1.1359
 4621TIP3    H235499   2.270   6.978   1.981 -2.3266 -0.6807  1.0340
 4622TIP3   OH235500   6.192   5.282   2.383 -0.5727 -0.1949  0.0912
 4622TIP3    H135501   6.192   5.281   2.287  1.9740  1.9829 -0.0711
 4622TIP3    H235502   6.138   5.357   2.406 -2.4223 -1.6015  0.4886
 4623TIP3   OH235503   1.075   4.902   0.616  0.1411  0.0788 -0.4608
 4623TIP3    H135504   1.069   4.997   0.615 -0.5853  0.0805  1.0913
 4623TIP3    H235505   1.060   4.877   0.708 -1.1355 -1.6020 -1.0671
 4624TIP3   OH235506   1.321   3.552   0.217  0.0788  0.1243  0.3082
 4624TIP3    H135507   1.244   3.521   0.265 -2.3986  0.6373 -2.9856
 4624TIP3    H235508   1.316   3.647   0.222  0.9938  0.1565  0.7430
 4625TIP3   OH235509   5.086   2.446   2.011  0.3184 -0.2305 -0.2968
 4625TIP3    H135510   5.073   2.397   2.092  1.6469 -0.1886 -0.0318
 4625TIP3    H235511   5.081   2.380   1.941 -2.2332 -0.0786 -0.3695
 4626TIP3   OH235512   2.125   0.012   1.840 -0.5979  0.3641  0.3730
 4626TIP3    H135513   2.050  -0.032   1.799 -1.4934  3.2889 -1.4559
 4626TIP3    H235514   2.201  -0.038   1.811 -1.5024  0.2557 -2.0649
 4627TIP3   OH235515   3.054   1.392   2.787  0.4097  0.5636 -0.0760
 4627TIP3    H135516   3.072   1.414   2.879  1.7479  1.5807 -0.5306
 4627TIP3    H235517   3.139   1.365   2.753 -0.4280 -1.6040 -0.5919
 4628TIP3   OH235518   3.677   3.383   3.358 -0.0522  0.2623 -0.2375
 4628TIP3    H135519   3.745   3.433   3.313 -1.0844 -0.0571 -2.2913
 4628TIP3    H235520   3.617   3.450   3.393 -0.3530  0.5288 -1.2158
 4629TIP3   OH235521   0.100   6.224   3.118  0.4412  0.1220  0.4167
 4629TIP3    H135522   0.079   6.247   3.208 -0.3602  0.7895  0.0674
 4629TIP3    H235523   0.186   6.183   3.124  0.9425  1.2463  1.3363
 4630TIP3   OH235524   0.307   4.948   1.603  0.7320  0.2684 -0.4727
 4630TIP3    H135525   0.280   4.857   1.590  4.2220 -1.2509  1.4302
 4630TIP3    H235526   0.320   4.982   1.515  0.1057 -1.3567 -1.2320
 4631TIP3   OH235527   1.088   6.459   3.587 -0.0175  0.1324  0.3518
 4631TIP3    H135528   1.067   6.546   3.621  0.2579  0.2155  0.3119
 4631TIP3    H235529   1.145   6.420   3.653 -0.3272 -0.1049  0.4763
 4632TIP3   OH235530   3.094   1.177   8.518  0.0947 -0.6062 -0.3211
 4632TIP3    H135531   3.098   1.238   8.444 -0.4484  0.5629  0.5743
 4632TIP3    H235532   3.021   1.210   8.571  0.5935 -1.3062  0.8231
 4633TIP3   OH235533   1.146   2.889   3.454  0.3174 -0.8820  0.0762
 4633TIP3    H135534   1.187   2.950   3.394  0.0245 -1.1544 -0.4069
 4633TIP3    H235535   1.217   2.828   3.478  0.8720  0.2111  1.3458
 4634TIP3   OH235536   4.543   0.568   2.668 -0.3590  0.0627 -0.0639
 4634TIP3    H135537   4.492   0.580   2.748  0.7850  1.0634  0.5543
 4634TIP3    H235538   4.574   0.477   2.672  2.3537  0.9570  2.3348
 4635TIP3   OH235539   2.462   4.968   1.316 -0.6138 -0.3519  0.2616
 4635TIP3    H135540   2.392   5.033   1.308  0.5326  0.8644 -0.3081
 4635TIP3    H235541   2.543   5.018   1.301  0.4117 -1.6257  1.3226
 4636TIP3   OH235542   2.571   0.034   4.067  0.1581 -0.3071  0.1577
 4636TIP3    H135543   2.623   0.017   4.145 -0.3830  1.9658  1.1003
 4636TIP3    H235544   2.635   0.052   3.998  0.7375  2.4688  1.2949
 4637TIP3   OH235545   1.309   0.598   3.580  0.2200  0.7621  0.0798
 4637TIP3    H135546   1.273   0.615   3.667  0.2233  2.4129 -0.2096
 4637TIP3    H235547   1.242   0.630   3.520  0.2907 -0.2059 -0.5464
 4638TIP3   OH235548   3.041   3.674   2.765 -0.3805  0.2402 -0.0888
 4638TIP3    H135549   2.950   3.685   2.791 -0.3137  0.3838  0.0924
 4638TIP3    H235550   3.074   3.604   2.821  0.3436  1.9474  1.7503
 4639TIP3   OH235551   5.545   4.501   0.455 -0.1021  0.2745  0.5020
 4639TIP3    H135552   5.577   4.457   0.377  2.8866 -0.6103  2.0527
 4639TIP3    H235553   5.514   4.430   0.512  1.1025  0.4678  1.4631
 4640TIP3   OH235554   6.749   2.895   1.737  0.0770 -0.7377 -0.2543
 4640TIP3    H135555   6.752   2.988   1.718  0.9364 -0.5988  0.4700
 4640TIP3    H235556   6.839   2.865   1.723 -0.1041 -1.3740 -0.1038
 4641TIP3   OH235557   1.105   6.010   3.481  0.1236 -0.4425  0.2361
 4641TIP3    H135558   1.171   6.073   3.451  2.4318 -1.3887  2.9188
 4641TIP3    H235559   1.022   6.052   3.459  1.5379  1.9980 -1.0500
 4642TIP3   OH235560   3.711   3.588   2.541 -0.0168  0.0762  0.0046
 4642TIP3    H135561   3.749   3.505   2.570 -1.2515 -0.3685  0.4139
 4642TIP3    H235562   3.776   3.654   2.565  2.0416 -0.9248 -2.3300
 4643TIP3   OH235563   5.065   1.296   1.635 -0.1452 -0.2353  0.2607
 4643TIP3    H135564   5.069   1.224   1.572  2.4062 -0.9338  1.1058
 4643TIP3    H235565   5.064   1.253   1.721  0.9306  0.7192  0.7721
 4644TIP3   OH235566   6.664   2.127   2.963 -0.3925 -0.9331  0.0517
 4644TIP3    H135567   6.575   2.095   2.976 -0.6965  0.1524  0.8607
 4644TIP3    H235568   6.692   2.090   2.880 -2.2420  0.0585 -1.0832
 4645TIP3   OH235569   2.415   6.492   8.198  0.1524 -0.6229  0.1092
 4645TIP3    H135570   2.504   6.525   8.191 -0.0971  0.1635  0.4365
 4645TIP3    H235571   2.419   6.403   8.165  1.5084 -1.3852  2.1165
 4646TIP3   OH235572   2.165   1.433   1.382 -0.6798  0.5075 -0.0706
 4646TIP3    H135573   2.092   1.477   1.425 -0.3799  1.9063 -0.9268
 4646TIP3    H235574   2.224   1.504   1.357  0.4710 -0.5094 -0.3306
 4647TIP3   OH235575   2.260   1.578   8.118  1.0002  0.0204  0.1954
 4647TIP3    H135576   2.341   1.560   8.069 -0.2184 -0.2801 -1.8154
 4647TIP3    H235577   2.240   1.669   8.097  0.5668 -0.0438  0.3321
 4648TIP3   OH235578   5.780   5.709   3.759  0.0374 -0.2066  0.2771
 4648TIP3    H135579   5.803   5.755   3.839  1.3478  0.5725 -0.5033
 4648TIP3    H235580   5.739   5.774   3.704 -2.1714 -1.0781  0.8048
 4649TIP3   OH235581   4.742   5.726   0.820  0.6069  0.0806  0.2457
 4649TIP3    H135582   4.661   5.727   0.871 -0.1674  0.9714 -0.9626
 4649TIP3    H235583   4.769   5.634   0.821 -0.1171 -0.1349  1.1342
 4650TIP3   OH235584   1.964   0.598   3.258  0.0872  0.2505 -0.0734
 4650TIP3    H135585   1.984   0.650   3.180 -3.8868  2.2493 -0.0395
 4650TIP3    H235586   2.011   0.642   3.329 -0.1510  1.4721 -0.6458
 4651TIP3   OH235587   1.538   0.548   2.982 -0.0985 -0.3771  0.5434
 4651TIP3    H135588   1.464   0.596   2.943  0.6092  1.4308  1.3145
 4651TIP3    H235589   1.615   0.601   2.961  0.6485 -0.8686  1.9246
 4652TIP3   OH235590   6.765   4.155   2.079  0.7940 -0.3242 -0.2884
 4652TIP3    H135591   6.677   4.132   2.110  0.8707 -0.2534 -0.0219
 4652TIP3    H235592   6.750   4.197   1.994  0.7030 -2.3016 -1.3200
 4653TIP3   OH235593   1.829   4.315   2.402  0.2351 -0.0208 -1.0319
 4653TIP3    H135594   1.830   4.246   2.336  2.9612 -0.3007 -0.7769
 4653TIP3    H235595   1.901   4.373   2.378 -0.4505  1.4053  0.1628
 4654TIP3   OH235596   6.357   0.244   2.262 -0.0491 -0.3631 -0.2314
 4654TIP3    H135597   6.365   0.304   2.189  0.2002 -0.4779 -0.3007
 4654TIP3    H235598   6.430   0.183   2.251 -0.9157 -1.3353 -0.7654
 4655TIP3   OH235599   6.312   0.737   2.889  0.3333  0.3581  0.0936
 4655TIP3    H135600   6.403   0.733   2.916 -0.1305 -1.0648  1.6417
 4655TIP3    H235601   6.276   0.651   2.912 -1.4935  1.0157 -0.0987
 4656TIP3   OH235602   4.095   1.690   0.430 -0.0484 -0.5871  0.2978
 4656TIP3    H135603   4.132   1.777   0.445 -2.1600  0.1806  1.3768
 4656TIP3    H235604   4.051   1.697   0.345 -0.5681 -0.4607  0.5733
 4657TIP3   OH235605   2.483   5.198   1.813 -0.0890 -0.1246  0.4533
 4657TIP3    H135606   2.574   5.224   1.830 -0.3305 -0.0336  1.6883
 4657TIP3    H235607   2.489   5.104   1.793  0.2193 -0.2392  1.0692
 4658TIP3   OH235608   6.036   0.717   0.337  0.6430  0.2842 -0.7176
 4658TIP3    H135609   6.036   0.724   0.433 -0.9323  0.6188 -0.7061
 4658TIP3    H235610   6.080   0.634   0.319 -1.2598 -1.0628  0.4618
 4659TIP3   OH235611   3.595   4.408   3.220  0.3237  0.0089 -0.0813
 4659TIP3    H135612   3.607   4.475   3.153  2.0913  0.2310  0.3934
 4659TIP3    H235613   3.520   4.438   3.272  1.4655  2.0155  0.5282
 4660TIP3   OH235614   2.061   0.146   1.572 -0.8180 -0.3313  0.2042
 4660TIP3    H135615   2.095   0.056   1.570  1.5888  0.5202 -2.2301
 4660TIP3    H235616   2.136   0.200   1.594 -1.9772  1.2283  0.4925
 4661TIP3   OH235617   4.911   6.372   0.651  0.1500  0.2475  0.1986
 4661TIP3    H135618   4.899   6.283   0.684 -0.1568  1.0702  2.4829
 4661TIP3    H235619   4.929   6.361   0.558  1.2425 -2.2749  0.6312
 4662TIP3   OH235620   5.167   3.330   2.111 -0.3511 -0.0218 -0.3807
 4662TIP3    H135621   5.088   3.340   2.059  0.6950 -2.0584 -2.5468
 4662TIP3    H235622   5.213   3.257   2.071  1.3859 -0.6260  2.4304
 4663TIP3   OH235623   2.071   4.624   0.829  0.0794  0.7873 -0.2332
 4663TIP3    H135624   2.004   4.622   0.898  0.1482  2.8210 -0.0335
 4663TIP3    H235625   2.107   4.535   0.827 -3.0158 -0.5775 -0.7943
 4664TIP3   OH235626   5.540   3.573   4.119  0.4765 -0.4426  0.2794
 4664TIP3    H135627   5.527   3.626   4.197  0.6961  1.2777 -0.8133
 4664TIP3    H235628   5.634   3.555   4.117  0.5297 -0.1614  0.2170
 4665TIP3   OH235629   2.648   5.366   1.600  0.4016 -0.0346 -0.0738
 4665TIP3    H135630   2.612   5.356   1.688  1.0096  2.7841  0.5813
 4665TIP3    H235631   2.580   5.412   1.551  0.7953  0.0489 -0.5538
 4666TIP3   OH235632   5.925   3.828   3.507 -0.1334  0.2687  0.3982
 4666TIP3    H135633   5.999   3.876   3.545  0.5921 -0.8682  0.4585
 4666TIP3    H235634   5.960   3.741   3.487 -0.5867  0.6449 -2.4890
 4667TIP3   OH235635   0.688   1.471   0.449  0.7600 -0.2616 -0.6204
 4667TIP3    H135636   0.640   1.464   0.366  1.7880  0.6800 -1.3199
 4667TIP3    H235637   0.668   1.559   0.480  1.0367 -0.3213 -0.2753
 4668TIP3   OH235638   3.753   2.425   1.320  0.0792 -0.5670 -0.1608
 4668TIP3    H135639   3.707   2.375   1.387  0.4483 -0.5961  0.0707
 4668TIP3    H235640   3.822   2.367   1.289 -0.2735 -0.6651 -0.7779
 4669TIP3   OH235641   5.527   1.986   4.131 -0.5507  0.2255 -0.2731
 4669TIP3    H135642   5.520   2.081   4.142  0.3204  0.0944  1.9669
 4669TIP3    H235643   5.448   1.951   4.172  0.8292 -0.1145  2.2870
 4670TIP3   OH235644   5.448   2.030   3.819 -0.1738 -0.1491 -0.1311
 4670TIP3    H135645   5.461   2.014   3.913 -2.0948 -2.6748 -0.1823
 4670TIP3    H235646   5.486   2.116   3.804  2.3852 -0.6810  2.4434
 4671TIP3   OH235647   4.881   2.311   0.228 -0.0804  0.3604 -0.2111
 4671TIP3    H135648   4.964   2.274   0.260  0.2703  1.5268  0.2799
 4671TIP3    H235649   4.853   2.251   0.159  1.3476  0.1198 -0.6161
 4672TIP3   OH235650   6.826   4.284   1.579 -0.0620 -0.4519  0.0643
 4672TIP3    H135651   6.846   4.210   1.637 -0.0039 -0.1863  0.3912
 4672TIP3    H235652   6.731   4.283   1.570  0.0739 -1.6704 -1.4250
 4673TIP3   OH235653   0.566   6.129   1.020 -0.0600 -0.1201 -0.2570
 4673TIP3    H135654   0.516   6.211   1.019  1.1009  0.6046 -0.4940
 4673TIP3    H235655   0.573   6.107   1.112 -0.6145 -0.1091 -0.2057
 4674TIP3   OH235656   0.249   4.014   1.033  0.2712  0.3730 -0.2784
 4674TIP3    H135657   0.289   3.933   1.064  0.8344  0.3341 -1.0648
 4674TIP3    H235658   0.227   4.062   1.112  0.9280 -0.0708  0.1886
 4675TIP3   OH235659   5.938   5.999   8.199 -0.2411 -0.2927 -0.4152
 4675TIP3    H135660   5.848   5.987   8.171 -0.0496 -1.3411 -0.6518
 4675TIP3    H235661   5.960   5.917   8.243  0.4123  0.1777  0.1586
 4676TIP3   OH235662   6.626   5.813   3.901 -0.4700 -0.4980  0.5601
 4676TIP3    H135663   6.711   5.853   3.921 -0.1518 -0.8384 -0.0664
 4676TIP3    H235664   6.640   5.720   3.915 -1.2024 -0.4157  1.9925
 4677TIP3   OH235665   2.534   4.974   1.582 -0.2808  0.5419 -0.6105
 4677TIP3    H135666   2.596   5.043   1.560 -0.9580  2.0791  1.9106
 4677TIP3    H235667   2.464   4.983   1.517  0.1234  1.5723 -0.9185
 4678TIP3   OH235668   4.000   4.255   2.277 -0.2262  0.0671  0.0254
 4678TIP3    H135669   3.947   4.179   2.254  1.2789 -1.2407  0.6661
 4678TIP3    H235670   4.091   4.224   2.269  0.4456  0.9358  2.9538
 4679TIP3   OH235671   2.367   0.490   1.574  0.3017 -0.3785 -0.5202
 4679TIP3    H135672   2.356   0.581   1.547  0.4704 -1.0349 -3.0162
 4679TIP3    H235673   2.294   0.473   1.635  1.3239  1.8833  1.4936
 4680TIP3   OH235674   0.445   5.301   3.627  0.1975 -0.1621  0.5117
 4680TIP3    H135675   0.422   5.268   3.714  0.4541  1.1562  1.0998
 4680TIP3    H235676   0.540   5.286   3.619  0.1440 -0.4408  0.3817
 4681TIP3   OH235677   3.978   3.163   1.653  0.0143 -0.5025  0.1934
 4681TIP3    H135678   3.990   3.247   1.610  3.2368 -0.6286  0.6461
 4681TIP3    H235679   3.888   3.137   1.631 -0.8183  2.6535 -0.5531
 4682TIP3   OH235680   5.985   1.839   3.052 -0.4040 -0.1044  0.0747
 4682TIP3    H135681   5.929   1.857   2.977 -0.8121 -0.1089  0.3785
 4682TIP3    H235682   6.030   1.757   3.029  1.1744  1.0221 -1.1474
 4683TIP3   OH235683   1.261   5.017   3.340 -0.3494  0.0309  0.5057
 4683TIP3    H135684   1.297   4.934   3.309  0.9654  0.0574  1.8145
 4683TIP3    H235685   1.194   5.040   3.276 -1.5387 -2.5746  0.6883
 4684TIP3   OH235686   6.833   6.015   4.007 -0.2203  0.1125 -1.1079
 4684TIP3    H135687   6.843   6.110   4.010 -2.7989  0.4383 -0.1552
 4684TIP3    H235688   6.905   5.982   4.060 -0.1402  1.6492 -0.1865
 4685TIP3   OH235689   4.864   0.969   3.596  0.1716  0.0934 -0.3925
 4685TIP3    H135690   4.905   0.884   3.613  2.4986  1.3613  0.8630
 4685TIP3    H235691   4.908   1.002   3.518 -0.4382  0.3302 -0.6413
 4686TIP3   OH235692   2.621   1.268   1.969  0.5150  0.1826  0.4205
 4686TIP3    H135693   2.582   1.349   1.939  1.5534  0.8062  0.6956
 4686TIP3    H235694   2.561   1.199   1.939 -0.4854  1.0553  0.3813
 4687TIP3   OH235695   1.591   1.442   0.002  0.7256 -0.2892 -0.3677
 4687TIP3    H135696   1.625   1.437  -0.087 -0.0948  1.1811 -0.8038
 4687TIP3    H235697   1.514   1.385   0.002  0.5492 -0.0581 -0.7068
 4688TIP3   OH235698   1.529   4.237   1.046  0.1212 -0.2157 -0.0973
 4688TIP3    H135699   1.554   4.325   1.076  1.3383 -0.9356  1.1247
 4688TIP3    H235700   1.535   4.183   1.125  1.6877 -1.8539 -1.2464
 4689TIP3   OH235701   3.233   3.977   0.876  0.2245  0.4428  0.5968
 4689TIP3    H135702   3.170   4.016   0.816  0.4109 -0.8830 -0.4837
 4689TIP3    H235703   3.318   4.010   0.847  0.5409 -1.7248 -1.2012
 4690TIP3   OH235704   0.178   4.554   1.952  0.1361 -0.1972 -0.2692
 4690TIP3    H135705   0.258   4.599   1.925 -0.0671 -0.4584 -1.3946
 4690TIP3    H235706   0.184   4.468   1.910  0.0478 -0.8621  1.0272
 4691TIP3   OH235707   0.293   0.028   2.449 -0.0111 -0.3782 -0.3386
 4691TIP3    H135708   0.352  -0.016   2.388  0.2756  1.7229 -1.6693
 4691TIP3    H235709   0.205   0.003   2.420  0.1603 -1.8858  0.3806
 4692TIP3   OH235710   1.968   2.622   1.491 -0.0775  0.0652  0.1206
 4692TIP3    H135711   1.890   2.662   1.454  0.3937  1.7988  0.9202
 4692TIP3    H235712   2.038   2.644   1.429  0.0738 -0.1109  0.2273
 4693TIP3   OH235713   2.129   5.227   2.191 -0.3500  0.1449  0.3497
 4693TIP3    H135714   2.199   5.229   2.126  0.8890 -0.3806  1.6196
 4693TIP3    H235715   2.104   5.318   2.202  2.1552  0.7455  1.9227
 4694TIP3   OH235716   2.497   3.460   1.709 -0.0511  0.5226 -0.1957
 4694TIP3    H135717   2.564   3.504   1.762  1.3018 -0.8156 -0.6918
 4694TIP3    H235718   2.447   3.409   1.772  1.6298 -1.1595 -0.0996
 4695TIP3   OH235719   2.302   4.120   0.710 -0.5983  0.1756  0.5394
 4695TIP3    H135720   2.284   4.093   0.620 -1.9882 -1.0856  1.1568
 4695TIP3    H235721   2.251   4.060   0.764  1.0253  0.2185  2.2293
 4696TIP3   OH235722   5.163   2.230   8.556  0.0103 -0.3230  0.2027
 4696TIP3    H135723   5.073   2.199   8.559 -0.5020  1.0807  0.0391
 4696TIP3    H235724   5.156   2.324   8.540  1.4719  0.0122  1.2881
 4697TIP3   OH235725   2.079   1.092   1.464 -0.3042  0.4919 -0.1366
 4697TIP3    H135726   2.167   1.126   1.448  0.1055 -1.0038 -1.2359
 4697TIP3    H235727   2.034   1.164   1.509  0.9297  1.9373 -1.1059
 4698TIP3   OH235728   0.214   6.779   1.231 -0.4081  0.6020 -0.0660
 4698TIP3    H135729   0.212   6.700   1.284 -0.0690 -0.1637 -1.1660
 4698TIP3    H235730   0.196   6.850   1.293 -0.0815 -0.2654  1.0506
 4699TIP3   OH235731   1.031   5.715   0.381 -0.7394  0.0196  0.6273
 4699TIP3    H135732   0.960   5.667   0.423 -0.5135 -0.5139  0.4085
 4699TIP3    H235733   1.012   5.708   0.287  0.1726 -1.0658  0.4960
 4700TIP3   OH235734   0.498   3.297   0.991 -0.0766 -0.4871  0.0685
 4700TIP3    H135735   0.592   3.312   0.995  0.3730 -3.0269  0.8491
 4700TIP3    H235736   0.483   3.222   1.049 -2.6303 -0.0050  0.1657
 4701TIP3   OH235737   5.577   1.329   1.999 -0.0527 -0.1705 -0.4260
 4701TIP3    H135738   5.670   1.331   1.977  0.5924 -1.1621  1.8514
 4701TIP3    H235739   5.544   1.251   1.956  0.5164 -0.5900 -0.1184
 4702TIP3   OH235740   4.537   1.478   2.876 -0.7693 -0.2570  0.2199
 4702TIP3    H135741   4.603   1.485   2.807  1.0318  1.4320  1.9654
 4702TIP3    H235742   4.465   1.533   2.846 -0.6178 -0.6457 -0.9116
 4703TIP3   OH235743   0.309   1.390   8.535  0.5119 -0.2941 -0.4377
 4703TIP3    H135744   0.336   1.423   8.449  0.9560 -0.2298 -0.2752
 4703TIP3    H235745   0.309   1.468   8.592  2.1221 -0.6461  0.0867
 4704TIP3   OH235746   3.465   5.955   3.723 -0.1221  0.2072 -0.2115
 4704TIP3    H135747   3.476   5.895   3.797 -1.3934  0.0357 -0.1333
 4704TIP3    H235748   3.436   5.899   3.651 -0.3128  0.5767 -0.4269
 4705TIP3   OH235749   0.245   0.322   0.547 -0.1903  0.0672 -0.4900
 4705TIP3    H135750   0.300   0.393   0.581 -0.3148  0.3705 -0.9130
 4705TIP3    H235751   0.288   0.294   0.466 -0.4551  0.0559 -0.6300
 4706TIP3   OH235752   5.795   6.410   1.458 -0.6192  0.1945  0.5618
 4706TIP3    H135753   5.776   6.367   1.542  0.5189 -1.1587  0.1526
 4706TIP3    H235754   5.837   6.493   1.483 -3.1478  1.3537  1.3636
 4707TIP3   OH235755   3.649   3.271   1.038  0.1798 -0.5845 -0.2034
 4707TIP3    H135756   3.643   3.175   1.033  0.5480 -0.6917  0.9710
 4707TIP3    H235757   3.742   3.290   1.029  0.0332 -0.2786 -1.1128
 4708TIP3   OH235758   4.774   5.081   8.488 -0.4426  0.6512 -0.5030
 4708TIP3    H135759   4.857   5.060   8.446 -0.6753  0.2816 -0.7706
 4708TIP3    H235760   4.757   5.172   8.464 -0.2788  0.6244 -0.7129
 4709TIP3   OH235761   0.950   0.119   2.544  0.2928  0.0952 -0.4922
 4709TIP3    H135762   0.992   0.199   2.577 -1.6519  0.3349  1.7266
 4709TIP3    H235763   1.023   0.060   2.524  1.7730  0.7614  2.3756
 4710TIP3   OH235764   6.174   5.722   1.613  0.1723 -0.6222  1.2281
 4710TIP3    H135765   6.090   5.678   1.627  0.5825 -2.2065 -0.8414
 4710TIP3    H235766   6.149   5.811   1.586 -0.8223 -0.9067  1.1567
 4711TIP3   OH235767   2.066   5.460   0.592  0.5974  0.0736 -0.0192
 4711TIP3    H135768   2.087   5.542   0.548  1.7731 -0.0557  0.2616
 4711TIP3    H235769   2.147   5.436   0.638  0.2251 -1.1641  0.0271
 4712TIP3   OH235770   6.655   3.210   3.795 -0.2280 -0.2066 -0.1002
 4712TIP3    H135771   6.633   3.118   3.808  2.8947 -0.8409  1.8172
 4712TIP3    H235772   6.607   3.256   3.864 -2.6079 -0.1351 -1.6856
 4713TIP3   OH235773   1.906   5.737   3.290 -0.3456 -0.0616  0.0803
 4713TIP3    H135774   1.915   5.810   3.351 -1.1232  0.2237 -0.1302
 4713TIP3    H235775   1.921   5.775   3.204 -1.9989  0.1563 -0.1555
 4714TIP3   OH235776   2.539   0.872   1.377  0.0884  0.5175  0.3846
 4714TIP3    H135777   2.454   0.853   1.337  1.1696  1.2157 -2.4559
 4714TIP3    H235778   2.593   0.796   1.356  1.4250  1.9950 -1.9028
 4715TIP3   OH235779   6.750   1.238   2.681 -0.1203 -0.4207 -0.2448
 4715TIP3    H135780   6.690   1.235   2.606  1.5154  2.1933 -1.7907
 4715TIP3    H235781   6.836   1.252   2.642  1.2255 -1.8019  2.0393
 4716TIP3   OH235782   4.034   2.267   0.035  0.6552 -0.2191 -0.1685
 4716TIP3    H135783   3.981   2.306   0.104 -0.2573 -2.0955  0.2501
 4716TIP3    H235784   4.120   2.308   0.044 -0.3182  1.8978 -0.0007
 4717TIP3   OH235785   4.934   0.961   0.172  0.0832  0.1248 -0.4535
 4717TIP3    H135786   4.921   0.886   0.114  2.4393 -1.5976  1.0218
 4717TIP3    H235787   5.004   1.012   0.130  1.9522 -1.2449  0.8159
 4718TIP3   OH235788   0.335   3.866   3.975 -0.4751  0.2977  0.7224
 4718TIP3    H135789   0.259   3.923   3.969  0.4303  1.4804 -0.1781
 4718TIP3    H235790   0.369   3.862   3.885 -0.5317 -1.7374  0.7449
 4719TIP3   OH235791   4.637   6.797   2.434  0.2842  0.1033 -0.0276
 4719TIP3    H135792   4.652   6.874   2.489 -1.7755 -0.3181  1.1997
 4719TIP3    H235793   4.640   6.831   2.345 -0.6844  1.6537  0.4864
 4720TIP3   OH235794   4.754   1.295   3.047 -0.4792 -0.6525  0.0594
 4720TIP3    H135795   4.772   1.375   2.997 -1.4664 -0.9721 -0.8395
 4720TIP3    H235796   4.699   1.243   2.989  4.4164 -4.5291 -1.8049
 4721TIP3   OH235797   2.820   4.671   2.434  0.0034  0.1705  0.6122
 4721TIP3    H135798   2.790   4.597   2.487  0.3335 -0.8731 -0.5923
 4721TIP3    H235799   2.748   4.733   2.435 -1.1135 -1.0644  0.0336
 4722TIP3   OH235800   0.858   6.469   1.543  0.5546 -0.3874 -0.7481
 4722TIP3    H135801   0.862   6.547   1.599 -1.1037 -0.0901 -1.0106
 4722TIP3    H235802   0.943   6.468   1.498  1.8423 -0.4884  1.5214
 4723TIP3   OH235803   5.201   2.616   0.381  0.5221  0.6732 -0.1846
 4723TIP3    H135804   5.265   2.611   0.451  0.3728 -0.4640 -0.1070
 4723TIP3    H235805   5.117   2.597   0.424  0.4422 -0.1312 -0.6681
 4724TIP3   OH235806   3.791   4.102   0.709 -0.2660 -0.5745 -0.6676
 4724TIP3    H135807   3.737   4.025   0.725 -0.0391 -0.5990  0.0260
 4724TIP3    H235808   3.859   4.098   0.776 -1.6053  1.4977  0.9509
 4725TIP3   OH235809   3.910   4.796   3.048 -0.3358 -0.1412 -0.0748
 4725TIP3    H135810   3.818   4.804   3.070 -0.2536 -0.4929  0.4062
 4725TIP3    H235811   3.941   4.886   3.037 -0.6671 -0.0152  0.0378
 4726TIP3   OH235812   4.310   4.679   3.561  0.8680  0.3296 -0.0571
 4726TIP3    H135813   4.339   4.589   3.571  0.4901  0.3170  1.0759
 4726TIP3    H235814   4.302   4.712   3.650  0.9111  1.4605 -0.4478
 4727TIP3   OH235815   2.422   0.815   3.329  0.7330  0.0423 -0.2073
 4727TIP3    H135816   2.461   0.894   3.368 -0.4785 -0.0344  1.2421
 4727TIP3    H235817   2.485   0.746   3.347  0.4534  0.1239  1.1763
 4728TIP3   OH235818   5.239   0.103   3.572  0.1290  0.1045  0.3296
 4728TIP3    H135819   5.324   0.080   3.609 -0.2803 -0.6575  0.8201
 4728TIP3    H235820   5.227   0.195   3.596 -0.2244 -0.4163  2.3532
 4729TIP3   OH235821   5.241   2.994   1.316 -0.4374  0.7294 -0.0429
 4729TIP3    H135822   5.283   3.010   1.232 -1.9874  1.0829 -0.7788
 4729TIP3    H235823   5.183   2.919   1.301  0.4532 -0.2454  1.1558
 4730TIP3   OH235824   3.501   6.224   1.790 -0.2773  0.1957  0.1329
 4730TIP3    H135825   3.536   6.244   1.703 -3.0172 -0.5108 -1.2483
 4730TIP3    H235826   3.529   6.298   1.845  0.9359  1.0128 -1.5052
 4731TIP3   OH235827   2.873   5.214   1.181  0.1165  0.1268  0.1082
 4731TIP3    H135828   2.898   5.191   1.092 -3.8462 -3.3988 -0.4306
 4731TIP3    H235829   2.927   5.157   1.236  0.0418 -0.3994 -0.3479
 4732TIP3   OH235830   3.400   4.602   1.058  0.4666  0.3473  0.2782
 4732TIP3    H135831   3.485   4.590   1.100  0.0382  2.2698  1.7973
 4732TIP3    H235832   3.413   4.676   0.999  0.1019 -0.0248 -0.2770
 4733TIP3   OH235833   0.492   0.398   0.082 -0.3800  0.2505 -0.3631
 4733TIP3    H135834   0.566   0.395   0.023 -0.3801 -0.5963 -0.3305
 4733TIP3    H235835   0.415   0.404   0.025 -0.4261 -1.2403 -0.5025
 4734TIP3   OH235836   2.634   1.955   2.710 -0.4291 -0.7386  0.0441
 4734TIP3    H135837   2.703   1.921   2.653  1.6121  2.2085  0.4690
 4734TIP3    H235838   2.577   2.004   2.651 -1.4794 -2.1464 -0.1370
 4735TIP3   OH235839   6.745   2.399   8.115 -0.0575  0.2220  0.0868
 4735TIP3    H135840   6.804   2.426   8.186  1.8653 -0.1358 -1.3109
 4735TIP3    H235841   6.669   2.457   8.123  0.8472  1.2719  1.4243
 4736TIP3   OH235842   4.298   6.705   0.546  0.6634 -0.7476 -0.1194
 4736TIP3    H135843   4.259   6.784   0.585  1.7662 -0.2257 -0.0356
 4736TIP3    H235844   4.336   6.658   0.620  2.2671 -0.0398 -0.4521
 4737TIP3   OH235845   6.871   4.695   1.532 -0.1844  0.2171  0.2723
 4737TIP3    H135846   6.781   4.699   1.499  0.6736  0.5932 -2.2277
 4737TIP3    H235847   6.866   4.636   1.607 -2.2507 -0.9880 -0.7273
 4738TIP3   OH235848   2.193   4.200   3.394  0.3151  0.6592 -0.5024
 4738TIP3    H135849   2.187   4.137   3.322 -2.5292  0.7376 -0.4477
 4738TIP3    H235850   2.102   4.226   3.411  1.1476  2.6869  1.3381
 4739TIP3   OH235851   4.010   1.407   0.343 -0.8409  0.0207  0.1261
 4739TIP3    H135852   4.092   1.439   0.305  0.1965  0.7474  2.7370
 4739TIP3    H235853   3.946   1.475   0.321 -0.2801  0.4357 -0.2803
 4740TIP3   OH235854   0.006   3.874   1.210  0.0806 -0.3598 -1.2814
 4740TIP3    H135855   0.087   3.850   1.255 -1.7209 -3.2814  0.6552
 4740TIP3    H235856  -0.047   3.917   1.277 -0.5857  0.1891 -2.1382
 4741TIP3   OH235857   0.369   3.631   8.106  0.2073 -0.1856  0.3221
 4741TIP3    H135858   0.312   3.596   8.175  1.2134  1.5296  2.1481
 4741TIP3    H235859   0.330   3.715   8.082  0.9974  0.2050  0.3503
 4742TIP3   OH235860   4.134   2.171   3.616  0.2939 -0.4644  0.1362
 4742TIP3    H135861   4.081   2.091   3.621  0.6209 -0.7624 -0.9325
 4742TIP3    H235862   4.210   2.146   3.562  0.2174  0.6596 -0.5143
 4743TIP3   OH235863   3.567   0.551   1.983 -0.1007 -0.1315  0.2841
 4743TIP3    H135864   3.503   0.615   2.012 -0.6297 -1.3088  1.8399
 4743TIP3    H235865   3.521   0.500   1.916 -0.1942  0.1203  0.1543
 4744TIP3   OH235866   6.182   0.467   2.316  0.3557 -0.1506  0.4399
 4744TIP3    H135867   6.141   0.520   2.384 -0.8805  0.9197 -1.0618
 4744TIP3    H235868   6.193   0.381   2.357  0.2865  0.6226  2.1853
 4745TIP3   OH235869   5.750   1.509   3.242 -0.2189  0.6062  0.0626
 4745TIP3    H135870   5.747   1.605   3.245 -1.1572  0.6408 -1.0720
 4745TIP3    H235871   5.714   1.481   3.326 -1.7630  1.2751 -0.3383
 4746TIP3   OH235872   4.185   2.419   2.143  0.1596 -0.4270 -0.1878
 4746TIP3    H135873   4.102   2.404   2.098 -0.4915  0.8981  0.5361
 4746TIP3    H235874   4.248   2.363   2.097 -0.6984  0.0837 -2.0526
 4747TIP3   OH235875   1.235   0.502   2.277  0.1318 -0.3305  0.6798
 4747TIP3    H135876   1.269   0.573   2.222 -0.1240 -1.2567 -0.7215
 4747TIP3    H235877   1.178   0.547   2.340  0.1980  0.7441  0.0054
 4748TIP3   OH235878   4.500   1.783   2.291 -1.1855 -0.5607 -0.1421
 4748TIP3    H135879   4.563   1.719   2.324  0.9895  0.7366 -1.4910
 4748TIP3    H235880   4.512   1.860   2.347 -0.5239  0.1635 -1.2289
 4749TIP3   OH235881   2.543   0.564   2.762 -0.1151  0.1231  0.0843
 4749TIP3    H135882   2.576   0.654   2.752 -0.2575  0.0642 -1.1043
 4749TIP3    H235883   2.603   0.523   2.824  2.2627 -0.0433 -2.1428
 4750TIP3   OH235884   5.663   5.733   1.929 -0.4938 -0.2500  0.2664
 4750TIP3    H135885   5.608   5.783   1.989  1.2904  1.0938  0.8776
 4750TIP3    H235886   5.650   5.642   1.954 -2.5807 -0.0183  0.2167
 4751TIP3   OH235887   6.176   6.936   2.916  0.6892  0.2898 -0.3928
 4751TIP3    H135888   6.130   7.016   2.892 -1.6062 -0.5124  0.9945
 4751TIP3    H235889   6.170   6.932   3.012  2.4701 -0.5875 -0.2629
 4752TIP3   OH235890   2.171   5.519   2.988  0.0696 -0.0950 -0.1573
 4752TIP3    H135891   2.159   5.605   2.948  0.6495 -0.9409 -2.2724
 4752TIP3    H235892   2.085   5.498   3.025 -0.4117  0.8764 -0.6833
 4753TIP3   OH235893   4.861   3.322   1.201 -0.7375 -0.1349 -0.2400
 4753TIP3    H135894   4.782   3.288   1.244  0.1004 -0.5174  1.0615
 4753TIP3    H235895   4.931   3.305   1.263  0.2987  0.7110 -1.1359
 4754TIP3   OH235896   5.215   5.548   3.249  0.1887  0.1342  0.5625
 4754TIP3    H135897   5.147   5.509   3.193 -0.3017 -0.6175  1.6381
 4754TIP3    H235898   5.182   5.636   3.268 -0.4676 -0.1834  0.9812
 4755TIP3   OH235899   0.236   2.827   0.554 -0.2723  0.1686 -0.0403
 4755TIP3    H135900   0.260   2.738   0.578  0.9734  0.8658  1.4652
 4755TIP3    H235901   0.141   2.830   0.563 -0.2180 -0.7057  1.0107
 4756TIP3   OH235902   0.855   4.324   4.010 -0.1622 -0.5168  0.1064
 4756TIP3    H135903   0.933   4.306   4.062 -1.6829 -1.1903  2.3155
 4756TIP3    H235904   0.853   4.419   4.002 -1.0339 -0.1369  3.3930
 4757TIP3   OH235905   2.631   6.108   0.087  0.0692 -0.2777 -0.5828
 4757TIP3    H135906   2.589   6.042   0.144 -0.5422  0.0602 -0.6297
 4757TIP3    H235907   2.656   6.179   0.147  0.8957 -0.6256 -0.5048
 4758TIP3   OH235908   3.059   5.485   3.659  0.1914  0.2682 -0.2078
 4758TIP3    H135909   2.978   5.536   3.658 -0.3447 -0.5192 -2.2541
 4758TIP3    H235910   3.091   5.492   3.748 -3.3057 -1.1921  1.3613
 4759TIP3   OH235911   0.989   6.144   2.314 -0.4342  0.1862 -0.5370
 4759TIP3    H135912   1.024   6.136   2.225 -0.3617 -1.2145 -0.4082
 4759TIP3    H235913   0.901   6.179   2.303 -0.4597 -0.0677 -1.1662
 4760TIP3   OH235914   1.395   5.832   3.304  0.7600  0.1834 -0.2280
 4760TIP3    H135915   1.445   5.914   3.311  0.3366  0.4043  0.2848
 4760TIP3    H235916   1.386   5.802   3.394 -0.6494  0.5292 -0.2364
 4761TIP3   OH235917   0.045   1.682   2.815  0.0236  0.5797  0.0767
 4761TIP3    H135918   0.078   1.638   2.893  1.0449  1.3304  0.0838
 4761TIP3    H235919   0.089   1.639   2.742  1.7053  2.0940  0.1277
 4762TIP3   OH235920   4.937   6.248   2.554 -0.2818  0.0938  0.1297
 4762TIP3    H135921   4.901   6.292   2.477 -0.3276  1.6938  1.0071
 4762TIP3    H235922   5.026   6.284   2.562  0.0512 -0.7480  0.3185
 4763TIP3   OH235923   5.351   4.085   2.806 -0.6761 -0.2126 -0.2832
 4763TIP3    H135924   5.298   4.028   2.751 -1.1708  0.4711 -0.5252
 4763TIP3    H235925   5.372   4.160   2.751  0.6611 -0.5203 -0.2328
 4764TIP3   OH235926   1.285   1.286   1.520  0.2286 -0.1263 -0.5515
 4764TIP3    H135927   1.356   1.234   1.483  1.7273  1.7352 -0.4773
 4764TIP3    H235928   1.225   1.222   1.558  1.2596 -1.8229 -1.6539
 4765TIP3   OH235929   1.238   2.204   2.816  0.1851 -0.5094  0.1383
 4765TIP3    H135930   1.238   2.125   2.869 -0.2036 -1.7512 -1.6150
 4765TIP3    H235931   1.149   2.238   2.824  0.4507 -0.0278  1.1755
 4766TIP3   OH235932   1.640   0.630   2.527  0.6319  0.0121  0.5701
 4766TIP3    H135933   1.733   0.608   2.528  0.5902 -0.5922 -1.7844
 4766TIP3    H235934   1.599   0.558   2.478 -0.5903  1.6872 -1.0490
 4767TIP3   OH235935   5.755   2.477   2.730  0.1801 -0.0516  0.0431
 4767TIP3    H135936   5.717   2.548   2.679  0.1884 -0.8533 -1.1167
 4767TIP3    H235937   5.728   2.397   2.684 -1.2594 -0.9270  2.2400
 4768TIP3   OH235938   6.171   5.157   0.409  0.3920 -0.2615  0.3307
 4768TIP3    H135939   6.083   5.128   0.433 -0.3508  1.8079  0.2731
 4768TIP3    H235940   6.178   5.137   0.316 -0.4388  0.5460  0.0873
 4769TIP3   OH235941   5.280   3.818   8.313 -0.9559 -0.2500  0.4580
 4769TIP3    H135942   5.262   3.886   8.248 -1.4519  0.4658  1.3300
 4769TIP3    H235943   5.204   3.818   8.370 -0.1941 -0.3344  1.5022
 4770TIP3   OH235944   6.579   5.881   0.188 -0.1445 -0.2570 -0.1042
 4770TIP3    H135945   6.532   5.963   0.205  0.6995  0.4804 -1.1854
 4770TIP3    H235946   6.611   5.890   0.099  1.4497 -1.0109  0.3492
 4771TIP3   OH235947   5.627   0.318   7.598 -0.0775  0.2001  0.4783
 4771TIP3    H135948   5.577   0.238   7.585 -0.0277  0.3946 -1.1880
 4771TIP3    H235949   5.576   0.368   7.662 -0.8524 -0.5472  0.4661
 4772TIP3   OH235950   1.108   5.856   1.368 -0.4420  0.0327  0.4790
 4772TIP3    H135951   1.127   5.762   1.369 -0.7707 -0.2013 -2.8204
 4772TIP3    H235952   1.013   5.861   1.363 -0.3910  0.4645 -0.2501
 4773TIP3   OH235953   0.332   3.260   3.687  0.2843 -0.2077 -0.4829
 4773TIP3    H135954   0.387   3.321   3.736  2.4114 -0.5070 -2.3450
 4773TIP3    H235955   0.334   3.179   3.738 -0.7941  0.5791  0.8875
 4774TIP3   OH235956   5.687   3.422   2.002 -0.2709 -0.1034  0.1075
 4774TIP3    H135957   5.767   3.377   1.976  0.3447  0.8548  0.2952
 4774TIP3    H235958   5.674   3.396   2.094  0.0249  0.0252  0.1862
 4775TIP3   OH235959   1.313   1.287   3.556 -0.1843 -0.4151  0.9174
 4775TIP3    H135960   1.272   1.369   3.529  0.8396  0.1317  0.9751
 4775TIP3    H235961   1.321   1.294   3.651 -0.5263 -0.7978  0.9789
 4776TIP3   OH235962   5.027   0.204   3.814  0.4600 -0.1723  0.6050
 4776TIP3    H135963   5.118   0.175   3.799  0.7288  0.7688  0.3858
 4776TIP3    H235964   4.984   0.127   3.853  1.0193 -1.0612 -0.4572
 4777TIP3   OH235965   5.515   5.103   1.404 -0.0585  0.3504 -0.1218
 4777TIP3    H135966   5.599   5.147   1.423 -0.1043 -0.2687  1.6982
 4777TIP3    H235967   5.459   5.173   1.371  0.8761  0.9842 -0.4084
 4778TIP3   OH235968   6.132   0.080   8.436  0.2145  1.2279  0.2421
 4778TIP3    H135969   6.061   0.083   8.500 -1.4304  1.5885 -1.4831
 4778TIP3    H235970   6.140  -0.013   8.413 -1.1057  1.3569 -0.9383
 4779TIP3   OH235971   4.791   0.081   0.905 -0.4347  0.1102  1.2639
 4779TIP3    H135972   4.752   0.127   0.979 -2.4478 -1.0910  1.0258
 4779TIP3    H235973   4.857   0.024   0.944  0.5297  1.5091  1.7776
 4780TIP3   OH235974   1.346   4.094   1.711 -0.4897  0.5340 -0.1441
 4780TIP3    H135975   1.417   4.031   1.720 -0.6465  0.1440 -1.3814
 4780TIP3    H235976   1.270   4.049   1.747 -0.1258  0.9630  1.2092
 4781TIP3   OH235977   0.714   1.522   2.614  0.5189 -0.3855  0.0199
 4781TIP3    H135978   0.687   1.442   2.569  0.0182 -1.0132  1.3617
 4781TIP3    H235979   0.792   1.552   2.567 -0.7265 -0.2406 -2.0607
 4782TIP3   OH235980   5.984   4.684   2.605  0.3059  0.5038 -0.3647
 4782TIP3    H135981   6.036   4.759   2.633  2.6107 -0.8613 -0.6785
 4782TIP3    H235982   5.929   4.663   2.681 -0.8961  2.8225 -0.5015
 4783TIP3   OH235983   0.156   1.873   1.721  0.3719 -0.4367  0.2305
 4783TIP3    H135984   0.192   1.957   1.694  0.2067 -0.3428  0.2989
 4783TIP3    H235985   0.226   1.832   1.771  0.6315 -0.5556 -0.2306
 4784TIP3   OH235986   1.932   0.360   2.165 -0.5058  0.4113 -0.0833
 4784TIP3    H135987   1.996   0.362   2.237  1.0687  0.0528 -1.4163
 4784TIP3    H235988   1.941   0.273   2.127  2.4020  2.0575 -3.8082
 4785TIP3   OH235989   4.473   6.373   3.840 -0.0591 -0.3097  0.0582
 4785TIP3    H135990   4.520   6.400   3.919 -0.7750  0.9742  0.0766
 4785TIP3    H235991   4.401   6.318   3.873 -0.5430  0.4814  0.3361
 4786TIP3   OH235992   1.845   1.091   2.809  0.1280 -0.0925  0.1203
 4786TIP3    H135993   1.846   1.077   2.904  0.7483 -0.3240  0.0823
 4786TIP3    H235994   1.888   1.014   2.773 -3.4307 -1.9257 -0.6321
 4787TIP3   OH235995   6.042   3.806   2.155 -0.1761 -0.3251 -0.4878
 4787TIP3    H135996   6.083   3.891   2.141 -2.8937  1.0778 -0.3856
 4787TIP3    H235997   6.020   3.804   2.248  1.3388 -1.9160 -0.0987
 4788TIP3   OH235998   1.598   2.607   2.493  0.1270  0.2073 -0.2112
 4788TIP3    H135999   1.540   2.566   2.558  1.2605 -0.3917  0.4552
 4788TIP3    H236000   1.664   2.540   2.474  0.8997  1.0450 -0.5790
 4789TIP3   OH236001   4.739   5.072   1.722  0.1524 -0.6814 -0.0650
 4789TIP3    H136002   4.669   5.050   1.661  0.2843 -1.6083  0.0942
 4789TIP3    H236003   4.702   5.055   1.809  0.5637 -1.1860  0.0190
 4790TIP3   OH236004   6.441   3.423   4.466  0.5732  0.0019 -0.1945
 4790TIP3    H136005   6.525   3.395   4.503  0.7544  0.1049 -0.5164
 4790TIP3    H236006   6.406   3.345   4.424  0.9749  0.1907 -0.9042
 4791TIP3   OH236007   1.075   2.643   1.966 -0.0013  0.2847 -0.1236
 4791TIP3    H136008   1.045   2.608   2.050 -2.4650  0.4498 -0.8574
 4791TIP3    H236009   1.143   2.581   1.938 -1.0987 -1.3776  0.7026
 4792TIP3   OH236010   3.089   6.110   3.082 -0.3054 -0.1364 -0.2946
 4792TIP3    H136011   3.005   6.068   3.061 -0.1758 -0.0891 -0.9440
 4792TIP3    H236012   3.118   6.068   3.163 -1.9298  1.2393  1.0852
 4793TIP3   OH236013   3.096   6.534   3.587 -0.4784 -0.1314 -0.3579
 4793TIP3    H136014   3.183   6.572   3.601 -0.9038  0.7513 -0.0494
 4793TIP3    H236015   3.059   6.525   3.675 -0.6576 -0.6084 -0.4804
 4794TIP3   OH236016   2.558   2.386   0.827 -0.1067  0.2156 -0.2402
 4794TIP3    H136017   2.556   2.331   0.749  0.9770  0.4490 -0.4469
 4794TIP3    H236018   2.473   2.371   0.869 -1.0345  0.7057 -1.8739
 4795TIP3   OH236019   5.439   1.590   2.910 -0.3489  0.0440 -0.6016
 4795TIP3    H136020   5.474   1.679   2.921  2.1586 -1.0411  1.2434
 4795TIP3    H236021   5.369   1.584   2.974 -1.0388  0.8886 -1.2478
 4796TIP3   OH236022   6.941   4.024   2.406  0.0658  0.0537 -0.4462
 4796TIP3    H136023   6.859   4.047   2.449  0.2293  0.8484 -0.5427
 4796TIP3    H236024   6.924   3.940   2.364 -0.8808  0.4681 -0.9158
 4797TIP3   OH236025   2.373   6.061   3.627 -0.0074 -0.1511 -0.4407
 4797TIP3    H136026   2.458   6.027   3.655 -0.4924 -1.5547 -0.6214
 4797TIP3    H236027   2.368   6.147   3.669  0.7519 -0.7687  1.0235
 4798TIP3   OH236028   0.373   1.737   3.780  0.3950 -0.2187 -0.1991
 4798TIP3    H136029   0.389   1.829   3.799 -0.7620 -0.2758  1.2268
 4798TIP3    H236030   0.384   1.730   3.685  0.2017  1.4490 -0.3763
 4799TIP3   OH236031   4.229   4.319   8.566  0.3140 -0.1556  0.4873
 4799TIP3    H136032   4.204   4.319   8.474 -1.9349 -0.7146  1.0530
 4799TIP3    H236033   4.170   4.257   8.608  0.5900  0.8259  2.4788
 4800TIP3   OH236034   3.531   6.190   3.561  0.1384 -0.3137 -0.2980
 4800TIP3    H136035   3.534   6.112   3.616  1.5045 -0.4391 -0.5073
 4800TIP3    H236036   3.527   6.263   3.623  4.1756 -0.3038  0.2227
 4801TIP3   OH236037   2.735   2.286   1.011  0.2816  0.0865 -0.1369
 4801TIP3    H136038   2.648   2.287   0.972 -0.9472 -1.6518  2.3022
 4801TIP3    H236039   2.728   2.339   1.090  0.9979 -1.1305  0.8001
 4802TIP3   OH236040   6.551   1.316   0.068 -0.0795  0.1146 -0.4123
 4802TIP3    H136041   6.468   1.337   0.112  0.4378 -2.9892  2.4691
 4802TIP3    H236042   6.533   1.237   0.018  0.4769  1.1831 -2.4280
 4803TIP3   OH236043   6.651   0.207   0.615  0.0065 -0.2041  0.1747
 4803TIP3    H136044   6.718   0.155   0.572  1.3708  0.5435  1.3249
 4803TIP3    H236045   6.627   0.156   0.693 -2.3105 -1.4600 -1.2598
 4804TIP3   OH236046   0.301   1.374   1.176  0.2904  0.0403 -0.4176
 4804TIP3    H136047   0.280   1.412   1.090  0.2407 -1.4319 -1.0868
 4804TIP3    H236048   0.363   1.303   1.156 -1.7868 -2.1356  0.3923
 4805TIP3   OH236049   1.354   0.523   3.223 -0.1399  0.4072  0.3413
 4805TIP3    H136050   1.407   0.484   3.153  1.7128 -0.9389  2.3619
 4805TIP3    H236051   1.275   0.554   3.178  1.3764  0.5602 -2.4931
 4806TIP3   OH236052   5.182   1.529   3.408  0.0969 -0.5717  0.2878
 4806TIP3    H136053   5.189   1.434   3.420  0.4558 -0.5736  0.0780
 4806TIP3    H236054   5.144   1.561   3.489 -0.6186 -0.9719  0.1247
 4807TIP3   OH236055   4.209   2.006   2.191  0.0876 -0.7558  0.2804
 4807TIP3    H136056   4.206   1.911   2.186  1.4231 -0.7645 -1.8946
 4807TIP3    H236057   4.189   2.035   2.102 -0.7501  1.0407  1.0017
 4808TIP3   OH236058   6.275   2.531   2.570 -0.3615  0.1283  0.1368
 4808TIP3    H136059   6.293   2.437   2.569  1.2318  0.4116 -0.0840
 4808TIP3    H236060   6.207   2.543   2.503 -0.5836 -0.8514  0.1639
 4809TIP3   OH236061   1.479   1.885   4.230  0.7243  0.6265  0.4972
 4809TIP3    H136062   1.537   1.962   4.225  0.8830  0.5622  1.3060
 4809TIP3    H236063   1.533   1.817   4.268  0.1959  0.4806  0.9926
 4810TIP3   OH236064   2.382   2.640   0.574  0.8926  0.1828  0.3624
 4810TIP3    H136065   2.427   2.636   0.489  0.9291  1.4903  0.3014
 4810TIP3    H236066   2.324   2.715   0.567 -2.6965 -2.3556 -0.1613
 4811TIP3   OH236067   1.822   3.663   8.402  0.7122  0.0137 -0.1935
 4811TIP3    H136068   1.864   3.582   8.374  0.4778 -0.9862  2.1452
 4811TIP3    H236069   1.891   3.712   8.448  0.5614  0.6265 -0.6070
 4812TIP3   OH236070   6.729   5.125   3.553 -0.1585 -0.6234  0.2982
 4812TIP3    H136071   6.648   5.080   3.530  0.6955 -1.3623 -1.5380
 4812TIP3    H236072   6.792   5.054   3.566  0.8265 -0.0399 -1.0414
 4813TIP3   OH236073   2.626   6.529   2.495 -0.3869 -0.1002 -0.2177
 4813TIP3    H136074   2.576   6.535   2.576  0.6021 -0.3603  0.4239
 4813TIP3    H236075   2.713   6.560   2.518  0.3958 -1.8027 -0.7505
 4814TIP3   OH236076   1.643   3.294   3.623  0.0256  0.2418  0.2322
 4814TIP3    H136077   1.699   3.362   3.661  0.5736  0.3768 -0.7906
 4814TIP3    H236078   1.560   3.338   3.606  0.1067  0.4383  0.3413
 4815TIP3   OH236079   6.922   0.010   0.937  0.1441  0.2466 -0.1508
 4815TIP3    H136080   6.886   0.013   1.025 -1.0361  0.5205 -0.6354
 4815TIP3    H236081   6.945   0.100   0.917 -0.1897  0.2809 -0.3735
 4816TIP3   OH236082   0.113   4.373   3.016 -0.4517 -0.1500  0.3120
 4816TIP3    H136083   0.040   4.316   2.990 -0.5039  0.2812 -0.5174
 4816TIP3    H236084   0.167   4.381   2.937 -0.7941  1.4643  0.2056
 4817TIP3   OH236085   1.778   0.692   1.436  0.6405  0.0477 -0.1736
 4817TIP3    H136086   1.864   0.669   1.400  1.1689 -0.6497  1.4073
 4817TIP3    H236087   1.770   0.637   1.514 -2.0779 -1.2858 -1.2766
 4818TIP3   OH236088   6.003   2.882   0.324  0.4765 -0.6960  0.1194
 4818TIP3    H136089   5.957   2.803   0.298 -1.4394  0.1328  0.8281
 4818TIP3    H236090   5.994   2.941   0.250 -0.2678 -0.2734  0.5351
 4819TIP3   OH236091   3.342   0.238   1.378  0.2670  0.4913  0.4019
 4819TIP3    H136092   3.404   0.295   1.332 -0.8010  0.9179 -0.5424
 4819TIP3    H236093   3.315   0.175   1.311  1.1758 -0.9520  1.3375
 4820TIP3   OH236094   5.235   5.135   3.631  0.7832 -0.3383  0.1696
 4820TIP3    H136095   5.254   5.157   3.540  0.7903 -1.0153 -0.0007
 4820TIP3    H236096   5.290   5.194   3.682  1.2607 -0.3874 -0.2798
 4821TIP3   OH236097   5.490   4.026   0.715 -0.5818 -0.2479 -0.0143
 4821TIP3    H136098   5.420   3.974   0.754 -0.0884 -0.5379  0.4950
 4821TIP3    H236099   5.570   3.995   0.757 -0.0769 -0.2863 -0.9558
 4822TIP3   OH236100   0.111   1.971   0.448  0.1195 -0.0737 -0.2705
 4822TIP3    H136101   0.041   1.988   0.384 -0.6326 -2.9258 -0.3396
 4822TIP3    H236102   0.072   1.994   0.532  0.4992  2.0050 -0.6096
 4823TIP3   OH236103   1.890   4.274   2.881 -0.8217 -0.6214 -0.4460
 4823TIP3    H136104   1.912   4.219   2.806 -1.1382 -1.6104  0.1568
 4823TIP3    H236105   1.956   4.343   2.880 -0.1001 -1.2959 -0.9473
 4824TIP3   OH236106   2.724   5.053   7.847 -0.7822 -0.3325 -0.0682
 4824TIP3    H136107   2.643   5.003   7.854 -1.1853  0.3765  0.5087
 4824TIP3    H236108   2.695   5.144   7.836 -0.0762 -0.0448  0.3687
 4825TIP3   OH236109   3.001   5.709   1.387  0.2801 -0.4418  0.2912
 4825TIP3    H136110   2.927   5.704   1.447  0.2301  0.6722  0.3344
 4825TIP3    H236111   3.001   5.799   1.356  1.3778 -0.5359 -0.0172
 4826TIP3   OH236112   3.991   4.227   1.255 -0.8245 -0.5107 -0.2995
 4826TIP3    H136113   4.041   4.165   1.202  0.6325 -0.9255  1.4345
 4826TIP3    H236114   4.007   4.198   1.345 -1.4377  1.4190  0.4740
 4827TIP3   OH236115   6.055   6.470   2.824 -0.1040 -0.4197 -0.0452
 4827TIP3    H136116   6.123   6.534   2.842 -0.0098 -0.4202 -0.3871
 4827TIP3    H236117   6.023   6.443   2.910  0.2066 -0.2904  0.1099
 4828TIP3   OH236118   2.653   0.513   7.993  0.1443 -0.8413 -0.6035
 4828TIP3    H136119   2.645   0.448   8.063 -0.9129  0.8286  0.9074
 4828TIP3    H236120   2.604   0.589   8.025  1.3593  0.7295 -2.2737
 4829TIP3   OH236121   2.393   3.050   3.391  0.1399 -0.0611 -0.0881
 4829TIP3    H136122   2.330   3.039   3.462 -0.5673 -0.7290 -0.8005
 4829TIP3    H236123   2.347   3.102   3.325  1.4094  2.1859  0.6671
 4830TIP3   OH236124   0.883   0.361   1.333 -0.4892 -0.0487 -0.7753
 4830TIP3    H136125   0.959   0.319   1.293  0.2728 -0.0880  0.6178
 4830TIP3    H236126   0.838   0.404   1.261  0.9769  0.1459 -1.6142
 4831TIP3   OH236127   4.434   3.550   3.083 -0.1165 -0.3358 -0.1909
 4831TIP3    H136128   4.429   3.543   2.987  0.6145 -1.8480 -0.1393
 4831TIP3    H236129   4.344   3.570   3.110 -0.3156  0.2016 -1.1927
 4832TIP3   OH236130   4.270   2.646   3.790 -0.7903 -0.2805  0.0161
 4832TIP3    H136131   4.332   2.689   3.731  1.1384 -0.9709  1.4129
 4832TIP3    H236132   4.259   2.708   3.862 -1.2758 -0.3982  0.0417
 4833TIP3   OH236133   6.445   4.450   2.627 -0.0536 -0.0394 -0.0615
 4833TIP3    H136134   6.366   4.465   2.575 -0.5431 -0.7885  0.4399
 4833TIP3    H236135   6.419   4.384   2.692  1.4436 -1.6234 -0.9857
 4834TIP3   OH236136   3.777   3.240   0.023 -0.1149 -0.2562 -0.2696
 4834TIP3    H136137   3.842   3.175  -0.003 -0.1190 -0.6645  0.7350
 4834TIP3    H236138   3.694   3.193   0.022 -0.1068 -0.2990  0.5435
 4835TIP3   OH236139   4.500   1.591   1.323  0.0088 -0.1646  0.4380
 4835TIP3    H136140   4.549   1.601   1.404  0.7838 -1.4591  0.1619
 4835TIP3    H236141   4.408   1.595   1.350  0.2532  0.7500  1.1766
 4836TIP3   OH236142   4.719   1.611   2.111  0.1843  0.1596 -0.7738
 4836TIP3    H136143   4.685   1.531   2.071 -0.0868 -0.3675  0.4558
 4836TIP3    H236144   4.681   1.611   2.199  2.7474 -0.0578  0.4235
 4837TIP3   OH236145   1.718   5.696   2.452  0.3556 -0.4822  0.3008
 4837TIP3    H136146   1.672   5.659   2.377  0.9029 -2.5210  0.9152
 4837TIP3    H236147   1.769   5.769   2.416 -3.4097  2.1022 -0.3747
 4838TIP3   OH236148   5.888   5.051   1.620  0.5373 -0.4389 -0.4385
 4838TIP3    H136149   5.798   5.018   1.620  0.6232 -0.9323  2.4392
 4838TIP3    H236150   5.941   4.977   1.650  1.9156 -0.0729 -1.8246
 4839TIP3   OH236151   3.870   3.659   0.008  0.1649 -0.0942 -0.1058
 4839TIP3    H136152   3.783   3.636   0.039 -0.4204  3.5188  1.4198
 4839TIP3    H236153   3.857   3.692  -0.081  0.6864 -2.9625 -1.3911
 4840TIP3   OH236154   2.855   4.604   2.072  0.0236 -0.0262 -0.0056
 4840TIP3    H136155   2.942   4.619   2.034  0.2985 -0.3719  0.4627
 4840TIP3    H236156   2.806   4.560   2.003 -0.3709  1.7489 -0.9171
 4841TIP3   OH236157   0.055   4.950   1.111 -0.1180  0.4564 -0.0227
 4841TIP3    H136158  -0.027   4.943   1.064  0.6453  0.1120 -1.3559
 4841TIP3    H236159   0.106   5.014   1.062 -0.0430  1.6468  1.5215
 4842TIP3   OH236160   4.526   0.125   1.411  0.4109  0.0619 -0.5116
 4842TIP3    H136161   4.450   0.136   1.468  1.2671  3.1673  0.2485
 4842TIP3    H236162   4.601   0.125   1.470  1.1427 -0.2018 -1.4210
 4843TIP3   OH236163   2.071   3.116   0.188 -0.0414 -0.0697 -0.6188
 4843TIP3    H136164   2.145   3.176   0.186 -1.7069  2.1626 -0.0305
 4843TIP3    H236165   2.029   3.128   0.102 -0.5449 -0.1554 -0.3906
 4844TIP3   OH236166   5.127   5.350   1.477 -0.0430  0.9442  0.1027
 4844TIP3    H136167   5.095   5.310   1.558  0.5983  1.0555  0.4116
 4844TIP3    H236168   5.076   5.307   1.408  0.7594 -0.5781  0.4135
 4845TIP3   OH236169   0.546   4.634   1.484 -0.3435  0.0488 -0.4745
 4845TIP3    H136170   0.503   4.615   1.400  1.0357  0.0451 -1.2040
 4845TIP3    H236171   0.553   4.730   1.486 -2.0228  0.2045  0.5220
 4846TIP3   OH236172   2.746   2.251   2.681 -0.2280  0.2262 -0.4691
 4846TIP3    H136173   2.807   2.200   2.735  0.1577  0.3397 -0.7897
 4846TIP3    H236174   2.789   2.336   2.670 -0.4687  0.3235 -0.6556
 4847TIP3   OH236175   5.397   5.929   3.286 -0.3891  0.3069 -0.0876
 4847TIP3    H136176   5.311   5.891   3.303 -0.6213  0.1377 -1.5052
 4847TIP3    H236177   5.412   5.990   3.359 -1.3531 -0.2426  0.5816
 4848TIP3   OH236178   5.027   2.754   0.148  0.3434  0.1342  0.3895
 4848TIP3    H136179   5.092   2.685   0.159  0.6019  0.5038  1.3176
 4848TIP3    H236180   5.031   2.804   0.230 -0.2755  0.8705 -0.0107
 4849TIP3   OH236181   0.777   3.137   2.877  0.6770  0.1823  0.3034
 4849TIP3    H136182   0.863   3.119   2.913 -0.0009 -1.0931  1.3667
 4849TIP3    H236183   0.770   3.079   2.801  0.8935  0.5638 -0.0107
 4850TIP3   OH236184   2.861   4.776   3.021  0.3475 -0.2634  0.5635
 4850TIP3    H136185   2.801   4.733   2.959  1.2475 -0.2063 -0.3767
 4850TIP3    H236186   2.848   4.869   3.006  0.8835 -0.2511  0.1212
 4851TIP3   OH236187   2.191   5.790   1.192  0.2259  0.3227 -0.2602
 4851TIP3    H136188   2.097   5.792   1.211  0.3570  1.6530  0.3948
 4851TIP3    H236189   2.213   5.697   1.191 -1.3200 -0.0779 -1.6510
 4852TIP3   OH236190   0.764   2.944   0.458  0.4563 -0.0335  0.3868
 4852TIP3    H136191   0.830   2.950   0.528 -0.0722 -1.0100  0.9838
 4852TIP3    H236192   0.811   2.973   0.379  0.7788  2.0886  1.2864
 4853TIP3   OH236193   0.347   3.160   2.503  0.2919  0.6000  0.7943
 4853TIP3    H136194   0.286   3.132   2.435 -0.1380  1.0876  0.9681
 4853TIP3    H236195   0.395   3.080   2.527 -0.8406  0.0153  1.2130
 4854TIP3   OH236196   1.714   2.028   0.883  0.3347  0.3648 -0.6779
 4854TIP3    H136197   1.771   1.955   0.904 -0.7569 -0.4202 -0.3398
 4854TIP3    H236198   1.685   2.062   0.968  1.1676  1.4984 -0.8130
 4855TIP3   OH236199   1.148   1.510   3.002  0.1274  0.1417  0.6925
 4855TIP3    H136200   1.060   1.509   2.965  0.8304 -1.4505 -1.0930
 4855TIP3    H236201   1.151   1.431   3.056  0.6349 -0.1244  0.2784
 4856TIP3   OH236202   4.199   2.426   8.105 -0.6345  0.4161 -0.0107
 4856TIP3    H136203   4.244   2.421   8.190 -1.5719  1.5515  0.5870
 4856TIP3    H236204   4.122   2.370   8.116 -0.6828  0.4571 -0.1456
 4857TIP3   OH236205   0.484   2.298   0.783 -0.2711  0.0466  0.3528
 4857TIP3    H136206   0.513   2.211   0.753  0.1067  0.5889 -0.9160
 4857TIP3    H236207   0.558   2.356   0.763 -1.9133  1.3775 -2.4558
 4858TIP3   OH236208   0.789   4.555   3.569  0.0044 -0.0160 -0.3483
 4858TIP3    H136209   0.793   4.462   3.546 -0.6339 -0.5587  1.5496
 4858TIP3    H236210   0.860   4.567   3.631 -0.1810  0.6714 -0.2648
 4859TIP3   OH236211   2.648   1.735   1.057 -0.1857 -0.3826 -0.0208
 4859TIP3    H136212   2.608   1.678   0.992 -0.9282 -3.1177  2.6287
 4859TIP3    H236213   2.579   1.797   1.080  0.0799  0.6147 -1.7099
 4860TIP3   OH236214   3.632   2.561   3.644 -0.3710  0.3407 -0.1836
 4860TIP3    H136215   3.724   2.536   3.646 -0.9916 -2.1668 -0.1528
 4860TIP3    H236216   3.590   2.504   3.708 -1.7767  2.4100  0.8359
 4861TIP3   OH236217   6.428   2.521   8.288  0.2540 -0.0278  0.1423
 4861TIP3    H136218   6.390   2.607   8.271  0.2339 -0.6791 -4.1840
 4861TIP3    H236219   6.523   2.535   8.284  0.2529 -0.1564 -0.4076
 4862TIP3   OH236220   3.726   1.939   1.897 -0.0755  0.5573 -0.4837
 4862TIP3    H136221   3.805   1.992   1.881 -0.9028  1.4237 -1.8346
 4862TIP3    H236222   3.736   1.909   1.987  2.0265  0.2544 -0.7594
 4863TIP3   OH236223   1.945   5.093   2.024  0.3012 -0.1210  0.4174
 4863TIP3    H136224   1.997   5.151   2.080  0.8879  0.1527 -0.3969
 4863TIP3    H236225   1.929   5.016   2.079  1.8092 -0.3368  0.6169
 4864TIP3   OH236226   0.638   6.438   0.339 -0.2922  0.0588 -0.3324
 4864TIP3    H136227   0.597   6.464   0.421  0.3669  1.1242 -0.3212
 4864TIP3    H236228   0.596   6.493   0.272 -1.8394 -1.7664 -0.9691
 4865TIP3   OH236229   6.675   0.659   2.102  0.4139 -0.3705  0.2915
 4865TIP3    H136230   6.591   0.642   2.145 -1.7869  2.9258 -2.1979
 4865TIP3    H236231   6.682   0.592   2.035 -0.3352 -0.6097  0.4377
 4866TIP3   OH236232   3.748   4.264   1.366 -0.3743  0.4334  1.0553
 4866TIP3    H136233   3.822   4.234   1.314 -0.5330 -0.2048  1.1924
 4866TIP3    H236234   3.679   4.200   1.348 -1.9621  2.6390 -1.4976
 4867TIP3   OH236235   3.015   4.414   1.813 -0.4359  0.3645 -0.6124
 4867TIP3    H136236   3.039   4.464   1.735  2.3053 -1.5902 -1.1627
 4867TIP3    H236237   3.093   4.417   1.869 -0.6828 -2.0060 -0.0280
 4868TIP3   OH236238   3.950   4.745   3.466  1.0073 -0.1110  0.0079
 4868TIP3    H136239   3.879   4.798   3.431  0.4253 -1.3972 -0.8481
 4868TIP3    H236240   4.027   4.770   3.415  0.8381  0.2231 -0.0823
 4869TIP3   OH236241   6.020   5.320   1.578 -0.0304  0.7044  0.4451
 4869TIP3    H136242   5.989   5.341   1.666  2.5974 -0.9621  1.8879
 4869TIP3    H236243   6.012   5.225   1.572  0.9568  0.6751 -0.6630
 4870TIP3   OH236244   0.844   2.395   2.695  0.2230 -0.1403  0.7952
 4870TIP3    H136245   0.791   2.323   2.729 -1.2383  0.8698  0.7521
 4870TIP3    H236246   0.871   2.445   2.772  0.2583 -0.0797  0.7440
 4871TIP3   OH236247   4.507   6.109   2.782 -0.1071  0.1621 -0.0820
 4871TIP3    H136248   4.419   6.142   2.801 -0.1876  0.1377 -0.4169
 4871TIP3    H236249   4.515   6.114   2.687  0.9152  1.8546  0.0596
 4872TIP3   OH236250   5.983   4.635   1.128 -0.6224  0.8138 -0.2138
 4872TIP3    H136251   5.946   4.584   1.200  0.4171  1.1637  0.5936
 4872TIP3    H236252   6.053   4.580   1.094 -0.0136  1.3567  0.1456
 4873TIP3   OH236253   3.020   0.444   0.891  0.0348 -0.0186 -0.3124
 4873TIP3    H136254   3.053   0.513   0.949  0.4077  0.0436 -0.5957
 4873TIP3    H236255   3.059   0.463   0.806  1.6415 -1.6209  0.0010
 4874TIP3   OH236256   4.392   1.179   8.537 -0.0165  0.1795 -0.3718
 4874TIP3    H136257   4.478   1.215   8.556  0.3542  0.7512 -2.7663
 4874TIP3    H236258   4.408   1.086   8.522  0.0972  0.1944 -0.3438
 4875TIP3   OH236259   1.626   1.209   4.117 -0.3273 -0.0487  0.1837
 4875TIP3    H136260   1.619   1.304   4.114  2.5275  0.2332 -1.0473
 4875TIP3    H236261   1.591   1.185   4.203  0.4077  2.3046  1.2232
 4876TIP3   OH236262   6.687   4.124   2.538  0.6432  0.1710  0.3487
 4876TIP3    H136263   6.753   4.097   2.602  1.2561 -0.1467 -0.4120
 4876TIP3    H236264   6.606   4.084   2.570  0.9579 -0.0573  0.8774
 4877TIP3   OH236265   4.632   6.061   2.339  0.3221 -0.0697 -0.0844
 4877TIP3    H136266   4.618   6.137   2.395  0.8085 -0.9277  1.2417
 4877TIP3    H236267   4.723   6.037   2.353  0.3111 -0.6087 -0.8703
 4878TIP3   OH236268   5.125   2.507   8.568 -0.3402  0.1533  0.0208
 4878TIP3    H136269   5.068   2.493   8.492  1.4318  0.1105 -1.3618
 4878TIP3    H236270   5.142   2.601   8.569 -1.5804  0.3985  1.3333
 4879TIP3   OH236271   0.251   0.729   3.916 -0.0652  0.9366 -0.0578
 4879TIP3    H136272   0.251   0.723   3.820 -1.5301  0.8144 -0.0830
 4879TIP3    H236273   0.337   0.697   3.942 -0.8867 -2.7486 -1.1558
 4880TIP3   OH236274   3.466   6.701   4.178 -0.4614  0.2184 -1.0744
 4880TIP3    H136275   3.559   6.685   4.160 -0.1466  0.3363  0.3632
 4880TIP3    H236276   3.429   6.727   4.093  0.7301 -0.2055 -1.7426
 4881TIP3   OH236277   1.218   2.478   2.665  0.2167 -0.3856 -0.1678
 4881TIP3    H136278   1.256   2.540   2.603  1.1247 -0.8321 -0.0729
 4881TIP3    H236279   1.293   2.431   2.701 -0.2459  0.1887  1.6288
 4882TIP3   OH236280   1.212   6.705   1.832  0.0990 -0.8358  0.0373
 4882TIP3    H136281   1.119   6.719   1.851  0.0599 -0.2046 -0.6121
 4882TIP3    H236282   1.256   6.722   1.915 -0.4216 -1.8940  0.5617
 4883TIP3   OH236283   0.302   5.693   1.742 -0.5754  0.7053  0.0830
 4883TIP3    H136284   0.299   5.779   1.700 -0.2835  1.8075  2.1582
 4883TIP3    H236285   0.218   5.653   1.723 -0.2436  0.8889 -1.9632
 4884TIP3   OH236286   0.874   5.512   2.625 -0.4762 -0.2143 -0.3400
 4884TIP3    H136287   0.914   5.592   2.592 -0.4257 -0.3433 -0.5966
 4884TIP3    H236288   0.910   5.442   2.570  0.4308 -0.5698  0.6693
 4885TIP3   OH236289   4.818   1.560   0.816 -0.3152 -0.2579 -0.4878
 4885TIP3    H136290   4.748   1.511   0.859  0.8682  0.0515  1.9702
 4885TIP3    H236291   4.823   1.642   0.864  1.2182  0.0410 -1.0975
 4886TIP3   OH236292   6.328   4.291   1.315 -0.0946  0.2562 -0.1544
 4886TIP3    H136293   6.279   4.273   1.395 -0.3838 -0.0434 -0.3972
 4886TIP3    H236294   6.284   4.366   1.276 -1.4516 -1.0402 -1.2521
 4887TIP3   OH236295   1.976   3.426   0.122  0.0661  0.0207  0.1344
 4887TIP3    H136296   2.041   3.436   0.192 -1.1755  1.2321  1.1746
 4887TIP3    H236297   2.024   3.446   0.041  1.2172 -0.1159  0.7647
 4888TIP3   OH236298   4.633   3.780   0.945  0.3938 -0.1417  0.2552
 4888TIP3    H136299   4.596   3.845   0.884  2.1443 -0.1597 -0.9229
 4888TIP3    H236300   4.603   3.696   0.912 -1.4618 -0.0115  1.4850
 4889TIP3   OH236301   6.784   4.744   2.975  0.3484  0.5505  0.9453
 4889TIP3    H136302   6.868   4.702   2.959 -0.3416 -0.3332 -0.5584
 4889TIP3    H236303   6.803   4.838   2.968  0.9200  0.3330 -1.1597
 4890TIP3   OH236304   4.937   4.834   0.796  0.3664  0.3190  0.1452
 4890TIP3    H136305   4.842   4.832   0.808  0.1957  2.4366 -0.4425
 4890TIP3    H236306   4.951   4.795   0.709 -0.1677  1.4526 -0.4827
 4891TIP3   OH236307   4.514   4.180   0.797 -0.0844 -0.4204  0.0139
 4891TIP3    H136308   4.513   4.276   0.797 -1.5254 -0.4116 -0.2164
 4891TIP3    H236309   4.437   4.155   0.746  1.3261 -1.7232 -1.6130
 4892TIP3   OH236310   0.268   4.257   8.422  0.0565  0.3183  0.0389
 4892TIP3    H136311   0.311   4.173   8.402 -1.9023 -0.5915 -0.5853
 4892TIP3    H236312   0.242   4.291   8.337 -1.5127  0.2325  0.4618
 4893TIP3   OH236313   6.666   3.681   2.185  0.2608 -0.1708 -0.0483
 4893TIP3    H136314   6.634   3.590   2.181  0.0110 -0.1290  0.7822
 4893TIP3    H236315   6.690   3.702   2.095 -0.0886 -0.9193 -0.3253
 4894TIP3   OH236316   0.707   1.737   8.194 -0.1397 -0.6007  0.7680
 4894TIP3    H136317   0.740   1.799   8.129 -0.9716 -0.5532  0.3675
 4894TIP3    H236318   0.677   1.792   8.266  0.0001 -0.5942  0.8203
 4895TIP3   OH236319   3.935   5.166   0.765 -0.4459 -0.1812 -0.2938
 4895TIP3    H136320   3.863   5.144   0.707 -1.0667 -0.1036  0.4350
 4895TIP3    H236321   3.988   5.228   0.716 -0.3865 -0.9118 -1.1743
 4896TIP3   OH236322   3.267   6.033   1.250  0.2539  0.2706  0.8539
 4896TIP3    H136323   3.248   6.018   1.342  0.6236 -0.3895  0.8307
 4896TIP3    H236324   3.235   5.954   1.205 -0.1602  0.6964  0.3806
 4897TIP3   OH236325   1.982   6.199   1.504  0.0665  0.3440  0.1165
 4897TIP3    H136326   1.970   6.105   1.517  0.8713  0.3429  1.0415
 4897TIP3    H236327   2.054   6.206   1.441 -0.3590  0.3477 -0.3751
 4898TIP3   OH236328   3.352   6.289   3.326  0.1490  0.6435  0.0489
 4898TIP3    H136329   3.278   6.272   3.385 -2.2410  0.0666 -2.8750
 4898TIP3    H236330   3.424   6.237   3.362 -1.7371 -1.1862  1.3946
 4899TIP3   OH236331   5.500   2.011   0.021 -0.1313  0.0506  0.1406
 4899TIP3    H136332   5.461   1.924   0.024 -0.7090  0.2164 -1.5495
 4899TIP3    H236333   5.485   2.041  -0.068  0.4013  1.7368  0.5791
 4900TIP3   OH236334   0.075   6.617   2.609  0.0835  0.1416  0.4160
 4900TIP3    H136335   0.120   6.532   2.615  1.6422  0.9947  1.4373
 4900TIP3    H236336   0.065   6.645   2.700 -0.7680  0.8877  0.1054
 4901TIP3   OH236337   3.188   1.167   2.957 -0.1609  0.2666 -0.2554
 4901TIP3    H136338   3.203   1.209   2.873  0.8222  1.0581  0.2780
 4901TIP3    H236339   3.113   1.110   2.944 -0.8124  1.3440 -1.3170
 4902TIP3   OH236340   3.609   4.545   1.628  0.0662 -0.3082  0.0146
 4902TIP3    H136341   3.629   4.613   1.693  3.1490  2.0251 -3.0143
 4902TIP3    H236342   3.689   4.494   1.621 -0.8151 -1.6443 -0.7029
 4903TIP3   OH236343   2.676   3.626   2.244  0.4465 -0.4029  0.4569
 4903TIP3    H136344   2.711   3.574   2.317  0.3084 -1.7935 -0.4290
 4903TIP3    H236345   2.679   3.716   2.276  4.0470 -0.4732  0.7279
 4904TIP3   OH236346   3.478   1.400   1.893  0.1625 -0.1320  0.3373
 4904TIP3    H136347   3.549   1.363   1.946  0.1363 -0.1977  0.3258
 4904TIP3    H236348   3.452   1.330   1.834  0.4638  0.0702 -0.0399
 4905TIP3   OH236349   0.794   0.696   3.189  0.6012  0.3233  0.0473
 4905TIP3    H136350   0.771   0.771   3.135 -0.3315 -1.2268 -1.8250
 4905TIP3    H236351   0.723   0.690   3.253 -0.2576  0.0590 -0.8982
 4906TIP3   OH236352   2.535   0.767   3.837 -0.3543 -0.0386 -0.1334
 4906TIP3    H136353   2.535   0.858   3.864 -0.3328 -0.3708  1.0089
 4906TIP3    H236354   2.444   0.739   3.846 -0.6065  0.1881 -1.6524
 4907TIP3   OH236355   0.441   6.267   3.700  0.4580  0.0472 -0.2091
 4907TIP3    H136356   0.522   6.250   3.748  0.2112 -0.3929  0.0575
 4907TIP3    H236357   0.432   6.362   3.700  0.3663  0.0453  0.7699
 4908TIP3   OH236358   4.184   0.634   1.074  0.0375 -0.1300  0.1282
 4908TIP3    H136359   4.145   0.552   1.106 -0.2971  0.7790  2.1871
 4908TIP3    H236360   4.109   0.685   1.042  0.2988 -0.7629 -1.6346
 4909TIP3   OH236361   3.488   2.752   1.771  0.1260  0.0467  0.4870
 4909TIP3    H136362   3.416   2.811   1.795 -0.9792 -1.2321  0.4920
 4909TIP3    H236363   3.539   2.801   1.707 -0.7506  1.0006  0.4803
 4910TIP3   OH236364   6.114   1.104   1.654  0.1733 -0.0064 -0.0428
 4910TIP3    H136365   6.172   1.122   1.581 -0.4709  2.0708 -0.1152
 4910TIP3    H236366   6.034   1.071   1.614 -0.5461  2.0748 -0.4176
 4911TIP3   OH236367   4.356   4.607   1.296 -0.1004 -0.5212 -0.3294
 4911TIP3    H136368   4.383   4.584   1.385  1.1259 -1.1277 -0.8276
 4911TIP3    H236369   4.265   4.577   1.290 -0.2420 -0.3697  0.7417
 4912TIP3   OH236370   1.401   1.934   0.962 -0.0771 -0.1395  0.4707
 4912TIP3    H136371   1.354   1.941   0.879 -1.7994 -1.1013  1.3108
 4912TIP3    H236372   1.424   1.841   0.970  0.0286 -0.0685  1.0828
 4913TIP3   OH236373   6.296   1.943   1.552 -0.0769 -0.0016  0.0511
 4913TIP3    H136374   6.370   1.915   1.606  1.7886  1.2326 -1.7216
 4913TIP3    H236375   6.306   1.894   1.470 -1.4518 -0.0636 -0.1059
 4914TIP3   OH236376   2.980   5.924   1.692 -0.2747 -0.1405 -0.2307
 4914TIP3    H136377   3.059   5.947   1.642 -0.1122 -0.8391 -0.3099
 4914TIP3    H236378   2.973   5.993   1.758  0.4006 -0.0604 -0.2290
 4915TIP3   OH236379   2.133   2.790   8.464 -0.4410  0.3010 -1.0367
 4915TIP3    H136380   2.090   2.714   8.425 -0.6367  0.5648 -1.3362
 4915TIP3    H236381   2.070   2.861   8.457 -0.5082  0.3440 -0.1682
 4916TIP3   OH236382   0.029   1.084   8.218 -0.2182 -0.2317 -0.3221
 4916TIP3    H136383  -0.037   1.055   8.155  0.5285 -1.1172 -0.7124
 4916TIP3    H236384  -0.010   1.068   8.304 -0.5554 -0.6423 -0.5517
 4917TIP3   OH236385   6.271   0.576   0.027  0.3093 -0.2378 -0.2674
 4917TIP3    H136386   6.238   0.517  -0.040  0.5699  0.0802 -0.6861
 4917TIP3    H236387   6.235   0.662   0.003  2.0620  0.2945 -1.2381
 4918TIP3   OH236388   0.236   1.864   8.418 -0.1147 -0.3211 -0.3075
 4918TIP3    H136389   0.254   1.957   8.408  1.1448 -0.2896  1.7163
 4918TIP3    H236390   0.192   1.857   8.503  0.8898 -1.6793  0.1295
 4919TIP3   OH236391   2.565   0.918   2.630 -0.2032 -0.3536  0.4953
 4919TIP3    H136392   2.538   0.941   2.718  0.2193 -2.1695  1.1553
 4919TIP3    H236393   2.485   0.921   2.578 -0.4682  0.6437  0.9466
 4920TIP3   OH236394   1.934   4.803   2.151 -0.0109 -0.0987 -0.5275
 4920TIP3    H136395   1.985   4.791   2.071 -0.7101 -0.8688 -0.8732
 4920TIP3    H236396   1.998   4.829   2.217  0.6952 -0.2430 -1.1422
 4921TIP3   OH236397   3.211   0.237   0.597 -0.6342 -0.3774  0.7952
 4921TIP3    H136398   3.186   0.325   0.568 -1.0293 -0.3897  1.0937
 4921TIP3    H236399   3.305   0.233   0.581 -0.6389  0.0446  0.6337
 4922TIP3   OH236400   2.952   5.923   2.734 -0.5386  0.0515 -0.9980
 4922TIP3    H136401   2.975   6.016   2.731  1.8669 -0.3886  0.5972
 4922TIP3    H236402   3.036   5.878   2.751 -1.6260 -2.4127 -1.6751
 4923TIP3   OH236403   6.780   3.441   3.726  0.1894 -0.1084 -0.0357
 4923TIP3    H136404   6.859   3.423   3.675  1.3913 -1.2460  2.0812
 4923TIP3    H236405   6.730   3.360   3.723 -0.4547  0.3063 -0.6090
 4924TIP3   OH236406   3.506   3.791   3.050 -0.2058 -0.3969  0.4891
 4924TIP3    H136407   3.585   3.843   3.041 -0.8349  0.9555  2.3332
 4924TIP3    H236408   3.487   3.761   2.960  0.7836  1.6518 -0.4678
 4925TIP3   OH236409   3.631   4.799   0.201  0.3367 -0.1462  0.1218
 4925TIP3    H136410   3.589   4.746   0.269  1.6621  0.2389  1.2941
 4925TIP3    H236411   3.661   4.736   0.136  0.1422 -0.6584  0.5237
 4926TIP3   OH236412   5.488   1.315   0.482 -0.7829  0.3411  0.1664
 4926TIP3    H136413   5.479   1.366   0.562 -0.5128  2.8657 -1.3016
 4926TIP3    H236414   5.474   1.379   0.411  0.4621 -1.4652 -1.8279
 4927TIP3   OH236415   5.927   4.311   1.139  0.0847  0.2944 -0.2548
 4927TIP3    H136416   5.994   4.276   1.081 -0.4774  0.2271 -0.8675
 4927TIP3    H236417   5.847   4.314   1.086 -0.6202 -0.4854  0.7289
 4928TIP3   OH236418   0.564   5.337   1.322 -0.0306 -0.4046 -0.4228
 4928TIP3    H136419   0.475   5.312   1.346  0.1137 -0.9407 -0.4295
 4928TIP3    H236420   0.609   5.253   1.307  1.2937 -0.3151  2.4422
 4929TIP3   OH236421   3.579   3.927   2.015 -0.1478 -0.2096 -0.4096
 4929TIP3    H136422   3.591   3.955   1.924 -0.0737  0.0037 -0.3364
 4929TIP3    H236423   3.659   3.954   2.059 -1.4522  2.7584  0.4565
 4930TIP3   OH236424   4.273   6.660   2.203 -0.0531 -0.2824 -0.3668
 4930TIP3    H136425   4.223   6.663   2.284  0.2190  1.1060 -0.2272
 4930TIP3    H236426   4.351   6.609   2.224  1.2842  2.1398  1.0397
 4931TIP3   OH236427   6.579   0.537   3.821  0.1669 -0.1947 -0.0633
 4931TIP3    H136428   6.500   0.520   3.770 -0.7935  0.0876  1.2931
 4931TIP3    H236429   6.561   0.500   3.907  0.2598  2.5971  1.2464
 4932TIP3   OH236430   1.299   5.828   8.515 -0.1799 -0.4302 -0.2800
 4932TIP3    H136431   1.363   5.758   8.501 -0.3684 -0.8167  0.6846
 4932TIP3    H236432   1.283   5.864   8.428  0.0831 -1.4405 -0.7620
 4933TIP3   OH236433   1.457   5.018   3.541 -0.2351  0.1696  0.3332
 4933TIP3    H136434   1.386   5.020   3.477  0.6910  0.7717 -0.6986
 4933TIP3    H236435   1.413   5.033   3.625 -1.4909 -0.8549 -0.1128
 4934TIP3   OH236436   4.832   2.165   8.202 -0.3511  0.8180  0.0965
 4934TIP3    H136437   4.814   2.101   8.133 -0.0213  0.6055  0.2068
 4934TIP3    H236438   4.804   2.248   8.165  0.4937  0.8185 -0.5792
 4935TIP3   OH236439   4.581   2.842   0.258  0.8755 -0.2420 -0.3542
 4935TIP3    H136440   4.527   2.916   0.285 -0.0522 -0.9331 -0.2352
 4935TIP3    H236441   4.639   2.877   0.191  1.4343  0.9147  0.6852
 4936TIP3   OH236442   5.699   4.211   2.995  0.2258  0.2304 -0.0716
 4936TIP3    H136443   5.622   4.258   3.026  0.4155  0.0320  0.7277
 4936TIP3    H236444   5.704   4.231   2.902 -0.2557  0.9917  0.0620
 4937TIP3   OH236445   5.560   6.166   2.149 -0.4017  0.3818 -0.0153
 4937TIP3    H136446   5.528   6.234   2.208  0.1267 -0.2527  1.0349
 4937TIP3    H236447   5.655   6.176   2.149 -0.3978  0.4301 -0.8447
 4938TIP3   OH236448   5.396   1.615   1.173  0.1887  0.5772 -0.1302
 4938TIP3    H136449   5.454   1.663   1.114  0.4912 -0.5252 -0.7556
 4938TIP3    H236450   5.383   1.674   1.248  2.1619  0.8250  0.0546
 4939TIP3   OH236451   3.343   5.490   3.290  0.5513  0.2441  0.1081
 4939TIP3    H136452   3.399   5.415   3.272  2.4169  1.8797 -1.5033
 4939TIP3    H236453   3.395   5.545   3.348 -0.5802  0.5442  0.8718
 4940TIP3   OH236454   5.892   2.467   1.548 -0.5341 -0.0819 -0.0889
 4940TIP3    H136455   5.910   2.461   1.642 -0.1151  0.5585 -0.1222
 4940TIP3    H236456   5.811   2.517   1.542 -0.4435  0.0670 -0.0768
 4941TIP3   OH236457   3.990   3.721   1.555  0.0970  0.1245  0.0251
 4941TIP3    H136458   3.921   3.749   1.615  1.3269  1.1801  0.9971
 4941TIP3    H236459   4.041   3.800   1.538  2.7394 -1.0965  1.5618
 4942TIP3   OH236460   2.499   1.880   8.303  0.6313  0.0948 -0.4524
 4942TIP3    H136461   2.525   1.894   8.211  0.9549 -0.9203 -0.5230
 4942TIP3    H236462   2.539   1.953   8.350  0.0953  0.8764 -1.1765
 4943TIP3   OH236463   6.921   5.211   1.312  0.4141  0.0090  0.0436
 4943TIP3    H136464   6.855   5.202   1.244 -0.9458 -1.1616  1.4379
 4943TIP3    H236465   6.921   5.127   1.357  1.2131  0.7661  1.5376
 4944TIP3   OH236466   4.492   2.855   0.612 -0.1384  0.0556  0.2432
 4944TIP3    H136467   4.449   2.789   0.559 -0.4993  1.4702 -1.3051
 4944TIP3    H236468   4.489   2.820   0.701 -0.2751 -1.9984 -0.5058
 4945TIP3   OH236469   0.969   5.191   0.627 -0.5040  0.0212  0.0901
 4945TIP3    H136470   0.896   5.166   0.570  0.6416 -1.4210 -0.8338
 4945TIP3    H236471   0.927   5.223   0.706 -2.1471  1.0857 -1.1352
 4946TIP3   OH236472   3.279   2.083   0.276  0.6068 -0.4508  0.0651
 4946TIP3    H136473   3.281   1.995   0.315  1.0158 -1.1052 -1.3747
 4946TIP3    H236474   3.206   2.080   0.214  0.5901  0.2489  0.0413
 4947TIP3   OH236475   0.131   0.256   0.125  0.4835 -0.0890 -0.5421
 4947TIP3    H136476   0.174   0.177   0.157  2.4799  0.7856 -0.9090
 4947TIP3    H236477   0.082   0.289   0.200  3.4842  0.8700  1.1537
 4948TIP3   OH236478   2.152   5.607   3.382  0.3118 -0.1105 -0.4046
 4948TIP3    H136479   2.214   5.656   3.327 -0.4355  0.3089 -0.8921
 4948TIP3    H236480   2.073   5.661   3.383  0.4783  0.1521  1.5331
 4949TIP3   OH236481   3.415   0.073   0.031 -0.1672  0.1263 -0.3926
 4949TIP3    H136482   3.338   0.057  -0.025  0.8270 -1.4228 -1.4105
 4949TIP3    H236483   3.475   0.123  -0.024  0.7260 -1.2051 -0.6683
 4950TIP3   OH236484   1.945   5.605   4.052 -0.0947 -0.8012  0.0400
 4950TIP3    H136485   1.913   5.618   4.141 -0.4598 -3.3778  0.3811
 4950TIP3    H236486   2.016   5.540   4.061  0.4142 -0.5092 -1.4584
 4951TIP3   OH236487   4.525   4.500   2.051  0.0670  0.2473  0.3331
 4951TIP3    H136488   4.585   4.532   2.118 -0.0908  0.3838  0.4100
 4951TIP3    H236489   4.557   4.412   2.029  0.7974  0.6479 -0.2310
 4952TIP3   OH236490   1.428   4.378   3.405 -0.1454  0.1490 -0.0172
 4952TIP3    H136491   1.446   4.450   3.345  0.3725 -0.4367 -0.5709
 4952TIP3    H236492   1.416   4.421   3.490 -0.4550  0.9392 -0.4469
 4953TIP3   OH236493   2.219   6.554   1.653  0.2714 -0.3042 -0.1621
 4953TIP3    H136494   2.242   6.462   1.639  1.3579 -0.1788  0.6120
 4953TIP3    H236495   2.293   6.602   1.617  0.9384  0.1585  1.6978
 4954TIP3   OH236496   3.863   3.492   3.202  0.0275  0.2624 -0.6796
 4954TIP3    H136497   3.864   3.474   3.108  2.2440 -1.9395 -0.3586
 4954TIP3    H236498   3.940   3.446   3.235 -0.1482  1.7738  2.1041
 4955TIP3   OH236499   5.270   6.403   1.978  0.3825 -0.5795 -0.4715
 4955TIP3    H136500   5.312   6.389   1.893  0.3839 -1.5315 -0.3227
 4955TIP3    H236501   5.185   6.359   1.971 -0.6856  1.4483 -0.8181
 4956TIP3   OH236502   5.592   0.434   1.586  0.7547 -0.1022  0.1655
 4956TIP3    H136503   5.531   0.446   1.513 -0.2167  3.4519  1.3709
 4956TIP3    H236504   5.535   0.419   1.662  1.2461  2.8591  1.2399
 4957TIP3   OH236505   4.554   2.048   8.272 -0.5907  0.1118 -0.0908
 4957TIP3    H136506   4.570   1.975   8.332  1.1912  0.4782 -0.0575
 4957TIP3    H236507   4.586   2.125   8.319  0.8254  0.4084 -1.4731
 4958TIP3   OH236508   3.090   1.194   1.144 -0.1393  0.3371 -0.4859
 4958TIP3    H136509   3.158   1.131   1.119  1.3568  1.3388  0.8273
 4958TIP3    H236510   3.136   1.257   1.200 -2.8892 -1.1120  3.8698
 4959TIP3   OH236511   2.778   6.447   2.873 -0.4498  0.3753  0.7232
 4959TIP3    H136512   2.865   6.434   2.911  0.0417  1.4713  0.0221
 4959TIP3    H236513   2.778   6.393   2.794 -0.0084  1.1723  0.1630
 4960TIP3   OH236514   4.536   2.027   2.946 -0.4250  0.2267  0.3147
 4960TIP3    H136515   4.469   2.004   3.010 -0.5369 -0.1596  0.0641
 4960TIP3    H236516   4.500   2.103   2.900  0.2396  1.3759  1.6056
 4961TIP3   OH236517   6.909   0.991   3.027 -0.1429 -0.1385 -0.1971
 4961TIP3    H136518   6.995   0.992   3.070 -0.6676  1.4799  0.9045
 4961TIP3    H236519   6.854   0.940   3.086 -0.7857  1.8207  0.9708
 4962TIP3   OH236520   5.253   5.096   2.752 -0.0751 -0.1513  0.0593
 4962TIP3    H136521   5.176   5.134   2.710 -0.1483 -0.0772  0.2589
 4962TIP3    H236522   5.223   5.071   2.839 -0.1181 -0.9804 -0.1884
 4963TIP3   OH236523   1.173   0.458   2.862 -0.2765 -0.1312 -0.0505
 4963TIP3    H136524   1.228   0.534   2.845 -1.3977  0.4921 -1.0305
 4963TIP3    H236525   1.209   0.420   2.942  0.7566  0.9997  0.0496
 4964TIP3   OH236526   5.170   0.443   0.356 -0.0809  0.2858 -0.3910
 4964TIP3    H136527   5.190   0.393   0.436 -3.8039  0.6823  0.9863
 4964TIP3    H236528   5.132   0.524   0.387 -1.8987  0.3575 -2.5426
 4965TIP3   OH236529   6.136   1.653   1.441 -0.1381  0.3731 -0.0954
 4965TIP3    H136530   6.087   1.591   1.496 -0.9651  1.1912  0.1150
 4965TIP3    H236531   6.222   1.613   1.431 -0.5265 -0.6181  0.3702
 4966TIP3   OH236532   4.270   4.224   2.110  0.3451  0.4195  0.2418
 4966TIP3    H136533   4.308   4.272   2.183  1.5955  0.1577 -0.2155
 4966TIP3    H236534   4.306   4.135   2.117 -1.3468 -0.2769  0.6421
 4967TIP3   OH236535   2.010   5.090   2.382 -0.4602  0.6271 -0.0598
 4967TIP3    H136536   2.071   5.129   2.320  0.3669 -0.7977 -0.1968
 4967TIP3    H236537   1.924   5.127   2.359 -0.2381 -0.1204 -2.2974
 4968TIP3   OH236538   3.957   0.612   0.354 -0.1543 -0.4557 -0.0488
 4968TIP3    H136539   4.019   0.684   0.363  0.1296 -0.7099  0.0675
 4968TIP3    H236540   3.957   0.591   0.261  0.9263 -1.3033  0.1101
 4969TIP3   OH236541   4.741   5.189   2.354  0.0069 -0.1382  0.2041
 4969TIP3    H136542   4.649   5.193   2.327  0.2655 -0.5555 -0.7937
 4969TIP3    H236543   4.773   5.107   2.316  0.9680  0.3382 -0.0328
 4970TIP3   OH236544   1.249   6.758   2.555 -0.3178  0.5800 -0.5921
 4970TIP3    H136545   1.154   6.751   2.561 -0.1789 -0.5483  0.8711
 4970TIP3    H236546   1.278   6.676   2.516  0.0673  0.9640 -1.1400
 4971TIP3   OH236547   5.133   5.573   1.997  0.5305 -0.3966  0.1806
 4971TIP3    H136548   5.220   5.611   1.991  0.1342  0.3070 -1.7929
 4971TIP3    H236549   5.133   5.500   1.936 -0.8974  1.0636 -1.7193
 4972TIP3   OH236550   6.132   0.476   0.255  0.7762  0.2449  0.1037
 4972TIP3    H136551   6.064   0.423   0.212  0.1198  1.6875 -0.6997
 4972TIP3    H236552   6.208   0.467   0.199  0.9534 -0.5437  0.4517
 4973TIP3   OH236553   1.716   4.171   1.780 -0.0138 -0.2574  0.1769
 4973TIP3    H136554   1.707   4.087   1.826  1.9729  0.2806  1.7252
 4973TIP3    H236555   1.635   4.218   1.801 -0.3640 -1.1104  0.8256
 4974TIP3   OH236556   5.389   5.031   0.086 -0.4799 -0.2191  0.0569
 4974TIP3    H136557   5.474   5.075   0.095 -1.1817  0.8256  3.0211
 4974TIP3    H236558   5.410   4.942   0.059  1.6261 -0.1189  1.1767
 4975TIP3   OH236559   5.380   2.195   3.340  0.2817 -0.2947  0.2633
 4975TIP3    H136560   5.469   2.164   3.355  0.5898  0.8805  0.9767
 4975TIP3    H236561   5.348   2.219   3.428 -0.0578  1.0726 -0.2146
 4976TIP3   OH236562   6.142   5.036   3.853  0.5235 -0.2267 -0.3819
 4976TIP3    H136563   6.191   4.997   3.925  1.0503  0.1849 -0.5160
 4976TIP3    H236564   6.133   4.965   3.789  0.8478 -0.3371 -0.3080
 4977TIP3   OH236565   5.598   5.271   0.626 -0.4163 -0.5909 -0.1462
 4977TIP3    H136566   5.570   5.263   0.717  1.0640 -1.3792  0.2819
 4977TIP3    H236567   5.646   5.355   0.623 -0.7138 -0.4249 -0.2718
 4978TIP3   OH236568   3.724   1.158   1.118  0.3634 -0.2664 -0.1851
 4978TIP3    H136569   3.775   1.206   1.053 -0.9214 -0.5500 -1.4643
 4978TIP3    H236570   3.633   1.183   1.100 -0.2127 -2.0609  0.0383
 4979TIP3   OH236571   0.320   1.279   2.691 -0.0610  0.1352  0.6937
 4979TIP3    H136572   0.347   1.198   2.735 -2.2850 -0.0878  1.8011
 4979TIP3    H236573   0.290   1.250   2.605 -0.4213 -0.1546  0.9137
 4980TIP3   OH236574   5.402   6.895   0.562  0.5139  0.2061 -0.0895
 4980TIP3    H136575   5.431   6.849   0.483  0.5496  1.7836 -1.0227
 4980TIP3    H236576   5.478   6.946   0.590 -0.5442  2.5999 -1.2642
 4981TIP3   OH236577   3.522   5.084   3.467 -0.0709  0.5340  0.2507
 4981TIP3    H136578   3.474   5.096   3.386 -0.5732 -2.2591  0.0366
 4981TIP3    H236579   3.459   5.104   3.536 -0.3249  0.7231 -0.0346
 4982TIP3   OH236580   2.131   2.051   8.316  0.5824 -0.1923 -0.2588
 4982TIP3    H136581   2.144   2.134   8.271 -0.8688 -0.4151 -1.1594
 4982TIP3    H236582   2.043   2.056   8.352  0.3886 -1.4113 -0.5017
 4983TIP3   OH236583   2.075   6.893   2.526 -0.8724 -0.0318  0.0138
 4983TIP3    H136584   2.122   6.968   2.561 -1.1372  0.2320 -0.1822
 4983TIP3    H236585   2.128   6.863   2.452 -0.1701 -0.7652  0.8000
 4984TIP3   OH236586   5.691   0.133   3.033  0.3763 -0.7454  0.5898
 4984TIP3    H136587   5.655   0.220   3.045  1.1386 -0.3268 -0.0886
 4984TIP3    H236588   5.617   0.074   3.050  0.1557 -0.0415  2.2858
 4985TIP3   OH236589   2.267   3.592   4.503 -0.2695  0.2500  0.3043
 4985TIP3    H136590   2.328   3.646   4.452  1.7649 -0.1351  2.1654
 4985TIP3    H236591   2.308   3.505   4.503 -1.5427 -0.3584  0.4970
 4986TIP3   OH236592   4.060   0.985   3.357 -0.0117  0.2472 -0.1640
 4986TIP3    H136593   4.128   0.918   3.359  1.0221  1.2764 -0.0862
 4986TIP3    H236594   4.078   1.034   3.277 -1.0445  0.1695 -0.4638
 4987TIP3   OH236595   3.761   0.873   1.182 -0.6888 -0.2393 -0.1987
 4987TIP3    H136596   3.692   0.814   1.154 -1.2842 -0.0798  0.8783
 4987TIP3    H236597   3.730   0.960   1.159 -1.0439 -0.1340  0.6314
 4988TIP3   OH236598   2.732   0.434   2.193  0.1905 -0.6265  0.4288
 4988TIP3    H136599   2.792   0.481   2.251  3.3348 -1.0355 -2.1782
 4988TIP3    H236600   2.738   0.343   2.220  0.9270 -0.6922  0.0538
 4989TIP3   OH236601   6.528   2.953   2.789 -0.4590  0.1497  0.1536
 4989TIP3    H136602   6.450   2.901   2.771 -0.4521 -0.6087  2.1404
 4989TIP3    H236603   6.601   2.896   2.765 -0.4911  0.2999 -0.3043
 4990TIP3   OH236604   3.999   3.503   1.787  0.1187  0.4242 -0.1633
 4990TIP3    H136605   3.915   3.530   1.751  0.1687  1.1340  0.2188
 4990TIP3    H236606   3.989   3.512   1.882  0.4468 -0.0165 -0.0849
 4991TIP3   OH236607   5.892   6.638   1.870 -0.1815  0.4563  0.1870
 4991TIP3    H136608   5.930   6.690   1.940  1.3286 -0.3603  0.0157
 4991TIP3    H236609   5.862   6.703   1.806  1.2632  1.1621  0.1721
 4992TIP3   OH236610   6.704   4.305   0.821 -0.0984  0.6777  0.3966
 4992TIP3    H136611   6.610   4.288   0.821 -0.0078  0.1364  0.7344
 4992TIP3    H236612   6.733   4.274   0.907  0.2403  1.6872  0.6585
 4993TIP3   OH236613   1.800   3.857   3.313  0.0265  0.0180 -0.0394
 4993TIP3    H136614   1.710   3.864   3.344  0.1010  1.6957 -0.0787
 4993TIP3    H236615   1.795   3.802   3.235 -0.8306 -0.5512  0.4086
 4994TIP3   OH236616   5.452   5.617   2.990  0.3578 -0.3775 -0.5508
 4994TIP3    H136617   5.456   5.579   3.078 -0.2176  1.0116  0.1041
 4994TIP3    H236618   5.427   5.544   2.933 -0.0593 -1.1147  0.5559
 4995TIP3   OH236619   2.426   5.102   3.865 -0.4248 -0.0602  0.3397
 4995TIP3    H136620   2.355   5.044   3.893 -1.6607  1.0149 -0.4736
 4995TIP3    H236621   2.459   5.063   3.785 -0.9687  0.1156  0.0254
 4996TIP3   OH236622   1.937   6.430   4.071 -0.1688  0.1052 -0.7002
 4996TIP3    H136623   1.996   6.416   4.144  2.1407 -1.7523 -2.7467
 4996TIP3    H236624   1.879   6.354   4.072 -1.2103  0.8739  0.0562
 4997TIP3   OH236625   0.797   5.027   0.201  0.1222  0.4211  0.2887
 4997TIP3    H136626   0.701   5.032   0.207 -0.0723 -1.4644 -0.4511
 4997TIP3    H236627   0.814   5.009   0.109  1.2996  1.9450  0.1790
 4998TIP3   OH236628   6.312   0.683   1.272 -0.7520 -0.5739  0.1637
 4998TIP3    H136629   6.286   0.653   1.359 -1.0471 -0.0110  0.2781
 4998TIP3    H236630   6.243   0.650   1.214 -0.8360 -0.5035  0.2224
 4999TIP3   OH236631   6.310   0.369   1.469  0.4598  0.3714 -0.3896
 4999TIP3    H136632   6.233   0.352   1.414  0.0162  0.3809  0.2244
 4999TIP3    H236633   6.276   0.374   1.558  1.2579 -0.2369 -0.0325
 5000TIP3   OH236634   0.287   6.093   8.228 -0.7836 -0.1266  0.3986
 5000TIP3    H136635   0.208   6.049   8.198 -0.2803 -0.5339 -0.3892
 5000TIP3    H236636   0.304   6.161   8.162  0.8857 -1.6728 -0.8787
 5001TIP3   OH236637   3.173   6.651   0.482 -0.2559 -0.2732  0.5740
 5001TIP3    H136638   3.240   6.705   0.524 -1.5845  0.8327  1.3782
 5001TIP3    H236639   3.091   6.699   0.497 -1.0892 -0.9795 -1.3883
 5002TIP3   OH236640   0.436   5.847   2.356  0.3759  1.0707  0.4147
 5002TIP3    H136641   0.515   5.824   2.405  0.8093  1.2106 -0.2044
 5002TIP3    H236642   0.438   5.791   2.279 -0.7564  0.2430  0.9692
 5003TIP3   OH236643   3.843   1.707   2.912 -0.0974  0.1373  0.2465
 5003TIP3    H136644   3.873   1.793   2.941  1.1017 -0.3891  0.6460
 5003TIP3    H236645   3.906   1.682   2.844 -0.5929 -0.3025 -0.0514
 5004TIP3   OH236646   1.163   0.750   3.394  0.1952  0.3870  0.7194
 5004TIP3    H136647   1.121   0.692   3.331  2.3241 -0.3015 -0.1551
 5004TIP3    H236648   1.146   0.838   3.362  0.5133  0.0734 -0.3640
 5005TIP3   OH236649   5.126   4.225   0.141  0.0925 -0.3409 -0.2091
 5005TIP3    H136650   5.074   4.273   0.077  1.2615 -0.5575 -1.3652
 5005TIP3    H236651   5.213   4.217   0.101  0.8265 -0.6111  1.3450
 5006TIP3   OH236652   6.129   2.997   1.060 -0.1894 -0.3681 -0.2998
 5006TIP3    H136653   6.120   3.088   1.087  1.0320 -0.0273 -0.9698
 5006TIP3    H236654   6.093   2.946   1.133 -2.3883  0.6709 -0.6017
 5007TIP3   OH236655   2.581   4.662   3.809  0.1961 -0.1582  0.2370
 5007TIP3    H136656   2.589   4.682   3.902  0.7907  0.9623 -0.0433
 5007TIP3    H236657   2.641   4.588   3.795 -0.2876 -0.6759  0.8295
 5008TIP3   OH236658   1.742   5.529   0.843  0.6115 -0.2453 -0.0256
 5008TIP3    H136659   1.774   5.493   0.761  1.1499  0.4308 -0.1248
 5008TIP3    H236660   1.668   5.474   0.867  0.3233 -0.3295 -1.0672
 5009TIP3   OH236661   4.811   1.168   1.789  0.1430 -0.0316  0.4426
 5009TIP3    H136662   4.815   1.085   1.742  1.9164  1.1805 -1.7206
 5009TIP3    H236663   4.823   1.144   1.881  0.4983 -2.1629 -0.1020
 5010TIP3   OH236664   0.015   4.842   3.292 -0.9306  0.3203  0.0629
 5010TIP3    H136665   0.056   4.918   3.333 -1.2498  0.8631 -0.6215
 5010TIP3    H236666   0.084   4.776   3.291 -0.5723  0.6821  0.4121
 5011TIP3   OH236667   3.196   2.124   8.218 -0.1284  0.4162 -0.4344
 5011TIP3    H136668   3.163   2.105   8.130  0.6512 -0.4218 -0.5642
 5011TIP3    H236669   3.291   2.115   8.210 -0.1497 -1.9786  0.9818
 5012TIP3   OH236670   1.400   4.820   3.017 -0.4868  0.0424 -0.8456
 5012TIP3    H136671   1.305   4.833   3.022 -0.2658  2.1718 -1.2856
 5012TIP3    H236672   1.410   4.735   2.974 -2.1776 -0.6797  0.0711
 5013TIP3   OH236673   5.693   3.996   2.482 -0.0010  0.2213 -0.0972
 5013TIP3    H136674   5.677   3.926   2.418  1.6423  0.7945 -1.2140
 5013TIP3    H236675   5.786   4.016   2.471 -0.3580  2.3413  0.4583
 5014TIP3   OH236676   0.909   2.478   3.035 -0.2183  0.0868 -0.5806
 5014TIP3    H136677   0.936   2.471   3.126 -2.2768  0.3984  0.1001
 5014TIP3    H236678   0.931   2.568   3.010 -0.0871  0.1454 -0.2525
 5015TIP3   OH236679   6.869   4.505   1.743  0.0110 -0.0184 -0.4831
 5015TIP3    H136680   6.838   4.431   1.691 -1.7800  0.3001  0.0660
 5015TIP3    H236681   6.944   4.471   1.792 -0.3565 -1.2623 -0.7638
 5016TIP3   OH236682   3.435   5.127   3.214 -0.2483 -0.2227 -0.4606
 5016TIP3    H136683   3.500   5.190   3.182  2.2283 -2.3773 -0.0145
 5016TIP3    H236684   3.446   5.050   3.157  0.0028 -1.8839  1.6919
 5017TIP3   OH236685   6.461   3.259   2.350  0.0387 -0.9952  0.4903
 5017TIP3    H136686   6.424   3.177   2.318 -0.7746 -0.7880  0.8784
 5017TIP3    H236687   6.389   3.321   2.346  1.0999  0.2239 -1.5894
 5018TIP3   OH236688   2.703   5.106   8.346 -0.5351  0.1691 -0.1587
 5018TIP3    H136689   2.689   5.016   8.316 -2.5351  0.2008  0.5497
 5018TIP3    H236690   2.697   5.159   8.266 -0.5964 -0.2184 -0.4143
 5019TIP3   OH236691   4.625   6.032   0.877  0.3451  0.3484 -0.0771
 5019TIP3    H136692   4.563   6.018   0.806 -0.4874  0.0261  0.6858
 5019TIP3    H236693   4.649   5.944   0.906  1.7808  0.4568 -0.8651
 5020TIP3   OH236694   6.602   2.310   1.359 -0.0447 -0.6435 -0.0846
 5020TIP3    H136695   6.671   2.371   1.333 -1.4196  0.4107 -1.4234
 5020TIP3    H236696   6.537   2.365   1.402 -0.2919 -1.5453  0.7125
 5021TIP3   OH236697   3.873   0.434   0.791 -0.4768  0.3028  0.7736
 5021TIP3    H136698   3.965   0.462   0.797 -0.4258  0.3455 -0.0961
 5021TIP3    H236699   3.859   0.383   0.871  0.6852 -0.7793  0.3304
 5022TIP3   OH236700   1.629   6.084   1.010  0.3781  0.4293 -0.4546
 5022TIP3    H136701   1.668   6.073   0.923  0.0682  0.0379 -0.5442
 5022TIP3    H236702   1.704   6.098   1.068  0.8224 -1.8833 -0.3751
 5023TIP3   OH236703   2.252   5.649   2.527  0.2220 -0.4575  0.8877
 5023TIP3    H136704   2.212   5.591   2.462  1.8758 -1.1436  0.4179
 5023TIP3    H236705   2.245   5.736   2.488  0.8071 -0.8107 -0.0595
 5024TIP3   OH236706   3.812   4.277   2.633 -0.3568 -0.1934 -0.1648
 5024TIP3    H136707   3.878   4.313   2.573  0.0924 -1.4081 -0.4141
 5024TIP3    H236708   3.855   4.280   2.719 -0.3541 -0.0705 -0.1692
 5025TIP3   OH236709   2.460   1.721   1.882  0.0725 -0.3126  0.4920
 5025TIP3    H136710   2.498   1.756   1.801 -1.5615  1.3377  0.3975
 5025TIP3    H236711   2.452   1.796   1.940  0.3501 -1.3106  1.8649
 5026TIP3   OH236712   0.733   2.638   4.136  0.1506 -0.3940 -0.5798
 5026TIP3    H136713   0.819   2.680   4.137  0.4886 -1.0555  0.9615
 5026TIP3    H236714   0.734   2.580   4.212 -0.4876 -2.7994 -2.2709
 5027TIP3   OH236715   6.650   4.494   3.916  0.4466  0.5925 -0.0924
 5027TIP3    H136716   6.698   4.415   3.940 -2.2573 -0.3729  2.8343
 5027TIP3    H236717   6.628   4.481   3.823 -2.3698 -3.7339  0.8604
 5028TIP3   OH236718   2.325   1.198   1.025  0.4422 -0.6371 -0.1427
 5028TIP3    H136719   2.357   1.265   1.085  0.2809  0.2089 -0.9969
 5028TIP3    H236720   2.403   1.145   1.005  1.0821  0.6908 -1.2708
 5029TIP3   OH236721   2.261   1.620   3.480 -0.4534 -0.5217  0.0680
 5029TIP3    H136722   2.231   1.531   3.500  2.1754 -1.3626  0.5904
 5029TIP3    H236723   2.187   1.675   3.505 -0.8100 -2.2493  3.5016
 5030TIP3   OH236724   1.041   6.194   3.852  0.5942  0.1508  0.4405
 5030TIP3    H136725   1.048   6.269   3.910 -1.9742  1.9190 -1.2912
 5030TIP3    H236726   1.113   6.203   3.791  0.1616  1.4026  0.0956
 5031TIP3   OH236727   2.770   6.050   2.356  0.5652 -0.3737 -0.0730
 5031TIP3    H136728   2.864   6.032   2.357  0.5314 -0.6195 -0.6226
 5031TIP3    H236729   2.763   6.145   2.346  0.7672 -0.4786 -1.3625
 5032TIP3   OH236730   5.776   0.615   1.696 -0.1297  0.2744 -0.5257
 5032TIP3    H136731   5.722   0.666   1.756  0.1467 -0.5125  0.4137
 5032TIP3    H236732   5.714   0.563   1.646 -0.2702 -0.4629  0.3961
 5033TIP3   OH236733   4.760   1.371   0.348  0.1654 -0.2894 -0.5783
 5033TIP3    H136734   4.723   1.435   0.287  0.7584  1.5070  0.8429
 5033TIP3    H236735   4.721   1.393   0.433  1.9602 -0.4575  0.3412
 5034TIP3   OH236736   3.700   6.509   1.324  0.2018 -0.1039  0.1179
 5034TIP3    H136737   3.719   6.596   1.287  1.2382 -0.3190  0.1122
 5034TIP3    H236738   3.678   6.455   1.249  0.6584 -0.1157 -0.0142
 5035TIP3   OH236739   5.146   6.588   8.455 -0.3149 -0.5194  0.4546
 5035TIP3    H136740   5.102   6.551   8.532  0.2598 -1.3086  0.4195
 5035TIP3    H236741   5.229   6.622   8.489 -0.9986  1.1017  0.5472
 5036TIP3   OH236742   6.616   5.967   2.842 -0.1609  0.4617  0.0600
 5036TIP3    H136743   6.577   5.907   2.906  0.8559 -0.8463 -0.4940
 5036TIP3    H236744   6.549   6.033   2.827 -1.0220 -0.0939  1.2861
 5037TIP3   OH236745   6.244   3.725   3.322  0.0299 -0.7177 -0.6063
 5037TIP3    H136746   6.215   3.789   3.257  0.2159 -0.8350 -0.8060
 5037TIP3    H236747   6.191   3.647   3.305 -2.5987  0.4134  1.7493
 5038TIP3   OH236748   5.533   2.113   8.358 -0.4793 -0.4524  0.3625
 5038TIP3    H136749   5.597   2.051   8.324 -1.0885 -0.3731 -0.9688
 5038TIP3    H236750   5.584   2.191   8.380 -0.0835 -0.4565 -0.5146
 5039TIP3   OH236751   4.637   0.709   1.006  0.4873 -0.2525  0.5901
 5039TIP3    H136752   4.559   0.668   1.045 -0.7802  0.7755 -0.7426
 5039TIP3    H236753   4.622   0.803   1.018 -0.0125  0.1220 -2.3821
 5040TIP3   OH236754   5.899   6.391   2.372  0.1734  0.1657  0.8089
 5040TIP3    H136755   5.923   6.350   2.455  0.4845  0.3496  0.8099
 5040TIP3    H236756   5.856   6.473   2.398  2.2944  1.3455  0.7668
 5041TIP3   OH236757   0.377   5.175   1.052 -0.0028 -0.1609  0.3436
 5041TIP3    H136758   0.367   5.153   1.144  0.7606  0.4156  0.5682
 5041TIP3    H236759   0.455   5.128   1.023  0.7142  0.9447  0.4233
 5042TIP3   OH236760   4.764   0.625   0.714 -0.1541 -0.2474 -0.3579
 5042TIP3    H136761   4.812   0.604   0.795  1.4089 -0.0754 -1.1880
 5042TIP3    H236762   4.748   0.719   0.720  2.9168  0.4956 -1.6328
 5043TIP3   OH236763   6.352   6.303   4.068  0.4391  0.0357  0.0392
 5043TIP3    H136764   6.370   6.291   4.161 -0.7999  1.0754  0.4616
 5043TIP3    H236765   6.365   6.217   4.029 -1.5973 -1.1096  1.6522
 5044TIP3   OH236766   0.270   1.525   1.597  0.0566 -0.4042  0.4048
 5044TIP3    H136767   0.219   1.526   1.517  0.4672 -1.5813  0.0992
 5044TIP3    H236768   0.262   1.613   1.633 -0.3803  0.0463 -0.7693
 5045TIP3   OH236769   4.168   4.140   1.059  0.1103 -0.5222  0.0946
 5045TIP3    H136770   4.254   4.155   1.100  0.1543  0.2096 -0.2576
 5045TIP3    H236771   4.172   4.188   0.976  0.4060 -2.7995 -1.3021
 5046TIP3   OH236772   5.217   1.473   3.873  0.5744  0.0992 -0.0936
 5046TIP3    H136773   5.278   1.503   3.805  1.9850 -2.8972 -0.3217
 5046TIP3    H236774   5.193   1.384   3.847 -1.0019 -0.1673  1.9601
 5047TIP3   OH236775   2.279   6.366   2.536 -0.5919 -0.2787  0.9247
 5047TIP3    H136776   2.260   6.300   2.469 -2.8846  0.2363  0.9645
 5047TIP3    H236777   2.312   6.316   2.610 -1.4020 -1.3065  0.6322
 5048TIP3   OH236778   4.004   2.385   1.917 -0.8648 -0.2027  0.3203
 5048TIP3    H136779   4.059   2.308   1.906 -0.3292  0.0979  0.8056
 5048TIP3    H236780   3.935   2.375   1.852 -1.5227 -1.7098  1.2156
 5049TIP3   OH236781   0.986   1.230   0.694 -0.4745 -0.3359 -0.6647
 5049TIP3    H136782   0.892   1.245   0.684 -0.3506  0.8357 -0.3369
 5049TIP3    H236783   0.996   1.135   0.695 -1.7478 -0.4810  0.1427
 5050TIP3   OH236784   1.258   2.828   1.543 -0.0579  1.2124  0.0030
 5050TIP3    H136785   1.261   2.742   1.501  0.4465  1.4878 -0.5463
 5050TIP3    H236786   1.196   2.818   1.615  0.2195  0.3158  0.1197
 5051TIP3   OH236787   5.733   6.246   1.694  0.5647 -0.2336  0.2183
 5051TIP3    H136788   5.777   6.163   1.677  1.6417  0.0837  1.2837
 5051TIP3    H236789   5.655   6.223   1.743  1.7967 -0.5259  2.1309
 5052TIP3   OH236790   5.084   3.994   0.831 -0.1713  0.7263  0.1443
 5052TIP3    H136791   5.114   4.085   0.832  0.5075  0.5104  1.3279
 5052TIP3    H236792   4.996   3.997   0.870  0.3710  0.7363  1.4299
 5053TIP3   OH236793   0.677   1.067   1.708  0.0469  0.6294 -0.0212
 5053TIP3    H136794   0.758   1.103   1.744 -0.1885 -0.6389  1.9294
 5053TIP3    H236795   0.626   1.144   1.681  1.2074  1.5154  0.2575
 5054TIP3   OH236796   4.510   3.044   2.971  0.0112 -0.1274 -0.1305
 5054TIP3    H136797   4.504   3.098   3.050 -1.6783 -1.0306  0.3911
 5054TIP3    H236798   4.421   3.040   2.937  0.2164 -1.9570 -0.5795
 5055TIP3   OH236799   0.118   4.015   3.720 -0.0672  0.2165 -0.2058
 5055TIP3    H136800   0.112   3.998   3.814  0.2484 -0.9245 -0.3753
 5055TIP3    H236801   0.195   3.965   3.692  0.9124  1.9379 -0.7740
 5056TIP3   OH236802   5.754   6.323   0.617 -0.2012 -0.4252  0.0649
 5056TIP3    H136803   5.707   6.313   0.700  0.1936 -1.9149  0.1270
 5056TIP3    H236804   5.688   6.357   0.556 -1.4690 -2.6229  0.1048
 5057TIP3   OH236805   1.678   5.367   2.923  0.4998 -0.0809 -0.1453
 5057TIP3    H136806   1.610   5.326   2.976 -0.5861  0.8977 -0.7461
 5057TIP3    H236807   1.743   5.298   2.910  0.5922 -0.4995  2.0378
 5058TIP3   OH236808   5.588   2.736   0.454 -0.2824  0.1032  0.5775
 5058TIP3    H136809   5.507   2.787   0.451  0.0461  0.5793 -1.1601
 5058TIP3    H236810   5.559   2.645   0.462 -0.9899  0.2870  0.2006
 5059TIP3   OH236811   6.051   3.060   1.626 -0.1876 -0.0600  0.0889
 5059TIP3    H136812   6.012   2.986   1.579 -0.2713 -0.8782  1.3858
 5059TIP3    H236813   5.978   3.120   1.640 -0.0938  0.3604 -1.0887
 5060TIP3   OH236814   1.848   4.530   4.280  0.0501  0.1635  0.5594
 5060TIP3    H136815   1.815   4.440   4.283  1.1036 -0.2260  0.6243
 5060TIP3    H236816   1.783   4.581   4.329 -0.6402 -0.5251  0.3808
 5061TIP3   OH236817   2.289   1.383   0.610  0.1093  0.1114 -0.3705
 5061TIP3    H136818   2.203   1.426   0.602  0.3210  0.9533  1.2391
 5061TIP3    H236819   2.280   1.325   0.686  1.4355  1.5939  1.0143
 5062TIP3   OH236820   0.760   6.733   1.832 -0.3462  0.2788  0.2405
 5062TIP3    H136821   0.776   6.802   1.768  0.3721  1.0771  1.2386
 5062TIP3    H236822   0.667   6.742   1.855 -0.2513  0.9436  0.3810
 5063TIP3   OH236823   3.802   2.319   3.464 -0.7373 -0.0651 -0.2284
 5063TIP3    H136824   3.845   2.403   3.477 -2.1285  0.6075  0.1591
 5063TIP3    H236825   3.872   2.254   3.476  0.1951  0.9904  0.1807
 5064TIP3   OH236826   4.516   3.250   0.629 -0.0983 -0.4223  0.1990
 5064TIP3    H136827   4.521   3.338   0.590 -0.3524 -1.4278 -2.3149
 5064TIP3    H236828   4.563   3.257   0.712  1.7273  1.5839 -0.9126
 5065TIP3   OH236829   0.878   1.072   0.241  0.8394  0.1032 -0.5377
 5065TIP3    H136830   0.847   1.151   0.287  0.4652  0.7443 -1.8569
 5065TIP3    H236831   0.935   1.105   0.172 -1.7147 -0.4575 -3.1294
 5066TIP3   OH236832   1.661   2.167   2.945 -0.4452  0.0455 -0.0232
 5066TIP3    H136833   1.582   2.180   2.997  0.5096  1.4023  1.1564
 5066TIP3    H236834   1.710   2.249   2.953  1.0612 -0.7210 -0.7837
 5067TIP3   OH236835   1.577   2.044   1.137  0.3231 -0.2989  0.0149
 5067TIP3    H136836   1.540   2.019   1.221  1.7510 -1.9246  0.1947
 5067TIP3    H236837   1.515   2.009   1.072  0.5948 -1.4014  0.3394
 5068TIP3   OH236838   3.684   0.889   0.627  0.0794  0.3601  0.2892
 5068TIP3    H136839   3.775   0.898   0.597  0.7510 -0.7250  1.8897
 5068TIP3    H236840   3.674   0.795   0.643 -1.1568  0.5497  0.6710
 5069TIP3   OH236841   0.062   6.621   1.465  0.4585  0.1534 -1.0703
 5069TIP3    H136842  -0.023   6.581   1.483  1.4108 -0.8049  1.6720
 5069TIP3    H236843   0.049   6.714   1.484  0.0180  0.0231 -0.7164
 5070TIP3   OH236844   6.251   0.818   1.780  0.4221 -0.0175 -0.3679
 5070TIP3    H136845   6.346   0.817   1.792  0.3166  1.0752  0.7686
 5070TIP3    H236846   6.237   0.866   1.699  0.7980  1.0480  0.1842
 5071TIP3   OH236847   1.418   6.619   8.484 -0.3938 -0.2184 -0.2315
 5071TIP3    H136848   1.336   6.582   8.452 -0.8970  1.0601 -0.4673
 5071TIP3    H236849   1.465   6.647   8.405  0.1486 -0.6836 -0.0807
 5072TIP3   OH236850   4.673   5.454   1.490 -0.2523 -0.3372 -0.3863
 5072TIP3    H136851   4.613   5.527   1.476  0.1729 -0.2051 -1.5472
 5072TIP3    H236852   4.699   5.426   1.403  2.3423  0.4049  0.0757
 5073TIP3   OH236853   5.325   3.459   2.814 -0.5224  0.3434  0.2454
 5073TIP3    H136854   5.403   3.481   2.762  1.8515 -1.9849  2.5241
 5073TIP3    H236855   5.295   3.543   2.848  1.8323  1.2339  0.3402
 5074TIP3   OH236856   6.769   3.666   2.643  0.6513 -0.2277  0.3835
 5074TIP3    H136857   6.741   3.726   2.574  0.1510  0.2760  1.0085
 5074TIP3    H236858   6.716   3.588   2.630  0.1445  0.0840  0.5404
 5075TIP3   OH236859   3.397   6.066   2.470 -0.0106 -0.0898  0.0759
 5075TIP3    H136860   3.478   6.031   2.434 -0.8075 -2.7075  0.6033
 5075TIP3    H236861   3.416   6.083   2.562  0.1039 -0.1600  0.0648
 5076TIP3   OH236862   5.723   6.617   0.157  0.0201  0.0899  1.0448
 5076TIP3    H136863   5.682   6.593   0.240 -2.4243  0.1450 -0.0310
 5076TIP3    H236864   5.748   6.533   0.119 -0.7804 -0.1304  0.9676
 5077TIP3   OH236865   0.777   6.318   3.785  0.2190 -0.0279  0.3777
 5077TIP3    H136866   0.771   6.238   3.837 -1.6596  0.0160  0.3112
 5077TIP3    H236867   0.806   6.385   3.847 -3.0002  0.2671  1.7793
 5078TIP3   OH236868   2.728   4.854   0.165  0.1713  0.1183  0.2351
 5078TIP3    H136869   2.702   4.833   0.075 -0.9382  2.2598 -0.0078
 5078TIP3    H236870   2.650   4.833   0.218 -0.3325  1.8224  0.2180
 5079TIP3   OH236871   6.628   0.669   3.238  1.1680  0.0948 -0.2961
 5079TIP3    H136872   6.539   0.690   3.265  1.5757 -0.6224  1.8487
 5079TIP3    H236873   6.641   0.716   3.156 -1.4308 -0.3981 -1.0674
 5080TIP3   OH236874   6.807   6.574   4.004  0.2832  0.2819  0.2794
 5080TIP3    H136875   6.889   6.576   3.955 -0.4799  0.4902 -1.0439
 5080TIP3    H236876   6.828   6.526   4.084  1.5483 -0.1978 -0.3106
 5081TIP3   OH236877   2.437   4.766   1.794 -0.0939  0.0136  0.3003
 5081TIP3    H136878   2.356   4.764   1.743 -0.6338  0.2935  1.1331
 5081TIP3    H236879   2.408   4.783   1.883  0.8873  0.0768  0.6085
 5082TIP3   OH236880   3.626   2.517   1.602 -0.1938 -0.8342  0.3165
 5082TIP3    H136881   3.629   2.586   1.535 -0.1765 -2.0114 -0.9344
 5082TIP3    H236882   3.562   2.454   1.569 -1.0850 -0.8902  2.0028
 5083TIP3   OH236883   4.030   6.440   3.308  0.1656  0.9217  0.2172
 5083TIP3    H136884   3.941   6.462   3.278  0.2306 -0.9585 -1.5984
 5083TIP3    H236885   4.018   6.362   3.362  0.6416  1.1170  0.6049
 5084TIP3   OH236886   1.451   0.555   2.014  0.0895 -0.1207  0.3604
 5084TIP3    H136887   1.395   0.478   2.028  0.1159 -0.5986 -1.8616
 5084TIP3    H236888   1.540   0.520   2.017  0.1066 -0.1635 -0.4652
 5085TIP3   OH236889   0.996   3.521   3.061  0.8010 -0.2296  0.7171
 5085TIP3    H136890   0.911   3.522   3.105  0.9223 -0.9022  0.9733
 5085TIP3    H236891   1.053   3.469   3.118  1.7743  1.3420  1.2453
 5086TIP3   OH236892   1.515   3.581   2.286 -0.1462 -0.0111  0.6752
 5086TIP3    H136893   1.463   3.537   2.354 -0.6530 -0.6101 -0.0852
 5086TIP3    H236894   1.523   3.516   2.217  3.2806 -0.6852  1.5089
 5087TIP3   OH236895   5.140   4.048   3.197 -0.4323 -0.2191  0.0932
 5087TIP3    H136896   5.094   3.967   3.216 -0.2037 -0.7215 -1.3915
 5087TIP3    H236897   5.085   4.093   3.133 -0.1780  0.4487  0.3320
 5088TIP3   OH236898   5.976   4.099   3.042  0.0826  0.0122 -0.1930
 5088TIP3    H136899   5.900   4.067   2.994 -0.2522 -1.2708  1.1279
 5088TIP3    H236900   5.941   4.137   3.122  0.4981  3.5401 -1.4825
 5089TIP3   OH236901   2.541   1.961   1.788  0.0063 -0.2501  0.4281
 5089TIP3    H136902   2.586   2.029   1.838  0.7738 -0.6301  0.2679
 5089TIP3    H236903   2.558   1.984   1.696 -1.6421  0.6106  0.3073
 5090TIP3   OH236904   0.494   4.450   0.808 -0.3018  0.0889  0.1339
 5090TIP3    H136905   0.587   4.442   0.786 -0.0434  1.1997  0.7607
 5090TIP3    H236906   0.470   4.364   0.843  0.4913 -0.2112 -0.0461
 5091TIP3   OH236907   6.423   0.650   3.557 -0.5548  0.1981 -0.3775
 5091TIP3    H136908   6.361   0.639   3.486  0.7617 -1.6844 -1.3406
 5091TIP3    H236909   6.374   0.629   3.636 -1.5610  0.4414 -0.9300
 5092TIP3   OH236910   3.203   4.301   3.982  0.0480  0.2230  0.3247
 5092TIP3    H136911   3.144   4.257   4.044 -1.4935 -1.0173 -1.8832
 5092TIP3    H236912   3.214   4.389   4.018 -1.0931 -0.3115  2.1397
 5093TIP3   OH236913   4.879   3.285   1.656 -0.3104  0.1794 -0.2969
 5093TIP3    H136914   4.965   3.245   1.648 -0.6702 -0.5042 -0.8172
 5093TIP3    H236915   4.893   3.377   1.630 -0.1015 -0.3742 -2.3485
 5094TIP3   OH236916   6.474   1.961   2.272 -0.6443 -0.8373 -0.1424
 5094TIP3    H136917   6.508   2.024   2.209 -2.1763 -0.5571 -0.7180
 5094TIP3    H236918   6.527   1.975   2.350  0.3655 -0.2389 -0.9094
 5095TIP3   OH236919   3.029   6.261   1.697 -0.1857  0.2853  0.0702
 5095TIP3    H136920   3.042   6.281   1.604 -0.5380 -1.1451 -0.3267
 5095TIP3    H236921   3.100   6.200   1.718 -2.5812 -3.0013 -0.5461
 5096TIP3   OH236922   0.841   0.860   8.143  0.4078  0.5755 -0.0689
 5096TIP3    H136923   0.920   0.807   8.128 -0.1576 -0.2191 -0.2748
 5096TIP3    H236924   0.869   0.925   8.207  1.7687  1.5081 -1.5192
 5097TIP3   OH236925   3.344   2.984   2.754  0.7439  0.2359 -0.0388
 5097TIP3    H136926   3.329   3.071   2.791  0.0219  0.3996 -0.6879
 5097TIP3    H236927   3.257   2.955   2.726  0.4369 -1.8558  2.6115
 5098TIP3   OH236928   3.724   2.734   0.436  0.1312  0.3260 -0.1296
 5098TIP3    H136929   3.629   2.741   0.422  0.3433  1.9184 -1.0975
 5098TIP3    H236930   3.737   2.767   0.525 -0.3619 -1.4397  0.6281
 5099TIP3   OH236931   4.685   2.741   3.767  0.1598 -0.0756 -0.6103
 5099TIP3    H136932   4.666   2.731   3.861  2.1268 -0.0951 -0.1532
 5099TIP3    H236933   4.602   2.767   3.728 -0.4461  1.1753  1.3414
 5100TIP3   OH236934   3.231   6.794   2.193 -0.2884 -0.4398  0.4193
 5100TIP3    H136935   3.279   6.871   2.223 -1.3465 -0.1680  1.4949
 5100TIP3    H236936   3.294   6.744   2.141  0.3736  1.1979 -0.3910
 5101TIP3   OH236937   5.472   4.334   3.544  0.0996 -0.4224 -0.3729
 5101TIP3    H136938   5.472   4.283   3.464  0.5307 -0.6353 -0.2405
 5101TIP3    H236939   5.543   4.296   3.597 -0.6094 -0.7232  0.3852
 5102TIP3   OH236940   2.687   3.913   8.465  0.0251  0.2155  0.1477
 5102TIP3    H136941   2.736   3.922   8.547  0.5277  0.5062 -0.1796
 5102TIP3    H236942   2.681   3.819   8.451 -0.7766  0.1330  0.9355
 5103TIP3   OH236943   2.920   2.957   1.070  0.1017  1.0612 -0.4940
 5103TIP3    H136944   2.856   2.889   1.051  1.5544 -0.4284 -0.2732
 5103TIP3    H236945   2.869   3.037   1.077 -1.9341 -0.2714  1.0312
 5104TIP3   OH236946   0.266   4.335   4.187 -0.1871 -0.2964  0.0007
 5104TIP3    H136947   0.312   4.267   4.237 -0.1426 -0.4823 -0.2858
 5104TIP3    H236948   0.225   4.287   4.115 -0.5908 -0.0901  0.0911
 5105TIP3   OH236949   5.553   4.846   3.709 -0.2387 -0.5472 -0.4222
 5105TIP3    H136950   5.526   4.762   3.671 -2.4866  0.3365 -0.9347
 5105TIP3    H236951   5.471   4.890   3.732  0.7419  2.2526 -1.7885
 5106TIP3   OH236952   2.595   2.421   8.278 -0.3481  0.3446 -0.4682
 5106TIP3    H136953   2.646   2.462   8.348  0.2178  1.2172 -1.3687
 5106TIP3    H236954   2.607   2.479   8.203  1.8303 -2.2850 -2.3082
 5107TIP3   OH236955   3.204   1.814   0.239 -0.8357 -0.0913  0.1184
 5107TIP3    H136956   3.240   1.726   0.226  0.4815 -0.4783  4.6733
 5107TIP3    H236957   3.115   1.799   0.268 -0.5918  0.0469  0.9556
 5108TIP3   OH236958   0.302   4.249   1.638  0.5241 -0.2868 -0.0495
 5108TIP3    H136959   0.248   4.286   1.568 -1.9899  0.9676  2.4090
 5108TIP3    H236960   0.366   4.318   1.657  1.6223 -0.8736 -1.4327
 5109TIP3   OH236961   4.255   2.055   1.005 -0.0531 -0.4042 -0.5135
 5109TIP3    H136962   4.246   2.149   0.986 -2.0721 -0.5584 -0.6062
 5109TIP3    H236963   4.349   2.039   1.004  0.3424  1.6135 -0.5300
 5110TIP3   OH236964   1.394   3.769   3.193  0.0298  0.2464  0.3294
 5110TIP3    H136965   1.327   3.816   3.144 -1.2725 -1.9097 -0.0524
 5110TIP3    H236966   1.430   3.835   3.253  0.0051  2.3282 -1.7914
 5111TIP3   OH236967   2.443   5.893   8.408 -0.4271  0.2742 -0.2011
 5111TIP3    H136968   2.390   5.820   8.376 -0.1406  0.1044 -0.2941
 5111TIP3    H236969   2.500   5.915   8.334  0.5574 -0.4218  0.3281
 5112TIP3   OH236970   5.120   1.628   1.051 -0.2488  0.1373  0.0065
 5112TIP3    H136971   5.104   1.721   1.035 -0.5633  0.1554  0.4214
 5112TIP3    H236972   5.213   1.624   1.075 -0.5937  0.5458  1.4776
 5113TIP3   OH236973   5.907   0.285   0.405  0.1722  0.0240  0.1036
 5113TIP3    H136974   5.978   0.261   0.465 -0.5500  1.7175  1.7160
 5113TIP3    H236975   5.951   0.298   0.321  1.7730  0.8876  1.0218
 5114TIP3   OH236976   6.926   3.235   0.925  0.1758  0.0894 -0.1984
 5114TIP3    H136977   6.841   3.271   0.952 -1.0873 -2.6554 -0.1784
 5114TIP3    H236978   6.978   3.234   1.005 -0.2138  0.5920  0.0729
 5115TIP3   OH236979   1.124   4.258   0.208 -0.6179 -0.0021 -0.5813
 5115TIP3    H136980   1.102   4.254   0.301 -0.7376  2.1463 -0.4607
 5115TIP3    H236981   1.047   4.297   0.167 -1.2542 -2.4379 -1.9066
 5116TIP3   OH236982   2.860   4.640   3.616  0.1798 -0.3337  0.0515
 5116TIP3    H136983   2.938   4.689   3.590 -0.1760 -0.0904 -0.6003
 5116TIP3    H236984   2.884   4.596   3.697  1.4229 -1.2930 -0.8117
 5117TIP3   OH236985   4.968   4.099   2.050  0.4021  0.1833 -0.1669
 5117TIP3    H136986   5.063   4.110   2.042  0.5739 -0.5109  0.6783
 5117TIP3    H236987   4.931   4.180   2.014  1.3121  0.4749 -0.4826
 5118TIP3   OH236988   5.274   6.502   3.105  0.1659 -0.2525 -0.4743
 5118TIP3    H136989   5.292   6.420   3.150 -1.2632 -1.4341 -1.9349
 5118TIP3    H236990   5.258   6.477   3.015 -1.5386  1.4746 -0.7151
 5119TIP3   OH236991   5.293   4.452   3.215 -0.1109 -0.3429  0.6210
 5119TIP3    H136992   5.217   4.506   3.192  1.1493  1.0966 -0.3951
 5119TIP3    H236993   5.262   4.394   3.284 -2.0375  0.4140  0.4469
 5120TIP3   OH236994   5.699   3.272   7.916  0.0547  0.1360 -0.2554
 5120TIP3    H136995   5.791   3.243   7.919 -0.0740 -0.3626 -0.8473
 5120TIP3    H236996   5.691   3.316   7.832 -0.7447 -1.6209 -1.1589
 5121TIP3   OH236997   3.768   1.328   0.609 -0.0719 -0.4116 -0.0304
 5121TIP3    H136998   3.849   1.367   0.638  1.6279 -2.5086 -1.5930
 5121TIP3    H236999   3.737   1.278   0.684 -0.2492  0.8190  0.7428
 5122TIP3   OH237000   4.099   1.365   0.078 -0.3612 -0.1419 -0.5682
 5122TIP3    H137001   4.163   1.393   0.143  0.0619  0.3568 -1.1893
 5122TIP3    H237002   4.101   1.433   0.011 -0.4191 -0.8999 -1.3561
 5123TIP3   OH237003   2.966   3.515   1.613 -0.2110 -0.0189  0.9155
 5123TIP3    H137004   2.888   3.568   1.626  0.0356  0.4399  0.5981
 5123TIP3    H237005   2.957   3.441   1.672 -0.6495  0.2921  1.2340
 5124TIP3   OH237006   3.909   4.167   0.238 -0.2177  0.1473  0.2402
 5124TIP3    H137007   3.893   4.073   0.247  2.0723 -0.1640  2.2145
 5124TIP3    H237008   3.967   4.174   0.161 -0.5467 -0.0193 -0.0256
 5125TIP3   OH237009   2.141   6.871   0.846 -0.1728 -0.6230 -0.6487
 5125TIP3    H137010   2.149   6.819   0.927 -0.8494  0.7102  0.3065
 5125TIP3    H237011   2.231   6.881   0.816  0.1069 -1.0150  0.0284
 5126TIP3   OH237012   2.180   3.895   3.571  0.4574 -0.0960 -0.3967
 5126TIP3    H137013   2.209   3.981   3.602  1.6604 -1.3227  2.2532
 5126TIP3    H237014   2.261   3.849   3.550 -0.1252 -0.8638 -1.0145
 5127TIP3   OH237015   1.714   4.051   0.236  0.0097 -0.3594 -0.2446
 5127TIP3    H137016   1.659   3.988   0.191  1.7894 -0.2949 -2.6990
 5127TIP3    H237017   1.691   4.135   0.196 -0.6945  0.2394  1.3530
 5128TIP3   OH237018   1.114   1.928   1.548 -0.1364 -0.2443 -0.6098
 5128TIP3    H137019   1.174   1.998   1.522  0.4549 -1.2555 -2.1000
 5128TIP3    H237020   1.028   1.958   1.520 -0.1335  0.5679  0.2059
 5129TIP3   OH237021   3.341   0.925   0.555  0.0950 -0.0410 -0.4236
 5129TIP3    H137022   3.268   0.944   0.615  1.3172  0.0144  1.1231
 5129TIP3    H237023   3.338   0.996   0.491 -1.1348  0.0198 -0.3219
 5130TIP3   OH237024   4.452   2.369   2.522  0.3209 -0.7036  0.0261
 5130TIP3    H137025   4.410   2.300   2.471 -1.0240 -0.0158  0.1472
 5130TIP3    H237026   4.544   2.365   2.498  0.0693 -1.8178 -0.7937
 5131TIP3   OH237027   6.104   5.252   3.520  0.5955  0.1641 -0.1813
 5131TIP3    H137028   6.187   5.219   3.486  0.4602  1.2475 -1.6608
 5131TIP3    H237029   6.127   5.294   3.603  1.4765  0.2264 -0.4499
 5132TIP3   OH237030   3.520   0.045   3.746  0.0647 -0.0089  0.3420
 5132TIP3    H137031   3.454   0.108   3.717  1.6817  0.1536 -3.5802
 5132TIP3    H237032   3.601   0.097   3.755  0.4110 -0.7476  1.9628
 5133TIP3   OH237033   0.716   4.952   2.167 -0.2466  0.2610  0.0382
 5133TIP3    H137034   0.756   5.039   2.161  0.7160 -0.2070 -0.5581
 5133TIP3    H237035   0.663   4.956   2.247  1.2735  0.8051  1.0777
 5134TIP3   OH237036   1.352   3.865   0.793  0.7986 -0.2736 -0.3091
 5134TIP3    H137037   1.306   3.889   0.874  0.6883 -1.0580 -0.1322
 5134TIP3    H237038   1.415   3.936   0.780 -0.7168  1.0329 -0.7713
 5135TIP3   OH237039   0.781   6.475   2.194 -0.1868  0.6781 -0.6899
 5135TIP3    H137040   0.796   6.510   2.106 -2.2575  0.6928 -1.1009
 5135TIP3    H237041   0.688   6.451   2.194  0.6718 -3.3719  0.0639
 5136TIP3   OH237042   0.849   5.191   0.884  0.0392 -0.1477  0.2448
 5136TIP3    H137043   0.893   5.231   0.958  0.9106  1.3184 -1.0201
 5136TIP3    H237044   0.765   5.236   0.879 -0.4765 -0.9996  0.9646
 5137TIP3   OH237045   6.002   5.775   8.330 -0.4241  0.1407  0.4817
 5137TIP3    H137046   6.074   5.729   8.288 -0.7501 -1.4707  1.5871
 5137TIP3    H237047   5.931   5.711   8.333 -1.8506  1.6173 -0.3864
 5138TIP3   OH237048   1.600   1.075   7.905  0.3501  0.2719 -0.0178
 5138TIP3    H137049   1.568   1.158   7.939  0.5145 -0.0657  0.9888
 5138TIP3    H237050   1.693   1.074   7.924  0.3580 -0.1256 -0.0596
 5139TIP3   OH237051   3.028   3.847   3.012  0.6171 -0.2354 -0.7171
 5139TIP3    H137052   3.100   3.817   3.067 -0.0371 -1.0889 -0.2982
 5139TIP3    H237053   3.065   3.852   2.924  1.3348 -0.1164 -0.4092
 5140TIP3   OH237054   3.712   5.878   2.996 -0.0797 -0.1062 -0.3838
 5140TIP3    H137055   3.747   5.876   3.085 -0.8542  2.5631  0.0726
 5140TIP3    H237056   3.647   5.808   2.995  0.5011 -0.6984  0.8960
 5141TIP3   OH237057   3.323   5.979   0.514 -0.5550 -0.1644  0.9439
 5141TIP3    H137058   3.305   6.061   0.560 -0.3867  0.5113 -0.1596
 5141TIP3    H237059   3.241   5.958   0.469 -0.2817 -0.0147  0.3603
 5142TIP3   OH237060   6.594   4.334   8.515 -0.3675 -0.1531  0.6091
 5142TIP3    H137061   6.571   4.329   8.608 -1.7483  2.1928  0.4718
 5142TIP3    H237062   6.516   4.302   8.469 -0.5363  0.7387  0.2497
 5143TIP3   OH237063   5.323   3.259   3.830  0.1715 -0.1058  0.1140
 5143TIP3    H137064   5.260   3.225   3.893 -0.5923  3.1793  1.3200
 5143TIP3    H237065   5.270   3.306   3.765  1.0829 -1.8846 -2.0767
 5144TIP3   OH237066   0.389   1.046   2.827  0.3551 -0.2068 -0.0375
 5144TIP3    H137067   0.447   1.107   2.873 -0.3099  0.7873 -0.4640
 5144TIP3    H237068   0.448   0.979   2.792  1.1744  0.4241  0.0879
 5145TIP3   OH237069   5.719   0.653   3.888 -0.1870  0.1179  0.4206
 5145TIP3    H137070   5.686   0.566   3.868 -0.7274  0.7214 -1.4392
 5145TIP3    H237071   5.687   0.670   3.977 -0.6524 -1.2863  0.5546
 5146TIP3   OH237072   1.045   5.052   2.800 -0.1967 -0.1629  0.6235
 5146TIP3    H137073   0.981   5.038   2.731 -0.6222  0.2048  0.9414
 5146TIP3    H237074   1.005   5.117   2.858  0.4516  0.0580  0.8354
 5147TIP3   OH237075   0.343   6.585   3.743  0.3592  0.3711  0.4171
 5147TIP3    H137076   0.271   6.599   3.805 -1.4428  1.1749 -1.7002
 5147TIP3    H237077   0.418   6.629   3.783 -0.6622  0.6473  2.1225
 5148TIP3   OH237078   3.484   2.457   2.642 -0.1720 -0.0572 -0.1294
 5148TIP3    H137079   3.555   2.498   2.593 -1.3845  3.3210  0.6292
 5148TIP3    H237080   3.510   2.466   2.734 -1.0991  0.3316  0.1069
 5149TIP3   OH237081   1.711   3.914   8.356 -0.0351 -0.1447 -0.0068
 5149TIP3    H137082   1.785   3.974   8.343  0.9742 -1.5697 -1.2575
 5149TIP3    H237083   1.751   3.829   8.370 -1.4134 -1.0794 -1.3245
 5150TIP3   OH237084   3.017   1.733   1.863  0.3896 -0.0979  0.1617
 5150TIP3    H137085   3.096   1.741   1.810  0.7140  0.8452  0.7620
 5150TIP3    H237086   2.945   1.736   1.800  0.8177 -1.2214 -0.4164
 5151TIP3   OH237087   0.514   2.575   0.275  0.0668  0.0199 -0.3232
 5151TIP3    H137088   0.438   2.532   0.235 -0.9154  0.4374  1.0349
 5151TIP3    H237089   0.492   2.668   0.274  1.3583  0.3486 -1.5151
 5152TIP3   OH237090   2.998   0.776   2.247 -0.3403  0.1538 -0.2613
 5152TIP3    H137091   3.071   0.820   2.291 -0.2240 -2.3701  2.3733
 5152TIP3    H237092   3.032   0.751   2.162  1.1270  0.9702  0.0521
 5153TIP3   OH237093   6.586   6.720   2.005  0.4171 -0.0578 -0.0160
 5153TIP3    H137094   6.659   6.662   2.025 -0.2324 -0.9234 -0.1013
 5153TIP3    H237095   6.523   6.705   2.075 -0.3984 -0.5736 -0.8402
 5154TIP3   OH237096   6.059   4.914   0.287  0.0459  0.1457 -0.0927
 5154TIP3    H137097   6.018   4.920   0.373 -0.3627  0.5921 -0.3124
 5154TIP3    H237098   6.003   4.855   0.237  0.0399  0.2260 -0.1824
 5155TIP3   OH237099   1.707   6.740   8.226 -0.3326  0.1731  0.5262
 5155TIP3    H137100   1.726   6.646   8.228 -0.0043  0.2418  1.9865
 5155TIP3    H237101   1.612   6.745   8.221 -0.2792 -0.2095 -1.5265
 5156TIP3   OH237102   5.975   5.660   0.085 -0.6920  0.1488  0.1393
 5156TIP3    H137103   5.921   5.590   0.049 -0.0977  0.5963 -1.7284
 5156TIP3    H237104   6.064   5.626   0.083 -0.0565  1.6575 -2.9600
 5157TIP3   OH237105   1.216   1.446   8.462 -0.1427 -0.0719  0.4453
 5157TIP3    H137106   1.168   1.426   8.382 -0.0147 -1.2638  0.6542
 5157TIP3    H237107   1.301   1.479   8.432  0.4323 -1.8242  0.0718
 5158TIP3   OH237108   0.089   0.892   3.693  0.1212 -0.0091 -0.3563
 5158TIP3    H137109   0.140   0.919   3.616 -0.0470  1.5449  0.0357
 5158TIP3    H237110   0.044   0.972   3.720 -0.5997 -0.7793  0.7723
 5159TIP3   OH237111   2.099   5.500   2.310  0.2472  0.0532 -0.7726
 5159TIP3    H137112   2.031   5.493   2.378  1.0794  2.7874  0.4875
 5159TIP3    H237113   2.063   5.562   2.247  0.2368 -1.1172 -1.9779
 5160TIP3   OH237114   3.039   3.700   3.718 -0.3535 -0.2835 -0.0946
 5160TIP3    H137115   2.962   3.668   3.765 -1.5346  0.1478 -1.6715
 5160TIP3    H237116   3.107   3.705   3.785 -1.4643 -1.4288  1.1753
 5161TIP3   OH237117   4.759   3.564   7.419 -0.1460 -0.2852 -0.1992
 5161TIP3    H137118   4.759   3.649   7.374  1.4017 -1.0088 -1.6901
 5161TIP3    H237119   4.755   3.586   7.512 -0.1792  1.3949 -0.5663
 5162TIP3   OH237120   4.462   3.055   1.485  0.3086  1.0060 -0.0368
 5162TIP3    H137121   4.390   3.047   1.423  0.7470  1.7445 -0.6605
 5162TIP3    H237122   4.452   3.142   1.524  1.2709  1.4275 -0.6800
 5163TIP3   OH237123   4.904   2.948   2.115  0.1757  0.1713  0.1222
 5163TIP3    H137124   4.885   3.031   2.072  0.9825 -0.0435 -0.6629
 5163TIP3    H237125   4.987   2.919   2.078  0.8714 -0.0696  1.7518
 5164TIP3   OH237126   0.810   5.587   0.496  0.2394 -0.6635  0.0606
 5164TIP3    H137127   0.727   5.607   0.538 -1.2240 -3.1924 -1.3813
 5164TIP3    H237128   0.856   5.531   0.560 -0.3320 -1.4086 -0.1706
 5165TIP3   OH237129   3.981   1.681   0.175  0.3919  0.2302  0.5148
 5165TIP3    H137130   4.042   1.659   0.104 -2.4279 -1.7449 -1.4747
 5165TIP3    H237131   3.956   1.772   0.157  0.8305  0.2262 -0.1666
 5166TIP3   OH237132   5.571   4.309   1.737  0.3409  0.0448 -0.9085
 5166TIP3    H137133   5.635   4.345   1.676  2.0116 -1.7414 -0.3099
 5166TIP3    H237134   5.578   4.214   1.726  0.7031 -0.3525  2.0261
 5167TIP3   OH237135   5.482   2.166   1.748  0.6125 -0.2598  0.8296
 5167TIP3    H137136   5.444   2.098   1.691  0.4486  0.3091  0.2517
 5167TIP3    H237137   5.446   2.147   1.835  2.0379 -2.0742  1.1112
 5168TIP3   OH237138   4.813   0.049   2.939 -0.6759  0.1495  0.6499
 5168TIP3    H137139   4.749  -0.011   2.900 -0.2777 -0.8565  1.4878
 5168TIP3    H237140   4.873   0.070   2.868  0.2855 -1.9945  0.7512
 5169TIP3   OH237141   5.275   6.742   3.688  0.2264  0.2575 -0.6827
 5169TIP3    H137142   5.308   6.791   3.613  0.4550  0.6049 -0.3587
 5169TIP3    H237143   5.308   6.789   3.764 -1.5933  1.0432 -0.3227
 5170TIP3   OH237144   6.818   1.162   0.803  0.4499  0.2329  0.7745
 5170TIP3    H137145   6.882   1.167   0.732  0.2255  2.0406  0.6499
 5170TIP3    H237146   6.734   1.178   0.760  0.2579  0.8358  1.3572
 5171TIP3   OH237147   3.578   6.108   2.140  0.9908 -0.4072 -0.2961
 5171TIP3    H137148   3.634   6.058   2.080  0.4023 -1.7696  0.2355
 5171TIP3    H237149   3.588   6.062   2.224 -0.3896 -0.2580 -0.0402
 5172TIP3   OH237150   3.894   5.337   0.536 -0.6294  0.3442  0.0052
 5172TIP3    H137151   3.856   5.271   0.477  2.1143 -1.3306 -0.0422
 5172TIP3    H237152   3.894   5.418   0.484 -1.2234 -0.3401 -1.1029
 5173TIP3   OH237153   5.644   2.160   2.287  0.2153 -0.1617 -0.1346
 5173TIP3    H137154   5.628   2.068   2.266  0.0128  0.1607 -1.4582
 5173TIP3    H237155   5.735   2.175   2.261 -0.1892  0.3693 -1.3007
 5174TIP3   OH237156   0.210   2.144   1.599  0.1794  0.2704  0.4723
 5174TIP3    H137157   0.297   2.124   1.634 -0.3124  1.5219  2.5817
 5174TIP3    H237158   0.223   2.222   1.546  0.5307 -0.2832 -0.2824
 5175TIP3   OH237159   0.985   1.470   2.420 -0.0846  0.1177  0.4228
 5175TIP3    H137160   1.050   1.458   2.351  0.6018  0.1804  1.0389
 5175TIP3    H237161   0.978   1.565   2.430  1.7146  0.1375  2.1332
 5176TIP3   OH237162   4.910   2.768   8.469  0.1174  0.6172  0.4129
 5176TIP3    H137163   4.898   2.681   8.431 -0.9334  0.2427  1.5869
 5176TIP3    H237164   4.925   2.752   8.562  1.0716  1.6400  0.4589
 5177TIP3   OH237165   5.808   5.963   1.958 -0.0549  0.1527 -0.3576
 5177TIP3    H137166   5.784   5.976   2.050  0.4076 -0.2099 -0.1760
 5177TIP3    H237167   5.752   5.891   1.929 -0.3509  0.4103 -0.4201
 5178TIP3   OH237168   5.599   1.446   8.000 -0.1414 -0.6974 -0.3005
 5178TIP3    H137169   5.565   1.412   7.917 -1.4982  1.3603 -0.6638
 5178TIP3    H237170   5.614   1.368   8.054  0.5208 -2.0694 -2.3496
 5179TIP3   OH237171   1.759   4.981   3.491  0.2482 -0.4103 -0.2782
 5179TIP3    H137172   1.665   4.968   3.498  0.5434 -2.6906  0.1730
 5179TIP3    H237173   1.793   4.966   3.579  1.2485 -1.9534 -0.8929
 5180TIP3   OH237174   2.042   5.329   1.227 -0.0110  0.1946 -0.7359
 5180TIP3    H137175   2.004   5.258   1.176 -1.9615  0.6708 -0.0590
 5180TIP3    H237176   1.980   5.402   1.217  2.0887  1.9733 -1.6998
 5181TIP3   OH237177   0.184   6.571   3.503 -0.3258  0.4121  0.7993
 5181TIP3    H137178   0.240   6.612   3.569  0.6600 -1.3945  1.1371
 5181TIP3    H237179   0.096   6.576   3.541  0.0708  0.4009  1.7560
 5182TIP3   OH237180   0.615   1.324   2.457 -0.6518  0.1664 -0.3447
 5182TIP3    H137181   0.593   1.332   2.364 -1.3330 -1.4081 -0.3644
 5182TIP3    H237182   0.567   1.245   2.485  1.2115 -0.6089  0.8220
 5183TIP3   OH237183   0.086   2.643   3.607 -0.3518  0.0705 -0.2153
 5183TIP3    H137184   0.170   2.602   3.586 -1.2507 -1.5443 -0.8872
 5183TIP3    H237185   0.022   2.572   3.599 -1.8788  1.4000 -0.3817
 5184TIP3   OH237186   5.742   3.236   1.093  0.0610  0.0450  0.2061
 5184TIP3    H137187   5.821   3.191   1.063  0.4157 -1.4977  3.1429
 5184TIP3    H237188   5.672   3.171   1.085 -0.2234  0.2639  0.8697
 5185TIP3   OH237189   2.781   0.719   1.321  0.0345  0.2903 -0.1611
 5185TIP3    H137190   2.784   0.790   1.256 -0.5540  0.6086  0.1495
 5185TIP3    H237191   2.796   0.639   1.270  1.2553  0.6748 -0.4300
 5186TIP3   OH237192   0.233   6.032   2.356  0.1135  0.0395  0.5912
 5186TIP3    H137193   0.310   5.977   2.338 -2.0167 -2.4793 -1.6644
 5186TIP3    H237194   0.209   6.011   2.447  0.7593 -0.9259  0.5518
 5187TIP3   OH237195   6.801   0.323   2.175  0.5725  0.0278  0.1539
 5187TIP3    H137196   6.842   0.239   2.199  3.7575  1.0617 -1.1026
 5187TIP3    H237197   6.756   0.351   2.255 -1.7286 -3.3505  0.2733
 5188TIP3   OH237198   2.220   1.408   3.222 -0.2503  0.3796 -0.4206
 5188TIP3    H137199   2.147   1.441   3.169 -0.8631  0.4343  0.4492
 5188TIP3    H237200   2.265   1.486   3.252 -0.9885  0.4089  0.6423
 5189TIP3   OH237201   6.647   4.597   2.203 -0.8778  0.1921  0.1108
 5189TIP3    H137202   6.735   4.607   2.167 -0.3598  0.9508  1.4957
 5189TIP3    H237203   6.660   4.561   2.291 -1.6627  2.9412  1.4897
 5190TIP3   OH237204   2.837   4.871   3.790  0.1198 -0.3078 -0.4085
 5190TIP3    H137205   2.821   4.786   3.751  0.4615 -0.8836  0.6441
 5190TIP3    H237206   2.930   4.888   3.773  0.4815 -0.9428  0.8149
 5191TIP3   OH237207   3.684   5.061   1.667 -0.5569  0.2488  0.1658
 5191TIP3    H137208   3.754   5.084   1.606  1.0304 -2.3022  0.8692
 5191TIP3    H237209   3.693   4.967   1.679 -1.4923  0.4698  3.4831
 5192TIP3   OH237210   0.858   5.214   2.123 -0.2147 -0.5109  0.1518
 5192TIP3    H137211   0.851   5.215   2.027  2.0572  0.5329 -0.0574
 5192TIP3    H237212   0.855   5.306   2.148  0.0274 -0.7249  1.0114
 5193TIP3   OH237213   1.238   6.256   3.397 -0.2036  0.4147 -0.1161
 5193TIP3    H137214   1.218   6.251   3.304  0.8173  3.1706 -0.5723
 5193TIP3    H237215   1.171   6.316   3.432  0.6402  1.0182  0.4894
 5194TIP3   OH237216   5.586   1.258   2.382 -0.0505 -0.6969 -0.4259
 5194TIP3    H137217   5.598   1.353   2.386  3.4385 -1.0036  4.2031
 5194TIP3    H237218   5.497   1.244   2.417 -0.0484  0.8695  0.2975
 5195TIP3   OH237219   6.053   0.237   2.468  0.1854 -0.3255  0.5508
 5195TIP3    H137220   6.071   0.241   2.562 -0.9282  0.6046  0.7463
 5195TIP3    H237221   5.965   0.274   2.459  0.6789  0.5522 -0.9732
 5196TIP3   OH237222   5.042   5.760   8.504 -0.1871  0.3792 -0.2986
 5196TIP3    H137223   5.095   5.829   8.545  0.1972  0.1918 -0.4766
 5196TIP3    H237224   5.063   5.766   8.411 -0.4273  0.2538 -0.3615
 5197TIP3   OH237225   0.635   0.877   0.421 -0.1068 -0.2228  0.1757
 5197TIP3    H137226   0.712   0.820   0.429 -0.0102 -0.1905 -0.5339
 5197TIP3    H237227   0.607   0.891   0.512  2.0196  1.5133  0.6409
 5198TIP3   OH237228   3.338   3.272   2.818 -0.1747  0.1234  0.2881
 5198TIP3    H137229   3.264   3.329   2.797 -1.5316 -0.4710  2.9299
 5198TIP3    H237230   3.376   3.310   2.897 -0.4675 -1.9863  1.5159
 5199TIP3   OH237231   1.020   5.804   0.791  0.6245  0.7635  0.3055
 5199TIP3    H137232   1.042   5.878   0.735  0.4954  0.4880 -0.1105
 5199TIP3    H237233   1.035   5.836   0.880 -3.2732  2.7449  0.4874
 5200TIP3   OH237234   0.216   1.104   0.856 -0.4644  0.5836  0.3700
 5200TIP3    H137235   0.194   1.033   0.795 -0.0572  0.3870  0.4481
 5200TIP3    H237236   0.203   1.184   0.805 -3.5858  0.6600  1.0410
 5201TIP3   OH237237   6.242   1.520   0.474  0.2947  0.0515  0.3398
 5201TIP3    H137238   6.229   1.520   0.569 -1.3819  0.1694  0.1355
 5201TIP3    H237239   6.162   1.560   0.438  1.3678  1.0408 -1.0740
 5202TIP3   OH237240   5.680   4.217   1.289 -0.0329 -0.0623  0.0964
 5202TIP3    H137241   5.685   4.239   1.196  0.5641 -1.0432 -0.1177
 5202TIP3    H237242   5.590   4.238   1.314 -0.5655 -0.9281 -1.0017
 5203TIP3   OH237243   6.234   3.983   2.039  0.0796  0.1335  0.6141
 5203TIP3    H137244   6.308   4.043   2.053  0.7156  0.2425 -2.4191
 5203TIP3    H237245   6.174   4.033   1.983 -0.6046 -1.1496  0.1746
 5204TIP3   OH237246   5.640   5.988   4.001  0.2140  0.3368  0.7507
 5204TIP3    H137247   5.601   5.920   4.056 -0.8602  0.8184  0.5936
 5204TIP3    H237248   5.729   5.956   3.984  0.0380 -0.5698  1.4620
 5205TIP3   OH237249   5.280   5.076   2.351  0.3442 -0.0115  0.4782
 5205TIP3    H137250   5.200   5.128   2.341  0.4537  0.3450  1.3391
 5205TIP3    H237251   5.274   5.009   2.283 -1.4083 -0.8890  1.4242
 5206TIP3   OH237252   0.801   3.144   0.005  0.0970  0.1359 -0.1085
 5206TIP3    H137253   0.866   3.151  -0.065 -1.0472 -1.7060 -1.4440
 5206TIP3    H237254   0.854   3.134   0.085  1.4256  2.3827 -0.6065
 5207TIP3   OH237255   1.989   4.761   2.642 -0.0619 -0.4305  0.1823
 5207TIP3    H137256   2.083   4.779   2.631 -0.1869  0.6756  0.7373
 5207TIP3    H237257   1.986   4.688   2.703  0.4492 -0.1403  0.5697
 5208TIP3   OH237258   1.717   1.784   1.881  0.2243  0.0007 -0.3715
 5208TIP3    H137259   1.741   1.698   1.848 -0.8341  0.0630 -1.3615
 5208TIP3    H237260   1.623   1.792   1.864  0.1266  1.0169  0.4793
 5209TIP3   OH237261   5.866   0.894   3.058 -0.0430  1.0723  0.0109
 5209TIP3    H137262   5.898   0.877   2.970 -0.7903 -0.7175  0.0427
 5209TIP3    H237263   5.800   0.826   3.073  0.5292  0.9361  2.1849
 5210TIP3   OH237264   4.200   6.783   1.560 -0.0369 -0.8850 -0.2439
 5210TIP3    H137265   4.145   6.764   1.636 -0.6943  0.8041 -0.2661
 5210TIP3    H237266   4.269   6.717   1.564 -0.8844 -1.7464  0.9696
 5211TIP3   OH237267   3.486   2.068   8.198  0.2423 -0.0042 -0.3674
 5211TIP3    H137268   3.430   1.994   8.219 -0.0673  0.1626 -0.5944
 5211TIP3    H237269   3.533   2.086   8.279  1.9652 -1.8319 -0.8834
 5212TIP3   OH237270   6.153   3.827   1.785 -0.3271  0.3121  0.0346
 5212TIP3    H137271   6.234   3.825   1.837  0.2181 -2.9503 -0.7869
 5212TIP3    H237272   6.145   3.919   1.760  2.8335  0.8865  0.5932
 5213TIP3   OH237273   2.444   2.738   1.048  0.0579 -0.6826  0.4065
 5213TIP3    H137274   2.473   2.796   0.978  1.4790  0.5113  1.9057
 5213TIP3    H237275   2.365   2.696   1.013  0.6238 -0.0289 -1.8204
 5214TIP3   OH237276   3.048   0.975   1.939 -0.3227  0.3473 -0.4666
 5214TIP3    H137277   2.964   0.985   1.984  0.4253  3.0979  0.5305
 5214TIP3    H237278   3.094   1.057   1.957  3.5986 -1.9335  1.1059
 5215TIP3   OH237279   5.211   6.422   2.841  0.1071  0.1562 -0.0733
 5215TIP3    H137280   5.219   6.436   2.747 -0.1313 -0.7215 -0.2314
 5215TIP3    H237281   5.301   6.419   2.873  0.2545 -1.1873 -0.5391
 5216TIP3   OH237282   2.752   3.056   2.393  0.1232 -0.4778  0.0160
 5216TIP3    H137283   2.707   2.998   2.331 -0.5163 -0.2075  0.2134
 5216TIP3    H237284   2.699   3.051   2.472  1.4281 -1.5144  0.8482
 5217TIP3   OH237285   1.902   2.747   3.574 -0.6592  0.6536  0.2795
 5217TIP3    H137286   1.978   2.777   3.524  0.5641 -1.3282  0.8254
 5217TIP3    H237287   1.832   2.739   3.509  0.3923 -0.1449 -0.8176
 5218TIP3   OH237288   1.919   3.349   2.490  0.7964  0.0713 -0.0304
 5218TIP3    H137289   1.932   3.283   2.558  1.2031 -0.3445 -0.5048
 5218TIP3    H237290   1.977   3.322   2.419 -0.9992 -0.5746 -1.3052
 5219TIP3   OH237291   6.113   6.704   8.032  0.1416  0.1691 -0.1416
 5219TIP3    H137292   6.055   6.735   7.962 -0.2424 -0.5879 -0.1665
 5219TIP3    H237293   6.195   6.750   8.017 -0.2143  0.6795 -0.5613
 5220TIP3   OH237294   0.813   0.758   0.198 -0.0213 -0.5677 -0.2986
 5220TIP3    H137295   0.825   0.666   0.224 -0.6124 -1.0431 -1.6082
 5220TIP3    H237296   0.895   0.801   0.222 -0.1466 -1.1569  1.3858
 5221TIP3   OH237297   4.484   3.639   0.283  0.8314 -0.1854 -0.2746
 5221TIP3    H137298   4.502   3.561   0.231 -1.4062 -1.3255  0.5456
 5221TIP3    H237299   4.416   3.686   0.235  0.7827  0.2544  0.2016
 5222TIP3   OH237300   1.642   0.545   3.744  0.1236 -0.2596  0.4078
 5222TIP3    H137301   1.704   0.618   3.737 -1.2954  0.8317 -1.5506
 5222TIP3    H237302   1.693   0.468   3.719  1.1214  0.3613  0.4823
 5223TIP3   OH237303   0.672   1.551   1.639 -0.4194 -0.7639  0.4594
 5223TIP3    H137304   0.732   1.606   1.689 -0.7442 -0.2923  0.3490
 5223TIP3    H237305   0.654   1.602   1.560 -0.7363 -1.0277  0.3594
 5224TIP3   OH237306   3.666   4.829   1.109 -0.3735 -0.6539  0.0973
 5224TIP3    H137307   3.661   4.736   1.132 -0.1564 -0.4993  0.7883
 5224TIP3    H237308   3.745   4.860   1.152  0.6261 -0.5712 -1.7158
 5225TIP3   OH237309   2.674   6.780   3.070 -0.1840  0.0905 -0.4586
 5225TIP3    H137310   2.635   6.840   3.006 -0.3901  0.8660  0.3864
 5225TIP3    H237311   2.612   6.777   3.142 -0.0948 -1.0250 -0.4146
 5226TIP3   OH237312   2.744   3.706   1.653  0.3986  0.4350  0.3154
 5226TIP3    H137313   2.794   3.780   1.688  1.3278 -0.0358  0.0367
 5226TIP3    H237314   2.661   3.744   1.624  0.8066  1.3436  0.2969
 5227TIP3   OH237315   1.936   2.358   2.421 -0.0427  0.2354 -0.0077
 5227TIP3    H137316   1.987   2.277   2.420 -0.0478  0.2332 -0.2436
 5227TIP3    H237317   1.966   2.406   2.344  0.7542  0.9678  0.7489
 5228TIP3   OH237318   0.421   0.862   1.609  0.3628 -0.0523 -0.0923
 5228TIP3    H137319   0.384   0.804   1.542 -0.0651 -2.7859  2.3094
 5228TIP3    H237320   0.382   0.947   1.591 -0.8987 -1.0194 -2.3884
 5229TIP3   OH237321   5.906   0.911   1.209  0.1400  0.6308  0.1710
 5229TIP3    H137322   5.923   0.838   1.148  1.7669  0.3377  0.9162
 5229TIP3    H237323   5.982   0.969   1.198  1.8531 -0.6701  3.6399
 5230TIP3   OH237324   6.876   1.956   2.050 -0.8961  0.0807  0.2728
 5230TIP3    H137325   6.879   1.867   2.083 -0.2569  0.0477  0.1318
 5230TIP3    H237326   6.808   1.954   1.983  1.1228 -1.0439 -1.8600
 5231TIP3   OH237327   4.963   2.031   2.438 -0.0340 -0.1336  0.2476
 5231TIP3    H137328   5.034   2.035   2.373 -0.7883  1.0444 -0.5442
 5231TIP3    H237329   5.001   2.068   2.517 -0.1523  1.8620 -0.5830
 5232TIP3   OH237330   2.695   6.720   0.449  0.0564  0.0232  0.1872
 5232TIP3    H137331   2.620   6.668   0.422 -0.1611  0.1338  0.5831
 5232TIP3    H237332   2.706   6.702   0.542  0.8131 -0.3622  0.0314
 5233TIP3   OH237333   0.197   3.999   1.489 -0.3257  0.0713  0.2860
 5233TIP3    H137334   0.125   3.960   1.539 -1.2279  1.2599 -0.0378
 5233TIP3    H237335   0.228   4.071   1.544 -0.2412  0.3608 -0.1351
 5234TIP3   OH237336   3.057   3.827   1.048  0.2872 -0.6359 -0.2260
 5234TIP3    H137337   2.963   3.841   1.046  0.5269  1.2038 -0.3301
 5234TIP3    H237338   3.094   3.903   1.004  1.9121 -0.4182  1.3900
 5235TIP3   OH237339   3.633   2.568   1.931 -0.3730 -0.2226 -0.2289
 5235TIP3    H137340   3.579   2.645   1.914  0.5789  0.6672  0.6476
 5235TIP3    H237341   3.663   2.539   1.845 -0.4054  0.6434 -0.5380
 5236TIP3   OH237342   5.088   0.710   0.185  0.7197 -0.1602  0.3193
 5236TIP3    H137343   5.013   0.687   0.131  2.3054 -1.5225 -1.4575
 5236TIP3    H237344   5.139   0.770   0.131  0.6684  1.2320  1.7349
 5237TIP3   OH237345   5.632   2.910   2.335  0.1136 -1.1696 -0.2549
 5237TIP3    H137346   5.545   2.933   2.370 -0.3244 -1.6228 -1.0222
 5237TIP3    H237347   5.691   2.921   2.410 -0.4357  0.1465  0.0142
 5238TIP3   OH237348   1.094   5.922   2.712  0.0967 -0.4345 -0.1298
 5238TIP3    H137349   1.165   5.956   2.767 -0.6929  0.3275  0.4433
 5238TIP3    H237350   1.037   5.876   2.773  0.1613 -1.1696 -0.6130
 5239TIP3   OH237351   5.663   4.791   2.764  0.0243 -0.0486 -0.5893
 5239TIP3    H137352   5.741   4.775   2.816  0.0113  0.9007 -0.2670
 5239TIP3    H237353   5.691   4.851   2.695 -0.2286 -0.3749 -0.9814
 5240TIP3   OH237354   5.304   5.925   3.955  0.5715  0.0467  0.1274
 5240TIP3    H137355   5.327   5.990   4.022 -1.0147  1.4227 -0.6186
 5240TIP3    H237356   5.259   5.856   4.004 -0.4316  0.9633  0.5395
 5241TIP3   OH237357   3.861   2.306   3.952  0.5679 -0.1495  0.2621
 5241TIP3    H137358   3.891   2.277   4.038 -0.6631 -1.8199  0.2021
 5241TIP3    H237359   3.941   2.323   3.902  1.3154 -0.4466  1.3363
 5242TIP3   OH237360   5.109   4.552   4.065  0.1330 -0.1267  0.0476
 5242TIP3    H137361   5.177   4.610   4.030  0.3661 -1.8169 -2.6466
 5242TIP3    H237362   5.126   4.549   4.159  1.3954  2.4540 -0.0038
 5243TIP3   OH237363   5.491   3.083   1.119 -0.2211  0.0385  0.1505
 5243TIP3    H137364   5.458   3.165   1.082 -0.8424 -0.4503 -0.3866
 5243TIP3    H237365   5.494   3.022   1.046 -1.6023 -0.9812  0.8948
 5244TIP3   OH237366   6.540   5.449   3.525 -0.1543  0.2158 -0.1787
 5244TIP3    H137367   6.545   5.485   3.437  1.6476  1.1603  0.2487
 5244TIP3    H237368   6.555   5.525   3.583 -0.2724 -0.5538  0.8979
 5245TIP3   OH237369   0.127   2.883   0.144  0.5575 -0.9425 -0.0454
 5245TIP3    H137370   0.075   2.880   0.064  0.2602  4.2414 -0.3566
 5245TIP3    H237371   0.077   2.939   0.203  3.9362  1.2606  1.0053
 5246TIP3   OH237372   2.986   4.239   0.844 -0.2296  0.1420 -0.2814
 5246TIP3    H137373   2.974   4.177   0.771  1.6083 -0.8600  0.2147
 5246TIP3    H237374   2.973   4.186   0.923  3.4617 -0.2705  0.2201
 5247TIP3   OH237375   0.504   0.664   4.036 -0.4356 -0.2305 -0.5632
 5247TIP3    H137376   0.548   0.738   4.077 -1.5591  0.7151 -0.9868
 5247TIP3    H237377   0.506   0.683   3.943  0.4542 -1.4268 -0.8051
 5248TIP3   OH237378   3.470   6.345   3.785 -0.1029  0.2197  0.7929
 5248TIP3    H137379   3.381   6.314   3.800 -0.2410  0.7200  1.0351
 5248TIP3    H237380   3.511   6.342   3.872 -0.8867  3.0706  1.3650
 5249TIP3   OH237381   5.695   6.941   2.732 -0.2929  0.0774  0.0464
 5249TIP3    H137382   5.659   6.948   2.644 -1.5908 -0.1679  0.5366
 5249TIP3    H237383   5.715   7.031   2.757  0.5473  0.1028 -0.6664
 5250TIP3   OH237384   0.688   1.736   2.005  0.0313  0.8125 -0.2849
 5250TIP3    H137385   0.623   1.695   2.062  0.1909 -0.2884 -0.8526
 5250TIP3    H237386   0.759   1.762   2.064  0.8683 -1.6584 -0.0612
 5251TIP3   OH237387   6.520   4.605   1.116  0.1867 -0.2456  0.2007
 5251TIP3    H137388   6.446   4.553   1.147  0.1563  0.2535  1.0159
 5251TIP3    H237389   6.482   4.665   1.051 -0.4954  1.1584  1.8133
 5252TIP3   OH237390   3.103   4.059   0.610  0.1897  0.2620 -0.8467
 5252TIP3    H137391   3.091   4.120   0.536  1.6033 -0.0815 -1.4036
 5252TIP3    H237392   3.098   3.972   0.570 -0.0005  0.0489 -0.3621
 5253TIP3   OH237393   3.558   6.648   2.344 -0.6306 -0.3460  0.1922
 5253TIP3    H137394   3.556   6.555   2.321 -0.7527 -0.4728  0.7103
 5253TIP3    H237395   3.585   6.691   2.263  1.4257 -0.9978  0.4614
 5254TIP3   OH237396   0.134   6.520   7.998 -0.1708  0.0261  0.2408
 5254TIP3    H137397   0.133   6.581   8.072 -0.7523  1.2848 -0.7653
 5254TIP3    H237398   0.082   6.563   7.930 -0.0719 -1.3194 -0.7386
 5255TIP3   OH237399   5.794   1.641   0.701  0.5193 -0.1758  0.4078
 5255TIP3    H137400   5.853   1.637   0.626 -0.9005 -2.1560 -0.6705
 5255TIP3    H237401   5.846   1.607   0.774  1.1044 -0.6561 -0.2256
 5256TIP3   OH237402   3.477   0.262   0.887 -0.2892  0.3152  0.1400
 5256TIP3    H137403   3.415   0.233   0.820 -0.3052  2.0973 -0.6692
 5256TIP3    H237404   3.561   0.223   0.860 -0.2706  1.1026 -1.0206
 5257TIP3   OH237405   4.635   6.276   0.365  0.5609 -0.6586 -0.0383
 5257TIP3    H137406   4.690   6.197   0.361 -0.4855 -1.4863  1.2511
 5257TIP3    H237407   4.681   6.334   0.426  0.0362 -1.3668  1.0702
 5258TIP3   OH237408   3.085   2.864   1.474  0.8899  0.0587  0.0418
 5258TIP3    H137409   3.084   2.862   1.378  1.1261 -1.9824  0.0423
 5258TIP3    H237410   3.170   2.828   1.498  1.3540  1.7158  1.0472
 5259TIP3   OH237411   4.144   3.415   3.267  0.3755  0.5064 -0.3971
 5259TIP3    H137412   4.200   3.354   3.219 -0.2004  0.4621 -1.0231
 5259TIP3    H237413   4.145   3.382   3.357  1.0709  0.3086 -0.4689
 5260TIP3   OH237414   2.414   3.882   0.615  0.6015  0.5220 -0.2260
 5260TIP3    H137415   2.355   3.861   0.688  1.3225  0.8505  0.4597
 5260TIP3    H237416   2.356   3.919   0.548 -0.0242  0.4995  0.2914
 5261TIP3   OH237417   5.372   0.273   2.243  0.1265  0.0892  0.0395
 5261TIP3    H137418   5.284   0.311   2.245  0.3240  0.5316  0.9677
 5261TIP3    H237419   5.428   0.343   2.278  0.7043 -0.5346  0.3814
 5262TIP3   OH237420   5.927   5.931   0.319 -0.0861  0.1161  0.0955
 5262TIP3    H137421   5.894   5.875   0.390  1.5164 -0.1482  0.6793
 5262TIP3    H237422   5.999   5.881   0.281 -0.9002  0.2520 -1.7608
 5263TIP3   OH237423   0.081   1.388   0.324 -0.0466 -0.2776 -0.0975
 5263TIP3    H137424  -0.005   1.392   0.281  0.0345 -1.9378 -0.5033
 5263TIP3    H237425   0.112   1.478   0.324 -1.0609  0.1117 -1.4757
 5264TIP3   OH237426   5.963   0.333   0.108  0.4184 -0.3870 -0.1712
 5264TIP3    H137427   5.984   0.249   0.066  0.1161 -0.5615  0.0223
 5264TIP3    H237428   5.890   0.367   0.057  1.4840  0.4741 -1.1753
 5265TIP3   OH237429   5.081   6.366   8.249 -0.6992 -0.7683 -0.1055
 5265TIP3    H137430   5.149   6.430   8.229  0.1999 -1.9586 -0.9416
 5265TIP3    H237431   4.999   6.415   8.236 -0.0475  0.6456  0.8137
 5266TIP3   OH237432   2.159   5.665   0.065  0.4172  0.4584  0.0850
 5266TIP3    H137433   2.080   5.709   0.034  0.3379  0.9981  1.0027
 5266TIP3    H237434   2.227   5.732   0.062  0.2456  0.7536  1.7015
 5267TIP3   OH237435   2.290   4.147   1.463 -0.1510 -0.5461  0.1878
 5267TIP3    H137436   2.285   4.204   1.387 -0.7500  0.2900  0.8294
 5267TIP3    H237437   2.287   4.207   1.538  1.2523 -1.2804  0.8715
 5268TIP3   OH237438   3.649   6.887   2.195  0.4794 -0.3242  0.1586
 5268TIP3    H137439   3.638   6.976   2.161 -0.5409 -0.6066 -0.2917
 5268TIP3    H237440   3.744   6.872   2.193  0.6982  0.8840  0.6021
 5269TIP3   OH237441   2.882   1.842   0.518 -0.6386 -0.4327  0.1855
 5269TIP3    H137442   2.815   1.877   0.577  0.1729 -0.5425  1.2034
 5269TIP3    H237443   2.919   1.768   0.566 -0.9185 -1.4295 -1.0703
 5270TIP3   OH237444   1.798   0.383   0.573 -0.5548  0.0479 -0.0537
 5270TIP3    H137445   1.739   0.309   0.583  0.6022 -0.9914 -0.5652
 5270TIP3    H237446   1.881   0.344   0.545  0.3366  1.4584  0.4751
 5271TIP3   OH237447   5.047   3.250   3.054  0.1887 -0.0319 -0.2212
 5271TIP3    H137448   5.004   3.332   3.080  0.6708 -0.0417  0.6508
 5271TIP3    H237449   4.978   3.199   3.011 -0.2948  0.5494 -0.1508
 5272TIP3   OH237450   2.011   6.480   1.321  0.3987 -0.2475 -0.2901
 5272TIP3    H137451   2.008   6.566   1.280 -0.2368 -0.3427 -0.4581
 5272TIP3    H237452   1.926   6.441   1.300  0.3148 -0.5474  0.5856
 5273TIP3   OH237453   2.042   0.797   8.371  0.7115 -0.6305  0.0785
 5273TIP3    H137454   2.085   0.787   8.287  0.1528 -0.3877 -0.2453
 5273TIP3    H237455   1.980   0.869   8.358  0.6620 -0.5490  0.7133
 5274TIP3   OH237456   5.024   3.813   3.251  0.7713 -0.2335  0.2335
 5274TIP3    H137457   5.048   3.737   3.199  0.8169  0.0823 -0.2169
 5274TIP3    H237458   4.999   3.778   3.336 -0.6927 -0.8879 -0.4532
 5275TIP3   OH237459   6.236   5.083   0.146 -0.3474 -0.0738  0.0391
 5275TIP3    H137460   6.171   5.015   0.163 -0.5607  0.1068 -0.0504
 5275TIP3    H237461   6.266   5.066   0.057 -0.5116  0.0418 -0.0379
 5276TIP3   OH237462   0.462   1.175   1.014  0.1242  0.2442 -0.4191
 5276TIP3    H137463   0.516   1.230   0.957  0.0600  0.0851 -0.6319
 5276TIP3    H237464   0.387   1.150   0.960 -0.9850  1.7595  0.3411
 5277TIP3   OH237465   6.602   0.327   8.535 -0.6674 -0.0789 -0.6473
 5277TIP3    H137466   6.692   0.318   8.504 -1.0871 -1.6281 -1.5597
 5277TIP3    H237467   6.586   0.421   8.537  1.1106  0.2470  0.0040
 5278TIP3   OH237468   2.615   2.088   1.316  0.3169 -0.6265 -0.1410
 5278TIP3    H137469   2.692   2.036   1.341 -1.4112 -2.9422  0.6168
 5278TIP3    H237470   2.557   2.027   1.271  0.4930  1.9453 -4.4211
 5279TIP3   OH237471   6.546   1.470   2.703 -0.2495  0.1658  0.0760
 5279TIP3    H137472   6.606   1.399   2.726  1.3119  1.5404  0.4291
 5279TIP3    H237473   6.554   1.478   2.608 -1.1886 -0.7504 -0.0985
 5280TIP3   OH237474   1.589   1.504   4.084 -0.7394 -0.3940  0.0130
 5280TIP3    H137475   1.625   1.549   4.160 -0.7061  0.2797 -0.3833
 5280TIP3    H237476   1.663   1.500   4.022 -0.8882 -0.5280 -0.1559
 5281TIP3   OH237477   1.003   2.285   3.961  0.1149  0.0696  0.0489
 5281TIP3    H137478   1.039   2.371   3.941  0.7991 -0.4963 -1.3159
 5281TIP3    H237479   0.908   2.297   3.960  0.1788  0.5585 -1.3642
 5282TIP3   OH237480   3.048   0.209   1.934  0.3700 -0.4191 -0.0597
 5282TIP3    H137481   3.072   0.117   1.919  1.4277 -0.1340 -0.1494
 5282TIP3    H237482   2.982   0.228   1.867 -0.1350 -1.2142  0.1961
 5283TIP3   OH237483   2.063   0.334   1.003  0.0814  0.4884 -0.8122
 5283TIP3    H137484   2.086   0.417   1.045  2.8071 -0.5788  0.0392
 5283TIP3    H237485   2.016   0.285   1.070  3.2535 -0.6828  0.7677
 5284TIP3   OH237486   0.527   6.625   2.172 -0.0609 -0.2210  0.5493
 5284TIP3    H137487   0.462   6.685   2.134  1.0404  0.5929 -0.0988
 5284TIP3    H237488   0.546   6.663   2.258  0.4967  0.2822  0.2151
 5285TIP3   OH237489   5.437   4.148   0.977  0.1930  0.3168 -0.7793
 5285TIP3    H137490   5.530   4.144   1.001  0.2303  2.1533 -0.5004
 5285TIP3    H237491   5.425   4.235   0.939 -1.6893  0.6606  0.4281
 5286TIP3   OH237492   0.589   0.753   2.503  0.1051  0.2253  0.2017
 5286TIP3    H137493   0.637   0.817   2.450  0.6830  0.2527  0.7478
 5286TIP3    H237494   0.608   0.669   2.461 -0.9768  0.4368 -0.7560
 5287TIP3   OH237495   6.657   6.625   3.643  0.2106  0.0013 -0.2936
 5287TIP3    H137496   6.612   6.593   3.721  0.5617 -1.4013 -0.6213
 5287TIP3    H237497   6.632   6.717   3.635 -1.5920 -0.4228  0.2121
 5288TIP3   OH237498   4.847   2.816   2.331  0.0865  0.0250 -0.6574
 5288TIP3    H137499   4.761   2.851   2.353 -0.4585 -0.8817 -1.2714
 5288TIP3    H237500   4.868   2.855   2.246 -0.5665 -1.1536 -1.3910
 5289TIP3   OH237501   0.236   1.990   3.598  0.4040  0.1689  0.0405
 5289TIP3    H137502   0.263   2.024   3.684 -0.2102  0.8603 -0.0298
 5289TIP3    H237503   0.176   2.056   3.564 -0.5635 -0.8412 -0.2615
 5290TIP3   OH237504   5.183   4.230   1.044 -0.4267  0.5544  0.4884
 5290TIP3    H137505   5.195   4.293   1.115 -2.9572 -0.1168  1.6373
 5290TIP3    H237506   5.256   4.169   1.053  0.3510  1.5851  1.2903
 5291TIP3   OH237507   6.896   0.692   1.240  0.4086 -0.1316 -0.5167
 5291TIP3    H137508   6.968   0.655   1.189  1.3917  1.4199 -0.3112
 5291TIP3    H237509   6.824   0.701   1.177  1.0667  0.1985 -1.2408
 5292TIP3   OH237510   6.061   3.535   8.315 -0.5220 -0.1776  0.1470
 5292TIP3    H137511   6.020   3.530   8.229 -0.6706  0.7804  0.1550
 5292TIP3    H237512   6.152   3.562   8.297 -0.5688  0.0780  0.2895
 5293TIP3   OH237513   5.956   2.179   3.289 -0.3722  0.2421  0.7426
 5293TIP3    H137514   5.997   2.158   3.205  1.7987  1.9717  1.2824
 5293TIP3    H237515   5.879   2.232   3.266 -0.9246 -0.9177 -0.1927
 5294TIP3   OH237516   5.480   2.342   2.563 -0.6183  0.2188  0.2894
 5294TIP3    H137517   5.449   2.253   2.548 -0.8402  0.4022 -0.3889
 5294TIP3    H237518   5.575   2.334   2.568 -0.6163 -0.0184 -0.0716
 5295TIP3   OH237519   1.820   0.978   1.342 -0.1558  0.3482 -0.1679
 5295TIP3    H137520   1.837   1.023   1.259 -1.0491  0.9271 -0.0463
 5295TIP3    H237521   1.904   0.982   1.388 -0.3156  2.3031  0.0281
 5296TIP3   OH237522   1.533   1.193   4.385 -0.3428 -0.2635 -0.0970
 5296TIP3    H137523   1.469   1.256   4.419 -1.4017 -0.4560 -1.5847
 5296TIP3    H237524   1.544   1.129   4.455  1.2519  1.8587  1.7087
 5297TIP3   OH237525   5.087   2.775   2.484 -0.2228 -1.2791  0.4239
 5297TIP3    H137526   5.169   2.822   2.468 -0.2224 -0.3851  2.6392
 5297TIP3    H237527   5.046   2.768   2.398 -0.2453  2.9033 -0.1184
 5298TIP3   OH237528   6.476   4.436   0.495 -0.0044  0.0175  0.3442
 5298TIP3    H137529   6.387   4.451   0.527  0.4090 -0.0169  1.5607
 5298TIP3    H237530   6.473   4.346   0.461 -0.3884 -0.0498  0.5407
 5299TIP3   OH237531   3.074   5.216   3.661 -0.3987 -0.0523  0.3093
 5299TIP3    H137532   3.038   5.186   3.745 -1.3501 -0.4323 -0.2186
 5299TIP3    H237533   3.100   5.306   3.678  3.3301 -1.2566  2.1873
 5300TIP3   OH237534   6.693   1.547   2.961  0.2463  0.5477 -0.2602
 5300TIP3    H137535   6.763   1.485   2.941  1.7892  2.1921 -0.1713
 5300TIP3    H237536   6.629   1.534   2.891  0.1908 -1.5496  0.1041
 5301TIP3   OH237537   2.552   4.508   0.811  0.3151 -0.2268 -0.2379
 5301TIP3    H137538   2.602   4.443   0.861 -1.1507  0.1827  1.8994
 5301TIP3    H237539   2.553   4.586   0.866 -2.4576 -0.1504 -0.1543
 5302TIP3   OH237540   2.597   6.088   2.929 -0.0506  0.1604  0.5595
 5302TIP3    H137541   2.683   6.122   2.954  0.1397  1.2181 -1.3062
 5302TIP3    H237542   2.614   6.034   2.851 -0.9784 -0.2702  0.6424
 5303TIP3   OH237543   6.064   5.631   3.727  0.2216 -0.1296  0.2706
 5303TIP3    H137544   6.071   5.710   3.781 -2.2324  1.5095 -1.5632
 5303TIP3    H237545   5.970   5.623   3.709  0.5812 -2.6403 -0.8407
 5304TIP3   OH237546   4.766   1.975   0.550  0.4569  0.0167 -0.2817
 5304TIP3    H137547   4.697   1.958   0.615  1.2696  2.3332  1.3523
 5304TIP3    H237548   4.759   1.903   0.487 -3.1158 -0.0898  0.0619
 5305TIP3   OH237549   6.228   6.351   0.517  0.0842  0.1206  0.4197
 5305TIP3    H137550   6.311   6.384   0.552  0.3404 -1.9881  1.9938
 5305TIP3    H237551   6.162   6.414   0.548  0.5882 -0.5108  3.0217
 5306TIP3   OH237552   2.581   1.899   3.363  0.6646 -0.6373 -0.1219
 5306TIP3    H137553   2.617   1.840   3.297  1.2447 -0.3388 -0.0846
 5306TIP3    H237554   2.565   1.843   3.439  0.5731 -0.8693 -0.3120
 5307TIP3   OH237555   1.642   1.244   3.078  0.5691  0.3306 -0.0345
 5307TIP3    H137556   1.656   1.310   3.145  1.2448 -0.3790  0.5511
 5307TIP3    H237557   1.573   1.279   3.022  0.8033  1.4413  0.3628
 5308TIP3   OH237558   5.963   0.481   0.753  0.1625 -0.2679 -0.1557
 5308TIP3    H137559   5.868   0.484   0.767  0.5386  1.4045  2.9292
 5308TIP3    H237560   5.984   0.563   0.710  0.3067 -0.1953  0.0500
 5309TIP3   OH237561   3.036   6.862   2.477  0.1478  0.0289 -0.0063
 5309TIP3    H137562   3.046   6.954   2.504  1.2070  0.4417 -1.6278
 5309TIP3    H237563   3.060   6.862   2.384 -0.3291 -1.8199 -0.1701
 5310TIP3   OH237564   0.649   5.632   2.389  0.1098 -0.2927  0.3206
 5310TIP3    H137565   0.692   5.571   2.450  1.4625  0.3816  0.0748
 5310TIP3    H237566   0.578   5.581   2.350 -0.7111 -0.7929  2.3360
 5311TIP3   OH237567   5.439   6.554   2.131  0.2719  0.3080  0.2228
 5311TIP3    H137568   5.502   6.498   2.177 -1.2655  0.2904  2.4873
 5311TIP3    H237569   5.376   6.493   2.092  0.0539  0.3861  0.4489
 5312TIP3   OH237570   1.735   1.472   0.260 -0.2989  0.0096 -0.3478
 5312TIP3    H137571   1.664   1.496   0.320  0.2841 -0.2191  0.4562
 5312TIP3    H237572   1.693   1.462   0.175 -0.9062  1.9000 -0.3293
 5313TIP3   OH237573   2.893   3.832   0.711  0.3553  0.3570 -0.1881
 5313TIP3    H137574   2.964   3.832   0.647  1.9529  1.8148  1.4972
 5313TIP3    H237575   2.876   3.739   0.728  1.1544 -0.0220 -1.3578
 5314TIP3   OH237576   2.309   5.754   0.844 -0.1299 -0.3522  0.0542
 5314TIP3    H137577   2.389   5.708   0.869 -0.5175 -2.3095 -2.0380
 5314TIP3    H237578   2.239   5.707   0.891 -0.1940  0.7308  1.0971
 5315TIP3   OH237579   6.559   6.350   8.404  0.5960  0.5583 -1.0223
 5315TIP3    H137580   6.508   6.407   8.462 -0.4600 -0.1336 -1.2482
 5315TIP3    H237581   6.642   6.396   8.393  1.0140  0.5059  1.3979
 5316TIP3   OH237582   4.747   0.030   2.635  0.6857 -0.2897 -0.0474
 5316TIP3    H137583   4.820   0.086   2.610 -0.0173  0.8818  0.4666
 5316TIP3    H237584   4.675   0.090   2.655 -0.6721 -1.4311 -1.2399
 5317TIP3   OH237585   4.836   5.994   1.666 -0.0157  0.4818  0.1828
 5317TIP3    H137586   4.783   6.042   1.602  0.6068 -0.1902 -0.8838
 5317TIP3    H237587   4.846   5.906   1.628  1.0547  0.3111  0.8033
 5318TIP3   OH237588   6.336   2.180   1.273 -0.5115  0.2128  0.4706
 5318TIP3    H137589   6.423   2.220   1.270 -0.3128 -0.2651 -0.1167
 5318TIP3    H237590   6.330   2.127   1.194 -1.5357  0.6424  0.2352
 5319TIP3   OH237591   0.115   5.092   3.382 -0.0826 -0.2091 -0.0068
 5319TIP3    H137592   0.132   5.150   3.456  0.8001  0.9513 -1.0759
 5319TIP3    H237593   0.043   5.134   3.335  1.9550  1.3338 -2.0029
 5320TIP3   OH237594   1.470   5.422   1.199  0.0149  0.1349 -0.0266
 5320TIP3    H137595   1.450   5.442   1.108 -0.5267 -0.8397 -0.1414
 5320TIP3    H237596   1.390   5.382   1.232 -0.6404  2.5441  1.5546
 5321TIP3   OH237597   6.572   2.672   2.583 -0.1963 -0.3856 -0.2205
 5321TIP3    H137598   6.546   2.745   2.527  0.3613  0.6465  0.8187
 5321TIP3    H237599   6.659   2.696   2.616 -0.1729 -1.3299  0.4623
 5322TIP3   OH237600   1.359   3.110   1.718  0.3036  0.0291 -0.0767
 5322TIP3    H137601   1.361   3.048   1.791  1.5119  1.4471  1.1617
 5322TIP3    H237602   1.422   3.178   1.743 -1.5069  2.1614 -0.9894
 5323TIP3   OH237603   3.310   0.646   3.473  1.3785  0.5291  0.7890
 5323TIP3    H137604   3.390   0.682   3.435  1.7118  1.4020  2.2117
 5323TIP3    H237605   3.310   0.680   3.563 -1.2926  1.6905  0.4441
 5324TIP3   OH237606   3.403   0.738   1.602 -0.7825 -0.8130  0.1313
 5324TIP3    H137607   3.356   0.727   1.520  0.5050 -2.1426 -0.4657
 5324TIP3    H237608   3.347   0.796   1.654 -1.4282  0.4068 -1.8121
 5325TIP3   OH237609   6.046   0.107   1.349 -0.3446  0.3364 -0.5837
 5325TIP3    H137610   6.120   0.147   1.303  0.0598 -0.7039 -0.8656
 5325TIP3    H237611   6.007   0.179   1.399  1.9505  0.5915  0.9991
 5326TIP3   OH237612   4.498   3.641   4.241  0.0464 -0.0235 -0.0062
 5326TIP3    H137613   4.534   3.560   4.205 -0.6638  0.2374 -1.3446
 5326TIP3    H237614   4.413   3.615   4.278 -0.4574  0.1999 -0.9747
 5327TIP3   OH237615   2.177   3.539   1.338  0.4334 -0.2794  0.4198
 5327TIP3    H137616   2.223   3.457   1.317  0.8836  0.0341  0.1736
 5327TIP3    H237617   2.107   3.544   1.272  2.2903  1.0724 -1.5684
 5328TIP3   OH237618   5.581   3.359   3.210 -0.2164  0.0148  0.2088
 5328TIP3    H137619   5.630   3.441   3.220  0.2896 -0.4772  2.1697
 5328TIP3    H237620   5.511   3.381   3.148  0.2236  1.7786  0.2717
 5329TIP3   OH237621   1.385   0.058   1.870  0.1608  0.0185  0.1125
 5329TIP3    H137622   1.383   0.014   1.955 -2.8424  0.9406  0.6582
 5329TIP3    H237623   1.474   0.091   1.862  0.5014  0.0469  3.0076
 5330TIP3   OH237624   4.411   5.843   2.051 -0.3142  0.5984 -0.1186
 5330TIP3    H137625   4.402   5.930   2.089 -1.9361 -0.5169  2.2868
 5330TIP3    H237626   4.496   5.812   2.080 -1.6531 -0.3698  3.2067
 5331TIP3   OH237627   6.668   0.195   1.565 -0.2211  0.0566  0.7843
 5331TIP3    H137628   6.734   0.261   1.583 -1.5169  2.3382 -2.0288
 5331TIP3    H237629   6.716   0.122   1.527  1.0978 -0.2625  2.8789
 5332TIP3   OH237630   6.789   4.527   4.531  0.2535 -0.1766 -0.3198
 5332TIP3    H137631   6.808   4.460   4.597 -4.1642 -0.2791  1.1570
 5332TIP3    H237632   6.799   4.482   4.447 -1.1481 -2.3168  0.5871
 5333TIP3   OH237633   1.813   3.987   1.411  0.0085 -0.5109 -0.0306
 5333TIP3    H137634   1.839   3.920   1.348  0.1399 -1.7231  1.2667
 5333TIP3    H237635   1.748   4.040   1.364  1.0115 -0.5805 -1.5920
 5334TIP3   OH237636   5.697   1.179   0.379 -0.1080  1.1496 -0.3804
 5334TIP3    H137637   5.746   1.212   0.454 -0.7670 -0.9815  1.0878
 5334TIP3    H237638   5.609   1.214   0.390 -0.3137  0.4952  0.1005
 5335TIP3   OH237639   5.180   1.636   2.242  0.4153 -0.0580 -0.3115
 5335TIP3    H137640   5.143   1.584   2.313  0.5079  0.2581 -0.0284
 5335TIP3    H237641   5.256   1.586   2.213  0.6025  0.0028  0.0723
 5336TIP3   OH237642   3.076   5.679   2.440 -0.0170 -0.7265 -0.1154
 5336TIP3    H137643   3.161   5.703   2.475 -0.6660  0.2954  0.8229
 5336TIP3    H237644   3.041   5.760   2.403 -1.5929 -0.5269  1.6780
 5337TIP3   OH237645   1.220   2.530   3.346  0.0020 -0.4489 -0.1637
 5337TIP3    H137646   1.279   2.605   3.340 -0.3955 -0.2155 -1.4942
 5337TIP3    H237647   1.262   2.471   3.409  0.8110  0.4503  0.1557
 5338TIP3   OH237648   4.495   5.794   0.980  0.0294 -0.6645 -0.6416
 5338TIP3    H137649   4.453   5.870   1.022 -1.1953 -1.1850 -0.8984
 5338TIP3    H237650   4.423   5.733   0.963  0.9648 -1.7853 -0.6728
 5339TIP3   OH237651   3.748   3.122   3.340 -0.0035  0.2323  0.3415
 5339TIP3    H137652   3.704   3.201   3.372 -1.7829 -0.9245  0.8438
 5339TIP3    H237653   3.802   3.094   3.414 -0.4364  0.2101  0.6524
 5340TIP3   OH237654   6.698   0.480   8.152 -0.2076 -0.0391  0.3592
 5340TIP3    H137655   6.615   0.441   8.122  0.0865  0.0122 -0.5562
 5340TIP3    H237656   6.677   0.519   8.237 -1.8359  2.2759 -0.9820
 5341TIP3   OH237657   5.546   3.258   2.272  0.4826 -0.1128 -0.3043
 5341TIP3    H137658   5.579   3.236   2.359  0.1773  0.7381  0.0397
 5341TIP3    H237659   5.462   3.213   2.267  1.4781 -1.9794 -1.0389
 5342TIP3   OH237660   3.827   6.425   1.919  0.5811  0.5550 -0.0537
 5342TIP3    H137661   3.915   6.456   1.942  0.9939  0.2976 -1.2043
 5342TIP3    H237662   3.842   6.337   1.885 -0.3104 -0.0657  1.0791
 5343TIP3   OH237663   0.914   6.535   8.022  0.3538  0.7403  0.0903
 5343TIP3    H137664   0.952   6.621   8.003 -0.9393  1.0132 -1.4917
 5343TIP3    H237665   0.984   6.488   8.068  1.1231  2.5742  0.8968
 5344TIP3   OH237666   5.281   3.104   2.028  0.0997 -0.4214 -0.4823
 5344TIP3    H137667   5.274   3.035   1.962 -2.3866 -0.2934 -0.4518
 5344TIP3    H237668   5.364   3.087   2.071  0.7326 -1.8747 -2.1397
 5345TIP3   OH237669   3.853   4.858   1.598 -0.3863  0.6002 -0.0842
 5345TIP3    H137670   3.858   4.771   1.558  0.6148  1.2122 -1.3728
 5345TIP3    H237671   3.945   4.885   1.609 -0.6182  0.7203  2.1442
 5346TIP3   OH237672   1.622   6.453   2.777  0.2794 -0.1281  0.4600
 5346TIP3    H137673   1.573   6.467   2.695  1.6873 -0.4082 -0.4597
 5346TIP3    H237674   1.599   6.364   2.803 -1.0764  0.3562  1.0300
 5347TIP3   OH237675   3.088   1.918   8.581 -0.8076 -0.1439 -0.3706
 5347TIP3    H137676   3.087   1.868   8.663  0.0949  0.9512  0.3380
 5347TIP3    H237677   3.178   1.911   8.550 -1.5204 -2.0516 -2.2837
 5348TIP3   OH237678   4.700   4.391   1.010  0.0093 -0.2477  0.0877
 5348TIP3    H137679   4.641   4.420   1.080 -0.6906 -1.5507  0.0620
 5348TIP3    H237680   4.785   4.428   1.034 -0.6647  1.1561  0.4477
 5349TIP3   OH237681   2.085   4.455   1.552  0.7820  0.2946  0.2090
 5349TIP3    H137682   2.010   4.507   1.578  0.8492  0.4610  0.0692
 5349TIP3    H237683   2.132   4.509   1.489  0.5585 -0.1494 -0.3448
 5350TIP3   OH237684   4.723   0.847   1.969  0.1840 -0.0373  0.0646
 5350TIP3    H137685   4.782   0.898   1.914  0.4347  0.8514  1.1028
 5350TIP3    H237686   4.778   0.778   2.006  0.3361  0.1648  0.2204
 5351TIP3   OH237687   5.568   1.798   1.013  0.1056  0.6148 -0.1489
 5351TIP3    H137688   5.550   1.765   0.925  1.8170  0.6896 -0.5743
 5351TIP3    H237689   5.659   1.773   1.029 -0.2608  0.3383  1.7321
 5352TIP3   OH237690   2.313   4.474   1.038 -0.5686 -0.5005 -0.1546
 5352TIP3    H137691   2.409   4.482   1.044 -0.6197 -0.3784  0.7530
 5352TIP3    H237692   2.295   4.472   0.945  0.0980  2.2726 -0.4284
 5353TIP3   OH237693   5.914   0.147   1.002  0.6454 -0.1134  0.2368
 5353TIP3    H137694   5.834   0.197   0.985  0.0011 -1.2899 -0.2521
 5353TIP3    H237695   5.985   0.212   0.992 -0.2206  0.9254  0.6169
 5354TIP3   OH237696   5.385   0.831   1.277 -0.0777  0.7538 -0.6592
 5354TIP3    H137697   5.290   0.841   1.283 -0.0315  0.4024  0.9740
 5354TIP3    H237698   5.420   0.894   1.339  0.7104  0.1169 -0.4372
 5355TIP3   OH237699   2.337   2.701   3.113  0.1736  0.1346 -0.1885
 5355TIP3    H137700   2.407   2.763   3.134  1.1707 -0.8122 -0.5754
 5355TIP3    H237701   2.344   2.689   3.018  1.3214 -2.0153  0.0982
 5356TIP3   OH237702   6.941   5.135   2.358 -0.2210  0.1762  0.1960
 5356TIP3    H137703   6.869   5.181   2.402  1.7542  1.5733  2.1695
 5356TIP3    H237704   6.897   5.075   2.298 -3.0195  1.2821  0.9605
 5357TIP3   OH237705   0.983   2.235   2.903 -0.6659  0.2538 -0.1881
 5357TIP3    H137706   0.933   2.174   2.957 -1.0595 -0.6580 -1.5155
 5357TIP3    H237707   0.983   2.317   2.952  0.2262 -0.9009  1.8543
 5358TIP3   OH237708   4.925   2.434   2.890 -0.1881  0.1214  0.2942
 5358TIP3    H137709   4.863   2.461   2.957 -1.7165  0.3685 -1.1514
 5358TIP3    H237710   4.885   2.357   2.849  0.1628  0.6028 -1.0270
 5359TIP3   OH237711   3.570   2.242   1.507  0.1535 -0.4895  0.2221
 5359TIP3    H137712   3.579   2.232   1.602 -1.5026 -0.8551  0.3784
 5359TIP3    H237713   3.581   2.154   1.472 -0.5752 -0.5880  0.2224
 5360TIP3   OH237714   3.084   3.696   2.498 -0.0555  0.2845 -0.2351
 5360TIP3    H137715   3.135   3.777   2.495  3.3792 -1.6588  0.0075
 5360TIP3    H237716   3.091   3.666   2.589  0.2958 -1.1404 -0.6962
 5361TIP3   OH237717   1.161   1.824   1.793  0.0075  0.5284 -0.1002
 5361TIP3    H137718   1.147   1.884   1.719  1.3492 -0.8338 -1.5234
 5361TIP3    H237719   1.073   1.807   1.827 -0.8775 -0.2086 -2.5492
 5362TIP3   OH237720   6.739   0.778   2.338  0.5103  0.1863 -0.7097
 5362TIP3    H137721   6.720   0.743   2.251 -1.1557  0.6731 -0.5706
 5362TIP3    H237722   6.747   0.872   2.325  1.5748  0.1350 -0.5284
 5363TIP3   OH237723   3.573   5.378   3.215 -0.1860  0.2340 -0.1950
 5363TIP3    H137724   3.609   5.425   3.291  2.3487  0.6315 -1.5098
 5363TIP3    H237725   3.649   5.364   3.159 -1.9035 -0.4376 -2.4633
 5364TIP3   OH237726   5.917   3.778   0.394 -0.3246  0.1091  0.5388
 5364TIP3    H137727   5.900   3.861   0.348  0.9787  0.6245  0.9215
 5364TIP3    H237728   5.977   3.803   0.465  0.1927 -1.1836  0.5770
 5365TIP3   OH237729   6.123   1.631   2.046  0.0939  0.2382  0.3912
 5365TIP3    H137730   6.115   1.538   2.065 -0.3677  0.0553 -0.6444
 5365TIP3    H237731   6.192   1.637   1.980 -2.1645  0.2186 -2.1559
 5366TIP3   OH237732   2.253   2.377   0.420  0.2384 -0.0140 -0.3115
 5366TIP3    H137733   2.194   2.375   0.344  0.0031  0.6258 -0.1556
 5366TIP3    H237734   2.338   2.403   0.384  0.6570 -1.8069 -0.6721
 5367TIP3   OH237735   3.052   0.215   3.591 -0.2452 -0.5455  0.7831
 5367TIP3    H137736   2.957   0.204   3.582 -0.6769  2.3219  0.6341
 5367TIP3    H237737   3.062   0.284   3.657  1.8304 -1.7336  1.8142
 5368TIP3   OH237738   1.850   2.021   1.861 -0.2212 -0.7187 -0.0614
 5368TIP3    H137739   1.849   2.064   1.776 -0.1363  2.1350  1.2306
 5368TIP3    H237740   1.789   1.948   1.852 -1.3749  0.4114 -2.1434
 5369TIP3   OH237741   4.229   3.557   4.221 -0.1510 -0.2496 -0.1152
 5369TIP3    H137742   4.142   3.519   4.233  0.7184 -2.3578 -0.1196
 5369TIP3    H237743   4.275   3.495   4.165  2.0463 -0.3312  1.6392
 5370TIP3   OH237744   2.795   3.091   3.742 -0.4514  0.0507 -0.0252
 5370TIP3    H137745   2.871   3.123   3.693  0.4695 -0.9520  0.6945
 5370TIP3    H237746   2.729   3.159   3.730  0.6244  1.0588 -0.5082
 5371TIP3   OH237747   5.279   0.584   3.032 -0.5549 -0.2156 -0.0090
 5371TIP3    H137748   5.278   0.652   3.099 -1.6789  0.0563 -0.2884
 5371TIP3    H237749   5.312   0.507   3.077  0.3906  0.4093  0.4037
 5372TIP3   OH237750   1.979   3.775   1.265  0.4242  0.3277 -0.3757
 5372TIP3    H137751   2.038   3.810   1.332  0.7375  1.9445 -1.4509
 5372TIP3    H237752   2.025   3.700   1.229  0.8193  0.2332  0.3025
 5373TIP3   OH237753   0.743   3.056   2.041  0.1957 -0.5223  0.2508
 5373TIP3    H137754   0.727   3.147   2.067 -1.3941 -0.6708 -0.1104
 5373TIP3    H237755   0.786   3.017   2.117 -1.8855 -0.2383  1.6461
 5374TIP3   OH237756   5.061   3.698   3.953  0.7422  0.0974 -0.7073
 5374TIP3    H137757   4.991   3.740   3.905  0.4297  0.2816 -0.1043
 5374TIP3    H237758   5.105   3.769   4.000  1.0232 -0.0808 -0.6939
 5375TIP3   OH237759   2.808   5.449   1.300  0.3224  0.2757  0.1127
 5375TIP3    H137760   2.818   5.444   1.395  1.7231 -0.3321 -0.0496
 5375TIP3    H237761   2.804   5.358   1.271  0.3069  0.4489 -0.4471
 5376TIP3   OH237762   4.578   2.356   8.337 -0.0567  0.3132  0.7205
 5376TIP3    H137763   4.603   2.402   8.256  2.2323 -1.1720  0.4937
 5376TIP3    H237764   4.486   2.333   8.324  0.3461 -0.2378 -1.6786
 5377TIP3   OH237765   0.238   5.799   8.287  0.7260  0.4526 -0.1139
 5377TIP3    H137766   0.258   5.706   8.272 -0.0076  0.1368  0.7732
 5377TIP3    H237767   0.324   5.841   8.296  1.0701 -0.5824  1.9954
 5378TIP3   OH237768   2.030   1.015   3.417 -0.1603 -0.8896 -0.2371
 5378TIP3    H137769   2.088   0.948   3.381 -1.5102 -2.3342  0.1747
 5378TIP3    H237770   2.010   0.985   3.505 -0.2475  0.4289  0.2196
 5379TIP3   OH237771   5.638   0.408   3.067 -0.0408  0.2740  0.5521
 5379TIP3    H137772   5.668   0.479   3.011  1.9840  0.7191  2.0971
 5379TIP3    H237773   5.577   0.448   3.127  0.2785  0.4921  0.7336
 5380TIP3   OH237774   3.993   0.820   2.203  0.0486  0.6705  0.1110
 5380TIP3    H137775   3.998   0.756   2.273 -0.7269  2.2626  1.6943
 5380TIP3    H237776   4.080   0.819   2.163  0.8519  0.4802  1.8010
 5381TIP3   OH237777   1.036   0.053   0.334 -0.0514  0.6283 -0.0829
 5381TIP3    H137778   0.940   0.045   0.332  0.0336 -0.5513 -0.5698
 5381TIP3    H237779   1.064  -0.023   0.386  0.6807  0.1396 -1.1623
 5382TIP3   OH237780   6.162   0.859   3.588 -0.0608 -0.2551 -0.7562
 5382TIP3    H137781   6.134   0.874   3.498 -1.1174  1.5734 -0.1705
 5382TIP3    H237782   6.244   0.908   3.595 -0.9622  1.2430 -0.2302
 5383TIP3   OH237783   6.920   1.802   3.949 -0.1032 -0.2719  0.6805
 5383TIP3    H137784   6.906   1.853   4.029  0.9163 -0.3133  0.8952
 5383TIP3    H237785   6.870   1.849   3.882  0.1934  0.5808  1.0385
 5384TIP3   OH237786   6.929   2.788   0.992  0.1798 -0.3756  0.4290
 5384TIP3    H137787   6.893   2.810   1.078 -0.6767 -3.9596  1.1370
 5384TIP3    H237788   6.857   2.804   0.931 -0.0650 -0.2276  0.7535
 5385TIP3   OH237789   2.912   2.258   0.785  0.0105 -0.3145  0.0853
 5385TIP3    H137790   2.949   2.170   0.794  0.9434  0.0804  0.2319
 5385TIP3    H237791   2.856   2.268   0.862 -1.7268 -1.5129 -0.9342
 5386TIP3   OH237792   5.316   3.932   1.140  0.0354 -0.1185  0.1391
 5386TIP3    H137793   5.305   3.842   1.108 -0.5163  0.0295 -0.0892
 5386TIP3    H237794   5.362   3.977   1.070 -1.1260  0.1925 -0.4423
 5387TIP3   OH237795   1.626   1.912   0.473 -0.1899 -0.0722 -0.1448
 5387TIP3    H137796   1.570   1.959   0.411  0.3674  0.0124 -0.5845
 5387TIP3    H237797   1.614   1.820   0.450  0.1799 -0.0296 -0.5255
 5388TIP3   OH237798   0.073   3.578   2.739  0.6119  0.2667  0.0351
 5388TIP3    H137799   0.041   3.540   2.821  1.4857  0.1524  0.3426
 5388TIP3    H237800  -0.002   3.625   2.702  0.6003  1.6214  1.6663
 5389TIP3   OH237801   2.306   5.399   3.864  0.8806 -0.1094  0.4077
 5389TIP3    H137802   2.236   5.423   3.804  1.7150  1.1749 -0.1223
 5389TIP3    H237803   2.307   5.304   3.865 -1.4795 -0.1895  1.1982
 5390TIP3   OH237804   1.432   6.021   2.190  0.0082  0.2743 -0.4556
 5390TIP3    H137805   1.501   6.052   2.249  0.6141 -1.0319 -0.4420
 5390TIP3    H237806   1.451   6.063   2.106  0.3182  0.5820 -0.2337
 5391TIP3   OH237807   0.067   1.074   1.458  0.3583 -0.1582 -0.3438
 5391TIP3    H137808   0.135   1.104   1.518  1.0601 -0.9391 -0.7144
 5391TIP3    H237809   0.001   1.143   1.460  0.1074 -0.3943  1.7048
 5392TIP3   OH237810   0.707   3.389   2.724  0.1858 -0.0626 -0.3341
 5392TIP3    H137811   0.706   3.474   2.768 -0.6129 -0.2937  0.1217
 5392TIP3    H237812   0.734   3.327   2.792  0.5112 -0.2136 -0.5967
 5393TIP3   OH237813   3.979   2.791   8.464  0.0315 -0.1575  0.4337
 5393TIP3    H137814   3.916   2.745   8.410  0.8220 -0.5313 -0.1923
 5393TIP3    H237815   3.986   2.739   8.544  0.0952 -0.5141  0.1949
 5394TIP3   OH237816   5.610   1.512   1.336 -0.1803 -0.2003  1.0435
 5394TIP3    H137817   5.537   1.530   1.395 -0.8462  2.8925 -0.4928
 5394TIP3    H237818   5.662   1.592   1.337  1.8398 -1.4301  0.2173
 5395TIP3   OH237819   3.948   3.565   1.256 -0.5055 -1.0687  0.2017
 5395TIP3    H137820   3.944   3.523   1.169 -1.7711  0.0275 -0.3127
 5395TIP3    H237821   3.990   3.649   1.240 -0.7634 -0.8516  0.6477
 5396TIP3   OH237822   0.061   5.586   1.590  0.0079  0.6008  0.2185
 5396TIP3    H137823   0.092   5.540   1.512  2.4947  0.1977  1.3498
 5396TIP3    H237824  -0.031   5.605   1.572 -0.6562 -3.1067 -1.1284
 5397TIP3   OH237825   6.352   6.479   0.893 -0.2683 -0.6706  0.0062
 5397TIP3    H137826   6.329   6.390   0.868 -1.1578 -0.4040 -0.1397
 5397TIP3    H237827   6.269   6.524   0.906  0.1349 -0.3425  1.8680
 5398TIP3   OH237828   4.060   5.813   2.703  0.3514 -0.0443  0.0109
 5398TIP3    H137829   3.973   5.853   2.710  0.0408 -0.6146 -0.4862
 5398TIP3    H237830   4.096   5.847   2.621  0.2447 -0.4608 -0.2148
 5399TIP3   OH237831   5.346   5.578   4.254 -0.0011  0.0923 -0.0688
 5399TIP3    H137832   5.409   5.534   4.311 -1.8818  0.7995  2.7762
 5399TIP3    H237833   5.373   5.670   4.256 -2.0041  0.7700  2.7824
 5400TIP3   OH237834   6.270   4.312   3.028 -0.8192  0.1334 -0.2430
 5400TIP3    H137835   6.177   4.296   3.011 -1.0768  1.9215 -0.7701
 5400TIP3    H237836   6.310   4.310   2.941 -0.3523 -0.6332 -0.0168
 5401TIP3   OH237837   1.821   3.318   0.357  0.2515 -0.3325  0.3596
 5401TIP3    H137838   1.739   3.356   0.326  0.7607  0.0909 -0.5296
 5401TIP3    H237839   1.888   3.358   0.301  1.1347 -0.1881  1.4797
 5402TIP3   OH237840   2.186   0.944   0.325  0.2270  0.0957 -0.3407
 5402TIP3    H137841   2.125   0.947   0.251 -1.0226  1.3482  0.6917
 5402TIP3    H237842   2.254   1.008   0.302  0.9000 -0.9082 -1.2447
 5403TIP3   OH237843   6.322   3.977   1.296  0.3189 -0.4593 -0.0591
 5403TIP3    H137844   6.338   4.018   1.210  3.6088  0.8522  0.9902
 5403TIP3    H237845   6.264   4.038   1.341  3.6654  2.4287  0.7931
 5404TIP3   OH237846   5.471   0.611   8.394 -0.1313  0.1351 -0.1838
 5404TIP3    H137847   5.509   0.526   8.419 -0.7347  0.6419  2.8375
 5404TIP3    H237848   5.404   0.589   8.330  1.6604 -1.3060 -1.6973
 5405TIP3   OH237849   4.249   0.789   0.199  0.6015  0.0018  0.1674
 5405TIP3    H137850   4.211   0.875   0.179 -2.8257 -1.2788  0.4010
 5405TIP3    H237851   4.229   0.736   0.122  0.6270 -1.1484  0.9296
 5406TIP3   OH237852   0.325   5.523   1.953  0.4613 -0.3784  0.0605
 5406TIP3    H137853   0.353   5.576   1.878  0.5435 -1.0249 -0.3782
 5406TIP3    H237854   0.397   5.461   1.966  1.5233  1.1682  2.1343
 5407TIP3   OH237855   1.304   3.383   1.920 -0.0900 -0.1712  0.3461
 5407TIP3    H137856   1.238   3.448   1.943  1.7462  1.3137  1.6754
 5407TIP3    H237857   1.296   3.316   1.988  0.5527  0.6280  1.2378
 5408TIP3   OH237858   4.202   5.649   3.236 -0.0758 -0.4874 -0.7251
 5408TIP3    H137859   4.131   5.711   3.222  0.6802  0.8452  1.0373
 5408TIP3    H237860   4.259   5.661   3.160 -1.2463 -0.9543 -1.7185
 5409TIP3   OH237861   4.255   1.193   3.192  0.2153 -0.0278 -0.1558
 5409TIP3    H137862   4.279   1.283   3.169  0.0820 -0.0699 -0.4605
 5409TIP3    H237863   4.305   1.175   3.272 -1.8595  1.2697  1.5375
 5410TIP3   OH237864   0.217   0.520   1.167 -0.0936  0.0049  0.2226
 5410TIP3    H137865   0.305   0.536   1.135 -0.0159  0.6546  0.7487
 5410TIP3    H237866   0.161   0.530   1.089  0.4370 -2.1181 -0.4819
 5411TIP3   OH237867   4.475   3.643   3.686  0.0293 -0.1266 -0.2280
 5411TIP3    H137868   4.526   3.581   3.738  0.3499  1.0108  0.8552
 5411TIP3    H237869   4.460   3.598   3.603  2.0657 -0.8342 -0.2716
 5412TIP3   OH237870   5.319   3.834   0.780 -0.9522  0.0130 -0.7659
 5412TIP3    H137871   5.249   3.896   0.800 -0.0067  0.7314  0.4783
 5412TIP3    H237872   5.316   3.770   0.851 -0.8018 -0.3564 -1.0895
 5413TIP3   OH237873   6.195   3.600   2.559 -0.1850 -0.4559 -0.4497
 5413TIP3    H137874   6.112   3.580   2.603  0.0896  0.4524  0.5176
 5413TIP3    H237875   6.253   3.628   2.630  0.6174 -0.0345 -1.2623
 5414TIP3   OH237876   6.413   1.188   8.450  0.0294  1.1296  0.0645
 5414TIP3    H137877   6.424   1.283   8.438 -1.2788  1.3214  0.2698
 5414TIP3    H237878   6.364   1.160   8.374  0.7805  0.5264 -0.2061
 5415TIP3   OH237879   0.914   5.093   1.628 -0.2645 -0.4522 -0.1498
 5415TIP3    H137880   0.907   5.155   1.556 -0.2544  0.1943  0.3932
 5415TIP3    H237881   0.894   5.008   1.589  0.2240 -0.1855 -1.0131
 5416TIP3   OH237882   1.923   0.288   0.343 -0.4383  0.7474  0.0075
 5416TIP3    H137883   1.920   0.300   0.248 -0.1839 -1.1776 -0.2869
 5416TIP3    H237884   1.846   0.335   0.375 -1.8898 -0.5128 -1.4232
 5417TIP3   OH237885   4.374   2.338   1.530 -0.2374 -0.4195  0.2709
 5417TIP3    H137886   4.288   2.327   1.572  0.2323 -1.6192  0.9609
 5417TIP3    H237887   4.434   2.287   1.585  1.0779  1.0770  0.2792
 5418TIP3   OH237888   0.912   2.850   4.354  0.0064  0.1485  0.5994
 5418TIP3    H137889   0.895   2.841   4.260  1.4523  0.9306  0.2449
 5418TIP3    H237890   0.880   2.769   4.392 -2.4011  0.5950 -0.2854
 5419TIP3   OH237891   5.395   1.644   8.378  0.0694  0.0773  0.2600
 5419TIP3    H137892   5.462   1.632   8.446  0.4488  0.6024 -0.0212
 5419TIP3    H237893   5.444   1.652   8.297 -0.2914  1.2268  0.1478
 5420TIP3   OH237894   4.143   1.768   2.835 -0.0245  0.5677  0.0172
 5420TIP3    H137895   4.197   1.785   2.913 -2.2415  0.0615  1.7609
 5420TIP3    H237896   4.123   1.675   2.839  1.3055  0.0976 -2.2631
 5421TIP3   OH237897   5.241   6.339   1.489 -0.3201  0.4761  0.2819
 5421TIP3    H137898   5.307   6.271   1.472 -1.1559 -0.8490  1.9166
 5421TIP3    H237899   5.159   6.290   1.499 -1.4593  2.0235 -1.0706
 5422TIP3   OH237900   6.308   3.022   2.538 -0.2404 -0.0896  0.0556
 5422TIP3    H137901   6.265   3.103   2.566 -0.9241 -0.0553 -1.0548
 5422TIP3    H237902   6.253   2.988   2.468  0.7180 -0.8769 -0.3395
 5423TIP3   OH237903   2.739   6.282   2.651  0.3303  0.1764  0.7907
 5423TIP3    H137904   2.707   6.261   2.563  1.9755 -0.2113  0.2623
 5423TIP3    H237905   2.829   6.309   2.638  0.4421  0.6288  2.3193
 5424TIP3   OH237906   4.118   3.401   2.603 -0.0637 -0.3988  0.1830
 5424TIP3    H137907   4.193   3.344   2.618 -0.2611 -0.7140 -0.0126
 5424TIP3    H237908   4.117   3.460   2.678  0.3198 -0.4570  0.2364
 5425TIP3   OH237909   4.698   3.873   1.941  0.0252  0.1527 -0.1908
 5425TIP3    H137910   4.640   3.938   1.901  1.0804  1.4249  0.2585
 5425TIP3    H237911   4.769   3.863   1.879  0.1868 -0.0892  0.0329
 5426TIP3   OH237912   0.827   6.714   3.193  0.3049 -0.5513  0.0352
 5426TIP3    H137913   0.770   6.659   3.247  0.3355  0.9619  1.6897
 5426TIP3    H237914   0.769   6.781   3.158  0.5714 -0.6261 -0.5560
 5427TIP3   OH237915   5.046   5.220   2.637 -0.6082 -0.2159 -0.6763
 5427TIP3    H137916   5.022   5.196   2.547 -1.4622 -1.9635 -0.0377
 5427TIP3    H237917   4.978   5.180   2.691  0.1864  0.3469  0.7998
 5428TIP3   OH237918   1.354   6.703   2.813  0.9074 -0.0222 -0.2349
 5428TIP3    H137919   1.305   6.728   2.734 -2.6266 -1.3413  1.2999
 5428TIP3    H237920   1.399   6.783   2.839  0.0914  1.1635 -2.1969
 5429TIP3   OH237921   1.747   6.762   3.684  0.2046  0.0080  0.5975
 5429TIP3    H137922   1.667   6.712   3.665  0.3255  1.0001 -3.5436
 5429TIP3    H237923   1.717   6.838   3.733 -0.5256 -2.0452  3.5776
 5430TIP3   OH237924   5.501   3.659   8.456 -0.1996 -0.1501 -0.1483
 5430TIP3    H137925   5.561   3.673   8.382  0.7061  1.5968  0.8374
 5430TIP3    H237926   5.426   3.715   8.436  0.8822  1.8677  1.0692
 5431TIP3   OH237927   5.404   0.229   2.648  0.0965 -0.0869  0.1617
 5431TIP3    H137928   5.315   0.216   2.682  0.3839 -1.3390  0.4877
 5431TIP3    H237929   5.417   0.157   2.586  0.6972  0.3954 -0.2913
 5432TIP3   OH237930   0.376   5.146   3.282  0.4114  0.3466  0.0934
 5432TIP3    H137931   0.283   5.165   3.294  0.7016  1.2257  1.0250
 5432TIP3    H237932   0.389   5.061   3.324 -0.2065 -0.4028 -1.1552
 5433TIP3   OH237933   0.961   4.510   1.349 -0.2739  0.0354  0.1617
 5433TIP3    H137934   0.969   4.440   1.284 -1.2589 -1.5728  1.6756
 5433TIP3    H237935   0.878   4.552   1.328 -1.3881 -1.5046  1.2349
 5434TIP3   OH237936   4.679   5.909   0.138  0.0141 -0.0790  0.5502
 5434TIP3    H137937   4.715   5.841   0.081  1.0073  0.6778  0.2347
 5434TIP3    H237938   4.665   5.984   0.081 -2.2035 -0.3504  0.6575
 5435TIP3   OH237939   5.993   0.636   3.151 -0.1355 -0.3002  0.1985
 5435TIP3    H137940   5.993   0.726   3.119  1.6536 -0.0899  0.6742
 5435TIP3    H237941   6.085   0.613   3.156 -0.4746 -1.4361  2.0612
 5436TIP3   OH237942   6.229   3.111   1.966  0.4327 -0.1851  0.2078
 5436TIP3    H137943   6.252   3.184   2.024 -1.9894 -0.7044  1.9961
 5436TIP3    H237944   6.207   3.153   1.882 -2.1426  1.4299  1.5408
 5437TIP3   OH237945   1.131   3.244   1.681 -0.2581  0.3676 -0.2328
 5437TIP3    H137946   1.186   3.167   1.673  0.3134  0.8954 -1.7702
 5437TIP3    H237947   1.182   3.305   1.734  1.2037  1.2716 -2.5451
 5438TIP3   OH237948   5.487   0.656   2.154  0.3734  0.3128  0.3797
 5438TIP3    H137949   5.581   0.670   2.161  0.9452 -2.0550 -1.3474
 5438TIP3    H237950   5.462   0.614   2.236  1.5983 -2.3677 -0.5272
 5439TIP3   OH237951   6.145   2.868   2.391 -0.3745 -0.3490 -0.3184
 5439TIP3    H137952   6.077   2.918   2.436  2.7015  0.2612  4.3542
 5439TIP3    H237953   6.127   2.777   2.412 -1.0738 -0.4405 -1.2599
 5440TIP3   OH237954   5.308   4.352   1.783  0.1212  0.4566  0.0202
 5440TIP3    H137955   5.401   4.356   1.761  0.1531  0.5674  0.1812
 5440TIP3    H237956   5.280   4.266   1.749  0.2344  0.5081 -0.2076
 5441TIP3   OH237957   2.121   5.557   0.893  0.0846  0.1608  0.0823
 5441TIP3    H137958   2.050   5.619   0.909 -0.2941 -0.1071 -0.5213
 5441TIP3    H237959   2.078   5.472   0.891  0.6218 -0.1447  1.0479
 5442TIP3   OH237960   1.074   1.198   0.052  0.2443 -0.4042  0.0193
 5442TIP3    H137961   1.007   1.256   0.015  0.1523 -0.0634  0.7076
 5442TIP3    H237962   1.105   1.147  -0.023  0.5764  0.7805 -0.6870
 5443TIP3   OH237963   5.909   2.095   4.462  1.1481 -0.0271 -0.4751
 5443TIP3    H137964   5.967   2.124   4.390  0.1305 -0.4023 -1.4765
 5443TIP3    H237965   5.937   2.005   4.480  2.3654  0.5497  0.6155
 5444TIP3   OH237966   5.969   3.988   2.465  0.3475 -0.1977 -0.1154
 5444TIP3    H137967   6.055   4.028   2.471  0.0364  0.3810  0.6520
 5444TIP3    H237968   5.953   3.951   2.552  0.0242 -0.7470 -0.3973
 5445TIP3   OH237969   2.265   0.910   2.820 -0.0901  0.3402 -0.4872
 5445TIP3    H137970   2.301   0.879   2.903  1.3243 -0.0344 -1.1988
 5445TIP3    H237971   2.259   1.005   2.830  2.2024  0.5596 -0.6994
 5446TIP3   OH237972   6.236   5.637   0.131  0.2087 -0.1887 -0.0995
 5446TIP3    H137973   6.289   5.559   0.152  0.3747  0.2036  1.0069
 5446TIP3    H237974   6.245   5.693   0.208 -3.1995 -0.8314  0.9474
 5447TIP3   OH237975   1.166   6.760   0.468 -0.7205  0.2287  0.3741
 5447TIP3    H137976   1.153   6.738   0.560 -0.2477  0.4111  0.4897
 5447TIP3    H237977   1.180   6.676   0.425  0.0047  0.2015  0.6358
 5448TIP3   OH237978   0.070   5.943   1.891  0.3297 -0.5441 -0.0453
 5448TIP3    H137979   0.073   5.914   1.800 -2.0019  0.9496 -0.6562
 5448TIP3    H237980   0.020   5.874   1.936 -0.0348 -0.4193 -0.2576
 5449TIP3   OH237981   4.389   6.041   1.061 -0.2465  0.2832  0.1423
 5449TIP3    H137982   4.430   6.103   1.000  0.1727  1.6052  1.7016
 5449TIP3    H237983   4.343   6.097   1.123 -1.6302 -1.0767  0.3916
 5450TIP3   OH237984   4.122   5.929   0.026 -0.1324 -0.2766  0.1346
 5450TIP3    H137985   4.120   5.913   0.120  0.6027 -2.2981 -0.1453
 5450TIP3    H237986   4.140   6.023   0.018  0.3604 -0.1734  2.0015
 5451TIP3   OH237987   6.092   1.434   3.197  0.1420 -0.4356  0.3746
 5451TIP3    H137988   6.068   1.489   3.272 -1.4572 -0.7472  0.1388
 5451TIP3    H237989   6.021   1.370   3.191 -0.0122 -0.1459 -1.6656
 5452TIP3   OH237990   1.993   5.011   0.380  0.9014  0.1969 -0.0099
 5452TIP3    H137991   2.081   5.028   0.414  1.2259 -1.0336 -0.1893
 5452TIP3    H237992   1.985   4.916   0.379 -0.0743  0.2625 -0.9153
 5453TIP3   OH237993   5.616   5.541   1.119 -0.3714 -0.6978  0.0806
 5453TIP3    H137994   5.581   5.573   1.203 -0.4129 -1.4765  0.3674
 5453TIP3    H237995   5.707   5.568   1.119 -0.3535 -0.7519  0.4126
 5454TIP3   OH237996   2.789   2.302   0.549  0.2286  0.1017  0.4524
 5454TIP3    H137997   2.842   2.243   0.494  0.9300 -0.9306  2.1436
 5454TIP3    H237998   2.829   2.295   0.636 -0.7756  1.7596  1.0889
 5455TIP3   OH237999   6.311   3.035   0.111 -0.1344 -0.7876  0.0413
 5455TIP3    H138000   6.239   3.098   0.105  0.7789  0.3058  0.1913
 5455TIP3    H238001   6.381   3.075   0.059  1.2521 -0.5451  2.0110
 5456TIP3   OH238002   2.251   4.303   3.657 -0.3742 -0.4568  0.2706
 5456TIP3    H138003   2.281   4.271   3.572 -1.0652 -0.6308  0.0827
 5456TIP3    H238004   2.268   4.230   3.717  0.3838 -0.2263  0.3493
 5457TIP3   OH238005   0.630   2.624   0.972 -0.0832 -0.0325 -0.5325
 5457TIP3    H138006   0.627   2.719   0.971  0.5342  0.0029  0.2192
 5457TIP3    H238007   0.563   2.598   1.035 -0.8962 -0.1393 -1.4244
 5458TIP3   OH238008   5.241   4.467   1.294  0.6150 -0.4131 -0.4926
 5458TIP3    H138009   5.313   4.521   1.325  1.9678 -1.4856 -1.6284
 5458TIP3    H238010   5.166   4.493   1.348  2.0682  0.0497  1.3988
 5459TIP3   OH238011   0.281   4.152   3.196  0.5161 -0.1644 -0.5815
 5459TIP3    H138012   0.362   4.181   3.237  0.1185  1.3000 -0.7948
 5459TIP3    H238013   0.309   4.109   3.115  1.1712 -1.2407  0.1866
 5460TIP3   OH238014   6.396   1.448   8.370 -0.3202  0.3604 -0.2551
 5460TIP3    H138015   6.429   1.519   8.425  1.6251 -0.1022 -0.7568
 5460TIP3    H238016   6.303   1.467   8.359 -0.1846  1.8977  0.9990
 5461TIP3   OH238017   4.650   1.561   3.753  0.5602  0.0761  0.3031
 5461TIP3    H138018   4.597   1.633   3.719  1.8300  0.0863 -1.8583
 5461TIP3    H238019   4.624   1.485   3.700  1.2552 -0.3871  0.6065
 5462TIP3   OH238020   5.244   3.368   1.679 -0.2934 -0.0554  0.4679
 5462TIP3    H138021   5.329   3.329   1.701  0.8487  1.8166 -0.3832
 5462TIP3    H238022   5.214   3.406   1.761 -0.1215 -0.3627  0.6773
 5463TIP3   OH238023   4.773   4.943   2.087  0.2935 -0.1785  0.3431
 5463TIP3    H138024   4.709   4.897   2.032 -0.5469  0.3613  0.8437
 5463TIP3    H238025   4.801   5.017   2.033 -0.1731  0.0803  0.4453
 5464TIP3   OH238026   0.747   3.060   8.004  0.3366  0.6207 -0.2673
 5464TIP3    H138027   0.834   3.101   8.009  0.3091  0.5572  1.2865
 5464TIP3    H238028   0.751   2.988   8.067 -0.5519  0.0323 -0.8665
 5465TIP3   OH238029   3.182   3.873   8.525 -0.3778 -0.4477  1.2261
 5465TIP3    H138030   3.150   3.924   8.451  1.1058 -0.1606  0.7469
 5465TIP3    H238031   3.238   3.806   8.485 -1.8810 -2.1814  1.8746
 5466TIP3   OH238032   2.267   4.328   0.463 -0.9838 -0.1777 -0.1038
 5466TIP3    H138033   2.336   4.291   0.518 -1.3697  1.8936  1.9472
 5466TIP3    H238034   2.274   4.281   0.380  1.6973 -1.2892  0.6445
 5467TIP3   OH238035   2.722   3.741   8.075 -0.4944  0.7440  0.3042
 5467TIP3    H138036   2.807   3.718   8.036 -1.0222 -0.2241 -0.3258
 5467TIP3    H238037   2.733   3.723   8.168 -0.4449 -0.8103  0.0263
 5468TIP3   OH238038   1.706   4.535   0.572 -0.2849 -0.2441 -0.2417
 5468TIP3    H138039   1.782   4.583   0.604  0.2965 -1.0179 -0.4313
 5468TIP3    H238040   1.665   4.499   0.651  1.1196 -2.1096 -0.2919
 5469TIP3   OH238041   6.013   3.567   1.644  0.3492  0.7377  0.0727
 5469TIP3    H138042   5.999   3.493   1.586  0.1841  0.9451 -0.1525
 5469TIP3    H238043   6.021   3.528   1.731  0.9651  0.3939 -0.1312
 5470TIP3   OH238044   2.651   2.056   2.198  0.2583  0.0395 -0.2346
 5470TIP3    H138045   2.663   2.102   2.114  3.6476 -1.0730 -0.5242
 5470TIP3    H238046   2.666   2.124   2.264  1.7649  0.1340 -0.6292
 5471TIP3   OH238047   4.695   2.955   2.548 -0.7333  0.0906 -0.2646
 5471TIP3    H138048   4.632   3.022   2.521 -0.9220  0.1461  0.3093
 5471TIP3    H238049   4.777   3.003   2.562 -1.0062  0.2954  0.6815
 5472TIP3   OH238050   2.338   0.385   8.540 -0.8707  0.2997  0.1048
 5472TIP3    H138051   2.297   0.409   8.623 -1.6783  1.5185 -0.6135
 5472TIP3    H238052   2.342   0.290   8.541 -2.3733  0.2264  0.8367
 5473TIP3   OH238053   3.936   2.107   1.343 -0.4074  0.0006 -0.5432
 5473TIP3    H138054   4.031   2.116   1.334 -0.5334  0.6352 -1.4338
 5473TIP3    H238055   3.924   2.066   1.428  0.7203 -1.3736 -0.9908
 5474TIP3   OH238056   1.824   4.096   3.150  0.2071 -0.1485 -0.1529
 5474TIP3    H138057   1.823   4.015   3.201  0.8808 -0.0681 -0.0076
 5474TIP3    H238058   1.911   4.099   3.110 -0.1942 -0.0535 -1.0573
 5475TIP3   OH238059   3.474   3.480   0.581 -0.4598 -0.4322  0.2694
 5475TIP3    H138060   3.407   3.510   0.642 -1.0439 -0.4363 -0.3604
 5475TIP3    H238061   3.525   3.559   0.561 -0.6878 -0.2904  0.2431
 5476TIP3   OH238062   2.545   4.919   2.717  0.1317  0.9598 -0.4791
 5476TIP3    H138063   2.486   4.977   2.765  0.1412  0.0257  0.7329
 5476TIP3    H238064   2.616   4.976   2.687  0.0167  1.6267  0.4672
 5477TIP3   OH238065   2.634   0.950   0.272 -0.6314  0.7753 -0.0743
 5477TIP3    H138066   2.554   0.909   0.239 -0.1175  0.7989 -1.4538
 5477TIP3    H238067   2.607   1.039   0.295 -1.1421  0.5676  0.1468
 5478TIP3   OH238068   5.393   2.061   1.965 -0.3200 -0.1850 -0.5908
 5478TIP3    H138069   5.394   1.980   2.016  2.2438  0.0251 -0.1599
 5478TIP3    H238070   5.304   2.067   1.931 -0.7531 -2.8584 -0.1496
 5479TIP3   OH238071   0.915   0.479   2.959  0.1506 -0.1532  0.2996
 5479TIP3    H138072   0.938   0.386   2.964  1.3411  0.0583 -0.7774
 5479TIP3    H238073   0.998   0.525   2.969 -0.4090  0.8003  0.6638
 5480TIP3   OH238074   4.238   5.883   0.479 -0.3898 -0.2819 -0.3763
 5480TIP3    H138075   4.297   5.817   0.516 -0.9288 -0.5980 -0.0624
 5480TIP3    H238076   4.295   5.958   0.460 -0.1576  0.0899  1.5527
 5481TIP3   OH238077   0.230   1.139   2.443 -0.5501 -0.9494 -0.0029
 5481TIP3    H138078   0.201   1.087   2.368  2.1105  1.4216 -2.9834
 5481TIP3    H238079   0.321   1.114   2.456 -0.3192  0.2974  0.9630
 5482TIP3   OH238080   5.263   2.768   8.516  0.3528 -0.3032 -0.5416
 5482TIP3    H138081   5.355   2.775   8.538  0.2092  0.6915 -0.1739
 5482TIP3    H238082   5.261   2.757   8.421  0.8653 -1.0188 -0.4694
 5483TIP3   OH238083   0.397   4.543   3.514 -0.4173  0.0120 -0.0586
 5483TIP3    H138084   0.436   4.520   3.429 -0.9646 -0.1213 -0.2720
 5483TIP3    H238085   0.463   4.600   3.554  0.7052 -1.4102  0.2312
 5484TIP3   OH238086   5.720   2.230   0.923  0.4998  0.6257  0.3605
 5484TIP3    H138087   5.653   2.169   0.952  0.2205  1.0594  0.6310
 5484TIP3    H238088   5.773   2.247   1.001  1.0010  0.1990  0.1234
 5485TIP3   OH238089   6.188   2.289   0.195 -0.4640 -0.1093 -0.5855
 5485TIP3    H138090   6.258   2.284   0.259 -0.3667  0.6351 -0.6173
 5485TIP3    H238091   6.226   2.253   0.115 -0.3041 -0.2422 -0.4497
 5486TIP3   OH238092   3.022   6.605   0.805 -0.4198  0.2043 -0.0675
 5486TIP3    H138093   3.013   6.696   0.780  0.8196  0.3433 -0.0516
 5486TIP3    H238094   3.078   6.566   0.738 -0.4037 -0.3814  0.2760
 5487TIP3   OH238095   1.616   0.162   0.611  0.0087 -0.7154  0.1176
 5487TIP3    H138096   1.672   0.087   0.632 -0.5561 -1.3860 -0.6897
 5487TIP3    H238097   1.543   0.155   0.672  0.1886 -0.5303  0.3616
 5488TIP3   OH238098   5.077   5.218   2.197 -0.0508 -0.0831  0.6310
 5488TIP3    H138099   5.006   5.201   2.135 -0.7685 -1.1547  1.7145
 5488TIP3    H238100   5.156   5.216   2.143 -0.6981 -0.4616 -0.3399
 5489TIP3   OH238101   2.235   6.047   8.204  0.2876  0.1525 -0.0291
 5489TIP3    H138102   2.188   6.002   8.274 -1.6001 -2.1734 -2.5755
 5489TIP3    H238103   2.294   5.981   8.168  0.5376  0.9702 -1.2010
 5490TIP3   OH238104   6.603   1.597   1.394 -0.3108 -0.2468 -0.4469
 5490TIP3    H138105   6.666   1.568   1.328  1.4791 -0.8947  1.4504
 5490TIP3    H238106   6.640   1.678   1.429 -0.1891 -0.9381  1.0935
 5491TIP3   OH238107   6.336   5.774   3.813  0.0002  0.1076 -0.4050
 5491TIP3    H138108   6.361   5.683   3.831 -0.5289  0.2000  0.9228
 5491TIP3    H238109   6.248   5.782   3.850  0.9347  1.7798  1.6968
 5492TIP3   OH238110   3.551   1.988   0.114  0.2936  0.3099  0.8200
 5492TIP3    H138111   3.529   2.080   0.101  0.3256  0.0301 -2.0287
 5492TIP3    H238112   3.632   1.988   0.164 -0.0333  1.7936  1.3822
 5493TIP3   OH238113   4.792   0.510   1.332  0.3358 -0.5897  0.4726
 5493TIP3    H138114   4.769   0.587   1.281  1.5793 -0.9199 -0.6259
 5493TIP3    H238115   4.882   0.526   1.361 -0.3630 -0.3326  2.7648
 5494TIP3   OH238116   1.292   2.334   3.497  0.0114  0.1600 -0.3358
 5494TIP3    H138117   1.277   2.240   3.497  0.0686  0.1496 -0.0428
 5494TIP3    H238118   1.291   2.359   3.590  0.2675  0.4034 -0.3959
 5495TIP3   OH238119   3.382   1.051   1.041  0.2946  0.2066  0.2122
 5495TIP3    H138120   3.405   1.004   1.121 -0.1523 -0.3777  0.0043
 5495TIP3    H238121   3.451   1.029   0.979 -0.6735 -1.3964 -0.3521
 5496TIP3   OH238122   5.299   0.164   1.239  0.6221 -0.0746  0.2564
 5496TIP3    H138123   5.213   0.126   1.219  1.0910 -1.4731  0.7516
 5496TIP3    H238124   5.295   0.253   1.204 -0.5420 -0.5762 -0.9591
 5497TIP3   OH238125   0.657   2.921   1.256  0.5272  0.0205 -0.3258
 5497TIP3    H138126   0.678   2.887   1.343 -0.0331  0.3413 -0.0609
 5497TIP3    H238127   0.593   2.859   1.220  1.8162 -0.9006 -1.0911
 5498TIP3   OH238128   0.703   0.450   7.782  0.7188 -0.0307  0.1565
 5498TIP3    H138129   0.634   0.396   7.823  1.4602  1.3787  3.6404
 5498TIP3    H238130   0.763   0.387   7.743  0.1393 -1.5983  1.6730
 5499TIP3   OH238131   2.423   5.722   2.234 -0.0344 -0.6451  0.2251
 5499TIP3    H138132   2.397   5.648   2.289 -1.7082 -0.2264  0.0430
 5499TIP3    H238133   2.515   5.735   2.255 -0.1540 -1.6727  1.5568
 5500TIP3   OH238134   1.361   5.787   1.532 -0.3174  0.2312 -0.4284
 5500TIP3    H138135   1.361   5.783   1.436  3.2062 -0.1412 -0.5337
 5500TIP3    H238136   1.393   5.702   1.561  3.5944  1.8155  0.6867
 5501TIP3   OH238137   4.979   5.887   2.852  0.3113 -0.0018  0.0638
 5501TIP3    H138138   5.055   5.841   2.888 -1.4917 -2.0730  1.5739
 5501TIP3    H238139   4.941   5.824   2.790 -0.6971  0.6054  0.0484
 5502TIP3   OH238140   2.664   3.743   3.494 -0.1702 -0.3467 -0.2593
 5502TIP3    H138141   2.689   3.789   3.575  1.1636  0.0955 -0.8928
 5502TIP3    H238142   2.743   3.746   3.440 -1.6020  1.1754 -2.4263
 5503TIP3   OH238143   3.704   3.587   0.305 -0.1252 -0.8102  0.1102
 5503TIP3    H138144   3.669   3.545   0.226  0.7525 -0.9712 -0.2082
 5503TIP3    H238145   3.744   3.515   0.354  1.5981 -0.3449 -0.5473
 5504TIP3   OH238146   6.334   0.452   3.008  0.4720 -0.2549 -0.0578
 5504TIP3    H138147   6.274   0.436   3.081  1.5687 -2.6167  0.4091
 5504TIP3    H238148   6.322   0.378   2.950  1.9496 -0.0656 -0.6428
 5505TIP3   OH238149   5.390   5.213   1.076  0.5866 -0.1374  0.0107
 5505TIP3    H138150   5.373   5.120   1.060  1.8462 -0.0727 -2.1417
 5505TIP3    H238151   5.365   5.227   1.168 -0.7133 -2.3094  0.0560
 5506TIP3   OH238152   1.704   1.181   3.395  0.6002  1.1158  0.2927
 5506TIP3    H138153   1.704   1.237   3.472 -0.2343  1.4179  0.0828
 5506TIP3    H238154   1.731   1.095   3.427  0.7525  1.3622  0.8256
 5507TIP3   OH238155   4.356   4.306   1.767 -0.4880 -0.2133  0.3491
 5507TIP3    H138156   4.392   4.250   1.836  1.9336  0.7593 -0.0062
 5507TIP3    H238157   4.278   4.345   1.805 -0.9762 -2.0930  1.3781
 5508TIP3   OH238158   1.442   3.789   2.838 -0.0187  0.4374 -0.6060
 5508TIP3    H138159   1.378   3.851   2.873 -0.7242 -0.6065  0.0060
 5508TIP3    H238160   1.438   3.714   2.897  1.4150  0.1391 -0.8504
 5509TIP3   OH238161   2.585   5.905   0.906  0.0242 -0.2197  0.7051
 5509TIP3    H138162   2.537   5.833   0.947  0.9478 -0.5849  1.1627
 5509TIP3    H238163   2.518   5.955   0.859 -0.7791 -0.7930  1.2281
 5510TIP3   OH238164   2.433   1.419   3.023 -0.3719 -0.2826  0.2648
 5510TIP3    H138165   2.339   1.408   3.007 -0.5219  0.2807  0.7249
 5510TIP3    H238166   2.437   1.475   3.100  0.3524  0.4495 -0.2939
 5511TIP3   OH238167   0.551   0.000   1.804  0.0754  0.3031  0.2508
 5511TIP3    H138168   0.484   0.064   1.826  1.4035  2.4251 -1.4379
 5511TIP3    H238169   0.520  -0.042   1.724 -0.0608 -0.0083  0.4667
 5512TIP3   OH238170   4.060   4.582   1.570  0.1711  0.2016  0.4215
 5512TIP3    H138171   4.012   4.499   1.574  2.3224 -1.2131 -1.1206
 5512TIP3    H238172   4.028   4.623   1.489 -0.0625  0.3528  0.5879
 5513TIP3   OH238173   6.592   0.110   1.815  0.1409 -0.3581  0.4470
 5513TIP3    H138174   6.580   0.135   1.723  2.0030 -0.0709  0.2548
 5513TIP3    H238175   6.611   0.193   1.860  3.4863 -0.9278  0.3035
 5514TIP3   OH238176   0.823   3.813   8.431 -0.1413 -0.2053 -0.1351
 5514TIP3    H138177   0.918   3.810   8.423 -0.2652 -1.3235 -1.7550
 5514TIP3    H238178   0.794   3.724   8.411 -1.4129 -0.5441  2.7884
 5515TIP3   OH238179   1.657   1.171   0.104  0.2207 -0.4331 -0.7576
 5515TIP3    H138180   1.618   1.172   0.017  1.5271 -2.1659 -1.4250
 5515TIP3    H238181   1.584   1.152   0.163 -0.3884 -0.9692 -1.6602
 5516TIP3   OH238182   0.863   5.703   3.947 -0.2517  0.1163 -0.3929
 5516TIP3    H138183   0.890   5.749   3.867 -1.3053  0.1353 -0.7505
 5516TIP3    H238184   0.897   5.757   4.018  0.3490  0.3134 -0.8229
 5517TIP3   OH238185   3.468   3.329   0.282  0.2258 -0.3435  0.1522
 5517TIP3    H138186   3.546   3.279   0.307 -0.4851 -1.3943  0.3737
 5517TIP3    H238187   3.441   3.374   0.363 -1.8939 -3.4967  1.4284
 5518TIP3   OH238188   2.968   3.701   7.980 -0.7590  0.4664  0.0343
 5518TIP3    H138189   2.972   3.606   7.984 -1.6200  0.1900 -3.0329
 5518TIP3    H238190   3.051   3.731   8.017  1.6052 -1.7562 -2.9722
 5519TIP3   OH238191   4.072   5.463   0.845 -0.2607 -0.1136  0.2602
 5519TIP3    H138192   4.106   5.471   0.756  0.0565 -1.4989  0.2295
 5519TIP3    H238193   4.031   5.548   0.863 -0.3259  0.1896 -1.1900
 5520TIP3   OH238194   5.132   5.122   2.998  0.0862 -0.8470 -0.0676
 5520TIP3    H138195   5.048   5.160   2.974  0.7651 -0.2121 -1.5554
 5520TIP3    H238196   5.113   5.070   3.076 -2.1211 -2.3285 -1.4544
 5521TIP3   OH238197   2.713   0.955   0.541 -0.1798  0.0990  0.0503
 5521TIP3    H138198   2.707   0.947   0.446 -1.0936  0.0895  0.1031
 5521TIP3    H238199   2.784   1.018   0.555 -1.5222  1.8474 -0.7067
 5522TIP3   OH238200   4.069   6.546   1.978 -0.1567 -0.2532  0.3706
 5522TIP3    H138201   4.140   6.487   2.004  0.2206  1.0799  2.6509
 5522TIP3    H238202   4.108   6.633   1.982 -0.5698  0.2585 -3.3400
 5523TIP3   OH238203   3.685   1.145   2.321 -0.4384 -0.3979 -0.1752
 5523TIP3    H138204   3.780   1.136   2.314 -0.5740 -1.2456 -1.1382
 5523TIP3    H238205   3.671   1.239   2.332  0.5944 -0.4379  1.9149
 5524TIP3   OH238206   4.569   2.814   3.250  0.5220 -0.1849  0.3802
 5524TIP3    H138207   4.626   2.853   3.316  2.2756 -1.1311 -0.5085
 5524TIP3    H238208   4.532   2.737   3.293 -0.2052  0.4727  0.9819
 5525TIP3   OH238209   2.320   1.817   2.781 -0.1472  0.8234 -0.1652
 5525TIP3    H138210   2.368   1.797   2.861 -0.3994  1.9149  0.2840
 5525TIP3    H238211   2.280   1.734   2.755 -0.6445  0.6007  1.2347
 5526TIP3   OH238212   1.667   3.249   4.265 -0.2459  0.5316 -0.0152
 5526TIP3    H138213   1.651   3.283   4.177 -1.0906 -0.0395 -0.1015
 5526TIP3    H238214   1.646   3.322   4.323 -0.5490  0.6413 -0.2568
 5527TIP3   OH238215   3.913   0.497   1.753 -0.5633 -0.1456  0.1378
 5527TIP3    H138216   3.893   0.584   1.788 -0.3121 -0.2377  0.5141
 5527TIP3    H238217   3.837   0.444   1.778 -0.6302 -0.0821  0.0718
 5528TIP3   OH238218   0.514   3.598   3.066  0.2664 -0.2244  0.5109
 5528TIP3    H138219   0.505   3.615   2.972  0.5114  1.3812  0.7588
 5528TIP3    H238220   0.428   3.566   3.093  0.1767 -0.6444 -0.2379
 5529TIP3   OH238221   0.803   5.574   8.092 -0.2265 -0.6217 -0.7766
 5529TIP3    H138222   0.790   5.649   8.035 -0.6316  0.5977  0.8500
 5529TIP3    H238223   0.721   5.567   8.142  0.8341 -0.3579  1.0901
 5530TIP3   OH238224   2.334   0.792   3.051 -0.1492  0.4569  0.8157
 5530TIP3    H138225   2.313   0.848   3.126 -0.2578  1.3076  0.1743
 5530TIP3    H238226   2.416   0.748   3.075 -0.9583 -0.4425  2.0373
 5531TIP3   OH238227   2.704   6.554   8.194 -0.0543 -0.0983  0.2827
 5531TIP3    H138228   2.720   6.559   8.288 -0.0649 -0.5241  0.3084
 5531TIP3    H238229   2.667   6.640   8.172  0.0794  0.0549  0.6386
 5532TIP3   OH238230   0.284   5.837   2.629  0.0977 -0.5114 -0.5304
 5532TIP3    H138231   0.361   5.831   2.573 -0.3602  0.3520 -1.2913
 5532TIP3    H238232   0.312   5.804   2.714  0.6490 -2.4707 -1.4124
 5533TIP3   OH238233   2.560   4.104   2.252 -0.4686  0.2504 -0.7745
 5533TIP3    H138234   2.468   4.092   2.276 -0.6677  1.5746 -0.8354
 5533TIP3    H238235   2.580   4.029   2.196 -1.8438  0.5321 -1.6853
 5534TIP3   OH238236   4.286   5.062   2.425 -0.6184 -0.1678 -0.2990
 5534TIP3    H138237   4.347   5.127   2.389 -0.2711 -0.5163 -0.3453
 5534TIP3    H238238   4.333   5.022   2.498 -1.5712  1.0107  1.0147
 5535TIP3   OH238239   6.756   2.691   1.379 -0.3471  0.2435 -0.0370
 5535TIP3    H138240   6.661   2.705   1.386 -0.2379  0.4782  1.4085
 5535TIP3    H238241   6.794   2.779   1.388  0.0099  0.1276 -0.4132
 5536TIP3   OH238242   2.894   1.475   3.934  0.0507  0.2488 -0.2852
 5536TIP3    H138243   2.906   1.382   3.955  2.3984  0.8651  1.5329
 5536TIP3    H238244   2.896   1.519   4.019  0.4060  2.0781 -1.1921
 5537TIP3   OH238245   6.160   3.261   1.104 -0.1653 -0.2526 -0.2030
 5537TIP3    H138246   6.161   3.329   1.037  0.9553  0.4040  0.4510
 5537TIP3    H238247   6.139   3.307   1.185 -0.9523 -0.9484  0.0065
 5538TIP3   OH238248   4.596   5.474   0.787  0.4215  0.3068  0.2339
 5538TIP3    H138249   4.529   5.439   0.846  0.1746 -1.1448 -0.8378
 5538TIP3    H238250   4.670   5.494   0.845  0.1713 -1.0163  1.0671
 5539TIP3   OH238251   2.749   0.208   2.888  0.3689 -0.0938  0.2508
 5539TIP3    H138252   2.754   0.263   2.810  0.9888  0.8830  0.9593
 5539TIP3    H238253   2.736   0.119   2.854 -0.6143  0.4708 -0.9071
 5540TIP3   OH238254   2.466   6.760   3.366  0.5128  0.3821 -0.2224
 5540TIP3    H138255   2.544   6.705   3.374 -0.3700 -0.9730 -0.5787
 5540TIP3    H238256   2.457   6.802   3.451 -1.0448 -3.2070  1.5765
 5541TIP3   OH238257   4.386   1.628   1.668  0.0491 -0.1976  0.0272
 5541TIP3    H138258   4.321   1.674   1.615  2.0702  0.7160 -1.8395
 5541TIP3    H238259   4.370   1.535   1.652 -1.0429 -0.0049 -0.0401
 5542TIP3   OH238260   2.782   5.250   8.568  0.5616  0.1070  0.3491
 5542TIP3    H138261   2.742   5.198   8.499 -0.0296  0.8185  0.1563
 5542TIP3    H238262   2.874   5.259   8.541  0.1998  0.8900 -0.6471
 5543TIP3   OH238263   0.088   5.014   0.764 -0.1482 -0.1117 -0.0706
 5543TIP3    H138264   0.136   5.095   0.746 -0.6878 -0.0711 -1.4512
 5543TIP3    H238265   0.155   4.947   0.772  0.1991 -0.1046 -2.2265
 5544TIP3   OH238266   4.514   1.897   2.031  0.0274  0.1314  0.1404
 5544TIP3    H138267   4.501   1.872   2.122 -3.3987  1.4349  0.1540
 5544TIP3    H238268   4.563   1.980   2.036  1.2684 -0.6025  0.6469
 5545TIP3   OH238269   0.370   4.764   1.865 -0.0549 -0.2178  0.5047
 5545TIP3    H138270   0.453   4.799   1.898  0.0689 -0.0508  0.0242
 5545TIP3    H238271   0.315   4.841   1.853  0.3553 -0.1305 -0.9432
 5546TIP3   OH238272   4.890   5.995   2.441 -0.5733 -0.2126  0.3988
 5546TIP3    H138273   4.889   6.082   2.480 -0.4383  0.9703 -2.0080
 5546TIP3    H238274   4.979   5.985   2.408 -1.0186 -0.5558 -0.7443
 5547TIP3   OH238275   2.404   4.646   3.339  0.2082  0.5252 -0.3199
 5547TIP3    H138276   2.479   4.668   3.395  1.2739 -0.8745 -1.1134
 5547TIP3    H238277   2.421   4.556   3.311 -2.1513 -0.1149  0.0412
 5548TIP3   OH238278   5.336   1.657   4.057  0.0776  0.7432  0.3238
 5548TIP3    H138279   5.269   1.664   4.125 -0.1406 -2.1328  0.5503
 5548TIP3    H238280   5.291   1.615   3.983  1.4852 -0.9131  0.3435
 5549TIP3   OH238281   1.127   6.424   4.019 -0.1503 -0.5911  0.0966
 5549TIP3    H138282   1.132   6.446   4.112  0.7191 -1.2956  0.2276
 5549TIP3    H238283   1.076   6.495   3.980 -2.4825 -1.4349  1.4549
 5550TIP3   OH238284   6.552   6.641   3.962  0.4376  0.1090 -0.5000
 5550TIP3    H138285   6.547   6.720   4.016  2.0103 -0.7354  0.9596
 5550TIP3    H238286   6.625   6.591   3.998  1.0829 -0.8825 -2.9305
 5551TIP3   OH238287   4.812   1.415   8.466 -0.1104 -0.1883  0.4224
 5551TIP3    H138288   4.884   1.363   8.503  0.8507  0.2178 -0.8344
 5551TIP3    H238289   4.796   1.376   8.381 -0.1195  0.8885 -0.0813
 5552TIP3   OH238290   2.705   6.337   0.312  0.3738 -0.3133 -0.4425
 5552TIP3    H138291   2.694   6.377   0.226 -0.4618 -1.4079 -0.8572
 5552TIP3    H238292   2.768   6.395   0.357 -0.2065  1.0176 -1.2835
 5553TIP3   OH238293   1.157   2.808   3.849  0.1980 -0.0123 -0.5353
 5553TIP3    H138294   1.222   2.844   3.910 -0.4723  1.0760 -0.4457
 5553TIP3    H238295   1.207   2.747   3.795  1.2615  0.6512 -0.3314
 5554TIP3   OH238296   5.606   1.468   1.019 -0.3737  0.3396 -0.7492
 5554TIP3    H138297   5.581   1.493   1.108 -2.8936 -0.6414 -1.0775
 5554TIP3    H238298   5.653   1.385   1.029  0.8959  1.1082 -0.2336
 5555TIP3   OH238299   2.104   0.732   0.067 -0.5876 -0.7481  0.2586
 5555TIP3    H138300   2.113   0.825   0.087 -0.9262 -0.4266 -0.9956
 5555TIP3    H238301   2.143   0.722  -0.020  1.0243 -2.1142  1.0721
 5556TIP3   OH238302   0.800   6.006   4.029 -0.1731 -0.5516  0.1913
 5556TIP3    H138303   0.871   5.991   4.091  1.2485  1.1221 -0.9429
 5556TIP3    H238304   0.753   6.082   4.064  2.3514  2.2894 -2.0006
 5557TIP3   OH238305   2.343   2.311   2.350 -0.1098 -0.2525 -0.8289
 5557TIP3    H138306   2.364   2.288   2.259 -2.3234 -1.1498 -1.1604
 5557TIP3    H238307   2.309   2.230   2.388 -1.2942  0.6709  0.1372
 5558TIP3   OH238308   3.028   2.435   1.159  0.8214 -0.2840  0.5222
 5558TIP3    H138309   3.091   2.477   1.218  0.6649  1.4677 -0.4781
 5558TIP3    H238310   3.027   2.491   1.081 -0.3195 -1.5218 -0.4082
 5559TIP3   OH238311   0.522   2.395   2.945  0.2239  0.0196 -0.8081
 5559TIP3    H138312   0.465   2.442   2.883  1.8516  0.8703 -1.7431
 5559TIP3    H238313   0.574   2.337   2.890 -0.9429 -2.1460  0.2275
 5560TIP3   OH238314   3.012   4.327   2.831 -0.2506  1.0222 -0.1237
 5560TIP3    H138315   3.096   4.300   2.867 -0.3368 -0.5052 -0.9639
 5560TIP3    H238316   3.034   4.386   2.759  0.0394  1.5006  0.3497
 5561TIP3   OH238317   5.704   4.424   2.226 -0.3188  0.4471  0.4895
 5561TIP3    H138318   5.660   4.490   2.173 -0.8483  1.3030  1.9443
 5561TIP3    H238319   5.766   4.383   2.166  0.7602  2.9606 -0.2448
 5562TIP3   OH238320   1.138   5.661   1.131  0.1181 -0.2297 -0.5717
 5562TIP3    H138321   1.069   5.610   1.173 -0.9011  1.1043 -0.5388
 5562TIP3    H238322   1.125   5.646   1.038 -0.7622  0.6277 -0.6103
 5563TIP3   OH238323   6.323   2.970   1.727  0.1291 -0.0329 -0.0480
 5563TIP3    H138324   6.247   2.981   1.670 -0.2353 -1.3147  0.1640
 5563TIP3    H238325   6.291   2.990   1.815  1.0003  3.2435 -0.3560
 5564TIP3   OH238326   3.582   1.548   2.863 -0.0097  0.2343  0.0005
 5564TIP3    H138327   3.594   1.619   2.926 -1.7785  0.4545  0.1441
 5564TIP3    H238328   3.487   1.537   2.859  0.1394 -0.5674 -1.7575
 5565TIP3   OH238329   6.191   2.129   0.963  0.2694  0.6190 -0.3272
 5565TIP3    H138330   6.134   2.134   0.886  0.8871 -0.0294 -0.8404
 5565TIP3    H238331   6.177   2.212   1.009 -0.1324  1.0024 -1.1243
 5566TIP3   OH238332   3.597   0.910   0.353  0.2774  0.0782  0.1049
 5566TIP3    H138333   3.532   0.855   0.309 -1.1606  0.5961  1.4890
 5566TIP3    H238334   3.604   0.873   0.441  0.8513  0.8595  0.4042
 5567TIP3   OH238335   4.584   4.434   1.249  0.0172  0.4500 -0.4941
 5567TIP3    H138336   4.598   4.486   1.328 -1.3054  1.6192 -0.9762
 5567TIP3    H238337   4.499   4.392   1.263  0.1635 -0.0087 -0.9390
 5568TIP3   OH238338   2.778   6.210   3.236 -0.1645  0.2390 -0.0342
 5568TIP3    H138339   2.811   6.144   3.175 -1.5281  0.3228 -0.8860
 5568TIP3    H238340   2.847   6.276   3.239 -0.6097  0.8926 -2.5181
 5569TIP3   OH238341   0.506   0.160   3.938  0.3361 -0.8361  0.5766
 5569TIP3    H138342   0.502   0.243   3.892  1.0173 -0.2615  1.5113
 5569TIP3    H238343   0.429   0.112   3.908 -1.0424  0.8251  1.2950
 5570TIP3   OH238344   1.710   1.440   0.616  0.1329  0.4956 -0.4123
 5570TIP3    H138345   1.689   1.364   0.562 -2.3736 -0.1019  1.2195
 5570TIP3    H238346   1.806   1.443   0.617  0.2697 -1.3037 -2.2984
 5571TIP3   OH238347   2.105   0.854   1.877 -0.1165  0.0608  0.7642
 5571TIP3    H138348   2.056   0.838   1.958  1.3806  1.0842  1.9314
 5571TIP3    H238349   2.053   0.920   1.831 -1.5678 -1.3530  0.3007
 5572TIP3   OH238350   5.662   4.629   2.060  0.1708  0.7819  0.0955
 5572TIP3    H138351   5.703   4.708   2.026  0.2684  0.3198 -0.8822
 5572TIP3    H238352   5.599   4.603   1.993  1.8215 -1.2992 -0.7788
 5573TIP3   OH238353   4.941   1.807   8.577  0.2773  0.0067  0.0029
 5573TIP3    H138354   4.907   1.820   8.488  0.5052  0.4309 -0.0242
 5573TIP3    H238355   5.020   1.755   8.566 -0.7575 -1.6758  0.1317
 5574TIP3   OH238356   1.980   2.323   4.440  0.7863  0.5329 -0.6070
 5574TIP3    H138357   2.040   2.394   4.462  1.2509 -0.2628  0.8663
 5574TIP3    H238358   2.034   2.259   4.394  0.8901  0.1890 -0.0197
 5575TIP3   OH238359   3.470   4.890   2.239 -0.1371 -0.1462  0.0153
 5575TIP3    H138360   3.447   4.890   2.146 -1.7474  1.2827  0.3669
 5575TIP3    H238361   3.411   4.954   2.278  0.3797 -0.8612  2.0717
 5576TIP3   OH238362   2.843   0.327   3.121 -0.1556  0.3608 -0.2536
 5576TIP3    H138363   2.757   0.368   3.135  1.4400  3.7716  0.4891
 5576TIP3    H238364   2.842   0.301   3.028 -2.0526 -0.0384 -0.1784
 5577TIP3   OH238365   1.996   1.071   0.467 -0.9584 -1.3088  0.8148
 5577TIP3    H138366   1.995   1.158   0.428 -1.2797 -0.5613  2.4514
 5577TIP3    H238367   2.069   1.027   0.423 -2.2184 -1.0568 -1.7138
 5578TIP3   OH238368   1.085   3.177   0.791 -0.1773  0.0672  0.1550
 5578TIP3    H138369   1.150   3.246   0.803 -1.3341  1.1828  0.1707
 5578TIP3    H238370   1.090   3.125   0.871  0.3249  0.4391  0.3707
 5579TIP3   OH238371   0.902   3.390   8.262  0.3849 -0.0630  0.3234
 5579TIP3    H138372   0.976   3.443   8.291  1.2234 -1.3582  0.6405
 5579TIP3    H238373   0.936   3.300   8.258 -0.6604 -0.4384 -1.3285
 5580TIP3   OH238374   5.425   1.677   0.457 -0.1836  0.0547 -0.2725
 5580TIP3    H138375   5.488   1.649   0.391 -0.3490 -0.1068 -0.3646
 5580TIP3    H238376   5.350   1.618   0.445 -0.2110  0.0154  0.0655
 5581TIP3   OH238377   4.183   3.828   3.580 -0.7477 -0.3316  0.2291
 5581TIP3    H138378   4.137   3.745   3.595 -1.2459  0.0126  0.6535
 5581TIP3    H238379   4.114   3.889   3.557 -0.2467 -0.3198 -1.3768
 5582TIP3   OH238380   0.550   6.907   1.531  0.1929 -0.0788  0.0202
 5582TIP3    H138381   0.634   6.952   1.544  0.4545 -0.2690 -0.9211
 5582TIP3    H238382   0.524   6.930   1.441 -0.9025  0.1970  0.3966
 5583TIP3   OH238383   4.285   0.789   2.141  0.1614  0.4396 -0.5569
 5583TIP3    H138384   4.268   0.753   2.054 -0.6951 -0.2449 -0.1186
 5583TIP3    H238385   4.379   0.809   2.140  0.5099 -1.1272 -1.0704
 5584TIP3   OH238386   3.101   1.084   3.388  0.1988 -0.0223  0.0599
 5584TIP3    H138387   3.170   1.080   3.322  0.3350  0.0265  0.1992
 5584TIP3    H238388   3.145   1.061   3.470 -0.0508 -0.4501  0.0722
 5585TIP3   OH238389   5.229   4.261   0.552  0.1775 -0.0603 -0.4582
 5585TIP3    H138390   5.299   4.289   0.610 -0.5176 -0.6865  0.7187
 5585TIP3    H238391   5.231   4.324   0.480  2.7083 -0.7755 -1.0973
 5586TIP3   OH238392   0.138   1.479   3.120  0.3865 -0.3343  0.7664
 5586TIP3    H138393   0.080   1.503   3.192  0.1154  0.3463  0.3339
 5586TIP3    H238394   0.085   1.421   3.066  0.2415 -0.0410  0.5891
 5587TIP3   OH238395   6.115   5.334   8.120  0.0896 -0.2272 -0.2649
 5587TIP3    H138396   6.125   5.407   8.181 -1.0806 -0.6037  0.4371
 5587TIP3    H238397   6.188   5.341   8.060  0.0696  1.4387 -0.1294
 5588TIP3   OH238398   1.369   1.383   1.205 -0.0339  0.7305  0.3353
 5588TIP3    H138399   1.413   1.317   1.259  2.0894 -0.1507 -2.2480
 5588TIP3    H238400   1.315   1.432   1.267  0.0303 -1.9646  2.7419
 5589TIP3   OH238401   5.938   1.804   8.281  0.4780 -0.2855  0.1738
 5589TIP3    H138402   5.963   1.800   8.188  0.6136 -1.0671  0.2384
 5589TIP3    H238403   6.005   1.860   8.321 -1.0383  2.3254 -0.6394
 5590TIP3   OH238404   6.292   1.117   2.652 -0.1853  0.3154 -0.1347
 5590TIP3    H138405   6.207   1.161   2.650  0.7624  2.2564 -0.9831
 5590TIP3    H238406   6.309   1.093   2.561  1.1109  1.9729 -0.3804
 5591TIP3   OH238407   2.013   2.983   4.183 -0.7586  0.4410 -0.0890
 5591TIP3    H138408   2.041   3.010   4.271  2.0421 -2.0928 -0.0374
 5591TIP3    H238409   2.037   3.057   4.127  0.2717  0.8908  0.8971
 5592TIP3   OH238410   2.332   6.318   1.574 -0.1314 -0.0930 -0.0118
 5592TIP3    H138411   2.409   6.374   1.570 -0.3488  0.3257  1.2959
 5592TIP3    H238412   2.303   6.311   1.483  0.5352  1.0134 -0.3295
 5593TIP3   OH238413   4.310   5.614   1.266 -0.0543  0.1037 -0.0325
 5593TIP3    H138414   4.371   5.656   1.327  1.2878 -0.6627 -0.7834
 5593TIP3    H238415   4.263   5.686   1.225 -0.6646  0.6557  1.5711
 5594TIP3   OH238416   5.000   2.418   3.252 -0.5513 -0.3192  0.2696
 5594TIP3    H138417   4.993   2.347   3.316 -0.0537 -1.1479 -0.5692
 5594TIP3    H238418   4.938   2.484   3.283 -1.1426 -1.1797  0.9925
 5595TIP3   OH238419   3.734   2.017   1.555 -0.1452 -0.0488  0.1901
 5595TIP3    H138420   3.725   1.922   1.553  0.0279 -0.0686 -1.8066
 5595TIP3    H238421   3.748   2.038   1.647  1.5141 -2.1357  0.5042
 5596TIP3   OH238422   4.746   2.935   7.727  0.2545 -0.2200 -0.7289
 5596TIP3    H138423   4.796   2.985   7.663  0.1146  1.6744  0.5432
 5596TIP3    H238424   4.655   2.960   7.711  0.3879  2.9069  2.0902
 5597TIP3   OH238425   4.371   5.050   3.184 -0.3788 -0.0259  0.4574
 5597TIP3    H138426   4.401   5.138   3.161  1.3901 -0.6947  0.0231
 5597TIP3    H238427   4.434   4.992   3.141 -0.9981 -1.4817  1.4561
 5598TIP3   OH238428   4.828   4.029   1.217 -0.3440 -0.3396 -0.6638
 5598TIP3    H138429   4.910   4.007   1.173  1.8149  1.1877  2.2236
 5598TIP3    H238430   4.771   4.061   1.147  2.1925  0.3288 -2.5831
 5599TIP3   OH238431   0.195   0.147   2.978 -0.2576  0.7475  0.0705
 5599TIP3    H138432   0.288   0.137   2.958 -0.2786  0.9832 -0.1478
 5599TIP3    H238433   0.193   0.183   3.067 -0.1839 -1.1969  0.9015
 5600TIP3   OH238434   3.932   1.456   1.985  0.0713 -0.1875  0.1521
 5600TIP3    H138435   3.928   1.520   2.056  0.1484 -1.2635  1.1508
 5600TIP3    H238436   4.023   1.426   1.985 -0.1305 -0.7922  0.1290
 5601TIP3   OH238437   4.542   2.780   2.981 -0.0019  0.5045 -0.5749
 5601TIP3    H138438   4.548   2.778   3.077  0.1563 -1.3923 -0.5865
 5601TIP3    H238439   4.535   2.873   2.959  0.5335  1.0104  1.2383
 5602TIP3   OH238440   6.591   4.387   3.616 -0.0980 -0.2072  0.5055
 5602TIP3    H138441   6.684   4.393   3.639 -0.2537 -2.0005  1.8189
 5602TIP3    H238442   6.582   4.302   3.573 -1.5466 -1.3904  2.9078
 5603TIP3   OH238443   6.395   2.940   0.656 -0.2778 -0.4743  0.5632
 5603TIP3    H138444   6.385   2.988   0.739  0.2596  0.5016  0.0865
 5603TIP3    H238445   6.312   2.954   0.611  0.2231  0.9016 -0.0001
 5604TIP3   OH238446   4.794   1.965   8.009 -0.2700  0.1868 -0.6372
 5604TIP3    H138447   4.713   1.915   8.022 -0.8050  1.1510 -0.1350
 5604TIP3    H238448   4.788   1.999   7.920 -0.7040  0.7284 -0.4101
 5605TIP3   OH238449   6.101   0.365   0.983 -0.0136  0.6118  0.2000
 5605TIP3    H138450   6.079   0.437   0.924 -1.0671 -0.4076 -0.6868
 5605TIP3    H238451   6.194   0.348   0.967  0.3577  2.0454  0.7383
 5606TIP3   OH238452   2.563   4.678   0.613  0.1931 -0.7493  0.6292
 5606TIP3    H138453   2.629   4.704   0.677 -0.3661 -0.5723  1.1344
 5606TIP3    H238454   2.507   4.617   0.660 -1.2070  0.6379  0.8280
 5607TIP3   OH238455   2.084   6.352   0.789  0.2880  0.5636 -0.2538
 5607TIP3    H138456   2.173   6.357   0.823 -0.0883 -1.0803  1.1211
 5607TIP3    H238457   2.028   6.375   0.864 -0.4875 -0.7551 -0.3898
 5608TIP3   OH238458   5.044   5.185   0.631 -0.5638 -0.5567 -0.0353
 5608TIP3    H138459   5.094   5.142   0.700  1.1988 -1.2335 -1.6295
 5608TIP3    H238460   4.953   5.168   0.654 -0.2031  1.2707  3.3315
 5609TIP3   OH238461   2.414   0.051   3.180  0.8445  0.0819 -0.0247
 5609TIP3    H138462   2.417  -0.017   3.247 -0.4258  1.0549  1.0606
 5609TIP3    H238463   2.397   0.132   3.228  0.1218  0.8452 -1.4937
 5610TIP3   OH238464   1.722   0.409   3.190 -0.0480 -0.6730  0.1653
 5610TIP3    H138465   1.710   0.407   3.285  1.0178  0.6937  0.3622
 5610TIP3    H238466   1.783   0.481   3.176 -2.0038  0.7270 -1.7676
 5611TIP3   OH238467   1.384   0.727   2.467  0.3426 -0.0159 -0.1159
 5611TIP3    H138468   1.479   0.725   2.476  0.3463  2.2640  1.1526
 5611TIP3    H238469   1.353   0.755   2.553 -1.2730  1.6868 -1.1821
 5612TIP3   OH238470   2.224   4.071   1.046 -0.3134  0.4534 -0.2338
 5612TIP3    H138471   2.278   4.110   1.115 -1.6768  0.0342  1.1284
 5612TIP3    H238472   2.287   4.030   0.986  0.9578  1.8094  0.1266
 5613TIP3   OH238473   3.630   6.551   2.764  0.4444 -0.3063  0.1429
 5613TIP3    H138474   3.724   6.538   2.765  0.2024 -2.3589  0.0501
 5613TIP3    H238475   3.598   6.505   2.841 -0.4059  1.4041  0.8733
 5614TIP3   OH238476   0.577   1.495   8.055 -0.0230 -0.2475  0.2035
 5614TIP3    H138477   0.601   1.564   8.118  1.2586 -0.8365  0.4006
 5614TIP3    H238478   0.660   1.470   8.015 -0.3243 -2.2788  0.7551
 5615TIP3   OH238479   6.261   3.254   1.402 -0.2054  0.5485 -0.1435
 5615TIP3    H138480   6.319   3.330   1.400  1.2491 -0.4831 -3.2116
 5615TIP3    H238481   6.307   3.190   1.455 -0.9041  1.3331  1.4885
 5616TIP3   OH238482   0.494   2.594   3.361 -0.0008  0.5806 -0.0012
 5616TIP3    H138483   0.474   2.667   3.302  1.8597  2.0487  1.0942
 5616TIP3    H238484   0.567   2.549   3.319 -1.3716 -0.9449 -0.8545
 5617TIP3   OH238485   3.660   2.947   1.181  0.2315 -0.2048  0.5802
 5617TIP3    H138486   3.687   2.858   1.158  0.4660 -0.1382  0.5915
 5617TIP3    H238487   3.737   2.985   1.223  0.5495  0.4015 -0.5040
 5618TIP3   OH238488   1.827   1.861   8.081  0.1622  0.0090  0.3012
 5618TIP3    H138489   1.750   1.850   8.026 -0.8548  0.5083  1.5807
 5618TIP3    H238490   1.792   1.879   8.169  1.7040  1.5773  0.6575
 5619TIP3   OH238491   5.610   2.695   3.126  0.2647  0.1899 -0.5154
 5619TIP3    H138492   5.539   2.684   3.062  1.6717  1.1512 -2.3315
 5619TIP3    H238493   5.685   2.652   3.085  1.4812  1.8009 -0.0199
 5620TIP3   OH238494   4.328   4.599   0.045 -0.6627  0.3171  0.1676
 5620TIP3    H138495   4.289   4.515   0.022 -0.2570 -0.2782  1.5366
 5620TIP3    H238496   4.258   4.648   0.087 -0.1396 -0.5442  2.1381
 5621TIP3   OH238497   0.563   3.303   1.909 -0.4174  0.4816  0.4680
 5621TIP3    H138498   0.654   3.312   1.938  0.0322 -0.2822 -0.6352
 5621TIP3    H238499   0.533   3.393   1.895  0.3483  0.7227  0.3165
 5622TIP3   OH238500   1.031   0.586   1.654  0.1362 -0.1265  0.5609
 5622TIP3    H138501   1.075   0.609   1.572 -1.7997 -0.4362 -0.6062
 5622TIP3    H238502   1.052   0.493   1.667 -0.7741 -0.4897 -0.4189
 5623TIP3   OH238503   0.650   2.474   3.169  0.2398 -0.1171 -0.2142
 5623TIP3    H138504   0.579   2.443   3.113  2.4639 -0.8744 -2.7784
 5623TIP3    H238505   0.730   2.453   3.122  2.2483  0.6252  2.5813
 5624TIP3   OH238506   5.548   1.264   2.902  0.6357  0.0933 -0.4914
 5624TIP3    H138507   5.547   1.282   2.996  1.0981 -0.0294 -0.4610
 5624TIP3    H238508   5.614   1.324   2.867  3.5473 -2.6125 -0.1465
 5625TIP3   OH238509   0.424   0.526   0.610  0.3859 -0.2005 -0.1844
 5625TIP3    H138510   0.509   0.560   0.636 -0.4379  3.7101 -1.8894
 5625TIP3    H238511   0.385   0.493   0.691  2.3354  0.6421  1.1707
 5626TIP3   OH238512   3.231   1.207   1.499 -0.0777 -0.2861 -0.6363
 5626TIP3    H138513   3.254   1.250   1.416 -1.1076 -0.4596 -1.0276
 5626TIP3    H238514   3.178   1.132   1.473 -1.1945  0.1774  0.2067
 5627TIP3   OH238515   3.775   0.206   0.197 -0.2303  0.4025  0.2412
 5627TIP3    H138516   3.769   0.247   0.111 -0.4640  1.3080  0.6782
 5627TIP3    H238517   3.720   0.128   0.191  1.4685 -0.7752 -1.1010
 5628TIP3   OH238518   0.490   5.896   3.233 -0.1765  0.1623  0.0129
 5628TIP3    H138519   0.468   5.988   3.252 -1.5481 -0.0140 -0.6534
 5628TIP3    H238520   0.408   5.857   3.203  0.6873 -0.9541 -0.9873
 5629TIP3   OH238521   1.196   1.571   3.333  0.5954 -0.1775 -0.2379
 5629TIP3    H138522   1.254   1.509   3.290  0.5504 -1.4315  1.3959
 5629TIP3    H238523   1.227   1.574   3.423 -0.5225  0.8060  0.1370
 5630TIP3   OH238524   4.292   2.392   0.353  0.8237 -0.1045  0.4964
 5630TIP3    H138525   4.363   2.339   0.390  1.4881  0.2860 -0.1742
 5630TIP3    H238526   4.336   2.451   0.292 -0.2259 -0.7440 -0.9330
 5631TIP3   OH238527   2.790   2.313   3.298 -0.3268 -0.0808 -0.2649
 5631TIP3    H138528   2.739   2.258   3.238  0.4006  1.2603 -2.2319
 5631TIP3    H238529   2.760   2.402   3.280  0.6479  0.4521  0.6439
 5632TIP3   OH238530   3.080   6.377   1.937  0.1093 -0.0126  0.1101
 5632TIP3    H138531   3.160   6.331   1.962  1.0851  1.3466 -0.3523
 5632TIP3    H238532   3.057   6.342   1.851 -0.1395 -0.8203  0.4958
 5633TIP3   OH238533   2.348   1.084   1.655  0.0103 -0.0066 -0.4010
 5633TIP3    H138534   2.296   1.146   1.706  1.0676  0.3667  0.2438
 5633TIP3    H238535   2.367   1.131   1.573 -0.2599  0.0277 -0.4467
 5634TIP3   OH238536   2.149   4.932   1.058  0.0019  0.1106  0.3325
 5634TIP3    H138537   2.119   4.844   1.079  0.3633  0.2119  1.3289
 5634TIP3    H238538   2.225   4.919   1.002 -0.5618 -0.1794 -0.3868
 5635TIP3   OH238539   6.618   5.937   3.395 -0.0636 -0.2149  0.1477
 5635TIP3    H138540   6.524   5.928   3.378 -0.7082 -1.4611  3.4314
 5635TIP3    H238541   6.643   6.018   3.351 -1.9506 -1.2423 -3.1788
 5636TIP3   OH238542   0.967   0.076   1.989  0.1115  0.3300 -0.2969
 5636TIP3    H138543   1.010   0.128   2.056 -0.2891  0.4986 -0.1674
 5636TIP3    H238544   0.889   0.126   1.965 -0.4753 -0.3765  0.0972
 5637TIP3   OH238545   6.763   2.856   2.682 -0.3126 -0.6177  0.5997
 5637TIP3    H138546   6.823   2.930   2.690 -0.1898 -0.6245 -0.1383
 5637TIP3    H238547   6.784   2.798   2.755 -0.6121  0.2142  1.3536
 5638TIP3   OH238548   5.357   4.027   0.468 -0.3256  0.0343 -0.4265
 5638TIP3    H138549   5.425   4.038   0.535 -2.5178  1.6094  1.7284
 5638TIP3    H238550   5.313   4.111   0.464 -1.4247 -0.5766 -2.6214
 5639TIP3   OH238551   2.327   1.178   3.281  0.2010 -0.4548  0.1420
 5639TIP3    H138552   2.296   1.262   3.247 -0.5104 -0.4275  0.8143
 5639TIP3    H238553   2.344   1.195   3.374 -0.2220 -1.1285  0.3491
 5640TIP3   OH238554   6.693   2.537   0.436  0.1537  0.1457  0.2429
 5640TIP3    H138555   6.778   2.511   0.473 -0.0542 -0.9127  0.0084
 5640TIP3    H238556   6.695   2.632   0.437  1.2703  0.1369  0.4304
 5641TIP3   OH238557   3.485   2.267   0.073 -0.5151 -0.6543 -0.2932
 5641TIP3    H138558   3.448   2.256   0.161  0.0702 -1.1592 -0.1047
 5641TIP3    H238559   3.493   2.362   0.063  1.8351 -0.5850  1.2554
 5642TIP3   OH238560   0.051   2.293   1.755  0.0289 -0.0132 -0.1423
 5642TIP3    H138561   0.117   2.226   1.740 -0.2171  0.0445 -1.6091
 5642TIP3    H238562   0.021   2.318   1.667 -0.3358  1.5526  0.3871
 5643TIP3   OH238563   3.570   2.235   3.637  0.0965  0.1459 -0.6638
 5643TIP3    H138564   3.629   2.275   3.573 -1.3622  1.7844 -1.0729
 5643TIP3    H238565   3.575   2.293   3.713  2.2886 -2.1197  1.0613
 5644TIP3   OH238566   6.063   2.188   0.734 -0.0408 -0.3122 -0.3659
 5644TIP3    H138567   6.081   2.249   0.663 -2.3351  2.2530  1.1002
 5644TIP3    H238568   5.980   2.147   0.710 -0.3214 -0.1743  0.3500
 5645TIP3   OH238569   0.632   1.828   2.434 -0.6073 -0.1511 -0.5987
 5645TIP3    H138570   0.663   1.820   2.524 -1.0625  0.0163 -0.4246
 5645TIP3    H238571   0.649   1.919   2.410 -1.2253  0.0219 -0.3999
 5646TIP3   OH238572   6.164   4.465   2.612 -0.2373  0.0916 -0.5238
 5646TIP3    H138573   6.107   4.537   2.584 -0.1308  0.4727  0.2162
 5646TIP3    H238574   6.110   4.413   2.672 -0.6294 -1.0108 -1.7847
 5647TIP3   OH238575   2.494   2.382   0.251  0.2932 -0.0471 -0.3114
 5647TIP3    H138576   2.571   2.331   0.279 -0.1324 -1.1218 -1.0181
 5647TIP3    H238577   2.491   2.369   0.156 -2.1988 -2.1444 -0.0366
 5648TIP3   OH238578   5.284   4.558   1.032  0.4079  0.1653  0.3604
 5648TIP3    H138579   5.199   4.600   1.020 -0.7746 -1.7349  1.5156
 5648TIP3    H238580   5.288   4.538   1.126  2.0824  0.1146  0.3055
 5649TIP3   OH238581   0.763   3.670   3.526  0.0713  0.0927 -0.0019
 5649TIP3    H138582   0.799   3.757   3.508 -2.2297  1.2637  0.6552
 5649TIP3    H238583   0.836   3.621   3.562  1.4436  1.7490 -0.3915
 5650TIP3   OH238584   4.375   6.279   0.269 -0.1408  0.0391 -0.1994
 5650TIP3    H138585   4.310   6.310   0.333 -0.8790  2.4232 -1.9467
 5650TIP3    H238586   4.459   6.303   0.308 -0.5225  0.6092  0.3000
 5651TIP3   OH238587   3.734   4.998   0.625 -0.1401  0.2661  0.0754
 5651TIP3    H138588   3.699   5.004   0.536 -0.2968  2.1345  0.2190
 5651TIP3    H238589   3.818   4.953   0.615 -0.8877 -0.9972 -0.7734
 5652TIP3   OH238590   2.739   5.285   1.860  0.2806  0.3289  0.2457
 5652TIP3    H138591   2.811   5.259   1.802 -1.7859  1.4937 -3.1914
 5652TIP3    H238592   2.772   5.359   1.909  2.0906 -0.5631  0.4406
 5653TIP3   OH238593   2.473   1.353   3.615 -0.8980 -0.5256 -0.4422
 5653TIP3    H138594   2.550   1.402   3.643 -0.7229  0.2030 -2.0840
 5653TIP3    H238595   2.482   1.346   3.520 -2.9907 -0.1989 -0.7115
 5654TIP3   OH238596   5.637   4.760   2.324 -0.0941  0.2222  0.2519
 5654TIP3    H138597   5.708   4.708   2.286  1.2199  1.2087  1.2782
 5654TIP3    H238598   5.677   4.845   2.344 -2.1075  1.5630 -1.0783
 5655TIP3   OH238599   3.822   2.732   2.477  0.0848 -0.6411 -0.4392
 5655TIP3    H138600   3.819   2.718   2.572  0.8633  0.2174 -0.2730
 5655TIP3    H238601   3.877   2.809   2.466  0.4261 -1.0340 -1.6306
 5656TIP3   OH238602   1.257   2.418   0.838  0.3992 -0.4891  0.1158
 5656TIP3    H138603   1.339   2.372   0.818  0.2848 -0.1938 -1.1046
 5656TIP3    H238604   1.264   2.500   0.789 -0.4618 -0.2996  0.3111
 5657TIP3   OH238605   3.769   5.957   2.731 -0.5537  0.8914  0.2393
 5657TIP3    H138606   3.703   5.888   2.721  1.2909 -1.0596  0.5714
 5657TIP3    H238607   3.779   5.966   2.826  0.3505  0.4029  0.2026
 5658TIP3   OH238608   5.540   2.474   3.347  0.5048  0.2078 -0.0022
 5658TIP3    H138609   5.454   2.433   3.345 -0.2892  1.8265 -0.7020
 5658TIP3    H238610   5.579   2.444   3.429 -1.2814  0.4988  1.0109
 5659TIP3   OH238611   6.461   3.491   3.029  0.2641  0.0613 -0.1391
 5659TIP3    H138612   6.505   3.412   2.999  0.7592 -0.1647  1.1442
 5659TIP3    H238613   6.429   3.532   2.948  1.1359 -0.7589 -0.9271
 5660TIP3   OH238614   4.855   4.383   2.058  0.0003  0.2699 -0.2319
 5660TIP3    H138615   4.772   4.337   2.067 -0.5605  1.2370 -0.3945
 5660TIP3    H238616   4.861   4.405   1.965  0.2775  0.5059 -0.1612
 5661TIP3   OH238617   4.843   6.439   1.745 -0.2499  0.4618 -0.0363
 5661TIP3    H138618   4.839   6.535   1.744  0.0532  0.5391 -2.9247
 5661TIP3    H238619   4.930   6.418   1.709 -0.8696 -0.8629 -0.8367
 5662TIP3   OH238620   1.859   4.984   3.734  0.1144  0.1384 -0.1741
 5662TIP3    H138621   1.904   4.994   3.818 -2.0647 -0.5028  1.1609
 5662TIP3    H238622   1.830   5.073   3.712  0.1845  0.2233  0.0714
 5663TIP3   OH238623   4.974   4.014   0.236 -0.4298  0.1320  0.4141
 5663TIP3    H138624   5.046   4.057   0.190 -0.4337  0.3629  0.6200
 5663TIP3    H238625   4.922   4.087   0.271 -1.9489  0.0429 -1.5051
 5664TIP3   OH238626   3.634   2.916   8.575  0.1804 -0.4311 -0.1618
 5664TIP3    H138627   3.693   2.845   8.601  0.3412  0.0615  0.8671
 5664TIP3    H238628   3.641   2.920   8.480  0.0762 -1.8696 -0.2474
 5665TIP3   OH238629   2.070   5.125   8.531 -0.5813  0.1065  0.3488
 5665TIP3    H138630   1.998   5.128   8.468  0.1876 -0.2227 -0.5530
 5665TIP3    H238631   2.129   5.057   8.498  0.2950  0.5736  0.9169
 5666TIP3   OH238632   5.923   4.570   8.165 -0.2490  0.6181 -0.4374
 5666TIP3    H138633   5.853   4.624   8.128 -0.1619  0.8289 -0.2918
 5666TIP3    H238634   5.934   4.602   8.255 -0.6254 -0.0494 -0.1445
 5667TIP3   OH238635   6.757   5.630   1.394 -0.3731 -0.1041 -0.4151
 5667TIP3    H138636   6.813   5.652   1.319  0.6241 -0.4464  0.2300
 5667TIP3    H238637   6.703   5.557   1.363 -0.3564  0.1163 -0.9786
 5668TIP3   OH238638   1.844   0.758   0.792  0.3791  0.5477 -0.8213
 5668TIP3    H138639   1.932   0.796   0.786  0.3210  1.4008  2.2175
 5668TIP3    H238640   1.858   0.669   0.821  0.2724  1.3710  2.0105
 5669TIP3   OH238641   5.689   5.536   2.130  0.2929 -0.1863 -0.0527
 5669TIP3    H138642   5.671   5.448   2.095  0.5479 -0.6140  0.8599
 5669TIP3    H238643   5.619   5.552   2.193 -1.9453  1.8341 -2.7697
 5670TIP3   OH238644   4.410   1.331   0.748  0.1531 -0.1729 -0.3702
 5670TIP3    H138645   4.403   1.386   0.826 -0.8369 -0.2746 -0.3654
 5670TIP3    H238646   4.319   1.322   0.718  0.3462 -1.4724 -0.5973
 5671TIP3   OH238647   3.900   0.317   0.543 -1.3356 -0.2597 -0.1778
 5671TIP3    H138648   3.909   0.348   0.633  0.1542 -0.9278 -0.0673
 5671TIP3    H238649   3.882   0.396   0.492 -2.3953  0.1014  0.7056
 5672TIP3   OH238650   2.193   6.479   3.442 -0.8075 -0.2568  0.5766
 5672TIP3    H138651   2.216   6.559   3.489 -2.3178  1.4574 -1.4050
 5672TIP3    H238652   2.240   6.409   3.488 -0.8434  1.4915  3.4641
 5673TIP3   OH238653   3.697   4.800   3.779  0.0010  0.3687  0.3980
 5673TIP3    H138654   3.666   4.844   3.858  0.4997 -1.7844  1.8888
 5673TIP3    H238655   3.623   4.747   3.749  0.0129  0.6918 -0.2353
 5674TIP3   OH238656   0.828   0.822   2.749  0.1717  0.6478 -0.1874
 5674TIP3    H138657   0.907   0.868   2.778  0.2335  0.2878  0.2322
 5674TIP3    H238658   0.861   0.754   2.689  0.0420  1.4059 -1.1311
 5675TIP3   OH238659   0.995   2.602   0.783  0.2608  0.5492 -0.0641
 5675TIP3    H138660   0.965   2.686   0.817  2.6769  1.1630  0.7961
 5675TIP3    H238661   1.089   2.600   0.804  0.2066 -2.6075  0.4773
 5676TIP3   OH238662   5.134   3.792   7.945  0.2092 -0.5768 -0.4849
 5676TIP3    H138663   5.045   3.794   7.910 -0.0083 -1.3193  0.0090
 5676TIP3    H238664   5.137   3.713   8.000 -0.4036  2.0107  3.6566
 5677TIP3   OH238665   4.277   5.307   0.231  0.0065 -0.4103  0.3850
 5677TIP3    H138666   4.191   5.273   0.209 -0.5348  0.1691  1.4911
 5677TIP3    H238667   4.308   5.349   0.150 -1.5610  0.9874  0.4428
 5678TIP3   OH238668   3.664   4.720   3.213  0.6099  0.5785  0.3938
 5678TIP3    H138669   3.627   4.675   3.137  0.1633 -0.6762  1.3243
 5678TIP3    H238670   3.683   4.809   3.182  3.5122 -0.7442 -2.1792
 5679TIP3   OH238671   4.279   5.598   1.705  0.3168  0.1821  0.2102
 5679TIP3    H138672   4.328   5.518   1.724  0.7592  0.5849  0.8006
 5679TIP3    H238673   4.271   5.642   1.790 -0.8315  0.2652  0.0724
 5680TIP3   OH238674   4.822   3.557   0.578 -0.2316 -0.2465 -1.0752
 5680TIP3    H138675   4.891   3.621   0.597 -0.3737 -0.5855  0.6751
 5680TIP3    H238676   4.860   3.473   0.603 -1.8053 -0.2763  1.5608
 5681TIP3   OH238677   4.951   2.722   1.717 -0.1015  0.0108 -0.3328
 5681TIP3    H138678   4.930   2.809   1.684  2.2694  0.0531 -2.0126
 5681TIP3    H238679   4.982   2.674   1.639 -0.2191 -1.9572  0.7647
 5682TIP3   OH238680   5.488   6.358   0.359 -0.3903 -0.6695  0.0844
 5682TIP3    H138681   5.458   6.356   0.268  0.4737 -1.8722 -0.1988
 5682TIP3    H238682   5.459   6.274   0.395  1.3006 -1.2264  0.2200
 5683TIP3   OH238683   2.588   2.855   2.275 -0.2129  0.0327 -0.6370
 5683TIP3    H138684   2.502   2.842   2.237 -1.0426  0.2103  1.0608
 5683TIP3    H238685   2.581   2.817   2.363  1.0386  1.1429 -0.0204
 5684TIP3   OH238686   5.583   6.375   2.340 -0.3341  0.8181  0.4552
 5684TIP3    H138687   5.547   6.358   2.428  2.1485 -0.5133  1.2988
 5684TIP3    H238688   5.675   6.396   2.355 -0.0159  1.3308 -1.8144
 5685TIP3   OH238689   3.826   3.422   3.670 -0.0087  0.0521 -0.0825
 5685TIP3    H138690   3.842   3.332   3.640 -0.4488 -0.2460  0.5351
 5685TIP3    H238691   3.732   3.435   3.655  0.0643  0.4196 -0.2047
 5686TIP3   OH238692   6.830   0.986   1.010  0.4990  0.2130 -0.9169
 5686TIP3    H138693   6.883   1.040   1.069 -1.3553  0.4107  0.6892
 5686TIP3    H238694   6.840   1.027   0.924  1.2827  1.4870 -0.2463
 5687TIP3   OH238695   6.014   6.286   2.620 -0.0992 -0.1490 -0.6733
 5687TIP3    H138696   6.092   6.236   2.642 -1.2392 -2.5064 -1.6252
 5687TIP3    H238697   6.006   6.352   2.689  1.7305 -0.9922  0.3923
 5688TIP3   OH238698   1.262   2.080   3.434 -0.4739 -0.2056 -0.3108
 5688TIP3    H138699   1.226   1.992   3.420  2.2859 -1.2973 -1.3327
 5688TIP3    H238700   1.242   2.128   3.354 -0.4309 -0.5012 -0.4992
 5689TIP3   OH238701   4.211   0.787   3.000 -0.0844 -0.2448 -0.0249
 5689TIP3    H138702   4.222   0.749   3.087  1.5220 -0.2401 -0.1918
 5689TIP3    H238703   4.152   0.861   3.013  2.0704  1.3172  1.5555
 5690TIP3   OH238704   2.347   1.360   2.682  0.3236  0.0913  0.1397
 5690TIP3    H138705   2.439   1.383   2.670  0.3015  1.1128  1.7142
 5690TIP3    H238706   2.299   1.439   2.660 -0.2328 -0.5205 -0.9494
 5691TIP3   OH238707   6.255   4.669   2.288 -0.3104 -0.2973 -0.7077
 5691TIP3    H138708   6.191   4.738   2.266  0.5345  0.2544 -1.5128
 5691TIP3    H238709   6.280   4.688   2.378 -1.1158 -0.3955 -0.4505
 5692TIP3   OH238710   4.272   6.249   1.208 -0.1205 -0.3380 -0.4143
 5692TIP3    H138711   4.223   6.291   1.279 -0.4144 -1.5754  0.1264
 5692TIP3    H238712   4.354   6.298   1.204 -1.1392  1.4154 -0.9738
 5693TIP3   OH238713   5.499   3.272   0.844  0.8771 -0.8137 -0.4019
 5693TIP3    H138714   5.541   3.347   0.801  1.0115 -1.4248 -1.3721
 5693TIP3    H238715   5.458   3.309   0.922  0.3265  0.4123 -1.2422
 5694TIP3   OH238716   6.500   5.321   8.296 -0.0454 -0.5303 -0.2749
 5694TIP3    H138717   6.480   5.237   8.254 -0.1136  0.1795 -1.7052
 5694TIP3    H238718   6.520   5.380   8.224 -1.0005  0.9682  0.6344
 5695TIP3   OH238719   6.841   6.364   2.829  0.2477  0.2303 -0.4822
 5695TIP3    H138720   6.849   6.278   2.789  1.0000  0.2176 -0.3300
 5695TIP3    H238721   6.829   6.346   2.923 -0.3276  0.2796 -0.5447
 5696TIP3   OH238722   0.945   3.610   0.905  0.0334  0.2573  0.0884
 5696TIP3    H138723   1.025   3.560   0.887  0.7850  1.3813  0.1846
 5696TIP3    H238724   0.899   3.613   0.821  0.9811  1.0893 -0.4335
 5697TIP3   OH238725   2.898   5.218   0.918 -0.0784 -0.0135  0.4739
 5697TIP3    H138726   2.928   5.184   0.834 -1.3171  0.8895 -0.3843
 5697TIP3    H238727   2.872   5.309   0.899 -0.7291  0.0906  1.7444
 5698TIP3   OH238728   5.149   0.738   2.822  0.5352  0.4426  0.3855
 5698TIP3    H138729   5.235   0.719   2.858  0.9166 -1.2341 -1.2631
 5698TIP3    H238730   5.162   0.818   2.771  1.3457 -0.2363 -0.5098
 5699TIP3   OH238731   3.162   0.596   4.151 -0.1119 -0.0659  0.1936
 5699TIP3    H138732   3.233   0.633   4.204  1.7227 -1.7497 -0.9398
 5699TIP3    H238733   3.162   0.503   4.173 -2.7987  0.0434  0.9801
 5700TIP3   OH238734   0.269   0.392   8.512  0.5113  0.2011  0.0013
 5700TIP3    H138735   0.214   0.393   8.434  0.8123 -2.7396 -0.3745
 5700TIP3    H238736   0.209   0.370   8.583  0.9484 -2.0911 -0.2652
 5701TIP3   OH238737   5.461   6.879   1.115 -0.0300  0.2033 -0.3441
 5701TIP3    H138738   5.388   6.821   1.134 -0.8064  1.3080  0.1735
 5701TIP3    H238739   5.425   6.967   1.124  0.8133  0.8023 -2.1584
 5702TIP3   OH238740   6.678   1.058   2.263 -0.0429 -0.0683 -0.0281
 5702TIP3    H138741   6.686   1.141   2.215 -0.5892 -0.0385 -0.0725
 5702TIP3    H238742   6.618   1.006   2.211  2.0885 -1.4398 -1.2803
 5703TIP3   OH238743   5.570   1.996   2.738  0.3289  0.1414 -0.0029
 5703TIP3    H138744   5.569   2.024   2.647 -0.9483 -1.5193 -0.5366
 5703TIP3    H238745   5.478   1.983   2.761  0.7130 -0.9438  1.0463
 5704TIP3   OH238746   3.241   1.649   1.443  0.1720  0.4183 -0.2023
 5704TIP3    H138747   3.256   1.591   1.518 -0.0084 -1.3330 -1.4643
 5704TIP3    H238748   3.321   1.643   1.391 -0.1646  0.6646 -0.7612
 5705TIP3   OH238749   5.594   5.697   0.887  0.3558  0.4563 -0.1131
 5705TIP3    H138750   5.549   5.647   0.955 -2.1347 -0.7456 -2.4989
 5705TIP3    H238751   5.687   5.675   0.899 -0.1079 -0.5439  2.1738
 5706TIP3   OH238752   2.456   1.609   3.273 -0.4215 -0.2926 -0.1728
 5706TIP3    H138753   2.409   1.622   3.355 -1.7542  0.2642 -0.9967
 5706TIP3    H238754   2.547   1.592   3.300 -0.3897  1.8845  1.3305
 5707TIP3   OH238755   5.021   2.965   3.195 -0.2905 -0.0475  0.4972
 5707TIP3    H138756   5.068   2.882   3.199 -0.5440 -0.2802 -0.8074
 5707TIP3    H238757   4.933   2.942   3.164 -0.3153  0.7146 -0.0379
 5708TIP3   OH238758   1.562   2.237   3.524 -0.1220  0.7044 -0.1718
 5708TIP3    H138759   1.483   2.291   3.539  0.7650  1.7404  1.0030
 5708TIP3    H238760   1.603   2.231   3.610  0.1904 -1.3121 -0.4182
 5709TIP3   OH238761   0.128   6.458   1.233 -0.1205  0.3121  0.1061
 5709TIP3    H138762   0.203   6.442   1.290  1.0984  1.5649 -1.0780
 5709TIP3    H238763   0.078   6.526   1.279 -0.4580 -0.3983  0.8143
 5710TIP3   OH238764   4.186   6.343   2.449 -0.2219 -0.6247 -0.1434
 5710TIP3    H138765   4.108   6.329   2.502 -1.5625  0.1280 -1.8204
 5710TIP3    H238766   4.215   6.432   2.470 -0.1009 -0.7277  0.1254
 5711TIP3   OH238767   0.149   0.049   2.015 -0.3706 -0.2977  0.6435
 5711TIP3    H138768   0.075   0.024   1.959 -2.0534  0.7522  2.2896
 5711TIP3    H238769   0.147   0.144   2.017  1.0541 -0.2511  0.7316
 5712TIP3   OH238770   6.483   3.075   4.100 -0.0443  0.1844 -0.3431
 5712TIP3    H138771   6.492   3.167   4.077 -0.4804  0.0146 -1.2079
 5712TIP3    H238772   6.499   3.027   4.019  2.3214 -0.6268  0.5287
 5713TIP3   OH238773   5.833   6.234   2.146  0.2997  0.3836  0.3435
 5713TIP3    H138774   5.914   6.221   2.097 -0.2812 -0.1660 -0.4970
 5713TIP3    H238775   5.858   6.290   2.220  1.5552 -0.2556  0.4188
 5714TIP3   OH238776   4.138   4.464   1.267 -0.0550 -0.3167 -0.0249
 5714TIP3    H138777   4.147   4.465   1.172 -1.0630  0.0458 -0.1388
 5714TIP3    H238778   4.069   4.400   1.284 -0.7135  0.4744  0.3563
 5715TIP3   OH238779   1.279   0.915   3.683 -0.4600  0.2296  0.4562
 5715TIP3    H138780   1.268   1.010   3.687  1.9293  0.6207 -0.5265
 5715TIP3    H238781   1.362   0.899   3.729  0.8320 -0.9224 -2.0634
 5716TIP3   OH238782   6.351   4.249   8.368  0.0737  0.2858  0.0472
 5716TIP3    H138783   6.394   4.182   8.421  0.0540  0.7036  0.6052
 5716TIP3    H238784   6.343   4.210   8.281 -2.5275 -1.5884  1.0069
 5717TIP3   OH238785   0.402   1.484   0.254  0.3264 -0.4624  0.0582
 5717TIP3    H138786   0.342   1.551   0.222 -0.1805 -0.5527  0.8035
 5717TIP3    H238787   0.365   1.401   0.224  1.7644 -0.3778 -2.2067
 5718TIP3   OH238788   6.298   3.846   2.761  0.0300 -0.3341 -0.1682
 5718TIP3    H138789   6.328   3.761   2.794  0.0487 -0.1053  0.4235
 5718TIP3    H238790   6.211   3.857   2.801  0.6652  0.6130  1.0179
 5719TIP3   OH238791   0.599   5.309   1.668 -0.1582 -0.0627  0.4381
 5719TIP3    H138792   0.532   5.360   1.714  1.3014  1.7608  0.6699
 5719TIP3    H238793   0.572   5.312   1.576 -1.1692 -0.6390  0.7048
 5720TIP3   OH238794   0.503   5.579   8.492 -0.2103 -0.3891  0.0742
 5720TIP3    H138795   0.498   5.486   8.512  1.8103 -0.0674  2.6252
 5720TIP3    H238796   0.423   5.616   8.529 -0.9594 -1.0529 -0.8352
 5721TIP3   OH238797   5.349   0.066   2.021 -0.1939  0.6279 -0.0492
 5721TIP3    H138798   5.384   0.140   2.072  0.7960  0.6246 -0.6999
 5721TIP3    H238799   5.397   0.069   1.938 -0.9123 -0.1064 -0.5070
 5722TIP3   OH238800   2.803   0.310   0.938  0.1922 -0.9466 -0.0880
 5722TIP3    H138801   2.886   0.354   0.918  1.1150 -1.9477  1.2886
 5722TIP3    H238802   2.787   0.331   1.030 -0.3779 -1.8512  0.0346
 5723TIP3   OH238803   2.737   5.579   0.765  0.2914 -0.3142  0.0641
 5723TIP3    H138804   2.742   5.507   0.828  2.6933  0.3602  0.7638
 5723TIP3    H238805   2.652   5.619   0.781 -0.2049 -1.6957  1.1129
 5724TIP3   OH238806   6.078   2.089   3.838 -0.1444  0.1420 -0.0629
 5724TIP3    H138807   6.133   2.157   3.877  2.8670 -0.9528 -1.9741
 5724TIP3    H238808   6.059   2.121   3.750 -0.0859 -0.7669 -0.4164
 5725TIP3   OH238809   1.772   5.203   2.269 -0.3192 -0.4210 -0.0574
 5725TIP3    H138810   1.805   5.256   2.197  1.1331  1.0004  1.5593
 5725TIP3    H238811   1.724   5.132   2.227  0.3006  0.4576 -2.3869
 5726TIP3   OH238812   0.056   6.861   1.611 -0.1722 -0.7662  0.0394
 5726TIP3    H138813  -0.039   6.850   1.606 -0.3509  0.2748  0.6549
 5726TIP3    H238814   0.078   6.833   1.700 -0.0238 -0.3474  0.1399
 5727TIP3   OH238815   3.503   4.646   3.707  0.1066  0.5787  0.2315
 5727TIP3    H138816   3.502   4.611   3.618  3.7624 -3.7925  1.5238
 5727TIP3    H238817   3.413   4.639   3.736 -0.4344 -2.4208 -1.7108
 5728TIP3   OH238818   2.122   0.089   2.992 -0.5495 -0.3944 -0.1177
 5728TIP3    H138819   2.165   0.071   3.075  2.5702 -0.4189 -1.5815
 5728TIP3    H238820   2.099   0.003   2.957  2.8678 -0.9029 -1.4733
 5729TIP3   OH238821   4.526   1.404   3.298 -0.2551 -0.1693 -0.3350
 5729TIP3    H138822   4.542   1.498   3.299  0.7580 -0.3243 -0.7390
 5729TIP3    H238823   4.614   1.365   3.295 -0.6856 -1.0941 -1.8571
 5730TIP3   OH238824   4.532   6.331   1.256 -0.0817 -0.6410 -0.3009
 5730TIP3    H138825   4.559   6.338   1.347  0.8997 -1.7925 -0.4643
 5730TIP3    H238826   4.606   6.366   1.206 -0.2464 -0.8200 -0.6792
 5731TIP3   OH238827   5.219   5.706   0.239  0.5744  0.1030  0.4480
 5731TIP3    H138828   5.196   5.776   0.179  1.0665 -0.5913 -0.5808
 5731TIP3    H238829   5.314   5.713   0.249  0.6740 -0.6210  0.0629
 5732TIP3   OH238830   4.392   0.557   2.901  0.5658  0.0255 -0.7554
 5732TIP3    H138831   4.350   0.640   2.922 -1.2679 -0.6746 -1.4506
 5732TIP3    H238832   4.429   0.527   2.984  0.5972  1.1678 -0.3380
 5733TIP3   OH238833   1.084   4.945   8.520 -0.6436  0.1107  0.4316
 5733TIP3    H138834   1.158   5.000   8.493 -0.7673  0.0420 -0.0423
 5733TIP3    H238835   1.109   4.915   8.608  1.2945 -2.3770 -0.8570
 5734TIP3   OH238836   5.967   3.560   3.485 -0.3548  0.6298 -0.3150
 5734TIP3    H138837   6.020   3.535   3.409 -0.2304  1.4562 -0.5120
 5734TIP3    H238838   5.998   3.503   3.556 -0.8491 -0.5282 -1.0097
 5735TIP3   OH238839   3.799   3.843   1.066 -0.1576 -0.1247  0.0643
 5735TIP3    H138840   3.769   3.934   1.071  2.4175  0.7708  1.4132
 5735TIP3    H238841   3.751   3.799   1.137 -0.4839  0.5093  0.2520
 5736TIP3   OH238842   5.436   5.304   3.739  0.2646 -0.8032  0.2096
 5736TIP3    H138843   5.470   5.390   3.714 -1.4145 -0.4687 -1.0758
 5736TIP3    H238844   5.456   5.297   3.832  0.7815  0.8253  0.2518
 5737TIP3   OH238845   6.584   1.284   3.283 -0.1290 -0.0619 -0.2545
 5737TIP3    H138846   6.523   1.314   3.215 -0.0425 -0.3565 -0.4628
 5737TIP3    H238847   6.578   1.350   3.351  0.3967  0.6902 -0.9082
 5738TIP3   OH238848   5.803   4.829   1.296 -0.3823  0.1954 -0.4378
 5738TIP3    H138849   5.724   4.847   1.245 -1.2581 -2.2869 -0.1249
 5738TIP3    H238850   5.866   4.796   1.231  0.4313  2.1331 -0.6810
 5739TIP3   OH238851   6.191   1.446   2.478 -0.2694 -0.6917 -0.1046
 5739TIP3    H138852   6.234   1.517   2.430  0.0287  0.6709  2.0262
 5739TIP3    H238853   6.182   1.376   2.414 -1.1656  1.4741 -2.5117
 5740TIP3   OH238854   0.480   1.662   3.299 -0.8379 -0.2393  0.1077
 5740TIP3    H138855   0.535   1.623   3.230 -0.1213 -2.4547  1.8243
 5740TIP3    H238856   0.543   1.701   3.360 -1.2818 -0.7023  0.8775
 5741TIP3   OH238857   4.128   4.479   2.135  0.2364 -0.1839 -0.1243
 5741TIP3    H138858   4.067   4.427   2.188  2.2299 -0.9455  1.5701
 5741TIP3    H238859   4.211   4.432   2.141  0.5744 -0.4534 -4.2700
 5742TIP3   OH238860   1.377   2.417   2.940 -0.4437 -0.3484 -0.1524
 5742TIP3    H138861   1.390   2.349   3.005 -1.6182  0.6348  1.1617
 5742TIP3    H238862   1.305   2.385   2.886 -1.3185  0.0370  0.7617
 5743TIP3   OH238863   0.078   2.856   1.657 -0.5636 -0.5961 -0.3743
 5743TIP3    H138864   0.138   2.799   1.609 -0.4078  0.6965 -1.7845
 5743TIP3    H238865   0.092   2.833   1.749  2.0043 -0.4720 -0.6579
 5744TIP3   OH238866   1.123   2.200   3.227 -0.0535  0.5099 -0.8630
 5744TIP3    H138867   1.077   2.281   3.253  0.1977  0.1848  0.6892
 5744TIP3    H238868   1.053   2.143   3.194 -0.4232  0.9089 -0.7839
 5745TIP3   OH238869   0.938   1.571   8.196 -0.2383 -0.2737  1.1236
 5745TIP3    H138870   0.950   1.519   8.276 -2.8987 -2.1788  0.4225
 5745TIP3    H238871   0.858   1.621   8.213  0.1145  0.6279  0.2376
 5746TIP3   OH238872   5.956   0.330   7.925 -0.5235  0.0692  0.0130
 5746TIP3    H138873   6.047   0.344   7.898 -1.7186  2.5139 -3.3105
 5746TIP3    H238874   5.942   0.394   7.995 -0.2392  1.2213 -0.9601
 5747TIP3   OH238875   3.281   5.070   0.270 -0.2110 -0.3301  0.0693
 5747TIP3    H138876   3.337   5.117   0.332 -0.7112 -0.6790  0.8088
 5747TIP3    H238877   3.334   5.060   0.192  0.4839  0.0213  0.4870
 5748TIP3   OH238878   0.664   2.691   0.527 -0.1220 -0.1904 -0.4022
 5748TIP3    H138879   0.713   2.771   0.505  0.5510  0.1737  2.1480
 5748TIP3    H238880   0.587   2.695   0.470  0.7235  1.4036 -1.5275
 5749TIP3   OH238881   1.969   2.301   1.912 -0.2442 -0.2680  0.1028
 5749TIP3    H138882   2.061   2.330   1.907 -0.5378  0.4939 -1.6609
 5749TIP3    H238883   1.969   2.233   1.979  1.3221  0.7834  1.2445
 5750TIP3   OH238884   1.265   2.957   1.956  0.6187  0.2499  0.1152
 5750TIP3    H138885   1.285   3.036   2.006  0.1689  0.1606  0.4455
 5750TIP3    H238886   1.179   2.975   1.916 -0.2270 -0.6571  1.4501
 5751TIP3   OH238887   0.051   5.747   0.687 -0.0283  0.6380  0.2222
 5751TIP3    H138888   0.051   5.743   0.782 -0.8866  0.8913  0.2369
 5751TIP3    H238889   0.077   5.837   0.667 -0.0122  0.6321  0.2175
 5752TIP3   OH238890   2.706   6.810   0.208  0.4658 -0.4644  0.3115
 5752TIP3    H138891   2.727   6.733   0.156 -0.8809 -0.6570  0.0079
 5752TIP3    H238892   2.700   6.777   0.298 -0.1991 -0.7568  0.1707
 5753TIP3   OH238893   4.267   1.120   2.924  0.9883  0.0121  0.2655
 5753TIP3    H138894   4.305   1.123   3.012 -0.3692 -0.0451  0.8696
 5753TIP3    H238895   4.173   1.127   2.938  0.8092  1.3126 -1.2726
 5754TIP3   OH238896   3.692   4.820   4.068 -0.3096  0.0500 -0.4359
 5754TIP3    H138897   3.780   4.852   4.089 -0.7282  0.8731  0.0876
 5754TIP3    H238898   3.644   4.826   4.150 -0.7129 -0.9303 -0.5821
 5755TIP3   OH238899   1.489   6.192   2.758  0.4889  0.1211  0.0421
 5755TIP3    H138900   1.476   6.106   2.718  0.5753  0.2052 -0.1699
 5755TIP3    H238901   1.401   6.222   2.779  0.0803  1.4631 -2.9963
 5756TIP3   OH238902   5.939   6.117   0.556 -0.2458  0.4608 -0.9273
 5756TIP3    H138903   5.925   6.083   0.468 -2.0190 -0.3805 -0.3672
 5756TIP3    H238904   5.861   6.167   0.576 -0.1970  0.0560  0.4182
 5757TIP3   OH238905   1.450   2.850   3.745 -0.4363 -0.2121  0.1156
 5757TIP3    H138906   1.422   2.870   3.835  3.1242 -2.2242  1.8705
 5757TIP3    H238907   1.459   2.755   3.744 -1.1924 -0.3425 -2.7500
 5758TIP3   OH238908   1.758   6.638   3.166  0.0872  0.5792  0.5733
 5758TIP3    H138909   1.696   6.647   3.094  1.0622  1.3725 -0.2003
 5758TIP3    H238910   1.795   6.551   3.155 -0.8256  0.1300  0.9964
 5759TIP3   OH238911   5.156   5.747   4.082  0.1563  1.0382  0.3503
 5759TIP3    H138912   5.067   5.770   4.107  0.0702  0.8514  0.2204
 5759TIP3    H238913   5.190   5.697   4.156 -0.2683  0.0568 -0.0937
 5760TIP3   OH238914   2.106   6.597   2.845 -0.3891 -0.1164 -0.5667
 5760TIP3    H138915   2.046   6.663   2.879 -0.9551 -1.4185  1.1450
 5760TIP3    H238916   2.048   6.528   2.812  0.1840  0.1400 -2.1989
 5761TIP3   OH238917   6.913   1.221   1.949 -0.3932 -0.0734 -1.1583
 5761TIP3    H138918   6.997   1.265   1.948 -0.7329  0.7218  0.7834
 5761TIP3    H238919   6.928   1.139   1.901  1.8067 -0.5134  0.1554
 5762TIP3   OH238920   0.907   6.185   2.023  0.3549  0.0596  0.0182
 5762TIP3    H138921   0.912   6.257   1.961  0.5478 -1.4714 -1.8275
 5762TIP3    H238922   0.835   6.209   2.082  0.5392  1.8184 -0.4065
 5763TIP3   OH238923   4.063   1.500   2.872  0.0660  1.0783  0.2087
 5763TIP3    H138924   3.971   1.472   2.870  0.3693  0.0317  0.2521
 5763TIP3    H238925   4.089   1.489   2.963 -0.5621  4.1743  0.8565
 5764TIP3   OH238926   1.211   1.785   2.546 -0.2917 -0.2643 -0.7138
 5764TIP3    H138927   1.247   1.873   2.548  0.6914 -0.6431  2.3632
 5764TIP3    H238928   1.181   1.774   2.455  4.5251  1.1999 -2.8084
 5765TIP3   OH238929   0.231   2.441   0.152  0.5382 -0.3592 -0.4214
 5765TIP3    H138930   0.200   2.435   0.062  1.2892 -0.7543 -0.6627
 5765TIP3    H238931   0.176   2.509   0.192 -0.1112 -0.5090 -1.0389
 5766TIP3   OH238932   5.373   3.582   8.112 -0.4543  0.0634 -0.8104
 5766TIP3    H138933   5.312   3.582   8.186  0.7020 -3.7050  0.4241
 5766TIP3    H238934   5.328   3.533   8.043  0.3934 -1.1292 -0.5609
 5767TIP3   OH238935   6.346   1.486   1.419 -0.8240 -0.5280  0.0631
 5767TIP3    H138936   6.437   1.514   1.417 -0.7375 -0.7431  0.8572
 5767TIP3    H238937   6.338   1.427   1.344 -0.5070  0.0792 -0.4547
 5768TIP3   OH238938   4.204   0.208   2.600  0.4882  0.5092 -0.2133
 5768TIP3    H138939   4.134   0.166   2.648  1.0490 -0.0720  0.1093
 5768TIP3    H238940   4.283   0.160   2.624  1.0960  1.5178 -0.1108
 5769TIP3   OH238941   0.443   1.490   2.787  0.4594 -0.7532  0.1583
 5769TIP3    H138942   0.396   1.408   2.772  0.5537 -0.4143 -2.3277
 5769TIP3    H238943   0.474   1.516   2.701  0.2519  2.0201  0.8234
 5770TIP3   OH238944   6.852   2.883   2.179 -0.0449 -0.1767  0.4168
 5770TIP3    H138945   6.853   2.930   2.262 -0.4592  0.8738 -0.1471
 5770TIP3    H238946   6.764   2.898   2.144  0.4586  0.3130 -0.6986
 5771TIP3   OH238947   1.203   1.048   0.393  0.3756 -0.1195  0.6353
 5771TIP3    H138948   1.242   1.109   0.330  0.6209  1.4706  2.2604
 5771TIP3    H238949   1.116   1.084   0.409  0.3552 -0.4528  1.2783
 5772TIP3   OH238950   6.169   2.382   3.127  0.0369 -0.2783 -0.5898
 5772TIP3    H138951   6.159   2.410   3.218  0.3350 -0.0184 -0.6371
 5772TIP3    H238952   6.081   2.389   3.090 -0.3983 -1.8365  0.0820
 5773TIP3   OH238953   0.796   5.524   3.614 -0.2450  0.4492 -0.5878
 5773TIP3    H138954   0.853   5.596   3.640 -0.1103  0.4104 -0.7703
 5773TIP3    H238955   0.731   5.565   3.556  0.3130  0.2898 -1.3450
 5774TIP3   OH238956   4.516   4.750   3.353 -0.1664  0.2959  0.0467
 5774TIP3    H138957   4.558   4.834   3.339  1.0917 -0.2990  0.1157
 5774TIP3    H238958   4.446   4.767   3.416  1.0311  1.0031  1.2090
 5775TIP3   OH238959   0.069   2.658   0.301 -0.4199  0.1400 -0.0143
 5775TIP3    H138960   0.092   2.734   0.248 -2.0345  1.3137  0.8887
 5775TIP3    H238961  -0.027   2.652   0.295 -0.2947 -2.4256 -0.8278
 5776TIP3   OH238962   4.944   0.119   0.181 -0.0791  0.2867 -0.1748
 5776TIP3    H138963   4.936   0.039   0.234 -0.2355  0.8433  0.6756
 5776TIP3    H238964   5.037   0.127   0.163  0.0333  0.3227  0.4057
 5777TIP3   OH238965   1.475   2.797   1.870 -0.2692  0.5496  0.6574
 5777TIP3    H138966   1.402   2.849   1.904 -0.6781  1.0252 -0.8953
 5777TIP3    H238967   1.527   2.859   1.818 -0.5701 -0.4721 -0.9248
 5778TIP3   OH238968   6.340   0.233   2.840  0.2246 -0.6750  0.9320
 5778TIP3    H138969   6.339   0.141   2.865  0.8492 -0.7647  0.6539
 5778TIP3    H238970   6.427   0.247   2.802  0.1203  0.0159  0.9243
 5779TIP3   OH238971   0.660   2.099   0.327  0.6323  0.0968  0.1635
 5779TIP3    H138972   0.732   2.152   0.293 -0.3369  1.4821  0.2239
 5779TIP3    H238973   0.581   2.145   0.301 -0.2925 -1.7480 -0.4744
 5780TIP3   OH238974   2.287   2.097   1.765  0.3158 -0.1364  0.4592
 5780TIP3    H138975   2.292   2.144   1.848  1.5200 -0.3680  0.5282
 5780TIP3    H238976   2.357   2.032   1.770 -0.4909 -1.0836 -0.1639
 5781TIP3   OH238977   4.405   0.710   1.191  0.4889  0.0678  0.1338
 5781TIP3    H138978   4.386   0.803   1.199 -0.6588 -0.2241  1.3092
 5781TIP3    H238979   4.321   0.671   1.166  0.9379 -0.6659 -0.2548
 5782TIP3   OH238980   6.503   2.401   0.246  0.1068  0.2606 -0.4628
 5782TIP3    H138981   6.583   2.418   0.295  0.3620  0.6553 -0.9999
 5782TIP3    H238982   6.433   2.437   0.299  0.0874 -1.4165  0.7515
 5783TIP3   OH238983   0.075   2.665   7.969  0.8371 -0.1507  0.1066
 5783TIP3    H138984   0.145   2.601   7.960  0.6157 -0.2887 -0.7664
 5783TIP3    H238985   0.101   2.720   8.042  1.6875 -0.4037 -0.0010
 5784TIP3   OH238986   6.836   6.898   1.931  0.1783  0.3265 -0.1325
 5784TIP3    H138987   6.792   6.816   1.954  1.2840 -0.1836  0.2356
 5784TIP3    H238988   6.779   6.938   1.864 -0.4560 -0.6525 -0.2002
 5785TIP3   OH238989   0.804   3.567   0.659  0.7868  0.0710 -0.5019
 5785TIP3    H138990   0.850   3.627   0.600  2.6447 -0.5612  0.2551
 5785TIP3    H238991   0.723   3.613   0.681  1.2846  1.4632 -1.4459
 5786TIP3   OH238992   1.417   0.402   0.616 -0.1265  1.0511 -0.2064
 5786TIP3    H138993   1.361   0.479   0.615 -0.1928  1.0148  0.4831
 5786TIP3    H238994   1.365   0.334   0.573 -0.0749  1.3791 -0.7942
 5787TIP3   OH238995   4.258   0.216   0.975  0.3460  0.4049  0.0892
 5787TIP3    H138996   4.334   0.234   1.031 -0.1042 -0.2759  0.9572
 5787TIP3    H238997   4.183   0.219   1.035 -0.1193 -0.6746 -0.4094
 5788TIP3   OH238998   0.112   1.880   1.210 -0.2636 -0.4088  0.6555
 5788TIP3    H138999   0.153   1.952   1.162  1.7563 -1.8620  0.0287
 5788TIP3    H239000   0.034   1.857   1.158 -0.0258  0.2804 -0.0158
 5789TIP3   OH239001   2.170   6.092   3.418 -0.1747  0.5291  0.0296
 5789TIP3    H139002   2.161   6.147   3.340  1.5649  0.9237  0.0656
 5789TIP3    H239003   2.237   6.136   3.471  1.6390 -1.8045 -0.1615
 5790TIP3   OH239004   2.308   3.782   0.096  0.8141  0.0517  0.1257
 5790TIP3    H139005   2.357   3.705   0.123 -2.0749 -2.7041 -1.7492
 5790TIP3    H239006   2.372   3.839   0.055  2.8168 -2.1061  0.0828
 5791TIP3   OH239007   6.171   4.517   0.940 -0.2594 -0.0730 -0.6292
 5791TIP3    H139008   6.109   4.578   0.899  0.5050  2.7729  2.0380
 5791TIP3    H239009   6.255   4.536   0.898 -0.1607  0.1774 -0.3212
 5792TIP3   OH239010   2.213   0.790   0.989  0.4268 -0.4461  0.4597
 5792TIP3    H139011   2.256   0.805   0.905  0.9278 -1.7634  0.4515
 5792TIP3    H239012   2.244   0.703   1.016 -0.0572 -0.2223  1.7985
 5793TIP3   OH239013   4.098   0.817   1.584 -0.5064  0.4570 -0.4588
 5793TIP3    H139014   4.067   0.774   1.664  0.4886 -0.2132 -0.4197
 5793TIP3    H239015   4.042   0.781   1.515 -0.7034  0.2790 -0.2081
 5794TIP3   OH239016   6.757   3.152   1.684 -0.3502  0.1399  0.0740
 5794TIP3    H139017   6.831   3.155   1.745  0.0121 -0.7372 -0.3093
 5794TIP3    H239018   6.790   3.194   1.604 -0.1327 -0.6086 -0.2323
 5795TIP3   OH239019   6.636   6.444   1.693  0.2533  0.4407 -0.3812
 5795TIP3    H139020   6.720   6.434   1.649  0.6283 -0.0757  0.4378
 5795TIP3    H239021   6.609   6.533   1.673  2.4354  1.6889  1.8004
 5796TIP3   OH239022   2.686   3.868   2.434 -0.7156 -0.1577  0.5481
 5796TIP3    H139023   2.591   3.857   2.433 -0.6965 -0.2818  0.2102
 5796TIP3    H239024   2.720   3.782   2.459 -0.7562  0.2978  2.2731
 5797TIP3   OH239025   3.256   3.791   3.145 -0.0785 -0.1188 -0.0631
 5797TIP3    H139026   3.347   3.781   3.120 -0.6174 -1.5414 -1.6442
 5797TIP3    H239027   3.245   3.731   3.219  0.2075 -0.0900  0.0050
 5798TIP3   OH239028   0.717   1.976   8.369 -0.1676 -0.1519 -0.3454
 5798TIP3    H139029   0.802   2.018   8.356  0.0069 -0.8669 -1.7218
 5798TIP3    H239030   0.699   1.986   8.463  1.7399 -0.5376  0.1093
 5799TIP3   OH239031   1.243   5.309   0.074 -0.2055 -0.1544  0.6524
 5799TIP3    H139032   1.174   5.271   0.129 -0.3036  0.1695  0.7562
 5799TIP3    H239033   1.233   5.404   0.086  0.4109 -0.1146  0.8469
 5800TIP3   OH239034   2.912   6.584   1.360 -0.1564  0.2006  0.2962
 5800TIP3    H139035   2.984   6.646   1.350  0.2200 -0.4516 -1.4986
 5800TIP3    H239036   2.878   6.573   1.271 -0.7479 -1.5159  0.7046
 5801TIP3   OH239037   3.135   1.047   0.251  0.1722 -1.0454 -0.1601
 5801TIP3    H139038   3.224   1.079   0.240  0.4943 -1.4581  1.0452
 5801TIP3    H239039   3.145   0.955   0.274 -0.7585 -2.3752 -4.2578
 5802TIP3   OH239040   3.051   4.960   1.357 -0.1858  0.5804 -0.3329
 5802TIP3    H139041   3.109   4.924   1.424  0.5105  0.7270 -0.8405
 5802TIP3    H239042   3.110   4.990   1.288 -0.8938  0.3488 -1.0553
 5803TIP3   OH239043   5.386   5.213   1.774 -0.1390 -0.0778 -0.3658
 5803TIP3    H139044   5.438   5.136   1.750 -2.7864 -2.3156  0.5120
 5803TIP3    H239045   5.342   5.188   1.855 -1.0255  2.4396  0.0231
 5804TIP3   OH239046   6.590   6.833   2.641  0.2060 -0.1713 -0.3044
 5804TIP3    H139047   6.660   6.821   2.706 -1.6142 -2.5650  1.4157
 5804TIP3    H239048   6.631   6.883   2.570  2.5699  1.8237  2.2470
 5805TIP3   OH239049   1.804   3.603   2.554  1.0820 -0.5146 -0.4175
 5805TIP3    H139050   1.841   3.516   2.541  1.6390 -0.2139 -0.8711
 5805TIP3    H239051   1.723   3.587   2.603  0.8886 -1.3313 -0.9850
 5806TIP3   OH239052   0.169   0.675   2.902  0.3721  0.3406  0.5377
 5806TIP3    H139053   0.097   0.675   2.840 -1.5535  1.8503  2.6326
 5806TIP3    H239054   0.247   0.685   2.847 -1.1048  0.4147 -1.6932
 5807TIP3   OH239055   3.239   2.951   2.372 -0.1340 -0.5793 -0.2354
 5807TIP3    H139056   3.156   2.981   2.335  1.2951  1.8142 -1.7628
 5807TIP3    H239057   3.261   3.015   2.439 -0.2690 -2.1239  1.3430
 5808TIP3   OH239058   6.554   3.867   1.408 -0.4797  0.0439 -0.5965
 5808TIP3    H139059   6.480   3.912   1.367 -1.9541 -0.6934  1.1132
 5808TIP3    H239060   6.536   3.872   1.502 -0.3439 -3.3783 -0.2652
 5809TIP3   OH239061   3.628   5.278   1.818 -0.1350 -0.3038 -0.0689
 5809TIP3    H139062   3.601   5.365   1.789  2.6359  0.2466 -1.3070
 5809TIP3    H239063   3.629   5.226   1.738  2.4644 -0.2150 -0.1678
 5810TIP3   OH239064   5.765   1.692   0.340  0.1534 -0.3166 -0.0178
 5810TIP3    H139065   5.739   1.617   0.287 -0.0960 -0.5379  0.4082
 5810TIP3    H239066   5.827   1.655   0.404  0.6389 -0.0095 -0.3071
 5811TIP3   OH239067   0.878   0.654   1.893 -0.1843  0.4574  0.2697
 5811TIP3    H139068   0.947   0.610   1.842 -0.2671  1.0492 -0.3772
 5811TIP3    H239069   0.827   0.702   1.827 -0.0711  1.5517  0.9457
 5812TIP3   OH239070   0.909   2.844   0.883 -0.3735  0.2209  0.2564
 5812TIP3    H139071   0.823   2.872   0.915 -0.1300 -0.4779  1.5986
 5812TIP3    H239072   0.972   2.900   0.928 -0.0712 -0.0871  0.2285
 5813TIP3   OH239073   1.974   4.733   4.528 -0.0293  0.4795  0.1914
 5813TIP3    H139074   2.012   4.809   4.484  0.3784  0.9253  1.2654
 5813TIP3    H239075   2.048   4.674   4.542 -0.0185  0.6379  0.8513
 5814TIP3   OH239076   1.250   1.839   0.696 -0.3103 -0.2675  0.1487
 5814TIP3    H139077   1.177   1.860   0.754  0.7809  0.9376  1.1498
 5814TIP3    H239078   1.250   1.909   0.630 -0.4860 -0.6631 -0.2777
 5815TIP3   OH239079   5.652   0.237   1.019  0.1305  0.3500  0.1963
 5815TIP3    H139080   5.651   0.222   1.113  3.1471 -1.7635  0.0362
 5815TIP3    H239081   5.583   0.181   0.984  0.8092 -1.0169  0.9789
 5816TIP3   OH239082   0.893   1.240   2.518 -0.2974 -0.3309 -0.3106
 5816TIP3    H139083   0.919   1.323   2.478 -0.8759 -1.2799 -2.8441
 5816TIP3    H239084   0.799   1.233   2.500 -0.3935 -1.2004  0.4935
 5817TIP3   OH239085   3.929   5.188   1.581 -0.4489 -0.0050  0.3495
 5817TIP3    H139086   4.015   5.154   1.607  0.1431  0.8167 -0.4941
 5817TIP3    H239087   3.915   5.264   1.637 -0.3603  0.2061  0.0873
 5818TIP3   OH239088   0.646   3.271   3.077  0.8309  0.0802 -0.0943
 5818TIP3    H139089   0.555   3.268   3.048  0.8789  3.2719 -1.0372
 5818TIP3    H239090   0.696   3.233   3.005  0.3843  0.7827 -0.7930
 5819TIP3   OH239091   0.743   1.978   1.841 -0.2816  0.2419  0.5233
 5819TIP3    H139092   0.697   1.915   1.897 -1.9718  1.7264  0.8911
 5819TIP3    H239093   0.677   2.009   1.779  1.0027  0.2729 -0.9052
 5820TIP3   OH239094   4.661   2.638   0.427  0.4612  0.0358  0.3046
 5820TIP3    H139095   4.698   2.718   0.390  0.0393 -0.4341 -1.2167
 5820TIP3    H239096   4.632   2.662   0.515  1.4193  1.2330  0.3108
 5821TIP3   OH239097   1.723   1.697   1.575  0.1067 -0.2895  0.4497
 5821TIP3    H139098   1.673   1.642   1.635 -1.9892 -0.3493 -1.2611
 5821TIP3    H239099   1.657   1.749   1.529  1.8220  1.5892 -0.0331
 5822TIP3   OH239100   4.966   1.196   8.515  0.4024 -0.0974  0.2198
 5822TIP3    H139101   4.999   1.108   8.529 -0.6494 -0.5954 -0.2906
 5822TIP3    H239102   5.025   1.252   8.565  1.6277 -0.9911 -0.1904
 5823TIP3   OH239103   2.970   1.549   2.425 -0.2837  0.7188  0.2901
 5823TIP3    H139104   2.959   1.488   2.352 -0.6197  0.7463  0.3146
 5823TIP3    H239105   3.041   1.512   2.477  1.2842  1.6658 -1.0512
 5824TIP3   OH239106   5.010   1.286   0.287 -0.4164  0.6621  0.4255
 5824TIP3    H139107   4.938   1.342   0.317 -1.7013  0.4600 -2.0726
 5824TIP3    H239108   4.985   1.198   0.313 -2.4413  0.2225 -2.5207
 5825TIP3   OH239109   2.504   1.577   2.585  0.3424  0.2470 -0.0415
 5825TIP3    H139110   2.564   1.564   2.512  1.2292 -0.7204  0.8297
 5825TIP3    H239111   2.417   1.573   2.545  0.8298  1.1192 -1.2381
 5826TIP3   OH239112   2.385   5.885   2.964  0.0836 -0.5527  0.1274
 5826TIP3    H139113   2.455   5.949   2.969 -0.3418 -0.1077  0.5288
 5826TIP3    H239114   2.346   5.899   2.878  1.3703 -1.7575 -0.6791
 5827TIP3   OH239115   4.301   5.028   2.830 -0.3182 -0.3434 -0.2401
 5827TIP3    H139116   4.368   5.083   2.790  0.3059 -0.6271  0.4068
 5827TIP3    H239117   4.320   4.940   2.800  0.5825 -0.6721  1.1854
 5828TIP3   OH239118   6.301   2.534   0.388 -0.5158 -0.5108 -0.0532
 5828TIP3    H139119   6.319   2.566   0.476 -0.5976  0.1578 -0.2788
 5828TIP3    H239120   6.275   2.611   0.339 -2.1694 -1.1484 -0.2271
 5829TIP3   OH239121   2.097   2.706   3.806 -0.1557 -0.0885 -0.0048
 5829TIP3    H139122   2.035   2.722   3.735 -0.7637 -1.0380  0.2935
 5829TIP3    H239123   2.043   2.703   3.885  0.4252  0.2719  0.4127
 5830TIP3   OH239124   1.967   1.326   0.342  0.4275 -0.9037 -0.4748
 5830TIP3    H139125   1.991   1.305   0.252 -0.0096 -1.2686 -0.5102
 5830TIP3    H239126   1.880   1.364   0.337  0.8846  0.2100 -0.3188
 5831TIP3   OH239127   6.826   0.420   1.157  0.2244 -0.2693 -0.1583
 5831TIP3    H139128   6.802   0.508   1.186 -0.3742  0.6087 -2.9854
 5831TIP3    H239129   6.900   0.396   1.213  0.6360  2.1900  0.4836
 5832TIP3   OH239130   1.611   3.220   0.821  0.1062 -0.4307  0.0941
 5832TIP3    H139131   1.660   3.197   0.742 -0.4795 -2.7613  0.3345
 5832TIP3    H239132   1.678   3.226   0.890  0.5099  0.7042 -0.3745
 5833TIP3   OH239133   2.915   1.356   1.296  0.1775  0.0516  0.0789
 5833TIP3    H139134   2.925   1.339   1.202  0.0604  0.1517  0.0481
 5833TIP3    H239135   2.917   1.269   1.336 -2.2787 -0.2185 -0.2544
 5834TIP3   OH239136   4.179   4.494   1.823  0.5816  0.2415 -0.0127
 5834TIP3    H139137   4.262   4.539   1.808 -0.0163  1.1154 -0.8139
 5834TIP3    H239138   4.119   4.531   1.758 -0.5549 -0.0590  0.8239
 5835TIP3   OH239139   0.716   6.526   7.838  0.6172 -0.3414 -0.0363
 5835TIP3    H139140   0.680   6.437   7.844 -0.3207  0.1107  1.7305
 5835TIP3    H239141   0.776   6.533   7.912  0.1014  0.7374  0.3008
 5836TIP3   OH239142   3.277   6.299   3.063 -0.0532  0.6958 -0.0570
 5836TIP3    H139143   3.224   6.227   3.029  1.2088 -0.2083 -0.1899
 5836TIP3    H239144   3.316   6.263   3.143 -0.6459  1.7864  0.7507
 5837TIP3   OH239145   4.772   2.559   3.303  0.2727 -0.0246 -0.0625
 5837TIP3    H139146   4.746   2.593   3.217  0.0760 -0.4522 -0.1709
 5837TIP3    H239147   4.698   2.506   3.331  0.5542 -0.3108  0.1417
 5838TIP3   OH239148   5.986   2.299   7.712  0.6911  0.9055  0.2108
 5838TIP3    H139149   6.009   2.216   7.752 -0.4833  1.1166  1.3621
 5838TIP3    H239150   6.070   2.345   7.703  1.1577  0.2401  1.0277
 5839TIP3   OH239151   6.831   3.112   8.522 -0.1930 -0.3482  0.6646
 5839TIP3    H139152   6.919   3.147   8.534  0.8942 -3.0581  1.2087
 5839TIP3    H239153   6.794   3.164   8.450  2.0780  0.4300 -0.0235
 5840TIP3   OH239154   3.458   5.468   8.114  0.0908 -0.2178 -0.1688
 5840TIP3    H139155   3.503   5.399   8.065  2.0114  1.2261 -0.5692
 5840TIP3    H239156   3.514   5.545   8.104 -0.5060  0.6887  2.6141
 5841TIP3   OH239157   1.297   2.766   2.199  0.1538 -0.2492  0.0003
 5841TIP3    H139158   1.296   2.855   2.233  0.6569  0.1483 -0.9874
 5841TIP3    H239159   1.259   2.773   2.111 -1.8789 -1.3715  0.6977
 5842TIP3   OH239160   6.598   5.413   3.102 -0.0829  0.0450 -0.1644
 5842TIP3    H139161   6.521   5.424   3.046  0.3815 -0.2801 -0.8829
 5842TIP3    H239162   6.583   5.329   3.147  0.4536 -0.6942 -1.3131
 5843TIP3   OH239163   1.411   1.020   2.184  0.3742 -0.5668 -0.4244
 5843TIP3    H139164   1.484   0.961   2.204 -0.2622 -1.2924 -0.2142
 5843TIP3    H239165   1.440   1.105   2.215  1.1171 -0.8597 -0.2949
 5844TIP3   OH239166   5.416   4.998   0.919 -0.0021  0.9604  0.2351
 5844TIP3    H139167   5.378   4.912   0.902  1.0675  0.3614  0.8058
 5844TIP3    H239168   5.386   5.052   0.846 -1.2564  0.3025  0.2403
 5845TIP3   OH239169   1.975   3.939   1.031 -0.1140 -0.0187 -0.2723
 5845TIP3    H139170   2.058   3.981   1.008  0.9867 -1.9077 -0.0077
 5845TIP3    H239171   1.991   3.903   1.119 -0.3417 -2.3803 -1.1185
 5846TIP3   OH239172   4.442   2.605   0.210  0.2540  0.5206  0.0219
 5846TIP3    H139173   4.424   2.643   0.124  0.7710  0.1043 -0.2781
 5846TIP3    H239174   4.521   2.649   0.240  1.1636 -0.6615 -0.5613
 5847TIP3   OH239175   6.807   2.024   0.300 -0.0187 -0.0335 -0.1641
 5847TIP3    H139176   6.884   1.994   0.252  1.7957 -1.0211  3.0446
 5847TIP3    H239177   6.744   1.952   0.292  0.7614 -0.7539 -0.0275
 5848TIP3   OH239178   4.426   4.320   3.262  0.1552  0.2078  0.0172
 5848TIP3    H139179   4.439   4.232   3.228 -0.0581  0.4103 -0.6124
 5848TIP3    H239180   4.377   4.308   3.343 -1.2103 -0.1714 -0.8335
 5849TIP3   OH239181   3.950   2.203   1.074  0.1684 -0.0023 -0.2580
 5849TIP3    H139182   4.003   2.282   1.083  1.7374 -0.9382 -0.9568
 5849TIP3    H239183   3.938   2.172   1.164  0.8204  0.2221 -0.0871
 5850TIP3   OH239184   3.188   1.837   0.705  0.1995 -0.2822 -0.0472
 5850TIP3    H139185   3.251   1.886   0.760  0.6323 -0.9967  0.1106
 5850TIP3    H239186   3.243   1.784   0.648 -0.2333  1.0293 -1.7483
 5851TIP3   OH239187   3.569   6.056   0.446  0.0111 -0.4208 -0.0362
 5851TIP3    H139188   3.478   6.030   0.465 -0.0270 -0.5845 -0.4258
 5851TIP3    H239189   3.565   6.151   0.438  0.0080 -0.3611  0.6530
 5852TIP3   OH239190   1.717   2.355   1.539 -0.0173 -0.3808 -0.7315
 5852TIP3    H139191   1.752   2.418   1.602  0.4881  0.9125 -2.2226
 5852TIP3    H239192   1.771   2.277   1.550  0.3534 -0.0131  0.1315
 5853TIP3   OH239193   5.918   5.584   2.576  0.2821  0.1914 -0.8216
 5853TIP3    H139194   5.975   5.549   2.508  1.3105  1.0704 -0.4412
 5853TIP3    H239195   5.924   5.520   2.647  2.2411  1.1094 -0.0804
 5854TIP3   OH239196   4.091   4.020   1.717  0.5331  0.3637 -0.4365
 5854TIP3    H139197   4.155   4.041   1.648  1.9018  0.1769  0.7496
 5854TIP3    H239198   4.106   4.087   1.784  0.6513 -0.6956  0.6076
 5855TIP3   OH239199   2.414   6.846   0.345 -0.0650 -0.2316 -0.0345
 5855TIP3    H139200   2.403   6.808   0.432  1.8907  1.7498  1.1721
 5855TIP3    H239201   2.507   6.867   0.339 -0.4637  1.3273 -1.8981
 5856TIP3   OH239202   6.653   3.947   0.841 -0.0673  0.4653 -0.4050
 5856TIP3    H139203   6.692   4.026   0.880 -0.9224  1.0901 -0.7829
 5856TIP3    H239204   6.717   3.878   0.858  0.9061  1.3291 -0.4617
 5857TIP3   OH239205   5.923   1.008   0.114  0.2866 -0.4083 -0.2016
 5857TIP3    H139206   5.873   0.929   0.094  2.3615 -1.3774 -1.9214
 5857TIP3    H239207   5.932   1.053   0.030 -0.1976  1.3114  0.6132
 5858TIP3   OH239208   5.677   2.594   4.322 -0.0569  0.1984 -0.1915
 5858TIP3    H139209   5.756   2.594   4.268  1.0010 -1.4486  1.2581
 5858TIP3    H239210   5.666   2.503   4.350 -2.5626  0.3616 -0.4283
 5859TIP3   OH239211   4.286   1.028   1.479  0.3015 -0.3791  0.4866
 5859TIP3    H139212   4.344   1.018   1.555 -1.7140 -1.4612  1.9984
 5859TIP3    H239213   4.201   0.999   1.511 -1.1164  1.2101 -1.6072
 5860TIP3   OH239214   1.918   4.762   0.244 -0.3153 -0.1176  0.3584
 5860TIP3    H139215   1.907   4.775   0.150  1.4978 -0.9430 -0.0188
 5860TIP3    H239216   1.967   4.680   0.251  2.1115  1.3306  1.8512
 5861TIP3   OH239217   1.260   5.144   8.260 -0.2677 -0.0535  0.0131
 5861TIP3    H139218   1.291   5.234   8.246 -1.4140  0.2139 -1.0173
 5861TIP3    H239219   1.166   5.149   8.244 -0.1855 -1.6689 -1.2278
 5862TIP3   OH239220   2.963   5.717   0.695 -1.0099  0.1604  0.3628
 5862TIP3    H139221   2.893   5.682   0.750 -1.1000  0.1164  0.2210
 5862TIP3    H239222   2.974   5.808   0.723 -1.3035  0.2446  0.2055
 5863TIP3   OH239223   4.918   6.455   0.900 -0.1695  0.2394  0.2053
 5863TIP3    H139224   4.844   6.396   0.915 -0.3264  0.8748  2.2491
 5863TIP3    H239225   4.931   6.454   0.805 -3.3318  0.7596 -0.3492
 5864TIP3   OH239226   4.272   3.199   0.494  0.2761 -0.5518  0.1462
 5864TIP3    H139227   4.195   3.250   0.519 -0.2357 -1.4403  0.4239
 5864TIP3    H239228   4.320   3.187   0.576  0.8375  0.1878 -0.0633
 5865TIP3   OH239229   1.058   0.711   1.404 -0.0559 -0.5455  0.1339
 5865TIP3    H139230   1.058   0.795   1.450  0.7613 -1.1246  1.2296
 5865TIP3    H239231   0.968   0.702   1.371 -0.4354  0.2758  0.8906
 5866TIP3   OH239232   2.732   2.779   0.261 -0.1115  0.2043 -1.1157
 5866TIP3    H139233   2.806   2.781   0.322 -1.6127  1.8143  0.7789
 5866TIP3    H239234   2.749   2.702   0.205  3.0994  0.6808 -0.9967
 5867TIP3   OH239235   2.327   6.888   3.990 -0.3420  0.3261  0.2853
 5867TIP3    H139236   2.367   6.820   3.936 -0.3721  1.7841 -1.7190
 5867TIP3    H239237   2.400   6.931   4.034 -0.0844  0.4301 -0.2322
 5868TIP3   OH239238   0.650   4.955   0.747  0.6008  0.3620  0.4360
 5868TIP3    H139239   0.683   5.001   0.670 -0.6437  0.4290 -0.0734
 5868TIP3    H239240   0.721   4.895   0.771  0.6056 -0.4092 -1.3818
 5869TIP3   OH239241   0.717   2.988   3.588  0.0765 -0.7496  0.1780
 5869TIP3    H139242   0.681   2.907   3.550  0.3060 -1.1890  0.8838
 5869TIP3    H239243   0.669   3.000   3.669  0.4243 -0.4769  0.3470
 5870TIP3   OH239244   5.370   1.735   2.627  0.2591  0.0184  0.7298
 5870TIP3    H139245   5.457   1.720   2.663  0.5778 -0.0265 -0.0350
 5870TIP3    H239246   5.313   1.740   2.703  0.8459 -0.4951  1.2128
 5871TIP3   OH239247   2.638   3.306   3.518  0.1496 -0.0399  0.2338
 5871TIP3    H139248   2.608   3.323   3.608  0.4735 -0.5539  0.4448
 5871TIP3    H239249   2.733   3.314   3.523  0.3641 -2.2247  0.4391
 5872TIP3   OH239250   6.530   3.141   0.010 -0.2367  0.1860 -0.1695
 5872TIP3    H139251   6.549   3.155   0.103  1.3717  0.0401 -0.4405
 5872TIP3    H239252   6.616   3.144  -0.032 -0.8086 -0.9899 -1.4938
 5873TIP3   OH239253   5.519   0.704   1.876  0.3396 -0.2404 -0.3305
 5873TIP3    H139254   5.548   0.794   1.862  0.4398 -0.4435 -1.6379
 5873TIP3    H239255   5.514   0.694   1.971  0.1311  1.1976 -0.1680
 5874TIP3   OH239256   4.590   3.982   0.314  0.4590  0.0080 -0.8738
 5874TIP3    H139257   4.550   4.027   0.241 -0.2583 -2.7005 -2.3051
 5874TIP3    H239258   4.673   4.026   0.328 -0.5823  2.3019 -1.4624
 5875TIP3   OH239259   5.146   3.410   0.830  0.2867  0.2085 -0.4332
 5875TIP3    H139260   5.181   3.436   0.745 -0.6614  0.0808 -0.8705
 5875TIP3    H239261   5.072   3.469   0.845  0.6729  0.4786  0.4839
 5876TIP3   OH239262   5.076   6.883   1.314  0.4154 -0.0468 -0.8728
 5876TIP3    H139263   5.019   6.942   1.265  1.0978  0.3645 -1.2026
 5876TIP3    H239264   5.125   6.836   1.246  0.2070 -0.6602 -0.6022
 5877TIP3   OH239265   4.285   4.126   0.420  0.0749 -0.6007  0.4302
 5877TIP3    H139266   4.327   4.162   0.499 -2.0845  1.1729  0.8740
 5877TIP3    H239267   4.203   4.089   0.452  0.6689 -2.9305 -0.5730
 5878TIP3   OH239268   4.074   3.750   0.333 -0.1872  0.5156 -0.2747
 5878TIP3    H139269   4.079   3.655   0.322  0.1626  0.3702  0.9139
 5878TIP3    H239270   4.154   3.783   0.293  1.2288 -0.0114  1.9397
 5879TIP3   OH239271   3.653   2.206   3.262  0.1640  1.1128 -0.3248
 5879TIP3    H139272   3.676   2.288   3.307  2.3592 -0.6085  2.0099
 5879TIP3    H239273   3.734   2.180   3.218  1.0565 -1.8560  2.6208
 5880TIP3   OH239274   6.630   1.855   0.717 -0.2198  0.4046  0.1718
 5880TIP3    H139275   6.602   1.924   0.658  0.9622  1.1645  0.4710
 5880TIP3    H239276   6.629   1.896   0.804  0.1587 -0.0473  0.3933
 5881TIP3   OH239277   2.435   1.433   1.583 -0.0958 -0.2628 -0.0222
 5881TIP3    H139278   2.460   1.521   1.613 -0.1896  0.5271 -2.1089
 5881TIP3    H239279   2.506   1.407   1.524 -0.8247 -0.9394 -0.6103
 5882TIP3   OH239280   4.995   5.492   3.035  0.6306  0.0631 -0.1244
 5882TIP3    H139281   4.935   5.497   2.961 -1.8755  1.1008  1.8641
 5882TIP3    H239282   4.978   5.406   3.075  0.1928  0.4990  0.6473
 5883TIP3   OH239283   3.450   0.497   1.241  0.4706  0.2206 -0.2239
 5883TIP3    H139284   3.446   0.484   1.146  0.2884 -0.8132 -0.0933
 5883TIP3    H239285   3.377   0.555   1.261  0.1527 -0.0267 -0.6578
 5884TIP3   OH239286   5.363   6.187   2.388  0.3321  0.2103 -0.0485
 5884TIP3    H139287   5.425   6.241   2.437 -0.7327  1.7237 -0.2906
 5884TIP3    H239288   5.318   6.249   2.330 -0.5540 -1.0414 -0.7474
 5885TIP3   OH239289   5.998   5.064   2.421  0.0231 -0.2772 -0.1462
 5885TIP3    H139290   6.078   5.115   2.405  1.8757 -2.3958  1.6331
 5885TIP3    H239291   5.927   5.125   2.403  2.0230  1.8480 -1.4420
 5886TIP3   OH239292   4.233   0.355   3.275 -0.7825 -0.1724  0.4967
 5886TIP3    H139293   4.207   0.267   3.302  0.3070 -0.6886 -0.0369
 5886TIP3    H239294   4.189   0.369   3.191 -0.4162 -0.4972  0.2463
 5887TIP3   OH239295   3.308   3.479   0.794  0.1945  0.0220 -0.6405
 5887TIP3    H139296   3.296   3.431   0.876 -1.4070 -0.8286 -1.3516
 5887TIP3    H239297   3.305   3.571   0.821 -0.8423 -0.2367  0.1977
 5888TIP3   OH239298   0.354   5.588   8.070  0.2251 -0.2443 -0.0834
 5888TIP3    H139299   0.378   5.549   7.986 -0.9130 -1.1335 -0.0210
 5888TIP3    H239300   0.432   5.575   8.125  0.1255 -1.8483 -0.2815
 5889TIP3   OH239301   3.583   1.059   0.849 -0.5871  0.3140  0.7151
 5889TIP3    H139302   3.600   0.990   0.785 -2.7699 -1.4212  1.8999
 5889TIP3    H239303   3.527   1.121   0.803  0.0185  0.4704  0.1657
 5890TIP3   OH239304   1.139   3.932   0.076 -0.1706  0.0492 -0.3083
 5890TIP3    H139305   1.098   4.018   0.069  0.2497  0.5645  2.5867
 5890TIP3    H239306   1.066   3.870   0.076 -0.5571  0.4864 -0.9192
 5891TIP3   OH239307   6.301   2.978   3.605  0.3821 -0.9637 -0.4495
 5891TIP3    H139308   6.332   2.993   3.516 -0.4586  1.7949 -0.3493
 5891TIP3    H239309   6.381   2.958   3.655  1.0213 -1.2184 -1.5297
 5892TIP3   OH239310   2.375   6.626   2.416  0.2744 -0.1031 -0.0504
 5892TIP3    H139311   2.337   6.555   2.466  0.1724  0.0160  0.0431
 5892TIP3    H239312   2.468   6.626   2.438  0.0177  0.7377  1.0986
 5893TIP3   OH239313   0.123   5.295   0.320  0.8167  0.7484 -0.0391
 5893TIP3    H139314   0.046   5.288   0.265 -0.3405 -1.2321  1.6605
 5893TIP3    H239315   0.159   5.206   0.323  2.1600  1.2767  0.5663
 5894TIP3   OH239316   2.810   1.139   0.713 -0.4249 -0.0657 -0.0753
 5894TIP3    H139317   2.821   1.234   0.714  0.3910 -0.1563 -0.3968
 5894TIP3    H239318   2.722   1.126   0.677 -0.1777  0.5302 -0.9115
 5895TIP3   OH239319   3.543   6.864   1.875 -0.0226  0.0663 -0.1732
 5895TIP3    H139320   3.512   6.916   1.801  0.0444 -0.1022 -0.3205
 5895TIP3    H239321   3.537   6.923   1.950  0.3435  0.3813 -0.3928
 5896TIP3   OH239322   3.173   1.799   1.651 -0.2686 -0.0914 -0.5861
 5896TIP3    H139323   3.159   1.883   1.608 -2.6056  0.0978  0.3649
 5896TIP3    H239324   3.186   1.737   1.580  1.6860  1.0540 -1.2938
 5897TIP3   OH239325   2.234   1.411   2.123 -0.3190 -0.2202 -0.2459
 5897TIP3    H139326   2.244   1.364   2.040  2.2383 -1.0563  0.4391
 5897TIP3    H239327   2.245   1.503   2.100  0.0617 -0.4206 -0.9007
 5898TIP3   OH239328   6.062   6.877   0.858 -0.2492 -0.2761 -0.1304
 5898TIP3    H139329   5.981   6.913   0.822  0.1960 -1.0007 -1.9811
 5898TIP3    H239330   6.068   6.914   0.946 -0.2853  3.3683 -1.5208
 5899TIP3   OH239331   4.003   6.051   2.045 -0.1603 -0.1371  0.1431
 5899TIP3    H139332   4.070   5.997   2.086 -0.0258 -1.5262 -1.7535
 5899TIP3    H239333   3.923   5.999   2.052 -0.1076 -0.4793 -1.3842
 5900TIP3   OH239334   0.983   2.668   8.205 -0.7585 -0.2906  0.5666
 5900TIP3    H139335   0.895   2.685   8.170 -0.2347 -0.2779 -0.7952
 5900TIP3    H239336   0.997   2.575   8.191  0.5490  0.1912 -1.9882
 5901TIP3   OH239337   6.230   6.796   1.618 -0.1220 -0.1895  0.2656
 5901TIP3    H139338   6.283   6.750   1.684  1.8998  1.3699 -0.1783
 5901TIP3    H239339   6.188   6.867   1.667  0.6539  0.4141  0.0756
 5902TIP3   OH239340   0.809   6.782   2.295 -0.3787 -0.3592  0.2506
 5902TIP3    H139341   0.784   6.705   2.244  0.1524 -0.8425  0.7137
 5902TIP3    H239342   0.897   6.803   2.264 -0.2614 -0.3405  0.5938
 5903TIP3   OH239343   5.355   6.272   1.089  0.2186 -0.3799  0.8276
 5903TIP3    H139344   5.401   6.354   1.105  1.0055 -0.8166  0.8266
 5903TIP3    H239345   5.311   6.285   1.004  0.0628  0.1544  0.9899
 5904TIP3   OH239346   4.539   3.067   3.535  0.6796  0.9017 -0.0465
 5904TIP3    H139347   4.484   3.096   3.462 -1.1181  0.4221  1.0514
 5904TIP3    H239348   4.626   3.056   3.496 -0.4194 -0.4557 -2.3955
 5905TIP3   OH239349   1.600   0.276   2.882  0.7664  0.3760 -0.0268
 5905TIP3    H139350   1.593   0.326   2.963  0.2340  0.0476  0.1329
 5905TIP3    H239351   1.549   0.325   2.818  0.6972  0.3239 -0.0115
 5906TIP3   OH239352   0.065   1.198   0.109  0.3820 -0.2351  0.4376
 5906TIP3    H139353   0.148   1.237   0.083 -1.7521  3.1554 -2.1330
 5906TIP3    H239354   0.052   1.227   0.200  1.2066  0.7203  0.2602
 5907TIP3   OH239355   2.158   0.506   1.760 -0.2907  0.3576  0.1363
 5907TIP3    H139356   2.185   0.533   1.847 -0.0124  0.9667 -0.1304
 5907TIP3    H239357   2.082   0.450   1.774  0.3209 -0.3356  0.8303
 5908TIP3   OH239358   0.874   3.113   2.479  0.3091 -0.7045 -0.9074
 5908TIP3    H139359   0.823   3.052   2.533 -1.3787 -0.8440 -2.5356
 5908TIP3    H239360   0.815   3.187   2.464  1.8106  0.6944 -0.1699
 5909TIP3   OH239361   6.349   3.496   0.153 -0.1624 -0.1937 -0.6364
 5909TIP3    H139362   6.331   3.569   0.093 -0.9883 -0.6289 -0.9357
 5909TIP3    H239363   6.309   3.420   0.110  0.0554 -0.6847  0.0239
 5910TIP3   OH239364   4.939   5.050   0.148  0.0829 -0.0535  0.7641
 5910TIP3    H139365   4.966   5.092   0.230 -2.0115  2.7578  0.1767
 5910TIP3    H239366   4.843   5.050   0.152 -0.0407 -2.3370 -0.5893
 5911TIP3   OH239367   1.932   1.569   1.433  0.2715  0.7637 -0.2290
 5911TIP3    H139368   1.860   1.506   1.429  1.3081 -0.9201  3.2798
 5911TIP3    H239369   1.898   1.641   1.487  0.2322  1.5499 -1.2733
 5912TIP3   OH239370   4.437   5.727   0.653  0.2471 -0.0021  0.6183
 5912TIP3    H139371   4.409   5.708   0.742  0.4057 -0.2186  0.6216
 5912TIP3    H239372   4.530   5.748   0.660  0.1626  0.3964  0.5616
 5913TIP3   OH239373   3.047   5.284   8.547 -0.9142  0.4351  0.1579
 5913TIP3    H139374   3.071   5.376   8.559  1.6794 -0.3399  1.8033
 5913TIP3    H239375   3.048   5.271   8.452 -0.5407  1.9302 -0.0669
 5914TIP3   OH239376   4.626   0.895   8.277  0.0398  0.1369  0.2976
 5914TIP3    H139377   4.612   0.938   8.192 -0.1431  1.6743  1.0911
 5914TIP3    H239378   4.717   0.866   8.274  0.0659  0.2683 -0.3807
 5915TIP3   OH239379   4.815   3.538   1.405 -0.5563 -0.1518  0.4497
 5915TIP3    H139380   4.843   3.561   1.316  2.5090 -0.3786  1.2140
 5915TIP3    H239381   4.744   3.476   1.392  0.8856 -1.4808 -1.9585
 5916TIP3   OH239382   1.733   0.096   2.395  0.1462  0.1230 -0.3796
 5916TIP3    H139383   1.777   0.066   2.315  2.2045  1.6037  0.1238
 5916TIP3    H239384   1.672   0.025   2.416  0.5407 -0.9367 -2.4808
 5917TIP3   OH239385   2.330   0.693   1.303 -0.3615 -0.4597 -0.1601
 5917TIP3    H139386   2.254   0.751   1.293 -1.0766 -1.4965 -1.0048
 5917TIP3    H239387   2.317   0.625   1.237  1.0220 -0.9804  0.0695
 5918TIP3   OH239388   5.116   3.104   1.702  0.3719  0.2001 -0.1056
 5918TIP3    H139389   5.195   3.150   1.673 -0.0562 -0.0249 -1.7361
 5918TIP3    H239390   5.150   3.028   1.750  1.1253  0.5659 -0.0318
 5919TIP3   OH239391   3.626   0.272   1.699  0.2506 -0.3279  0.4898
 5919TIP3    H139392   3.601   0.314   1.617  0.8610 -0.3329  0.2981
 5919TIP3    H239393   3.706   0.225   1.679  2.5479  2.6101  1.9047
 5920TIP3   OH239394   6.566   6.146   1.838 -0.0279 -0.4472  0.2058
 5920TIP3    H139395   6.501   6.148   1.767 -0.6003  2.5180  0.6880
 5920TIP3    H239396   6.580   6.052   1.855 -3.2840 -1.2326 -0.7299
 5921TIP3   OH239397   3.231   6.236   3.857 -0.3382 -0.3675  0.1091
 5921TIP3    H139398   3.206   6.286   3.935 -0.6430 -0.4730  0.0800
 5921TIP3    H239399   3.241   6.146   3.888 -0.3470 -0.3887  0.0509
 5922TIP3   OH239400   1.046   5.708   2.909  0.7402 -0.7546 -0.1605
 5922TIP3    H139401   0.996   5.630   2.932  1.0878 -0.7605  0.5910
 5922TIP3    H239402   1.116   5.675   2.851  0.5543 -0.9136 -0.2952
 5923TIP3   OH239403   3.233   0.916   1.754  0.0572  0.3961 -0.5887
 5923TIP3    H139404   3.276   1.002   1.756 -3.0289  2.0952 -1.6500
 5923TIP3    H239405   3.165   0.922   1.821 -0.7640 -0.9225 -1.2682
 5924TIP3   OH239406   2.937   2.223   8.280 -0.0468  0.2292 -0.1989
 5924TIP3    H139407   2.868   2.195   8.219 -0.2688  0.7931 -0.2147
 5924TIP3    H239408   3.018   2.213   8.231 -0.2099  0.5225 -0.5410
 5925TIP3   OH239409   5.223   2.483   0.698  0.2958  0.1116 -0.0133
 5925TIP3    H139410   5.146   2.427   0.683  0.1488  0.8382 -2.3534
 5925TIP3    H239411   5.194   2.545   0.766 -0.9536 -0.0816 -0.3350
 5926TIP3   OH239412   5.662   5.330   2.584 -0.4444 -0.3126  0.3912
 5926TIP3    H139413   5.599   5.267   2.619 -1.9876  1.3614  0.7817
 5926TIP3    H239414   5.678   5.391   2.656  0.6038  0.0557 -0.1316
 5927TIP3   OH239415   0.991   6.688   1.616  0.3421  0.3003  0.0020
 5927TIP3    H139416   1.058   6.724   1.559 -0.0150  0.1251 -0.5314
 5927TIP3    H239417   0.942   6.764   1.648 -2.1261  0.2827 -3.1947
 5928TIP3   OH239418   1.563   1.068   2.447 -0.2968 -0.0354  0.0524
 5928TIP3    H139419   1.479   1.024   2.439 -0.4003 -0.1010  1.3593
 5928TIP3    H239420   1.584   1.063   2.540  1.3917 -0.4431 -0.3260
 5929TIP3   OH239421   0.381   4.988   3.673  0.3854  0.5466 -0.1576
 5929TIP3    H139422   0.384   5.042   3.752 -0.3940 -0.9145  0.9171
 5929TIP3    H239423   0.296   4.943   3.678  1.1509 -1.0453 -0.7848
 5930TIP3   OH239424   2.605   4.217   2.595  0.1502  0.4512 -0.4878
 5930TIP3    H139425   2.575   4.297   2.551  0.3773  0.5780 -0.4154
 5930TIP3    H239426   2.638   4.162   2.524 -3.4953 -1.2348 -1.0999
 5931TIP3   OH239427   0.224   5.760   1.125  0.2019 -0.0655 -0.0223
 5931TIP3    H139428   0.246   5.805   1.044  0.6491  0.2652  0.2729
 5931TIP3    H239429   0.278   5.804   1.192 -1.1189  0.5404  0.6805
 5932TIP3   OH239430   5.551   5.554   3.687 -0.1029  0.3930  0.1656
 5932TIP3    H139431   5.631   5.575   3.735 -1.6060 -0.9365  3.5622
 5932TIP3    H239432   5.493   5.628   3.703 -0.6621 -0.1104  0.4907
 5933TIP3   OH239433   3.488   1.430   1.119 -0.0734 -0.1047  0.9364
 5933TIP3    H139434   3.549   1.459   1.051 -0.9588 -0.9257 -0.2687
 5933TIP3    H239435   3.502   1.489   1.192  2.3760 -0.4475  0.8214
 5934TIP3   OH239436   2.409   3.066   2.068  0.3950 -0.1629 -0.0031
 5934TIP3    H139437   2.372   2.989   2.111  0.7228  0.2417  1.0311
 5934TIP3    H239438   2.416   3.131   2.138 -0.0836  0.8887 -0.9057
 5935TIP3   OH239439   1.424   4.782   3.686  0.2113  0.2051  0.0946
 5935TIP3    H139440   1.338   4.809   3.717  0.9685  0.9526  1.6283
 5935TIP3    H239441   1.449   4.850   3.623  0.1347  0.5496  0.4370
 5936TIP3   OH239442   0.997   2.095   1.807 -0.1587 -0.0899 -0.0469
 5936TIP3    H139443   0.974   2.164   1.745 -2.0830  1.8579  2.5838
 5936TIP3    H239444   0.915   2.049   1.825  0.1717 -0.1783  1.4433
 5937TIP3   OH239445   6.282   5.428   1.572  0.1341  0.1761 -0.4224
 5937TIP3    H139446   6.304   5.521   1.564 -0.4903  0.2458 -1.4276
 5937TIP3    H239447   6.187   5.425   1.565  0.2086 -0.6142 -1.1467
 5938TIP3   OH239448   5.601   2.021   3.375 -0.5912 -0.1146  0.4283
 5938TIP3    H139449   5.656   1.961   3.426  0.3902 -0.6298 -1.1770
 5938TIP3    H239450   5.528   1.966   3.346 -0.0257 -0.3873 -0.5050
 5939TIP3   OH239451   1.917   2.791   0.536  0.6215  0.2859 -0.1368
 5939TIP3    H139452   1.846   2.778   0.473  0.2167  0.5618  0.2607
 5939TIP3    H239453   1.949   2.880   0.517 -2.0527  1.9988  2.5384
 5940TIP3   OH239454   5.045   1.676   4.012  0.0266 -0.0722 -1.0406
 5940TIP3    H139455   5.067   1.614   3.943  1.5441 -0.6604 -0.0673
 5940TIP3    H239456   4.954   1.657   4.033  0.9710 -3.4776  0.6729
 5941TIP3   OH239457   0.395   6.646   4.316 -0.1564  0.4341 -0.5744
 5941TIP3    H139458   0.363   6.625   4.228 -2.8881 -0.9916  0.6640
 5941TIP3    H239459   0.321   6.630   4.374  1.4132  1.7497  2.0001
 5942TIP3   OH239460   5.534   0.455   2.387  0.3049 -0.3521  0.4291
 5942TIP3    H139461   5.611   0.509   2.405  0.4288 -0.8671  1.5633
 5942TIP3    H239462   5.524   0.402   2.466 -1.2342 -0.2770  0.3091
 5943TIP3   OH239463   2.724   3.372   0.846  0.3831  0.3926  0.5345
 5943TIP3    H139464   2.701   3.374   0.939  1.6156 -1.0195  0.9030
 5943TIP3    H239465   2.799   3.312   0.841 -0.4159 -0.5075 -1.5451
 5944TIP3   OH239466   5.961   2.585   0.888  0.2252  0.4890  0.5465
 5944TIP3    H139467   6.009   2.622   0.813 -1.0019  0.2941 -0.3769
 5944TIP3    H239468   5.869   2.603   0.868 -0.2028 -0.5878  1.4451
 5945TIP3   OH239469   6.901   4.543   2.100 -0.5198 -0.0559 -0.3700
 5945TIP3    H139470   6.979   4.545   2.045 -0.6807  0.7326 -0.5814
 5945TIP3    H239471   6.926   4.487   2.174  0.5544  0.8992  0.0112
 5946TIP3   OH239472   2.644   4.731   3.445  0.0412  0.1888  0.4889
 5946TIP3    H139473   2.709   4.719   3.514  0.9036  1.7110 -0.0067
 5946TIP3    H239474   2.663   4.662   3.381 -0.5243 -0.9884  1.5574
 5947TIP3   OH239475   3.927   6.752   2.677 -0.0764 -0.3473  0.3868
 5947TIP3    H139476   3.877   6.785   2.602 -0.3825 -0.4614  0.5417
 5947TIP3    H239477   3.914   6.817   2.745 -2.4496 -1.7796  1.4288
 5948TIP3   OH239478   0.242   1.841   2.163 -0.3139  0.3358 -0.0763
 5948TIP3    H139479   0.224   1.755   2.125  0.3124  0.0566  0.2316
 5948TIP3    H239480   0.307   1.879   2.104  0.9580 -0.2582  0.8794
 5949TIP3   OH239481   6.729   5.945   2.092  0.4439  0.2331 -0.4940
 5949TIP3    H139482   6.764   5.906   2.012 -1.7345  0.3469 -1.5742
 5949TIP3    H239483   6.725   6.038   2.074  2.7388  0.6776  0.9352
 5950TIP3   OH239484   3.942   4.105   8.329 -0.4490 -0.4882 -0.0064
 5950TIP3    H139485   3.907   4.170   8.269 -0.3305 -2.3301 -2.2094
 5950TIP3    H239486   4.036   4.124   8.333 -0.5980  0.1911  0.3175
 5951TIP3   OH239487   2.703   6.698   0.710  0.5520 -0.5195 -0.0162
 5951TIP3    H139488   2.699   6.766   0.776 -2.1904 -0.2593 -0.3421
 5951TIP3    H239489   2.671   6.619   0.755  0.3184 -0.7525 -0.5862
 5952TIP3   OH239490   0.947   0.208   3.088 -0.2352 -0.3084 -0.9411
 5952TIP3    H139491   0.974   0.235   3.176 -0.6508 -1.7703 -0.3423
 5952TIP3    H239492   1.015   0.146   3.061 -1.3378 -1.6846 -0.6595
 5953TIP3   OH239493   6.547   5.717   3.593  0.0752  0.4203  0.0505
 5953TIP3    H139494   6.581   5.801   3.563  0.5889  0.3675  0.4739
 5953TIP3    H239495   6.474   5.741   3.650 -0.8872  0.5213 -1.1736
 5954TIP3   OH239496   3.007   6.797   3.096  0.0079 -0.5277 -0.0691
 5954TIP3    H139497   3.039   6.876   3.141  1.7220 -1.0702 -0.2851
 5954TIP3    H239498   2.992   6.734   3.166 -1.0435 -0.1591  0.0694
 5955TIP3   OH239499   4.269   5.343   2.722  0.0504  0.4379  0.0638
 5955TIP3    H139500   4.333   5.275   2.699  0.1311  0.7258 -0.5762
 5955TIP3    H239501   4.320   5.423   2.729 -0.2433  0.6865 -0.5304
 5956TIP3   OH239502   2.163   5.734   2.805 -0.4293  0.5912  0.0874
 5956TIP3    H139503   2.171   5.830   2.797 -0.1425  0.6181  0.6491
 5956TIP3    H239504   2.192   5.701   2.720 -0.7730  1.0169 -0.1991
 5957TIP3   OH239505   4.488   6.244   2.522 -0.7432 -0.0220 -0.6798
 5957TIP3    H139506   4.546   6.311   2.558 -0.3263 -1.3250  1.2548
 5957TIP3    H239507   4.400   6.277   2.540 -0.5654 -0.6909  1.9296
 5958TIP3   OH239508   4.249   1.971   1.599 -0.6957 -0.1170  0.4577
 5958TIP3    H139509   4.321   2.002   1.543  0.2928  1.2957  2.3970
 5958TIP3    H239510   4.219   1.890   1.557  0.7174  0.2914 -1.4750
 5959TIP3   OH239511   4.632   0.790   2.976  0.0784 -0.1557  0.3630
 5959TIP3    H139512   4.567   0.831   2.920  0.3845 -1.8650 -1.3330
 5959TIP3    H239513   4.716   0.818   2.939  0.2891 -2.1366 -0.7676
 5960TIP3   OH239514   2.244   2.590   1.428  0.0445 -0.2127  0.2172
 5960TIP3    H139515   2.281   2.678   1.426  0.3723 -0.3657 -0.5273
 5960TIP3    H239516   2.309   2.536   1.472  0.2596 -0.2684 -0.1632
 5961TIP3   OH239517   2.150   5.095   1.530  0.4615 -0.5538  0.0801
 5961TIP3    H139518   2.155   5.162   1.598 -0.6052 -0.9122  0.5431
 5961TIP3    H239519   2.174   5.141   1.449 -2.9313  1.2199 -0.1336
 5962TIP3   OH239520   2.769   2.592   1.349 -0.4983 -0.0321  0.2601
 5962TIP3    H139521   2.724   2.676   1.345 -1.6957 -0.6187  0.8035
 5962TIP3    H239522   2.722   2.537   1.285 -0.2589 -0.5242  0.5029
 5963TIP3   OH239523   0.157   3.099   0.755  0.1422  1.3396 -0.2206
 5963TIP3    H139524   0.092   3.043   0.714  0.7251  1.1645 -0.9320
 5963TIP3    H239525   0.107   3.157   0.813 -0.5583  0.7263 -0.2055
 5964TIP3   OH239526   2.979   5.967   1.308  0.7745  0.7417 -0.2900
 5964TIP3    H139527   2.954   6.035   1.370 -2.5431 -0.0394 -0.5486
 5964TIP3    H239528   2.983   6.011   1.224 -1.0290  0.7944 -0.4032
 5965TIP3   OH239529   3.713   6.382   0.157 -0.0651  0.4212  0.3422
 5965TIP3    H139530   3.719   6.301   0.106 -1.9990 -0.2166  1.0259
 5965TIP3    H239531   3.796   6.427   0.141  1.0917 -1.7120 -0.0056
 5966TIP3   OH239532   4.547   1.628   8.496  0.4635 -0.2553  0.2090
 5966TIP3    H139533   4.601   1.581   8.432  0.3950  1.5962 -1.2811
 5966TIP3    H239534   4.467   1.575   8.502  0.9356 -1.0682 -0.3476
 5967TIP3   OH239535   4.102   2.295   2.787  0.0749 -0.6544 -0.6419
 5967TIP3    H139536   4.150   2.358   2.733  0.0468  0.1166  0.2220
 5967TIP3    H239537   4.114   2.326   2.876 -0.7332 -1.3469 -0.2858
 5968TIP3   OH239538   0.138   6.133   1.564 -0.1861 -0.1859  0.3197
 5968TIP3    H139539   0.184   6.061   1.520 -0.5741  0.0608 -0.5142
 5968TIP3    H239540   0.189   6.211   1.540 -1.4627  0.1986 -1.2841
 5969TIP3   OH239541   3.004   5.230   8.289  0.5957 -0.1192 -0.4153
 5969TIP3    H139542   3.082   5.250   8.237 -0.0640  1.5000 -0.8402
 5969TIP3    H239543   2.932   5.230   8.227 -0.3436  2.7348  0.5074
 5970TIP3   OH239544   0.215   1.721   7.989  0.3730  0.0851  0.0961
 5970TIP3    H139545   0.120   1.711   7.981  0.2870  0.4221  0.5989
 5970TIP3    H239546   0.251   1.639   7.956 -0.0086  0.5951 -1.7081
 5971TIP3   OH239547   4.991   6.576   7.974 -0.4456  0.2225 -0.6005
 5971TIP3    H139548   4.950   6.494   7.947  0.1080 -0.3956  0.3428
 5971TIP3    H239549   4.924   6.642   7.962 -0.7204 -0.2720 -1.9236
 5972TIP3   OH239550   6.300   1.007   0.055  0.4666 -0.0258 -0.3645
 5972TIP3    H139551   6.390   1.005   0.023  1.2521 -3.2938  1.5764
 5972TIP3    H239552   6.308   1.014   0.150 -1.5288  2.7508 -0.2755
 5973TIP3   OH239553   2.068   3.649   3.396  0.6266  0.7986 -0.6972
 5973TIP3    H139554   2.119   3.572   3.424  0.3330  1.2207  1.1336
 5973TIP3    H239555   2.127   3.696   3.337  2.4515  1.2716  1.3584
 5974TIP3   OH239556   3.667   5.275   3.566  0.1326  0.1557  0.3068
 5974TIP3    H139557   3.724   5.281   3.489 -1.7086  0.9074 -1.0653
 5974TIP3    H239558   3.613   5.198   3.550 -0.3573  0.3928  0.7719
 5975TIP3   OH239559   6.269   0.072   1.808  0.6742 -0.0766  0.3886
 5975TIP3    H139560   6.361   0.049   1.815  0.2332 -1.5464  2.5859
 5975TIP3    H239561   6.251   0.124   1.887 -0.5920 -0.7817  0.5939
 5976TIP3   OH239562   0.895   5.215   2.968 -0.5214  0.1807 -0.0173
 5976TIP3    H139563   0.821   5.156   2.957 -0.9913  0.5537  0.9914
 5976TIP3    H239564   0.859   5.291   3.015  0.2819  0.8170 -0.4058
 5977TIP3   OH239565   6.355   1.309   0.803 -0.3181  0.0431 -0.0386
 5977TIP3    H139566   6.306   1.391   0.800 -0.0476  0.1738 -1.4426
 5977TIP3    H239567   6.292   1.242   0.777 -0.2459 -0.0418  0.0037
 5978TIP3   OH239568   5.544   2.430   1.599  0.3559 -0.4375 -0.3277
 5978TIP3    H139569   5.573   2.367   1.665  0.6526 -1.0611 -1.0327
 5978TIP3    H239570   5.495   2.377   1.536 -1.5211  0.4358  0.3319
 5979TIP3   OH239571   4.340   5.580   2.411 -0.2474 -0.0720  0.5654
 5979TIP3    H139572   4.367   5.669   2.388 -2.0697  0.9604  2.1716
 5979TIP3    H239573   4.376   5.566   2.498  2.1872 -1.9678 -0.6280
 5980TIP3   OH239574   1.918   4.043   1.658  0.1083 -0.4264 -0.2876
 5980TIP3    H139575   1.855   4.110   1.685 -0.4204 -1.0706  0.1426
 5980TIP3    H239576   1.880   4.005   1.579  1.0286  0.6026 -1.2594
 5981TIP3   OH239577   3.745   0.084   2.807  0.3119  0.0429 -0.0691
 5981TIP3    H139578   3.709  -0.005   2.810 -0.3746  0.3154 -0.1157
 5981TIP3    H239579   3.683   0.133   2.753  2.4923 -0.2700 -3.1105
 5982TIP3   OH239580   6.483   3.228   2.855  0.1899  0.1663 -0.1613
 5982TIP3    H139581   6.499   3.153   2.797  0.1085  1.8632 -2.5137
 5982TIP3    H239582   6.387   3.239   2.853  0.2914  1.0868 -0.9272
 5983TIP3   OH239583   1.673   5.627   2.161  0.0952 -0.0659 -0.8265
 5983TIP3    H139584   1.592   5.666   2.130 -1.3501 -1.8214  0.5199
 5983TIP3    H239585   1.741   5.690   2.136 -1.7589  1.9361 -1.1463
 5984TIP3   OH239586   0.725   1.288   1.312  0.2347  0.0809 -0.2844
 5984TIP3    H139587   0.802   1.338   1.340 -0.1810  0.7594 -0.3494
 5984TIP3    H239588   0.732   1.285   1.217 -0.6206  1.4780 -0.4190
 5985TIP3   OH239589   1.674   6.886   0.159 -0.3185  0.2273 -0.3492
 5985TIP3    H139590   1.751   6.906   0.212  0.6508 -1.1734 -1.1796
 5985TIP3    H239591   1.643   6.802   0.193 -2.1014  1.2161  0.6262
 5986TIP3   OH239592   1.454   2.548   3.746 -0.1154  0.0736 -0.2252
 5986TIP3    H139593   1.422   2.553   3.836 -0.3070  0.1392 -0.2966
 5986TIP3    H239594   1.548   2.531   3.754 -0.5150 -2.4733  0.0133
 5987TIP3   OH239595   2.976   1.607   1.354 -0.1044  0.2215 -0.3114
 5987TIP3    H139596   3.067   1.618   1.379 -0.1977 -0.9709  0.6460
 5987TIP3    H239597   2.965   1.513   1.342 -1.2250  0.3387 -0.3488
 5988TIP3   OH239598   2.968   4.624   0.645 -0.6019 -0.5014  0.5317
 5988TIP3    H139599   2.886   4.575   0.639 -1.6142  1.2515 -0.9423
 5988TIP3    H239600   2.967   4.664   0.732 -1.3360 -0.4520  0.5036
 5989TIP3   OH239601   1.603   4.694   0.859  0.1472 -0.3563  0.3864
 5989TIP3    H139602   1.526   4.701   0.802  0.3178 -1.4800 -0.0024
 5989TIP3    H239603   1.667   4.753   0.819  0.7704 -2.1770 -1.4769
 5990TIP3   OH239604   0.697   5.086   0.511 -0.0772  0.2282 -0.0238
 5990TIP3    H139605   0.607   5.102   0.481 -0.1334 -0.5944 -0.3221
 5990TIP3    H239606   0.734   5.027   0.445  0.3369 -0.2891  0.6523
 5991TIP3   OH239607   1.408   1.964   8.222  0.3657 -0.3875  0.1733
 5991TIP3    H139608   1.405   1.872   8.197 -1.2108 -0.8733  1.9336
 5991TIP3    H239609   1.319   1.996   8.207  1.2678  1.4078 -2.0809
 5992TIP3   OH239610   4.474   0.479   3.650 -0.7691 -0.5653  0.4907
 5992TIP3    H139611   4.505   0.389   3.644 -2.3078 -1.0934  0.1419
 5992TIP3    H239612   4.447   0.489   3.742 -0.4952 -0.4203  0.5563
 5993TIP3   OH239613   4.530   0.636   1.421 -0.1528  0.5865 -0.1216
 5993TIP3    H139614   4.579   0.556   1.398 -1.0500  0.0676 -0.2555
 5993TIP3    H239615   4.486   0.661   1.340  0.6668  1.6267 -0.2665
 5994TIP3   OH239616   3.501   2.723   0.627 -0.4760 -0.3188 -0.3748
 5994TIP3    H139617   3.514   2.812   0.593 -0.3692  0.3366  1.2950
 5994TIP3    H239618   3.408   2.721   0.652 -0.4205 -0.5980 -0.1901
 5995TIP3   OH239619   4.568   6.875   8.209  0.1910  0.2899  0.1434
 5995TIP3    H139620   4.643   6.930   8.229 -0.7851  2.0184 -0.7272
 5995TIP3    H239621   4.495   6.936   8.201 -1.3685 -1.3585  1.1483
 5996TIP3   OH239622   4.756   2.954   3.429 -0.1853  0.1070  0.1446
 5996TIP3    H139623   4.765   3.047   3.408  0.5576 -0.0065 -0.0834
 5996TIP3    H239624   4.824   2.937   3.494 -0.1194 -0.3391 -0.0310
 5997TIP3   OH239625   6.033   6.720   8.562 -0.4364  0.2648  0.2113
 5997TIP3    H139626   6.044   6.667   8.483 -0.8036  1.5683 -0.7608
 5997TIP3    H239627   6.005   6.659   8.629 -0.9005 -0.7478 -0.8822
 5998TIP3   OH239628   4.280   6.617   0.261 -0.1765  0.2134  0.0765
 5998TIP3    H139629   4.237   6.563   0.194 -2.2241  2.0566 -0.2034
 5998TIP3    H239630   4.270   6.567   0.342  0.7733 -1.2393 -0.6621
 5999TIP3   OH239631   4.597   0.870   0.570  0.9604 -0.1916 -0.3556
 5999TIP3    H139632   4.544   0.950   0.566  2.3369  0.8122  0.5808
 5999TIP3    H239633   4.670   0.892   0.627 -0.0006 -2.9892  2.2093
 6000TIP3   OH239634   5.088   6.630   0.254 -0.2588 -0.0817  0.6322
 6000TIP3    H139635   5.050   6.615   0.341 -2.6638 -1.6912 -0.5782
 6000TIP3    H239636   5.018   6.672   0.204  0.2909 -1.1525 -1.1145
 6001TIP3   OH239637   2.997   6.223   1.078  0.3522 -0.1732 -0.4447
 6001TIP3    H139638   2.961   6.141   1.043 -1.3707 -0.0188  0.8071
 6001TIP3    H239639   2.946   6.292   1.035 -0.0760  0.1017  0.4572
 6002TIP3   OH239640   3.391   1.638   8.464  0.3310 -0.0707 -0.8443
 6002TIP3    H139641   3.435   1.575   8.407  0.0773  0.0178 -1.1489
 6002TIP3    H239642   3.353   1.702   8.403  1.0882  0.7127 -0.5125
 6003TIP3   OH239643   4.100   5.924   3.425 -0.5772  0.2154  0.3477
 6003TIP3    H139644   4.081   5.876   3.506 -0.2866 -1.1524 -0.3717
 6003TIP3    H239645   4.018   5.924   3.377 -0.2657 -0.6417 -0.1956
 6004TIP3   OH239646   2.922   3.120   2.067 -0.0404  0.3314 -0.6330
 6004TIP3    H139647   2.867   3.079   2.001  1.8401  0.6142 -2.4958
 6004TIP3    H239648   2.919   3.213   2.045 -1.5343  0.8326  1.4278
 6005TIP3   OH239649   5.697   2.916   3.000 -0.4471 -0.2704  0.0928
 6005TIP3    H139650   5.688   2.857   3.075  0.2443 -0.3668  0.1090
 6005TIP3    H239651   5.750   2.867   2.938  0.3984  0.4397  0.2292
 6006TIP3   OH239652   0.696   4.281   0.483  0.4556  0.3649  0.0270
 6006TIP3    H139653   0.659   4.193   0.478  1.0431  0.0913  0.3420
 6006TIP3    H239654   0.646   4.332   0.420 -0.6467  0.0753  0.6350
 6007TIP3   OH239655   3.828   2.405   2.965 -0.5555 -0.8053 -0.4630
 6007TIP3    H139656   3.863   2.399   2.876 -0.1679  2.5248 -0.6346
 6007TIP3    H239657   3.740   2.442   2.954 -1.4889 -2.6061  0.4474
 6008TIP3   OH239658   2.749   4.384   1.961  0.1080 -0.0205  0.2657
 6008TIP3    H139659   2.730   4.316   1.897 -0.2142 -1.1943  1.5596
 6008TIP3    H239660   2.799   4.339   2.029  0.4591  1.1950  0.8346
 6009TIP3   OH239661   6.782   5.112   1.886 -0.8033  0.4473  0.5002
 6009TIP3    H139662   6.862   5.097   1.835  0.3985 -0.6564  2.5820
 6009TIP3    H239663   6.712   5.077   1.831  0.4026 -0.5314 -0.4837
 6010TIP3   OH239664   2.650   6.479   0.075  0.2646 -0.1703  0.7219
 6010TIP3    H139665   2.569   6.479   0.024  0.4781 -1.0030  0.3683
 6010TIP3    H239666   2.718   6.501   0.011  0.3364  0.4556  1.0029
 6011TIP3   OH239667   0.202   2.161   1.123 -0.0949 -0.3980 -0.0237
 6011TIP3    H139668   0.128   2.196   1.074  0.4055  0.5386 -0.1173
 6011TIP3    H239669   0.199   2.205   1.208  1.2966  0.9057 -0.5995
 6012TIP3   OH239670   1.319   1.827   3.174 -0.4565  0.3888 -0.0139
 6012TIP3    H139671   1.364   1.785   3.101  0.1346  0.1051  0.5056
 6012TIP3    H239672   1.357   1.787   3.253 -2.4891 -0.7810  0.4427
 6013TIP3   OH239673   3.800   2.984   0.258  0.0681  1.2607  0.2173
 6013TIP3    H139674   3.729   2.956   0.201 -1.9603  1.5448  2.4601
 6013TIP3    H239675   3.801   2.920   0.328  1.4802  1.7623  0.6858
 6014TIP3   OH239676   0.672   1.928   0.043  0.3200 -0.0800 -0.1895
 6014TIP3    H139677   0.580   1.908   0.061  0.4567  0.0816  0.7833
 6014TIP3    H239678   0.719   1.890   0.117  0.9571  0.4590 -0.3102
 6015TIP3   OH239679   1.257   5.871   7.936  0.5876  0.3071 -0.3294
 6015TIP3    H139680   1.223   5.882   7.847  0.4334  1.1070 -0.1800
 6015TIP3    H239681   1.352   5.882   7.927  0.6399 -0.2461 -0.4874
 6016TIP3   OH239682   2.405   3.451   2.626  0.2356 -0.2113 -0.1548
 6016TIP3    H139683   2.376   3.517   2.689  1.1433 -0.8672  0.9773
 6016TIP3    H239684   2.454   3.500   2.561 -2.2922  0.7608 -1.4814
 6017TIP3   OH239685   0.200   2.227   0.417  0.3063  0.0716 -0.7118
 6017TIP3    H139686   0.157   2.206   0.335  0.4030 -0.5098 -0.6216
 6017TIP3    H239687   0.144   2.292   0.458  0.5298  0.7549 -1.4704
 6018TIP3   OH239688   5.979   2.191   2.779  0.0981  0.4467 -0.1279
 6018TIP3    H139689   6.066   2.227   2.764  0.2853 -0.0576 -0.2717
 6018TIP3    H239690   5.942   2.180   2.691  0.2709 -0.2569 -0.1188
 6019TIP3   OH239691   5.283   5.598   1.508  0.2247 -0.3075 -0.0189
 6019TIP3    H139692   5.221   5.526   1.501  1.3873 -1.3477  0.0908
 6019TIP3    H239693   5.229   5.674   1.529 -0.8976 -1.3604  1.0545
 6020TIP3   OH239694   0.726   2.990   2.660  0.2956 -0.0159 -0.6777
 6020TIP3    H139695   0.635   3.018   2.648  0.5041  0.6101 -0.8360
 6020TIP3    H239696   0.721   2.895   2.670 -0.5700  0.1839  1.1429
 6021TIP3   OH239697   6.517   0.622   0.793 -0.1871  0.4649 -0.2978
 6021TIP3    H139698   6.449   0.632   0.727 -0.8050 -1.0241  0.0810
 6021TIP3    H239699   6.585   0.570   0.750  0.1946  0.9464 -0.2929
 6022TIP3   OH239700   0.666   2.222   2.796  0.6107  0.3046  0.1711
 6022TIP3    H139701   0.713   2.141   2.816  1.8456  0.9251 -0.0949
 6022TIP3    H239702   0.614   2.201   2.718  2.0260  0.1506 -0.7627
 6023TIP3   OH239703   4.515   4.961   1.621  0.9764  0.0670 -0.1982
 6023TIP3    H139704   4.504   5.023   1.548  1.2089 -0.6084 -0.8098
 6023TIP3    H239705   4.466   4.884   1.594 -0.0860  0.2986  0.9695
 6024TIP3   OH239706   4.232   2.530   2.564 -0.4973 -0.5642  0.3524
 6024TIP3    H139707   4.279   2.603   2.524  0.6014 -1.2961  0.2512
 6024TIP3    H239708   4.300   2.465   2.582 -1.6459 -2.1915 -0.9380
 6025TIP3   OH239709   4.549   3.606   8.338  0.2311 -0.0667 -0.4627
 6025TIP3    H139710   4.612   3.678   8.327  1.5479 -1.0545  0.3822
 6025TIP3    H239711   4.495   3.610   8.259  1.4336  0.7382 -1.2832
 6026TIP3   OH239712   1.353   2.680   0.366 -1.2261  0.5473 -0.0547
 6026TIP3    H139713   1.439   2.702   0.330 -1.7580 -0.3000 -1.9601
 6026TIP3    H239714   1.369   2.660   0.458  0.8052 -0.6840 -0.6251
 6027TIP3   OH239715   2.305   6.618   3.204  0.9833 -0.3071 -0.1003
 6027TIP3    H139716   2.237   6.608   3.270 -1.6117  4.5685 -1.5444
 6027TIP3    H239717   2.381   6.649   3.253  1.6815 -3.6778  1.2459
 6028TIP3   OH239718   5.355   6.123   3.083 -0.5600  0.0572 -0.1051
 6028TIP3    H139719   5.331   6.193   3.144 -0.0557  1.0399 -0.9901
 6028TIP3    H239720   5.389   6.053   3.139 -0.7987  0.6394  0.7895
 6029TIP3   OH239721   0.679   0.407   4.072  0.0275  0.1843  0.1588
 6029TIP3    H139722   0.638   0.489   4.099  0.5668  0.9350 -1.2447
 6029TIP3    H239723   0.623   0.374   4.002 -0.6459 -1.0956  1.2442
 6030TIP3   OH239724   1.218   4.092   2.745 -0.5120 -0.0366  0.6163
 6030TIP3    H139725   1.149   4.106   2.680 -1.5192  0.3516  1.7321
 6030TIP3    H239726   1.295   4.136   2.708 -1.0420  0.1238 -0.3326
 6031TIP3   OH239727   6.540   2.255   1.695  0.4810  0.0546  0.2116
 6031TIP3    H139728   6.580   2.249   1.608 -0.1880  0.6131 -0.1502
 6031TIP3    H239729   6.452   2.288   1.678  0.4839  0.5666  1.1378
 6032TIP3   OH239730   3.000   5.016   3.466 -0.1710 -0.4198  0.2838
 6032TIP3    H139731   3.052   5.081   3.514 -1.3543  1.7578 -1.1630
 6032TIP3    H239732   3.053   4.937   3.468  2.0324  0.9610  0.9979
 6033TIP3   OH239733   1.819   0.043   1.612  0.1842  0.4773  0.0375
 6033TIP3    H139734   1.895   0.094   1.584  0.9150 -1.3234 -1.5166
 6033TIP3    H239735   1.751   0.107   1.631  1.8411  2.1070  0.7434
 6034TIP3   OH239736   3.330   3.621   3.786 -0.4809  0.3347  0.0145
 6034TIP3    H139737   3.359   3.712   3.788 -0.0338  0.2154 -0.8473
 6034TIP3    H239738   3.407   3.572   3.757 -0.1773 -0.5463  2.1290
 6035TIP3   OH239739   6.153   5.341   4.425  0.3395 -0.3354  0.3136
 6035TIP3    H139740   6.218   5.376   4.486  1.2855 -1.1368 -0.2103
 6035TIP3    H239741   6.097   5.285   4.480  0.6515 -0.3644  0.6058
 6036TIP3   OH239742   4.613   6.869   1.621  0.0748 -0.1523 -0.3380
 6036TIP3    H139743   4.630   6.954   1.662 -1.3898 -0.4300  0.9204
 6036TIP3    H239744   4.586   6.891   1.531 -3.0967  1.0082  0.7459
 6037TIP3   OH239745   2.039   4.511   3.261  0.6615  0.2800 -0.1540
 6037TIP3    H139746   2.067   4.595   3.299 -1.0013  0.5045  0.6965
 6037TIP3    H239747   2.113   4.482   3.209  1.6607  1.7900  0.3553
 6038TIP3   OH239748   3.767   0.868   0.105  1.0240 -0.0170 -0.1205
 6038TIP3    H139749   3.703   0.905   0.044 -0.7435 -0.3098  1.4361
 6038TIP3    H239750   3.763   0.774   0.089  0.2277 -0.1368  0.6978
 6039TIP3   OH239751   6.262   4.635   3.329 -0.1343  0.4932  0.3968
 6039TIP3    H139752   6.346   4.632   3.283  0.2955  1.8124  1.0419
 6039TIP3    H239753   6.238   4.543   3.341  1.0205  0.0990 -0.1445
 6040TIP3   OH239754   5.864   5.861   1.456  0.7660 -0.0192 -0.0438
 6040TIP3    H139755   5.891   5.886   1.545  0.5606  1.2532 -0.3115
 6040TIP3    H239756   5.938   5.885   1.401  0.9523 -0.9525 -0.2055
 6041TIP3   OH239757   4.903   5.401   2.303  0.2704 -0.0760  0.4205
 6041TIP3    H139758   4.840   5.329   2.309 -0.3025  0.5402  2.6150
 6041TIP3    H239759   4.988   5.357   2.296 -0.1366 -0.9688  0.8748
 6042TIP3   OH239760   3.379   0.878   2.399 -0.4081 -0.0066 -0.1381
 6042TIP3    H139761   3.372   0.952   2.339  0.8343 -0.0703 -0.3896
 6042TIP3    H239762   3.472   0.871   2.418 -0.3379 -2.1610 -0.9648
 6043TIP3   OH239763   1.058   2.765   1.717  0.4726  0.2208  0.1380
 6043TIP3    H139764   1.085   2.762   1.808 -0.0164  0.4657  0.2934
 6043TIP3    H239765   0.981   2.708   1.712  0.2095  0.5823 -0.0137
 6044TIP3   OH239766   3.644   4.542   1.196 -0.7068 -0.6771  0.1766
 6044TIP3    H139767   3.733   4.506   1.195  0.2188  1.4213  0.2656
 6044TIP3    H239768   3.594   4.483   1.251  1.0390 -1.0634  1.4243
 6045TIP3   OH239769   5.698   6.250   1.081  0.4002 -0.0444  0.3284
 6045TIP3    H139770   5.642   6.172   1.069 -1.6126  1.2944  0.4472
 6045TIP3    H239771   5.667   6.287   1.164  1.2495  0.9557  0.2049
 6046TIP3   OH239772   6.265   2.191   8.545  0.1619 -0.0167  0.2126
 6046TIP3    H139773   6.188   2.134   8.541  0.9868 -1.1388  0.0255
 6046TIP3    H239774   6.265   2.236   8.460  0.3900 -0.9174 -0.2712
 6047TIP3   OH239775   6.521   3.390   1.761  0.5210  0.1326 -0.8219
 6047TIP3    H139776   6.449   3.450   1.738 -0.3970 -0.7874 -0.4271
 6047TIP3    H239777   6.523   3.328   1.688 -2.1536 -2.5749  1.1740
 6048TIP3   OH239778   1.248   2.108   0.578  0.3121 -0.4019  0.3549
 6048TIP3    H139779   1.226   2.201   0.577 -0.3607 -0.5363 -1.3444
 6048TIP3    H239780   1.340   2.105   0.604  1.1394  0.9894 -2.0586
 6049TIP3   OH239781   3.094   5.466   0.613 -0.0771  0.5424 -0.4359
 6049TIP3    H139782   3.113   5.465   0.519 -1.6978 -0.4699 -0.7958
 6049TIP3    H239783   3.044   5.547   0.626  0.5202  0.9047 -0.3461
 6050TIP3   OH239784   3.589   1.015   1.748  0.2522 -0.6034  0.6563
 6050TIP3    H139785   3.671   1.056   1.777  0.4136 -1.6855  1.8443
 6050TIP3    H239786   3.617   0.942   1.694  0.0145 -0.1384 -0.1094
 6051TIP3   OH239787   6.459   6.593   2.931 -0.5722  0.2659 -0.5178
 6051TIP3    H139788   6.476   6.499   2.934 -0.0920  0.1971 -3.2958
 6051TIP3    H239789   6.374   6.601   2.888 -1.0725  1.1045  0.5776
 6052TIP3   OH239790   6.707   1.020   2.835  0.2347 -0.5113 -0.0586
 6052TIP3    H139791   6.783   1.004   2.891 -0.6803  0.1354  1.3964
 6052TIP3    H239792   6.726   1.104   2.793  0.5466 -0.6021 -0.1063
 6053TIP3   OH239793   5.686   1.142   1.051  0.2210 -0.5314 -0.0641
 6053TIP3    H139794   5.657   1.155   1.142 -1.3175  1.0938 -0.7418
 6053TIP3    H239795   5.645   1.060   1.024  1.1704 -1.3458  0.8521
 6054TIP3   OH239796   6.043   4.091   2.766  0.4522  0.0041 -0.1621
 6054TIP3    H139797   5.962   4.133   2.735 -0.7349 -2.7122 -1.0558
 6054TIP3    H239798   6.046   4.113   2.859 -1.0284  0.6568 -0.2271
 6055TIP3   OH239799   1.550   4.687   8.358  0.1678  0.0591  0.5443
 6055TIP3    H139800   1.495   4.760   8.330 -0.6948 -0.6648  0.3059
 6055TIP3    H239801   1.574   4.708   8.448 -1.3721 -0.1017  1.0151
 6056TIP3   OH239802   6.539   6.382   2.379 -0.4977  0.1195 -0.3063
 6056TIP3    H139803   6.571   6.361   2.467 -0.9355  1.2526  0.1411
 6056TIP3    H239804   6.601   6.446   2.345 -1.8332  1.8340  0.3113
 6057TIP3   OH239805   4.981   4.243   3.049  0.9102  0.2109  0.2084
 6057TIP3    H139806   5.057   4.257   2.993  1.2600 -0.9039  0.3749
 6057TIP3    H239807   4.906   4.249   2.990  1.1644  0.7562 -0.0600
 6058TIP3   OH239808   3.857   0.448   2.756  0.3183  0.2589  0.4568
 6058TIP3    H139809   3.827   0.389   2.687  0.7884  0.1507  0.3450
 6058TIP3    H239810   3.949   0.427   2.768  0.0747 -0.2411  1.6392
 6059TIP3   OH239811   5.333   3.485   2.233 -0.0448  0.3836 -0.1254
 6059TIP3    H139812   5.257   3.454   2.184 -0.6834  3.4268 -1.2757
 6059TIP3    H239813   5.408   3.451   2.184 -0.6584 -0.3442 -0.5854
 6060TIP3   OH239814   2.017   6.547   2.558 -0.6795  0.1949 -0.8201
 6060TIP3    H139815   1.986   6.637   2.571 -1.0599 -0.0529  0.0130
 6060TIP3    H239816   2.105   6.547   2.596 -1.0301 -0.0112  0.0203
 6061TIP3   OH239817   4.371   5.226   1.131 -0.2618  0.0590  0.1470
 6061TIP3    H139818   4.372   5.197   1.222  2.1494  2.0988  0.8870
 6061TIP3    H239819   4.278   5.230   1.108 -0.9055 -1.2578  2.2127
 6062TIP3   OH239820   4.091   3.828   8.542  0.4802 -0.5132 -0.4787
 6062TIP3    H139821   4.071   3.817   8.449 -0.6440 -1.0715 -0.1754
 6062TIP3    H239822   4.012   3.801   8.588 -0.1959  2.7653  0.5563
 6063TIP3   OH239823   6.625   3.011   0.498 -0.5952 -0.6869  0.1317
 6063TIP3    H139824   6.563   2.994   0.569 -1.3331 -0.4788 -0.4456
 6063TIP3    H239825   6.663   3.096   0.520 -1.7565 -0.0139 -0.3459
 6064TIP3   OH239826   2.469   2.311   2.650 -0.4096  0.3349 -0.0895
 6064TIP3    H139827   2.432   2.225   2.669 -1.1556  0.8837  1.0992
 6064TIP3    H239828   2.560   2.305   2.679 -0.9479  0.4747  1.8005
 6065TIP3   OH239829   1.134   6.335   1.411  0.2396  0.0884 -0.7065
 6065TIP3    H139830   1.166   6.259   1.459  0.6993  0.1009 -0.9905
 6065TIP3    H239831   1.174   6.327   1.324  0.2186  0.6057 -0.7654
 6066TIP3   OH239832   1.140   3.686   2.897  0.0111 -0.1759  0.1117
 6066TIP3    H139833   1.204   3.633   2.850 -0.5172 -2.2299  1.5815
 6066TIP3    H239834   1.107   3.629   2.966 -0.8854  1.9723  1.5831
 6067TIP3   OH239835   4.515   2.097   0.367 -0.2936 -0.0683  0.3471
 6067TIP3    H139836   4.508   2.146   0.285 -0.1985 -2.9583 -1.5472
 6067TIP3    H239837   4.604   2.115   0.398  0.6114 -0.8848 -1.6237
 6068TIP3   OH239838   4.089   4.911   2.560 -0.3735 -0.6850  0.2482
 6068TIP3    H139839   4.132   4.991   2.529 -0.1497 -1.6142 -2.0417
 6068TIP3    H239840   4.161   4.849   2.573 -0.7684 -1.4748 -1.1503
 6069TIP3   OH239841   0.076   3.564   0.900  0.2508  0.3384 -0.2795
 6069TIP3    H139842   0.092   3.506   0.974  2.3434  0.5723 -0.4899
 6069TIP3    H239843   0.159   3.566   0.853  0.2781  3.4787 -0.3090
 6070TIP3   OH239844   0.442   0.540   8.327 -0.3111  0.7995 -0.1989
 6070TIP3    H139845   0.409   0.475   8.264 -1.3585  0.4860  0.6474
 6070TIP3    H239846   0.406   0.512   8.411 -0.3092  2.1643  0.2740
 6071TIP3   OH239847   3.748   0.331   2.533  0.1764 -0.3040 -0.0005
 6071TIP3    H139848   3.657   0.329   2.564 -0.1495 -2.0915 -0.9355
 6071TIP3    H239849   3.747   0.389   2.457 -0.2219 -0.4705 -0.1248
 6072TIP3   OH239850   2.865   1.383   8.300 -0.4824  0.3289  0.4667
 6072TIP3    H139851   2.868   1.298   8.256 -1.1023 -0.0088  1.0621
 6072TIP3    H239852   2.792   1.376   8.362 -0.9255  1.4926  0.1110
 6073TIP3   OH239853   5.439   6.139   3.479 -0.2646 -0.7875  0.1798
 6073TIP3    H139854   5.376   6.210   3.469 -1.1352 -1.5550  0.1419
 6073TIP3    H239855   5.461   6.139   3.572  2.0564  1.4413 -0.2319
 6074TIP3   OH239856   0.836   2.083   2.276 -0.2185  0.1407 -0.0054
 6074TIP3    H139857   0.905   2.103   2.339 -0.1212 -0.5443  0.1046
 6074TIP3    H239858   0.808   2.169   2.244 -0.1937  0.4933  0.8868
 6075TIP3   OH239859   2.332   4.252   2.952  0.1343  0.3825  0.5369
 6075TIP3    H139860   2.415   4.217   2.984  0.7908  0.9629 -0.4746
 6075TIP3    H239861   2.345   4.261   2.858 -1.4832 -0.5813  0.1929
 6076TIP3   OH239862   3.380   1.670   2.433 -0.6508 -0.1390 -0.2834
 6076TIP3    H139863   3.372   1.761   2.406  0.5395  0.3086  0.7901
 6076TIP3    H239864   3.410   1.623   2.355 -0.5966  0.5005 -0.6462
 6077TIP3   OH239865   3.220   2.925   0.755  0.2234  0.1609 -0.0918
 6077TIP3    H139866   3.148   2.976   0.717 -1.3927 -2.0022 -0.1520
 6077TIP3    H239867   3.220   2.843   0.706  1.6239 -0.5800  1.0679
 6078TIP3   OH239868   3.797   3.276   2.062 -0.5519  0.5486 -0.8463
 6078TIP3    H139869   3.864   3.214   2.033 -0.9290 -0.6540  0.7319
 6078TIP3    H239870   3.846   3.348   2.103 -0.1469  0.9401 -1.9824
 6079TIP3   OH239871   5.916   2.576   4.171  0.3313 -0.8789  0.0427
 6079TIP3    H139872   5.914   2.631   4.093 -0.4267 -0.2055  0.5190
 6079TIP3    H239873   6.003   2.590   4.208 -0.0526  0.5321  0.4990
 6080TIP3   OH239874   2.275   0.329   4.380  0.4829  0.3777 -0.0484
 6080TIP3    H139875   2.352   0.373   4.417 -0.5488  2.4767 -0.2493
 6080TIP3    H239876   2.208   0.336   4.448  0.0152 -0.0394 -0.4540
 6081TIP3   OH239877   3.231   3.133   3.271 -0.2374  0.7917  0.1151
 6081TIP3    H139878   3.316   3.170   3.249 -0.8628  2.6365  0.6104
 6081TIP3    H239879   3.251   3.047   3.307  1.4122  1.2141  0.2869
 6082TIP3   OH239880   3.533   2.129   0.487  0.9865 -0.3413  0.0911
 6082TIP3    H139881   3.449   2.113   0.444  0.6248 -0.9405  0.9973
 6082TIP3    H239882   3.541   2.225   0.488  0.1120 -0.2631  0.3921
 6083TIP3   OH239883   2.286   4.998   2.786 -0.6225 -0.0520 -0.4905
 6083TIP3    H139884   2.304   5.069   2.847 -2.5116 -0.1852  0.2788
 6083TIP3    H239885   2.196   5.013   2.757 -0.3488 -0.9707 -1.9366
 6084TIP3   OH239886   5.955   2.303   1.786  0.0036 -0.2515  0.8467
 6084TIP3    H139887   6.010   2.242   1.738  0.0722 -0.2685  0.9459
 6084TIP3    H239888   5.910   2.249   1.851 -0.1364 -0.2387  0.7598
 6085TIP3   OH239889   5.537   1.815   1.677  0.4193 -0.4609  0.1817
 6085TIP3    H139890   5.597   1.828   1.750  0.1557 -1.3016  0.5576
 6085TIP3    H239891   5.572   1.869   1.606  0.4921  0.6359  1.0300
 6086TIP3   OH239892   6.598   1.771   2.119 -0.1545  0.1471  0.0760
 6086TIP3    H139893   6.524   1.824   2.149 -0.3548  1.3872 -2.4387
 6086TIP3    H239894   6.670   1.795   2.178 -0.9549  1.1708  0.6730
 6087TIP3   OH239895   2.518   2.883   3.187  0.7021 -0.2854 -0.0761
 6087TIP3    H139896   2.483   2.917   3.269  1.9647 -1.2617  0.9300
 6087TIP3    H239897   2.613   2.895   3.195  0.8303 -0.2230 -1.4865
 6088TIP3   OH239898   6.492   5.607   3.286 -0.3128 -0.2574 -0.1277
 6088TIP3    H139899   6.451   5.690   3.308 -0.8468 -0.2992 -0.9050
 6088TIP3    H239900   6.423   5.542   3.302 -0.7541 -0.2856 -1.8690
 6089TIP3   OH239901   0.231   3.463   0.201  0.3022  0.3534  0.0626
 6089TIP3    H139902   0.182   3.469   0.119  0.9180  3.0919 -0.2125
 6089TIP3    H239903   0.270   3.376   0.200  0.3091  0.3162 -2.5737
 6090TIP3   OH239904   3.833   0.094   1.623  0.0399  0.3005  0.2133
 6090TIP3    H139905   3.850   0.013   1.575 -0.2999  0.3419  0.0197
 6090TIP3    H239906   3.918   0.119   1.659  0.0577 -0.4019  0.6794
 6091TIP3   OH239907   1.435   1.808   1.779 -0.4522  0.1241 -0.5388
 6091TIP3    H139908   1.454   1.815   1.685 -1.1982  1.0571 -0.6230
 6091TIP3    H239909   1.341   1.821   1.786 -0.3635  0.3425  0.3743
 6092TIP3   OH239910   3.000   5.966   0.805 -0.0518 -0.6094 -0.3404
 6092TIP3    H139911   3.067   5.901   0.828 -0.3051 -0.6245  0.3904
 6092TIP3    H239912   2.955   5.985   0.888 -2.1632 -1.9383 -1.1081
 6093TIP3   OH239913   4.129   0.482   2.814  0.1743  0.1080 -0.1591
 6093TIP3    H139914   4.152   0.396   2.848 -1.6984 -0.4867 -0.2740
 6093TIP3    H239915   4.207   0.536   2.829  1.0929 -1.3891  0.6391
 6094TIP3   OH239916   0.227   3.114   1.610 -0.4525 -0.2022 -0.1126
 6094TIP3    H139917   0.261   3.146   1.693 -0.8061 -0.2921  0.0664
 6094TIP3    H239918   0.193   3.027   1.630  0.4264 -0.6738 -0.5754
 6095TIP3   OH239919   5.370   2.596   3.030  0.2327  0.1057  0.0458
 6095TIP3    H139920   5.315   2.537   3.082 -2.5079  2.5223  0.1234
 6095TIP3    H239921   5.375   2.554   2.944 -0.6608 -0.8134  0.4158
 6096TIP3   OH239922   3.144   0.179   0.883 -0.1644  0.2717 -0.1846
 6096TIP3    H139923   3.136   0.225   0.799  0.9246  1.4860  0.3488
 6096TIP3    H239924   3.072   0.213   0.936 -0.1761  0.3261 -0.2352
 6097TIP3   OH239925   0.580   0.930   2.696 -0.2090  0.7745  0.2999
 6097TIP3    H139926   0.675   0.927   2.711 -0.1653 -0.8692 -0.1532
 6097TIP3    H239927   0.560   0.847   2.653 -1.8261  1.2196  0.1437
 6098TIP3   OH239928   1.742   6.232   4.214 -0.5747 -0.2790  0.5702
 6098TIP3    H139929   1.677   6.298   4.240  0.2609  0.9131 -0.2245
 6098TIP3    H239930   1.794   6.217   4.292  0.1817  1.1960  0.3961
 6099TIP3   OH239931   0.751   4.188   1.928  0.1851  0.5474 -0.3149
 6099TIP3    H139932   0.711   4.142   1.854 -0.3719  0.2917  0.1412
 6099TIP3    H239933   0.683   4.247   1.959  0.1004 -0.0123  0.5755
 6100TIP3   OH239934   3.112   2.445   0.728 -0.0203 -0.2074 -0.3349
 6100TIP3    H139935   3.048   2.374   0.725  0.7220 -0.8634 -0.8262
 6100TIP3    H239936   3.197   2.402   0.718  0.4330  0.7609 -0.7560
 6101TIP3   OH239937   1.463   1.688   2.655  0.6716 -0.0549  0.1043
 6101TIP3    H139938   1.392   1.707   2.594 -0.9499  0.6484  2.0722
 6101TIP3    H239939   1.500   1.606   2.624 -0.2489  0.1456 -1.6525
 6102TIP3   OH239940   5.082   3.429   4.053  0.5296  0.3703  0.4030
 6102TIP3    H139941   5.074   3.491   3.981 -3.0147  0.3153  0.5884
 6102TIP3    H239942   5.088   3.343   4.011 -0.5647  0.4131  0.1373
 6103TIP3   OH239943   4.925   4.800   0.505 -0.0316 -0.6033  0.7092
 6103TIP3    H139944   5.006   4.847   0.528  1.2714 -1.3322 -1.9896
 6103TIP3    H239945   4.862   4.870   0.488  1.0940  0.1568 -0.5903
 6104TIP3   OH239946   2.363   4.244   1.230  0.3518  0.4078  0.2137
 6104TIP3    H139947   2.458   4.240   1.218  0.2203 -0.0256 -0.7866
 6104TIP3    H239948   2.337   4.324   1.185  0.1383  0.0013 -0.4135
 6105TIP3   OH239949   4.529   6.834   2.956  0.2518 -0.1494  0.0467
 6105TIP3    H139950   4.550   6.741   2.963  1.6975  0.1302 -0.2502
 6105TIP3    H239951   4.488   6.856   3.040 -1.5055 -1.3662 -0.4465
 6106TIP3   OH239952   5.270   5.573   0.671  0.1638  0.3173 -0.5902
 6106TIP3    H139953   5.282   5.487   0.711 -1.4739  0.1926 -0.3073
 6106TIP3    H239954   5.243   5.630   0.743  0.4053  0.8613 -0.9265
 6107TIP3   OH239955   3.882   3.719   8.065 -0.4010  0.0568  0.1661
 6107TIP3    H139956   3.939   3.752   7.996  0.3831  1.6330  1.5155
 6107TIP3    H239957   3.804   3.689   8.018 -0.5120  2.3919 -1.3394
 6108TIP3   OH239958   6.629   3.952   1.888 -0.4454  0.0577  0.3359
 6108TIP3    H139959   6.663   3.865   1.911  1.7396  0.7773  0.0889
 6108TIP3    H239960   6.616   3.995   1.972 -0.7075 -0.2253  0.4410
 6109TIP3   OH239961   1.776   4.837   3.231  0.8513  0.5986 -0.4772
 6109TIP3    H139962   1.727   4.873   3.157 -0.2908  0.2268  0.0742
 6109TIP3    H239963   1.758   4.897   3.303  1.3860  0.5662 -0.3088
 6110TIP3   OH239964   1.684   4.987   1.173  0.0403 -0.0737 -0.2352
 6110TIP3    H139965   1.609   4.991   1.115  0.5098 -0.5461 -0.8931
 6110TIP3    H239966   1.655   4.933   1.247 -0.3887  0.0833 -0.2891
 6111TIP3   OH239967   2.420   0.349   0.583 -0.5242  0.6830 -0.1034
 6111TIP3    H139968   2.459   0.345   0.671 -4.9982 -2.4152  2.1862
 6111TIP3    H239969   2.355   0.419   0.589 -0.3686  0.9382 -1.2237
 6112TIP3   OH239970   1.975   4.763   0.594 -0.1475 -0.2765 -0.1361
 6112TIP3    H139971   2.040   4.755   0.524 -1.0994 -0.9034 -0.9921
 6112TIP3    H239972   2.015   4.721   0.670  1.5454  1.8171  0.2029
 6113TIP3   OH239973   0.434   5.411   4.148  0.6079  0.1306  0.4781
 6113TIP3    H139974   0.367   5.347   4.122 -1.3487  2.4823 -0.6357
 6113TIP3    H239975   0.497   5.409   4.076  0.0933  0.0581  0.0210
 6114TIP3   OH239976   6.168   2.345   3.602  0.2650  0.2052  0.1692
 6114TIP3    H139977   6.089   2.392   3.573  0.9833  1.0393 -0.5122
 6114TIP3    H239978   6.180   2.373   3.693 -0.5401 -0.3894  0.4739
 6115TIP3   OH239979   4.274   3.858   2.877  0.3708 -0.2997 -0.4277
 6115TIP3    H139980   4.263   3.890   2.966 -0.1799  0.6017 -0.7962
 6115TIP3    H239981   4.360   3.816   2.876  1.1979  1.2928  0.0743
 6116TIP3   OH239982   4.624   3.757   2.588  0.0424 -0.1150 -0.3795
 6116TIP3    H139983   4.663   3.704   2.519 -1.1825 -0.4794 -0.8189
 6116TIP3    H239984   4.696   3.811   2.620  0.5360  0.4855 -2.3376
 6117TIP3   OH239985   3.746   5.179   2.908 -0.3622 -0.1015 -0.2763
 6117TIP3    H139986   3.825   5.137   2.873 -0.6763 -3.6846  2.7047
 6117TIP3    H239987   3.779   5.255   2.956  1.0231 -0.2843 -0.8900
 6118TIP3   OH239988   0.182   0.629   2.171 -0.2065  0.2337 -0.1180
 6118TIP3    H139989   0.108   0.665   2.123 -1.1565 -1.2560  0.1697
 6118TIP3    H239990   0.257   0.681   2.141 -0.8712 -0.1030 -2.6074
 6119TIP3   OH239991   0.954   6.785   1.261  0.5502 -0.2336 -0.7183
 6119TIP3    H139992   0.983   6.735   1.184  1.0989 -0.5385 -0.3140
 6119TIP3    H239993   0.873   6.741   1.288  1.9495 -2.0949  0.7226
 6120TIP3   OH239994   4.704   5.401   2.623  1.0355  0.0016 -0.1836
 6120TIP3    H139995   4.733   5.388   2.713 -0.5887  3.7782  1.1073
 6120TIP3    H239996   4.784   5.416   2.573  1.8560  0.1464  1.1359
 6121TIP3   OH239997   5.406   2.219   2.933  0.0149 -0.0608  0.5675
 6121TIP3    H139998   5.319   2.188   2.959 -0.4686  0.3909 -0.4433
 6121TIP3    H239999   5.465   2.149   2.959 -0.5098  0.0799  2.2283
 6122TIP3   OH240000   2.969   0.226   1.206  0.0279 -0.1521 -0.5524
 6122TIP3    H140001   2.935   0.152   1.255  1.7860 -1.7866 -1.6798
 6122TIP3    H240002   3.063   0.210   1.199  0.1888  1.2278 -2.3927
 6123TIP3   OH240003   1.570   6.653   2.188 -0.2081 -0.2881 -0.4345
 6123TIP3    H140004   1.662   6.626   2.186 -0.0928  0.1298 -1.7160
 6123TIP3    H240005   1.521   6.571   2.187  0.1366 -0.5106  0.0665
 6124TIP3   OH240006   6.404   6.649   2.522 -0.4059 -0.3936  0.4834
 6124TIP3    H140007   6.493   6.627   2.494  0.0502 -0.6906  2.0847
 6124TIP3    H240008   6.414   6.729   2.573 -1.2582  0.2980 -0.3881
 6125TIP3   OH240009   5.658   0.134   1.618 -0.4856 -0.2204 -0.3025
 6125TIP3    H140010   5.683   0.122   1.710 -2.3588 -1.4830  0.1253
 6125TIP3    H240011   5.713   0.205   1.586  1.1610 -0.6594  1.4087
 6126TIP3   OH240012   4.811   3.824   0.066 -0.0811 -0.3935  0.1001
 6126TIP3    H140013   4.783   3.755   0.126 -0.6898 -0.7832 -0.6132
 6126TIP3    H240014   4.842   3.894   0.123 -1.8595 -0.2317  0.9295
 6127TIP3   OH240015   1.517   1.117   2.740 -0.3587  0.0217  0.1364
 6127TIP3    H140016   1.581   1.188   2.736 -0.5374  0.1534 -0.8798
 6127TIP3    H240017   1.555   1.052   2.799  0.3424  0.4473  0.1556
 6128TIP3   OH240018   1.795   6.904   0.679 -0.0703  0.2182 -0.0846
 6128TIP3    H140019   1.736   6.867   0.745  0.2768  1.0255  0.7160
 6128TIP3    H240020   1.851   6.964   0.729  0.3343  0.7035 -1.0918
 6129TIP3   OH240021   0.632   2.324   2.338  0.1294  0.7425 -0.5994
 6129TIP3    H140022   0.573   2.256   2.369 -0.9400  1.2253 -1.4838
 6129TIP3    H240023   0.654   2.297   2.248  2.1475  0.0154  0.0527
 6130TIP3   OH240024   2.593   2.633   3.374  0.3033  0.2588 -0.1136
 6130TIP3    H140025   2.545   2.701   3.327 -1.6053 -0.4244  0.7412
 6130TIP3    H240026   2.684   2.645   3.348 -0.4186  1.0730 -2.4951
 6131TIP3   OH240027   1.571   1.481   2.529  0.2658  0.7333 -0.0222
 6131TIP3    H140028   1.635   1.523   2.472  0.9495  1.9317  1.5287
 6131TIP3    H240029   1.623   1.425   2.587 -0.6311 -2.4593 -2.0607
 6132TIP3   OH240030   0.325   4.897   2.367 -0.0682 -0.2863 -0.2000
 6132TIP3    H140031   0.244   4.885   2.317  0.5549 -0.9065 -1.0973
 6132TIP3    H240032   0.388   4.840   2.324  1.3018  1.4296 -0.5785
 6133TIP3   OH240033   0.500   4.332   2.136  0.2790 -0.0596  0.3250
 6133TIP3    H140034   0.489   4.389   2.060 -1.2669 -0.9998 -0.2132
 6133TIP3    H240035   0.517   4.391   2.209 -0.6082  1.0438 -0.3366
 6134TIP3   OH240036   1.668   1.394   1.506  0.7033 -0.3967 -0.1456
 6134TIP3    H140037   1.607   1.442   1.562  0.7670 -0.7345  0.2195
 6134TIP3    H240038   1.614   1.328   1.462  0.4960  0.4127 -1.1423
 6135TIP3   OH240039   1.385   4.197   0.759 -0.3120  0.3869  0.0143
 6135TIP3    H140040   1.415   4.224   0.846 -0.9898 -1.0482  0.7213
 6135TIP3    H240041   1.460   4.214   0.702 -0.4019  2.9540  0.5004
 6136TIP3   OH240042   6.179   2.638   4.190  0.3619  0.2093  0.0184
 6136TIP3    H140043   6.226   2.601   4.115  1.3904  1.5693 -0.0530
 6136TIP3    H240044   6.237   2.707   4.222  0.1064 -0.5470  2.2807
 6137TIP3   OH240045   4.767   0.526   2.933  0.4193 -0.1875  0.3308
 6137TIP3    H140046   4.694   0.465   2.927  0.8948 -0.6105 -2.1926
 6137TIP3    H240047   4.726   0.610   2.956 -0.4201 -1.0719  2.2279
 6138TIP3   OH240048   4.490   5.882   1.713  0.5999 -0.0502 -0.2050
 6138TIP3    H140049   4.575   5.898   1.754 -0.2058  1.4583  0.9742
 6138TIP3    H240050   4.452   5.970   1.701 -2.2678 -0.7424  2.5579
 6139TIP3   OH240051   6.842   2.601   0.660 -0.6251 -0.4518  0.3950
 6139TIP3    H140052   6.795   2.623   0.740  0.7357  0.9625  0.8500
 6139TIP3    H240053   6.857   2.685   0.617 -1.3445 -1.1825 -1.3922
 6140TIP3   OH240054   6.463   4.478   1.999  0.2430 -0.1962 -0.1486
 6140TIP3    H140055   6.535   4.503   2.057  2.4395  0.5889 -2.9732
 6140TIP3    H240056   6.404   4.428   2.054  3.2973 -1.5180  2.2181
 6141TIP3   OH240057   1.516   5.205   1.539  0.1508 -0.0209  0.7030
 6141TIP3    H140058   1.591   5.200   1.480  0.4863  0.5225  1.0776
 6141TIP3    H240059   1.518   5.123   1.588  0.2320 -0.2027  0.4009
 6142TIP3   OH240060   4.146   0.438   0.810 -0.0255 -0.0155  0.4512
 6142TIP3    H140061   4.205   0.504   0.775 -0.0548 -0.2154  0.0067
 6142TIP3    H240062   4.201   0.361   0.822 -0.3098 -0.4050 -0.5878
 6143TIP3   OH240063   0.345   2.607   4.179 -0.1503  1.2848  0.3278
 6143TIP3    H140064   0.390   2.579   4.259  1.4607 -0.1204 -1.0133
 6143TIP3    H240065   0.375   2.697   4.165  0.6648  1.0516  0.5454
 6144TIP3   OH240066   1.462   1.689   3.351 -0.5666 -0.1108 -0.1701
 6144TIP3    H140067   1.485   1.665   3.441  0.8364 -0.3438 -0.5601
 6144TIP3    H240068   1.418   1.612   3.316  0.2017 -0.5801 -0.1296
 6145TIP3   OH240069   3.242   4.391   0.734  0.3751 -0.5196  0.2254
 6145TIP3    H140070   3.261   4.416   0.644  1.9116 -0.7498  0.4529
 6145TIP3    H240071   3.147   4.381   0.737  0.1487  0.9852 -0.9621
 6146TIP3   OH240072   2.643   6.699   1.419  0.1221 -0.2033  0.1579
 6146TIP3    H140073   2.710   6.720   1.354  0.2691  0.0718  0.3979
 6146TIP3    H240074   2.635   6.778   1.472 -2.4830  0.8640 -1.6492
 6147TIP3   OH240075   5.308   5.309   3.103 -0.4012  0.5765  0.6937
 6147TIP3    H140076   5.395   5.275   3.085 -0.5945  0.6448 -0.4482
 6147TIP3    H240077   5.250   5.256   3.047 -0.8906  1.6374  0.1767
 6148TIP3   OH240078   3.322   5.793   2.549  0.1218 -0.1982 -0.0808
 6148TIP3    H140079   3.318   5.886   2.527  0.2017 -0.3791 -0.8828
 6148TIP3    H240080   3.415   5.776   2.563  0.3186 -0.5254 -1.6272
 6149TIP3   OH240081   3.507   4.619   4.344  0.1153  0.5587 -0.3696
 6149TIP3    H140082   3.560   4.540   4.355  0.9289  0.6543 -2.8627
 6149TIP3    H240083   3.459   4.604   4.262 -1.7393  1.5782  0.4654
 6150TIP3   OH240084   2.380   2.981   0.224 -0.2125  0.2102  0.2172
 6150TIP3    H140085   2.440   2.961   0.296  1.9391  0.4471 -1.4280
 6150TIP3    H240086   2.342   3.066   0.248 -0.7206 -0.4085  1.7604
 6151TIP3   OH240087   6.795   4.114   1.026  0.2959 -0.0431 -0.0909
 6151TIP3    H140088   6.776   4.111   1.120  0.3933 -2.4008 -0.0889
 6151TIP3    H240089   6.879   4.069   1.017  0.2939  0.1631 -1.3207
 6152TIP3   OH240090   5.610   3.492   1.503  0.2818 -0.5483  0.1934
 6152TIP3    H140091   5.590   3.430   1.573 -2.5296  0.8712  0.8283
 6152TIP3    H240092   5.565   3.456   1.426 -1.7879  0.8056  0.6838
 6153TIP3   OH240093   1.802   6.355   2.510  0.0298  0.1707 -0.3736
 6153TIP3    H140094   1.720   6.405   2.509 -0.4342 -0.5838 -0.9595
 6153TIP3    H240095   1.870   6.421   2.494 -0.6042  0.5664 -1.5824
 6154TIP3   OH240096   2.265   0.147   3.626 -0.3309  0.5934 -0.2101
 6154TIP3    H140097   2.307   0.219   3.674  0.2964  1.9531 -2.5941
 6154TIP3    H240098   2.326   0.074   3.634  0.5894  1.3268 -0.3120
 6155TIP3   OH240099   5.835   5.273   4.428 -0.0099 -0.8255  0.4273
 6155TIP3    H140100   5.771   5.293   4.359  1.8437  0.3428 -1.0552
 6155TIP3    H240101   5.850   5.357   4.471 -0.1316 -1.2802  1.3670
 6156TIP3   OH240102   6.041   4.275   0.170  0.0071  0.0234  0.0130
 6156TIP3    H140103   6.028   4.369   0.187 -0.8917 -0.1930  0.5805
 6156TIP3    H240104   6.058   4.238   0.257  0.2393 -0.3609 -0.1954
 6157TIP3   OH240105   0.435   2.872   4.130  0.3868  0.0525 -0.0982
 6157TIP3    H140106   0.366   2.918   4.082  0.6754  1.1859  0.5433
 6157TIP3    H240107   0.480   2.941   4.179  1.3361 -0.8138  0.2729
 6158TIP3   OH240108   0.841   4.774   2.807  0.6347 -0.2065  0.7270
 6158TIP3    H140109   0.789   4.844   2.766 -1.1128 -0.7054  1.9861
 6158TIP3    H240110   0.885   4.816   2.881  0.4005 -0.2238  0.8752
 6159TIP3   OH240111   6.829   5.954   3.727 -0.4793 -0.4899  0.0670
 6159TIP3    H140112   6.836   5.999   3.811  0.2334 -0.0604 -0.2164
 6159TIP3    H240113   6.749   5.988   3.688  0.0988  0.6390 -0.1926
 6160TIP3   OH240114   5.781   0.275   2.499 -0.3110  0.2404  0.1999
 6160TIP3    H140115   5.740   0.305   2.581 -1.3902  0.0110 -0.2376
 6160TIP3    H240116   5.781   0.352   2.443 -1.2477 -0.0475 -0.2158
 6161TIP3   OH240117   4.892   5.760   1.090  0.0181  0.0081  0.2277
 6161TIP3    H140118   4.849   5.681   1.057 -0.1481 -0.0615  0.6026
 6161TIP3    H240119   4.863   5.767   1.181 -0.5087  0.8769 -0.0000
 6162TIP3   OH240120   1.575   6.905   2.033  0.4694 -0.4447  0.9227
 6162TIP3    H140121   1.564   6.823   2.080  0.2606 -0.6111  0.5895
 6162TIP3    H240122   1.651   6.947   2.073 -0.1970 -0.1940  1.9659
 6163TIP3   OH240123   0.662   3.382   2.441 -0.2548  0.5289 -0.8255
 6163TIP3    H140124   0.691   3.405   2.530  0.1900  2.4194 -1.4176
 6163TIP3    H240125   0.572   3.413   2.437 -1.3333 -2.2039 -0.1417
 6164TIP3   OH240126   1.862   4.192   2.149 -0.2977 -0.0360 -0.2730
 6164TIP3    H140127   1.916   4.244   2.091 -0.6872  0.7715  0.0723
 6164TIP3    H240128   1.894   4.102   2.139 -0.0058  0.1783 -1.3128
 6165TIP3   OH240129   3.972   3.384   2.961  0.0527  0.2279 -0.1260
 6165TIP3    H140130   3.983   3.324   2.888  1.8196  1.0716 -0.5858
 6165TIP3    H240131   3.998   3.334   3.038  2.2671  0.5744 -0.5937
 6166TIP3   OH240132   1.641   4.678   0.085  0.2252  0.5124 -0.3780
 6166TIP3    H140133   1.720   4.722   0.054  1.0346 -0.5137  0.1607
 6166TIP3    H240134   1.582   4.749   0.108  0.9656  1.3024 -0.8330
 6167TIP3   OH240135   0.342   3.292   4.132 -0.7072 -0.0035  0.5430
 6167TIP3    H140136   0.371   3.313   4.221  0.4851  0.7434  0.0085
 6167TIP3    H240137   0.335   3.197   4.131  0.9091 -0.1536  0.9698
 6168TIP3   OH240138   3.314   5.873   1.942  0.0372 -0.4536  0.4023
 6168TIP3    H140139   3.347   5.850   2.029  0.1689 -0.3247  0.3868
 6168TIP3    H240140   3.251   5.804   1.922  1.7493 -1.8663 -0.4129
 6169TIP3   OH240141   4.073   0.949   2.605  0.9093  0.2588  0.1179
 6169TIP3    H140142   4.058   0.865   2.650  0.8485 -0.8839 -1.8920
 6169TIP3    H240143   4.109   0.924   2.520 -0.1069  2.2273 -0.9550
 6170TIP3   OH240144   6.572   3.601   0.812  0.4776  0.4491 -0.4340
 6170TIP3    H140145   6.546   3.512   0.790 -0.5457  0.7171 -0.3309
 6170TIP3    H240146   6.587   3.599   0.907 -1.2906  0.7907 -0.1160
 6171TIP3   OH240147   6.559   6.409   2.042  0.3300 -0.6267  0.1638
 6171TIP3    H140148   6.469   6.441   2.034  0.4726 -0.3541 -0.4074
 6171TIP3    H240149   6.551   6.328   2.094 -0.7131 -2.4936 -2.6487
 6172TIP3   OH240150   1.808   5.385   2.093 -0.1751 -0.0516  0.2596
 6172TIP3    H140151   1.883   5.406   2.037  0.0332  0.8626  0.8532
 6172TIP3    H240152   1.771   5.471   2.115 -0.3196 -0.4041  1.4115
 6173TIP3   OH240153   3.688   4.891   2.432 -0.0021  0.0099 -0.1391
 6173TIP3    H140154   3.607   4.895   2.381  0.8511 -1.6011 -1.7226
 6173TIP3    H240155   3.754   4.931   2.376  0.2977  1.5845  1.2613
 6174TIP3   OH240156   4.866   0.696   0.041 -0.6484  0.5024  0.1444
 6174TIP3    H140157   4.830   0.687   0.130  1.3558 -0.6304  0.8910
 6174TIP3    H240158   4.805   0.647  -0.014  0.3629 -2.6530  1.5905
 6175TIP3   OH240159   0.875   1.336   8.496 -0.0928  0.1188 -0.5908
 6175TIP3    H140160   0.781   1.317   8.498 -0.6103  2.2125  2.8964
 6175TIP3    H240161   0.880   1.427   8.467  0.7767  0.3027  0.1133
 6176TIP3   OH240162   1.546   0.398   8.445  0.2381 -0.0814 -0.3058
 6176TIP3    H140163   1.612   0.363   8.504 -0.6951 -0.9139  0.2778
 6176TIP3    H240164   1.583   0.385   8.357  0.1182 -2.2214 -0.0920
 6177TIP3   OH240165   2.094   6.349   8.121 -0.4944  0.6499 -0.0168
 6177TIP3    H140166   2.017   6.297   8.098 -2.2180  2.8569  0.4295
 6177TIP3    H240167   2.132   6.373   8.036 -1.2252  0.8490 -0.2956
 6178TIP3   OH240168   1.827   3.666   3.133 -0.1070 -0.7552 -0.3262
 6178TIP3    H140169   1.921   3.670   3.112  0.1066  0.5944  0.7147
 6178TIP3    H240170   1.822   3.602   3.204  0.2348  0.0422  0.4446
 6179TIP3   OH240171   5.649   4.012   1.587 -0.4464  0.3168  0.4647
 6179TIP3    H140172   5.701   3.938   1.621 -0.7168 -0.0641  0.0641
 6179TIP3    H240173   5.603   3.976   1.511  0.0418  1.1216 -0.2304
 6180TIP3   OH240174   1.341   6.491   3.000 -0.0289 -0.0614  0.6207
 6180TIP3    H140175   1.247   6.476   2.987  0.4203 -3.0247 -0.0301
 6180TIP3    H240176   1.365   6.552   2.930 -1.1415 -0.8659 -0.5147
 6181TIP3   OH240177   6.886   3.771   2.298 -0.2248 -0.4562  0.5979
 6181TIP3    H140178   6.926   3.686   2.317 -1.1524 -1.0065  0.1246
 6181TIP3    H240179   6.807   3.751   2.248  0.7236  0.8058 -1.5681
 6182TIP3   OH240180   3.094   6.827   1.431  0.2841  0.2663  0.0842
 6182TIP3    H140181   3.150   6.813   1.507 -1.2813 -1.5919  0.9656
 6182TIP3    H240182   3.048   6.909   1.450  1.0422  0.6360  0.3736
 6183TIP3   OH240183   6.147   3.950   8.424  0.0213  0.6351 -0.4051
 6183TIP3    H140184   6.242   3.949   8.430  0.0416 -1.3016 -0.3488
 6183TIP3    H240185   6.128   3.997   8.343  0.9896  1.3667 -0.2273
 6184TIP3   OH240186   4.761   1.772   1.196  0.1030 -0.0709  0.0607
 6184TIP3    H140187   4.789   1.822   1.272  0.9404  1.3052 -1.0949
 6184TIP3    H240188   4.752   1.682   1.227 -1.3983  0.7513  2.2084
 6185TIP3   OH240189   5.683   2.612   3.557 -0.2761 -0.2506 -0.0435
 6185TIP3    H140190   5.708   2.658   3.637  0.6989 -0.4375 -0.2328
 6185TIP3    H240191   5.698   2.519   3.576 -1.1593 -0.4031 -0.0480
 6186TIP3   OH240192   4.773   0.015   1.891 -0.4368  0.0030 -0.5676
 6186TIP3    H140193   4.737   0.058   1.969  1.6501  0.1755  0.3803
 6186TIP3    H240194   4.829  -0.054   1.926  1.1544  0.5702 -1.8716
 6187TIP3   OH240195   6.607   3.175   1.952  0.3348 -0.1637  0.0112
 6187TIP3    H140196   6.585   3.249   1.896  1.4094  0.7319  0.7101
 6187TIP3    H240197   6.701   3.162   1.938  0.5105 -0.2624  1.1861
 6188TIP3   OH240198   4.227   0.244   2.907 -0.8091 -0.3689 -0.9216
 6188TIP3    H140199   4.247   0.176   2.842  0.0955  0.1007 -1.1482
 6188TIP3    H240200   4.203   0.195   2.985  1.9382 -1.0644 -0.3886
 6189TIP3   OH240201   3.475   2.197   2.669 -0.2870 -0.2063 -0.0905
 6189TIP3    H140202   3.550   2.172   2.615  0.6304 -1.2354  1.5772
 6189TIP3    H240203   3.467   2.292   2.657  1.4998 -0.0112 -0.0868
 6190TIP3   OH240204   5.147   3.737   2.479  0.0405 -0.0505  0.3562
 6190TIP3    H140205   5.226   3.696   2.444  0.1734  0.0279  0.5634
 6190TIP3    H240206   5.075   3.700   2.427  0.0518 -1.3098  1.1890
 6191TIP3   OH240207   5.143   6.897   8.237 -0.1208  0.6322  0.1414
 6191TIP3    H140208   5.207   6.899   8.167 -0.9720 -0.2611 -0.6790
 6191TIP3    H240209   5.112   6.988   8.244  1.7590  1.2614  1.1013
 6192TIP3   OH240210   6.256   1.736   8.099  0.1765 -0.1711 -0.3244
 6192TIP3    H140211   6.316   1.755   8.171 -1.4855 -0.3184  1.1741
 6192TIP3    H240212   6.193   1.808   8.100 -1.0772 -1.2216 -0.2380
 6193TIP3   OH240213   5.286   1.377   1.301  0.2917  0.0040 -0.3123
 6193TIP3    H140214   5.222   1.430   1.349  0.5636 -0.1984  0.2871
 6193TIP3    H240215   5.357   1.438   1.282  0.5205 -0.0962  0.2105
 6194TIP3   OH240216   6.109   0.368   3.187 -0.0620 -0.2111  0.0952
 6194TIP3    H140217   6.163   0.332   3.258  2.5124  2.9275 -0.1174
 6194TIP3    H240218   6.026   0.390   3.231 -0.0230 -1.9287  1.1753
 6195TIP3   OH240219   2.458   2.651   0.306  0.2336 -0.1183  0.3796
 6195TIP3    H140220   2.473   2.559   0.283  0.7467  0.5273 -2.1544
 6195TIP3    H240221   2.531   2.698   0.267 -1.1746  1.6070 -0.3397
 6196TIP3   OH240222   5.465   6.643   1.278 -0.1314  0.0934  0.4379
 6196TIP3    H140223   5.419   6.673   1.356 -0.1802  0.2474  0.3518
 6196TIP3    H240224   5.528   6.713   1.259  0.5083 -0.3637  0.8647
 6197TIP3   OH240225   4.442   6.060   0.412  0.2808  0.4351 -0.0330
 6197TIP3    H140226   4.416   6.116   0.339 -1.9223  1.7254  1.6070
 6197TIP3    H240227   4.520   6.015   0.381  0.6736  2.5067 -2.3912
 6198TIP3   OH240228   2.386   6.344   3.137 -0.4019 -0.1238 -0.2866
 6198TIP3    H140229   2.433   6.315   3.215  2.7690  2.7635 -0.8855
 6198TIP3    H240230   2.349   6.429   3.161 -1.4391 -0.2610 -1.2743
 6199TIP3   OH240231   2.068   2.416   3.979  0.2893 -0.1456 -0.0671
 6199TIP3    H140232   2.015   2.378   3.910  2.1031 -0.6770 -1.2490
 6199TIP3    H240233   2.096   2.342   4.032  0.1799  0.0727  0.2993
 6200TIP3   OH240234   2.494   4.342   0.281  0.4384 -0.3622  0.0716
 6200TIP3    H140235   2.555   4.414   0.293  0.5318 -0.1682 -1.3259
 6200TIP3    H240236   2.498   4.323   0.187 -0.4942 -1.3751  0.2122
 6201TIP3   OH240237   4.303   2.309   0.666  0.3300  0.4250 -0.3882
 6201TIP3    H140238   4.232   2.328   0.606  0.5292  1.6705 -0.2733
 6201TIP3    H240239   4.377   2.361   0.634  0.6152  0.6527  0.5774
 6202TIP3   OH240240   2.684   6.586   1.135  0.0427 -0.2627 -0.5230
 6202TIP3    H140241   2.616   6.529   1.170 -0.6026  0.5950 -0.3393
 6202TIP3    H240242   2.646   6.674   1.139  0.8159  0.1239 -1.2713
 6203TIP3   OH240243   0.693   1.061   3.349  0.3178  0.3295  0.4390
 6203TIP3    H140244   0.738   1.143   3.329 -1.2772  1.7437  2.3134
 6203TIP3    H240245   0.686   1.017   3.264  0.5867  2.4450 -0.7534
 6204TIP3   OH240246   2.853   1.962   1.323  0.4714 -0.0751  0.1934
 6204TIP3    H140247   2.841   1.963   1.229 -2.4199 -0.2526  0.4847
 6204TIP3    H240248   2.946   1.985   1.336  0.4036  2.3443 -2.5717
 6205TIP3   OH240249   2.701   1.810   2.291  0.0523  0.0539  0.3294
 6205TIP3    H140250   2.749   1.793   2.210 -1.0337 -1.1603 -0.0910
 6205TIP3    H240251   2.657   1.894   2.276  0.1146 -0.0075 -0.2021
 6206TIP3   OH240252   5.811   0.535   0.461 -0.2841 -0.3405  1.3567
 6206TIP3    H140253   5.868   0.460   0.445 -0.7849 -0.7829  1.6330
 6206TIP3    H240254   5.744   0.529   0.393  0.7580  0.9749  0.1337
 6207TIP3   OH240255   1.867   6.619   0.112 -0.3100 -0.0045  0.3484
 6207TIP3    H140256   1.891   6.527   0.126 -0.4816 -0.3849 -1.5943
 6207TIP3    H240257   1.772   6.618   0.105 -0.3840  0.4726  1.2094
 6208TIP3   OH240258   6.318   3.099   0.886 -0.1751 -0.5282  0.2531
 6208TIP3    H140259   6.287   3.187   0.869  2.1437  0.9916  2.9591
 6208TIP3    H240260   6.264   3.068   0.959  1.3201  0.2040  1.7399
 6209TIP3   OH240261   4.137   4.883   1.929  0.5031 -0.7449 -0.2513
 6209TIP3    H140262   4.094   4.800   1.950  2.0909 -1.5179  0.0995
 6209TIP3    H240263   4.145   4.929   2.013  1.0541 -0.9688 -0.1728
 6210TIP3   OH240264   4.639   0.204   1.651  0.2786 -0.2779  0.2231
 6210TIP3    H140265   4.728   0.227   1.679  0.5359 -0.8624 -0.0899
 6210TIP3    H240266   4.583   0.269   1.693  0.9886  1.0998 -0.8774
 6211TIP3   OH240267   5.986   1.244   1.048 -0.0201  0.1625 -0.7383
 6211TIP3    H140268   5.894   1.225   1.063  0.0940 -0.1988 -0.4526
 6211TIP3    H240269   6.032   1.184   1.107  0.3742  1.0966 -0.0655
 6212TIP3   OH240270   2.617   2.750   8.505  0.0269  0.4409  0.4957
 6212TIP3    H140271   2.680   2.801   8.454 -0.0687 -0.4248 -0.5242
 6212TIP3    H240272   2.658   2.664   8.514 -0.2507  0.3922  1.3271
 6213TIP3   OH240273   2.084   1.304   2.987  0.0118 -0.8759  0.6991
 6213TIP3    H140274   2.001   1.351   2.981  0.3117 -0.2789  1.0549
 6213TIP3    H240275   2.102   1.299   3.081  1.2053  0.5170  0.5846
 6214TIP3   OH240276   6.364   3.568   2.777  0.1565 -0.0701  0.2465
 6214TIP3    H140277   6.299   3.499   2.783  0.8967 -1.1151 -2.2096
 6214TIP3    H240278   6.426   3.537   2.711  0.7543  2.7567 -0.6834
 6215TIP3   OH240279   4.309   0.959   1.186  0.5220  0.0424  0.0417
 6215TIP3    H140280   4.214   0.958   1.179  0.5939  0.0918 -1.1220
 6215TIP3    H240281   4.327   1.001   1.270 -0.4586  1.1206 -0.2711
 6216TIP3   OH240282   4.603   6.591   8.280 -0.4131  0.4083  0.8181
 6216TIP3    H140283   4.526   6.541   8.253  0.2447 -0.0217 -0.3359
 6216TIP3    H240284   4.596   6.674   8.233 -0.0809  0.2839  0.5382
 6217TIP3   OH240285   0.696   0.022   2.673 -0.3588 -0.4527  0.1252
 6217TIP3    H140286   0.624   0.041   2.612 -0.2203 -0.5103 -0.0540
 6217TIP3    H240287   0.775   0.050   2.627 -0.1715 -1.2824 -0.0622
 6218TIP3   OH240288   6.106   0.395   1.265 -0.1291 -0.2249 -0.5730
 6218TIP3    H140289   6.069   0.483   1.276 -2.4612 -1.0522 -1.2356
 6218TIP3    H240290   6.105   0.380   1.171 -4.0526 -2.5244 -0.3887
 6219TIP3   OH240291   6.295   6.105   3.776  0.1256  0.2066  0.0709
 6219TIP3    H140292   6.201   6.092   3.790  0.3922  0.0269  1.8259
 6219TIP3    H240293   6.303   6.198   3.756 -0.6091 -0.1333 -2.1404
 6220TIP3   OH240294   6.263   6.157   2.015  0.1474  0.2682 -0.2362
 6220TIP3    H140295   6.351   6.118   2.020  0.4049  0.8792  0.0610
 6220TIP3    H240296   6.214   6.114   2.086  0.9086  1.6411  1.1825
 6221TIP3   OH240297   1.441   3.227   1.403  0.0054  0.1364 -0.3404
 6221TIP3    H140298   1.349   3.237   1.425 -0.4079 -0.5722 -1.6627
 6221TIP3    H240299   1.465   3.309   1.361 -0.0368  0.3080 -0.0264
 6222TIP3   OH240300   4.774   0.245   3.732 -0.2663 -0.2149 -0.8389
 6222TIP3    H140301   4.846   0.251   3.794  1.6928 -0.3664 -2.9902
 6222TIP3    H240302   4.735   0.159   3.749 -0.5326  0.2220  0.9064
 6223TIP3   OH240303   0.304   1.411   1.895  0.0003 -0.5279 -0.1465
 6223TIP3    H140304   0.255   1.477   1.847  0.1446 -0.4667 -0.2107
 6223TIP3    H240305   0.394   1.444   1.897 -0.3260  0.3835  1.7599
 6224TIP3   OH240306   4.554   0.892   2.186 -0.0575 -0.2179  0.5154
 6224TIP3    H140307   4.621   0.900   2.118 -1.9328 -1.6656 -1.6701
 6224TIP3    H240308   4.598   0.847   2.258  1.6462  0.1037 -0.2773
 6225TIP3   OH240309   4.136   0.219   1.736 -0.0563 -0.2600 -0.0416
 6225TIP3    H140310   4.117   0.301   1.783 -0.1195 -0.4973  0.3476
 6225TIP3    H240311   4.206   0.178   1.787  1.9943  0.8668 -1.7654
 6226TIP3   OH240312   3.587   1.460   4.173  0.0284 -0.0848 -0.1935
 6226TIP3    H140313   3.586   1.467   4.077 -1.1892  0.5584 -0.1537
 6226TIP3    H240314   3.623   1.373   4.190  0.5101 -0.1043 -1.2278
 6227TIP3   OH240315   2.518   2.787   4.271 -0.2184  0.2425  0.1227
 6227TIP3    H140316   2.606   2.815   4.246 -0.2192 -0.2374 -0.4223
 6227TIP3    H240317   2.483   2.744   4.193 -1.0739  0.7426  0.2178
 6228TIP3   OH240318   4.978   1.091   2.822 -0.3205 -0.1973  0.0583
 6228TIP3    H140319   4.990   1.186   2.817 -0.6861 -0.0097  1.9564
 6228TIP3    H240320   5.056   1.054   2.782  1.6575  0.9566  2.5688
 6229TIP3   OH240321   1.345   2.935   8.414  0.0109  0.4031  0.1481
 6229TIP3    H140322   1.416   2.975   8.464  3.3935 -3.4276 -1.0612
 6229TIP3    H240323   1.303   2.875   8.475 -1.1833  1.4114  0.3736
 6230TIP3   OH240324   0.762   4.521   2.830 -0.4138  0.0154 -0.2169
 6230TIP3    H140325   0.780   4.611   2.805 -0.3521  0.1301  0.2305
 6230TIP3    H240326   0.791   4.515   2.921 -0.4435 -0.4470 -0.2335
 6231TIP3   OH240327   0.905   3.722   2.041 -0.3554 -0.6313 -0.0460
 6231TIP3    H140328   0.843   3.724   1.968  0.9457  1.3392 -1.1859
 6231TIP3    H240329   0.896   3.808   2.082  0.3050 -1.0116  0.9245
 6232TIP3   OH240330   5.182   3.925   2.695 -0.1189 -0.2554  0.7244
 6232TIP3    H140331   5.089   3.910   2.711 -0.3280 -1.1282 -1.0489
 6232TIP3    H240332   5.201   3.876   2.615  1.7354  0.3831  0.7188
 6233TIP3   OH240333   2.566   2.338   3.005  0.2962 -0.2182  0.5815
 6233TIP3    H140334   2.544   2.254   2.965 -0.1654  0.1379  0.0808
 6233TIP3    H240335   2.516   2.340   3.086 -0.4236 -0.0215  0.1346
 6234TIP3   OH240336   5.850   1.155   8.239  0.4534 -0.2606 -0.0149
 6234TIP3    H140337   5.917   1.089   8.253  2.1399  1.0106 -1.6744
 6234TIP3    H240338   5.897   1.232   8.207 -1.5418  1.4594  0.9397
 6235TIP3   OH240339   0.701   6.120   2.261  0.2266 -0.0774  0.2171
 6235TIP3    H140340   0.702   6.030   2.229 -0.1435  0.1770 -0.5274
 6235TIP3    H240341   0.643   6.118   2.337 -0.9629 -0.1860 -0.6693
 6236TIP3   OH240342   4.193   0.217   0.600  0.0730  0.4196  0.4792
 6236TIP3    H140343   4.111   0.210   0.649 -2.3689  0.6024 -3.2526
 6236TIP3    H240344   4.216   0.310   0.605 -0.0863  0.4315  1.2112
 6237TIP3   OH240345   1.519   2.761   2.921 -0.2359  0.0910 -0.1039
 6237TIP3    H140346   1.564   2.740   3.003 -0.1988  0.5660 -0.0013
 6237TIP3    H240347   1.584   2.743   2.853 -0.1226  0.1142 -0.0024
 6238TIP3   OH240348   4.961   3.378   1.920  0.1890  0.2849  0.0541
 6238TIP3    H140349   4.937   3.321   1.847  2.5213  0.9892 -1.3891
 6238TIP3    H240350   4.895   3.447   1.920 -2.2720 -1.9249  1.3947
 6239TIP3   OH240351   1.196   1.098   3.355  0.0437  0.3079 -0.0378
 6239TIP3    H140352   1.278   1.079   3.310 -0.4000  1.5208 -1.4392
 6239TIP3    H240353   1.222   1.143   3.435  0.8101 -1.0215  0.4731
 6240TIP3   OH240354   6.714   6.595   1.363  0.5798  0.1666  0.2184
 6240TIP3    H140355   6.716   6.501   1.350 -0.6205 -0.2757  2.5297
 6240TIP3    H240356   6.620   6.617   1.363  0.8574  1.5309 -1.0909
 6241TIP3   OH240357   0.994   5.683   2.277  0.4589  0.1892  0.4140
 6241TIP3    H140358   0.997   5.739   2.355  1.4507  0.8000 -0.0345
 6241TIP3    H240359   1.074   5.706   2.229 -0.1025 -0.2214 -0.7461
 6242TIP3   OH240360   2.889   2.087   2.890  0.4413  0.1316 -0.0804
 6242TIP3    H140361   2.861   1.995   2.889  1.5477 -0.2355  0.4838
 6242TIP3    H240362   2.960   2.089   2.955  1.4319  1.0900 -1.1647
 6243TIP3   OH240363   1.059   2.427   1.648  0.3806  0.2694 -0.3643
 6243TIP3    H140364   1.069   2.473   1.732 -0.1827 -0.9806  0.4129
 6243TIP3    H240365   1.136   2.453   1.597 -0.0884  2.3357 -0.1077
 6244TIP3   OH240366   4.815   6.368   2.337 -0.1034  0.1695  0.4289
 6244TIP3    H140367   4.766   6.346   2.258  1.0546 -0.4387 -0.1459
 6244TIP3    H240368   4.845   6.457   2.323 -1.2611  0.6576  0.9166
 6245TIP3   OH240369   5.278   4.875   3.729 -0.4984 -0.3978  0.9133
 6245TIP3    H140370   5.255   4.967   3.712 -0.6239 -0.3296  1.4299
 6245TIP3    H240371   5.248   4.828   3.651 -3.2578 -0.4452  1.8894
 6246TIP3   OH240372   2.511   4.753   0.939  0.1517 -1.3002 -0.1818
 6246TIP3    H140373   2.544   4.843   0.941  0.9533 -1.5908  0.0626
 6246TIP3    H240374   2.420   4.761   0.909 -1.1261 -0.0457  3.4848
 6247TIP3   OH240375   1.382   4.265   0.084  0.2210  0.2155  0.3789
 6247TIP3    H140376   1.366   4.284  -0.008 -0.7859 -1.9487  0.0446
 6247TIP3    H240377   1.297   4.277   0.127  0.3637 -0.0885  0.7636
 6248TIP3   OH240378   1.542   5.399   1.926 -0.8040  0.0399 -0.4770
 6248TIP3    H140379   1.600   5.361   1.992 -0.3985 -0.0107 -0.8549
 6248TIP3    H240380   1.454   5.387   1.961 -0.5810  0.1730  0.1347
 6249TIP3   OH240381   3.146   4.147   1.689  0.3467 -0.2284  0.5794
 6249TIP3    H140382   3.136   4.051   1.691 -1.3513 -0.0843  2.6874
 6249TIP3    H240383   3.208   4.166   1.759  1.2272  0.2039 -0.2958
 6250TIP3   OH240384   0.588   3.155   0.499  0.1113 -0.6579 -0.0784
 6250TIP3    H140385   0.556   3.156   0.589  0.0247 -0.7064 -0.1085
 6250TIP3    H240386   0.649   3.082   0.496  0.0523 -0.7071 -0.0802
 6251TIP3   OH240387   5.249   3.159   0.841  0.7372  0.1724 -0.3586
 6251TIP3    H140388   5.339   3.188   0.858  1.1110 -0.2906 -1.4462
 6251TIP3    H240389   5.200   3.240   0.830  1.0493  0.4273  0.0467
 6252TIP3   OH240390   6.309   6.504   8.282 -0.2919  0.1524  0.3262
 6252TIP3    H140391   6.391   6.538   8.247  0.1233 -0.9237  0.1898
 6252TIP3    H240392   6.287   6.431   8.223 -0.5771 -0.4806  1.1943
 6253TIP3   OH240393   2.519   0.606   3.619 -0.2683  0.1112  0.3325
 6253TIP3    H140394   2.536   0.639   3.707 -1.3986 -0.0812  0.6461
 6253TIP3    H240395   2.587   0.645   3.565  0.3336  0.3779  1.2614
 6254TIP3   OH240396   5.021   2.274   0.696  0.2602  0.5060  0.2934
 6254TIP3    H140397   5.047   2.246   0.784  0.9333  0.7279  0.1736
 6254TIP3    H240398   5.064   2.211   0.638 -1.2037 -0.4205  0.1454
 6255TIP3   OH240399   1.426   3.479   1.293  0.2748 -0.4816  0.4571
 6255TIP3    H140400   1.410   3.567   1.258 -1.3609 -0.0497  2.0938
 6255TIP3    H240401   1.503   3.489   1.349 -0.6101  0.2474  1.5970
 6256TIP3   OH240402   0.962   1.062   3.033 -0.0821  0.0886  0.7143
 6256TIP3    H140403   0.977   0.971   3.010 -1.4180 -0.1771  0.8030
 6256TIP3    H240404   0.939   1.104   2.950 -1.4735 -0.1211  0.9605
 6257TIP3   OH240405   3.768   1.769   0.986  0.4821  0.0871  0.2804
 6257TIP3    H140406   3.818   1.849   1.001 -1.7203  1.3096  1.4137
 6257TIP3    H240407   3.747   1.737   1.073 -3.6505  1.6019  0.0464
 6258TIP3   OH240408   4.290   0.681   0.811 -0.7425  0.2502  0.3561
 6258TIP3    H140409   4.298   0.640   0.898  0.6276 -0.8057 -0.2431
 6258TIP3    H240410   4.350   0.632   0.756 -0.9338  1.5001 -1.0002
 6259TIP3   OH240411   1.807   2.502   1.793 -0.1044 -0.0252 -0.6924
 6259TIP3    H140412   1.718   2.488   1.825  0.0428  0.5475 -0.0245
 6259TIP3    H240413   1.858   2.431   1.831 -0.4379 -0.9030 -1.8212
 6260TIP3   OH240414   5.750   0.583   2.499 -0.0160 -0.5422  0.2082
 6260TIP3    H140415   5.715   0.640   2.568 -0.5145 -0.4100 -0.1512
 6260TIP3    H240416   5.838   0.618   2.481 -0.3083  0.1001  0.0042
 6261TIP3   OH240417   2.709   0.410   0.537  0.7229  0.2223  0.2127
 6261TIP3    H140418   2.634   0.368   0.579  0.2277  0.0289 -0.8263
 6261TIP3    H240419   2.678   0.498   0.515  0.3320 -0.2696 -1.3688
 6262TIP3   OH240420   1.699   4.698   2.696  0.4561 -0.1734 -0.4442
 6262TIP3    H140421   1.692   4.703   2.791 -2.2538  0.2166 -0.5936
 6262TIP3    H240422   1.762   4.766   2.674 -1.0193  1.7747  0.9405
 6263TIP3   OH240423   4.746   3.563   1.858 -0.0512  0.3504  0.3521
 6263TIP3    H140424   4.660   3.537   1.826  0.3152  0.6994 -0.9983
 6263TIP3    H240425   4.737   3.657   1.876 -0.0171  0.3419  0.4117
 6264TIP3   OH240426   0.420   5.742   2.108 -0.4303  0.4927 -0.6855
 6264TIP3    H140427   0.382   5.671   2.056  0.9550 -0.5662 -0.3329
 6264TIP3    H240428   0.440   5.811   2.045 -0.6188  0.0452 -1.2389
 6265TIP3   OH240429   5.235   1.557   3.134  0.6619  0.1170  0.3277
 6265TIP3    H140430   5.157   1.590   3.089  1.1354 -0.9097 -1.3415
 6265TIP3    H240431   5.220   1.575   3.226 -0.9535  1.1297 -0.1103
 6266TIP3   OH240432   2.384   2.265   3.547 -0.2820  0.1027  0.4050
 6266TIP3    H140433   2.476   2.253   3.526 -0.2093  0.7302  0.3381
 6266TIP3    H240434   2.385   2.321   3.625 -0.6183  2.0362 -0.8918
 6267TIP3   OH240435   0.572   4.403   0.273  0.1240  0.6125 -0.1543
 6267TIP3    H140436   0.618   4.452   0.205  0.2774 -0.2946 -0.7163
 6267TIP3    H240437   0.551   4.319   0.232  0.1629  0.0723  0.8998
 6268TIP3   OH240438   5.207   6.763   1.110 -0.2240  0.3298  0.0026
 6268TIP3    H140439   5.196   6.669   1.094  1.0741  0.2534 -0.5642
 6268TIP3    H240440   5.151   6.805   1.045  1.8868 -0.0417 -2.2310
 6269TIP3   OH240441   6.452   2.666   1.384  0.0555 -0.0461 -0.0509
 6269TIP3    H140442   6.460   2.723   1.461 -2.5530  0.3199  0.0350
 6269TIP3    H240443   6.369   2.621   1.396 -0.1531 -0.4084 -2.3936
 6270TIP3   OH240444   4.997   3.412   0.191  0.5281  0.6520 -0.4039
 6270TIP3    H140445   4.946   3.429   0.269  0.9751 -0.4308  0.1383
 6270TIP3    H240446   4.932   3.397   0.122  0.0758 -1.2411  0.3848
 6271TIP3   OH240447   1.247   4.869   1.550 -0.5561 -0.0247 -0.6534
 6271TIP3    H140448   1.222   4.783   1.516  1.8860 -0.6974 -0.9383
 6271TIP3    H240449   1.218   4.931   1.482 -1.5157 -0.6837 -0.8674
 6272TIP3   OH240450   1.877   4.608   1.023  0.2610  0.0137  0.0660
 6272TIP3    H140451   1.879   4.583   1.116  1.2528 -0.5109 -0.0902
 6272TIP3    H240452   1.820   4.685   1.021 -0.6847 -0.6223  0.9452
 6273TIP3   OH240453   2.361   2.445   8.149 -0.1678 -0.1157  0.0756
 6273TIP3    H140454   2.404   2.497   8.081  0.3104  0.2261  0.6333
 6273TIP3    H240455   2.428   2.431   8.215 -0.7825  0.0216  0.7446
 6274TIP3   OH240456   4.625   0.624   8.493 -0.0334  0.3250  0.0803
 6274TIP3    H140457   4.634   0.649   8.585  0.6005  1.9214 -0.3906
 6274TIP3    H240458   4.534   0.647   8.471  0.1770  1.0974 -0.0099
 6275TIP3   OH240459   2.618   3.707   0.919  0.0741 -0.1733  0.0074
 6275TIP3    H140460   2.688   3.654   0.882  0.3865 -0.0956  0.4787
 6275TIP3    H240461   2.544   3.646   0.930  0.0779 -0.2635 -0.4488
 6276TIP3   OH240462   3.914   6.683   3.474  0.3304 -0.1031 -0.9176
 6276TIP3    H140463   3.858   6.747   3.517 -0.1386 -0.4954 -0.9346
 6276TIP3    H240464   3.853   6.625   3.428  0.6611 -1.2692  0.0613
 6277TIP3   OH240465   1.672   4.333   0.224 -0.3905 -0.5989  0.3764
 6277TIP3    H140466   1.759   4.372   0.235  0.4388 -1.8850 -1.2323
 6277TIP3    H240467   1.612   4.408   0.224  0.9499  0.5435 -0.7522
 6278TIP3   OH240468   2.221   2.450   0.729 -0.0385  0.0886  0.7120
 6278TIP3    H140469   2.139   2.499   0.726  0.2189  0.4687 -0.8820
 6278TIP3    H240470   2.284   2.506   0.684  0.2991 -1.5978 -1.0745
 6279TIP3   OH240471   3.819   2.666   2.221  0.3921  0.1294  0.7273
 6279TIP3    H140472   3.790   2.749   2.182  0.6697 -0.3335 -0.5003
 6279TIP3    H240473   3.829   2.686   2.314  0.6097  1.5161  0.4295
 6280TIP3   OH240474   5.575   3.671   2.434 -0.5267  0.2712 -0.3071
 6280TIP3    H140475   5.507   3.605   2.423 -0.1366 -0.1887 -0.0325
 6280TIP3    H240476   5.636   3.632   2.497 -0.0455  0.6965 -0.4995
 6281TIP3   OH240477   3.229   0.043   3.999 -0.3547  0.6927 -0.5747
 6281TIP3    H140478   3.208   0.072   4.088  0.3237  0.0147 -0.1825
 6281TIP3    H240479   3.249   0.124   3.952  2.4259  0.8643  0.7404
 6282TIP3   OH240480   0.689   4.835   2.554 -0.0732 -0.8567  0.1789
 6282TIP3    H140481   0.629   4.899   2.515  0.5891  0.3045  1.0364
 6282TIP3    H240482   0.634   4.785   2.614 -0.9625 -2.2343 -1.6598
 6283TIP3   OH240483   1.924   5.493   3.109 -0.6439  0.7947 -0.0663
 6283TIP3    H140484   1.929   5.517   3.202 -0.9819  2.3742 -0.4244
 6283TIP3    H240485   1.868   5.415   3.108  0.5890 -0.1606  1.1802
 6284TIP3   OH240486   6.427   4.257   0.872  0.0334  0.2760 -0.5388
 6284TIP3    H140487   6.466   4.269   0.959  0.3193  0.8945 -0.7458
 6284TIP3    H240488   6.407   4.346   0.843 -0.3981  0.0440 -0.9551
 6285TIP3   OH240489   5.049   1.781   1.648 -0.2217 -0.0383  0.2486
 6285TIP3    H140490   5.127   1.778   1.704 -0.1709  2.1310  0.3757
 6285TIP3    H240491   5.081   1.759   1.561  0.5381  0.7190  0.3196
 6286TIP3   OH240492   1.351   6.582   1.463  0.3082 -0.5229 -0.4135
 6286TIP3    H140493   1.369   6.572   1.557  0.1044 -0.4099 -0.3615
 6286TIP3    H240494   1.298   6.662   1.457  0.6792 -0.2939 -0.6694
 6287TIP3   OH240495   2.605   6.422   1.509  0.4017 -0.0305  0.1594
 6287TIP3    H140496   2.680   6.448   1.562 -0.3198  1.7995  0.3650
 6287TIP3    H240497   2.610   6.477   1.431 -1.4149  1.1424  0.7876
 6288TIP3   OH240498   1.446   5.357   8.245 -0.2266 -0.4498 -0.5718
 6288TIP3    H140499   1.538   5.331   8.247  0.9322  2.9561 -2.2673
 6288TIP3    H240500   1.441   5.422   8.175 -3.2298  1.8381  1.5220
 6289TIP3   OH240501   0.263   6.856   8.480  0.0827 -0.0723 -0.3561
 6289TIP3    H140502   0.330   6.924   8.483 -1.6663  1.7390 -0.4504
 6289TIP3    H240503   0.210   6.877   8.404 -1.3222 -0.7247  0.4020
 6290TIP3   OH240504   3.563   6.832   1.197 -0.1446 -0.6339  0.6845
 6290TIP3    H140505   3.652   6.797   1.194  0.4490  0.7509 -2.3020
 6290TIP3    H240506   3.566   6.900   1.264  0.1552 -2.5658  2.7151
 6291TIP3   OH240507   3.955   4.915   8.222 -1.0172 -0.4774  0.4189
 6291TIP3    H140508   4.036   4.865   8.217 -1.1914 -0.6790 -2.8388
 6291TIP3    H240509   3.971   4.991   8.165 -1.6468  1.9118  3.2032
 6292TIP3   OH240510   1.576   1.651   0.480 -0.1522  0.6286  0.4759
 6292TIP3    H140511   1.549   1.571   0.434  0.2171  0.3869  0.6752
 6292TIP3    H240512   1.612   1.620   0.563  0.9156  0.9240  0.1411
 6293TIP3   OH240513   6.002   4.466   1.358 -0.0162  0.5682 -0.3131
 6293TIP3    H140514   5.980   4.392   1.302  0.4044 -0.5766  0.9843
 6293TIP3    H240515   5.924   4.481   1.411  0.5480 -0.2580  0.7981
 6294TIP3   OH240516   1.824   1.486   3.460 -0.0068  0.6151 -0.1901
 6294TIP3    H140517   1.849   1.476   3.552 -0.3646  1.0833 -0.0341
 6294TIP3    H240518   1.734   1.519   3.464 -0.3364 -0.2064 -0.7240
 6295TIP3   OH240519   0.733   2.540   2.492  0.1925  0.0015  0.0774
 6295TIP3    H140520   0.703   2.479   2.424 -1.5606  2.5404 -1.5819
 6295TIP3    H240521   0.778   2.484   2.555 -1.1944 -2.9933 -1.3663
 6296TIP3   OH240522   4.103   4.171   3.012 -0.0392 -0.2953  0.5000
 6296TIP3    H140523   4.156   4.092   3.025  0.1784 -0.2457 -0.0655
 6296TIP3    H240524   4.098   4.211   3.099  1.0235 -0.1827  0.5105
 6297TIP3   OH240525   4.012   3.983   2.670  0.0722  0.1501 -0.1251
 6297TIP3    H140526   4.063   4.038   2.611 -0.5895 -0.6849 -1.5219
 6297TIP3    H240527   4.066   3.977   2.749  1.9675 -0.3417 -1.3717
 6298TIP3   OH240528   4.627   2.607   2.386  0.9007 -0.4061  0.2498
 6298TIP3    H140529   4.560   2.588   2.453 -1.1346  3.5016 -0.3826
 6298TIP3    H240530   4.699   2.647   2.435  0.0088  1.1545  0.3591
 6299TIP3   OH240531   6.084   4.216   3.549 -0.0203 -0.5327 -0.2976
 6299TIP3    H140532   6.160   4.170   3.514  1.8761  1.4620  0.8891
 6299TIP3    H240533   6.057   4.164   3.625  1.5441 -0.2338  0.5155
 6300TIP3   OH240534   6.684   2.561   0.891  0.1136  0.1586  0.6382
 6300TIP3    H140535   6.653   2.484   0.843  0.0011  1.0976 -0.8758
 6300TIP3    H240536   6.618   2.575   0.959 -0.4123 -0.4774  0.2702
 6301TIP3   OH240537   6.802   2.367   2.753 -0.1326  0.4311  0.4022
 6301TIP3    H140538   6.868   2.319   2.803  0.2326 -0.5241 -0.9294
 6301TIP3    H240539   6.844   2.384   2.669 -1.1634  0.8777 -0.0411
 6302TIP3   OH240540   1.736   0.987   3.048 -0.2594 -0.0484 -0.0467
 6302TIP3    H140541   1.712   1.078   3.062  2.7355  0.9127 -0.2835
 6302TIP3    H240542   1.683   0.959   2.974 -0.3134  1.9736 -0.8398
 6303TIP3   OH240543   1.854   5.870   2.270  0.2154 -0.4203  0.0261
 6303TIP3    H140544   1.877   5.930   2.340  0.5577 -2.1176  1.4300
 6303TIP3    H240545   1.840   5.926   2.194 -0.4372  1.5043  1.4925
 6304TIP3   OH240546   5.040   2.256   7.982 -0.3365 -0.3330  0.8231
 6304TIP3    H140547   4.950   2.282   8.003 -0.2058  1.2905 -0.4091
 6304TIP3    H240548   5.094   2.324   8.022  0.3875 -1.4412  1.7760
 6305TIP3   OH240549   3.978   1.799   1.572  0.0436  0.0561  1.1417
 6305TIP3    H140550   4.018   1.712   1.581 -2.0096 -1.0302  0.2500
 6305TIP3    H240551   3.998   1.826   1.483  0.0990  0.2104  1.1997
 6306TIP3   OH240552   5.200   1.851   0.926 -0.5797  0.1958 -0.0640
 6306TIP3    H140553   5.145   1.828   0.851  0.4943 -0.3620 -0.6889
 6306TIP3    H240554   5.282   1.882   0.888  0.4645 -1.2994  0.8773
 6307TIP3   OH240555   2.224   1.861   3.223  0.3847  0.1116 -0.3844
 6307TIP3    H140556   2.235   1.950   3.258 -1.8352  0.2155  0.2076
 6307TIP3    H240557   2.278   1.806   3.280 -0.7979  0.6897  1.4100
 6308TIP3   OH240558   3.238   0.536   2.187 -0.5201 -0.5160 -0.6909
 6308TIP3    H140559   3.316   0.591   2.176  0.8369 -2.1508  0.3614
 6308TIP3    H240560   3.171   0.580   2.135  0.5834  1.9335 -0.2079
 6309TIP3   OH240561   3.124   5.507   3.930 -0.1973 -0.1170  0.1894
 6309TIP3    H140562   3.200   5.548   3.972 -0.0713  0.7869 -0.8822
 6309TIP3    H240563   3.049   5.557   3.960 -0.0421  0.9784 -1.1283
 6310TIP3   OH240564   6.319   1.134   1.480 -0.9977 -0.1606  0.1175
 6310TIP3    H140565   6.329   1.055   1.427 -0.0295 -0.8776  1.3193
 6310TIP3    H240566   6.330   1.206   1.418 -0.1494 -0.9732 -0.7088
 6311TIP3   OH240567   5.961   6.210   3.269 -0.3264  0.2349 -0.1198
 6311TIP3    H140568   5.951   6.240   3.360  1.9811 -0.1541  0.3336
 6311TIP3    H240569   5.972   6.290   3.218  1.0660  0.4139  0.3930
 6312TIP3   OH240570   0.324   0.588   1.824 -0.0586 -0.0704  0.3829
 6312TIP3    H140571   0.362   0.648   1.888  1.0112  0.8583 -1.0561
 6312TIP3    H240572   0.399   0.543   1.786 -0.5350  0.2993 -1.0622
 6313TIP3   OH240573   6.168   4.153   1.481  0.5318 -0.6559  0.7302
 6313TIP3    H140574   6.179   4.101   1.561 -0.6872  0.0646  1.3869
 6313TIP3    H240575   6.151   4.242   1.513 -2.6498 -0.8254 -0.2348
 6314TIP3   OH240576   1.179   1.918   2.934  0.0021 -0.0433 -0.6120
 6314TIP3    H140577   1.203   1.935   3.025 -0.6292 -1.0404 -0.2326
 6314TIP3    H240578   1.246   1.858   2.902 -0.5693 -0.8675 -0.3204
 6315TIP3   OH240579   5.829   3.955   1.805 -0.6420 -0.6251  0.5333
 6315TIP3    H140580   5.782   3.955   1.888 -0.4837  2.0856  0.7141
 6315TIP3    H240581   5.826   4.046   1.776  4.4175 -0.1570  0.5780
 6316TIP3   OH240582   3.626   0.269   8.559 -0.2874  0.0615  0.0900
 6316TIP3    H140583   3.553   0.329   8.546 -1.3946 -1.2535 -0.0533
 6316TIP3    H240584   3.680   0.279   8.481 -1.2328 -0.1469 -0.6072
 6317TIP3   OH240585   0.485   6.111   0.153  0.3317 -0.2750  0.4258
 6317TIP3    H140586   0.453   6.136   0.240 -1.0658 -0.5954  0.0108
 6317TIP3    H240587   0.483   6.016   0.153  3.1633 -0.4297  1.0577
 6318TIP3   OH240588   6.174   6.253   1.705 -0.6817 -0.5776  0.2380
 6318TIP3    H140589   6.170   6.203   1.787 -0.3205  1.5799  1.6345
 6318TIP3    H240590   6.102   6.315   1.711  1.0232  1.4833  0.2488
 6319TIP3   OH240591   0.687   2.485   0.734  0.5155  0.0650 -0.1027
 6319TIP3    H140592   0.674   2.562   0.679  0.4572  0.8875  1.0211
 6319TIP3    H240593   0.701   2.521   0.821 -0.8708 -1.2559  0.7059
 6320TIP3   OH240594   6.036   1.391   8.583 -0.7234 -0.5213  0.5953
 6320TIP3    H140595   6.059   1.299   8.572  0.3147 -0.3307  1.0432
 6320TIP3    H240596   5.977   1.393   8.659 -1.0809 -0.8525  0.3303
 6321TIP3   OH240597   6.597   6.077   1.051 -0.2177 -0.2130  0.5149
 6321TIP3    H140598   6.574   6.128   1.129  0.5149 -0.0173  0.6162
 6321TIP3    H240599   6.628   6.142   0.988  0.6348 -0.5066  0.6124
 6322TIP3   OH240600   6.091   1.666   8.512  0.0956 -1.4761 -0.1062
 6322TIP3    H140601   6.100   1.584   8.559 -1.8942 -1.7934 -0.1840
 6322TIP3    H240602   6.065   1.730   8.579 -0.4933 -1.4153 -0.3826
 6323TIP3   OH240603   6.742   3.277   1.443 -0.4870  0.6840  0.8927
 6323TIP3    H140604   6.696   3.347   1.398 -1.1990  0.0179  0.5620
 6323TIP3    H240605   6.803   3.242   1.377 -0.0500  1.0597  1.0923
 6324TIP3   OH240606   6.247   1.951   2.131 -0.5706 -0.5540  0.2231
 6324TIP3    H140607   6.316   1.962   2.196 -0.9305  0.0772  0.5058
 6324TIP3    H240608   6.242   1.856   2.117  1.6062 -0.5414 -1.1669
 6325TIP3   OH240609   2.554   6.279   3.362  0.0456  0.1611 -0.0611
 6325TIP3    H140610   2.599   6.295   3.445  0.6796 -1.0280 -0.1455
 6325TIP3    H240611   2.624   6.278   3.297 -0.4320  0.9490 -0.6030
 6326TIP3   OH240612   3.205   6.558   3.005 -0.3589  0.4092 -0.0661
 6326TIP3    H140613   3.244   6.472   3.020  2.0927  1.5030  0.3117
 6326TIP3    H240614   3.202   6.598   3.092 -0.0982  1.2355 -0.4268
 6327TIP3   OH240615   1.543   2.535   1.922  0.0436 -1.1345  0.2058
 6327TIP3    H140616   1.574   2.537   2.012 -0.3785 -0.9611  0.3511
 6327TIP3    H240617   1.533   2.627   1.898  2.1741 -1.0791 -0.7452
 6328TIP3   OH240618   5.419   1.053   3.278 -0.3780 -0.4687 -0.2418
 6328TIP3    H140619   5.511   1.069   3.299  0.3100 -1.1561 -2.5107
 6328TIP3    H240620   5.382   1.140   3.264  0.5076 -0.2586 -1.4591
 6329TIP3   OH240621   5.933   3.764   4.050  0.1946 -0.3367 -0.2873
 6329TIP3    H140622   5.978   3.747   3.967  0.8269  1.0715 -0.2771
 6329TIP3    H240623   5.990   3.727   4.117  1.4209  1.4047 -0.2775
 6330TIP3   OH240624   4.630   0.321   2.500 -0.0815  0.0015 -0.4629
 6330TIP3    H140625   4.575   0.331   2.578 -1.0055  0.3221 -1.1290
 6330TIP3    H240626   4.602   0.238   2.461 -0.1319  0.1928 -0.8386
 6331TIP3   OH240627   4.781   2.248   1.468  0.5585 -0.0943  0.0779
 6331TIP3    H140628   4.837   2.170   1.463 -0.0511 -0.4786 -0.8898
 6331TIP3    H240629   4.693   2.214   1.483  0.5850  0.5240  1.9709
 6332TIP3   OH240630   5.798   2.330   0.689 -0.1801  0.0662 -0.6116
 6332TIP3    H140631   5.780   2.290   0.774  0.8224 -0.7830 -0.7718
 6332TIP3    H240632   5.762   2.268   0.625  0.9286 -0.3582 -0.8478
 6333TIP3   OH240633   1.035   3.302   2.230 -0.0315  0.0528  0.4210
 6333TIP3    H140634   1.046   3.209   2.211 -2.1821 -0.3533  0.9369
 6333TIP3    H240635   1.059   3.311   2.322  0.0886  0.0062  0.3950
 6334TIP3   OH240636   0.716   0.548   1.148  0.1790  0.0898  0.4099
 6334TIP3    H140637   0.643   0.573   1.091 -0.6654 -1.7257  0.6477
 6334TIP3    H240638   0.729   0.624   1.205 -1.8325  0.2830  0.6712
 6335TIP3   OH240639   0.567   5.854   8.247  0.7170  0.4332  0.4308
 6335TIP3    H140640   0.657   5.821   8.252  0.9240  1.0626  0.9884
 6335TIP3    H240641   0.562   5.898   8.163  0.5446 -0.6941 -0.1676
 6336TIP3   OH240642   6.077   1.218   3.024 -0.3455 -0.0698 -0.3906
 6336TIP3    H140643   6.001   1.184   3.073 -0.5148 -2.6397 -2.1996
 6336TIP3    H240644   6.136   1.250   3.091 -1.6548 -1.0318  1.3189
 6337TIP3   OH240645   5.277   4.032   4.307 -0.5059 -0.1105  0.3799
 6337TIP3    H140646   5.206   4.008   4.367 -1.9893 -2.2538 -2.0018
 6337TIP3    H240647   5.240   4.103   4.254 -0.1619  0.0410  0.3426
 6338TIP3   OH240648   0.123   4.674   3.990 -0.3047 -0.1112  0.6151
 6338TIP3    H140649   0.080   4.759   3.998  1.2192  0.8490 -0.6857
 6338TIP3    H240650   0.187   4.673   4.061 -0.8176 -0.5107  1.0816
 6339TIP3   OH240651   4.635   0.352   8.436 -0.2749  0.1575 -0.3451
 6339TIP3    H140652   4.687   0.354   8.355  2.7389  0.3002  1.4292
 6339TIP3    H240653   4.609   0.444   8.449 -1.2613  0.0457 -1.3875
 6340TIP3   OH240654   6.370   4.778   1.673 -0.4055  0.0896 -0.2896
 6340TIP3    H140655   6.409   4.835   1.606  0.3580  0.3051  0.3149
 6340TIP3    H240656   6.417   4.801   1.753  0.2992 -1.7635 -0.1163
 6341TIP3   OH240657   4.037   5.804   2.157  0.0638 -0.1155  0.1995
 6341TIP3    H140658   4.064   5.735   2.217 -0.6649  0.7463  1.5871
 6341TIP3    H240659   3.975   5.762   2.098 -0.8906 -0.5271  1.4547
 6342TIP3   OH240660   0.421   2.518   1.327 -0.8836 -0.3454 -0.4919
 6342TIP3    H140661   0.425   2.461   1.250  0.3579 -0.3425 -0.4545
 6342TIP3    H240662   0.498   2.494   1.378  1.2282  3.1161 -1.7355
 6343TIP3   OH240663   1.782   2.433   0.279 -0.6101  1.0112  0.4012
 6343TIP3    H140664   1.835   2.512   0.288  2.1644 -0.7805  0.8933
 6343TIP3    H240665   1.788   2.410   0.186  1.0451 -0.1471  0.7588
 6344TIP3   OH240666   4.650   1.566   2.358  0.7013 -0.0205 -0.3034
 6344TIP3    H140667   4.567   1.520   2.372  1.9049 -2.1838  0.1992
 6344TIP3    H240668   4.716   1.509   2.399  2.2754  2.4542  0.8420
 6345TIP3   OH240669   6.468   1.660   7.914 -0.0982 -0.7358 -0.3482
 6345TIP3    H140670   6.395   1.702   7.960 -0.1451 -1.9023  0.6940
 6345TIP3    H240671   6.546   1.690   7.959 -0.0641 -0.9616 -0.2544
 6346TIP3   OH240672   0.053   0.508   2.416 -0.0125 -0.5351  0.0078
 6346TIP3    H140673   0.090   0.429   2.455 -0.2081 -0.0163  1.2987
 6346TIP3    H240674   0.080   0.505   2.324 -0.1051 -2.1393  0.0036
 6347TIP3   OH240675   1.847   6.635   2.151 -0.2662  0.0106  0.6450
 6347TIP3    H140676   1.939   6.658   2.170 -0.1177 -1.2187  1.5466
 6347TIP3    H240677   1.845   6.622   2.057  0.8758 -1.4465  0.7816
 6348TIP3   OH240678   2.858   6.659   2.548  0.2570  0.2143  0.2621
 6348TIP3    H140679   2.864   6.666   2.643 -0.9158  0.4304  0.3376
 6348TIP3    H240680   2.923   6.722   2.515 -0.4563  1.3344  0.9326
 6349TIP3   OH240681   2.857   3.981   1.929  0.7547  0.1718 -0.4943
 6349TIP3    H140682   2.828   4.047   1.992  0.2069 -1.7523  1.3919
 6349TIP3    H240683   2.822   3.899   1.963  3.1199 -1.4107 -1.6080
 6350TIP3   OH240684   2.895   5.345   3.901 -0.2526  0.1483  0.1957
 6350TIP3    H140685   2.989   5.337   3.917 -0.2415  1.5315  0.9590
 6350TIP3    H240686   2.871   5.430   3.938 -1.4681  0.6444 -1.5757
 6351TIP3   OH240687   5.017   5.573   0.357 -0.0680  0.0460  0.2114
 6351TIP3    H140688   4.991   5.639   0.421  0.5400  0.4907  0.0136
 6351TIP3    H240689   5.097   5.608   0.318  1.2746 -1.5601  1.3054
 6352TIP3   OH240690   0.172   5.107   2.145  0.0446 -0.3624  0.2930
 6352TIP3    H140691   0.148   5.021   2.111 -0.5637  0.9650 -2.9173
 6352TIP3    H240692   0.097   5.133   2.199  0.6951 -2.1918  2.2221
 6353TIP3   OH240693   4.009   3.674   2.600  0.1575 -0.1116  0.0825
 6353TIP3    H140694   4.005   3.762   2.639 -1.4101 -0.4669  0.7934
 6353TIP3    H240695   4.053   3.621   2.666 -1.5383 -0.4760  0.9775
 6354TIP3   OH240696   6.354   3.751   1.570  0.1273 -0.6887 -0.1476
 6354TIP3    H140697   6.367   3.762   1.476  1.7084 -1.4611 -0.0519
 6354TIP3    H240698   6.331   3.838   1.602  0.3723 -0.2584 -1.1334
 6355TIP3   OH240699   1.343   4.685   1.228 -0.4788  0.1774 -0.4372
 6355TIP3    H140700   1.330   4.655   1.318 -1.0747  0.2714 -0.4922
 6355TIP3    H240701   1.309   4.775   1.228 -0.8402  0.0408 -0.8509
 6356TIP3   OH240702   3.044   2.820   3.057  0.3090  0.4927  0.0137
 6356TIP3    H140703   3.132   2.834   3.091  0.5945  1.1999 -0.9597
 6356TIP3    H240704   3.030   2.726   3.066  1.3905  0.2782 -0.3293
 6357TIP3   OH240705   6.932   4.654   3.741  0.6057 -0.0224 -0.1217
 6357TIP3    H140706   6.965   4.659   3.830 -0.7191 -0.1200  0.3960
 6357TIP3    H240707   6.909   4.561   3.729 -2.5494  0.5488  0.7317
 6358TIP3   OH240708   2.936   4.700   3.288  0.0235  0.0441  0.1050
 6358TIP3    H140709   2.924   4.723   3.196  0.8502 -1.2420 -0.3470
 6358TIP3    H240710   2.856   4.730   3.331  0.3206  2.1957 -0.7025
 6359TIP3   OH240711   4.664   3.094   1.259 -0.1805 -0.2006 -0.3482
 6359TIP3    H140712   4.612   3.154   1.313 -0.0841  0.1021 -0.5929
 6359TIP3    H240713   4.633   3.007   1.284 -1.8273  0.0095 -1.4834
 6360TIP3   OH240714   5.107   1.065   2.383  0.2967  0.0918  0.1459
 6360TIP3    H140715   5.056   0.985   2.388  0.2141  0.2242  1.7300
 6360TIP3    H240716   5.049   1.127   2.337 -0.2657 -0.2848  0.3372
 6361TIP3   OH240717   3.511   1.574   1.584  0.0438  0.1770  0.1087
 6361TIP3    H140718   3.481   1.525   1.660 -2.1721 -1.8664 -1.8849
 6361TIP3    H240719   3.587   1.525   1.552  0.4034  0.4900  0.4892
 6362TIP3   OH240720   1.206   0.425   8.131 -0.2438  0.9195 -0.1025
 6362TIP3    H140721   1.292   0.435   8.174 -0.6578 -1.2033  1.3625
 6362TIP3    H240722   1.226   0.386   8.046  0.2340 -0.0798  0.4510
 6363TIP3   OH240723   0.344   6.187   0.364 -0.4277 -0.3467 -0.0784
 6363TIP3    H140724   0.382   6.158   0.447 -0.5363  0.2249  0.1783
 6363TIP3    H240725   0.252   6.162   0.370 -0.5909  0.3103  0.2754
 6364TIP3   OH240726   6.319   4.406   2.213  0.3805 -0.4436  0.4523
 6364TIP3    H140727   6.231   4.376   2.233  0.3240 -1.5673 -1.3098
 6364TIP3    H240728   6.314   4.502   2.222 -0.9300 -0.5128  0.6551
 6365TIP3   OH240729   1.748   5.165   3.230 -0.0605 -0.3068 -0.0475
 6365TIP3    H140730   1.655   5.153   3.248 -0.5120  1.3246 -1.1476
 6365TIP3    H240731   1.774   5.239   3.284  0.0307  0.6951 -1.4154
 6366TIP3   OH240732   4.231   6.168   0.807  0.6831  0.0107  0.2933
 6366TIP3    H140733   4.179   6.140   0.732  0.0788 -1.3709  1.1898
 6366TIP3    H240734   4.322   6.156   0.780  0.4607 -2.5243  0.4746
 6367TIP3   OH240735   4.278   5.471   0.623 -0.6818  0.1158  0.1590
 6367TIP3    H140736   4.265   5.495   0.532 -1.3249  0.4318  0.3224
 6367TIP3    H240737   4.364   5.506   0.646 -0.9219  0.8783 -0.0651
 6368TIP3   OH240738   4.007   4.016   0.870 -0.4042 -0.1047 -0.0739
 6368TIP3    H140739   4.075   4.045   0.930 -2.1329 -0.4013  2.1462
 6368TIP3    H240740   3.994   3.923   0.890 -1.8495  0.0861  0.0022
 6369TIP3   OH240741   0.029   4.409   0.964 -0.1877  0.0769  0.1670
 6369TIP3    H140742  -0.053   4.426   0.919  0.3193  1.8690 -0.1437
 6369TIP3    H240743   0.096   4.443   0.906  0.8045 -1.3756  0.4034
 6370TIP3   OH240744   6.756   1.995   2.667 -0.1756  0.0599 -0.2030
 6370TIP3    H140745   6.752   2.043   2.584 -0.4334  0.0497 -0.1950
 6370TIP3    H240746   6.748   1.903   2.641 -0.9529  0.1006 -0.1022
 6371TIP3   OH240747   4.142   3.331   0.879  0.1414 -0.7607 -0.4763
 6371TIP3    H140748   4.136   3.235   0.877 -0.6445 -0.7340  0.3131
 6371TIP3    H240749   4.223   3.349   0.927 -0.9089 -1.0382  1.5160
 6372TIP3   OH240750   5.137   2.345   2.300 -0.3937 -0.4656 -0.1338
 6372TIP3    H140751   5.151   2.252   2.282  2.2501 -0.2087  0.0575
 6372TIP3    H240752   5.095   2.346   2.386 -3.1066 -1.4599 -1.3427
 6373TIP3   OH240753   6.097   1.165   0.264 -0.7784  0.2339  0.2371
 6373TIP3    H140754   6.033   1.116   0.212 -0.7740  0.6101 -0.1273
 6373TIP3    H240755   6.144   1.098   0.314 -0.2597 -0.2129 -0.8166
 6374TIP3   OH240756   6.222   0.956   0.943 -0.3329 -0.0119  0.1777
 6374TIP3    H140757   6.157   0.938   0.874 -0.7358 -1.7687  0.9624
 6374TIP3    H240758   6.306   0.952   0.897 -0.5883 -1.2426 -0.2301
 6375TIP3   OH240759   5.154   3.258   0.355  0.1519 -0.3864  0.2948
 6375TIP3    H140760   5.088   3.308   0.309  1.2758 -0.5714 -1.6156
 6375TIP3    H240761   5.129   3.166   0.343  1.0181 -0.4873 -0.9449
 6376TIP3   OH240762   2.903   5.570   1.724  0.4936  0.3999  0.3869
 6376TIP3    H140763   2.869   5.489   1.687  1.5661 -0.3080  0.8826
 6376TIP3    H240764   2.865   5.639   1.671 -2.9505 -0.1933  1.8242
 6377TIP3   OH240765   6.855   0.058   3.004  0.1872 -0.5952  0.1295
 6377TIP3    H140766   6.945   0.087   2.991 -0.1480 -0.0774 -1.2573
 6377TIP3    H240767   6.821   0.049   2.915 -1.6701  0.9072  0.6372
 6378TIP3   OH240768   3.652   1.325   1.550  0.2323 -0.7432  0.1000
 6378TIP3    H140769   3.630   1.248   1.498 -1.9616 -2.5406  3.3001
 6378TIP3    H240770   3.715   1.292   1.615  1.5548  0.9598 -0.2536
 6379TIP3   OH240771   0.024   2.607   1.843  0.0666 -1.4218 -0.3032
 6379TIP3    H140772   0.019   2.534   1.904 -1.0105 -0.0289  1.3718
 6379TIP3    H240773  -0.054   2.595   1.787 -1.1875 -0.5864  1.1841
 6380TIP3   OH240774   6.896   0.149   3.281 -0.5158  0.0909  0.3018
 6380TIP3    H140775   6.834   0.077   3.296 -0.6456 -0.0697 -0.8872
 6380TIP3    H240776   6.981   0.112   3.303 -0.6022 -0.3839 -0.1319
 6381TIP3   OH240777   2.575   3.568   3.267  0.3736 -0.2766  0.3129
 6381TIP3    H140778   2.644   3.562   3.202 -0.1153  3.7512 -0.8838
 6381TIP3    H240779   2.609   3.631   3.331 -1.1879 -0.1468  1.0530
 6382TIP3   OH240780   2.198   3.851   0.345 -0.2540  0.1176 -0.0274
 6382TIP3    H140781   2.232   3.825   0.259  0.0726 -0.1555  0.1822
 6382TIP3    H240782   2.103   3.850   0.335 -0.3748 -3.0526  0.4943
 6383TIP3   OH240783   3.953   6.850   2.968 -0.0043  0.0383  0.4220
 6383TIP3    H140784   3.863   6.828   2.993 -0.3676  2.1489  1.2043
 6383TIP3    H240785   4.008   6.793   3.021 -0.8640 -0.3370  0.9243
 6384TIP3   OH240786   0.047   5.041   1.701 -0.1450 -0.3735 -1.0385
 6384TIP3    H140787   0.130   5.001   1.674  1.0043  1.4611 -0.3914
 6384TIP3    H240788   0.039   5.119   1.646  0.6230  1.6706  1.5458
 6385TIP3   OH240789   3.251   6.003   2.865 -0.2362  0.5339 -0.0605
 6385TIP3    H140790   3.221   5.913   2.860  1.3280 -0.0213  0.0608
 6385TIP3    H240791   3.184   6.048   2.916 -0.8347 -0.6446  0.2219
 6386TIP3   OH240792   4.680   3.174   2.798 -0.1328 -0.0532  0.1663
 6386TIP3    H140793   4.615   3.155   2.865  0.1207  1.1095  0.7673
 6386TIP3    H240794   4.722   3.089   2.781  0.0360 -0.3249  1.7452
 6387TIP3   OH240795   4.001   4.063   3.627 -0.1520  0.0025  0.8557
 6387TIP3    H140796   3.922   4.109   3.600  0.0504  0.1223  0.4578
 6387TIP3    H240797   4.065   4.132   3.645 -0.6901  0.0074  3.0550
 6388TIP3   OH240798   2.747   4.921   1.233  0.0348  0.0934 -0.1673
 6388TIP3    H140799   2.828   4.973   1.237 -0.0864  0.2821 -0.1612
 6388TIP3    H240800   2.744   4.875   1.316 -1.0561  1.8689  0.8536
 6389TIP3   OH240801   2.895   2.355   4.025 -0.3547  0.4849  0.2883
 6389TIP3    H140802   2.937   2.297   3.962  1.1674 -0.6377  2.2204
 6389TIP3    H240803   2.921   2.443   3.999  0.6165  0.0091 -0.3923
 6390TIP3   OH240804   2.454   3.198   2.325  0.3446  0.2302 -0.0121
 6390TIP3    H140805   2.508   3.259   2.376 -1.2527  1.5138  0.1872
 6390TIP3    H240806   2.423   3.134   2.390 -0.7758  1.2207  0.4542
 6391TIP3   OH240807   2.738   5.448   1.000  0.5900 -0.0900 -0.1214
 6391TIP3    H140808   2.781   5.473   1.082 -0.1766 -0.4229  0.3882
 6391TIP3    H240809   2.690   5.368   1.022  1.7023 -1.1293 -1.3128
 6392TIP3   OH240810   5.384   2.501   2.362 -0.3036 -0.2491  0.4129
 6392TIP3    H140811   5.418   2.437   2.424 -0.3846  0.2299  0.9610
 6392TIP3    H240812   5.301   2.464   2.333  0.7063 -1.4772 -1.0260
 6393TIP3   OH240813   3.802   6.748   1.849  0.0508 -0.0858  0.8318
 6393TIP3    H140814   3.717   6.791   1.836 -0.8224 -1.0009  2.9794
 6393TIP3    H240815   3.779   6.659   1.876  1.7474 -0.7826  0.0619
 6394TIP3   OH240816   3.245   2.294   4.067  0.0088 -0.6676  0.0315
 6394TIP3    H140817   3.197   2.353   4.125  1.0033 -0.5334  0.7455
 6394TIP3    H240818   3.187   2.219   4.055 -1.4066  0.5287 -1.1209
 6395TIP3   OH240819   2.821   6.153   0.713  0.7559  0.5073  0.4822
 6395TIP3    H140820   2.846   6.167   0.621 -1.9276 -1.1697 -0.6454
 6395TIP3    H240821   2.879   6.084   0.744  0.7143  0.0117 -0.4918
 6396TIP3   OH240822   5.288   1.309   3.159 -0.3047  0.1730 -0.2584
 6396TIP3    H140823   5.207   1.259   3.163 -0.5381  0.5366 -0.3840
 6396TIP3    H240824   5.260   1.399   3.141  0.1502  0.2207 -0.7475
 6397TIP3   OH240825   3.588   2.520   2.912  0.0203  0.6407  0.0586
 6397TIP3    H140826   3.606   2.606   2.950 -1.2971  2.1859 -2.5466
 6397TIP3    H240827   3.536   2.475   2.979  1.7350  1.3396  1.9624
 6398TIP3   OH240828   4.282   2.869   3.205  0.0520 -0.6261  0.4327
 6398TIP3    H140829   4.320   2.809   3.269  2.0995 -0.5458 -0.6513
 6398TIP3    H240830   4.340   2.945   3.206 -1.3547  0.4981  0.3124
 6399TIP3   OH240831   5.261   6.388   3.738  0.0775 -0.5726 -0.1390
 6399TIP3    H140832   5.354   6.409   3.744  0.0351  0.6777 -2.5390
 6399TIP3    H240833   5.244   6.381   3.644 -2.5565  0.7992  0.1444
 6400TIP3   OH240834   5.523   5.208   2.961 -0.2205  0.0268  0.3600
 6400TIP3    H140835   5.509   5.275   2.893 -2.2403 -1.7873 -1.1518
 6400TIP3    H240836   5.609   5.171   2.940 -0.1699  0.4932 -0.3027
 6401TIP3   OH240837   0.540   5.846   0.230  0.2389  0.0304 -0.1671
 6401TIP3    H140838   0.555   5.870   0.322 -0.7926 -0.0034  0.0198
 6401TIP3    H240839   0.555   5.752   0.227  1.9769  0.2851 -0.4097
 6402TIP3   OH240840   0.384   0.829   2.184  0.4797  0.4838  0.2237
 6402TIP3    H140841   0.437   0.869   2.115  0.7571 -0.0526  0.1160
 6402TIP3    H240842   0.392   0.889   2.258  1.4388  0.2895  0.2852
 6403TIP3   OH240843   6.736   0.537   2.479  0.0827 -0.2098 -0.1874
 6403TIP3    H140844   6.829   0.518   2.475  0.0211 -0.8469  0.8320
 6403TIP3    H240845   6.728   0.629   2.452  1.3399  0.7076  2.2310
 6404TIP3   OH240846   4.709   1.432   1.900 -0.1147  0.2328 -0.6253
 6404TIP3    H140847   4.755   1.351   1.924 -1.9136 -0.7449 -0.3091
 6404TIP3    H240848   4.756   1.463   1.822 -1.0866 -2.7459 -2.6068
 6405TIP3   OH240849   4.172   6.632   1.057  0.0062  0.0320  0.4384
 6405TIP3    H140850   4.146   6.628   0.965 -0.5581  0.4795  0.5773
 6405TIP3    H240851   4.128   6.558   1.098 -1.2025  0.8821  0.7061
 6406TIP3   OH240852   2.645   0.304   1.872 -0.3282 -0.3553  0.1311
 6406TIP3    H140853   2.630   0.396   1.898 -1.3795 -0.4430 -0.1142
 6406TIP3    H240854   2.732   0.304   1.832 -1.0353  0.9135 -1.5272
 6407TIP3   OH240855   6.183   3.287   0.056 -0.5178 -0.1636  0.0315
 6407TIP3    H140856   6.158   3.306   0.147  2.6753  2.0478  0.6250
 6407TIP3    H240857   6.135   3.352   0.005  1.3953  2.0070  0.8115
 6408TIP3   OH240858   1.149   4.612   1.035 -0.8029 -0.9330  0.1118
 6408TIP3    H140859   1.142   4.533   0.981 -0.8549 -0.4514 -0.5975
 6408TIP3    H240860   1.209   4.587   1.105 -0.2066 -1.3661 -0.5360
 6409TIP3   OH240861   3.564   5.936   1.803 -0.1436 -0.1579 -0.3955
 6409TIP3    H140862   3.561   6.031   1.795  1.7193 -0.0870 -0.8635
 6409TIP3    H240863   3.474   5.907   1.791 -0.6517  1.5069 -0.7942
 6410TIP3   OH240864   6.536   0.293   1.328 -0.0495 -0.2281  0.4490
 6410TIP3    H140865   6.445   0.322   1.338  0.3583  1.4424 -0.3549
 6410TIP3    H240866   6.576   0.311   1.413 -0.4788 -1.0108  0.8197
 6411TIP3   OH240867   2.987   2.590   3.916 -0.4329  0.4654 -0.5019
 6411TIP3    H140868   3.077   2.618   3.900  0.3284 -0.3202  1.9700
 6411TIP3    H240869   2.944   2.667   3.952 -1.0056  1.0334 -2.2703
 6412TIP3   OH240870   4.682   1.104   0.258 -0.2619 -0.0098  0.1058
 6412TIP3    H140871   4.698   1.197   0.248  1.3508 -0.1148  1.3282
 6412TIP3    H240872   4.726   1.064   0.183  0.6136  0.1017  0.5488
 6413TIP3   OH240873   3.778   1.084   3.288 -0.4929 -0.0575 -0.6606
 6413TIP3    H140874   3.835   1.128   3.225 -1.6008  0.4843 -1.3235
 6413TIP3    H240875   3.798   1.126   3.372  1.0080 -0.8004 -0.6319
 6414TIP3   OH240876   6.443   3.631   4.283 -0.0728  0.6005 -0.3632
 6414TIP3    H140877   6.452   3.559   4.344 -0.4306 -0.0791 -1.0865
 6414TIP3    H240878   6.523   3.629   4.231  0.7566  1.8899  0.7841
 6415TIP3   OH240879   3.207   2.565   4.144  0.1619 -0.6344  0.4337
 6415TIP3    H140880   3.292   2.522   4.133  0.6715  0.6820 -1.1365
 6415TIP3    H240881   3.228   2.654   4.173 -0.5855  0.0926 -1.1562
 6416TIP3   OH240882   6.393   6.562   4.289 -0.6403  0.9035 -0.6142
 6416TIP3    H140883   6.458   6.534   4.225  0.1562  1.2271  0.0389
 6416TIP3    H240884   6.337   6.624   4.242 -0.9297  0.0793 -1.3819
 6417TIP3   OH240885   5.753   3.922   0.880  0.3684  0.8520  0.0585
 6417TIP3    H140886   5.728   3.830   0.877  0.4629  0.8501 -0.9663
 6417TIP3    H240887   5.800   3.931   0.963 -0.4877  0.2092  0.6275
 6418TIP3   OH240888   0.447   4.256   8.085 -0.4951  0.0179 -0.4247
 6418TIP3    H140889   0.535   4.283   8.115 -1.9898  2.2668  2.4973
 6418TIP3    H240890   0.432   4.172   8.128  0.4620 -0.7954 -1.6029
 6419TIP3   OH240891   4.179   2.972   1.663 -0.3495 -0.1496 -0.2872
 6419TIP3    H140892   4.096   2.934   1.689  0.1251 -0.4663  0.8310
 6419TIP3    H240893   4.156   3.058   1.627 -1.0973  0.1533  0.8490
 6420TIP3   OH240894   1.879   4.980   1.475  0.2460 -0.2594 -0.1367
 6420TIP3    H140895   1.864   4.976   1.570 -1.8004 -0.1565 -0.3980
 6420TIP3    H240896   1.957   5.033   1.465  0.4758 -0.2412  1.4955
 6421TIP3   OH240897   5.365   0.583   0.219 -0.2486 -0.1254  0.4071
 6421TIP3    H140898   5.280   0.565   0.259 -0.1681  1.8407  1.6394
 6421TIP3    H240899   5.347   0.652   0.155  0.1338 -1.1307 -0.8292
 6422TIP3   OH240900   5.609   4.728   0.289 -0.2365 -0.3523  0.2693
 6422TIP3    H140901   5.543   4.746   0.222 -0.1704 -1.4428 -0.1031
 6422TIP3    H240902   5.597   4.636   0.312 -0.0931 -0.0647  1.5930
 6423TIP3   OH240903   1.967   1.242   3.238 -0.3774 -0.4478  0.0598
 6423TIP3    H140904   1.877   1.257   3.269  0.5112  0.8844  2.2454
 6423TIP3    H240905   1.996   1.164   3.286  0.2927  0.3674  1.0347
 6424TIP3   OH240906   0.188   5.208   1.898 -0.1166 -0.6481 -0.0157
 6424TIP3    H140907   0.172   5.192   1.991 -0.0324 -0.1826  0.0790
 6424TIP3    H240908   0.103   5.191   1.857 -0.2992 -0.3136  0.2176
 6425TIP3   OH240909   2.396   2.322   3.227  0.3745 -0.4974 -0.3656
 6425TIP3    H140910   2.350   2.392   3.275 -0.5196  0.2560 -2.2357
 6425TIP3    H240911   2.446   2.276   3.295 -0.1466  1.0501  1.1485
 6426TIP3   OH240912   1.974   0.330   1.825 -0.4369 -0.3171 -0.2071
 6426TIP3    H140913   2.022   0.259   1.866 -0.2398 -0.0517  0.0225
 6426TIP3    H240914   1.882   0.307   1.837 -0.3842 -1.1741 -1.2560
 6427TIP3   OH240915   1.883   2.766   0.196 -0.2091 -0.1210 -0.3247
 6427TIP3    H140916   1.972   2.801   0.190 -0.7419  1.9096  1.7770
 6427TIP3    H240917   1.826   2.839   0.170 -1.3053 -1.1363 -0.9021
 6428TIP3   OH240918   1.012   3.344   3.279 -0.1493 -0.5964  0.0388
 6428TIP3    H140919   1.072   3.272   3.259 -0.8342 -1.0061 -0.5718
 6428TIP3    H240920   0.938   3.302   3.321 -1.4786 -0.5450 -2.1305
 6429TIP3   OH240921   1.535   4.202   3.218  0.3146 -0.0731  0.2924
 6429TIP3    H140922   1.595   4.269   3.184 -0.5440  0.1395 -0.8898
 6429TIP3    H240923   1.482   4.248   3.283  1.5030 -0.3022  1.4700
 6430TIP3   OH240924   0.268   1.301   3.456  0.1513 -0.3266 -0.5842
 6430TIP3    H140925   0.261   1.395   3.472  1.7909 -0.5035  1.4488
 6430TIP3    H240926   0.177   1.271   3.454 -0.3849  0.8080  2.1790
 6431TIP3   OH240927   0.984   3.842   1.601  0.1507  0.3681  0.3636
 6431TIP3    H140928   1.020   3.843   1.513  0.2948  1.0956  0.4235
 6431TIP3    H240929   0.890   3.840   1.589  0.1752  0.2548  0.1930
 6432TIP3   OH240930   0.424   5.047   2.937 -0.3749 -0.0494 -0.1063
 6432TIP3    H140931   0.430   5.069   3.029  0.0718  1.4055 -0.4601
 6432TIP3    H240932   0.347   5.094   2.905 -1.4443 -1.7641 -0.1718
 6433TIP3   OH240933   0.458   5.442   2.294 -0.1562 -0.0427  0.6018
 6433TIP3    H140934   0.467   5.356   2.253  2.0593  0.0119  0.8561
 6433TIP3    H240935   0.472   5.505   2.224 -1.0693  0.1235  0.5556
 6434TIP3   OH240936   0.458   6.136   1.576 -0.4930 -0.3862 -0.0124
 6434TIP3    H140937   0.510   6.090   1.642 -0.3390 -0.2957 -0.0701
 6434TIP3    H240938   0.496   6.224   1.573 -1.9250  0.3264  1.3979
 6435TIP3   OH240939   5.830   0.731   8.113  0.4816 -0.2182  0.4113
 6435TIP3    H140940   5.740   0.762   8.121  1.0614  1.7769 -0.2131
 6435TIP3    H240941   5.844   0.719   8.019  1.0628  0.0905  0.4552
 6436TIP3   OH240942   3.985   1.806   1.278 -0.1864  0.0501 -0.0800
 6436TIP3    H140943   3.919   1.846   1.222 -0.6272  0.1102  0.4765
 6436TIP3    H240944   4.023   1.736   1.224 -1.0163 -0.2791 -0.2491
 6437TIP3   OH240945   3.099   4.622   3.952 -0.0932  0.3902 -0.5846
 6437TIP3    H140946   3.030   4.645   4.014 -0.3061  1.9717 -1.3789
 6437TIP3    H240947   3.102   4.695   3.891  2.3733  0.4213 -0.5035
 6438TIP3   OH240948   2.545   1.016   1.889  0.1552 -0.2275  0.0905
 6438TIP3    H140949   2.496   0.946   1.932  0.1047  0.2541  0.8321
 6438TIP3    H240950   2.552   0.988   1.797 -1.6873 -0.2045 -0.0855
 6439TIP3   OH240951   6.918   2.881   0.598 -0.2435 -0.1009  0.1196
 6439TIP3    H140952   6.889   2.904   0.510 -0.5496  1.7695  0.6727
 6439TIP3    H240953   6.841   2.894   0.653 -0.1733 -1.6468  0.6404
 6440TIP3   OH240954   4.805   1.954   3.492 -0.5545  0.0594  0.3488
 6440TIP3    H140955   4.717   1.990   3.501 -0.1969  0.5855  2.2326
 6440TIP3    H240956   4.830   1.931   3.582  0.8989 -0.8942 -0.2667
 6441TIP3   OH240957   1.778   5.539   1.794 -0.2361  0.0598 -0.1334
 6441TIP3    H140958   1.805   5.474   1.729 -1.4986  1.4029 -2.1350
 6441TIP3    H240959   1.709   5.495   1.844  1.4179 -1.3277  1.0248
 6442TIP3   OH240960   3.670   0.901   8.090  0.4301 -0.3527 -0.0631
 6442TIP3    H140961   3.622   0.959   8.149 -1.8188 -0.7474 -1.3836
 6442TIP3    H240962   3.643   0.929   8.003  1.2959 -1.7366 -0.7996
 6443TIP3   OH240963   1.749   1.128   0.576  0.0746 -0.0488 -0.0512
 6443TIP3    H140964   1.703   1.087   0.502  2.6925 -1.7674 -0.8570
 6443TIP3    H240965   1.841   1.105   0.562  0.8962  1.2348  2.7345
 6444TIP3   OH240966   2.838   1.826   2.887 -1.1763 -0.6232  0.5163
 6444TIP3    H140967   2.861   1.741   2.852 -0.5970  0.4387 -1.8520
 6444TIP3    H240968   2.754   1.847   2.846 -0.7280  0.4543  0.1250
 6445TIP3   OH240969   4.626   1.790   2.773  0.5173  0.2868  0.3015
 6445TIP3    H140970   4.613   1.846   2.850 -0.3184 -0.5421  0.7763
 6445TIP3    H240971   4.668   1.848   2.709 -0.5265  1.5273  0.6925
 6446TIP3   OH240972   2.985   6.567   0.002  0.4451  0.2673  0.1342
 6446TIP3    H140973   3.078   6.553   0.020  0.7535  1.7042 -0.1992
 6446TIP3    H240974   2.946   6.583   0.088  0.4494 -0.5764  0.2993
 6447TIP3   OH240975   3.193   1.393   7.992  0.3237  0.8580  0.5402
 6447TIP3    H140976   3.211   1.424   7.903 -1.0465  0.9247  0.2584
 6447TIP3    H240977   3.216   1.466   8.048 -1.0687  1.7298  0.0269
 6448TIP3   OH240978   4.383   1.947   3.198  0.3581  0.7193  0.1409
 6448TIP3    H140979   4.305   2.000   3.213 -1.7765 -1.9646 -0.7207
 6448TIP3    H240980   4.442   1.971   3.269 -1.9523  1.6153  1.8841
 6449TIP3   OH240981   2.591   6.115   1.631  0.1875 -0.1375  0.1264
 6449TIP3    H140982   2.499   6.091   1.627  0.4942 -1.6721  1.3236
 6449TIP3    H240983   2.599   6.192   1.574 -1.4762 -1.0365 -1.4104
 6450TIP3   OH240984   5.766   3.931   2.913 -0.2481  0.0377  0.1958
 6450TIP3    H140985   5.743   3.857   2.969 -1.7507  0.5351  0.2824
 6450TIP3    H240986   5.715   4.004   2.947 -0.0710  0.7126 -0.9244
 6451TIP3   OH240987   1.037   3.340   2.758 -0.1744  0.4506 -0.0883
 6451TIP3    H140988   1.028   3.405   2.827 -4.0805 -0.7881  0.8229
 6451TIP3    H240989   1.077   3.265   2.801  1.7199  1.2133 -0.4374
 6452TIP3   OH240990   4.349   5.041   0.153 -0.0454 -0.4620 -0.1516
 6452TIP3    H140991   4.278   4.977   0.153  0.0973 -0.7113 -2.5324
 6452TIP3    H240992   4.304   5.125   0.139  0.0061 -0.3982  0.0591
 6453TIP3   OH240993   1.345   1.338   0.108 -0.7377 -0.4104  0.2967
 6453TIP3    H140994   1.312   1.249   0.121  0.0568 -0.6016  1.1493
 6453TIP3    H240995   1.287   1.376   0.043  0.0061 -2.1619 -1.4934
 6454TIP3   OH240996   5.132   3.604   4.275 -0.3690  0.0268  0.1016
 6454TIP3    H140997   5.104   3.561   4.194  0.4878 -0.0824 -0.1447
 6454TIP3    H240998   5.098   3.548   4.345  1.3754 -1.5281 -0.2138
 6455TIP3   OH240999   5.419   0.576   7.739  0.0119 -0.1972  0.1195
 6455TIP3    H141000   5.474   0.632   7.685 -0.0583 -0.3215 -0.0817
 6455TIP3    H241001   5.351   0.635   7.773 -0.0125 -0.1425 -0.0221
 6456TIP3   OH241002   0.415   4.050   8.256 -0.5118  0.4547  0.0491
 6456TIP3    H141003   0.506   4.028   8.278 -0.6463  0.3071  0.4746
 6456TIP3    H241004   0.389   3.984   8.192  0.1109  1.3087 -1.1276
 6457TIP3   OH241005   1.527   0.960   0.437 -0.5308  0.4645  0.4318
 6457TIP3    H141006   1.560   0.898   0.501 -2.2979  1.9154  2.9599
 6457TIP3    H241007   1.432   0.943   0.435 -0.4619  0.0706 -2.3335
 6458TIP3   OH241008   2.783   3.855   3.126 -0.0916 -0.1874  0.0521
 6458TIP3    H141009   2.825   3.857   3.212  0.9510  0.6446 -0.4584
 6458TIP3    H241010   2.856   3.850   3.064 -0.8424 -1.8551 -0.7766
 6459TIP3   OH241011   6.798   6.488   8.290  0.9097  0.3357 -0.5510
 6459TIP3    H141012   6.772   6.542   8.215  1.4500  1.3936 -0.0090
 6459TIP3    H241013   6.830   6.407   8.251 -1.2351 -0.2140 -1.3226
 6460TIP3   OH241014   6.310   6.899   3.606 -0.2078 -0.2679  0.7369
 6460TIP3    H141015   6.289   6.818   3.560  0.0226  0.0657  0.0277
 6460TIP3    H241016   6.403   6.892   3.627  0.7173  1.1764 -2.2734
 6461TIP3   OH241017   0.811   0.686   8.451 -0.0105  0.4934 -0.0396
 6461TIP3    H141018   0.787   0.593   8.455  0.2007  0.4333 -0.1311
 6461TIP3    H241019   0.758   0.721   8.380 -1.2753  0.8069  1.0331
 6462TIP3   OH241020   6.155   1.640   2.924 -0.0852  0.1834 -0.0637
 6462TIP3    H141021   6.209   1.590   2.864 -0.7832  1.2599 -1.6568
 6462TIP3    H241022   6.082   1.582   2.945  0.4863 -0.4281  0.2683
 6463TIP3   OH241023   2.073   5.031   3.393 -0.2272  0.7396  0.4206
 6463TIP3    H141024   2.056   5.081   3.313  0.2246 -0.3296 -0.3691
 6463TIP3    H241025   1.988   4.991   3.414 -0.1195  0.1992 -0.1258
 6464TIP3   OH241026   4.930   3.334   3.775  0.4074  0.7477  0.3044
 6464TIP3    H141027   5.000   3.359   3.715  1.8266 -1.3111  1.0250
 6464TIP3    H241028   4.969   3.269   3.833 -1.2073  1.8824  2.8374
 6465TIP3   OH241029   3.566   5.738   2.706  0.3934 -0.1548  0.3252
 6465TIP3    H141030   3.544   5.726   2.798  0.5376 -0.2531  0.3472
 6465TIP3    H241031   3.559   5.650   2.668 -1.8356  0.2117 -0.2340
 6466TIP3   OH241032   4.037   6.055   1.049  0.2217 -0.3805  0.2731
 6466TIP3    H141033   4.091   6.133   1.041 -0.6170  0.5609  2.7887
 6466TIP3    H241034   3.962   6.072   0.991  1.7303 -0.9808 -1.9569
 6467TIP3   OH241035   5.621   6.016   2.654  0.5214  0.2680 -0.7151
 6467TIP3    H141036   5.703   5.988   2.613  0.2811 -0.4628 -0.7149
 6467TIP3    H241037   5.610   5.955   2.727  0.0931  0.5036 -0.5852
 6468TIP3   OH241038   6.538   5.524   8.583 -0.3641 -0.3183  0.0545
 6468TIP3    H141039   6.544   5.610   8.625 -0.2379 -1.3011  2.1715
 6468TIP3    H241040   6.493   5.541   8.500  0.9291  1.9832 -0.2607
 6469TIP3   OH241041   1.018   0.394   8.440  0.1258  0.3378 -0.5058
 6469TIP3    H141042   0.980   0.396   8.352 -1.1302  0.4365  0.0071
 6469TIP3    H241043   1.065   0.477   8.448 -0.1636  0.5469 -0.9178
 6470TIP3   OH241044   1.174   0.570   3.853  0.0858  0.2820  0.6291
 6470TIP3    H141045   1.175   0.665   3.861 -0.8820  0.2892  0.8682
 6470TIP3    H241046   1.257   0.541   3.890  0.4009  1.0328  0.5257
 6471TIP3   OH241047   2.211   0.620   2.863  0.2034  0.4311 -0.1586
 6471TIP3    H141048   2.277   0.557   2.892 -1.0667  0.0194  2.0408
 6471TIP3    H241049   2.253   0.705   2.872  0.9921  0.0895 -0.4637
 6472TIP3   OH241050   0.631   2.922   0.928 -0.8290  0.2139 -0.6151
 6472TIP3    H141051   0.609   3.010   0.958  1.9295  1.1146 -0.9461
 6472TIP3    H241052   0.585   2.913   0.844 -3.2180  0.2488  0.6123
 6473TIP3   OH241053   0.708   2.215   0.014  0.2295  0.0967 -0.2009
 6473TIP3    H141054   0.767   2.219  -0.062  0.4161  0.1917 -0.0508
 6473TIP3    H241055   0.704   2.122   0.036 -2.2274 -0.3763 -2.2054
 6474TIP3   OH241056   3.567   3.314   2.989 -0.3360 -0.1441 -0.5096
 6474TIP3    H141057   3.659   3.296   3.006 -0.3722  0.6210  0.5683
 6474TIP3    H241058   3.568   3.389   2.929 -0.2571 -0.7644 -1.3013
 6475TIP3   OH241059   4.791   5.650   1.313 -0.1684  0.7571 -0.0372
 6475TIP3    H141060   4.737   5.726   1.336  2.1220  2.3430  0.5675
 6475TIP3    H241061   4.812   5.610   1.398 -0.8576 -0.2157 -0.3127
 6476TIP3   OH241062   1.237   0.800   1.719  0.5678 -0.1892  0.0055
 6476TIP3    H141063   1.163   0.858   1.700  1.0627  0.2815 -0.5466
 6476TIP3    H241064   1.201   0.712   1.715 -0.2972  0.0760  1.2816
 6477TIP3   OH241065   2.499   3.089   2.905 -0.4250 -0.4918  0.0393
 6477TIP3    H141066   2.443   3.162   2.931 -1.3837 -0.9907 -0.5457
 6477TIP3    H241067   2.555   3.124   2.836 -1.1614 -0.4045 -0.5231
 6478TIP3   OH241068   0.471   3.363   3.897  0.1320 -0.1748 -0.3570
 6478TIP3    H141069   0.448   3.345   3.988  1.7152  0.9703  0.3381
 6478TIP3    H241070   0.550   3.311   3.882 -0.7058 -1.1762 -1.4527
 6479TIP3   OH241071   5.190   3.142   2.556 -0.3261  0.0873 -0.4850
 6479TIP3    H141072   5.154   3.225   2.524 -0.6301  0.4432  0.7411
 6479TIP3    H241073   5.199   3.155   2.651 -0.5469 -1.3498 -0.2563
 6480TIP3   OH241074   6.227   3.570   0.407  0.6137  0.0959 -0.5139
 6480TIP3    H141075   6.285   3.646   0.396  1.5145 -0.6010 -0.7737
 6480TIP3    H241076   6.234   3.523   0.323  1.5896 -1.2727  0.2771
 6481TIP3   OH241077   4.205   0.503   0.541 -0.1690  0.1476  0.5735
 6481TIP3    H141078   4.138   0.493   0.474  0.5626 -0.1000 -0.1312
 6481TIP3    H241079   4.244   0.588   0.524  0.2032 -0.0326  0.5106
 6482TIP3   OH241080   0.518   4.953   0.983  0.7265 -0.0700  0.3039
 6482TIP3    H141081   0.570   4.966   0.903  2.8320 -0.1655  1.5666
 6482TIP3    H241082   0.466   4.875   0.965  2.8539 -1.4621 -0.2390
 6483TIP3   OH241083   6.021   1.361   2.780 -0.9080 -0.2994 -0.1894
 6483TIP3    H141084   6.039   1.347   2.873 -3.1904 -1.2945  0.1699
 6483TIP3    H241085   6.103   1.395   2.745 -0.1584  0.7070  2.2962
 6484TIP3   OH241086   5.416   1.504   2.208  0.1766 -0.2769  0.5056
 6484TIP3    H141087   5.449   1.457   2.132  0.1515  1.7358 -0.7978
 6484TIP3    H241088   5.494   1.545   2.246 -0.0946  0.3515  0.3868
 6485TIP3   OH241089   6.547   1.638   3.359 -0.1970  0.5646  0.1887
 6485TIP3    H141090   6.470   1.600   3.317 -0.1322 -0.3185  0.8273
 6485TIP3    H241091   6.575   1.571   3.422 -0.1269  1.7230  1.4230
 6486TIP3   OH241092   5.726   0.822   0.532 -0.2657  0.5944  0.9215
 6486TIP3    H141093   5.674   0.744   0.513  1.0335 -0.0597 -0.1011
 6486TIP3    H241094   5.733   0.867   0.448  0.3441  0.9644  1.1635
 6487TIP3   OH241095   5.131   1.872   2.802  0.8092 -0.3836 -0.0450
 6487TIP3    H141096   5.118   1.956   2.759  1.1710 -0.7840 -0.9768
 6487TIP3    H241097   5.212   1.882   2.852 -0.5973  0.6936  2.1505
 6488TIP3   OH241098   1.164   1.780   2.259  0.4291 -0.2443 -0.1760
 6488TIP3    H141099   1.193   1.864   2.222 -0.2840  0.5315  0.9279
 6488TIP3    H241100   1.201   1.714   2.201  0.1406  0.8619 -1.7031
 6489TIP3   OH241101   1.583   0.190   1.643  0.4470  0.5044 -0.0916
 6489TIP3    H141102   1.530   0.270   1.648  0.6529  0.6178  0.3186
 6489TIP3    H241103   1.527   0.127   1.597  1.2055  1.6300 -2.7815
 6490TIP3   OH241104   0.302   3.983   2.978 -0.3675  0.4075 -0.2129
 6490TIP3    H141105   0.392   3.955   2.996 -0.8412 -0.7612  0.4444
 6490TIP3    H241106   0.281   3.942   2.894  0.5093  2.6847 -1.6389
 6491TIP3   OH241107   4.918   1.555   3.746 -0.2312  0.3276 -0.0066
 6491TIP3    H141108   4.913   1.462   3.726  2.4484  0.3910 -1.3525
 6491TIP3    H241109   4.827   1.581   3.760 -1.1306 -2.2861 -0.4206
 6492TIP3   OH241110   1.827   2.114   0.535 -0.2184 -0.1996  0.0407
 6492TIP3    H141111   1.762   2.053   0.569 -1.1277  1.1589  0.8527
 6492TIP3    H241112   1.780   2.197   0.527  0.5901  0.1120 -2.3731
 6493TIP3   OH241113   6.354   5.678   1.298 -0.4185 -0.5661 -0.7451
 6493TIP3    H141114   6.438   5.721   1.284 -1.3554  1.3793 -0.7772
 6493TIP3    H241115   6.358   5.599   1.244  1.3427 -0.4921 -0.7770
 6494TIP3   OH241116   5.813   2.126   4.024  0.6081 -0.0192  0.7360
 6494TIP3    H141117   5.791   2.057   4.087  1.7253 -0.1190  1.0306
 6494TIP3    H241118   5.884   2.174   4.065  0.1767  1.0066  0.2989
 6495TIP3   OH241119   1.239   5.788   4.058  0.1791 -0.0825 -0.2206
 6495TIP3    H141120   1.334   5.799   4.063  0.1449 -0.2491  1.3627
 6495TIP3    H241121   1.209   5.794   4.149 -1.4000  0.5500 -0.7355
 6496TIP3   OH241122   0.771   6.752   7.681 -0.2384 -0.1102 -0.5661
 6496TIP3    H141123   0.749   6.665   7.715 -0.3429 -0.0206 -0.4057
 6496TIP3    H241124   0.867   6.752   7.677  0.0257  1.0199  2.8397
 6497TIP3   OH241125   1.421   1.392   3.800  0.6595  0.0254 -0.6136
 6497TIP3    H141126   1.494   1.344   3.762 -0.0101 -1.9813  0.5095
 6497TIP3    H241127   1.408   1.353   3.886 -0.6585  1.4961 -0.0904
 6498TIP3   OH241128   1.265   2.128   2.341  0.2640  0.5347  0.2353
 6498TIP3    H141129   1.353   2.105   2.310 -0.5559 -3.0454  0.1470
 6498TIP3    H241130   1.260   2.090   2.429 -0.8863  1.5906  0.6558
 6499TIP3   OH241131   0.676   0.635   2.905 -0.5581 -0.0050 -0.6112
 6499TIP3    H141132   0.686   0.729   2.889  0.7937 -0.3116 -1.8356
 6499TIP3    H241133   0.765   0.605   2.924 -0.9344 -1.0833 -0.4862
 6500TIP3   OH241134   4.453   0.194   8.290  0.0295 -0.9999 -0.4115
 6500TIP3    H141135   4.404   0.127   8.338 -0.8787  0.7752  1.3277
 6500TIP3    H241136   4.472   0.261   8.356  0.3492  0.7368 -2.1700
 6501TIP3   OH241137   1.332   1.336   2.514 -0.2902 -0.0560 -0.0490
 6501TIP3    H141138   1.418   1.374   2.531 -0.3417  0.9445 -1.8708
 6501TIP3    H241139   1.270   1.406   2.536 -0.6006 -0.4479  0.3427
 6502TIP3   OH241140   4.518   0.519   0.650 -0.3520 -0.0829  0.3248
 6502TIP3    H141141   4.553   0.443   0.604  0.1359  0.2257  0.1823
 6502TIP3    H241142   4.594   0.563   0.688 -0.5836  0.5398  0.0934
 6503TIP3   OH241143   3.620   6.883   2.461  0.1109  0.4199  0.4526
 6503TIP3    H141144   3.606   6.824   2.387  0.4594  0.7980  0.0755
 6503TIP3    H241145   3.596   6.832   2.538 -0.6478  0.1515  0.0450
 6504TIP3   OH241146   1.257   5.261   0.630 -0.4869 -0.2239  0.3137
 6504TIP3    H141147   1.162   5.255   0.640 -0.7618  0.4591 -1.5972
 6504TIP3    H241148   1.288   5.291   0.716 -2.3082  2.3542  0.1799
 6505TIP3   OH241149   1.145   3.332   1.411 -0.4451  0.0689 -0.0616
 6505TIP3    H141150   1.163   3.300   1.499  0.0692  0.3408 -0.0680
 6505TIP3    H241151   1.178   3.422   1.410  1.0834 -0.4692 -1.0297
 6506TIP3   OH241152   0.127   0.771   1.729 -0.2276  0.3208  0.1873
 6506TIP3    H141153   0.202   0.712   1.738  0.3207  1.0816  0.8037
 6506TIP3    H241154   0.099   0.762   1.638  0.9465  0.4079 -0.1929
 6507TIP3   OH241155   4.112   2.143   0.303  0.1296  0.2199  0.0579
 6507TIP3    H141156   4.158   2.219   0.268  2.0623 -0.5459  0.7275
 6507TIP3    H241157   4.084   2.094   0.226 -0.3374  1.1393 -0.3735
 6508TIP3   OH241158   5.722   3.651   0.877 -0.4135  0.4765  1.0853
 6508TIP3    H141159   5.753   3.591   0.945 -0.6215 -0.0287  0.7426
 6508TIP3    H241160   5.670   3.596   0.819  1.8839  0.2893 -0.9654
 6509TIP3   OH241161   2.251   3.960   2.203 -0.3958  0.2799 -0.0016
 6509TIP3    H141162   2.192   3.976   2.277  0.8986 -0.4591  1.2567
 6509TIP3    H241163   2.247   3.866   2.189  1.8641 -0.1028  1.4045
 6510TIP3   OH241164   6.792   3.745   1.944 -0.7392  0.1243  1.1501
 6510TIP3    H141165   6.875   3.790   1.956 -0.9599  0.8193  0.2254
 6510TIP3    H241166   6.813   3.669   1.890 -0.8391  0.8342  0.0864
 6511TIP3   OH241167   5.541   6.623   1.869  0.1633  0.1491  0.6495
 6511TIP3    H141168   5.501   6.611   1.956 -0.2288 -0.1964  0.4283
 6511TIP3    H241169   5.594   6.544   1.856  0.7181  0.4867  0.8311
 6512TIP3   OH241170   0.087   4.816   2.043  0.2802  0.2331 -0.0551
 6512TIP3    H141171   0.126   4.730   2.058 -0.1722  0.0970  0.3385
 6512TIP3    H241172   0.033   4.804   1.965 -0.4019 -0.0407  0.4587
 6513TIP3   OH241173   6.068   3.654   1.047 -0.2385 -0.2915  0.5561
 6513TIP3    H141174   5.988   3.615   1.013 -0.4594  0.9973 -0.4970
 6513TIP3    H241175   6.101   3.708   0.975  1.0398 -0.0012  1.3137
 6514TIP3   OH241176   3.172   5.755   0.141  0.2180 -0.3517  0.3867
 6514TIP3    H141177   3.132   5.734   0.056  0.0722 -0.2051  0.4201
 6514TIP3    H241178   3.233   5.826   0.122 -2.4547  2.3144  1.0059
 6515TIP3   OH241179   5.188   3.812   1.796  0.1775  0.1577 -0.3414
 6515TIP3    H141180   5.207   3.766   1.714  0.2487 -1.6207  0.6120
 6515TIP3    H241181   5.172   3.742   1.860 -2.8515  1.4603  0.5160
 6516TIP3   OH241182   6.818   2.040   3.199 -0.7885  0.3108 -1.2796
 6516TIP3    H141183   6.765   2.013   3.124 -0.6889 -0.3466 -1.1216
 6516TIP3    H241184   6.828   2.134   3.189 -2.1767  0.4815 -1.1847
 6517TIP3   OH241185   4.327   0.780   8.150  0.2695 -0.2004  0.1008
 6517TIP3    H141186   4.404   0.837   8.151 -1.0562  1.6343  0.4771
 6517TIP3    H241187   4.329   0.735   8.235  0.0619  1.0593  0.7907
 6518TIP3   OH241188   2.945   2.103   0.447 -0.6351 -0.6492 -0.2276
 6518TIP3    H141189   3.035   2.113   0.478 -1.0601 -0.1914  0.9355
 6518TIP3    H241190   2.926   2.010   0.460  0.7475 -1.5496 -3.6906
 6519TIP3   OH241191   5.694   6.091   3.278  0.0079  0.2225 -0.2812
 6519TIP3    H141192   5.640   6.130   3.346  1.0798 -0.0100  0.7409
 6519TIP3    H241193   5.772   6.146   3.274 -0.1575  0.3892 -1.5256
 6520TIP3   OH241194   6.916   4.300   2.306 -0.4618  0.2117  0.3930
 6520TIP3    H141195   6.941   4.207   2.309  2.1425  0.8072 -0.6325
 6520TIP3    H241196   6.825   4.299   2.276  0.2008 -1.9398 -1.8628
 6521TIP3   OH241197   4.188   4.516   0.947  0.5126  0.4258 -0.0073
 6521TIP3    H141198   4.207   4.607   0.925 -1.8740  0.7272 -1.1408
 6521TIP3    H241199   4.220   4.466   0.871 -1.2275  0.7260 -0.9926
 6522TIP3   OH241200   0.338   0.691   1.395 -0.5358 -0.3915 -0.0464
 6522TIP3    H141201   0.364   0.605   1.363 -2.1348 -1.2651  0.8656
 6522TIP3    H241202   0.300   0.735   1.318 -0.0663 -0.6471 -0.4250
 6523TIP3   OH241203   4.960   0.847   2.443 -0.3632  0.3607 -0.0068
 6523TIP3    H141204   5.024   0.776   2.456  1.3440  1.9701  0.7669
 6523TIP3    H241205   4.880   0.815   2.484  0.0542 -1.5120 -0.5513
 6524TIP3   OH241206   3.420   4.149   0.678 -0.2547 -0.0978  0.0565
 6524TIP3    H141207   3.389   4.116   0.593 -0.5479  1.4690 -0.4730
 6524TIP3    H241208   3.365   4.225   0.696  1.5611  1.2078  0.3542
 6525TIP3   OH241209   1.180   2.381   2.266  0.2990 -0.1075 -0.2463
 6525TIP3    H141210   1.160   2.374   2.173  1.1937 -0.1271 -0.4432
 6525TIP3    H241211   1.190   2.290   2.295 -0.0904 -0.1069 -0.0993
 6526TIP3   OH241212   6.836   5.530   3.024  0.3942  0.8841 -0.3261
 6526TIP3    H141213   6.903   5.519   3.092  0.5312  0.6160 -0.5060
 6526TIP3    H241214   6.754   5.507   3.068  0.6011 -0.3501 -0.5334
 6527TIP3   OH241215   4.873   5.696   2.680  0.2668  0.0689  0.2185
 6527TIP3    H141216   4.816   5.714   2.605 -0.3076 -0.7270  0.4493
 6527TIP3    H241217   4.955   5.668   2.641  0.5077  1.1724 -0.1181
 6528TIP3   OH241218   2.412   0.928   0.670  0.0768  0.1232 -0.2139
 6528TIP3    H141219   2.450   0.898   0.752  0.9458 -0.8542 -0.9486
 6528TIP3    H241220   2.465   1.004   0.645 -2.3013  2.6616  1.7916
 6529TIP3   OH241221   6.786   5.472   1.840  0.1016 -0.1210  0.0584
 6529TIP3    H141222   6.708   5.527   1.840 -0.9156 -1.4778  1.1872
 6529TIP3    H241223   6.754   5.383   1.824  1.3737 -0.7385  0.6946
 6530TIP3   OH241224   3.269   2.690   8.377 -0.4974  0.3593 -0.2848
 6530TIP3    H141225   3.328   2.648   8.314  0.6503  1.9726 -0.3404
 6530TIP3    H241226   3.183   2.684   8.336 -0.4345 -1.9527 -0.2511
 6531TIP3   OH241227   5.263   5.891   1.321 -0.2362 -0.5647 -0.0535
 6531TIP3    H141228   5.275   5.888   1.226 -1.2688  0.7136 -0.2580
 6531TIP3    H241229   5.295   5.978   1.347 -2.3007  0.1453  0.3434
 6532TIP3   OH241230   1.865   6.644   0.508 -0.0365 -0.3940 -0.4328
 6532TIP3    H141231   1.790   6.624   0.453 -0.8369  0.8341  0.1638
 6532TIP3    H241232   1.834   6.713   0.567  0.6723 -1.8579  1.7836
 6533TIP3   OH241233   4.017   5.056   0.999 -0.4596  0.4348 -0.1232
 6533TIP3    H141234   3.989   5.090   0.914 -1.3541  0.5527  0.2032
 6533TIP3    H241235   4.022   5.134   1.055  0.4552  0.3993 -0.1509
 6534TIP3   OH241236   6.735   2.820   0.368 -0.3114  0.1533  0.1748
 6534TIP3    H141237   6.683   2.878   0.424 -1.2101 -0.6997  0.2411
 6534TIP3    H241238   6.736   2.864   0.282  1.0316  1.4415  0.7986
 6535TIP3   OH241239   6.495   2.403   0.612  0.0899 -0.2849 -0.8605
 6535TIP3    H141240   6.538   2.462   0.550  0.1027  2.2634  1.3510
 6535TIP3    H241241   6.515   2.315   0.580  1.3767  0.8667 -3.5314
 6536TIP3   OH241242   4.653   3.475   1.057  0.1866 -0.0322  0.2874
 6536TIP3    H141243   4.654   3.567   1.082  0.6789 -0.2415  1.0713
 6536TIP3    H241244   4.736   3.440   1.089 -0.7966 -1.1807  1.6994
 6537TIP3   OH241245   2.932   1.418   2.169 -0.1365 -0.2530  0.0489
 6537TIP3    H141246   3.020   1.428   2.132  0.1769 -0.8333  0.6192
 6537TIP3    H241247   2.891   1.504   2.157  1.0105  0.4765  1.0815
 6538TIP3   OH241248   1.314   2.609   2.454 -0.0991 -0.9964 -0.5372
 6538TIP3    H141249   1.403   2.587   2.426  0.7429  2.1454 -0.7552
 6538TIP3    H241250   1.273   2.648   2.377 -0.1787  1.3300  0.6016
 6539TIP3   OH241251   3.158   6.707   2.664 -0.1821 -0.1779 -0.5497
 6539TIP3    H141252   3.118   6.753   2.590  1.4305  0.0082 -1.3474
 6539TIP3    H241253   3.231   6.659   2.626 -0.5621 -1.7681  0.6116
 6540TIP3   OH241254   4.165   1.689   8.561  0.5383  0.0028 -0.1467
 6540TIP3    H141255   4.204   1.751   8.499  2.1525 -0.9517 -0.1561
 6540TIP3    H241256   4.236   1.628   8.580 -0.7059 -1.2278  0.6655
 6541TIP3   OH241257   5.538   1.711   0.756 -0.2299  0.2094 -0.7944
 6541TIP3    H141258   5.630   1.688   0.744  0.4554  1.4856  1.4068
 6541TIP3    H241259   5.496   1.685   0.674  1.6196 -2.5481 -1.0244
 6542TIP3   OH241260   6.757   5.570   3.308 -0.0825 -0.5500  0.2201
 6542TIP3    H141261   6.668   5.583   3.275  0.8823 -0.3890 -2.6237
 6542TIP3    H241262   6.756   5.481   3.343 -1.3710 -0.5418  0.2579
 6543TIP3   OH241263   4.819   0.182   0.651  0.1156  0.2218  0.3980
 6543TIP3    H141264   4.806   0.145   0.738  0.0120 -2.1185 -0.5317
 6543TIP3    H241265   4.808   0.108   0.592  0.4197  1.6936 -1.6069
 6544TIP3   OH241266   1.619   3.020   2.291  0.5076 -0.1321  0.0459
 6544TIP3    H141267   1.652   2.962   2.359 -0.2269 -0.3616  0.2142
 6544TIP3    H241268   1.524   3.022   2.305  0.4407  0.4812 -0.4478
 6545TIP3   OH241269   6.330   4.170   0.073 -0.1201  0.4020 -0.9054
 6545TIP3    H141270   6.362   4.085   0.044  0.5208 -0.1357  1.1577
 6545TIP3    H241271   6.237   4.157   0.088  0.3975 -0.7982  1.9030
 6546TIP3   OH241272   6.553   4.273   1.554  0.2252  0.6240 -0.4740
 6546TIP3    H141273   6.500   4.346   1.587 -3.0807 -2.8645  2.9346
 6546TIP3    H241274   6.517   4.255   1.467 -2.6956 -0.0529  0.7588
 6547TIP3   OH241275   3.004   6.753   1.070 -0.6320  0.6029  0.0819
 6547TIP3    H141276   3.015   6.705   0.987  0.0337 -2.3336  1.7302
 6547TIP3    H241277   3.087   6.798   1.082  0.4521 -1.3667  0.4866
 6548TIP3   OH241278   3.111   3.895   2.025  0.4424 -0.6986 -0.2597
 6548TIP3    H141279   3.116   3.939   2.110  0.9211 -0.5759 -0.3511
 6548TIP3    H241280   3.052   3.950   1.973  1.5143  0.1821 -0.5731
 6549TIP3   OH241281   4.750   5.528   2.883 -0.3060 -0.3260  0.6289
 6549TIP3    H141282   4.732   5.583   2.958 -1.5668  1.2079 -0.7169
 6549TIP3    H241283   4.775   5.589   2.813 -1.2722 -1.4592 -0.7846
 6550TIP3   OH241284   5.024   3.048   2.861  0.9395 -0.3147 -0.5659
 6550TIP3    H141285   5.051   3.062   2.770  2.5917 -2.3360 -0.4680
 6550TIP3    H241286   4.973   2.967   2.858 -1.4996  1.1360 -0.0668
 6551TIP3   OH241287   3.810   5.082   3.308 -0.0800  0.2853 -0.0207
 6551TIP3    H141288   3.773   5.023   3.373 -0.3114 -0.3195 -0.6876
 6551TIP3    H241289   3.802   5.035   3.225  0.7243  0.8114 -0.4114
 6552TIP3   OH241290   2.796   5.783   1.548  0.3717  0.5495  0.5581
 6552TIP3    H141291   2.703   5.768   1.568  0.6826 -0.1475  1.5575
 6552TIP3    H241292   2.819   5.859   1.600  0.9228 -0.6536  2.1363
 6553TIP3   OH241293   6.446   2.674   2.972  0.4230  0.2556 -0.5937
 6553TIP3    H141294   6.439   2.760   3.014  2.4774  0.6518 -0.9216
 6553TIP3    H241295   6.406   2.613   3.034 -2.7914  1.6031 -1.1653
 6554TIP3   OH241296   2.316   1.221   1.396  0.1584  0.2212  0.7077
 6554TIP3    H141297   2.273   1.299   1.432 -0.1750 -0.7678  2.5910
 6554TIP3    H241298   2.354   1.250   1.314 -0.2728  2.2749  1.1844
 6555TIP3   OH241299   2.025   0.491   1.233 -0.1874  0.3416 -0.1749
 6555TIP3    H141300   2.102   0.434   1.225  0.7901  1.7297 -1.0822
 6555TIP3    H241301   2.009   0.496   1.327 -0.8035 -2.0381 -0.0874
 6556TIP3   OH241302   1.216   4.015   1.272  0.1405  0.2505 -0.0102
 6556TIP3    H141303   1.211   3.997   1.365 -0.2834  0.2100 -0.0416
 6556TIP3    H241304   1.141   4.071   1.254  0.4919  0.6619 -0.2347
 6557TIP3   OH241305   1.605   2.882   2.566  0.7701  0.6179  0.0450
 6557TIP3    H141306   1.693   2.869   2.532  1.9764 -1.2649  3.3848
 6557TIP3    H241307   1.562   2.797   2.558 -0.4527  1.2647 -0.6674
 6558TIP3   OH241308   3.208   0.252   2.921 -0.1772  0.1411  0.2195
 6558TIP3    H141309   3.254   0.334   2.900  1.3926 -0.7993 -0.1713
 6558TIP3    H241310   3.216   0.243   3.016 -0.2749  0.4009  0.2522
 6559TIP3   OH241311   2.404   3.785   3.473 -0.0141  0.2866  0.3204
 6559TIP3    H141312   2.403   3.756   3.382 -0.6602  3.6962 -0.8976
 6559TIP3    H241313   2.496   3.780   3.499  0.9935  3.2241 -2.0648
 6560TIP3   OH241314   5.386   6.124   2.767 -0.4149 -0.1063 -0.2190
 6560TIP3    H141315   5.371   6.136   2.861  0.8820  0.2265 -0.0398
 6560TIP3    H241316   5.465   6.070   2.762 -1.5121 -1.7380 -1.1167
 6561TIP3   OH241317   2.438   0.001   2.486 -0.3725  0.6088  0.1538
 6561TIP3    H141318   2.430  -0.084   2.444  0.0771  1.3740 -1.5693
 6561TIP3    H241319   2.488  -0.017   2.566  0.2867 -0.6501 -0.5055
 6562TIP3   OH241320   5.504   6.692   1.605  0.0643 -0.6853 -0.5934
 6562TIP3    H141321   5.409   6.683   1.613  0.1816 -0.6308  1.0603
 6562TIP3    H241322   5.539   6.668   1.690  1.6335 -1.6179 -1.4473
 6563TIP3   OH241323   6.131   1.196   0.694 -0.4047  0.1830  0.4480
 6563TIP3    H141324   6.056   1.229   0.644  0.8880  2.7435  0.0534
 6563TIP3    H241325   6.093   1.132   0.755 -2.8998  1.3690  0.2543
 6564TIP3   OH241326   5.002   6.026   0.969  0.0003  0.1342  0.1034
 6564TIP3    H141327   4.967   5.954   1.021 -0.9762  0.3797 -0.2019
 6564TIP3    H241328   5.093   6.002   0.954  0.6496  0.5337  2.7946
 6565TIP3   OH241329   1.901   0.606   0.214  0.0534 -0.2579  0.5139
 6565TIP3    H141330   1.931   0.537   0.155 -0.9251 -0.8675  0.7143
 6565TIP3    H241331   1.943   0.685   0.181  1.9585 -1.0821  0.8514
 6566TIP3   OH241332   4.440   3.858   1.176  0.7891  0.5191  0.8283
 6566TIP3    H141333   4.464   3.949   1.193  1.7109  0.7131 -1.2017
 6566TIP3    H241334   4.501   3.830   1.108  1.1205 -1.9162  2.0104
 6567TIP3   OH241335   3.752   3.469   1.612  0.6808  0.1913 -0.2860
 6567TIP3    H141336   3.740   3.394   1.554 -1.1408 -0.5449  0.9368
 6567TIP3    H241337   3.743   3.545   1.554 -0.7360 -0.5214 -1.0554
 6568TIP3   OH241338   4.223   4.466   3.143 -0.5488 -0.2926  0.0607
 6568TIP3    H141339   4.272   4.406   3.200 -1.9924 -2.0527 -0.4841
 6568TIP3    H241340   4.284   4.487   3.072  0.4014 -0.0725  0.9124
 6569TIP3   OH241341   2.433   6.859   0.798  0.1595  0.0989 -0.0136
 6569TIP3    H141342   2.405   6.778   0.756  1.3712  0.5065 -1.7023
 6569TIP3    H241343   2.454   6.918   0.726  2.8571  0.6616  1.0815
 6570TIP3   OH241344   2.556   4.203   0.824 -0.1182 -0.0238  0.4333
 6570TIP3    H141345   2.474   4.166   0.790 -0.3289 -1.3330  2.2553
 6570TIP3    H241346   2.625   4.153   0.781 -0.2725  0.6170 -0.5865
 6571TIP3   OH241347   0.604   5.407   2.046  0.1113 -0.0028  0.3650
 6571TIP3    H141348   0.634   5.333   1.994 -0.2344  0.7408 -0.9258
 6571TIP3    H241349   0.682   5.437   2.092  0.0558 -1.7712  1.7131
 6572TIP3   OH241350   0.925   3.900   0.983  0.0415 -0.2576  0.1336
 6572TIP3    H141351   0.863   3.896   1.056 -1.6211 -0.5908 -1.2268
 6572TIP3    H241352   0.934   3.809   0.954 -1.5428  0.0976 -1.7698
 6573TIP3   OH241353   2.063   0.135   2.058  0.6828 -0.1943 -0.2798
 6573TIP3    H141354   2.079   0.071   1.989  2.4787 -0.0252 -0.0690
 6573TIP3    H241355   2.134   0.198   2.050  0.3578  0.3912  1.0750
 6574TIP3   OH241356   5.588   6.270   4.020  0.3917 -0.6488 -0.2568
 6574TIP3    H141357   5.569   6.191   4.070  0.9868  0.1422  1.2660
 6574TIP3    H241358   5.683   6.276   4.017  0.3801  0.7814  0.9648
 6575TIP3   OH241359   5.367   1.595   3.664  0.3452 -0.6819 -0.4027
 6575TIP3    H141360   5.420   1.655   3.716  1.5913 -1.4707 -0.7409
 6575TIP3    H241361   5.287   1.645   3.644  1.1376  0.6756 -0.2634
 6576TIP3   OH241362   5.909   3.507   0.289  0.1239  0.1498  0.2736
 6576TIP3    H141363   5.943   3.555   0.213  0.6006  1.5504  1.3162
 6576TIP3    H241364   5.890   3.576   0.354  0.6655 -1.0499  1.7708
 6577TIP3   OH241365   0.785   3.823   4.080  0.1679  0.4088  0.2288
 6577TIP3    H141366   0.757   3.909   4.048 -0.6059  0.2707  0.5054
 6577TIP3    H241367   0.857   3.842   4.141  0.6526  0.7800 -0.4512
 6578TIP3   OH241368   6.376   3.316   3.704  0.4631 -0.1463 -0.0473
 6578TIP3    H141369   6.317   3.383   3.739 -0.9585 -1.5010  0.2400
 6578TIP3    H241370   6.345   3.234   3.742  2.4442 -0.9446 -0.0350
 6579TIP3   OH241371   6.182   4.201   2.547  0.3482  0.5387 -0.2987
 6579TIP3    H141372   6.179   4.297   2.555  0.4195  0.7046 -1.9175
 6579TIP3    H241373   6.150   4.169   2.632 -0.7547  2.0044 -0.1108
 6580TIP3   OH241374   0.320   1.974   3.337 -0.1322 -0.2416  0.0123
 6580TIP3    H141375   0.314   2.069   3.337  1.5799 -0.1059 -0.3239
 6580TIP3    H241376   0.310   1.948   3.429  2.1349  0.5002  0.5185
 6581TIP3   OH241377   4.478   5.485   0.284 -0.0683  0.3609  0.0222
 6581TIP3    H141378   4.406   5.423   0.270 -1.2449  1.9182 -1.1660
 6581TIP3    H241379   4.550   5.449   0.232 -0.4372 -0.4775  0.0762
 6582TIP3   OH241380   6.548   3.558   3.575 -0.1189  0.3848  0.2205
 6582TIP3    H141381   6.541   3.499   3.501  0.4837  2.8135 -1.9089
 6582TIP3    H241382   6.635   3.541   3.612 -0.1743 -0.4108 -0.0044
 6583TIP3   OH241383   5.224   5.856   2.670 -0.1262 -0.3012  0.2496
 6583TIP3    H141384   5.269   5.940   2.664  0.6423 -0.6621  0.7183
 6583TIP3    H241385   5.234   5.829   2.761 -1.3844 -0.3591  0.3805
 6584TIP3   OH241386   3.039   2.307   1.672  0.3853 -0.7230  0.1207
 6584TIP3    H141387   3.062   2.313   1.764  1.3660 -0.3872 -0.1318
 6584TIP3    H241388   3.042   2.397   1.640  0.0857 -0.8387 -0.2473
 6585TIP3   OH241389   6.007   1.876   1.527 -0.1113  0.1262 -0.3283
 6585TIP3    H141390   6.047   1.888   1.614  0.9182  0.9416 -0.8855
 6585TIP3    H241391   6.070   1.821   1.479  0.0109  0.8330 -0.9934
 6586TIP3   OH241392   4.740   3.226   2.175 -0.3281 -0.2439 -0.0641
 6586TIP3    H141393   4.704   3.298   2.124 -1.1564  0.1957  1.0935
 6586TIP3    H241394   4.691   3.149   2.145  0.6919 -0.3956 -1.4394
 6587TIP3   OH241395   4.997   4.235   1.576  0.4010 -0.6514  0.3082
 6587TIP3    H141396   5.042   4.164   1.530  0.2120  1.0421 -2.7471
 6587TIP3    H241397   4.905   4.210   1.574  0.2487 -0.0523 -1.4091
 6588TIP3   OH241398   3.672   3.070   2.491 -0.1102  0.1362 -0.0579
 6588TIP3    H141399   3.698   2.997   2.548 -2.5299 -0.5199  0.3177
 6588TIP3    H241400   3.710   3.049   2.406  0.2527 -0.9378  0.3572
 6589TIP3   OH241401   5.847   0.393   3.247 -0.2578 -0.4285  0.2622
 6589TIP3    H141402   5.768   0.362   3.202 -0.0797 -0.6680  0.1081
 6589TIP3    H241403   5.828   0.484   3.270 -0.4452 -0.3765 -0.0877
 6590TIP3   OH241404   6.538   6.902   1.240 -0.3789 -0.3382  0.0831
 6590TIP3    H141405   6.480   6.936   1.309 -0.4830 -3.2452  1.5768
 6590TIP3    H241406   6.490   6.918   1.159 -1.9184  0.0464  1.0091
 6591TIP3   OH241407   4.348   4.156   7.831 -0.1920  0.1718  0.6872
 6591TIP3    H141408   4.298   4.181   7.909  1.4602  0.3413  1.7383
 6591TIP3    H241409   4.426   4.113   7.865  1.4877  1.9012 -0.7871
 6592TIP3   OH241410   4.480   1.261   3.680 -0.6342 -0.3431  0.0125
 6592TIP3    H141411   4.564   1.305   3.667 -0.3285 -1.0317 -0.3898
 6592TIP3    H241412   4.498   1.168   3.663 -1.0537 -0.7853  1.7363
 6593TIP3   OH241413   1.757   3.575   3.381  0.4070 -0.3132 -0.0976
 6593TIP3    H141414   1.831   3.589   3.440  0.1656 -2.4149  0.7661
 6593TIP3    H241415   1.693   3.527   3.433 -1.2318  0.6924 -1.0932
 6594TIP3   OH241416   5.174   4.289   2.275  0.1951 -0.5649  0.1604
 6594TIP3    H141417   5.109   4.358   2.271  1.5594  0.7471 -0.2071
 6594TIP3    H241418   5.258   4.333   2.261  1.1095 -2.2995 -0.1696
 6595TIP3   OH241419   3.973   3.496   2.353  0.0707 -0.2085  0.1608
 6595TIP3    H141420   3.888   3.519   2.317  1.1196  2.4086 -0.9208
 6595TIP3    H241421   3.982   3.551   2.431  1.4308  0.9044 -0.7278
 6596TIP3   OH241422   0.650   0.425   3.115 -0.0825 -0.6434 -0.3730
 6596TIP3    H141423   0.717   0.463   3.058 -0.6462  0.7649 -0.1512
 6596TIP3    H241424   0.572   0.478   3.098 -1.0499 -2.0002 -0.3447
 6597TIP3   OH241425   5.570   2.044   3.098 -0.6176  0.6970 -0.0012
 6597TIP3    H141426   5.584   2.037   3.193 -1.3957  0.6614  0.1201
 6597TIP3    H241427   5.655   2.025   3.059 -0.5086 -0.1926  0.6563
 6598TIP3   OH241428   6.261   2.665   0.625 -0.2108 -0.0816 -0.0520
 6598TIP3    H141429   6.173   2.687   0.595 -0.3307  0.0216  0.3671
 6598TIP3    H241430   6.309   2.748   0.623 -0.3144 -0.0091  0.3547
 6599TIP3   OH241431   5.342   2.451   4.040 -0.1151  0.4397 -0.5913
 6599TIP3    H141432   5.275   2.383   4.050  1.1855 -0.9070 -0.6308
 6599TIP3    H241433   5.420   2.414   4.081  0.4144  2.3005  0.1734
 6600TIP3   OH241434   1.510   0.410   0.283  0.7113 -0.1629 -0.1055
 6600TIP3    H141435   1.546   0.321   0.293  0.8702 -0.0106  0.7507
 6600TIP3    H241436   1.569   0.465   0.334  0.5785  0.4354 -0.5870
 6601TIP3   OH241437   3.078   3.823   0.476  0.1643  1.1270 -0.3788
 6601TIP3    H141438   3.156   3.808   0.422  1.5788 -0.4885  1.9558
 6601TIP3    H241439   3.004   3.804   0.417  1.6284 -1.7673 -1.4853
 6602TIP3   OH241440   2.869   2.293   4.308 -0.1415  0.1734 -0.0122
 6602TIP3    H141441   2.860   2.314   4.215 -2.0939 -0.0514  0.0794
 6602TIP3    H241442   2.779   2.284   4.339  0.4659  0.4755  1.9626
 6603TIP3   OH241443   4.796   1.206   2.069 -0.2661  0.4529 -0.0546
 6603TIP3    H141444   4.715   1.200   2.120 -0.0772  0.5507  0.2650
 6603TIP3    H241445   4.865   1.198   2.135 -0.0053 -1.1365 -0.4872
 6604TIP3   OH241446   1.467   5.468   2.331 -0.0332  0.4076 -0.6489
 6604TIP3    H141447   1.506   5.411   2.397  1.5807  1.8985 -0.2173
 6604TIP3    H241448   1.531   5.469   2.259 -0.3404  1.1512 -0.9273
 6605TIP3   OH241449   3.300   4.573   2.887  0.2411  0.2050 -0.0503
 6605TIP3    H141450   3.245   4.638   2.843  1.8625  0.7325 -1.4449
 6605TIP3    H241451   3.322   4.510   2.817  3.0674  1.1745 -0.1588
 6606TIP3   OH241452   3.803   5.300   2.591 -0.1465 -0.3621  0.0698
 6606TIP3    H141453   3.716   5.284   2.628 -0.6256  0.5990 -0.5950
 6606TIP3    H241454   3.843   5.363   2.651 -1.2365  1.8465 -1.3496
 6607TIP3   OH241455   2.492   0.938   7.863  0.4808  0.0333  0.7986
 6607TIP3    H141456   2.467   0.993   7.788 -1.7212 -3.5315 -1.3761
 6607TIP3    H241457   2.588   0.941   7.863  0.5323  0.8035 -1.7092
 6608TIP3   OH241458   0.047   1.707   2.461  0.3291  0.7180 -0.4398
 6608TIP3    H141459   0.068   1.634   2.519 -0.6903 -0.3597 -1.3666
 6608TIP3    H241460   0.046   1.784   2.518 -0.0087 -0.2030  0.8412
 6609TIP3   OH241461   2.768   5.554   4.039  0.8071 -0.8743  0.6656
 6609TIP3    H141462   2.745   5.620   3.974 -0.1079 -1.7530  0.0601
 6609TIP3    H241463   2.684   5.517   4.066  1.2737 -1.4731  1.3243
 6610TIP3   OH241464   0.680   5.886   0.460  0.1599  0.0220  0.0732
 6610TIP3    H141465   0.675   5.831   0.538  1.0798 -0.2714 -0.0545
 6610TIP3    H241466   0.693   5.975   0.493  0.0495 -0.0337  0.2638
 6611TIP3   OH241467   1.639   0.481   0.804 -0.0578 -0.1544  0.1563
 6611TIP3    H141468   1.592   0.453   0.726 -1.4304  1.3715  0.3940
 6611TIP3    H241469   1.668   0.399   0.845 -1.3291 -1.0799 -0.7252
 6612TIP3   OH241470   5.492   3.083   3.691  0.4918 -0.3832  0.1883
 6612TIP3    H141471   5.474   3.154   3.751  1.5797 -0.4658  0.6327
 6612TIP3    H241472   5.578   3.050   3.717  0.6993 -0.8396 -1.0001
 6613TIP3   OH241473   4.853   6.586   2.003  0.0064 -0.0344  0.0818
 6613TIP3    H141474   4.886   6.529   1.934  1.2620  0.0173  0.6301
 6613TIP3    H241475   4.770   6.620   1.968 -0.7829 -2.1649 -0.2462
 6614TIP3   OH241476   2.397   2.092   8.505 -0.2708 -0.3687 -0.0763
 6614TIP3    H141477   2.400   2.185   8.482  1.3126 -0.1346  0.9218
 6614TIP3    H241478   2.370   2.049   8.424 -1.2980  0.9660 -0.4842
 6615TIP3   OH241479   3.065   2.233   0.196  0.0508  0.1049  0.2724
 6615TIP3    H141480   3.007   2.161   0.223  0.6399 -0.2522  0.6176
 6615TIP3    H241481   3.023   2.268   0.117 -0.1332 -0.7683 -0.0393
 6616TIP3   OH241482   3.882   4.849   0.045 -0.0541  0.4246 -0.1237
 6616TIP3    H141483   3.835   4.895   0.115  0.5479  1.3949 -0.3316
 6616TIP3    H241484   3.819   4.841  -0.026 -0.4608  0.0578  0.2778
 6617TIP3   OH241485   2.817   5.422   2.100  0.0488 -0.4375  0.0635
 6617TIP3    H141486   2.753   5.415   2.171 -1.2095 -2.0453 -1.1719
 6617TIP3    H241487   2.810   5.513   2.071 -2.1798 -0.7104 -0.4496
 6618TIP3   OH241488   0.409   2.944   0.708 -0.0259  0.0862 -0.6864
 6618TIP3    H141489   0.374   2.903   0.628 -2.7279 -3.1279  1.8602
 6618TIP3    H241490   0.335   2.994   0.743  0.3428 -0.4855  0.9595
 6619TIP3   OH241491   4.902   4.828   1.188  0.1020  0.1272 -0.6682
 6619TIP3    H141492   4.812   4.834   1.155 -0.3407  0.5980  0.5585
 6619TIP3    H241493   4.898   4.870   1.274  1.4467 -0.0834 -0.4922
 6620TIP3   OH241494   2.111   2.679   2.514  0.5334 -0.0585 -0.1497
 6620TIP3    H141495   2.174   2.748   2.493  1.1490 -0.3231  0.7634
 6620TIP3    H241496   2.165   2.606   2.543 -0.1535 -0.6644 -0.3665
 6621TIP3   OH241497   6.137   4.110   1.793  0.2317 -0.6598 -0.6956
 6621TIP3    H141498   6.173   4.189   1.832  1.4837 -1.5087 -0.0721
 6621TIP3    H241499   6.056   4.139   1.749  2.0284  1.4699 -2.8490
 6622TIP3   OH241500   6.834   1.802   3.002  0.4899 -0.6104 -0.4577
 6622TIP3    H141501   6.754   1.837   2.963  0.5600 -0.3915 -0.4070
 6622TIP3    H241502   6.875   1.752   2.931  0.2711 -0.7870 -0.4618
 6623TIP3   OH241503   0.478   3.789   2.637 -0.0050 -0.5289 -0.4448
 6623TIP3    H141504   0.561   3.782   2.590 -1.2183 -1.5626 -2.6064
 6623TIP3    H241505   0.426   3.852   2.587 -0.1469  1.1181  1.6073
 6624TIP3   OH241506   3.037   5.743   0.997 -0.6503 -0.6093 -0.1807
 6624TIP3    H141507   3.051   5.669   0.939  1.2096  0.4527 -1.1876
 6624TIP3    H241508   2.949   5.730   1.031 -1.2154 -2.1049 -2.0160
 6625TIP3   OH241509   6.399   0.531   0.397  0.5105  0.1668  0.1175
 6625TIP3    H141510   6.333   0.571   0.453  1.3735  0.9427  0.6105
 6625TIP3    H241511   6.395   0.438   0.418  1.2733  0.5167  2.0063
 6626TIP3   OH241512   1.255   5.578   7.840 -0.3402  0.0983  0.9483
 6626TIP3    H141513   1.191   5.556   7.773 -0.3068  1.1525  0.5573
 6626TIP3    H241514   1.214   5.648   7.890 -0.5714 -1.0008  2.3659
 6627TIP3   OH241515   0.573   4.497   7.913  0.3515  0.1093 -0.2997
 6627TIP3    H141516   0.508   4.567   7.899 -0.6578 -0.5725  0.8034
 6627TIP3    H241517   0.520   4.418   7.924  1.3823 -0.4748  0.5447
 6628TIP3   OH241518   2.751   5.062   3.557  0.2135 -0.4254 -0.3145
 6628TIP3    H141519   2.693   5.051   3.481 -1.3028  2.7352  0.2130
 6628TIP3    H241520   2.839   5.050   3.521 -0.4804  0.4173 -2.5033
 6629TIP3   OH241521   6.077   0.912   2.486 -0.0425 -0.3579 -0.0595
 6629TIP3    H141522   6.068   0.966   2.565 -1.9833 -1.6932  0.7296
 6629TIP3    H241523   6.156   0.861   2.500  0.0205 -0.0634  0.6982
 6630TIP3   OH241524   6.860   0.414   2.995 -0.4912  0.3074 -0.1454
 6630TIP3    H141525   6.917   0.455   3.061  0.5681 -0.5514 -0.4969
 6630TIP3    H241526   6.826   0.487   2.943 -0.1720  0.8759  0.4359
 6631TIP3   OH241527   3.384   5.505   1.282 -0.1779 -0.4324 -0.4827
 6631TIP3    H141528   3.291   5.485   1.267 -0.0453 -0.5405 -1.2207
 6631TIP3    H241529   3.426   5.486   1.198  0.3766  0.4406 -0.4188
 6632TIP3   OH241530   3.278   1.360   1.273 -0.0845  0.1863  0.2954
 6632TIP3    H141531   3.334   1.350   1.196 -0.5276 -0.8289  0.0895
 6632TIP3    H241532   3.267   1.455   1.282  0.8633  0.3646 -0.2314
 6633TIP3   OH241533   3.071   4.728   2.819 -0.8851 -0.2789 -0.0752
 6633TIP3    H141534   3.061   4.815   2.780 -1.0087 -0.1365  0.2681
 6633TIP3    H241535   3.029   4.736   2.905 -1.5960 -0.8988 -0.3566
 6634TIP3   OH241536   5.799   6.216   2.774 -0.4003 -0.3885 -0.8874
 6634TIP3    H141537   5.879   6.166   2.789 -2.0763 -2.7888  0.8053
 6634TIP3    H241538   5.751   6.165   2.710 -1.4921 -0.1204 -0.3028
 6635TIP3   OH241539   5.083   5.839   1.971  0.3168 -0.2018  0.6254
 6635TIP3    H141540   5.113   5.749   1.983  0.5618 -0.4990 -1.7633
 6635TIP3    H241541   5.163   5.891   1.979  0.5836 -0.4490 -0.3594
 6636TIP3   OH241542   3.570   6.523   0.793 -0.3986 -0.4724 -0.3050
 6636TIP3    H141543   3.610   6.439   0.769  0.7221 -0.5111  1.5510
 6636TIP3    H241544   3.512   6.502   0.866  0.5320  0.4770  0.7344
 6637TIP3   OH241545   2.801   1.437   1.525  0.3176 -0.5564 -0.3993
 6637TIP3    H141546   2.717   1.392   1.515 -1.3632  2.1923  0.2110
 6637TIP3    H241547   2.849   1.417   1.445 -0.2002 -3.4441 -0.1077
 6638TIP3   OH241548   2.874   4.447   1.144  0.1882  0.2114 -0.0914
 6638TIP3    H141549   2.909   4.359   1.161  0.3493  0.2846 -0.0462
 6638TIP3    H241550   2.903   4.500   1.218 -1.4445 -0.1161  0.8361
 6639TIP3   OH241551   5.356   5.773   3.546  0.0166 -0.0314 -0.2521
 6639TIP3    H141552   5.328   5.863   3.560  1.0085  0.2423  0.0319
 6639TIP3    H241553   5.336   5.729   3.628  1.7539  0.5257  0.5157
 6640TIP3   OH241554   2.359   2.279   3.834  0.0879  0.6428 -0.2121
 6640TIP3    H141555   2.332   2.258   3.923  1.1761 -3.4382 -0.6689
 6640TIP3    H241556   2.450   2.253   3.830  0.4967  2.1466 -2.1905
 6641TIP3   OH241557   2.004   6.005   0.207  0.4366  0.3416 -0.2716
 6641TIP3    H141558   2.056   6.069   0.256  0.2989  0.5548 -0.3995
 6641TIP3    H241559   2.064   5.971   0.141  0.5492  0.2430 -0.1172
 6642TIP3   OH241560   0.248   4.239   2.191  0.6292 -0.0412  0.0456
 6642TIP3    H141561   0.336   4.278   2.191  0.2783  0.7640 -0.0878
 6642TIP3    H241562   0.215   4.256   2.279  0.6937 -0.5529  0.1706
 6643TIP3   OH241563   1.614   6.715   0.851 -0.0288  0.6360 -0.0555
 6643TIP3    H141564   1.665   6.681   0.924 -1.7607 -1.3303  0.3198
 6643TIP3    H241565   1.538   6.756   0.892 -0.3503  0.7052 -0.6999
 6644TIP3   OH241566   3.252   6.089   1.793  0.1682  0.0448  0.0757
 6644TIP3    H141567   3.273   6.017   1.852  2.6707  1.3115  0.8970
 6644TIP3    H241568   3.310   6.160   1.821  0.2132  1.2840 -2.8145
 6645TIP3   OH241569   6.133   2.573   3.311 -0.1102  0.1975 -0.2466
 6645TIP3    H141570   6.221   2.606   3.329  0.9133 -2.4078 -0.0127
 6645TIP3    H241571   6.081   2.598   3.387  0.2360  2.2783 -0.6575
 6646TIP3   OH241572   0.875   5.112   2.587  0.3440  0.1651 -0.1383
 6646TIP3    H141573   0.880   5.041   2.523 -2.4414 -1.1653  0.9231
 6646TIP3    H241574   0.841   5.186   2.538  0.0473 -0.2642 -0.5914
 6647TIP3   OH241575   0.345   1.782   2.731 -0.3092  0.4440 -0.4870
 6647TIP3    H141576   0.309   1.783   2.643  0.6332 -0.4435 -0.9016
 6647TIP3    H241577   0.279   1.737   2.783 -0.0389 -0.7531 -1.1428
 6648TIP3   OH241578   3.922   2.869   3.199  0.0520 -0.1387  0.4264
 6648TIP3    H141579   3.945   2.781   3.171  2.1330  0.9739 -1.6660
 6648TIP3    H241580   3.829   2.877   3.178 -0.4069 -2.0640  1.4741
 6649TIP3   OH241581   6.612   5.313   8.021 -0.7207  0.6746  0.0228
 6649TIP3    H141582   6.623   5.218   8.027 -1.9828  0.5190  0.3856
 6649TIP3    H241583   6.681   5.343   7.963 -0.0907 -0.4262  0.1892
 6650TIP3   OH241584   3.166   1.710   3.297  0.3531  0.2124  0.0308
 6650TIP3    H141585   3.169   1.799   3.261 -1.5097  0.7021  0.9597
 6650TIP3    H241586   3.233   1.710   3.365  1.7832  0.2308 -1.3224
 6651TIP3   OH241587   0.935   3.632   2.311 -0.5260  0.3965 -0.6144
 6651TIP3    H141588   1.014   3.629   2.366 -1.3184  1.5739  0.6632
 6651TIP3    H241589   0.967   3.651   2.223  0.6068  0.9798 -0.0969
 6652TIP3   OH241590   0.363   6.242   1.268 -0.8074  0.7472  0.1546
 6652TIP3    H141591   0.376   6.212   1.358 -0.7467  0.0895 -0.0689
 6652TIP3    H241592   0.384   6.335   1.270 -1.7544  0.9624  1.0348
 6653TIP3   OH241593   0.681   6.326   3.056  0.8290  0.1468  0.7724
 6653TIP3    H141594   0.718   6.357   2.973 -0.5615  0.0613  0.0896
 6653TIP3    H241595   0.756   6.293   3.105  1.6028 -0.3870 -0.7132
 6654TIP3   OH241596   3.807   2.943   0.632  0.8224 -0.2281  0.1684
 6654TIP3    H141597   3.793   2.922   0.725 -0.4875 -2.3418 -0.4239
 6654TIP3    H241598   3.724   2.982   0.604  1.7098  1.7486  0.1774
 6655TIP3   OH241599   4.434   6.167   3.260  0.2506 -0.5503 -0.5044
 6655TIP3    H141600   4.501   6.233   3.242  0.5715 -1.3869 -2.6880
 6655TIP3    H241601   4.352   6.207   3.230  0.2370 -0.6411 -0.5875
 6656TIP3   OH241602   5.763   3.207   8.489  0.1722 -0.6289  0.1904
 6656TIP3    H141603   5.844   3.258   8.488 -1.0676  1.4324  0.0835
 6656TIP3    H241604   5.698   3.265   8.529 -1.3466 -2.0972 -0.0390
 6657TIP3   OH241605   3.793   0.265   1.000 -0.2721 -0.3179  0.3212
 6657TIP3    H141606   3.755   0.183   0.969  3.6630 -1.7410 -1.4366
 6657TIP3    H241607   3.764   0.271   1.091 -2.5612 -2.3814 -0.1354
 6658TIP3   OH241608   1.270   5.573   1.820 -0.0408  0.6322  0.5532
 6658TIP3    H141609   1.341   5.575   1.755 -2.1043  0.9781 -1.8117
 6658TIP3    H241610   1.247   5.481   1.827 -0.7466  0.7326 -0.3121
 6659TIP3   OH241611   0.044   1.487   2.273 -0.4694  0.0151 -0.7150
 6659TIP3    H141612   0.132   1.453   2.263 -0.7540 -0.4860 -1.6309
 6659TIP3    H241613   0.050   1.549   2.346  0.1286 -1.7051  0.7839
 6660TIP3   OH241614   3.475   2.589   1.001 -0.0785  0.3522 -0.1555
 6660TIP3    H141615   3.556   2.613   1.044  0.0534  1.3331 -0.9016
 6660TIP3    H241616   3.412   2.655   1.030 -0.8881 -0.9332  1.1567
 6661TIP3   OH241617   3.733   1.975   0.344 -0.1766  0.6942 -0.5534
 6661TIP3    H141618   3.757   1.912   0.412  0.1074 -1.1983 -2.3085
 6661TIP3    H241619   3.670   2.033   0.386 -0.5710 -0.8498  1.1198
 6662TIP3   OH241620   2.408   5.587   0.118 -0.0853 -0.7854 -0.6461
 6662TIP3    H141621   2.358   5.541   0.185  0.5087 -0.0729  0.3184
 6662TIP3    H241622   2.358   5.575   0.037 -0.7917 -1.6953 -0.0873
 6663TIP3   OH241623   2.391   2.025   2.587 -0.0137 -0.1210 -0.2533
 6663TIP3    H141624   2.378   1.956   2.652 -0.1031  0.0153 -0.1266
 6663TIP3    H241625   2.331   2.001   2.516 -1.5355  0.8807  0.6252
 6664TIP3   OH241626   1.407   6.025   1.902  0.5031  0.0845  0.3527
 6664TIP3    H141627   1.406   6.115   1.870  1.8877 -1.2732 -4.2058
 6664TIP3    H241628   1.329   5.985   1.863  1.0010 -1.1835  0.6336
 6665TIP3   OH241629   0.047   0.607   8.104  0.8599 -0.3251  0.1804
 6665TIP3    H141630  -0.011   0.607   8.028 -1.8710 -0.2963  2.1111
 6665TIP3    H241631   0.135   0.612   8.067 -0.3651  1.0179 -2.9192
 6666TIP3   OH241632   4.020   4.615   8.552 -0.0413 -0.0229  0.1849
 6666TIP3    H141633   3.984   4.697   8.586 -0.0169  0.0601  0.0128
 6666TIP3    H241634   3.967   4.547   8.594  1.2692 -0.0176  1.9404
 6667TIP3   OH241635   4.423   4.621   1.808 -0.1644  0.2416 -1.0135
 6667TIP3    H141636   4.505   4.621   1.758  0.2784  3.0554 -0.4518
 6667TIP3    H241637   4.448   4.591   1.895  0.3578  1.2957 -0.7812
 6668TIP3   OH241638   3.437   4.140   0.223 -0.3049 -0.1728  0.0630
 6668TIP3    H141639   3.400   4.226   0.205 -0.4357 -0.2547 -0.0582
 6668TIP3    H241640   3.362   4.082   0.230 -0.1860 -0.4214 -0.6110
 6669TIP3   OH241641   0.226   4.609   4.233  0.9138 -0.2409  0.4543
 6669TIP3    H141642   0.230   4.514   4.226  0.4782 -0.4345  2.3059
 6669TIP3    H241643   0.316   4.638   4.220  1.0427 -0.8785 -0.1788
 6670TIP3   OH241644   0.812   4.976   8.537 -0.3912 -0.0708 -0.0229
 6670TIP3    H141645   0.781   5.039   8.472  0.2367 -1.1540 -1.4098
 6670TIP3    H241646   0.906   4.970   8.521 -0.4304 -1.2699  0.1662
 6671TIP3   OH241647   1.518   2.126   1.822 -0.0528 -0.4645 -0.1761
 6671TIP3    H141648   1.427   2.149   1.842  0.5142  1.4003  0.5076
 6671TIP3    H241649   1.551   2.084   1.901 -0.2197 -0.8114 -0.2915
 6672TIP3   OH241650   3.130   3.438   1.990 -0.4524 -0.6769 -0.9186
 6672TIP3    H141651   3.191   3.510   2.011 -2.7054  1.5366 -1.4569
 6672TIP3    H241652   3.158   3.409   1.902  0.4435 -0.4278 -0.7315
 6673TIP3   OH241653   6.435   6.799   0.423  0.4607 -0.0931 -0.3162
 6673TIP3    H141654   6.461   6.711   0.449 -1.7696 -1.0018 -0.9429
 6673TIP3    H241655   6.406   6.841   0.504 -0.9099 -0.8701 -0.3784
 6674TIP3   OH241656   1.516   4.648   0.423 -0.5094 -0.3689  0.4047
 6674TIP3    H141657   1.583   4.593   0.465 -0.3816 -0.6144 -0.1098
 6674TIP3    H241658   1.510   4.614   0.334 -1.4395 -0.4504  0.4911
 6675TIP3   OH241659   0.234   0.029   0.607 -0.1666  0.4184 -0.8064
 6675TIP3    H141660   0.235   0.119   0.572 -0.0009  0.6549 -0.2053
 6675TIP3    H241661   0.174  -0.018   0.549 -0.3023  0.9331 -1.0950
 6676TIP3   OH241662   3.621   2.247   0.828  0.4359  0.3902 -0.4304
 6676TIP3    H141663   3.588   2.309   0.763 -0.7129  0.1417 -0.1091
 6676TIP3    H241664   3.556   2.249   0.898  0.8530 -0.5135 -0.0015
 6677TIP3   OH241665   5.615   0.142   1.259  0.4560  0.1875 -0.3038
 6677TIP3    H141666   5.607   0.064   1.204 -2.1701 -0.1222  0.3614
 6677TIP3    H241667   5.541   0.135   1.320  1.5481  2.0190  1.3279
 6678TIP3   OH241668   4.722   5.597   2.250  0.2386 -0.3694 -0.1055
 6678TIP3    H141669   4.781   5.530   2.282  0.8816 -0.1518 -0.8035
 6678TIP3    H241670   4.653   5.549   2.204  0.4872 -0.5664 -0.2725
 6679TIP3   OH241671   1.735   1.569   2.280  0.6086  0.9659 -1.2049
 6679TIP3    H141672   1.789   1.526   2.214  2.0677  1.4571 -0.3745
 6679TIP3    H241673   1.742   1.662   2.259 -0.6370  0.9837 -1.5977
 6680TIP3   OH241674   1.503   6.296   3.362 -0.1393  0.4195 -0.0234
 6680TIP3    H141675   1.410   6.289   3.380  0.2241  0.0456  1.8734
 6680TIP3    H241676   1.511   6.271   3.269 -1.9106  0.5714 -0.2534
 6681TIP3   OH241677   0.278   1.188   0.340  0.7629  0.6283  0.4177
 6681TIP3    H141678   0.194   1.228   0.363  0.9957  0.9824  0.6564
 6681TIP3    H241679   0.293   1.124   0.410 -0.2050 -0.7849 -0.6119
 6682TIP3   OH241680   6.057   1.770   1.198  0.0294 -0.1694  0.2380
 6682TIP3    H141681   6.072   1.732   1.284  2.9691 -0.2323 -0.2044
 6682TIP3    H241682   6.005   1.849   1.215 -0.7983 -1.0046  1.8286
 6683TIP3   OH241683   3.791   5.445   3.923  1.0533 -0.0939  0.3688
 6683TIP3    H141684   3.823   5.518   3.977  1.9417 -0.8522  0.8983
 6683TIP3    H241685   3.867   5.419   3.871  0.8094 -0.8030  0.3596
 6684TIP3   OH241686   1.158   3.079   0.337 -0.4499  0.1076 -0.4655
 6684TIP3    H141687   1.153   3.174   0.331 -1.6564  0.0391 -0.8506
 6684TIP3    H241688   1.189   3.062   0.426  1.2026  0.8649 -0.8582
 6685TIP3   OH241689   0.366   3.743   0.941  0.2485 -0.2748  0.2345
 6685TIP3    H141690   0.301   3.745   0.872  2.0078 -1.4880 -1.5865
 6685TIP3    H241691   0.325   3.691   1.011 -1.0756 -0.1751 -0.4377
 6686TIP3   OH241692   2.596   3.809   2.936  0.2001  0.2309 -0.4050
 6686TIP3    H141693   2.603   3.878   2.870 -0.9227  1.5724  0.8140
 6686TIP3    H241694   2.652   3.839   3.008 -1.2608  0.5182  0.6463
 6687TIP3   OH241695   3.885   5.572   0.383 -0.2553  0.6586  0.6489
 6687TIP3    H141696   3.898   5.618   0.300 -2.5112 -0.1055 -0.2006
 6687TIP3    H241697   3.851   5.639   0.442 -2.0305  0.4942 -0.1256
 6688TIP3   OH241698   6.034   4.301   2.209  0.1206 -0.1649  0.1231
 6688TIP3    H141699   5.996   4.363   2.148 -0.9925  0.3206  1.2555
 6688TIP3    H241700   5.982   4.221   2.198 -1.4450  0.5488  1.7845
 6689TIP3   OH241701   1.811   0.315   3.701 -0.8163 -0.1007  0.4595
 6689TIP3    H141702   1.823   0.244   3.765 -1.5467 -0.5809  0.0757
 6689TIP3    H241703   1.887   0.371   3.714 -0.3602 -0.8096  0.9636
 6690TIP3   OH241704   3.510   6.032   1.467  0.2085 -0.0073  0.7224
 6690TIP3    H141705   3.420   6.031   1.501 -0.7948 -1.9865 -1.6760
 6690TIP3    H241706   3.545   5.946   1.490  1.1666  0.4031  0.8103
 6691TIP3   OH241707   5.105   4.412   2.864  0.0725 -0.7618 -0.0864
 6691TIP3    H141708   5.182   4.462   2.836 -1.8355  2.2298 -0.4333
 6691TIP3    H241709   5.048   4.411   2.787 -1.0792 -1.1926  0.7493
 6692TIP3   OH241710   6.740   6.607   2.511 -0.3676 -0.0358  0.4980
 6692TIP3    H141711   6.689   6.590   2.591 -1.7777  2.6318  0.2696
 6692TIP3    H241712   6.831   6.603   2.540 -0.7843 -1.1281  1.7703
 6693TIP3   OH241713   4.194   4.584   2.440 -0.3185  0.0720  0.1093
 6693TIP3    H141714   4.255   4.531   2.389  0.7136  1.6926 -0.4162
 6693TIP3    H241715   4.250   4.645   2.489 -1.3685 -0.3746  1.9828
 6694TIP3   OH241716   3.064   5.396   2.419 -0.3515  0.1221 -0.2232
 6694TIP3    H141717   3.034   5.483   2.446  0.4153  0.5759 -0.7933
 6694TIP3    H241718   3.114   5.363   2.493 -0.2158  0.3773 -0.2005
 6695TIP3   OH241719   4.345   1.455   8.511 -0.0420  0.4342  0.6994
 6695TIP3    H141720   4.337   1.361   8.528  1.4410  0.0258 -0.5617
 6695TIP3    H241721   4.328   1.463   8.417 -0.0744  1.4225  0.7809
 6696TIP3   OH241722   6.127   3.493   3.272  0.1780 -0.9355 -0.1057
 6696TIP3    H141723   6.053   3.472   3.214  0.0274  0.1038 -0.3196
 6696TIP3    H241724   6.170   3.409   3.287  1.1680 -1.0719 -3.0143
 6697TIP3   OH241725   6.617   6.415   4.175 -0.3417  0.3581 -0.7279
 6697TIP3    H141726   6.597   6.321   4.183  0.0916  0.4491  2.0804
 6697TIP3    H241727   6.696   6.428   4.226 -0.9196  2.4305 -0.2694
 6698TIP3   OH241728   6.788   6.841   1.158  0.1941  0.3544  0.2362
 6698TIP3    H141729   6.801   6.747   1.147  0.1731  0.2101  1.3690
 6698TIP3    H241730   6.695   6.851   1.175 -0.0093  0.7055 -0.9947
 6699TIP3   OH241731   1.439   0.410   1.602 -0.4617  0.1258  0.1319
 6699TIP3    H141732   1.472   0.430   1.515 -1.5018  0.9591 -0.0823
 6699TIP3    H241733   1.458   0.489   1.653  0.2683 -0.4080  0.7083
 6700TIP3   OH241734   3.573   6.828   3.353 -0.0184 -0.2713  0.1615
 6700TIP3    H141735   3.656   6.834   3.401 -0.1267  0.2609  0.2869
 6700TIP3    H241736   3.526   6.756   3.396 -0.2458  0.3944  1.0789
 6701TIP3   OH241737   2.012   3.040   0.449 -0.3253  0.0472 -0.0327
 6701TIP3    H141738   2.030   3.063   0.358 -0.3702  0.0759 -0.0346
 6701TIP3    H241739   2.071   3.096   0.500 -0.0992 -0.1732 -0.0537
 6702TIP3   OH241740   4.366   4.439   0.297  0.3373  0.0737 -0.0987
 6702TIP3    H141741   4.287   4.387   0.313  2.1146 -2.4525  1.0944
 6702TIP3    H241742   4.402   4.403   0.215  1.8026 -0.9853  0.9545
 6703TIP3   OH241743   3.313   5.398   8.321  0.2623  0.7237  1.1522
 6703TIP3    H141744   3.243   5.464   8.317  0.2258  0.6286 -1.0343
 6703TIP3    H241745   3.370   5.419   8.246  0.8838 -1.0366  1.0848
 6704TIP3   OH241746   5.295   3.709   2.875 -0.4842  0.4065  0.2867
 6704TIP3    H141747   5.322   3.760   2.798 -1.0984 -1.4496 -1.2428
 6704TIP3    H241748   5.236   3.767   2.922 -2.3069  0.7145 -2.1502
 6705TIP3   OH241749   4.791   0.430   0.143  0.1501 -0.6160  0.1755
 6705TIP3    H141750   4.840   0.415   0.224  0.2588 -0.7128  0.0926
 6705TIP3    H241751   4.735   0.353   0.134 -0.5741 -0.1593  0.6658
 6706TIP3   OH241752   3.351   4.001   1.169  0.6589  0.2207  0.1236
 6706TIP3    H141753   3.350   3.913   1.207 -2.3204 -0.7894 -2.0066
 6706TIP3    H241754   3.361   3.987   1.075  0.8176  2.2274 -0.2061
 6707TIP3   OH241755   3.284   3.076   3.978 -0.3187 -0.1383  0.2885
 6707TIP3    H141756   3.230   3.055   3.902 -0.3440 -0.2012  0.3236
 6707TIP3    H241757   3.357   3.126   3.942 -1.6174  2.0730  0.5141
 6708TIP3   OH241758   0.291   3.828   3.501  0.5298  0.0965  0.3442
 6708TIP3    H141759   0.363   3.814   3.440  0.2513 -0.1386  0.0654
 6708TIP3    H241760   0.233   3.890   3.456  0.4853  0.1755  0.5078
 6709TIP3   OH241761   1.706   1.008   0.891 -0.0329  0.4639 -0.3998
 6709TIP3    H141762   1.649   1.070   0.846 -1.5777 -2.2336 -2.4724
 6709TIP3    H241763   1.754   0.965   0.820  1.3309 -0.3622  0.9865
 6710TIP3   OH241764   6.588   0.959   0.109 -0.0495  0.0719  0.2595
 6710TIP3    H141765   6.540   0.886   0.149 -0.1235 -0.0630 -0.0770
 6710TIP3    H241766   6.602   0.932   0.019  0.9011 -0.0084  0.4189
 6711TIP3   OH241767   5.480   6.678   3.145  0.3781  0.3636 -0.5769
 6711TIP3    H141768   5.411   6.660   3.081 -2.4961  0.0033  2.3719
 6711TIP3    H241769   5.509   6.592   3.175  0.3533  0.5212 -0.0879
 6712TIP3   OH241770   4.887   6.935   3.920 -0.3592 -0.1447  0.0898
 6712TIP3    H141771   4.820   6.899   3.862 -1.7474 -1.4659  2.3569
 6712TIP3    H241772   4.920   6.860   3.969  2.2060  0.6225 -0.3179
 6713TIP3   OH241773   3.125   1.944   1.053  0.2790  0.6613  0.1032
 6713TIP3    H141774   3.054   1.952   0.989 -0.2210 -0.2332  0.5303
 6713TIP3    H241775   3.114   2.020   1.111  1.3698  2.0744 -1.4423
 6714TIP3   OH241776   5.417   4.263   3.058 -0.0179  0.4045 -0.1181
 6714TIP3    H141777   5.390   4.353   3.075  2.9883  1.5694 -0.8234
 6714TIP3    H241778   5.383   4.244   2.970  1.0006  1.6672 -0.8281
 6715TIP3   OH241779   0.256   2.755   2.327 -0.8410 -0.2983 -0.6959
 6715TIP3    H141780   0.184   2.729   2.270 -0.9902  2.8124 -2.1572
 6715TIP3    H241781   0.332   2.759   2.269  0.2668 -2.2117  0.5362
 6716TIP3   OH241782   5.957   5.364   2.745  0.3203 -0.1025 -0.1407
 6716TIP3    H141783   5.883   5.362   2.805  1.7686  1.0961  1.8147
 6716TIP3    H241784   6.033   5.346   2.800  1.4927 -1.7824 -2.1529
 6717TIP3   OH241785   4.673   5.178   3.262 -0.3179  0.1910 -0.2145
 6717TIP3    H141786   4.592   5.224   3.238  0.1862  0.9495 -0.4996
 6717TIP3    H241787   4.644   5.090   3.286 -1.1901  0.3337 -0.6855
 6718TIP3   OH241788   3.089   0.553   2.809 -0.1533  0.4847  0.0104
 6718TIP3    H141789   3.113   0.639   2.774  0.9567  0.1119 -0.1968
 6718TIP3    H241790   3.169   0.502   2.803 -0.0758  0.1806  2.4963
 6719TIP3   OH241791   4.148   2.238   1.639 -0.6829  0.9504 -0.2136
 6719TIP3    H141792   4.052   2.239   1.644 -0.6439  0.1758  1.2075
 6719TIP3    H241793   4.171   2.145   1.637 -0.0626  0.9347 -5.2259
 6720TIP3   OH241794   3.084   2.301   2.707 -0.6686 -0.1189  0.0631
 6720TIP3    H141795   3.120   2.282   2.620 -1.4363 -0.6325 -0.1562
 6720TIP3    H241796   3.085   2.216   2.752 -1.8338 -0.2127 -0.0447
 6721TIP3   OH241797   3.440   2.059   2.075 -0.2577 -0.3859  0.8906
 6721TIP3    H141798   3.404   2.001   2.007  0.9249 -1.5538  1.2132
 6721TIP3    H241799   3.483   1.999   2.136  1.9437  0.9086  0.6927
 6722TIP3   OH241800   6.939   6.069   3.510  0.0989 -0.0621 -0.2194
 6722TIP3    H141801   6.915   6.021   3.589 -0.5172 -0.3100 -0.5489
 6722TIP3    H241802   6.993   6.141   3.541  0.4014 -0.5261  0.3612
 6723TIP3   OH241803   4.957   6.308   0.396 -0.9638  0.4256  0.5037
 6723TIP3    H141804   4.931   6.217   0.404  1.0079 -0.3409 -0.9285
 6723TIP3    H241805   5.041   6.305   0.349 -1.2079  3.0091 -0.2714
 6724TIP3   OH241806   1.532   6.067   1.477  0.0073 -0.1255  0.0838
 6724TIP3    H141807   1.569   6.150   1.507  1.1605 -0.9641  1.1091
 6724TIP3    H241808   1.438   6.077   1.490 -0.2303  2.0094 -2.3979
 6725TIP3   OH241809   6.225   0.091   0.520  0.8396 -1.2271  0.0949
 6725TIP3    H141810   6.166   0.114   0.591  1.6518 -0.2681  0.4964
 6725TIP3    H241811   6.168   0.066   0.448 -0.2418  2.3868 -0.4826
 6726TIP3   OH241812   1.275   4.323   1.211 -0.5201 -0.2190  0.1475
 6726TIP3    H141813   1.315   4.286   1.289  0.0124 -1.9881 -0.9128
 6726TIP3    H241814   1.346   4.330   1.148 -1.4729 -1.7486 -1.1815
 6727TIP3   OH241815   3.838   5.335   3.374  0.7500  0.1710 -0.3390
 6727TIP3    H141816   3.842   5.240   3.360  0.1711  0.2309 -0.9575
 6727TIP3    H241817   3.894   5.372   3.306  3.1064  0.1818  1.4727
 6728TIP3   OH241818   1.411   1.246   8.106 -0.3354 -0.2911 -0.4024
 6728TIP3    H141819   1.359   1.253   8.026 -1.2093  2.4079  0.3088
 6728TIP3    H241820   1.354   1.202   8.169 -1.6015  1.9139  0.1217
 6729TIP3   OH241821   5.868   2.048   2.557 -0.0246  0.2385 -0.0930
 6729TIP3    H141822   5.813   1.972   2.536  0.6328 -0.1805 -0.3711
 6729TIP3    H241823   5.943   2.010   2.603  0.1138  0.7721  0.1183
 6730TIP3   OH241824   3.464   5.072   0.055 -0.0239 -0.1555 -0.1065
 6730TIP3    H141825   3.461   5.098  -0.037  1.7417  0.1168 -0.1268
 6730TIP3    H241826   3.506   4.986   0.055  4.0888  1.6063  0.6280
 6731TIP3   OH241827   5.375   6.709   0.056  0.1849  0.0176 -0.7846
 6731TIP3    H141828   5.442   6.761   0.100 -0.3453 -0.1505  0.2603
 6731TIP3    H241829   5.401   6.618   0.072 -0.7538 -0.0662  0.4221
 6732TIP3   OH241830   0.430   4.682   0.931 -0.3142  0.1113 -0.5113
 6732TIP3    H141831   0.396   4.727   0.854 -3.3464  0.2626  0.7568
 6732TIP3    H241832   0.445   4.592   0.902 -0.5321  0.3868 -1.4930
 6733TIP3   OH241833   2.059   1.624   3.194 -0.5777  0.1744 -0.1946
 6733TIP3    H141834   2.037   1.638   3.286  0.6042 -0.2237  0.1648
 6733TIP3    H241835   2.099   1.706   3.166  1.0264 -0.4132  0.2735
 6734TIP3   OH241836   6.521   1.227   1.639 -0.0955  0.2096  0.2230
 6734TIP3    H141837   6.586   1.209   1.571 -0.5161 -1.9152  0.3036
 6734TIP3    H241838   6.437   1.216   1.596 -0.3684 -0.0018  0.7992
 6735TIP3   OH241839   3.866   5.661   2.013 -0.7933 -0.4866  0.4348
 6735TIP3    H141840   3.918   5.646   1.934  1.5640  0.1223  1.7658
 6735TIP3    H241841   3.806   5.587   2.017 -0.2592 -1.0680 -1.3715
 6736TIP3   OH241842   4.545   4.955   1.921 -0.0461  0.7479  0.1455
 6736TIP3    H141843   4.463   4.988   1.959 -2.4756 -1.2968 -2.8439
 6736TIP3    H241844   4.534   4.965   1.827  1.8482 -2.3258 -0.5443
 6737TIP3   OH241845   3.308   1.543   2.855 -0.0050 -0.0279 -0.0225
 6737TIP3    H141846   3.273   1.572   2.771  0.0732 -0.5513 -0.2373
 6737TIP3    H241847   3.233   1.542   2.914 -0.3015 -0.8545 -0.4024
 6738TIP3   OH241848   6.859   2.438   1.497 -0.0571  0.3990  0.0159
 6738TIP3    H141849   6.820   2.453   1.583 -0.4704 -0.4756 -0.0083
 6738TIP3    H241850   6.839   2.518   1.448  0.2113  0.9172  0.7345
 6739TIP3   OH241851   3.482   2.508   3.404  0.1069  0.1519  0.3409
 6739TIP3    H141852   3.542   2.497   3.477  0.2998 -1.5711 -0.0100
 6739TIP3    H241853   3.418   2.572   3.434  2.1114  2.1047  0.7032
 6740TIP3   OH241854   5.946   3.040   0.113 -0.1088  0.7280  0.0125
 6740TIP3    H141855   5.927   2.993   0.031 -1.4857 -0.1281  0.7841
 6740TIP3    H241856   5.884   3.112   0.115 -2.6017 -1.2828  1.8934
 6741TIP3   OH241857   6.209   5.590   8.290 -0.3306 -0.6056 -0.5806
 6741TIP3    H141858   6.297   5.596   8.252 -0.1365 -0.8823 -0.1816
 6741TIP3    H241859   6.222   5.543   8.373 -0.5800  1.0103  0.4002
 6742TIP3   OH241860   2.211   2.962   3.776  0.1673  0.2217 -0.2407
 6742TIP3    H141861   2.211   2.867   3.761 -1.2481  0.2010 -0.2537
 6742TIP3    H241862   2.213   2.970   3.872 -1.3927  0.1168 -0.1725
 6743TIP3   OH241863   1.350   4.985   1.268  0.0322 -0.2400  0.0756
 6743TIP3    H141864   1.413   4.962   1.337 -0.4047  0.6540  0.7983
 6743TIP3    H241865   1.359   5.080   1.259 -0.9678 -0.1554 -0.0603
 6744TIP3   OH241866   3.259   5.339   2.662 -0.3546 -0.3577  0.0730
 6744TIP3    H141867   3.243   5.289   2.742 -0.3116  1.1207  1.0240
 6744TIP3    H241868   3.205   5.417   2.670  0.3630  0.2744 -0.9021
 6745TIP3   OH241869   6.120   3.269   3.506 -0.4858  0.5809 -0.5590
 6745TIP3    H141870   6.139   3.341   3.567  1.6252 -0.7167  0.4311
 6745TIP3    H241871   6.087   3.199   3.561 -0.4881  0.0789 -1.1955
 6746TIP3   OH241872   0.653   1.305   8.301  0.3742 -0.1399 -0.0421
 6746TIP3    H141873   0.601   1.379   8.270 -1.1860 -1.3618 -0.4726
 6746TIP3    H241874   0.691   1.266   8.222  0.4810 -0.2968  0.0846
 6747TIP3   OH241875   2.508   4.383   1.703 -0.1514  0.0273  0.3296
 6747TIP3    H141876   2.439   4.339   1.753 -1.1394  1.2372  0.0684
 6747TIP3    H241877   2.465   4.458   1.663  1.1512  0.3719 -0.4864
 6748TIP3   OH241878   6.852   4.401   3.680  0.2077 -0.6000  0.0004
 6748TIP3    H141879   6.844   4.336   3.750  0.3241 -0.1522  0.4354
 6748TIP3    H241880   6.930   4.375   3.631  1.1883  0.1116  1.1361
 6749TIP3   OH241881   0.593   4.097   1.208  0.0975  0.0397  0.2277
 6749TIP3    H141882   0.546   4.053   1.137 -0.2795 -0.6638  0.9052
 6749TIP3    H241883   0.662   4.146   1.163 -3.4480  4.3412 -1.2790
 6750TIP3   OH241884   2.776   3.810   1.374  0.2015 -0.4241 -0.0223
 6750TIP3    H141885   2.840   3.852   1.432 -1.4111  1.4359  0.5099
 6750TIP3    H241886   2.742   3.882   1.321 -1.5660 -1.3357 -0.1642
 6751TIP3   OH241887   5.960   3.153   3.297  0.0134 -0.0405  0.0360
 6751TIP3    H141888   5.975   3.060   3.285 -1.4395 -0.8644  3.4644
 6751TIP3    H241889   6.019   3.179   3.367 -1.2981  1.0189  0.7982
 6752TIP3   OH241890   4.840   3.883   2.172 -0.2659  0.3624 -0.1437
 6752TIP3    H141891   4.774   3.878   2.103 -1.5952  0.7227  1.0467
 6752TIP3    H241892   4.895   3.958   2.148 -0.1716 -0.0561 -1.2536
 6753TIP3   OH241893   1.459   1.431   0.358  0.9560 -0.4504  0.6980
 6753TIP3    H141894   1.431   1.398   0.273  0.0841 -1.1870  1.2438
 6753TIP3    H241895   1.426   1.366   0.421  1.1834  0.3063  1.6251
 6754TIP3   OH241896   0.988   2.322   1.268  0.4240 -0.2671  0.2283
 6754TIP3    H141897   0.950   2.350   1.185 -1.7044  0.8753  1.4899
 6754TIP3    H241898   0.975   2.228   1.271 -1.1262 -0.0798 -0.0020
 6755TIP3   OH241899   2.831   1.272   0.021  0.1290 -0.6303 -0.3919
 6755TIP3    H141900   2.752   1.283  -0.031 -0.4335 -0.9608  0.3717
 6755TIP3    H241901   2.835   1.178   0.039  0.7773 -0.6358 -0.5472
 6756TIP3   OH241902   3.264   5.988   3.933 -0.2792  1.1201  0.1209
 6756TIP3    H141903   3.297   5.909   3.975 -1.2710  0.3124 -0.5823
 6756TIP3    H241904   3.310   5.991   3.849 -1.8495  0.0312 -0.8304
 6757TIP3   OH241905   0.390   1.794   1.357  0.0771 -0.0543 -0.3451
 6757TIP3    H141906   0.396   1.826   1.447 -0.4901  1.1591 -0.7102
 6757TIP3    H241907   0.369   1.873   1.306 -1.1027 -0.9790 -1.3360
 6758TIP3   OH241908   2.349   3.257   0.272  0.0660  0.7631  0.3293
 6758TIP3    H141909   2.286   3.327   0.291 -0.9218  0.5273 -1.7801
 6758TIP3    H241910   2.425   3.303   0.237 -0.3891  0.8550 -0.5790
 6759TIP3   OH241911   3.634   0.622   0.067  0.4294 -0.7587  0.1269
 6759TIP3    H141912   3.614   0.537   0.029 -0.4557 -0.9687  0.9979
 6759TIP3    H241913   3.566   0.635   0.134  0.0186  1.0042 -0.5557
 6760TIP3   OH241914   5.915   5.665   1.682 -0.1522 -0.9759 -0.1016
 6760TIP3    H141915   5.854   5.608   1.635  0.9763 -1.5345 -0.9452
 6760TIP3    H241916   5.887   5.660   1.773 -1.0625 -1.5958 -0.4026
 6761TIP3   OH241917   2.758   3.931   0.954  0.4696 -0.0803 -0.0392
 6761TIP3    H141918   2.713   3.850   0.979  0.6421  0.2374  1.4430
 6761TIP3    H241919   2.742   3.940   0.860 -0.4719 -1.2555 -0.0185
 6762TIP3   OH241920   5.945   0.871   2.071  0.2966  0.6376  0.4282
 6762TIP3    H141921   6.034   0.869   2.105  1.2067  0.0660 -1.7836
 6762TIP3    H241922   5.901   0.797   2.113  0.0201  2.3880  3.4440
 6763TIP3   OH241923   4.135   5.013   1.683 -0.6915 -0.0358 -0.7169
 6763TIP3    H141924   4.122   5.001   1.777 -0.4471  1.2963 -0.5043
 6763TIP3    H241925   4.196   4.944   1.659 -1.0201 -0.6047  0.0240
 6764TIP3   OH241926   2.316   1.128   2.528  0.0571  0.1312 -0.3746
 6764TIP3    H141927   2.323   1.200   2.591 -0.0532  0.1112 -0.3392
 6764TIP3    H241928   2.380   1.150   2.460  0.8856 -0.3313  0.2208
 6765TIP3   OH241929   1.403   4.252   1.474  0.0206  0.0896 -0.2836
 6765TIP3    H141930   1.467   4.320   1.495  0.1938  0.3839 -1.6592
 6765TIP3    H241931   1.390   4.206   1.556  2.0182  0.0066  0.0440
 6766TIP3   OH241932   1.332   5.867   3.567 -0.3302 -0.9780  0.1299
 6766TIP3    H141933   1.378   5.912   3.638 -0.2209  0.4224 -0.7848
 6766TIP3    H241934   1.241   5.896   3.575 -0.1880 -0.2606 -0.6921
 6767TIP3   OH241935   0.468   2.542   4.426 -0.6402 -0.1452 -0.3646
 6767TIP3    H141936   0.525   2.577   4.494 -0.1892  0.1307 -0.8716
 6767TIP3    H241937   0.486   2.448   4.426  0.2976  0.0130 -0.9313
 6768TIP3   OH241938   5.578   3.933   0.114 -0.0737 -0.3394  0.8305
 6768TIP3    H141939   5.484   3.939   0.099  0.2854  2.4019 -1.1856
 6768TIP3    H241940   5.601   3.844   0.087 -1.5236  0.3064 -3.2094
 6769TIP3   OH241941   5.303   3.144   3.191 -0.3033  0.0740 -0.5931
 6769TIP3    H141942   5.385   3.137   3.238 -0.0240  0.6594 -0.9752
 6769TIP3    H241943   5.239   3.172   3.257 -0.1523 -0.1661 -0.3445
 6770TIP3   OH241944   2.512   1.378   0.872 -0.0824 -0.2585 -0.6072
 6770TIP3    H141945   2.581   1.355   0.934  0.2506 -2.0046 -1.5738
 6770TIP3    H241946   2.444   1.419   0.926  0.6941 -0.6659  0.7170
 6771TIP3   OH241947   3.966   5.360   2.381  0.7313 -0.1597 -0.0408
 6771TIP3    H141948   4.003   5.415   2.451  1.4873 -0.2795 -0.3400
 6771TIP3    H241949   3.899   5.308   2.425 -0.2587  1.2405  0.1925
 6772TIP3   OH241950   1.455   1.467   8.289  0.0559 -0.4037 -0.2791
 6772TIP3    H141951   1.543   1.450   8.323  0.6836 -0.1003 -1.6940
 6772TIP3    H241952   1.430   1.387   8.244 -0.1991 -0.3183 -0.2934
 6773TIP3   OH241953   5.366   2.260   1.475 -0.4695 -0.5834  0.0246
 6773TIP3    H141954   5.388   2.202   1.402  1.5054 -1.0211  0.8989
 6773TIP3    H241955   5.350   2.202   1.549  2.5843 -0.1563  1.1913
 6774TIP3   OH241956   0.497   0.310   2.523  0.1551 -0.2528 -0.1032
 6774TIP3    H141957   0.525   0.360   2.600  0.1370  2.3454 -1.6394
 6774TIP3    H241958   0.579   0.290   2.477  0.0746 -0.2657 -0.2430
 6775TIP3   OH241959   6.763   5.291   2.882 -0.0067  0.2971 -0.5439
 6775TIP3    H141960   6.803   5.320   2.964 -0.6997  0.7629 -0.3628
 6775TIP3    H241961   6.756   5.371   2.829 -1.9911  0.5425 -0.0170
 6776TIP3   OH241962   2.463   2.362   8.555  0.1579  0.1890  0.1807
 6776TIP3    H141963   2.420   2.448   8.552  0.2211  0.2832  1.4343
 6776TIP3    H241964   2.552   2.379   8.526  0.2127  0.5850  0.5667
 6777TIP3   OH241965   5.576   2.892   1.678  0.7053 -0.0205 -0.4503
 6777TIP3    H141966   5.605   2.902   1.587  0.4800  1.8475 -0.3560
 6777TIP3    H241967   5.604   2.804   1.702  0.6169 -0.6340 -2.3798
 6778TIP3   OH241968   0.801   4.278   3.558 -0.2424  0.2387 -0.3792
 6778TIP3    H141969   0.728   4.229   3.597 -0.1687 -0.3540 -0.9710
 6778TIP3    H241970   0.874   4.217   3.557  1.1710  1.6525  2.7967
 6779TIP3   OH241971   2.082   2.540   3.077 -0.4988 -0.3070  0.4054
 6779TIP3    H141972   2.131   2.508   3.153  0.2982  0.5866  0.2874
 6779TIP3    H241973   2.149   2.572   3.017 -1.0834 -1.3618 -0.8701
 6780TIP3   OH241974   5.948   3.437   8.538 -0.1899  0.2695  0.0328
 6780TIP3    H141975   5.952   3.515   8.592  1.7767 -0.1601  0.5671
 6780TIP3    H241976   5.975   3.466   8.451  0.0576  0.2699  0.1114
 6781TIP3   OH241977   5.417   4.990   3.051  0.1286 -0.3807 -0.0046
 6781TIP3    H141978   5.325   5.003   3.075 -1.1129 -1.3294 -3.5705
 6781TIP3    H241979   5.443   5.073   3.012  0.3781 -0.5164 -0.1243
 6782TIP3   OH241980   6.534   5.450   0.707  0.2312 -0.1154 -0.5543
 6782TIP3    H141981   6.554   5.371   0.758 -0.0919  0.5361  0.6324
 6782TIP3    H241982   6.451   5.430   0.664 -0.0213 -0.3057  0.0126
 6783TIP3   OH241983   3.157   4.230   0.332  0.0824  0.4300  0.0248
 6783TIP3    H141984   3.166   4.147   0.285 -0.2400 -1.1076  2.4966
 6783TIP3    H241985   3.072   4.264   0.304 -0.4290 -0.7995  0.0378
 6784TIP3   OH241986   4.275   1.903   8.369 -0.4257 -0.7677  0.1747
 6784TIP3    H141987   4.221   1.972   8.330 -0.0441 -1.1168 -0.9982
 6784TIP3    H241988   4.323   1.865   8.296  2.6253  0.5386  1.3527
 6785TIP3   OH241989   3.250   2.337   0.421  0.2233  0.2448 -0.4361
 6785TIP3    H141990   3.248   2.279   0.344 -1.0114 -0.8371  0.3761
 6785TIP3    H241991   3.238   2.279   0.495 -2.8278  1.6377  0.3396
 6786TIP3   OH241992   0.399   5.891   0.581 -0.5513  0.1644 -0.1143
 6786TIP3    H141993   0.323   5.890   0.523 -1.3799 -0.9497  0.9267
 6786TIP3    H241994   0.439   5.804   0.570 -0.9382 -0.2110  1.2067
 6787TIP3   OH241995   4.566   4.301   0.106  0.1561 -0.0163  0.2226
 6787TIP3    H141996   4.616   4.335   0.180  1.1618  0.7547 -0.7799
 6787TIP3    H241997   4.629   4.295   0.035 -0.7149 -1.0964 -0.4851
 6788TIP3   OH241998   3.705   6.687   4.007  0.8540  0.5414 -0.4694
 6788TIP3    H141999   3.770   6.660   3.942  0.4186 -2.4633  0.2065
 6788TIP3    H242000   3.629   6.714   3.955  0.3148 -2.3235 -1.3110
 6789TIP3   OH242001   4.541   4.113   1.112 -0.3634 -0.4182  1.1980
 6789TIP3    H142002   4.497   4.178   1.166  1.3574  1.6981  0.2437
 6789TIP3    H242003   4.587   4.165   1.045  0.0212 -2.7200 -0.4597
 6790TIP3   OH242004   0.936   4.566   2.011 -0.3468 -0.4877  0.0831
 6790TIP3    H142005   1.007   4.621   2.044 -0.6083  0.8075 -1.4026
 6790TIP3    H242006   0.974   4.478   2.008  0.1872 -0.3903  2.1868
 6791TIP3   OH242007   2.465   1.933   1.105  0.8177  0.0111 -0.5998
 6791TIP3    H142008   2.505   1.972   1.027 -0.1750  0.9804 -0.6504
 6791TIP3    H242009   2.399   1.997   1.132 -1.1986 -1.8058 -0.9506
 6792TIP3   OH242010   5.785   5.052   0.068  0.4901 -0.0771 -0.0075
 6792TIP3    H142011   5.739   5.041   0.152  0.3205 -1.3345 -0.2424
 6792TIP3    H242012   5.874   5.022   0.085  0.7524  0.6795 -0.0124
 6793TIP3   OH242013   0.498   3.641   3.828 -0.2791  0.3667  0.1811
 6793TIP3    H142014   0.583   3.664   3.865 -0.4942  0.4777  0.6066
 6793TIP3    H242015   0.483   3.550   3.856 -0.6304  0.5866  0.7255
 6794TIP3   OH242016   5.889   1.567   2.972  0.4571 -0.5094  0.2463
 6794TIP3    H142017   5.855   1.543   3.058 -0.0228  0.8837  0.4754
 6794TIP3    H242018   5.822   1.538   2.910  0.5361 -0.9961  0.3869
 6795TIP3   OH242019   6.731   0.904   1.631  0.1711  0.1664 -0.1182
 6795TIP3    H142020   6.806   0.862   1.589 -0.1457 -0.3355 -0.1886
 6795TIP3    H242021   6.655   0.856   1.598 -0.3448  1.8766 -1.5393
 6796TIP3   OH242022   6.870   2.509   3.121  0.1495  0.3738 -0.3155
 6796TIP3    H142023   6.933   2.466   3.062  2.5067  0.7132  1.7632
 6796TIP3    H242024   6.804   2.442   3.138  1.7762 -1.2530  0.0079
 6797TIP3   OH242025   1.293   5.595   0.291 -0.2860  0.1604 -0.1995
 6797TIP3    H142026   1.273   5.688   0.304  3.0977  0.8517  1.3341
 6797TIP3    H242027   1.349   5.594   0.213 -1.9457 -0.9319 -1.4234
 6798TIP3   OH242028   5.568   1.288   3.177  0.5240 -0.2171 -0.4345
 6798TIP3    H142029   5.616   1.371   3.177  0.4832 -0.1651 -1.8734
 6798TIP3    H242030   5.476   1.314   3.173  0.3564 -0.3284  1.6190
 6799TIP3   OH242031   4.422   0.290   1.980 -0.1507  0.6146  0.3793
 6799TIP3    H142032   4.474   0.325   2.052  0.9000 -0.7412  0.3076
 6799TIP3    H242033   4.467   0.320   1.901  0.6141 -0.6374  0.3175
 6800TIP3   OH242034   6.375   3.502   1.384  0.5089 -0.2058 -0.1924
 6800TIP3    H142035   6.464   3.498   1.350  0.3766 -0.8055 -0.4825
 6800TIP3    H242036   6.320   3.499   1.306  0.2331  0.3532 -0.0272
 6801TIP3   OH242037   5.034   5.075   1.959 -0.9279 -0.2169 -0.0011
 6801TIP3    H142038   5.124   5.078   1.926 -0.4939 -1.6841  1.0029
 6801TIP3    H242039   5.039   5.030   2.043 -2.2197  2.1226  1.4569
 6802TIP3   OH242040   5.313   0.763   3.996  0.2271  0.0024  0.1448
 6802TIP3    H142041   5.230   0.720   4.017 -1.0254  1.4467 -1.5223
 6802TIP3    H242042   5.287   0.841   3.945  2.5326  1.1620  0.6121
 6803TIP3   OH242043   5.642   2.673   2.557 -0.5519  0.4870 -0.4123
 6803TIP3    H142044   5.699   2.749   2.559 -0.4513  0.4051  1.3239
 6803TIP3    H242045   5.560   2.702   2.597 -0.0398 -0.6200  1.5917
 6804TIP3   OH242046   2.852   0.459   1.195 -0.0401  0.3029  0.8462
 6804TIP3    H142047   2.883   0.370   1.209 -0.0598 -0.3669 -2.5484
 6804TIP3    H242048   2.919   0.499   1.139 -1.4203  1.4418 -0.0520
 6805TIP3   OH242049   2.916   3.534   3.257 -0.3428  0.0922 -0.5942
 6805TIP3    H142050   2.939   3.605   3.316 -0.3319  0.0726 -0.5748
 6805TIP3    H242051   2.943   3.455   3.304  0.1156  0.1033 -0.8359
 6806TIP3   OH242052   2.675   6.585   3.390 -0.1151  0.1291  0.5463
 6806TIP3    H142053   2.615   6.531   3.441  0.7695 -1.0431  0.4039
 6806TIP3    H242054   2.693   6.532   3.312  2.1781 -0.2374  1.2327
 6807TIP3   OH242055   5.471   4.155   3.339  0.7089 -0.0100 -0.1938
 6807TIP3    H142056   5.445   4.179   3.249  0.5962  1.5404  0.2253
 6807TIP3    H242057   5.566   4.163   3.339  0.7382 -0.3666 -0.2744
 6808TIP3   OH242058   1.579   0.856   1.913  0.2041  0.2588 -0.1065
 6808TIP3    H142059   1.609   0.856   2.004  1.7550 -0.6954 -0.5746
 6808TIP3    H242060   1.495   0.901   1.915 -1.4244 -2.5682  2.3503
 6809TIP3   OH242061   1.090   0.605   2.505  0.1002 -0.5092 -0.4098
 6809TIP3    H142062   1.049   0.689   2.527 -1.2471 -1.2720  0.1053
 6809TIP3    H242063   1.184   0.620   2.519 -0.2995  0.2609  1.8377
 6810TIP3   OH242064   6.435   0.738   0.190 -0.3739  0.6498  0.3121
 6810TIP3    H142065   6.368   0.702   0.132 -0.1088  1.0317 -0.2379
 6810TIP3    H242066   6.416   0.699   0.275 -2.0508  1.7183  0.4578
 6811TIP3   OH242067   0.196   3.331   3.263  0.3309 -0.3238  0.2836
 6811TIP3    H142068   0.248   3.297   3.191 -0.9929  1.0166 -1.3835
 6811TIP3    H242069   0.238   3.414   3.287 -0.9882  0.7968 -1.1145
 6812TIP3   OH242070   0.843   1.328   0.270 -0.1495 -0.8085  0.0127
 6812TIP3    H142071   0.825   1.373   0.352  1.3696 -0.6756  0.2933
 6812TIP3    H242072   0.780   1.366   0.208  0.8037  1.4797  0.3292
 6813TIP3   OH242073   6.760   4.586   0.739 -0.2491  0.7180 -0.0302
 6813TIP3    H142074   6.679   4.636   0.734 -0.9406 -0.1791  1.5509
 6813TIP3    H242075   6.733   4.498   0.766  1.0479 -0.2514 -1.6278
 6814TIP3   OH242076   1.015   1.926   3.500  0.5980 -0.5929 -0.3898
 6814TIP3    H142077   0.984   1.887   3.582  0.4600  0.4485  0.0701
 6814TIP3    H242078   1.037   2.016   3.524  2.6149 -0.8853 -1.0371
 6815TIP3   OH242079   6.133   2.394   0.989  0.6419 -0.1554 -0.5363
 6815TIP3    H142080   6.217   2.405   0.944  0.8393  1.0225  0.0719
 6815TIP3    H242081   6.071   2.443   0.935  0.5494 -0.1444 -0.4199
 6816TIP3   OH242082   2.449   6.060   0.703 -0.0014  0.5231  0.2784
 6816TIP3    H142083   2.365   6.095   0.672 -0.3550 -1.1405 -0.7318
 6816TIP3    H242084   2.514   6.120   0.666 -0.6516  0.8845 -0.3176
 6817TIP3   OH242085   6.204   5.892   0.852  0.0550  0.5687 -0.0403
 6817TIP3    H142086   6.195   5.808   0.809 -0.5841 -1.1760  3.1415
 6817TIP3    H242087   6.297   5.900   0.871  0.1644  0.7609 -0.6472
 6818TIP3   OH242088   1.526   0.742   1.023  0.4665 -0.1467  0.4651
 6818TIP3    H142089   1.498   0.651   1.031 -0.3165  0.1053  0.6380
 6818TIP3    H242090   1.618   0.737   0.995  1.1435 -1.0161  2.6361
 6819TIP3   OH242091   4.031   5.231   2.163 -0.2310  0.2148 -0.1154
 6819TIP3    H142092   4.010   5.277   2.245  1.4777 -2.3884  1.9492
 6819TIP3    H242093   4.053   5.143   2.191  1.5436 -0.4824 -3.3219
 6820TIP3   OH242094   6.694   2.653   8.268  0.0941 -0.2039 -0.1388
 6820TIP3    H142095   6.774   2.616   8.305 -0.8758 -0.7828  1.4297
 6820TIP3    H242096   6.709   2.748   8.270  1.4865 -0.3471 -1.6585
 6821TIP3   OH242097   3.436   1.781   0.617  0.5023  0.2559  0.0981
 6821TIP3    H142098   3.480   1.844   0.674  0.4306  0.9626 -0.6073
 6821TIP3    H242099   3.507   1.735   0.573  0.5544  0.3809  0.0496
 6822TIP3   OH242100   6.844   2.468   2.106  0.3127 -0.0855 -0.7312
 6822TIP3    H142101   6.924   2.520   2.117  1.5385 -2.2048  1.1000
 6822TIP3    H242102   6.875   2.377   2.100 -1.9686 -1.0080  0.3570
 6823TIP3   OH242103   4.314   1.119   2.636 -0.5647  0.1545  0.7391
 6823TIP3    H142104   4.225   1.088   2.622 -0.2748 -0.8592  1.0374
 6823TIP3    H242105   4.322   1.127   2.731 -0.0970 -0.5408  0.7676
 6824TIP3   OH242106   2.683   2.099   3.528  0.2472  0.4107 -0.2351
 6824TIP3    H142107   2.636   2.031   3.479  1.0999 -0.4266  0.0682
 6824TIP3    H242108   2.750   2.130   3.466  0.3655  0.4065 -0.1102
 6825TIP3   OH242109   2.484   6.471   3.572 -0.3605  0.4508  0.2656
 6825TIP3    H142110   2.404   6.419   3.577  0.8935 -1.9874 -2.1922
 6825TIP3    H242111   2.551   6.415   3.613  0.4055  1.8203  0.9837
 6826TIP3   OH242112   1.953   4.482   1.281  0.2259 -0.1306 -0.4213
 6826TIP3    H142113   1.952   4.545   1.353  0.9553  1.5729 -1.8184
 6826TIP3    H242114   1.948   4.396   1.323 -1.6921  0.8452  1.5272
 6827TIP3   OH242115   1.405   2.318   0.307  1.0871 -0.1190 -1.2147
 6827TIP3    H142116   1.328   2.354   0.351 -0.0922 -3.7688  0.1494
 6827TIP3    H242117   1.469   2.305   0.377  1.9455  0.4107 -1.8778
 6828TIP3   OH242118   5.778   2.673   1.211 -0.3348 -0.0135 -0.6680
 6828TIP3    H142119   5.755   2.687   1.303 -0.5543  0.7953 -0.8348
 6828TIP3    H242120   5.695   2.678   1.164 -0.1461  0.3091 -0.9811
 6829TIP3   OH242121   2.592   4.955   2.056 -0.9833 -0.2461  0.0942
 6829TIP3    H142122   2.601   4.869   2.098 -0.3818 -0.3325 -0.1879
 6829TIP3    H242123   2.643   5.014   2.112 -1.7281  0.0070  0.5069
 6830TIP3   OH242124   2.028   5.027   2.660 -0.5885 -0.1992 -0.1022
 6830TIP3    H142125   1.991   4.939   2.652  2.2488 -1.3842 -1.2793
 6830TIP3    H242126   2.021   5.064   2.572 -0.0927  0.0226 -0.0520
 6831TIP3   OH242127   0.536   5.835   1.004 -0.2552  0.2507 -1.1404
 6831TIP3    H142128   0.596   5.795   0.940  0.7037  1.7566 -1.2148
 6831TIP3    H242129   0.485   5.898   0.953 -0.0080  0.9250 -0.5685
 6832TIP3   OH242130   5.226   4.938   8.408 -0.5400 -0.1232  0.1423
 6832TIP3    H142131   5.218   4.882   8.331  0.1383 -0.9030  0.6247
 6832TIP3    H242132   5.301   4.995   8.388 -1.6874  1.1865 -0.6704
 6833TIP3   OH242133   0.788   5.350   2.412  0.3468  0.3892 -0.4501
 6833TIP3    H142134   0.731   5.323   2.339  0.9824  1.0101 -1.2037
 6833TIP3    H242135   0.876   5.327   2.382  0.3870 -2.6587  1.6373
 6834TIP3   OH242136   1.025   2.238   0.903  0.0873  0.0353 -0.2949
 6834TIP3    H142137   0.967   2.309   0.930  1.5611  0.5543  1.7317
 6834TIP3    H242138   1.093   2.280   0.851 -0.2138 -0.2619 -0.9442
 6835TIP3   OH242139   0.578   4.792   8.547  0.0327 -0.4002 -0.3509
 6835TIP3    H142140   0.528   4.751   8.476  0.0482 -0.7697 -0.1497
 6835TIP3    H242141   0.636   4.853   8.502  1.1894 -1.7865 -0.8209
 6836TIP3   OH242142   4.953   3.741   3.521  0.5471  0.1212  0.6775
 6836TIP3    H142143   5.021   3.692   3.567 -0.5544  0.6153  3.0118
 6836TIP3    H242144   4.874   3.729   3.575 -1.3431 -0.6946 -2.0714
 6837TIP3   OH242145   1.098   0.850   2.638 -0.1879 -0.2006 -0.1260
 6837TIP3    H142146   1.165   0.812   2.695 -0.6508 -0.9013 -0.0233
 6837TIP3    H242147   1.143   0.919   2.590  0.4752 -0.3141  0.3135
 6838TIP3   OH242148   6.395   4.030   4.328 -0.0817  0.0775 -0.0726
 6838TIP3    H142149   6.356   3.963   4.273  0.1622  0.8859 -1.2670
 6838TIP3    H242150   6.465   3.986   4.375  1.3189 -0.1233 -2.2326
 6839TIP3   OH242151   6.885   3.818   0.932 -0.7130  0.4207  0.4146
 6839TIP3    H142152   6.916   3.738   0.889 -0.5894  0.3151  0.6995
 6839TIP3    H242153   6.898   3.802   1.025  0.2737  1.1704  0.4223
 6840TIP3   OH242154   3.275   2.014   2.759 -0.3395  0.0677 -0.2129
 6840TIP3    H142155   3.355   2.065   2.746  0.0400 -0.7221 -1.1465
 6840TIP3    H242156   3.297   1.953   2.829  0.3200 -0.9909 -1.3142
 6841TIP3   OH242157   0.409   6.499   1.320 -0.4472 -0.6938  0.3554
 6841TIP3    H142158   0.452   6.562   1.262 -1.0643 -0.2114  0.4072
 6841TIP3    H242159   0.422   6.534   1.408 -1.5354 -0.1643  0.3203
 6842TIP3   OH242160   2.049   0.632   2.363 -0.4294 -0.4093 -0.7851
 6842TIP3    H142161   2.018   0.589   2.443 -1.0485 -0.2193 -0.9150
 6842TIP3    H242162   2.057   0.561   2.299 -1.2139 -0.3849 -0.9288
 6843TIP3   OH242163   1.561   3.283   1.756  0.1603 -0.5076 -0.1009
 6843TIP3    H142164   1.626   3.331   1.808 -0.4551  0.9674 -0.6534
 6843TIP3    H242165   1.514   3.351   1.707 -2.9104 -1.3247  1.4760
 6844TIP3   OH242166   3.086   2.136   1.279  0.4870  0.0434  0.1222
 6844TIP3    H142167   3.021   2.170   1.341  0.8986  0.3533  0.3826
 6844TIP3    H242168   3.113   2.212   1.228 -0.9075 -0.4440 -1.4465
 6845TIP3   OH242169   6.049   3.688   2.973  0.6287 -0.2093 -0.7777
 6845TIP3    H142170   6.046   3.601   3.011  0.8460 -0.3305 -1.0354
 6845TIP3    H242171   5.978   3.689   2.909  0.6769 -0.2234 -0.8314
 6846TIP3   OH242172   1.784   5.131   0.512  0.4863 -0.0925  0.2514
 6846TIP3    H142173   1.868   5.094   0.484 -0.0093  1.0941 -3.2831
 6846TIP3    H242174   1.718   5.075   0.470 -0.3451  1.5207 -0.6903
 6847TIP3   OH242175   6.013   2.519   1.212 -0.3559 -0.5644 -0.2789
 6847TIP3    H142176   5.929   2.565   1.206 -1.8063 -2.9305  0.5330
 6847TIP3    H242177   6.034   2.496   1.122 -0.2838  0.4836 -0.5451
 6848TIP3   OH242178   5.944   0.712   1.000 -0.0096 -0.2884 -0.1628
 6848TIP3    H142179   5.881   0.732   0.931  0.6199 -2.4290 -1.4628
 6848TIP3    H242180   5.936   0.618   1.014  0.0037  0.0471  2.6327
 6849TIP3   OH242181   1.936   6.428   1.622 -0.0318  0.3346  0.0023
 6849TIP3    H142182   1.961   6.494   1.557  0.5167 -0.5091 -0.6691
 6849TIP3    H242183   1.969   6.345   1.586 -0.2705 -0.2394  1.0627
 6850TIP3   OH242184   4.899   4.429   2.658 -0.1928 -0.6359 -0.0990
 6850TIP3    H142185   4.834   4.415   2.588 -1.9669  1.5744  0.9567
 6850TIP3    H242186   4.889   4.522   2.680  2.0859 -0.6870  1.4143
 6851TIP3   OH242187   2.483   2.998   0.515 -0.1437 -0.0065 -0.6096
 6851TIP3    H142188   2.406   2.950   0.546 -0.0289 -0.3103 -0.7924
 6851TIP3    H242189   2.496   3.066   0.581  0.1474 -0.7006  0.0625
 6852TIP3   OH242190   1.427   6.235   3.100 -0.2581  0.1176 -0.3308
 6852TIP3    H142191   1.396   6.312   3.054 -0.2678  0.7487  0.6965
 6852TIP3    H242192   1.351   6.176   3.101 -0.3845  0.2752 -0.7462
 6853TIP3   OH242193   0.995   3.114   8.318  0.0395  0.1712  0.4745
 6853TIP3    H142194   0.997   3.024   8.349  3.0021  0.2663  0.8529
 6853TIP3    H242195   1.075   3.124   8.267  0.2720  2.8228  1.1884
 6854TIP3   OH242196   1.956   4.904   2.987  0.6476 -0.1152 -0.3469
 6854TIP3    H142197   1.947   4.980   3.043 -0.2272 -0.3988 -0.0930
 6854TIP3    H242198   1.881   4.907   2.928  0.4282 -0.9474 -0.1278
 6855TIP3   OH242199   3.066   4.320   1.502  0.1869 -0.2735 -0.0546
 6855TIP3    H142200   3.137   4.292   1.445 -0.6106  0.2425 -1.3417
 6855TIP3    H242201   3.077   4.267   1.581  1.7499 -0.4820 -0.3791
 6856TIP3   OH242202   3.366   6.908   3.194 -0.6002  0.1905  0.4174
 6856TIP3    H142203   3.307   6.835   3.214  0.8345 -1.7899 -2.0969
 6856TIP3    H242204   3.448   6.884   3.237  0.0840 -0.0915 -0.9954
 6857TIP3   OH242205   3.196   1.445   1.650 -0.5625  0.7185 -0.2881
 6857TIP3    H142206   3.105   1.440   1.679 -0.8033 -0.6384 -1.1765
 6857TIP3    H242207   3.209   1.366   1.598  1.4986  0.2577  0.8218
 6858TIP3   OH242208   4.304   0.719   0.452 -0.0518 -0.4501 -0.1945
 6858TIP3    H142209   4.375   0.774   0.486  0.4832 -1.4929  0.4386
 6858TIP3    H242210   4.288   0.751   0.364  0.7007  0.2884 -0.0717
 6859TIP3   OH242211   4.218   3.945   1.362  0.7177 -0.3758 -0.3408
 6859TIP3    H142212   4.239   3.867   1.310  1.9664 -0.4680  0.2736
 6859TIP3    H242213   4.122   3.947   1.362  0.6152 -2.3915  0.2955
 6860TIP3   OH242214   5.499   3.332   1.801 -0.4923 -0.3896 -0.0825
 6860TIP3    H142215   5.538   3.392   1.864  0.8446 -1.6174  0.3059
 6860TIP3    H242216   5.498   3.247   1.845 -2.4365 -0.6674 -0.5814
 6861TIP3   OH242217   0.524   6.520   0.582 -0.0998 -0.2125  0.1438
 6861TIP3    H142218   0.506   6.452   0.647  1.6786  0.7456  1.7491
 6861TIP3    H242219   0.465   6.591   0.605 -2.2167 -1.2349 -1.7556
 6862TIP3   OH242220   4.948   4.536   1.152 -0.3233  0.3076 -0.6346
 6862TIP3    H142221   4.941   4.454   1.200 -0.5147 -0.6775 -2.2848
 6862TIP3    H242222   4.948   4.603   1.220 -2.1279 -0.9228  0.6753
 6863TIP3   OH242223   0.910   1.471   2.839  0.0072 -0.1722  0.0004
 6863TIP3    H142224   0.824   1.501   2.869 -0.7249 -0.6492 -1.5137
 6863TIP3    H242225   0.957   1.550   2.815  0.0650  0.1032  0.9775
 6864TIP3   OH242226   0.901   6.246   3.560  0.4061  0.1705  0.0610
 6864TIP3    H142227   0.950   6.328   3.561  1.2838 -0.3455 -0.0246
 6864TIP3    H242228   0.893   6.222   3.652  1.9373 -0.6849 -0.0053
 6865TIP3   OH242229   1.698   2.207   2.455  0.3187  0.6049  0.9451
 6865TIP3    H142230   1.755   2.284   2.451  1.9302 -0.5795 -0.4563
 6865TIP3    H242231   1.751   2.141   2.500 -0.0224 -0.4510 -0.1654
 6866TIP3   OH242232   0.849   2.413   0.986 -0.5236 -0.4986  0.1281
 6866TIP3    H142233   0.911   2.485   0.975 -1.8102  0.5720 -0.3303
 6866TIP3    H242234   0.764   2.455   0.997 -1.3340 -1.9544 -0.2323
 6867TIP3   OH242235   3.014   1.033   2.389 -0.3122  1.2691 -0.1239
 6867TIP3    H142236   3.060   0.984   2.457 -0.7870 -1.1038 -1.4037
 6867TIP3    H242237   3.084   1.079   2.342  0.8318 -1.5704 -1.4852
 6868TIP3   OH242238   3.697   0.380   8.315 -0.0701  0.0185  0.1291
 6868TIP3    H142239   3.633   0.443   8.281 -1.1208 -1.0744  0.0439
 6868TIP3    H242240   3.779   0.430   8.318 -0.4032  0.8098 -1.9032
 6869TIP3   OH242241   4.427   1.336   1.999  0.0630  0.3443  0.4404
 6869TIP3    H142242   4.464   1.273   2.061 -0.0052 -1.3331 -1.1449
 6869TIP3    H242243   4.503   1.378   1.959  0.1988 -0.7595 -0.4886
 6870TIP3   OH242244   5.527   5.612   1.365  0.3996 -0.4503  0.3141
 6870TIP3    H142245   5.588   5.645   1.431  1.4245  0.5664 -1.0878
 6870TIP3    H242246   5.440   5.633   1.400  0.8658 -0.6968  1.7060
 6871TIP3   OH242247   3.614   3.802   1.334  0.0013  0.1427 -0.1145
 6871TIP3    H142248   3.592   3.895   1.341 -1.6309 -0.0472 -1.9060
 6871TIP3    H242249   3.540   3.763   1.287  0.4183 -2.1722  0.9970
 6872TIP3   OH242250   4.010   0.747   2.776  0.0539 -0.5937  1.0074
 6872TIP3    H142251   4.016   0.652   2.777 -0.0410 -0.5979  1.6242
 6872TIP3    H242252   4.041   0.774   2.863 -0.3714 -0.0931  1.0076
 6873TIP3   OH242253   0.026   2.947   3.230 -0.2163 -0.2300 -0.2363
 6873TIP3    H142254   0.051   3.004   3.303  1.0708 -0.1036 -0.7539
 6873TIP3    H242255  -0.062   2.977   3.206 -0.6198 -0.1929  1.1714
 6874TIP3   OH242256   2.718   3.022   1.666  0.0912  0.0396 -0.0064
 6874TIP3    H142257   2.686   2.933   1.683 -2.0791  0.8134  0.2284
 6874TIP3    H242258   2.728   3.061   1.753 -1.7479  0.9152 -0.1497
 6875TIP3   OH242259   6.575   3.842   3.497 -0.6646  0.3159  0.3170
 6875TIP3    H142260   6.667   3.835   3.471 -1.1188  1.3441 -1.8355
 6875TIP3    H242261   6.534   3.764   3.460 -1.0774  1.1148 -0.9711
 6876TIP3   OH242262   3.715   1.282   2.035  1.0731 -0.3492 -0.2987
 6876TIP3    H142263   3.715   1.232   2.117  0.3759 -0.9234 -0.6363
 6876TIP3    H242264   3.782   1.349   2.048  0.8257 -0.2908  0.8355
 6877TIP3   OH242265   2.656   2.093   3.202 -0.0870 -0.2128  0.0448
 6877TIP3    H142266   2.627   2.067   3.115  0.6311  0.5973 -0.4461
 6877TIP3    H242267   2.625   2.023   3.259 -1.6760 -0.1417 -0.6647
 6878TIP3   OH242268   0.154   6.575   4.447 -0.0912  0.0914 -0.3945
 6878TIP3    H142269   0.184   6.505   4.388 -0.3827 -0.1330 -0.2781
 6878TIP3    H242270   0.116   6.528   4.521  1.6801  0.3361  0.7340
 6879TIP3   OH242271   6.660   2.731   1.982 -0.2596 -0.2521 -0.2994
 6879TIP3    H142272   6.735   2.678   2.008  0.7000  0.2422 -1.9306
 6879TIP3    H242273   6.690   2.781   1.906 -2.2115  0.0178 -0.9670
 6880TIP3   OH242274   5.376   1.796   3.341  0.0798 -0.5471  0.5220
 6880TIP3    H142275   5.300   1.852   3.352  0.8116  0.3770  1.0132
 6880TIP3    H242276   5.343   1.719   3.295 -0.8629  0.4430 -0.4987
 6881TIP3   OH242277   4.279   1.511   0.284 -0.3616  0.1222 -0.7771
 6881TIP3    H142278   4.370   1.534   0.265 -0.1236 -0.5393 -0.4544
 6881TIP3    H242279   4.254   1.570   0.356  0.2100 -0.5260 -0.0324
 6882TIP3   OH242280   4.182   3.193   1.428  0.1555 -0.0998 -0.2929
 6882TIP3    H142281   4.140   3.191   1.341 -2.3499 -2.3725  0.8324
 6882TIP3    H242282   4.133   3.260   1.476 -0.2596 -0.7146  0.1520
 6883TIP3   OH242283   4.135   4.855   0.744  0.0321  0.1288 -0.1170
 6883TIP3    H142284   4.044   4.842   0.772 -0.3140 -0.4804 -1.4759
 6883TIP3    H242285   4.141   4.949   0.727 -1.3296 -0.2422 -3.1660
 6884TIP3   OH242286   2.467   3.591   0.232  0.1016 -0.0721 -0.2491
 6884TIP3    H142287   2.542   3.633   0.274 -0.0385 -1.6226  1.6754
 6884TIP3    H242288   2.498   3.505   0.207 -0.9367 -0.6606  0.3939
 6885TIP3   OH242289   4.080   2.374   1.285  0.2270 -0.0672 -0.4196
 6885TIP3    H142290   4.153   2.431   1.259  0.6642  0.3130  1.4844
 6885TIP3    H242291   4.118   2.286   1.288 -0.1693 -0.3385 -2.2773
 6886TIP3   OH242292   0.600   4.309   2.545 -0.3544 -0.1261 -0.3365
 6886TIP3    H142293   0.545   4.245   2.590 -0.2430 -0.5934 -0.8656
 6886TIP3    H242294   0.539   4.378   2.518 -0.6427 -0.5101 -0.6799
 6887TIP3   OH242295   6.506   2.983   3.075 -0.1361  0.0790 -0.2450
 6887TIP3    H142296   6.523   2.968   2.982  0.3604 -1.1024  0.0205
 6887TIP3    H242297   6.547   3.067   3.094  1.5973 -0.6348 -0.6286
 6888TIP3   OH242298   5.327   4.673   0.403 -0.8625  0.1806  0.1443
 6888TIP3    H142299   5.276   4.593   0.394 -0.7315  0.0044  0.8567
 6888TIP3    H242300   5.417   4.643   0.419 -0.7991  0.4643  0.3378
 6889TIP3   OH242301   5.915   2.264   0.119 -0.1421  0.4094  0.0305
 6889TIP3    H142302   5.860   2.301   0.188  0.3590 -1.4666  1.5016
 6889TIP3    H242303   6.004   2.293   0.141 -0.2036  1.4905 -1.0236
 6890TIP3   OH242304   6.422   5.108   2.013 -0.3997 -0.5445 -0.0344
 6890TIP3    H142305   6.401   5.022   2.048  1.4013 -0.8097  0.5214
 6890TIP3    H242306   6.451   5.091   1.923 -1.7255 -0.2855 -0.5236
 6891TIP3   OH242307   0.585   6.466   2.727 -0.4606  0.2165  0.5059
 6891TIP3    H142308   0.544   6.541   2.684 -0.1867 -0.8774 -1.8070
 6891TIP3    H242309   0.516   6.400   2.730  0.0506 -0.3432  0.0896
 6892TIP3   OH242310   4.432   5.101   0.441  0.2220  0.0633  0.1607
 6892TIP3    H142311   4.386   5.168   0.391  1.4633  0.1611 -0.9062
 6892TIP3    H242312   4.505   5.076   0.385 -0.3777 -2.4216  0.3793
 6893TIP3   OH242313   4.674   4.582   2.280 -0.0332  0.1447  0.3259
 6893TIP3    H142314   4.676   4.675   2.300 -1.2228  0.3728 -0.5073
 6893TIP3    H242315   4.759   4.549   2.308  0.5530  1.5623  0.2650
 6894TIP3   OH242316   0.908   3.774   0.491 -0.1179  0.0765 -0.1420
 6894TIP3    H142317   1.003   3.785   0.502  0.0915 -0.4984 -1.1986
 6894TIP3    H242318   0.877   3.863   0.471  0.2741  0.1865 -0.2786
 6895TIP3   OH242319   3.826   6.474   2.354  0.0167 -0.5031  0.2409
 6895TIP3    H142320   3.875   6.403   2.313 -1.4462 -0.9484 -0.8122
 6895TIP3    H242321   3.735   6.444   2.355 -0.6911  1.4294 -0.4561
 6896TIP3   OH242322   4.298   2.328   0.957 -0.1837 -0.5355  0.0944
 6896TIP3    H142323   4.300   2.318   0.862  3.0419 -0.2611  0.0209
 6896TIP3    H242324   4.319   2.421   0.972  1.3061 -0.9881  1.0396
 6897TIP3   OH242325   0.320   0.214   1.701 -0.0421 -0.1058 -0.2398
 6897TIP3    H142326   0.320   0.164   1.620 -0.7410  0.5300 -0.6440
 6897TIP3    H242327   0.393   0.276   1.691  1.5417 -1.7132  0.7212
 6898TIP3   OH242328   6.758   5.431   0.553  0.5903  0.1717  0.1776
 6898TIP3    H142329   6.678   5.468   0.590  1.0872  0.2500  1.2026
 6898TIP3    H242330   6.798   5.503   0.506 -1.2505 -0.5025 -2.7183
 6899TIP3   OH242331   1.430   4.578   7.794 -0.2362 -0.0315 -0.3349
 6899TIP3    H142332   1.449   4.662   7.751  0.7241 -0.4370 -0.7483
 6899TIP3    H242333   1.506   4.563   7.850  1.2539 -2.1816 -2.7418
 6900TIP3   OH242334   4.363   0.576   3.425 -0.2415 -1.2770  0.5987
 6900TIP3    H142335   4.315   0.506   3.382 -0.0309 -2.2213  1.8684
 6900TIP3    H242336   4.419   0.532   3.489  0.0576  0.0321  1.2792
 6901TIP3   OH242337   6.842   5.892   3.068  0.4924 -0.1466  0.2219
 6901TIP3    H142338   6.900   5.849   3.006  0.7072  0.3731  0.0626
 6901TIP3    H242339   6.877   5.869   3.154 -0.2334 -1.4875  0.1945
 6902TIP3   OH242340   0.365   6.573   8.527  0.5183  0.1978  0.4080
 6902TIP3    H142341   0.284   6.530   8.499  0.5482 -0.8507  1.8133
 6902TIP3    H242342   0.344   6.666   8.530 -0.5775 -0.0428  0.5686
 6903TIP3   OH242343   5.760   0.764   3.335  0.5846 -0.0689 -0.5609
 6903TIP3    H142344   5.795   0.840   3.380  0.5126 -0.2925 -0.1260
 6903TIP3    H242345   5.813   0.691   3.365 -1.2119 -0.6883  1.3590
 6904TIP3   OH242346   5.624   4.755   1.094 -0.0818  0.3067 -0.5328
 6904TIP3    H142347   5.534   4.785   1.084  0.3862  2.2229  0.4639
 6904TIP3    H242348   5.624   4.704   1.175 -0.2440  0.3760 -0.4887
 6905TIP3   OH242349   5.463   5.055   2.554  0.1176  0.5087 -0.0808
 6905TIP3    H142350   5.401   5.072   2.483  1.8215  2.9747 -1.0781
 6905TIP3    H242351   5.420   5.090   2.632 -1.4178 -1.4949  0.0612
 6906TIP3   OH242352   5.555   0.740   4.114  0.2484  0.2338  0.5114
 6906TIP3    H142353   5.482   0.734   4.052  1.5452 -0.4017 -1.0161
 6906TIP3    H242354   5.541   0.824   4.159 -1.4764  0.0610  0.3795
 6907TIP3   OH242355   1.131   3.244   8.581 -0.8308 -0.2820  0.3512
 6907TIP3    H142356   1.075   3.267   8.507 -2.6545  0.2230  1.8048
 6907TIP3    H242357   1.077   3.263   8.658  0.8016 -1.2786  1.8046
 6908TIP3   OH242358   0.103   4.675   2.912 -0.1736 -0.3759  0.2850
 6908TIP3    H142359   0.100   4.580   2.904 -2.0850 -0.2866 -0.5130
 6908TIP3    H242360   0.159   4.703   2.840 -0.4481 -0.8550 -0.1286
 6909TIP3   OH242361   5.762   1.806   3.943 -0.2509 -0.1449 -0.0266
 6909TIP3    H142362   5.855   1.825   3.952 -0.4767  1.2218 -0.2861
 6909TIP3    H242363   5.723   1.841   4.023 -0.7050  0.6344 -0.5701
 6910TIP3   OH242364   5.886   3.850   8.533 -0.4009  0.1114 -0.0835
 6910TIP3    H142365   5.941   3.902   8.475  0.0274  0.3325  0.5116
 6910TIP3    H242366   5.835   3.794   8.474  1.3225 -0.9768 -0.6136
 6911TIP3   OH242367   3.557   2.000   0.731  0.1189 -0.0412 -0.2613
 6911TIP3    H142368   3.550   2.055   0.653 -1.4140 -0.3655 -0.3842
 6911TIP3    H242369   3.629   2.038   0.781  0.0325  1.1906 -1.0304
 6912TIP3   OH242370   4.401   3.929   2.575 -0.1613  0.3701 -0.2903
 6912TIP3    H142371   4.471   3.865   2.579 -0.0579  0.4746 -0.4372
 6912TIP3    H242372   4.338   3.900   2.641 -0.1098  0.1239 -0.3497
 6913TIP3   OH242373   6.617   0.954   8.435  0.1514  1.0035 -0.2860
 6913TIP3    H142374   6.554   1.023   8.417 -0.3401  0.6824  0.1537
 6913TIP3    H242375   6.653   0.930   8.350 -0.6126  0.9183 -0.5832
 6914TIP3   OH242376   5.319   3.976   0.066 -0.1833  0.2687  0.2434
 6914TIP3    H142377   5.229   3.968   0.033 -1.0195  1.6672  2.0417
 6914TIP3    H242378   5.348   4.062   0.038 -0.7451  1.2973  2.5863
 6915TIP3   OH242379   0.136   0.391   8.257  0.1599  0.6334 -0.4683
 6915TIP3    H142380   0.094   0.450   8.195 -0.3753  0.8150  0.0546
 6915TIP3    H242381   0.072   0.321   8.271  0.1862  0.7047  0.0318
 6916TIP3   OH242382   3.267   2.700   2.033  0.0128 -0.1637  0.0459
 6916TIP3    H142383   3.263   2.750   1.952  1.3862  1.0083  0.6469
 6916TIP3    H242384   3.324   2.626   2.012 -1.3480 -1.0621 -0.6135
 6917TIP3   OH242385   5.090   3.395   2.491 -0.2828 -0.1652  0.0786
 6917TIP3    H142386   5.067   3.428   2.403 -2.1865 -3.0704 -0.6568
 6917TIP3    H242387   5.021   3.430   2.548  0.1621  0.5841  0.1702
 6918TIP3   OH242388   5.472   1.504   2.564 -0.4037 -0.0359  0.4089
 6918TIP3    H142389   5.431   1.588   2.583 -3.3755 -1.2911  0.1343
 6918TIP3    H242390   5.495   1.508   2.471 -1.1857  0.2263  0.2254
 6919TIP3   OH242391   0.807   4.707   0.740  0.7091 -0.0665 -0.6739
 6919TIP3    H142392   0.846   4.712   0.827  1.2087  0.1814 -0.9021
 6919TIP3    H242393   0.804   4.614   0.720 -0.2841 -0.1830 -0.0113
 6920TIP3   OH242394   0.935   2.835   4.074 -0.1103 -0.4970  0.2383
 6920TIP3    H142395   1.020   2.803   4.042 -0.1009 -0.9440  0.6932
 6920TIP3    H242396   0.943   2.931   4.070 -0.3056 -0.5342 -1.5590
 6921TIP3   OH242397   0.243   6.804   0.952 -0.0011 -0.3749 -0.2060
 6921TIP3    H142398   0.150   6.795   0.930 -0.1244  1.2256 -0.5252
 6921TIP3    H242399   0.248   6.781   1.045 -0.8433  0.1194 -0.0239
 6922TIP3   OH242400   4.568   6.773   8.519  0.6452  0.1361  0.0473
 6922TIP3    H142401   4.648   6.825   8.517  1.0454 -0.4635  0.1085
 6922TIP3    H242402   4.528   6.787   8.434 -0.2559  2.0704  0.7511
 6923TIP3   OH242403   0.963   4.022   3.792  0.2734 -1.0191  0.5416
 6923TIP3    H142404   0.907   4.051   3.864 -0.9939  0.2496 -0.8602
 6923TIP3    H242405   1.005   4.102   3.760 -1.7203 -0.8819 -2.1251
 6924TIP3   OH242406   4.189   1.193   8.043 -0.2116  0.1443 -0.0153
 6924TIP3    H142407   4.097   1.210   8.066 -0.5856  0.5417 -1.6789
 6924TIP3    H242408   4.193   1.099   8.027 -0.5791  0.2629 -0.8794
 6925TIP3   OH242409   5.334   1.400   1.731 -0.4460 -0.4887  0.1163
 6925TIP3    H142410   5.345   1.369   1.821 -0.9162  0.4012  0.4917
 6925TIP3    H242411   5.241   1.384   1.712 -0.3278 -0.7523 -0.2391
 6926TIP3   OH242412   4.103   3.716   3.847  0.1790  0.2601 -0.2030
 6926TIP3    H142413   4.034   3.776   3.819  0.2757  0.1193 -0.7560
 6926TIP3    H242414   4.055   3.640   3.881  0.0612  0.4255  0.0097
 6927TIP3   OH242415   5.852   2.543   0.527  0.2403 -0.1883  0.7138
 6927TIP3    H142416   5.829   2.485   0.599 -0.7157 -0.3611  0.2788
 6927TIP3    H242417   5.772   2.591   0.508  0.0990 -1.0710 -1.0834
 6928TIP3   OH242418   5.313   0.279   3.074  0.0756  0.7182  0.3769
 6928TIP3    H142419   5.222   0.248   3.078 -0.3308  1.6891 -0.7772
 6928TIP3    H242420   5.365   0.199   3.071 -0.8302  0.1372 -0.3664
 6929TIP3   OH242421   2.576   0.523   1.201  0.4493  0.4384 -0.2529
 6929TIP3    H142422   2.665   0.491   1.190  0.4470  0.8167 -1.5872
 6929TIP3    H242423   2.570   0.547   1.294  0.8804 -2.0120  0.4697
 6930TIP3   OH242424   6.807   3.808   3.748 -0.1026 -0.0646 -0.2357
 6930TIP3    H142425   6.722   3.814   3.705  0.6107 -0.9422 -1.8471
 6930TIP3    H242426   6.870   3.833   3.680  0.9457  0.6463  0.9436
 6931TIP3   OH242427   4.589   6.799   0.276 -0.5355 -0.3891 -0.9033
 6931TIP3    H142428   4.643   6.730   0.237  1.8051  1.3038 -0.8209
 6931TIP3    H242429   4.620   6.880   0.236 -1.4082  0.8996  0.8986
 6932TIP3   OH242430   3.816   1.445   3.009 -0.8523  0.3778 -0.0794
 6932TIP3    H142431   3.792   1.518   2.951  0.7193  0.5786 -0.5247
 6932TIP3    H242432   3.836   1.486   3.093  0.4223  0.5293 -0.4421
 6933TIP3   OH242433   6.202   3.812   0.849 -0.0125  0.4498 -0.2576
 6933TIP3    H142434   6.174   3.787   0.761 -0.6409  0.0411  0.0484
 6933TIP3    H242435   6.297   3.821   0.843  0.0776 -0.6908 -0.7068
 6934TIP3   OH242436   4.290   0.248   2.273  0.1744 -0.8873 -0.1486
 6934TIP3    H142437   4.251   0.188   2.337  0.1426 -0.0977  0.5897
 6934TIP3    H242438   4.263   0.213   2.188 -0.5627 -1.4262  0.2938
 6935TIP3   OH242439   1.854   3.765   3.645  0.0605 -0.1741  0.2433
 6935TIP3    H142440   1.835   3.841   3.700  1.0751 -0.1373  0.5687
 6935TIP3    H242441   1.894   3.702   3.704  0.9148 -0.2372 -0.3728
 6936TIP3   OH242442   1.478   3.813   1.631 -0.2940 -0.0919 -0.2103
 6936TIP3    H142443   1.559   3.860   1.651 -0.1272 -0.3726 -0.2199
 6936TIP3    H242444   1.468   3.751   1.704 -0.8994  0.4555  0.1799
 6937TIP3   OH242445   0.282   4.682   1.609 -0.2601 -0.3890 -0.5818
 6937TIP3    H142446   0.321   4.617   1.551  1.2662 -0.1985  0.1702
 6937TIP3    H242447   0.353   4.706   1.668 -1.3005  0.6615  0.2804
 6938TIP3   OH242448   2.348   4.058   0.433 -0.0905  0.0631  0.3775
 6938TIP3    H142449   2.292   4.003   0.379  0.4972 -1.0480  0.8486
 6938TIP3    H242450   2.414   4.093   0.373 -1.1890  1.3006 -0.1588
 6939TIP3   OH242451   0.319   0.925   0.434  0.1671 -0.0941 -0.4177
 6939TIP3    H142452   0.406   0.911   0.397 -0.3787 -1.0819 -1.3785
 6939TIP3    H242453   0.259   0.912   0.361 -0.9270 -1.6611  0.6900
 6940TIP3   OH242454   3.956   2.586   3.180 -0.2051  0.4459 -0.3665
 6940TIP3    H142455   3.964   2.530   3.258  0.5250  0.1339 -0.6549
 6940TIP3    H242456   3.916   2.529   3.114  0.4622  0.2776 -0.6352
 6941TIP3   OH242457   1.360   6.392   0.809 -0.4386 -0.5516  0.3249
 6941TIP3    H142458   1.441   6.428   0.771 -0.2137  0.1847  1.4558
 6941TIP3    H242459   1.313   6.355   0.734  1.2928 -1.6990 -0.2560
 6942TIP3   OH242460   4.561   5.725   3.323 -0.1845  0.6717 -0.0159
 6942TIP3    H142461   4.478   5.773   3.329 -0.0712  0.7907  0.6493
 6942TIP3    H242462   4.599   5.731   3.411 -0.3981 -1.0511  0.2287
 6943TIP3   OH242463   0.818   4.198   1.073 -0.2950 -0.1382  0.4472
 6943TIP3    H142464   0.847   4.142   1.001  0.4572  1.3592 -0.4374
 6943TIP3    H242465   0.898   4.224   1.118 -0.5117  1.2876  0.0436
 6944TIP3   OH242466   1.996   0.872   2.754  0.4595 -0.1055  0.1953
 6944TIP3    H142467   1.961   0.794   2.711  0.6392  0.4260 -0.9478
 6944TIP3    H242468   2.074   0.840   2.801  1.4126 -0.3770 -1.4807
 6945TIP3   OH242469   5.291   1.855   2.377  0.1981  0.0060 -0.4498
 6945TIP3    H142470   5.340   1.795   2.320  1.5658 -0.6733  1.3522
 6945TIP3    H242471   5.258   1.799   2.447 -0.0946  1.0690  0.2786
 6946TIP3   OH242472   4.198   1.227   1.146  0.3219 -0.8380  0.4291
 6946TIP3    H142473   4.118   1.184   1.177 -2.0357  3.7507  1.5547
 6946TIP3    H242474   4.188   1.231   1.051 -1.4726  0.6583  0.6312
 6947TIP3   OH242475   2.324   5.411   0.334  0.0688 -0.3702  0.2025
 6947TIP3    H142476   2.351   5.454   0.416  0.6954 -0.5336  0.0857
 6947TIP3    H242477   2.232   5.391   0.347 -0.3207  1.2197  0.1786
 6948TIP3   OH242478   5.055   4.620   1.442 -0.6934 -0.3237  0.0638
 6948TIP3    H142479   4.964   4.595   1.456 -1.2254  1.9395  1.1345
 6948TIP3    H242480   5.102   4.582   1.517 -0.7409 -1.4943 -0.4921
 6949TIP3   OH242481   4.610   0.356   2.180  0.5770  0.4763 -0.6289
 6949TIP3    H142482   4.656   0.273   2.192 -1.4822 -0.7674 -0.9765
 6949TIP3    H242483   4.580   0.380   2.268  1.9524  1.3956 -0.3669
 6950TIP3   OH242484   5.363   4.407   2.052 -0.3348  0.7140 -0.0511
 6950TIP3    H142485   5.403   4.320   2.061 -2.2049 -0.1787 -0.0005
 6950TIP3    H242486   5.347   4.417   1.959 -1.5214  0.3307  0.1008
 6951TIP3   OH242487   6.115   6.764   2.525 -0.3058  0.2966  0.3487
 6951TIP3    H142488   6.094   6.733   2.437 -0.7222 -0.0013  0.5503
 6951TIP3    H242489   6.195   6.816   2.514  0.9331 -1.5441  0.1234
 6952TIP3   OH242490   6.476   2.908   8.441 -0.4686 -0.1462  0.3771
 6952TIP3    H142491   6.467   2.986   8.496  0.0485  0.3373 -0.2163
 6952TIP3    H242492   6.565   2.913   8.406 -0.7105 -0.5680 -0.3156
 6953TIP3   OH242493   1.168   0.440   0.903 -0.3337  0.2356 -0.4408
 6953TIP3    H142494   1.212   0.480   0.828 -0.5887  1.7041  0.1424
 6953TIP3    H242495   1.091   0.398   0.866  2.0003 -3.3762 -1.6445
 6954TIP3   OH242496   3.553   4.298   2.498  0.3865  0.0961  0.4541
 6954TIP3    H142497   3.643   4.271   2.516  0.8572  1.0155 -0.4247
 6954TIP3    H242498   3.541   4.282   2.405 -0.9699 -1.6610  0.8864
 6955TIP3   OH242499   1.586   6.069   2.407  0.6299  0.3721 -0.0946
 6955TIP3    H142500   1.673   6.110   2.411  1.1944 -0.7087 -0.8217
 6955TIP3    H242501   1.579   6.019   2.489  1.4268 -0.9023 -0.7643
 6956TIP3   OH242502   2.935   6.838   0.485 -0.4656  0.0542 -0.2723
 6956TIP3    H142503   2.843   6.812   0.478 -0.4028 -0.5882  0.9613
 6956TIP3    H242504   2.942   6.875   0.573  0.4476  0.1118 -0.3630
 6957TIP3   OH242505   2.353   2.578   3.974 -0.2015 -0.3213  0.0837
 6957TIP3    H142506   2.361   2.492   3.932  1.2376 -1.3173  2.1704
 6957TIP3    H242507   2.260   2.585   3.996 -0.2332 -1.6943  0.4917
 6958TIP3   OH242508   0.732   4.400   8.100  0.2306  0.5236 -0.0762
 6958TIP3    H142509   0.805   4.379   8.043 -0.5346 -0.5265 -0.7094
 6958TIP3    H242510   0.681   4.465   8.052 -0.0118  0.1889 -0.2816
 6959TIP3   OH242511   5.172   3.933   3.998 -0.0345  0.2710  0.7765
 6959TIP3    H142512   5.150   4.009   4.052  0.4933  0.0578  1.3026
 6959TIP3    H242513   5.135   3.954   3.912 -1.9698  0.0829  1.5082
 6960TIP3   OH242514   6.389   4.248   2.786 -0.0536 -0.2652 -0.0052
 6960TIP3    H142515   6.472   4.210   2.815  0.0450 -0.5505 -0.6396
 6960TIP3    H242516   6.364   4.196   2.710 -0.5816  0.1174 -0.1005
 6961TIP3   OH242517   4.925   0.329   2.551 -0.2776  0.1806  0.0086
 6961TIP3    H142518   4.932   0.370   2.637  1.6587 -0.6487  0.2964
 6961TIP3    H242519   4.839   0.356   2.518 -1.0305  0.5664  2.1572
 6962TIP3   OH242520   6.313   1.282   1.240 -0.9529  0.4439 -0.0923
 6962TIP3    H142521   6.247   1.219   1.209  0.8177 -1.5131 -0.1044
 6962TIP3    H242522   6.384   1.275   1.176  0.1390  0.9762  1.0215
 6963TIP3   OH242523   2.193   5.399   2.700  0.4230  0.4838  0.4806
 6963TIP3    H142524   2.135   5.366   2.769 -0.9174  2.3236  0.3180
 6963TIP3    H242525   2.262   5.445   2.747  1.5879 -1.3634  0.6624
 6964TIP3   OH242526   6.621   2.185   2.140 -0.3164  0.0513 -0.1161
 6964TIP3    H142527   6.692   2.217   2.085 -0.7813  0.2873 -0.5771
 6964TIP3    H242528   6.543   2.229   2.108 -0.6622 -0.1389  0.4484
 6965TIP3   OH242529   5.877   6.056   3.578  0.1601 -0.5993  0.0772
 6965TIP3    H142530   5.903   6.083   3.666  0.5877  2.5496 -0.8872
 6965TIP3    H242531   5.959   6.031   3.535 -0.0057 -1.7946  0.4050
 6966TIP3   OH242532   4.437   2.449   3.126  0.2223  0.3007  0.3562
 6966TIP3    H142533   4.425   2.490   3.211  0.4022 -0.6283  0.8421
 6966TIP3    H242534   4.481   2.366   3.145 -0.5583 -0.3476 -0.5446
 6967TIP3   OH242535   0.783   1.199   8.084 -0.4865  0.1894  0.3401
 6967TIP3    H142536   0.727   1.121   8.079  0.5517 -0.5254 -1.0965
 6967TIP3    H242537   0.871   1.164   8.100  0.4662  0.7646 -2.9655
 6968TIP3   OH242538   2.792   5.661   2.765  0.8828  0.0487  0.2897
 6968TIP3    H142539   2.763   5.744   2.728  0.7326 -0.3269 -0.4694
 6968TIP3    H242540   2.720   5.601   2.749  1.4444 -0.5126 -0.2369
 6969TIP3   OH242541   3.212   0.966   3.853  0.2121 -0.1644 -0.5795
 6969TIP3    H142542   3.219   1.034   3.920  2.4667 -1.7881  0.9656
 6969TIP3    H242543   3.261   1.001   3.778  0.6229  0.2701 -0.1140
 6970TIP3   OH242544   6.530   0.583   8.518  0.0579 -0.3562 -0.5563
 6970TIP3    H142545   6.524   0.656   8.456 -0.9093  0.1615  0.1170
 6970TIP3    H242546   6.440   0.549   8.524  0.6039 -2.0051 -1.3184
 6971TIP3   OH242547   0.232   4.421   2.777  0.5462  0.3795  0.4410
 6971TIP3    H142548   0.311   4.474   2.781  0.8966  0.1553 -1.8992
 6971TIP3    H242549   0.262   4.334   2.748 -0.5203  0.3239 -0.6024
 6972TIP3   OH242550   1.151   1.557   8.033  0.0603  0.5689  0.4666
 6972TIP3    H142551   1.078   1.559   8.095  0.0550 -0.4458  0.5108
 6972TIP3    H242552   1.221   1.605   8.076 -0.2872  0.7853  0.8004
 6973TIP3   OH242553   1.207   6.415   1.689  0.1997  0.0705  0.0474
 6973TIP3    H142554   1.189   6.392   1.598  1.0525 -1.6093  0.2496
 6973TIP3    H242555   1.150   6.489   1.708 -0.6017 -0.0906 -1.5981
 6974TIP3   OH242556   6.451   6.478   1.259  0.5956  0.0537  0.4855
 6974TIP3    H142557   6.433   6.555   1.313 -1.0332 -0.6166  0.9692
 6974TIP3    H242558   6.376   6.472   1.200  1.0462 -0.7643 -0.0291
 6975TIP3   OH242559   5.486   4.588   4.294 -0.0271 -0.2197  0.2613
 6975TIP3    H142560   5.531   4.554   4.217 -0.5463 -1.0619  0.3187
 6975TIP3    H242561   5.534   4.667   4.317  0.8788 -0.6295 -0.1982
 6976TIP3   OH242562   2.266   5.238   8.167 -0.3175  0.0717  0.2149
 6976TIP3    H142563   2.181   5.269   8.201 -0.4630  0.1737 -0.2403
 6976TIP3    H242564   2.243   5.177   8.098 -0.0170  0.0383  0.1464
 6977TIP3   OH242565   4.863   5.235   3.466  0.2806 -0.1980 -0.0555
 6977TIP3    H142566   4.795   5.190   3.416  0.4692 -1.1996  0.5705
 6977TIP3    H242567   4.851   5.206   3.556  0.8530  0.4697  0.2476
 6978TIP3   OH242568   6.247   0.968   2.006 -0.6306 -0.3745  0.0672
 6978TIP3    H142569   6.230   1.061   1.995  2.8979  0.5651  1.2785
 6978TIP3    H242570   6.209   0.927   1.928 -2.6648  1.9555 -0.2696
 6979TIP3   OH242571   5.599   2.926   8.522 -0.1842 -0.7219  0.2522
 6979TIP3    H142572   5.618   2.947   8.614 -1.4127 -1.0504  0.5972
 6979TIP3    H242573   5.606   2.831   8.517 -0.3067 -0.7198  0.0420
 6980TIP3   OH242574   6.567   1.946   0.987 -0.7669 -0.1904  0.0377
 6980TIP3    H142575   6.543   2.038   1.000  0.0596 -0.0653  0.7495
 6980TIP3    H242576   6.662   1.944   0.997 -0.4680 -0.7317 -2.4047
 6981TIP3   OH242577   5.569   3.389   2.639 -0.4502 -0.4387  0.1396
 6981TIP3    H142578   5.591   3.477   2.671 -0.3942 -0.1970 -0.5467
 6981TIP3    H242579   5.487   3.402   2.590 -0.8224 -0.8991  0.6305
 6982TIP3   OH242580   1.715   3.489   0.697 -0.4099  0.4564 -0.0093
 6982TIP3    H142581   1.655   3.560   0.673 -0.1993 -0.3711 -3.4297
 6982TIP3    H242582   1.707   3.483   0.792 -4.0277  1.8673 -0.0665
 6983TIP3   OH242583   0.252   2.420   0.869  0.3017 -0.5421  0.1239
 6983TIP3    H142584   0.241   2.480   0.795  0.4882  1.1929  1.4205
 6983TIP3    H242585   0.334   2.374   0.851  0.9132  0.6465 -0.2550
 6984TIP3   OH242586   5.393   3.157   0.480 -0.1499  0.0797  0.2030
 6984TIP3    H142587   5.337   3.190   0.550 -0.2594  2.0993 -0.7630
 6984TIP3    H242588   5.357   3.194   0.400  0.8098 -1.0172 -0.7823
 6985TIP3   OH242589   3.112   2.937   3.806 -0.2356  0.5354 -0.3125
 6985TIP3    H142590   3.168   2.866   3.774  1.9124  0.9004  2.2107
 6985TIP3    H242591   3.037   2.893   3.846  1.2436 -0.4577  1.5470
 6986TIP3   OH242592   1.914   6.900   0.310 -0.2323  0.3412  0.1146
 6986TIP3    H142593   1.887   6.896   0.401  0.2773  0.0929  0.2579
 6986TIP3    H242594   1.988   6.961   0.310  0.1499 -0.1164 -0.0356
 6987TIP3   OH242595   0.981   2.708   0.486 -0.3199 -0.2534  0.6542
 6987TIP3    H142596   0.997   2.800   0.506  1.2532 -0.2435 -0.4050
 6987TIP3    H242597   0.970   2.666   0.571 -0.1637  0.7735  1.1895
 6988TIP3   OH242598   4.525   5.087   0.946 -0.1378  0.2257  0.0403
 6988TIP3    H142599   4.475   5.141   1.008  0.3304 -1.9614  2.4904
 6988TIP3    H242600   4.479   5.098   0.863 -2.4283  1.2278  1.3357
 6989TIP3   OH242601   3.378   0.713   0.744  0.3002  0.0104  0.1112
 6989TIP3    H142602   3.466   0.686   0.721  1.0962  1.2227  1.5478
 6989TIP3    H242603   3.373   0.805   0.717  0.2175  0.5583  1.9070
 6990TIP3   OH242604   2.271   6.613   8.418  0.2732 -0.4236  0.8452
 6990TIP3    H142605   2.319   6.598   8.336  0.2071 -1.9102  1.0415
 6990TIP3    H242606   2.308   6.693   8.453  1.5042 -0.6782  0.1872
 6991TIP3   OH242607   2.971   2.578   0.120 -0.5138 -0.1851  0.0716
 6991TIP3    H142608   3.025   2.537   0.053  1.2523  0.5595  0.9728
 6991TIP3    H242609   2.966   2.670   0.094 -3.5411 -0.6181 -1.3551
 6992TIP3   OH242610   0.339   4.885   0.459 -0.2674 -0.3549  0.6103
 6992TIP3    H142611   0.330   4.810   0.400  1.2604  1.0216 -1.5439
 6992TIP3    H242612   0.260   4.937   0.444 -0.4828 -0.6421  0.7414
 6993TIP3   OH242613   4.112   3.321   3.521 -0.0565 -0.1789  0.2890
 6993TIP3    H142614   4.165   3.376   3.579  2.1778 -2.5993  0.7316
 6993TIP3    H242615   4.042   3.287   3.577  0.6486 -0.5674  0.9432
 6994TIP3   OH242616   4.559   4.903   3.008  0.0203 -0.0979  0.0147
 6994TIP3    H142617   4.629   4.884   2.946  0.6321  3.5875 -0.6318
 6994TIP3    H242618   4.492   4.836   2.990  1.8957 -1.6362 -1.6953
 6995TIP3   OH242619   5.875   3.833   2.686 -0.0132  0.5648  0.1188
 6995TIP3    H142620   5.882   3.738   2.682 -1.7609  0.4206 -0.3880
 6995TIP3    H242621   5.816   3.850   2.759 -1.4483  1.1104 -1.1174
 6996TIP3   OH242622   2.936   5.582   0.218 -0.1174  0.3111 -0.1125
 6996TIP3    H142623   2.960   5.583   0.125 -1.9026 -1.3334 -0.6753
 6996TIP3    H242624   2.868   5.649   0.225  1.2731  1.7280  0.4675
 6997TIP3   OH242625   2.921   3.857   3.385 -0.4977  0.5747 -0.5048
 6997TIP3    H142626   3.001   3.812   3.414 -1.0579  0.7155  1.3808
 6997TIP3    H242627   2.925   3.943   3.427 -0.8529  1.2276 -1.7461
 6998TIP3   OH242628   5.557   2.272   4.148  0.1292 -0.0904  0.0665
 6998TIP3    H142629   5.651   2.262   4.135 -0.0439 -1.0774 -0.5174
 6998TIP3    H242630   5.547   2.278   4.243  0.6401 -1.8421  0.2672
 6999TIP3   OH242631   5.177   1.583   0.257  0.4424  0.6724 -0.0116
 6999TIP3    H142632   5.148   1.527   0.329  1.6577  2.1075  1.6849
 6999TIP3    H242633   5.099   1.592   0.201 -0.4356 -0.7733  0.9167
 7000TIP3   OH242634   4.737   2.551   0.164 -0.5137 -1.3867  0.0821
 7000TIP3    H142635   4.830   2.529   0.177 -0.1003 -1.5585 -2.5508
 7000TIP3    H242636   4.714   2.605   0.239  2.5276  0.9543 -0.4665
 7001TIP3   OH242637   5.190   3.994   8.158  0.0436 -0.3925  0.1343
 7001TIP3    H142638   5.096   3.981   8.162 -0.0572  0.1158 -0.3801
 7001TIP3    H242639   5.217   3.950   8.077 -0.0262  0.9299 -0.6408
 7002TIP3   OH242640   3.620   6.143   3.042 -0.1394 -0.1383  0.2013
 7002TIP3    H142641   3.691   6.189   2.997  2.1714 -1.4803  2.2390
 7002TIP3    H242642   3.633   6.051   3.020 -1.6255 -0.3558  0.1706
 7003TIP3   OH242643   0.130   2.330   1.386 -0.0949  0.1707 -0.6003
 7003TIP3    H142644   0.176   2.410   1.360  1.1205 -0.0603  0.7061
 7003TIP3    H242645   0.044   2.361   1.415 -0.1370  0.8316 -1.3780
 7004TIP3   OH242646   3.657   3.747   3.686 -0.3960  0.3364  0.3899
 7004TIP3    H142647   3.678   3.833   3.722  1.3598 -0.2037  0.7654
 7004TIP3    H242648   3.645   3.691   3.763 -2.6768  0.4269  0.1858
 7005TIP3   OH242649   0.430   3.970   2.061  0.1066 -0.3896  0.5923
 7005TIP3    H142650   0.505   4.004   2.110 -0.6821  1.7403  0.4175
 7005TIP3    H242651   0.375   4.046   2.045  0.0381 -1.0150 -3.1711
 7006TIP3   OH242652   4.442   0.847   2.806  0.0698  0.2516 -0.2087
 7006TIP3    H142653   4.434   0.851   2.710  0.3388 -1.0242 -0.3040
 7006TIP3    H242654   4.352   0.861   2.837 -0.2681 -0.6713 -0.7194
 7007TIP3   OH242655   5.725   3.400   0.493 -0.0838 -0.0183  0.3092
 7007TIP3    H142656   5.700   3.324   0.545  0.3123 -0.3975 -0.0316
 7007TIP3    H242657   5.795   3.367   0.436 -1.0838  0.1373 -1.0817
 7008TIP3   OH242658   0.864   1.416   2.111  0.1557  0.3221  0.0217
 7008TIP3    H142659   0.956   1.400   2.130  0.4167  2.2086  0.5205
 7008TIP3    H242660   0.846   1.501   2.150 -2.0120 -0.3371  0.6211
 7009TIP3   OH242661   0.602   6.162   1.892 -0.3254 -0.5397 -0.2798
 7009TIP3    H142662   0.592   6.237   1.950 -0.0484 -0.4863 -0.2992
 7009TIP3    H242663   0.695   6.139   1.898 -0.4955 -1.1603  0.0704
 7010TIP3   OH242664   4.567   1.013   8.025 -0.1263  0.3480 -0.9935
 7010TIP3    H142665   4.538   1.104   8.013  0.1882  0.3595 -1.6748
 7010TIP3    H242666   4.633   0.999   7.957 -0.7902 -0.6641 -1.4499
 7011TIP3   OH242667   4.554   2.727   0.854 -0.1395  0.1212 -0.6189
 7011TIP3    H142668   4.568   2.632   0.861  1.2147  0.3208 -0.3571
 7011TIP3    H242669   4.632   2.760   0.809  0.0898  1.2713  0.5550
 7012TIP3   OH242670   0.626   3.661   1.349  0.0335  0.1358 -0.3749
 7012TIP3    H142671   0.615   3.569   1.325  0.4614 -0.2156  0.7059
 7012TIP3    H242672   0.541   3.687   1.385 -0.5744  0.6319 -2.0706
 7013TIP3   OH242673   3.476   6.136   0.132  0.0891  0.3989 -0.3385
 7013TIP3    H142674   3.565   6.171   0.127  0.0926  0.3091 -0.9670
 7013TIP3    H242675   3.441   6.147   0.043 -0.1353 -0.5925 -0.3830
 7014TIP3   OH242676   1.890   1.030   1.806 -0.0911 -0.1658 -0.0606
 7014TIP3    H142677   1.885   1.107   1.749  0.2437 -0.2600 -0.2184
 7014TIP3    H242678   1.845   1.057   1.886 -1.3128 -0.3136 -0.6757
 7015TIP3   OH242679   6.877   5.760   1.021 -0.2647  0.3302  0.5735
 7015TIP3    H142680   6.822   5.731   0.948 -0.1758 -0.1664  0.6999
 7015TIP3    H242681   6.910   5.845   0.993 -0.5329  0.3147  0.1931
 7016TIP3   OH242682   4.234   5.751   8.060 -0.2970  0.5213 -0.3181
 7016TIP3    H142683   4.260   5.662   8.038  0.1488  0.3377  0.8470
 7016TIP3    H242684   4.301   5.806   8.020  2.0925  0.0501  2.6685
 7017TIP3   OH242685   3.978   5.966   1.321 -0.2310  0.0374  0.1544
 7017TIP3    H142686   3.949   6.038   1.376  0.9110  1.1020 -0.5784
 7017TIP3    H242687   3.975   6.000   1.232  1.9517 -0.1855 -0.0716
 7018TIP3   OH242688   2.269   0.809   2.580 -0.2016  0.8998 -0.1280
 7018TIP3    H142689   2.292   0.845   2.665 -1.0961  1.3297 -0.0649
 7018TIP3    H242690   2.183   0.844   2.560 -0.6367 -0.3372 -0.5602
 7019TIP3   OH242691   0.157   5.450   2.393 -0.0887 -0.8013  0.2629
 7019TIP3    H142692   0.175   5.413   2.480 -0.9471 -0.1232  0.7397
 7019TIP3    H242693   0.143   5.543   2.410  3.4862  0.1587 -1.0689
 7020TIP3   OH242694   1.561   1.992   2.727 -0.1135  0.2480 -0.0397
 7020TIP3    H142695   1.611   1.912   2.717 -0.3553  0.2327 -1.4350
 7020TIP3    H242696   1.592   2.031   2.808  0.3924 -0.9772  0.3720
 7021TIP3   OH242697   3.646   1.246   0.367 -0.1454  0.1838  0.0577
 7021TIP3    H142698   3.606   1.324   0.329  0.3117 -0.6038 -2.2355
 7021TIP3    H242699   3.698   1.279   0.441 -0.1306  2.0112 -0.7134
 7022TIP3   OH242700   3.541   3.718   0.480  0.2792 -0.1287 -0.4245
 7022TIP3    H142701   3.594   3.679   0.410  1.6985 -1.0985  1.0896
 7022TIP3    H242702   3.540   3.811   0.460 -0.2710 -0.4917 -2.2943
 7023TIP3   OH242703   6.347   5.356   0.175  0.5767  0.6991 -0.8057
 7023TIP3    H142704   6.311   5.268   0.176 -0.2317  0.8570 -4.2551
 7023TIP3    H242705   6.438   5.345   0.148  0.3857  0.9220 -1.5583
 7024TIP3   OH242706   4.951   6.710   2.582  0.3506  0.5483  0.1517
 7024TIP3    H142707   4.871   6.751   2.550 -1.0853 -2.4555 -0.4452
 7024TIP3    H242708   4.927   6.671   2.666  1.3154  0.0466  0.2120
 7025TIP3   OH242709   4.597   0.313   1.212  0.3544  0.0410  0.1028
 7025TIP3    H142710   4.533   0.272   1.270 -2.2764  1.6901 -1.4015
 7025TIP3    H242711   4.679   0.266   1.228 -1.1132 -1.9325  2.4403
 7026TIP3   OH242712   3.954   1.145   3.725  0.4719 -0.3976 -0.1743
 7026TIP3    H142713   3.873   1.129   3.677 -0.1408  0.0650  0.6963
 7026TIP3    H242714   4.021   1.097   3.675 -0.6449 -2.4199  0.1771
 7027TIP3   OH242715   6.888   3.106   4.046  0.0536  0.3545 -0.0779
 7027TIP3    H142716   6.884   3.082   3.954  0.7869  2.0430 -0.5848
 7027TIP3    H242717   6.858   3.197   4.049 -1.4362 -0.1358  1.5741
 7028TIP3   OH242718   3.943   4.428   3.122  0.2245 -0.4009  0.4534
 7028TIP3    H142719   4.026   4.474   3.114  0.2913 -0.8338 -2.3460
 7028TIP3    H242720   3.899   4.470   3.197  2.3482  0.7605  1.1201
 7029TIP3   OH242721   2.955   0.433   3.385  0.5208  0.3363 -0.2057
 7029TIP3    H142722   2.866   0.418   3.415  0.2681 -0.6503 -1.3573
 7029TIP3    H242723   2.962   0.382   3.304  2.6481 -1.0737  0.7705
 7030TIP3   OH242724   0.697   5.258   8.484  0.0211  0.1933  0.3582
 7030TIP3    H142725   0.726   5.223   8.400  0.6555  1.3851  0.0537
 7030TIP3    H242726   0.601   5.255   8.479  0.0570 -0.0901 -0.2649
 7031TIP3   OH242727   2.841   1.772   0.861 -0.2033 -0.3316  0.1061
 7031TIP3    H142728   2.922   1.723   0.871  1.5064  2.1152 -0.8660
 7031TIP3    H242729   2.805   1.776   0.950  0.2628 -2.1232  0.4207
 7032TIP3   OH242730   5.758   5.550   8.510 -0.6530 -0.5595 -0.0697
 7032TIP3    H142731   5.732   5.580   8.423  0.3387 -0.7463 -0.4405
 7032TIP3    H242732   5.776   5.456   8.499  1.3115 -0.2212 -0.1315
 7033TIP3   OH242733   0.031   0.932   2.546  0.6601  0.1774 -0.6337
 7033TIP3    H142734   0.068   0.940   2.458  1.7177 -0.6400 -0.2893
 7033TIP3    H242735   0.011   1.022   2.573  1.8062  0.5830 -1.1044
 7034TIP3   OH242736   0.561   4.626   3.127  0.2420  0.2088  0.2407
 7034TIP3    H142737   0.613   4.547   3.115  0.8858  0.7887 -1.0275
 7034TIP3    H242738   0.605   4.674   3.197 -0.1383 -0.5268  1.0006
 7035TIP3   OH242739   0.253   0.132   1.046  0.0416 -0.1155  0.1674
 7035TIP3    H142740   0.198   0.177   0.982  1.4386  2.0157  0.3719
 7035TIP3    H242741   0.277   0.049   1.004 -0.7089  0.3419 -1.2000
 7036TIP3   OH242742   6.705   3.293   8.330 -0.0634 -0.6013  0.4430
 7036TIP3    H142743   6.733   3.381   8.306  1.1774 -0.9577  0.5031
 7036TIP3    H242744   6.701   3.246   8.247  0.8264 -0.8975  0.5545
 7037TIP3   OH242745   4.840   3.716   0.323  0.7396 -0.2711 -0.2537
 7037TIP3    H142746   4.778   3.773   0.368  0.5585  0.4539 -1.3901
 7037TIP3    H242747   4.918   3.716   0.378  0.4030  0.3165  0.2297
 7038TIP3   OH242748   0.969   0.973   3.295  0.3444 -0.0961  0.7583
 7038TIP3    H142749   0.962   0.980   3.200 -0.7483 -0.4520  0.8004
 7038TIP3    H242750   1.057   1.005   3.315  1.1494 -1.4107 -0.5165
 7039TIP3   OH242751   4.035   3.412   1.511  0.2043 -0.5688 -0.2111
 7039TIP3    H142752   4.006   3.471   1.580  2.4316 -1.0942  1.2655
 7039TIP3    H242753   4.026   3.463   1.430 -2.8884 -0.0975  0.3094
 7040TIP3   OH242754   5.611   0.774   3.093 -0.1027  0.2256 -0.4284
 7040TIP3    H142755   5.518   0.752   3.105  0.1322 -0.6280 -0.0723
 7040TIP3    H242756   5.646   0.776   3.182  0.2056  0.6270 -0.5575
 7041TIP3   OH242757   3.949   0.860   0.584 -0.8805  0.6324  0.1284
 7041TIP3    H142758   3.973   0.769   0.570 -1.2512  0.6965 -1.0247
 7041TIP3    H242759   4.030   0.909   0.571 -0.8350  0.5305  0.0294
 7042TIP3   OH242760   5.499   3.757   1.412 -0.3293 -0.1698  0.4652
 7042TIP3    H142761   5.454   3.698   1.473 -0.0013 -1.5876 -0.5998
 7042TIP3    H242762   5.586   3.717   1.401 -0.0051  0.6657 -0.0955
 7043TIP3   OH242763   0.418   6.151   2.724 -0.2616 -0.1205 -0.8666
 7043TIP3    H142764   0.324   6.136   2.726 -0.3318  0.3155  0.9597
 7043TIP3    H242765   0.435   6.210   2.797  1.2078  1.3132 -2.2869
 7044TIP3   OH242766   5.805   0.310   8.365 -0.0809 -0.3319 -0.3249
 7044TIP3    H142767   5.887   0.351   8.391 -0.4052  0.5132 -0.5844
 7044TIP3    H242768   5.777   0.359   8.287 -1.1490 -0.1770  0.1331
 7045TIP3   OH242769   4.163   4.832   0.161 -0.2006 -0.0212  0.6361
 7045TIP3    H142770   4.077   4.858   0.128 -0.4916 -0.4493  1.0557
 7045TIP3    H242771   4.145   4.766   0.227  0.5164 -0.9651 -0.0930
 7046TIP3   OH242772   4.714   2.275   2.501 -0.0046 -0.3297  0.3412
 7046TIP3    H142773   4.708   2.189   2.543 -0.5414 -0.8434 -0.7192
 7046TIP3    H242774   4.808   2.291   2.492  0.1121 -0.4179  1.2839
 7047TIP3   OH242775   2.883   2.527   2.441 -0.7131  0.3359  0.1658
 7047TIP3    H142776   2.855   2.546   2.531 -0.6518 -0.2551  0.3146
 7047TIP3    H242777   2.956   2.587   2.426 -2.1275  2.0119 -0.2938
 7048TIP3   OH242778   1.882   5.371   3.383  0.1783 -0.0023 -0.0483
 7048TIP3    H142779   1.964   5.327   3.362 -0.3627 -0.7577 -0.6119
 7048TIP3    H242780   1.863   5.346   3.473  0.4045 -0.0682 -0.0182
 7049TIP3   OH242781   3.703   2.831   1.600  0.3808 -0.7253 -0.1365
 7049TIP3    H142782   3.666   2.801   1.517  1.8838 -0.2743 -1.0046
 7049TIP3    H242783   3.778   2.773   1.615  1.3300  0.4592 -0.1510
 7050TIP3   OH242784   0.614   3.957   3.465  0.0720 -0.3147  0.3764
 7050TIP3    H142785   0.593   3.877   3.416 -0.3012 -1.5700  2.4709
 7050TIP3    H242786   0.707   3.948   3.486  0.0555 -0.1338  0.5216
 7051TIP3   OH242787   1.932   5.692   8.533 -0.5465 -0.2705 -0.1830
 7051TIP3    H142788   1.845   5.722   8.561 -0.6498 -1.1989  0.5314
 7051TIP3    H242789   1.914   5.614   8.481 -0.0826 -1.0921  0.8661
 7052TIP3   OH242790   5.110   0.914   1.351 -0.2363  0.3224 -0.3751
 7052TIP3    H142791   5.155   0.930   1.434 -0.3845 -0.9598 -0.0241
 7052TIP3    H242792   5.040   0.979   1.349 -0.8741 -0.2770  1.0010
 7053TIP3   OH242793   6.322   5.879   8.108 -0.0601  0.2071  0.2980
 7053TIP3    H142794   6.353   5.813   8.047 -2.5584 -1.7602  0.9983
 7053TIP3    H242795   6.401   5.906   8.156  1.6701  0.6461 -2.5784
 7054TIP3   OH242796   3.753   5.481   0.736  0.1394  0.1645  0.2868
 7054TIP3    H142797   3.820   5.441   0.681  1.3658 -0.7129  2.2789
 7054TIP3    H242798   3.699   5.407   0.766 -1.6961  0.8380 -1.1680
 7055TIP3   OH242799   5.425   6.532   0.995 -0.0144 -0.1705 -0.4406
 7055TIP3    H142800   5.330   6.525   0.988 -0.1721  1.1813  0.0469
 7055TIP3    H242801   5.439   6.570   1.081  0.7325  3.3336 -1.9546
 7056TIP3   OH242802   1.644   2.774   0.386  0.0194 -0.4937  0.3647
 7056TIP3    H142803   1.618   2.856   0.428  0.2209 -0.6061  0.7136
 7056TIP3    H242804   1.678   2.800   0.301  2.3198  0.0528  1.3753
 7057TIP3   OH242805   2.554   3.855   2.110 -0.7296 -0.2569 -0.8056
 7057TIP3    H142806   2.502   3.812   2.178  1.8681 -1.3171  0.6440
 7057TIP3    H242807   2.535   3.805   2.031 -0.2385 -2.0825  0.1818
 7058TIP3   OH242808   4.475   3.829   0.537 -0.2465  0.1283  0.3563
 7058TIP3    H142809   4.487   3.885   0.460 -1.5257  0.0940  0.1082
 7058TIP3    H242810   4.494   3.740   0.506 -0.0524  0.1979  0.2731
 7059TIP3   OH242811   2.673   3.984   0.690 -0.2294 -0.2777  0.3767
 7059TIP3    H142812   2.750   3.927   0.688  0.4220  0.5503  1.2317
 7059TIP3    H242813   2.606   3.934   0.642  1.0382 -0.6929 -1.0753
 7060TIP3   OH242814   4.621   3.376   8.470 -0.6448  0.2557  0.4039
 7060TIP3    H142815   4.583   3.458   8.439  0.5306  0.1129 -1.5963
 7060TIP3    H242816   4.592   3.310   8.407  0.6664 -0.3400  0.3775
 7061TIP3   OH242817   0.991   1.186   1.614  0.3093 -0.1344 -0.3229
 7061TIP3    H142818   0.985   1.213   1.705 -3.5347  0.0562 -0.4418
 7061TIP3    H242819   1.003   1.268   1.565  0.3218  0.0060 -0.0834
 7062TIP3   OH242820   6.157   3.028   0.547 -0.3504  0.1900 -0.2991
 7062TIP3    H142821   6.126   3.030   0.456  1.4644  1.6479 -0.9640
 7062TIP3    H242822   6.148   3.119   0.576 -1.9004 -0.4524  1.3994
 7063TIP3   OH242823   6.834   4.951   1.414  0.2387 -0.1485 -0.1210
 7063TIP3    H142824   6.856   4.948   1.321  0.6126  0.3542 -0.0551
 7063TIP3    H242825   6.873   4.871   1.451  0.1867 -0.2895 -0.3714
 7064TIP3   OH242826   6.490   6.671   1.716 -0.3197 -0.6104 -0.2552
 7064TIP3    H142827   6.511   6.705   1.803 -0.9088  1.7380 -0.9586
 7064TIP3    H242828   6.410   6.619   1.730  0.5430 -1.7021  0.8468
 7065TIP3   OH242829   2.709   4.387   0.603  0.1336 -0.4607 -0.0188
 7065TIP3    H142830   2.717   4.411   0.696 -0.7334 -2.3952  0.6040
 7065TIP3    H242831   2.621   4.415   0.579  1.1468  2.1581 -0.9839
 7066TIP3   OH242832   2.012   2.116   0.937 -0.4352 -0.0855 -0.2132
 7066TIP3    H142833   2.013   2.035   0.988 -0.7379 -2.2318 -3.3060
 7066TIP3    H242834   1.919   2.130   0.916 -0.3401  0.8496 -0.0488
 7067TIP3   OH242835   5.182   6.243   0.872  0.0266 -0.5980 -0.2079
 7067TIP3    H142836   5.092   6.244   0.840 -0.9180 -1.7566  2.1851
 7067TIP3    H242837   5.209   6.152   0.865  0.4514 -0.5367  0.5360
 7068TIP3   OH242838   2.006   4.391   0.537  0.4880  0.7395 -0.5508
 7068TIP3    H142839   2.099   4.377   0.518  0.2787 -1.3000 -0.3568
 7068TIP3    H242840   2.005   4.437   0.621  1.4082 -2.2291  1.2692
 7069TIP3   OH242841   1.837   2.077   2.215 -0.5180 -0.2076 -0.2194
 7069TIP3    H142842   1.803   2.111   2.298  0.0696 -1.7417  0.6825
 7069TIP3    H242843   1.909   2.136   2.192 -1.4817  0.9801 -0.3424
 7070TIP3   OH242844   6.493   3.661   3.253 -0.1613  0.9522  0.4253
 7070TIP3    H142845   6.483   3.595   3.185  0.8229  2.1448 -0.9465
 7070TIP3    H242846   6.405   3.696   3.265 -0.0867  2.0363 -1.6742
 7071TIP3   OH242847   2.332   6.703   2.958  0.6102  0.6983  0.1751
 7071TIP3    H142848   2.336   6.669   3.048  0.4897  0.3172  0.0401
 7071TIP3    H242849   2.253   6.662   2.921  1.5320 -0.4295 -0.6173
 7072TIP3   OH242850   0.216   5.813   3.203  0.5752  0.4825  0.4377
 7072TIP3    H142851   0.188   5.773   3.121  1.8612 -2.5841  1.3713
 7072TIP3    H242852   0.136   5.821   3.255  0.2157 -0.6354  0.0813
 7073TIP3   OH242853   0.019   3.722   4.394  0.0594 -0.3252  0.0160
 7073TIP3    H142854   0.024   3.806   4.348 -0.0559  0.4063  1.2732
 7073TIP3    H242855   0.099   3.676   4.370  0.4134  0.3972 -0.2244
 7074TIP3   OH242856   1.322   5.102   2.985 -0.0158 -0.0806  0.1305
 7074TIP3    H142857   1.248   5.046   2.961  0.1223 -0.4069  0.4541
 7074TIP3    H242858   1.375   5.048   3.043 -0.5922  0.8468  1.5877
 7075TIP3   OH242859   3.792   4.603   2.117 -0.2754  0.6672  0.0231
 7075TIP3    H142860   3.715   4.557   2.150 -1.0845  2.1830  0.3541
 7075TIP3    H242861   3.847   4.616   2.195  0.2453 -0.2579 -0.1813
 7076TIP3   OH242862   1.616   6.457   0.013  0.3189  0.0299 -0.0690
 7076TIP3    H142863   1.546   6.513  -0.020  0.5068  0.0914 -0.3614
 7076TIP3    H242864   1.573   6.400   0.076  0.2153  0.8543  0.6333
 7077TIP3   OH242865   6.608   3.388   2.147 -1.0801  0.4570  0.2414
 7077TIP3    H142866   6.533   3.341   2.184 -0.9902  0.0474 -0.0890
 7077TIP3    H242867   6.624   3.345   2.063  0.6183 -0.6118  1.0605
 7078TIP3   OH242868   0.581   6.132   2.505 -0.1378 -0.3118 -0.1138
 7078TIP3    H142869   0.614   6.042   2.504 -1.8768 -0.9957 -0.3265
 7078TIP3    H242870   0.526   6.136   2.583  0.0571  0.6288 -0.0142
 7079TIP3   OH242871   5.271   1.997   1.607  0.1573 -0.1866  0.0182
 7079TIP3    H142872   5.208   1.952   1.550 -1.9247  2.7519 -0.2258
 7079TIP3    H242873   5.264   1.950   1.691 -0.8590 -1.1543 -0.5717
 7080TIP3   OH242874   5.673   6.227   3.034 -0.1195  0.1572  0.0424
 7080TIP3    H142875   5.652   6.174   3.111  0.5335 -1.1497 -0.6450
 7080TIP3    H242876   5.745   6.180   2.992  0.0715  1.2862 -0.9280
 7081TIP3   OH242877   3.297   2.447   3.839  0.2692  0.3746  0.0535
 7081TIP3    H142878   3.391   2.430   3.847  0.6892  2.4547  0.1932
 7081TIP3    H242879   3.256   2.389   3.904  1.2688 -1.7040 -1.0899
 7082TIP3   OH242880   0.276   6.119   1.951  0.2619 -0.2330  0.9123
 7082TIP3    H142881   0.358   6.078   1.922  0.3170  0.7759 -0.5151
 7082TIP3    H242882   0.207   6.064   1.914  0.3292 -0.0394  0.4821
 7083TIP3   OH242883   0.900   1.825   2.151 -0.2249  0.1010  0.3422
 7083TIP3    H142884   0.885   1.910   2.192  0.1610  1.4863 -2.1910
 7083TIP3    H242885   0.994   1.809   2.160 -0.0698  0.6046 -0.3168
 7084TIP3   OH242886   3.065   5.849   0.423  0.0397 -0.1682 -0.8014
 7084TIP3    H142887   3.063   5.823   0.330 -2.0743 -3.2731 -0.0453
 7084TIP3    H242888   3.104   5.774   0.467  3.4579  2.2563  0.7384
 7085TIP3   OH242889   2.810   3.197   1.044  0.0332  0.1910  0.0656
 7085TIP3    H142890   2.899   3.233   1.052  0.0110 -0.0925  1.8893
 7085TIP3    H242891   2.753   3.264   1.080 -0.4102  0.0049 -0.2786
 7086TIP3   OH242892   1.466   3.840   1.959 -0.2772  0.5250 -0.4372
 7086TIP3    H142893   1.386   3.849   2.011 -0.1092  1.1199 -0.2759
 7086TIP3    H242894   1.461   3.751   1.923 -1.3987  0.8237 -1.0686
 7087TIP3   OH242895   3.144   0.497   2.435 -0.2472  0.1771  0.5805
 7087TIP3    H142896   3.157   0.513   2.341  0.3887  1.1671  0.8286
 7087TIP3    H242897   3.162   0.403   2.445 -0.5305  0.0101 -0.3137
 7088TIP3   OH242898   6.099   3.287   2.821  0.1428 -0.7932 -0.0546
 7088TIP3    H142899   6.034   3.357   2.822  0.5599 -0.3258 -2.2977
 7088TIP3    H242900   6.139   3.291   2.908 -2.1617 -0.5010  1.0613
 7089TIP3   OH242901   3.411   2.745   2.871 -0.2930 -0.1854 -0.1250
 7089TIP3    H142902   3.387   2.811   2.806 -1.1138 -0.0506  0.2969
 7089TIP3    H242903   3.361   2.667   2.846  1.2998 -0.9529 -1.1174
 7090TIP3   OH242904   2.393   0.799   1.982 -0.3939  0.2625  0.2342
 7090TIP3    H142905   2.317   0.785   1.926 -0.2165  1.7353 -0.4177
 7090TIP3    H242906   2.357   0.802   2.071 -1.0360  0.4688 -0.0290
 7091TIP3   OH242907   1.339   1.706   2.913  0.3150 -0.5746  0.3314
 7091TIP3    H142908   1.275   1.639   2.936  1.3523 -2.1334 -1.0586
 7091TIP3    H242909   1.366   1.684   2.824  1.2266  1.2936  0.0978
 7092TIP3   OH242910   3.353   6.206   0.725  0.0922 -0.2244 -0.1078
 7092TIP3    H142911   3.356   6.159   0.807 -0.4659 -0.6531 -0.3269
 7092TIP3    H242912   3.435   6.256   0.722 -0.7791  1.4325  1.6652
 7093TIP3   OH242913   5.086   6.690   3.512 -0.1493 -0.4465 -0.3362
 7093TIP3    H142914   5.050   6.779   3.508  0.4583 -0.2294 -2.8855
 7093TIP3    H242915   5.143   6.691   3.589 -0.5690  1.1874 -0.0013
 7094TIP3   OH242916   6.910   3.557   1.352  0.2798 -0.1135 -0.0431
 7094TIP3    H142917   6.958   3.627   1.309  0.7980 -1.6956 -2.2284
 7094TIP3    H242918   6.978   3.506   1.397 -0.0287  0.4072  1.0652
 7095TIP3   OH242919   1.141   4.853   2.985 -0.5440 -0.2283  0.7738
 7095TIP3    H142920   1.110   4.911   2.916  1.4847 -0.1490 -0.1452
 7095TIP3    H242921   1.072   4.855   3.051 -0.7883  2.8593  0.5604
 7096TIP3   OH242922   0.300   6.376   4.320  0.0059  0.2839 -0.5180
 7096TIP3    H142923   0.295   6.294   4.271  0.1469 -0.8346  1.2510
 7096TIP3    H242924   0.384   6.370   4.367 -0.2843  1.1448  0.1306
 7097TIP3   OH242925   4.796   1.304   1.539 -0.0879 -0.3979  0.4497
 7097TIP3    H142926   4.819   1.395   1.559  0.0930 -0.2220 -0.4751
 7097TIP3    H242927   4.813   1.256   1.620  3.2562 -0.2137 -0.0012
 7098TIP3   OH242928   3.587   2.680   1.390  0.5099  0.2294  0.2720
 7098TIP3    H142929   3.643   2.636   1.326  0.8813 -0.9245  1.3408
 7098TIP3    H242930   3.503   2.688   1.347 -0.3090 -3.7284  0.7487
 7099TIP3   OH242931   0.538   3.602   1.994 -0.0125 -0.0025 -0.0766
 7099TIP3    H142932   0.574   3.603   2.083  0.8730  0.1142 -0.4280
 7099TIP3    H242933   0.602   3.651   1.942 -0.2472 -0.5439 -0.8839
 7100TIP3   OH242934   6.420   1.711   2.976 -0.0494  0.0447  0.1240
 7100TIP3    H142935   6.325   1.701   2.980 -0.0397 -0.0863  0.0462
 7100TIP3    H242936   6.454   1.624   2.996  0.0336 -0.1118 -0.6585
 7101TIP3   OH242937   6.327   2.348   1.513  0.0840  0.3567 -0.2478
 7101TIP3    H142938   6.322   2.296   1.432  0.9569  0.2673 -0.2591
 7101TIP3    H242939   6.292   2.434   1.488  0.7373  0.4616 -0.8502
 7102TIP3   OH242940   5.487   2.920   2.091 -0.3629  0.0430 -0.4761
 7102TIP3    H142941   5.558   2.893   2.149 -1.2819 -0.0690  0.6514
 7102TIP3    H242942   5.525   2.989   2.037  0.9210 -0.8304 -0.7136
 7103TIP3   OH242943   0.706   1.252   0.621  0.4378  0.1209  0.4044
 7103TIP3    H142944   0.666   1.295   0.697 -1.3460 -0.9667  0.1527
 7103TIP3    H242945   0.673   1.300   0.546  0.4443 -0.1364  0.2357
 7104TIP3   OH242946   5.188   1.066   1.850  0.0365 -0.0947  0.0310
 7104TIP3    H142947   5.151   1.154   1.847 -1.0143 -0.4515  1.4093
 7104TIP3    H242948   5.162   1.032   1.935  0.3471 -1.7758 -0.5031
 7105TIP3   OH242949   2.233   1.162   2.811  0.3745 -0.0043  0.0324
 7105TIP3    H142950   2.286   1.223   2.759 -0.1503  0.1151 -0.3621
 7105TIP3    H242951   2.170   1.218   2.857  0.4541 -0.1680  0.3434
 7106TIP3   OH242952   0.702   2.637   8.068  0.0219 -0.5889  0.6224
 7106TIP3    H142953   0.734   2.554   8.102 -0.0981 -1.3136 -0.9522
 7106TIP3    H242954   0.608   2.623   8.056  0.2799 -0.9264 -1.4275
 7107TIP3   OH242955   1.101   6.458   8.208  0.6082 -0.4496 -0.8403
 7107TIP3    H142956   1.154   6.536   8.194 -0.4174  0.0472 -2.2291
 7107TIP3    H242957   1.153   6.386   8.172  1.9254 -0.5923  1.1988
 7108TIP3   OH242958   3.139   0.240   0.254  0.3956  0.6565 -0.3359
 7108TIP3    H142959   3.128   0.146   0.268 -1.5058  1.0792  1.6896
 7108TIP3    H242960   3.077   0.280   0.314  0.7694  3.2270 -1.5214
 7109TIP3   OH242961   2.060   0.084   3.331  0.0794 -0.0981  0.1096
 7109TIP3    H142962   2.025   0.060   3.417  1.3490 -0.1029  0.6439
 7109TIP3    H242963   2.062   0.179   3.331 -0.8644 -0.0647 -0.3240
 7110TIP3   OH242964   2.181   3.643   0.573  0.1313 -0.2138 -0.3395
 7110TIP3    H142965   2.093   3.652   0.608  0.0816 -1.2244 -0.1603
 7110TIP3    H242966   2.182   3.699   0.496 -1.0753 -1.1094 -1.0487
 7111TIP3   OH242967   0.217   6.242   3.511  0.0012 -0.0188 -0.4241
 7111TIP3    H142968   0.252   6.286   3.434  0.4560 -1.4241 -1.0473
 7111TIP3    H242969   0.294   6.217   3.562 -0.2965  1.1959  0.7076
 7112TIP3   OH242970   5.809   5.508   4.559 -0.0019  0.2867  0.0669
 7112TIP3    H142971   5.868   5.582   4.576 -0.9889  0.6286  2.4787
 7112TIP3    H242972   5.735   5.547   4.513 -1.4386  1.3708  2.9933
 7113TIP3   OH242973   6.559   1.284   2.466  0.2501  0.9389 -0.0840
 7113TIP3    H142974   6.529   1.347   2.401 -1.2326  0.1615 -0.1881
 7113TIP3    H242975   6.510   1.204   2.447  0.9817  0.2020  0.9873
 7114TIP3   OH242976   6.086   1.593   3.426 -0.0383  0.0332 -0.2928
 7114TIP3    H142977   6.014   1.606   3.488  0.9277  0.4557  0.7624
 7114TIP3    H242978   6.154   1.549   3.477 -0.0924 -1.7717 -1.6673
 7115TIP3   OH242979   5.695   3.151   3.391  0.0366 -0.0816 -0.3865
 7115TIP3    H142980   5.783   3.142   3.353  0.0344 -0.7030 -0.2521
 7115TIP3    H242981   5.655   3.223   3.341 -0.0226 -0.9677 -1.6644
 7116TIP3   OH242982   0.954   2.929   2.958 -0.4496 -0.0912  0.0406
 7116TIP3    H142983   1.012   2.901   3.028 -0.5417  0.1279  0.2051
 7116TIP3    H242984   0.872   2.882   2.973 -0.6001  0.2515  0.3096
 7117TIP3   OH242985   5.468   0.653   0.525 -0.4482  0.1013 -0.5457
 7117TIP3    H142986   5.462   0.559   0.508 -1.2517 -0.1493  0.9726
 7117TIP3    H242987   5.474   0.693   0.438  1.0930 -1.4121 -1.1647
 7118TIP3   OH242988   2.759   3.476   3.036  0.2257  0.3718  0.1265
 7118TIP3    H142989   2.820   3.490   3.108  0.6012  1.5218 -0.3865
 7118TIP3    H242990   2.768   3.383   3.015  0.8689  0.2488  0.8854
 7119TIP3   OH242991   6.396   2.422   7.954 -0.9988 -0.2873  0.0671
 7119TIP3    H142992   6.459   2.461   7.893 -1.0868 -0.5464 -0.1937
 7119TIP3    H242993   6.416   2.328   7.951 -0.4065 -0.2133  1.1211
 7120TIP3   OH242994   6.518   2.787   1.624 -0.0179  1.0823  0.0274
 7120TIP3    H142995   6.458   2.847   1.667 -0.0993  1.4505 -0.5824
 7120TIP3    H242996   6.605   2.821   1.643 -0.0923  1.9859 -1.1353
 7121TIP3   OH242997   1.418   2.094   0.022 -0.1204 -0.2613 -0.1428
 7121TIP3    H142998   1.471   2.172   0.003  0.3980 -0.7941 -0.9550
 7121TIP3    H242999   1.345   2.100  -0.040 -0.1452 -0.3593 -0.1221
 7122TIP3   OH243000   5.673   1.367   8.379  0.5682  0.0232  0.2003
 7122TIP3    H143001   5.736   1.435   8.357  0.3562 -0.2810 -1.4988
 7122TIP3    H243002   5.714   1.286   8.348  0.3351 -0.4795  1.1740
 7123TIP3   OH243003   6.398   1.004   3.655  1.0496  0.4571  0.2812
 7123TIP3    H143004   6.484   0.985   3.694  1.3464 -1.5290 -1.1603
 7123TIP3    H243005   6.418   1.028   3.564  0.2338  2.7976  0.6620
 7124TIP3   OH243006   2.140   0.901   0.679  0.2526  0.4926  0.3500
 7124TIP3    H143007   2.112   0.887   0.588  0.1954  0.4411  0.3753
 7124TIP3    H243008   2.235   0.903   0.675  0.2237  1.5519  0.1323
 7125TIP3   OH243009   5.840   4.801   0.628 -0.0007 -0.4119  0.1269
 7125TIP3    H143010   5.746   4.808   0.640 -0.2031 -0.2814 -1.3695
 7125TIP3    H243011   5.852   4.718   0.581  0.5505 -0.0483 -0.3880
 7126TIP3   OH243012   1.047   0.797   2.183 -0.3762  0.1697 -0.1610
 7126TIP3    H143013   1.137   0.791   2.150 -0.0950  0.4480  0.5522
 7126TIP3    H243014   1.054   0.846   2.265 -1.0563 -0.6210  0.3864
 7127TIP3   OH243015   0.425   5.315   0.646 -0.2635  0.1157  0.6336
 7127TIP3    H143016   0.461   5.258   0.578  0.8403  1.8629 -0.3566
 7127TIP3    H243017   0.347   5.353   0.606  1.4328  2.6397 -0.5665
 7128TIP3   OH243018   6.565   6.224   1.282  0.4171  0.2001 -0.0625
 7128TIP3    H143019   6.659   6.238   1.290  0.2451  0.4185  2.3871
 7128TIP3    H243020   6.527   6.311   1.297 -0.2022  0.0689 -0.8164
 7129TIP3   OH243021   4.809   6.044   1.954 -0.2521 -0.1355  0.2452
 7129TIP3    H143022   4.831   5.975   2.018  0.1116 -0.6589 -0.4303
 7129TIP3    H243023   4.846   6.012   1.872 -1.7909 -0.0519 -0.4991
 7130TIP3   OH243024   1.911   5.506   2.509  0.0146  0.5051 -0.1713
 7130TIP3    H143025   1.845   5.573   2.491  2.1509  2.3678 -1.6564
 7130TIP3    H243026   1.861   5.425   2.515 -2.6592  2.0970  1.2128
 7131TIP3   OH243027   0.904   2.086   3.115 -0.3599 -0.0765 -0.4112
 7131TIP3    H143028   0.909   1.994   3.088 -1.8475  0.2531 -1.9411
 7131TIP3    H243029   0.846   2.085   3.192  0.0924 -0.4736 -0.0696
 7132TIP3   OH243030   6.469   4.635   0.281  0.1495 -0.0511 -0.0655
 7132TIP3    H143031   6.498   4.559   0.331 -0.6652  0.6254  1.4787
 7132TIP3    H243032   6.420   4.598   0.207  0.5187 -1.0340  0.1725
 7133TIP3   OH243033   5.784   4.757   3.285 -0.7707  0.6575  0.4696
 7133TIP3    H143034   5.818   4.686   3.340  0.6527  1.2180  0.3670
 7133TIP3    H243035   5.701   4.724   3.252 -1.0261 -0.2135  1.9002
 7134TIP3   OH243036   3.601   5.016   0.863 -0.0571 -0.8904  0.0575
 7134TIP3    H143037   3.667   4.984   0.802  0.8104  0.1688  0.4066
 7134TIP3    H243038   3.632   4.988   0.949  0.7698  0.8438  0.3832
 7135TIP3   OH243039   5.958   3.023   1.939 -1.0116 -0.2280 -0.3021
 7135TIP3    H143040   6.049   3.049   1.937 -0.6588 -1.1645 -4.0257
 7135TIP3    H243041   5.935   3.022   2.032  2.6528  0.2431  0.7542
 7136TIP3   OH243042   2.458   4.928   0.503 -0.7908  0.3011  0.0191
 7136TIP3    H143043   2.486   4.842   0.534 -0.5996 -0.7960 -2.9401
 7136TIP3    H243044   2.532   4.986   0.522  0.6996 -1.0595 -1.3653
 7137TIP3   OH243045   3.347   4.902   8.274  0.0694  0.1284  0.4745
 7137TIP3    H143046   3.274   4.926   8.217 -0.7643 -0.5661  1.2112
 7137TIP3    H243047   3.371   4.983   8.317 -0.3665  0.3419  0.3289
 7138TIP3   OH243048   5.131   6.791   3.197  0.2332  0.0764  0.1972
 7138TIP3    H143049   5.042   6.759   3.184  0.7811 -1.0030 -1.0539
 7138TIP3    H243050   5.180   6.760   3.121  1.9919 -0.4868  1.4897
 7139TIP3   OH243051   2.530   6.827   1.046  0.1284  0.8091 -0.4611
 7139TIP3    H143052   2.521   6.851   0.954  0.6860  0.5527 -0.5891
 7139TIP3    H243053   2.462   6.761   1.060 -1.6428  2.6698 -0.0076
 7140TIP3   OH243054   2.124   1.707   1.160 -0.3690 -0.1128 -0.1160
 7140TIP3    H143055   2.185   1.700   1.233 -0.1838  0.1725 -0.2419
 7140TIP3    H243056   2.108   1.616   1.133 -2.5631 -0.4560  2.0169
 7141TIP3   OH243057   1.995   5.076   0.712 -0.1440  0.0380  0.4088
 7141TIP3    H143058   2.050   4.997   0.715 -0.2532 -0.0793 -0.3043
 7141TIP3    H243059   1.921   5.050   0.657 -0.1672  0.6485  0.1533
 7142TIP3   OH243060   1.695   3.156   1.539 -0.0802  0.2974  0.6541
 7142TIP3    H143061   1.637   3.155   1.463  0.6061  0.6327  0.1131
 7142TIP3    H243062   1.652   3.215   1.601 -0.7376 -0.1246  0.6065
 7143TIP3   OH243063   5.260   2.436   3.213 -0.5009  0.0600  0.0410
 7143TIP3    H143064   5.289   2.346   3.230 -1.1074 -0.3519 -1.0374
 7143TIP3    H243065   5.165   2.432   3.222 -0.5874  0.4387 -0.7238
 7144TIP3   OH243066   2.318   5.645   0.573  0.2361 -0.0470  0.1542
 7144TIP3    H143067   2.327   5.683   0.660  1.1648  2.3161 -0.8853
 7144TIP3    H243068   2.236   5.681   0.539 -0.6022 -1.6817  0.3323
 7145TIP3   OH243069   2.099   1.381   3.490 -0.3137  0.6548  0.3690
 7145TIP3    H143070   2.091   1.287   3.472  1.0309  1.0614 -3.4361
 7145TIP3    H243071   2.032   1.421   3.436  0.3188  1.9500  0.5173
 7146TIP3   OH243072   5.629   0.291   1.949  0.2366 -0.0757 -0.0289
 7146TIP3    H143073   5.682   0.368   1.969  1.1887 -0.8740  0.6517
 7146TIP3    H243074   5.554   0.325   1.900  2.2047  0.9037 -2.5588
 7147LIG     O143075   4.103   0.778   4.135 -0.2455  0.1810 -0.2238
 7147LIG     O243076   4.343   0.686   4.199  0.3929 -0.0963  0.3947
 7147LIG     O343077   3.989   0.655   4.396  0.4748  0.0206 -0.0616
 7147LIG     O443078   4.525   0.798   4.265  0.3926 -0.0938  0.1791
 7147LIG     O543079   4.313   0.886   4.496  0.3393  0.7509 -0.1730
 7147LIG     O643080   4.347   0.580   4.582  0.2759 -0.7277 -0.1703
 7147LIG     O743081   4.604   0.528   4.504  0.1708 -0.2959 -0.1878
 7147LIG     O843082   4.700   0.651   4.117 -0.4062 -0.3787 -0.7355
 7147LIG     O943083   4.745   0.506   4.287 -0.3017  0.6981  0.5311
 7147LIG      N43084   3.984   0.555   3.716  0.1678  0.0854 -0.0617
 7147LIG     C143085   4.116   0.668   3.944  0.0493 -0.3166  0.2490
 7147LIG     C243086   4.195   0.584   3.850 -0.2106  0.3324 -0.0943
 7147LIG     C343087   4.195   0.770   4.024  0.1498 -0.0872  0.1008
 7147LIG     C443088   4.096   0.483   3.784 -0.2270 -0.7308  0.0607
 7147LIG     C543089   3.982   0.729   3.887 -0.7536 -0.5882  0.3823
 7147LIG     C643090   4.056   0.577   4.040  0.7092  0.3623  0.0929
 7147LIG     C743091   4.049   0.384   3.889 -0.1086  0.3430  0.7241
 7147LIG     C843092   3.894   0.638   3.802  0.0101  0.2072 -0.2875
 7147LIG     C943093   4.336   0.714   4.057  0.1119 -1.2149  0.0860
 7147LIG    C1043094   4.022   0.445   4.029  0.9118  0.2756  0.0134
 7147LIG    C1143095   4.310   0.518   3.923  0.3328 -0.1290  0.1057
 7147LIG    C1243096   4.054   0.650   4.161 -0.2215  0.1170 -0.1862
 7147LIG    C1343097   4.374   0.577   4.017 -0.1472 -0.0282 -0.1031
 7147LIG    C1443098   4.023   0.624   3.596 -0.9151  0.4993 -0.3235
 7147LIG    C1543099   3.976   0.379   4.143  0.5865  0.0402  0.0104
 7147LIG    C1643100   4.013   0.583   4.276  0.5178 -0.6543 -0.0661
 7147LIG    C1743101   3.968   0.446   4.264  0.2172 -0.1888  0.4106
 7147LIG    C1843102   4.383   0.787   4.278 -0.5779 -1.0355  0.8647
 7147LIG    C1943103   4.338   0.763   4.417 -0.1240  0.0138 -0.1610
 7147LIG    C2043104   4.426   0.678   4.508  0.6597  0.0635  0.3646
 7147LIG    C2143105   4.516   0.595   4.411 -0.3191 -0.3125  0.3114
 7147LIG    C2243106   4.600   0.694   4.333 -0.4905 -0.3059 -0.3354
 7147LIG    C2343107   4.687   0.604   4.242 -0.6128  0.5108 -0.6899
 7147LIG     H143108   4.238   0.650   3.772  0.8908 -0.9448 -0.6133
 7147LIG     H243109   4.208   0.873   3.984 -1.4014  0.6831  1.4822
 7147LIG     H343110   4.153   0.420   3.713 -1.2517 -2.2137  0.5245
 7147LIG     H443111   4.012   0.816   3.824 -0.3947 -0.4787  0.7079
 7147LIG     H543112   3.927   0.767   3.975  2.5167 -0.6007  2.5975
 7147LIG     H643113   4.124   0.305   3.912 -1.7235 -2.0117 -1.5043
 7147LIG     H743114   3.965   0.330   3.841  0.4209 -0.0394  0.2110
 7147LIG     H843115   3.827   0.577   3.867 -0.0521  2.9696  2.4435
 7147LIG     H943116   3.829   0.711   3.749  0.0483  0.6394  0.2539
 7147LIG    H1043117   4.413   0.787   4.023 -0.4747 -0.7937 -0.3635
 7147LIG    H1143118   4.323   0.411   3.901 -0.2896  0.0441 -1.2448
 7147LIG    H1243119   4.455   0.534   4.078 -0.6325  0.3629  0.8510
 7147LIG    H1343120   4.024   0.735   3.604  0.0683  0.4665  0.2268
 7147LIG    H1443121   3.962   0.598   3.508 -1.5873 -2.1071  0.8046
 7147LIG    H1543122   4.127   0.599   3.564  0.4544  2.1822  2.3777
 7147LIG    H1643123   3.945   0.276   4.136 -1.0999  0.5186  0.0558
 7147LIG    H1743124   3.917   0.394   4.344 -2.1072  1.2291 -0.0586
 7147LIG    H1843125   4.333   0.877   4.235  1.4746 -1.1587 -2.0962
 7147LIG    H1943126   4.236   0.718   4.420  0.4567 -1.3005  1.0484
 7147LIG    H2043127   4.493   0.742   4.569  0.8564  0.1271  0.0841
 7147LIG    H2143128   4.005   0.593   4.468 -0.7417 -1.5961 -1.1046
 7147LIG    H2243129   4.459   0.525   4.347  1.3948 -2.2359  0.7916
 7147LIG    H2343130   4.674   0.737   4.404 -1.2585 -0.7958  0.7968
 7147LIG    H2443131   4.224   0.911   4.469  0.0116  0.6609  0.8016
 7147LIG    H2543132   4.416   0.517   4.606  0.7674 -0.4959 -0.9488
 7147LIG    H2643133   4.655   0.466   4.452  0.4315 -0.5357  0.3494
 7147LIG    H2743134   4.754   0.593   4.062 -0.6673 -0.0841 -1.3178
   6.94186   6.94186   8.58681
